Title
42785
    1SAPS     N    1   5.400   2.602   7.041 -0.2770  0.2015 -0.1372
    1SAPS   HN1    2   5.442   2.529   6.981  0.1315  0.0148  0.3717
    1SAPS   HN2    3   5.464   2.683   7.029  0.4570 -0.7316 -3.6592
    1SAPS   HN3    4   5.387   2.580   7.142  0.3693  0.5798  0.0351
    1SAPS   C12    5   5.262   2.629   6.980 -0.8400 -0.0953  0.0973
    1SAPS  H12A    6   5.204   2.539   6.997  0.6567 -1.3930 -1.3692
    1SAPS   C13    7   5.186   2.747   7.045 -0.8596 -0.2523 -0.3312
    1SAPS  O13A    8   5.253   2.821   7.128  0.3878  0.0019 -0.2441
    1SAPS  O13B    9   5.067   2.769   7.014  0.0664 -0.9181 -0.5597
    1SAPS   C11   10   5.278   2.669   6.833  0.4742  0.5631  0.1022
    1SAPS  H11A   11   5.320   2.771   6.817 -0.9356  1.1315 -0.1594
    1SAPS  H11B   12   5.175   2.670   6.791 -0.0337  1.4150  1.2901
    1SAPS     P   13   5.399   2.578   6.618 -0.0336  0.2229  0.0133
    1SAPS   O13   14   5.513   2.671   6.618  0.4528  0.2752 -0.0961
    1SAPS   O14   15   5.419   2.439   6.583 -0.6330 -0.1484 -0.5236
    1SAPS   O12   16   5.352   2.564   6.768 -0.3868  0.0789 -0.0063
    1SAPS   O11   17   5.283   2.638   6.529  0.0602  0.6515 -0.0970
    1SAPS    C1   18   5.168   2.555   6.496  0.1456  0.3211  0.2406
    1SAPS    HA   19   5.135   2.488   6.577  0.3110  0.6412  0.5776
    1SAPS    HB   20   5.083   2.618   6.462  0.4668  0.2117 -0.8116
    1SAPS    C2   21   5.202   2.459   6.377 -0.7227  0.4157 -0.5286
    1SAPS    HS   22   5.254   2.370   6.420  0.5056 -0.3347 -3.3635
    1SAPS   O21   23   5.280   2.533   6.287  0.0159 -0.2552  0.0232
    1SAPS   C21   24   5.363   2.469   6.211  0.3777  0.0253 -0.1158
    1SAPS   O22   25   5.378   2.348   6.221 -0.4135  0.4130 -0.2416
    1SAPS   C22   26   5.442   2.566   6.116  0.7208  0.4176  0.1193
    1SAPS   H2R   27   5.366   2.609   6.047  1.8434  3.3054  0.5493
    1SAPS   H2S   28   5.487   2.644   6.181 -1.1859 -0.4294  2.5860
    1SAPS    C3   29   5.065   2.409   6.307  0.2989 -0.1340 -0.1548
    1SAPS    HX   30   5.007   2.503   6.300  0.2420 -0.2439 -1.5327
    1SAPS    HY   31   5.024   2.340   6.384 -3.0777  0.9842 -0.7578
    1SAPS   O31   32   5.076   2.336   6.178 -0.2531  0.2480 -0.4337
    1SAPS   C31   33   4.982   2.346   6.090  0.0726  0.1866 -0.0740
    1SAPS   O32   34   4.873   2.403   6.104  0.2627 -0.0166 -0.2515
    1SAPS   C32   35   5.021   2.284   5.955  0.4046  0.6845 -0.3681
    1SAPS   H2X   36   5.104   2.217   5.985 -1.6478 -1.0043  1.9890
    1SAPS   H2Y   37   5.034   2.370   5.885 -2.6897  1.8469  0.3025
    1SAPS   C23   38   5.539   2.485   6.027 -0.8855 -0.2051  0.0713
    1SAPS   H3R   39   5.473   2.429   5.958  0.9069 -0.5385 -1.4779
    1SAPS   H3S   40   5.599   2.416   6.091  0.0668  0.0624 -0.5069
    1SAPS   C24   41   5.637   2.576   5.948  0.6251  0.0534 -0.0864
    1SAPS   H4R   42   5.719   2.613   6.013  1.1432  0.9479 -1.2000
    1SAPS   H4S   43   5.587   2.668   5.910 -4.6066 -2.0083  1.0647
    1SAPS   C25   44   5.708   2.493   5.845 -0.8699 -0.8474  0.5071
    1SAPS   H5R   45   5.714   2.385   5.863  0.5141 -0.5069  2.5334
    1SAPS   C26   46   5.749   2.550   5.728 -1.0511  0.2037  0.5015
    1SAPS   H6R   47   5.803   2.501   5.645 -1.9473 -0.0734  0.0673
    1SAPS   C27   48   5.739   2.702   5.698  0.6803  0.8130  0.2470
    1SAPS   H7R   49   5.843   2.730   5.670  0.4730  0.5557 -0.8183
    1SAPS   H7S   50   5.712   2.763   5.787  1.8312  1.6151  0.0763
    1SAPS   C28   51   5.637   2.736   5.589 -0.0977 -0.9088 -0.3042
    1SAPS   H8R   52   5.537   2.754   5.632  0.2997  0.9446 -0.0467
    1SAPS   C29   53   5.649   2.763   5.454  0.2992  0.2776  0.2059
    1SAPS   H9R   54   5.553   2.768   5.401 -0.3145  1.1436  1.3463
    1SAPS  C210   55   5.773   2.757   5.365  0.4958 -0.3147  0.2451
    1SAPS  H10R   56   5.860   2.751   5.433  0.9332  2.2758  0.0286
    1SAPS  H10S   57   5.785   2.858   5.320  0.0862  0.5906  2.0623
    1SAPS  C211   58   5.767   2.637   5.275  0.0243 -0.3499 -0.3138
    1SAPS  H11R   59   5.740   2.542   5.324 -0.3770 -0.0889 -0.0285
    1SAPS  C212   60   5.789   2.632   5.142  0.7807  0.0215  0.0544
    1SAPS  H12R   61   5.795   2.540   5.083 -0.9064 -0.6681  0.9040
    1SAPS  C213   62   5.817   2.755   5.056 -0.3096  0.2624 -0.9152
    1SAPS  H13R   63   5.894   2.813   5.112 -0.4453 -0.8429  0.4833
    1SAPS  H13S   64   5.723   2.813   5.049 -1.8167 -1.9085  0.1346
    1SAPS  C214   65   5.874   2.721   4.915 -0.4608 -0.2143 -0.3530
    1SAPS  H14R   66   5.984   2.724   4.912 -0.3479 -1.0995  1.7151
    1SAPS  C215   67   5.812   2.681   4.802 -0.5530  0.1700 -0.3291
    1SAPS  H15R   68   5.861   2.673   4.703  0.3385  0.0592  0.1157
    1SAPS  C216   69   5.663   2.670   4.796 -0.5788  0.7396  0.0326
    1SAPS  H16R   70   5.604   2.735   4.864  0.0172  2.8506 -1.3635
    1SAPS  H16S   71   5.644   2.563   4.816  0.3663 -0.2018 -3.3910
    1SAPS  C217   72   5.608   2.713   4.658  0.3440 -0.4381 -0.0572
    1SAPS  H17R   73   5.505   2.678   4.636 -0.1357  0.5429  0.5573
    1SAPS  H17S   74   5.680   2.680   4.580  4.1267  0.6385  2.6642
    1SAPS  C218   75   5.594   2.864   4.651 -0.0085 -0.4361 -0.7505
    1SAPS  H18R   76   5.684   2.918   4.686 -0.2413  0.1323 -1.0260
    1SAPS  H18S   77   5.504   2.894   4.709 -0.9491 -1.1877 -1.7580
    1SAPS  C219   78   5.568   2.900   4.504  0.3414  0.1744 -0.2505
    1SAPS  H19R   79   5.507   2.992   4.503 -1.0762 -0.6625  1.6656
    1SAPS  H19S   80   5.501   2.822   4.461  2.3215 -3.1317  2.2037
    1SAPS  C220   81   5.689   2.913   4.414 -0.5573  0.0802  0.7634
    1SAPS  H20R   82   5.743   2.817   4.400  1.1921  1.2020 -0.5040
    1SAPS  H20S   83   5.764   2.978   4.464  0.3428 -1.5742  1.6745
    1SAPS  H20T   84   5.654   2.961   4.321 -2.5735 -0.0371  1.3999
    1SAPS   C33   85   4.904   2.194   5.904 -0.5946 -0.9346  0.0651
    1SAPS   H3X   86   4.807   2.247   5.894  0.6719  1.0430 -3.6772
    1SAPS   H3Y   87   4.885   2.109   5.973  0.3754 -0.8692  0.4187
    1SAPS   C34   88   4.933   2.135   5.765  0.3937 -0.2414  0.5300
    1SAPS   H4X   89   4.849   2.070   5.731  0.5635  0.2632 -0.9235
    1SAPS   H4Y   90   5.026   2.075   5.772 -0.0729 -0.8250  2.6699
    1SAPS   C35   91   4.943   2.236   5.645  0.2842 -0.6934 -0.2101
    1SAPS   H5X   92   5.031   2.304   5.648 -0.6139  0.5409  3.2937
    1SAPS   H5Y   93   4.858   2.307   5.647  1.5864  0.9404 -0.3504
    1SAPS   C36   94   4.933   2.155   5.518 -0.1164  0.2185 -0.2438
    1SAPS   H6X   95   4.826   2.155   5.486  0.1908  1.5498 -1.3920
    1SAPS   H6Y   96   4.974   2.055   5.544 -0.8196  0.4866  2.0715
    1SAPS   C37   97   5.008   2.210   5.399 -0.3480 -0.2312 -0.5805
    1SAPS   H7X   98   5.116   2.208   5.424 -0.7871  0.0448  1.5354
    1SAPS   H7Y   99   4.972   2.314   5.382 -1.5072 -0.5416 -0.1446
    1SAPS   C38  100   4.991   2.124   5.273  0.2811 -0.9454  0.4094
    1SAPS   H8X  101   4.888   2.124   5.230 -0.3547  0.9613  1.7940
    1SAPS   H8Y  102   5.012   2.022   5.310 -0.6293 -1.7792 -1.2488
    1SAPS   C39  103   5.089   2.144   5.158  0.5273 -0.1461  0.0443
    1SAPS   H9X  104   5.187   2.173   5.202  1.0350  1.3509 -1.9200
    1SAPS   H9Y  105   5.068   2.234   5.097 -0.6886 -0.8216 -0.5630
    1SAPS  C310  106   5.080   2.024   5.058  0.4529  0.3458  0.2846
    1SAPS  H10X  107   5.134   2.052   4.964  0.4106 -2.1382 -0.5515
    1SAPS  H10Y  108   4.971   2.006   5.046  0.1374  1.1886  1.6741
    1SAPS  C311  109   5.147   1.891   5.103 -0.0957  0.3231  0.9949
    1SAPS  H11X  110   5.099   1.847   5.194  1.3412 -2.8015  0.3717
    1SAPS  H11Y  111   5.246   1.923   5.141 -1.3817  2.3011  2.9427
    1SAPS  C312  112   5.151   1.771   5.001 -0.2669 -0.4805 -0.1679
    1SAPS  H12X  113   5.046   1.735   4.996  0.5056 -2.6975 -1.8645
    1SAPS  H12Y  114   5.213   1.690   5.044  1.6781  0.1279 -1.6651
    1SAPS  C313  115   5.195   1.805   4.859  0.6224  0.2349  0.3496
    1SAPS  H13X  116   5.127   1.888   4.833 -1.9824 -0.8536  3.1397
    1SAPS  H13Y  117   5.177   1.725   4.783  1.9335  1.1762 -1.0073
    1SAPS  C314  118   5.345   1.844   4.858 -0.8289  0.8773  0.4151
    1SAPS  H14X  119   5.409   1.797   4.935 -1.9956 -1.6019 -0.0148
    1SAPS  H14Y  120   5.355   1.953   4.877  1.5107  0.8852 -0.5797
    1SAPS  C315  121   5.396   1.815   4.714 -0.5103  0.3060 -0.4444
    1SAPS  H15X  122   5.326   1.864   4.643  0.6805  1.8356 -0.6139
    1SAPS  H15Y  123   5.406   1.705   4.698  2.9175  0.3568  0.6202
    1SAPS  C316  124   5.542   1.868   4.691 -0.4792  0.1816 -0.1260
    1SAPS  H16X  125   5.548   1.972   4.730 -1.5424  0.4778 -0.7179
    1SAPS  H16Y  126   5.551   1.864   4.580  1.4193  0.8224 -0.0475
    1SAPS  C317  127   5.653   1.769   4.738 -0.1962  0.5552 -0.1898
    1SAPS  H17X  128   5.647   1.764   4.849 -0.5611  1.2224 -0.1706
    1SAPS  H17Y  129   5.747   1.824   4.718 -0.6162  1.6700  0.7353
    1SAPS  C318  130   5.664   1.636   4.671  0.2443  0.2000 -0.6788
    1SAPS  H18X  131   5.758   1.581   4.690 -0.9538 -2.0655 -0.8984
    1SAPS  H18Y  132   5.665   1.656   4.562 -0.4234 -1.0175 -0.9302
    1SAPS  H18Z  133   5.591   1.555   4.693  0.7496 -0.3254 -0.9049
    2SAPS     N  134   2.448   6.383   6.550 -0.0006 -0.3079 -0.0137
    2SAPS   HN1  135   2.451   6.398   6.652  0.7904 -1.4577  0.1576
    2SAPS   HN2  136   2.350   6.372   6.517 -0.1403  1.5336 -0.3221
    2SAPS   HN3  137   2.495   6.296   6.515 -0.4947  0.4281 -2.7949
    2SAPS   C12  138   2.517   6.505   6.499 -0.0940 -0.1359 -0.1374
    2SAPS  H12A  139   2.465   6.585   6.550 -1.0081 -0.1541 -1.0084
    2SAPS   C13  140   2.664   6.512   6.532 -0.1747  0.3812 -0.4920
    2SAPS  O13A  141   2.723   6.411   6.585  0.8242 -0.0022 -0.5464
    2SAPS  O13B  142   2.716   6.627   6.545  0.3621  0.1817  0.8215
    2SAPS   C11  143   2.500   6.514   6.346 -0.8762  0.2019 -0.0197
    2SAPS  H11A  144   2.561   6.434   6.298  2.2277  1.9315  0.7779
    2SAPS  H11B  145   2.544   6.610   6.314 -1.6813  0.2211 -1.0979
    2SAPS     P  146   2.322   6.566   6.166  0.2979 -0.0094  0.4781
    2SAPS   O13  147   2.189   6.507   6.138  0.1624  0.3164 -0.4871
    2SAPS   O14  148   2.334   6.711   6.177  0.4230  0.4710  0.3931
    2SAPS   O12  149   2.359   6.507   6.302 -0.6808 -0.1557 -0.0207
    2SAPS   O11  150   2.441   6.508   6.073  0.1590  0.3669  0.1854
    2SAPS    C1  151   2.437   6.366   6.039 -0.1869  0.2946 -0.8758
    2SAPS    HA  152   2.454   6.312   6.134  0.3766  1.8846 -0.0352
    2SAPS    HB  153   2.341   6.329   5.998  1.1217 -1.9695 -2.1024
    2SAPS    C2  154   2.546   6.326   5.936 -0.0896  0.0380 -0.6626
    2SAPS    HS  155   2.539   6.217   5.915  0.2718  0.1539 -1.4089
    2SAPS   O21  156   2.676   6.373   5.978 -0.0651  0.0191  0.1038
    2SAPS   C21  157   2.773   6.301   5.938 -0.0605  0.8401 -0.3089
    2SAPS   O22  158   2.763   6.205   5.865  0.2273 -0.2227 -0.0738
    2SAPS   C22  159   2.912   6.363   5.977 -0.4051 -0.6109 -0.5921
    2SAPS   H2R  160   2.905   6.386   6.085 -2.5994  2.1741 -1.2013
    2SAPS   H2S  161   2.986   6.285   5.949  0.8703  1.6322 -4.0746
    2SAPS    C3  162   2.515   6.400   5.803  0.4881 -0.0096  0.0205
    2SAPS    HX  163   2.519   6.510   5.818  0.4435  0.1598 -1.1272
    2SAPS    HY  164   2.406   6.393   5.786  0.7053  0.9872 -1.9705
    2SAPS   O31  165   2.588   6.347   5.694 -0.2096  0.0400  0.3273
    2SAPS   C31  166   2.608   6.420   5.588  0.2224  0.7678  0.1646
    2SAPS   O32  167   2.579   6.537   5.576  1.0406  0.6642 -0.0200
    2SAPS   C32  168   2.700   6.351   5.485 -0.0841  0.4350  0.7116
    2SAPS   H2X  169   2.695   6.242   5.507 -2.3854  0.1998 -0.5914
    2SAPS   H2Y  170   2.798   6.387   5.522  0.3565 -0.4565  0.4387
    2SAPS   C23  171   2.938   6.485   5.887  0.4836 -0.7489 -0.4294
    2SAPS   H3R  172   3.034   6.525   5.924  0.8464 -1.2164 -0.8357
    2SAPS   H3S  173   2.859   6.562   5.892  0.7597 -0.5626  3.6047
    2SAPS   C24  174   2.974   6.444   5.744  0.1077 -1.2755 -0.2177
    2SAPS   H4R  175   2.884   6.399   5.698 -0.3340  0.5345 -1.2293
    2SAPS   H4S  176   3.054   6.368   5.753  0.9871 -0.2058  1.8530
    2SAPS   C25  177   3.017   6.560   5.661 -0.0769  0.0934 -0.1161
    2SAPS   H5R  178   2.966   6.654   5.687 -2.1101 -0.6764 -1.1072
    2SAPS   C26  179   3.117   6.560   5.571  0.6262  0.3749  0.4966
    2SAPS   H6R  180   3.131   6.652   5.512 -0.4895 -0.4279 -1.0919
    2SAPS   C27  181   3.199   6.438   5.532  0.1751  0.9040 -0.1197
    2SAPS   H7R  182   3.137   6.346   5.542  0.9942  0.5276  1.8568
    2SAPS   H7S  183   3.290   6.429   5.595 -0.2099 -0.3470  0.2930
    2SAPS   C28  184   3.258   6.453   5.391  0.0812 -0.0612  0.0133
    2SAPS   H8R  185   3.326   6.539   5.384 -1.5875  1.4557  1.4985
    2SAPS   C29  186   3.239   6.370   5.292  0.3368 -0.2326  1.1587
    2SAPS   H9R  187   3.291   6.369   5.195 -1.8225 -3.4393 -0.1528
    2SAPS  C210  188   3.173   6.237   5.290 -0.5059 -0.2884 -0.4497
    2SAPS  H10R  189   3.175   6.188   5.390 -0.5459 -1.8881 -1.2147
    2SAPS  H10S  190   3.251   6.172   5.246  1.9115  1.2129  1.3454
    2SAPS  C211  191   3.034   6.233   5.239 -0.4704  0.4169  0.1077
    2SAPS  H11R  192   2.956   6.281   5.300 -0.4343  0.0755  0.4237
    2SAPS  C212  193   2.988   6.175   5.128  0.5676  0.0151 -0.0889
    2SAPS  H12R  194   2.880   6.176   5.104  0.1997 -2.4076  1.1284
    2SAPS  C213  195   3.080   6.099   5.036 -0.0317  0.5576  1.0653
    2SAPS  H13R  196   3.035   6.004   4.999 -2.7722  1.8830  0.7880
    2SAPS  H13S  197   3.170   6.066   5.092  0.8866 -1.3080 -1.2954
    2SAPS  C214  198   3.122   6.187   4.916 -0.2050 -0.1058 -0.0955
    2SAPS  H14R  199   3.116   6.295   4.935  4.6402  0.5423 -0.9801
    2SAPS  C215  200   3.185   6.147   4.806  0.1498 -0.1510  0.1046
    2SAPS  H15R  201   3.220   6.227   4.739  1.7554 -0.4366  0.5693
    2SAPS  C216  202   3.227   6.001   4.778  0.2413 -0.1213 -0.7510
    2SAPS  H16R  203   3.144   5.938   4.739 -1.9242  1.0912  1.6013
    2SAPS  H16S  204   3.270   5.942   4.862  2.4798  1.3007 -0.8160
    2SAPS  C217  205   3.335   5.991   4.670 -0.6302  0.1305  0.2909
    2SAPS  H17R  206   3.419   5.930   4.710 -0.1941 -0.5511 -1.5268
    2SAPS  H17S  207   3.370   6.092   4.641  2.2888 -0.4925  1.2922
    2SAPS  C218  208   3.293   5.908   4.548  0.0290 -0.4133 -0.1613
    2SAPS  H18R  209   3.192   5.948   4.524 -0.3073  0.6008  2.6662
    2SAPS  H18S  210   3.276   5.805   4.585  2.3393 -0.4820  0.8795
    2SAPS  C219  211   3.373   5.908   4.417 -0.0782 -0.0112  0.0533
    2SAPS  H19R  212   3.474   5.861   4.426  0.5922  1.7429  2.9100
    2SAPS  H19S  213   3.390   6.013   4.386 -1.8984  0.7758  1.5826
    2SAPS  C220  214   3.307   5.832   4.299 -1.0592 -0.3437 -0.5895
    2SAPS  H20R  215   3.283   5.728   4.328 -1.3400 -0.2798 -0.5885
    2SAPS  H20S  216   3.379   5.826   4.215 -1.2469 -0.8896 -0.7124
    2SAPS  H20T  217   3.215   5.892   4.278 -0.2728  1.3565  0.5244
    2SAPS   C33  218   2.670   6.379   5.333  0.0618  0.4658 -0.1038
    2SAPS   H3X  219   2.562   6.387   5.309 -0.2086 -0.5770  0.7188
    2SAPS   H3Y  220   2.716   6.291   5.283  0.4758  0.5650  0.1045
    2SAPS   C34  221   2.743   6.506   5.285 -0.5866 -0.4312  0.4795
    2SAPS   H4X  222   2.842   6.506   5.335 -0.8119 -0.1229  0.9306
    2SAPS   H4Y  223   2.695   6.599   5.322  3.6555  2.0970  0.3112
    2SAPS   C35  224   2.765   6.505   5.126 -0.6853  0.1918 -0.1823
    2SAPS   H5X  225   2.666   6.480   5.083 -0.7985  0.3924 -0.0349
    2SAPS   H5Y  226   2.836   6.421   5.106 -0.6485  0.1347  0.1840
    2SAPS   C36  227   2.833   6.630   5.071 -0.1091  0.2066  0.3564
    2SAPS   H6X  228   2.940   6.643   5.098 -0.3317  1.5089  0.7003
    2SAPS   H6Y  229   2.777   6.722   5.099  0.0588  0.0752  1.1556
    2SAPS   C37  230   2.838   6.626   4.915 -1.0973 -0.9586  0.2558
    2SAPS   H7X  231   2.741   6.599   4.868 -1.9841  1.5921  0.4100
    2SAPS   H7Y  232   2.913   6.549   4.887  0.7873  1.1135 -0.7134
    2SAPS   C38  233   2.885   6.765   4.858  0.0451 -0.1018 -0.1665
    2SAPS   H8X  234   2.971   6.812   4.911  0.5289  0.2643 -1.2377
    2SAPS   H8Y  235   2.808   6.844   4.872  0.4110  0.5618 -1.7064
    2SAPS   C39  236   2.924   6.763   4.709 -0.1278  0.1362  0.7982
    2SAPS   H9X  237   2.870   6.685   4.651 -1.0007  1.4123 -0.1739
    2SAPS   H9Y  238   3.031   6.735   4.696  0.2232  1.3973  0.8819
    2SAPS  C310  239   2.896   6.901   4.643  0.2348 -0.9851  0.1766
    2SAPS  H10X  240   2.791   6.929   4.666  1.4878  2.1345  2.8701
    2SAPS  H10Y  241   2.921   6.888   4.535  5.6085 -0.5332  1.0746
    2SAPS  C311  242   2.999   7.016   4.684 -0.2522  0.0310  0.1619
    2SAPS  H11X  243   3.094   6.963   4.663 -0.5286  0.1299 -1.5116
    2SAPS  H11Y  244   2.996   7.047   4.791  2.6596  2.0487 -0.2416
    2SAPS  C312  245   3.001   7.130   4.583  0.3710 -0.3693  0.3923
    2SAPS  H12X  246   2.900   7.175   4.593  1.3406  2.4231 -1.2576
    2SAPS  H12Y  247   3.010   7.091   4.479  0.1257 -1.0552  0.6234
    2SAPS  C313  248   3.106   7.236   4.594 -0.1347  0.4089 -0.2284
    2SAPS  H13X  249   3.079   7.292   4.686 -4.2333 -0.1147 -0.9607
    2SAPS  H13Y  250   3.097   7.302   4.505 -1.7118  0.9008  0.2655
    2SAPS  C314  251   3.257   7.192   4.610  0.5531  0.3430 -0.5519
    2SAPS  H14X  252   3.260   7.130   4.702 -2.4774 -1.6838 -1.6748
    2SAPS  H14Y  253   3.314   7.285   4.629 -1.1830  1.4709 -0.6801
    2SAPS  C315  254   3.300   7.113   4.485 -1.0566  0.0811  0.0315
    2SAPS  H15X  255   3.281   7.182   4.401  2.0797  1.3622  0.2227
    2SAPS  H15Y  256   3.232   7.025   4.477 -1.7859  0.7786 -1.8153
    2SAPS  C316  257   3.447   7.076   4.493  0.6546  0.0776 -0.0573
    2SAPS  H16X  258   3.511   7.160   4.528 -3.6267  2.1368  3.9759
    2SAPS  H16Y  259   3.474   7.046   4.389 -0.7209  0.2356 -0.4928
    2SAPS  C317  260   3.479   6.965   4.594 -0.2694 -0.4032 -0.1506
    2SAPS  H17X  261   3.410   6.881   4.570 -1.4647  0.3691  0.4927
    2SAPS  H17Y  262   3.454   6.990   4.699  1.3637 -0.8412  0.3631
    2SAPS  C318  263   3.629   6.928   4.590  0.2229  0.7074  0.4244
    2SAPS  H18X  264   3.642   6.901   4.483 -1.0002  0.4818  0.3117
    2SAPS  H18Y  265   3.639   6.838   4.653  1.8976 -1.3752 -2.5927
    2SAPS  H18Z  266   3.704   7.003   4.624  2.1176  0.5257 -2.9801
    3SAPS     N  267   4.814   2.741   6.913  0.2065  0.6088 -0.0825
    3SAPS   HN1  268   4.906   2.744   6.961 -0.6442  1.8914  1.5524
    3SAPS   HN2  269   4.800   2.658   6.851 -0.8694 -0.4534  1.5109
    3SAPS   HN3  270   4.797   2.826   6.856 -3.4632  0.9285  1.2248
    3SAPS   C12  271   4.714   2.723   7.025 -0.8204  0.9758  0.5412
    3SAPS  H12A  272   4.743   2.645   7.093  1.5902 -0.2598 -1.7012
    3SAPS   C13  273   4.681   2.855   7.094 -0.6003 -0.6653  0.1785
    3SAPS  O13A  274   4.735   2.968   7.056  1.2554  0.7044 -0.2960
    3SAPS  O13B  275   4.636   2.857   7.213 -0.3111 -0.4199 -0.8695
    3SAPS   C11  276   4.588   2.674   6.964 -0.3115 -0.3277  0.5673
    3SAPS  H11A  277   4.563   2.750   6.887  2.0514  1.2826  1.2715
    3SAPS  H11B  278   4.503   2.681   7.035  0.5436 -0.7465  1.6593
    3SAPS     P  279   4.523   2.494   6.785  0.4141 -0.0139  0.1027
    3SAPS   O13  280   4.590   2.373   6.731 -0.2211  0.0393  0.0431
    3SAPS   O14  281   4.380   2.470   6.830  0.0712  0.4654 -0.7766
    3SAPS   O12  282   4.606   2.542   6.910 -0.2455  0.4566  0.1590
    3SAPS   O11  283   4.532   2.610   6.684 -0.7225 -0.1827  0.1704
    3SAPS    C1  284   4.447   2.607   6.570  0.4356 -0.7403  0.2463
    3SAPS    HA  285   4.475   2.528   6.498  0.0078 -2.1390  1.5565
    3SAPS    HB  286   4.340   2.608   6.600 -0.1998  1.8557 -1.7811
    3SAPS    C2  287   4.469   2.738   6.494  0.0497 -0.1539 -0.5136
    3SAPS    HS  288   4.574   2.740   6.458  0.6272  1.2100  1.1290
    3SAPS   O21  289   4.451   2.850   6.586 -0.7091 -0.3557  0.3021
    3SAPS   C21  290   4.512   2.969   6.543 -0.0967 -0.5108 -0.1855
    3SAPS   O22  291   4.600   2.984   6.464 -0.3638  0.2269  0.1697
    3SAPS   C22  292   4.443   3.072   6.627  0.0413 -0.7892  0.3156
    3SAPS   H2R  293   4.340   3.034   6.644  0.0652 -0.2700  1.6832
    3SAPS   H2S  294   4.489   3.075   6.728 -1.6941  0.2850  1.1164
    3SAPS    C3  295   4.376   2.759   6.373  0.3281 -0.1471 -0.3177
    3SAPS    HX  296   4.394   2.863   6.338  2.9610  0.2856  1.9811
    3SAPS    HY  297   4.275   2.752   6.420  1.0708  0.6684  1.4865
    3SAPS   O31  298   4.383   2.659   6.280 -0.2342  0.2433  0.5385
    3SAPS   C31  299   4.470   2.671   6.175  0.4513  0.1884  0.0171
    3SAPS   O32  300   4.547   2.763   6.156 -0.2714  0.2903  0.3834
    3SAPS   C32  301   4.472   2.549   6.086  0.5231  0.4398  0.2940
    3SAPS   H2X  302   4.372   2.503   6.082  0.0909  1.2013  1.4578
    3SAPS   H2Y  303   4.552   2.481   6.122 -1.3234 -1.1158  1.6683
    3SAPS   C23  304   4.436   3.211   6.563 -0.4159 -0.2866  0.2955
    3SAPS   H3R  305   4.529   3.233   6.505 -1.7088  1.6121 -1.1779
    3SAPS   H3S  306   4.432   3.287   6.644 -0.1772  0.6760 -0.5732
    3SAPS   C24  307   4.311   3.224   6.473 -0.1335 -0.1605 -0.3333
    3SAPS   H4R  308   4.223   3.237   6.541 -0.0963  0.6050 -0.4226
    3SAPS   H4S  309   4.300   3.130   6.415 -0.2763  0.3148 -1.0933
    3SAPS   C25  310   4.338   3.328   6.365  0.9919  0.1560  0.6472
    3SAPS   H5R  311   4.319   3.432   6.397  1.3196  0.7621 -1.0317
    3SAPS   C26  312   4.372   3.302   6.239 -0.1435  0.0014 -0.0566
    3SAPS   H6R  313   4.386   3.384   6.167  1.0751  0.4152  0.6165
    3SAPS   C27  314   4.406   3.175   6.167 -0.0323 -0.4603 -0.9900
    3SAPS   H7R  315   4.383   3.178   6.058 -1.7515 -1.3468 -0.6832
    3SAPS   H7S  316   4.353   3.088   6.211  0.7075 -0.4232  0.0052
    3SAPS   C28  317   4.551   3.158   6.190  0.2226  0.2670 -0.1675
    3SAPS   H8R  318   4.588   3.171   6.292  1.5415 -0.0279 -0.5961
    3SAPS   C29  319   4.642   3.119   6.101 -0.4660 -0.0923 -0.0325
    3SAPS   H9R  320   4.748   3.108   6.127 -1.0454 -1.9038  1.7376
    3SAPS  C210  321   4.616   3.089   5.954  1.3120 -1.1705 -0.5323
    3SAPS  H10R  322   4.507   3.066   5.947  0.8682  0.6758 -0.2169
    3SAPS  H10S  323   4.657   2.987   5.937 -0.3617 -1.7066 -1.6245
    3SAPS  C211  324   4.660   3.175   5.846 -0.1559 -0.5844 -0.5080
    3SAPS  H11R  325   4.752   3.229   5.874  0.6654 -1.5241 -1.3058
    3SAPS  C212  326   4.615   3.182   5.717  0.5459  0.0716  0.0442
    3SAPS  H12R  327   4.663   3.251   5.647  0.3530 -0.9628 -1.1510
    3SAPS  C213  328   4.492   3.113   5.658 -0.1547  0.1661 -0.5544
    3SAPS  H13R  329   4.464   3.161   5.561 -3.2390 -0.7023 -0.2123
    3SAPS  H13S  330   4.406   3.133   5.726  0.6594  0.7844  0.3319
    3SAPS  C214  331   4.518   2.965   5.651  0.0703 -0.1093  0.4070
    3SAPS  H14R  332   4.540   2.915   5.747  0.5773 -0.6373  0.0145
    3SAPS  C215  333   4.537   2.897   5.539  0.8793  0.9565  0.5397
    3SAPS  H15R  334   4.555   2.789   5.544 -1.5762  0.2859 -2.0880
    3SAPS  C216  335   4.541   2.950   5.395  0.1753  0.3941 -0.3309
    3SAPS  H16R  336   4.450   3.010   5.372  0.6369  0.9269 -0.7714
    3SAPS  H16S  337   4.547   2.861   5.329  0.6942 -0.7213  1.1657
    3SAPS  C217  338   4.666   3.031   5.376 -0.1948 -0.2483  0.1639
    3SAPS  H17R  339   4.750   2.962   5.399 -1.1530 -2.1863 -1.7698
    3SAPS  H17S  340   4.678   3.115   5.447 -0.2602 -0.4607  0.4274
    3SAPS  C218  341   4.689   3.064   5.227 -0.6083  0.8278  1.0069
    3SAPS  H18R  342   4.712   2.967   5.177  1.1017  1.3181  0.7858
    3SAPS  H18S  343   4.777   3.130   5.210  0.3086 -0.9158 -1.6789
    3SAPS  C219  344   4.573   3.137   5.154 -1.0016  0.5845  0.4976
    3SAPS  H19R  345   4.481   3.075   5.164 -1.5289  1.0773 -1.0824
    3SAPS  H19S  346   4.561   3.235   5.207 -2.9035  0.3746  0.5438
    3SAPS  C220  347   4.587   3.166   5.002 -0.0360  0.2941 -0.3146
    3SAPS  H20R  348   4.504   3.234   4.971 -1.1471  0.1156  2.0369
    3SAPS  H20S  349   4.591   3.079   4.934 -0.5126  1.0011 -1.2631
    3SAPS  H20T  350   4.687   3.215   4.997  0.3149 -0.3489  0.2490
    3SAPS   C33  351   4.506   2.585   5.940 -0.0055  0.0835  0.5031
    3SAPS   H3X  352   4.607   2.631   5.942  0.6910 -1.4122  1.0521
    3SAPS   H3Y  353   4.430   2.656   5.900 -1.4774 -1.3843  0.5915
    3SAPS   C34  354   4.514   2.460   5.845  0.0396  0.3134  0.0943
    3SAPS   H4X  355   4.417   2.405   5.844 -0.9236  1.9481 -0.3954
    3SAPS   H4Y  356   4.593   2.392   5.883 -0.2976  0.2897  0.7617
    3SAPS   C35  357   4.539   2.507   5.702 -0.0068  0.1228 -0.0164
    3SAPS   H5X  358   4.460   2.572   5.659  0.5379  0.7690 -0.0725
    3SAPS   H5Y  359   4.635   2.564   5.698 -0.6424  1.2188  0.0285
    3SAPS   C36  360   4.542   2.379   5.617  0.0940 -1.0349 -0.4424
    3SAPS   H6X  361   4.435   2.348   5.615 -0.7144  1.5068 -1.6092
    3SAPS   H6Y  362   4.597   2.294   5.661  0.4473 -1.8248 -2.3290
    3SAPS   C37  363   4.576   2.407   5.473 -0.7116  0.0994  0.1573
    3SAPS   H7X  364   4.673   2.462   5.475 -1.6302  1.8608 -0.9602
    3SAPS   H7Y  365   4.504   2.478   5.426 -0.8251 -0.5387 -0.6638
    3SAPS   C38  366   4.583   2.276   5.403  0.6120 -0.7693 -0.4783
    3SAPS   H8X  367   4.481   2.232   5.395  0.3056 -0.4710  1.4260
    3SAPS   H8Y  368   4.634   2.192   5.453 -0.0937 -1.0551 -0.2231
    3SAPS   C39  369   4.640   2.291   5.264  0.1979 -0.4922  1.0199
    3SAPS   H9X  370   4.656   2.188   5.226  1.5596 -0.2449  0.8837
    3SAPS   H9Y  371   4.741   2.338   5.271 -0.1112  0.1693  1.1130
    3SAPS  C310  372   4.546   2.355   5.167  0.4774 -0.0728  0.1178
    3SAPS  H10X  373   4.525   2.462   5.185 -1.9884 -0.8930  2.7784
    3SAPS  H10Y  374   4.448   2.305   5.175  0.8354 -0.9508 -0.7894
    3SAPS  C311  375   4.590   2.330   5.018 -0.5725 -0.5820  0.0869
    3SAPS  H11X  376   4.535   2.406   4.958 -0.1551  1.1982  1.8441
    3SAPS  H11Y  377   4.551   2.226   5.006 -0.5057 -0.6721  0.6073
    3SAPS  C312  378   4.742   2.341   4.984  0.2252 -0.4464 -0.3169
    3SAPS  H12X  379   4.797   2.256   5.032 -1.4991 -1.9600 -0.8979
    3SAPS  H12Y  380   4.763   2.438   5.033 -3.6336 -1.3316  3.8058
    3SAPS  C313  381   4.776   2.346   4.838  0.1554 -0.4198 -0.1173
    3SAPS  H13X  382   4.715   2.425   4.789  0.4707 -1.3007 -2.0219
    3SAPS  H13Y  383   4.740   2.256   4.784  0.4220 -0.4528 -0.2423
    3SAPS  C314  384   4.931   2.369   4.821  0.0110 -0.1991  0.0012
    3SAPS  H14X  385   4.983   2.293   4.883 -1.4708  0.2040  1.8136
    3SAPS  H14Y  386   4.962   2.468   4.862 -2.3761  0.5277  0.2033
    3SAPS  C315  387   4.987   2.343   4.677 -0.1765  0.6805  0.1437
    3SAPS  H15X  388   4.964   2.415   4.596 -0.6980 -0.1654 -0.4737
    3SAPS  H15Y  389   4.967   2.237   4.650  2.1589 -0.2476  1.6633
    3SAPS  C316  390   5.142   2.340   4.684  0.2934  0.0840  0.0984
    3SAPS  H16X  391   5.180   2.278   4.767  0.4527  3.1759  2.5347
    3SAPS  H16Y  392   5.168   2.446   4.708 -1.7267  1.0404 -1.6387
    3SAPS  C317  393   5.206   2.307   4.547  0.1582 -0.3508  0.0200
    3SAPS  H17X  394   5.203   2.402   4.489  0.5580 -0.9768 -1.0418
    3SAPS  H17Y  395   5.153   2.222   4.500 -0.4607 -0.0855  0.2157
    3SAPS  C318  396   5.353   2.271   4.569 -0.1755 -1.1088  0.7924
    3SAPS  H18X  397   5.397   2.260   4.468 -1.6581 -3.2479  0.2905
    3SAPS  H18Y  398   5.349   2.167   4.608 -1.3008 -1.2310  0.3936
    3SAPS  H18Z  399   5.414   2.342   4.629  1.0169 -0.6996 -0.8440
    4SAPS     N  400   2.698   2.350   6.391 -0.3048  0.2825  0.0208
    4SAPS   HN1  401   2.779   2.405   6.426 -1.1229  1.4848  0.0548
    4SAPS   HN2  402   2.654   2.419   6.327 -0.2885  0.3123  0.0415
    4SAPS   HN3  403   2.634   2.331   6.471  1.2088  0.9184  1.4379
    4SAPS   C12  404   2.740   2.216   6.326  0.1497 -0.0067  0.0679
    4SAPS  H12A  405   2.802   2.243   6.242 -1.6600 -0.6590 -1.5548
    4SAPS   C13  406   2.822   2.125   6.417 -0.4516 -0.0364 -0.3973
    4SAPS  O13A  407   2.842   2.151   6.538 -0.1077  0.4375  0.1895
    4SAPS  O13B  408   2.871   2.023   6.370 -0.0033  0.0471 -0.5089
    4SAPS   C11  409   2.616   2.145   6.272  0.0676 -0.5748  0.3233
    4SAPS  H11A  410   2.651   2.044   6.240  1.5209 -0.2757  0.8784
    4SAPS  H11B  411   2.598   2.190   6.172  0.6784 -1.1700 -0.0714
    4SAPS     P  412   2.364   2.158   6.323  0.1643  0.4497  0.2529
    4SAPS   O13  413   2.288   2.089   6.427 -0.3302 -0.7118  0.1885
    4SAPS   O14  414   2.337   2.304   6.297 -0.0032 -0.2929  0.3178
    4SAPS   O12  415   2.511   2.138   6.367  0.2310 -0.6303  0.3078
    4SAPS   O11  416   2.359   2.071   6.189 -0.1893  0.2264  0.1879
    4SAPS    C1  417   2.382   1.928   6.189  0.1527 -0.1985 -0.4606
    4SAPS    HA  418   2.474   1.896   6.242  0.0182  1.2023  0.6787
    4SAPS    HB  419   2.294   1.879   6.235  0.8975 -1.2705 -0.1368
    4SAPS    C2  420   2.383   1.883   6.043 -0.4229  0.4880  0.1071
    4SAPS    HS  421   2.312   1.798   6.035  0.0311 -0.0307  1.4027
    4SAPS   O21  422   2.519   1.843   6.006  0.3564 -0.0588  0.5284
    4SAPS   C21  423   2.553   1.720   6.044  0.0931 -0.0516  0.1830
    4SAPS   O22  424   2.482   1.640   6.105 -0.3283  0.0850  0.0877
    4SAPS   C22  425   2.692   1.682   5.990  0.7400 -0.5904 -0.8267
    4SAPS   H2R  426   2.772   1.748   6.030  0.0113 -0.9218  1.3479
    4SAPS   H2S  427   2.712   1.576   6.017 -3.2687 -1.2157  0.2594
    4SAPS    C3  428   2.333   1.990   5.935 -0.1046  0.6391 -0.3836
    4SAPS    HX  429   2.360   2.093   5.968  1.4233  0.3415 -0.6218
    4SAPS    HY  430   2.224   1.976   5.951  0.4182 -1.8584  1.5868
    4SAPS   O31  431   2.370   1.961   5.800  0.3229  0.4502 -0.4566
    4SAPS   C31  432   2.486   2.007   5.767 -0.9636 -0.2467 -0.6482
    4SAPS   O32  433   2.558   2.078   5.839 -0.0720 -0.4220 -0.2337
    4SAPS   C32  434   2.519   1.955   5.627 -0.5763 -0.1520 -0.0110
    4SAPS   H2X  435   2.445   1.978   5.548  0.5557  0.8411 -0.8112
    4SAPS   H2Y  436   2.530   1.844   5.635 -0.4899 -0.1269  0.2257
    4SAPS   C23  437   2.707   1.690   5.832  0.1312 -0.0061 -0.3810
    4SAPS   H3R  438   2.814   1.666   5.813  0.5057  0.6491  0.7580
    4SAPS   H3S  439   2.689   1.790   5.788 -1.8270 -0.5339 -0.8596
    4SAPS   C24  440   2.616   1.602   5.739 -0.5051  0.3386  0.3287
    4SAPS   H4R  441   2.610   1.645   5.637 -0.4995 -1.2899 -0.3845
    4SAPS   H4S  442   2.513   1.621   5.775 -0.2071  0.9402  0.8919
    4SAPS   C25  443   2.645   1.452   5.740 -0.5496 -0.0553 -0.0237
    4SAPS   H5R  444   2.655   1.409   5.841 -0.5557 -1.0729 -0.4437
    4SAPS   C26  445   2.680   1.371   5.638 -0.8763 -0.3445  0.6293
    4SAPS   H6R  446   2.691   1.263   5.654 -1.4449 -0.9738 -2.6805
    4SAPS   C27  447   2.704   1.419   5.500  0.2338  0.1328  0.2138
    4SAPS   H7R  448   2.812   1.396   5.485  1.2819  3.9602  0.8313
    4SAPS   H7S  449   2.712   1.528   5.480  0.9168  0.1965  0.7576
    4SAPS   C28  450   2.628   1.344   5.392  0.3785 -0.0467  0.0480
    4SAPS   H8R  451   2.542   1.278   5.412  0.6225 -0.5223 -0.4443
    4SAPS   C29  452   2.644   1.365   5.260 -0.0654  0.8924 -0.8597
    4SAPS   H9R  453   2.575   1.320   5.187 -1.9154  1.7470  0.2586
    4SAPS  C210  454   2.720   1.473   5.181 -0.6301 -0.2686 -0.1724
    4SAPS  H10R  455   2.799   1.436   5.111 -0.3528 -1.4292  0.7274
    4SAPS  H10S  456   2.781   1.542   5.243  0.3861 -0.2566 -1.1373
    4SAPS  C211  457   2.621   1.555   5.109 -0.2928 -0.1050  0.4915
    4SAPS  H11R  458   2.552   1.618   5.166 -1.4329  1.1965 -2.1662
    4SAPS  C212  459   2.627   1.573   4.974  0.7253 -0.3580  0.9305
    4SAPS  H12R  460   2.552   1.641   4.931  0.6210 -0.2577  1.2631
    4SAPS  C213  461   2.709   1.509   4.866 -0.3628  0.1192 -0.3788
    4SAPS  H13R  462   2.646   1.463   4.787 -1.6294  1.3348 -0.1118
    4SAPS  H13S  463   2.761   1.416   4.896  0.1800 -0.1473 -2.0116
    4SAPS  C214  464   2.810   1.605   4.808 -0.7620  0.3416 -0.7448
    4SAPS  H14R  465   2.891   1.644   4.872 -0.4019  0.0737 -1.0314
    4SAPS  C215  466   2.818   1.637   4.672 -0.2816  0.2693 -0.4251
    4SAPS  H15R  467   2.895   1.708   4.637  0.3221 -0.6150 -0.9295
    4SAPS  C216  468   2.720   1.586   4.569 -0.6350  0.4069  0.3479
    4SAPS  H16R  469   2.730   1.662   4.489  1.3851  0.5632  0.6788
    4SAPS  H16S  470   2.617   1.584   4.610 -0.4765 -1.7531  0.7548
    4SAPS  C217  471   2.760   1.449   4.512  0.5954 -0.1449  0.3013
    4SAPS  H17R  472   2.663   1.415   4.471  1.0313 -0.0230 -0.8781
    4SAPS  H17S  473   2.786   1.379   4.594 -0.7381 -1.8201 -0.6548
    4SAPS  C218  474   2.881   1.438   4.412  0.4066 -0.2342  0.5376
    4SAPS  H18R  475   2.839   1.471   4.314 -0.9764 -2.3149  0.3687
    4SAPS  H18S  476   2.908   1.334   4.386  0.3414 -0.3828  1.0648
    4SAPS  C219  477   3.008   1.518   4.440  0.0741 -0.5200 -0.3196
    4SAPS  H19R  478   3.050   1.474   4.533 -0.8500  0.8212  0.7711
    4SAPS  H19S  479   2.984   1.625   4.454 -0.2746 -0.7953  1.4670
    4SAPS  C220  480   3.107   1.513   4.326 -0.1141 -0.2779 -0.1414
    4SAPS  H20R  481   3.144   1.418   4.283 -0.3078 -0.6736  0.5452
    4SAPS  H20S  482   3.198   1.560   4.369  0.8801 -0.5910 -1.8310
    4SAPS  H20T  483   3.066   1.568   4.239 -0.4299  0.6062  0.5395
    4SAPS   C33  484   2.658   1.994   5.583 -0.1610 -0.3399  0.6084
    4SAPS   H3X  485   2.744   1.965   5.648  0.5047 -1.6367 -0.7664
    4SAPS   H3Y  486   2.674   2.101   5.559  2.7201 -0.2748  2.3324
    4SAPS   C34  487   2.707   1.932   5.455  0.3359 -0.4987  0.1840
    4SAPS   H4X  488   2.702   1.821   5.458  2.4009 -0.6385 -0.2146
    4SAPS   H4Y  489   2.812   1.955   5.428 -0.4984 -0.5362 -3.7231
    4SAPS   C35  490   2.627   1.987   5.336  0.3908 -0.0036  0.2907
    4SAPS   H5X  491   2.628   2.098   5.340 -0.9420 -0.0037  1.5856
    4SAPS   H5Y  492   2.518   1.968   5.329  0.3605  0.9074 -3.2567
    4SAPS   C36  493   2.687   1.950   5.200  0.0940 -0.6955  0.1500
    4SAPS   H6X  494   2.674   1.840   5.187 -0.4376 -0.3391 -3.4376
    4SAPS   H6Y  495   2.795   1.972   5.196  0.3349 -1.7325  0.5761
    4SAPS   C37  496   2.598   2.015   5.088 -0.3816  0.2089 -0.4764
    4SAPS   H7X  497   2.613   2.125   5.097  0.1744  0.0747  0.2942
    4SAPS   H7Y  498   2.492   1.985   5.102  0.2245 -1.2783  1.3421
    4SAPS   C38  499   2.643   1.993   4.940 -0.6243 -0.3189 -0.7415
    4SAPS   H8X  500   2.691   1.893   4.942  0.5201  0.1934 -1.4363
    4SAPS   H8Y  501   2.711   2.074   4.905 -1.0890  0.1548 -0.5671
    4SAPS   C39  502   2.526   1.990   4.836  0.1987  0.3023 -0.5524
    4SAPS   H9X  503   2.477   2.089   4.824  0.7801  0.7742  0.7449
    4SAPS   H9Y  504   2.453   1.920   4.882  0.0444  1.1465  0.5421
    4SAPS  C310  505   2.567   1.939   4.696  0.4409  0.8506  0.4910
    4SAPS  H10X  506   2.481   1.917   4.630  2.0786 -2.6772 -0.7230
    4SAPS  H10Y  507   2.616   1.841   4.710 -2.1911 -0.1611  3.6250
    4SAPS  C311  508   2.660   2.033   4.628 -0.6492 -0.9838  0.8572
    4SAPS  H11X  509   2.757   2.023   4.681  1.2347  1.0929 -1.9609
    4SAPS  H11Y  510   2.625   2.137   4.644 -2.0044 -1.1091 -0.9199
    4SAPS  C312  511   2.678   2.013   4.473  0.2551  0.0499  0.0530
    4SAPS  H12X  512   2.577   2.045   4.439 -0.5689 -0.9181  1.4771
    4SAPS  H12Y  513   2.698   1.908   4.445  2.0902 -0.0331  1.4909
    4SAPS  C313  514   2.792   2.106   4.426  1.1784  0.7403  0.9130
    4SAPS  H13X  515   2.795   2.202   4.482  0.1879  0.3684  1.6324
    4SAPS  H13Y  516   2.769   2.132   4.321  0.0690  0.2828  1.0338
    4SAPS  C314  517   2.930   2.032   4.423 -0.6501 -0.5499  0.4253
    4SAPS  H14X  518   2.949   2.008   4.530  0.4459 -0.5927  0.2319
    4SAPS  H14Y  519   3.002   2.111   4.392  0.5115 -1.7271  0.0359
    4SAPS  C315  520   2.941   1.908   4.336  0.3295  0.2160 -0.1654
    4SAPS  H15X  521   2.876   1.834   4.386 -0.1465 -0.4514 -1.7099
    4SAPS  H15Y  522   3.048   1.877   4.338  0.8910  2.1062  1.3843
    4SAPS  C316  523   2.895   1.925   4.184 -0.6694 -0.2748  0.7233
    4SAPS  H16X  524   2.789   1.961   4.183  0.5298  3.7831 -0.9778
    4SAPS  H16Y  525   2.908   1.827   4.134 -0.8629 -0.0201  0.1576
    4SAPS  C317  526   2.973   2.030   4.097  0.1246 -0.2548  0.7101
    4SAPS  H17X  527   3.080   2.000   4.089  0.0125 -1.0255  1.8131
    4SAPS  H17Y  528   2.961   2.128   4.148 -1.7800  0.8953 -1.7608
    4SAPS  C318  529   2.927   2.034   3.950 -0.6911  0.5357  0.2844
    4SAPS  H18X  530   2.876   1.938   3.930  1.9608 -0.9385  0.0370
    4SAPS  H18Y  531   3.014   2.046   3.882 -2.1567  1.7042 -1.4764
    4SAPS  H18Z  532   2.868   2.123   3.920 -1.8144 -0.6485 -1.1938
    5SAPS     N  533   5.953   2.660   6.991 -0.0398  0.3598 -0.4394
    5SAPS   HN1  534   5.999   2.647   7.083  0.3788 -0.0346 -0.7010
    5SAPS   HN2  535   5.990   2.579   6.936 -0.3916  0.7602 -1.2920
    5SAPS   HN3  536   5.992   2.747   6.950  2.4335 -0.0518  0.8532
    5SAPS   C12  537   5.800   2.648   6.981  0.1070 -1.7854 -0.7907
    5SAPS  H12A  538   5.758   2.567   7.039  0.2883 -1.3076  0.0199
    5SAPS   C13  539   5.725   2.775   7.028  0.6089 -1.0133  0.0292
    5SAPS  O13A  540   5.789   2.879   7.073 -0.2487 -0.1917  0.2676
    5SAPS  O13B  541   5.596   2.776   7.018 -0.5331 -0.3105  0.1022
    5SAPS   C11  542   5.778   2.626   6.826  0.2585 -0.2309 -0.1736
    5SAPS  H11A  543   5.832   2.696   6.759  0.7595 -1.2532 -0.8574
    5SAPS  H11B  544   5.670   2.649   6.812  1.0058  4.0865 -0.3779
    5SAPS     P  545   5.927   2.439   6.717 -0.4863  0.2558  0.0317
    5SAPS   O13  546   6.041   2.483   6.798  0.5953 -0.0168 -0.7733
    5SAPS   O14  547   5.916   2.289   6.699  0.1152 -0.3654 -0.4447
    5SAPS   O12  548   5.800   2.488   6.793  0.0008  0.2412  0.4073
    5SAPS   O11  549   5.935   2.523   6.575 -0.0601 -0.3225 -0.8481
    5SAPS    C1  550   5.812   2.543   6.506 -0.4215 -0.0991 -0.4450
    5SAPS    HA  551   5.735   2.466   6.528 -0.1817  0.2336  1.8342
    5SAPS    HB  552   5.767   2.643   6.522  1.5801  0.8880 -0.7865
    5SAPS    C2  553   5.834   2.524   6.350 -0.1077  0.3270  0.0568
    5SAPS    HS  554   5.739   2.529   6.292  0.4989  1.6415 -0.8844
    5SAPS   O21  555   5.910   2.409   6.319  0.0398 -0.4178  0.2026
    5SAPS   C21  556   5.827   2.307   6.317  0.7977  0.2396 -0.2560
    5SAPS   O22  557   5.705   2.313   6.333 -0.1980  0.2787 -0.5414
    5SAPS   C22  558   5.901   2.182   6.256  0.8276 -0.3731  0.0007
    5SAPS   H2R  559   5.825   2.120   6.204  0.0120 -0.2200  0.9778
    5SAPS   H2S  560   5.965   2.229   6.178 -0.3138 -1.7821 -1.8885
    5SAPS    C3  561   5.921   2.643   6.305 -0.2543 -0.1507 -0.0159
    5SAPS    HX  562   6.017   2.637   6.360 -0.1493 -1.1688 -0.2935
    5SAPS    HY  563   5.882   2.737   6.349  1.4028  0.0570  1.0583
    5SAPS   O31  564   5.934   2.653   6.160  0.0158  0.0653  0.0013
    5SAPS   C31  565   6.037   2.588   6.104 -0.6940 -0.2563  0.9390
    5SAPS   O32  566   6.133   2.538   6.164  0.2698 -0.3847  0.1664
    5SAPS   C32  567   6.048   2.624   5.950 -0.0887  0.0673  0.2336
    5SAPS   H2X  568   6.010   2.729   5.944  2.4086  1.1063  1.0239
    5SAPS   H2Y  569   5.969   2.560   5.906  2.4514 -1.7488 -2.0137
    5SAPS   C23  570   5.985   2.093   6.351  0.2837 -0.1414 -0.1415
    5SAPS   H3R  571   5.924   2.058   6.437  2.8689  1.0719  2.3422
    5SAPS   H3S  572   6.070   2.155   6.386  0.4909 -0.6296  0.2339
    5SAPS   C24  573   6.038   1.976   6.267 -0.2476  0.1318  0.5993
    5SAPS   H4R  574   6.119   1.928   6.326  0.5289 -0.5178 -0.9556
    5SAPS   H4S  575   6.081   2.028   6.179 -2.1130 -1.7400 -1.5300
    5SAPS   C25  576   5.933   1.881   6.216  0.2907  1.0598  0.1978
    5SAPS   H5R  577   5.893   1.819   6.297  2.5161  1.3165  1.5831
    5SAPS   C26  578   5.884   1.881   6.094 -0.1429 -0.8509 -0.0677
    5SAPS   H6R  579   5.810   1.802   6.073  0.0073 -1.0346  0.0920
    5SAPS   C27  580   5.930   1.973   5.978  0.2096 -0.3730 -0.5447
    5SAPS   H7R  581   6.041   1.981   5.988  0.1987  0.1129 -0.7781
    5SAPS   H7S  582   5.882   2.073   5.982 -0.5496 -0.6495 -2.0522
    5SAPS   C28  583   5.908   1.912   5.845  0.6836  0.0499  0.7675
    5SAPS   H8R  584   5.862   1.812   5.835  1.8996 -0.5812  1.2802
    5SAPS   C29  585   5.935   1.979   5.731  0.8167 -0.2041  0.2218
    5SAPS   H9R  586   5.937   1.925   5.634 -0.5686 -2.6141  1.4488
    5SAPS  C210  587   5.987   2.117   5.717 -0.3491  1.1388  0.0300
    5SAPS  H10R  588   6.019   2.150   5.818 -0.2277 -1.2875  0.8376
    5SAPS  H10S  589   5.902   2.187   5.703 -1.7863 -0.3218  1.1508
    5SAPS  C211  590   6.088   2.153   5.605  0.1198 -0.7787 -0.1494
    5SAPS  H11R  591   6.048   2.203   5.515 -0.3693 -0.4205  0.2658
    5SAPS  C212  592   6.228   2.141   5.617  0.8053  0.3670  0.6403
    5SAPS  H12R  593   6.282   2.168   5.525  1.1165 -0.8733  0.4407
    5SAPS  C213  594   6.307   2.082   5.729 -0.6070  0.7249 -0.3815
    5SAPS  H13R  595   6.349   1.981   5.709  1.7289  1.4437  0.5986
    5SAPS  H13S  596   6.240   2.068   5.816  0.2520  2.2426  0.5422
    5SAPS  C214  597   6.425   2.173   5.762  0.0501  0.2956 -0.1003
    5SAPS  H14R  598   6.515   2.150   5.703  0.0631  1.6849 -0.6553
    5SAPS  C215  599   6.443   2.252   5.867  1.4555 -0.1515 -0.4835
    5SAPS  H15R  600   6.543   2.295   5.880  1.8922 -0.5094 -2.4428
    5SAPS  C216  601   6.339   2.259   5.983  0.4043  0.4166 -0.0718
    5SAPS  H16R  602   6.236   2.262   5.940  0.7025  0.0747 -0.8271
    5SAPS  H16S  603   6.345   2.357   6.033  0.3902 -0.1591  1.0985
    5SAPS  C217  604   6.340   2.148   6.093  0.3387 -0.2822 -0.5484
    5SAPS  H17R  605   6.307   2.050   6.053  0.8904 -1.2222  1.1998
    5SAPS  H17S  606   6.267   2.174   6.172  1.1046 -1.2237  0.5075
    5SAPS  C218  607   6.474   2.127   6.164  0.2596  0.7416 -0.5416
    5SAPS  H18R  608   6.553   2.102   6.090 -0.6672 -1.0694 -0.9659
    5SAPS  H18S  609   6.456   2.045   6.237 -0.5961  0.8473 -0.6217
    5SAPS  C219  610   6.534   2.249   6.226 -0.5490 -0.0810 -0.5527
    5SAPS  H19R  611   6.460   2.295   6.294  0.6913  2.4509 -0.8206
    5SAPS  H19S  612   6.566   2.328   6.155  2.3004  0.0526  0.7362
    5SAPS  C220  613   6.667   2.220   6.294  0.1123  0.2161  0.0350
    5SAPS  H20R  614   6.664   2.143   6.374  3.0992 -0.1154 -0.0627
    5SAPS  H20S  615   6.687   2.311   6.356 -1.3373 -0.5540  1.7234
    5SAPS  H20T  616   6.751   2.198   6.225 -1.5551 -0.4901 -1.8785
    5SAPS   C33  617   6.191   2.603   5.890  0.3215  0.0845 -0.5764
    5SAPS   H3X  618   6.248   2.525   5.945  0.3998 -0.0367 -0.8274
    5SAPS   H3Y  619   6.249   2.698   5.898 -2.7539  2.2025 -1.4236
    5SAPS   C34  620   6.175   2.567   5.739 -0.3348 -0.2526 -0.2075
    5SAPS   H4X  621   6.100   2.486   5.722 -0.2665 -0.3861  0.1306
    5SAPS   H4Y  622   6.275   2.532   5.708  0.7149  0.3347  2.2741
    5SAPS   C35  623   6.145   2.694   5.657  0.4708 -0.1523  0.4150
    5SAPS   H5X  624   6.229   2.765   5.670  0.6993 -0.2993 -0.2083
    5SAPS   H5Y  625   6.049   2.737   5.693 -1.1002 -1.7841 -1.5041
    5SAPS   C36  626   6.118   2.662   5.502  0.1144 -0.5741  0.6522
    5SAPS   H6X  627   6.094   2.753   5.444 -0.5185 -1.0589  0.1353
    5SAPS   H6Y  628   6.017   2.616   5.498  0.2543 -0.8113 -1.4216
    5SAPS   C37  629   6.209   2.558   5.436 -1.1407  0.5556  0.2199
    5SAPS   H7X  630   6.217   2.461   5.489  0.8350  0.7232  0.2816
    5SAPS   H7Y  631   6.309   2.604   5.426 -1.2168  0.7948  0.5268
    5SAPS   C38  632   6.164   2.531   5.285  0.0639 -0.4396 -0.6176
    5SAPS   H8X  633   6.184   2.626   5.232 -1.8583  0.8680  0.8937
    5SAPS   H8Y  634   6.053   2.530   5.285 -0.0212  2.5267 -0.1557
    5SAPS   C39  635   6.242   2.416   5.216  0.3225  0.5965  0.7506
    5SAPS   H9X  636   6.210   2.323   5.268 -0.9515  0.7166  0.2215
    5SAPS   H9Y  637   6.352   2.411   5.230  0.1993 -0.2966  1.5545
    5SAPS  C310  638   6.212   2.389   5.067 -0.6598  0.3505 -0.3577
    5SAPS  H10X  639   6.110   2.347   5.050  0.3274 -1.4433 -2.2600
    5SAPS  H10Y  640   6.279   2.307   5.036  0.2149  0.7543  0.4103
    5SAPS  C311  641   6.231   2.509   4.970 -0.4153 -0.2590 -0.5333
    5SAPS  H11X  642   6.340   2.523   4.985 -0.4694  0.4372 -0.7345
    5SAPS  H11Y  643   6.177   2.595   5.017  1.6610  0.8276  0.0267
    5SAPS  C312  644   6.194   2.496   4.825 -0.3094 -0.4390 -0.8220
    5SAPS  H12X  645   6.220   2.581   4.759 -0.3152  1.4951  1.5271
    5SAPS  H12Y  646   6.084   2.481   4.821 -0.2000 -0.9167 -3.0911
    5SAPS  C313  647   6.257   2.362   4.776 -0.0017  0.1102 -0.1203
    5SAPS  H13X  648   6.221   2.279   4.841  2.0173 -0.9804 -0.3111
    5SAPS  H13Y  649   6.362   2.356   4.811  0.3122  0.6540 -0.9150
    5SAPS  C314  650   6.242   2.350   4.622  0.2072  0.2128 -0.4012
    5SAPS  H14X  651   6.305   2.421   4.565  0.8775 -0.1473 -0.1130
    5SAPS  H14Y  652   6.142   2.377   4.580  0.6185  1.4494 -0.6113
    5SAPS  C315  653   6.268   2.201   4.576 -1.3181 -1.5315 -0.7056
    5SAPS  H15X  654   6.216   2.132   4.646 -3.8163 -0.8830 -1.8250
    5SAPS  H15Y  655   6.374   2.167   4.567 -1.4150 -1.4398 -2.6231
    5SAPS  C316  656   6.206   2.185   4.438 -0.7250 -0.8246 -0.2035
    5SAPS  H16X  657   6.240   2.260   4.365 -0.1403 -1.5313 -0.6769
    5SAPS  H16Y  658   6.096   2.199   4.450 -0.5116  0.2014  0.6961
    5SAPS  C317  659   6.233   2.051   4.377  0.4578  0.1424 -0.0749
    5SAPS  H17X  660   6.200   1.968   4.443 -2.5890 -2.1265 -4.0531
    5SAPS  H17Y  661   6.340   2.048   4.345  0.9910 -0.2317  1.6250
    5SAPS  C318  662   6.152   2.029   4.254  0.1039 -0.0154  0.8498
    5SAPS  H18X  663   6.148   1.936   4.193 -1.1504  1.3348 -1.2505
    5SAPS  H18Y  664   6.188   2.096   4.174 -1.2725 -0.5209 -0.2422
    5SAPS  H18Z  665   6.047   2.052   4.284 -0.1845  0.5962 -0.5592
    6SAPS     N  666   3.197   4.989   7.143  0.5744 -0.0945  0.5974
    6SAPS   HN1  667   3.122   4.979   7.071  0.6043  0.0354  0.5491
    6SAPS   HN2  668   3.149   5.004   7.234  3.3831  2.3711  1.8219
    6SAPS   HN3  669   3.262   5.065   7.116  0.3928 -0.4037 -0.7620
    6SAPS   C12  670   3.284   4.872   7.149  0.0572 -0.3745  0.3710
    6SAPS  H12A  671   3.303   4.840   7.047 -4.0832  3.5345 -1.9662
    6SAPS   C13  672   3.421   4.880   7.218  0.0305 -0.2235  0.1653
    6SAPS  O13A  673   3.448   4.976   7.292 -0.0114 -0.6707 -0.4456
    6SAPS  O13B  674   3.477   4.771   7.221  0.2021  0.3092  0.0301
    6SAPS   C11  675   3.203   4.751   7.196 -0.0715 -0.9707  1.0915
    6SAPS  H11A  676   3.174   4.764   7.303 -0.8548  2.3675  0.6106
    6SAPS  H11B  677   3.263   4.659   7.183  1.2519 -0.0620  0.5259
    6SAPS     P  678   3.033   4.618   7.054  0.1425  0.0097 -0.4557
    6SAPS   O13  679   3.014   4.519   7.162 -0.1679  0.2454 -0.3507
    6SAPS   O14  680   2.912   4.646   6.969  0.1434 -0.3047  0.1740
    6SAPS   O12  681   3.075   4.745   7.132 -0.3576  0.0128  0.2004
    6SAPS   O11  682   3.158   4.588   6.964 -0.6803  0.0609  0.1084
    6SAPS    C1  683   3.177   4.668   6.845 -0.2437  0.2328 -1.0520
    6SAPS    HA  684   3.120   4.763   6.854 -4.7653 -2.1055 -1.7928
    6SAPS    HB  685   3.288   4.674   6.839 -0.2110 -0.4101 -1.1540
    6SAPS    C2  686   3.118   4.593   6.718  0.5772  0.9391 -0.1170
    6SAPS    HS  687   3.013   4.591   6.754  1.1173  1.1818  1.5597
    6SAPS   O21  688   3.174   4.454   6.709 -0.2544  0.2691  0.7310
    6SAPS   C21  689   3.105   4.383   6.624  0.3103  0.9108 -0.0407
    6SAPS   O22  690   3.005   4.412   6.560 -0.2476 -0.3834  0.1211
    6SAPS   C22  691   3.168   4.239   6.610 -0.1066 -0.3639  0.4694
    6SAPS   H2R  692   3.273   4.253   6.574  0.8628 -0.6147  2.9811
    6SAPS   H2S  693   3.183   4.186   6.707 -1.3885  0.2569  1.0303
    6SAPS    C3  694   3.127   4.675   6.587 -0.1725 -0.3942 -0.8910
    6SAPS    HX  695   3.094   4.776   6.620 -2.1596 -1.0853 -0.6046
    6SAPS    HY  696   3.040   4.649   6.524 -1.0091  0.2787 -0.0415
    6SAPS   O31  697   3.261   4.670   6.536 -0.1390 -0.3155  0.2576
    6SAPS   C31  698   3.326   4.780   6.530 -0.1195  0.2158 -0.1281
    6SAPS   O32  699   3.295   4.887   6.590  0.0577  0.3956  0.3007
    6SAPS   C32  700   3.461   4.758   6.455  0.0280  0.6499  0.1915
    6SAPS   H2X  701   3.440   4.681   6.378 -1.2290 -0.8414  1.9517
    6SAPS   H2Y  702   3.524   4.705   6.530  0.3661  1.6511  0.6318
    6SAPS   C23  703   3.096   4.146   6.506 -0.5572  0.6811 -0.6026
    6SAPS   H3R  704   3.064   4.198   6.413 -2.3860 -0.6658 -0.7733
    6SAPS   H3S  705   3.007   4.105   6.557  0.2785  0.0149  0.3563
    6SAPS   C24  706   3.179   4.016   6.470  0.0070 -0.0223 -0.2413
    6SAPS   H4R  707   3.108   3.949   6.417  1.2706  0.1120 -2.2276
    6SAPS   H4S  708   3.197   3.969   6.569 -0.5484  0.6894  0.2062
    6SAPS   C25  709   3.305   4.028   6.401 -0.4934  0.3592 -0.5164
    6SAPS   H5R  710   3.391   4.055   6.465 -0.9347  1.2398 -0.2684
    6SAPS   C26  711   3.320   4.006   6.269 -0.2910 -0.6173 -0.7306
    6SAPS   H6R  712   3.419   4.023   6.225 -0.0677 -2.6771 -1.1189
    6SAPS   C27  713   3.209   3.969   6.175 -0.4924  0.5926 -0.5058
    6SAPS   H7R  714   3.176   4.068   6.136 -0.8851  0.1786 -1.2711
    6SAPS   H7S  715   3.118   3.926   6.222 -0.7175  0.9140 -0.6470
    6SAPS   C28  716   3.246   3.870   6.065 -0.1122 -0.4407 -0.2041
    6SAPS   H8R  717   3.294   3.779   6.104  2.4609 -0.0016 -2.1047
    6SAPS   C29  718   3.227   3.878   5.932  0.4083  0.2052 -0.2720
    6SAPS   H9R  719   3.260   3.790   5.874 -0.6856  0.0273 -0.6421
    6SAPS  C210  720   3.171   3.993   5.856 -0.4759  0.2456  0.0673
    6SAPS  H10R  721   3.201   4.092   5.895  2.9461  0.0135 -1.6037
    6SAPS  H10S  722   3.061   3.977   5.846 -0.4458  0.6392 -1.0897
    6SAPS  C211  723   3.222   3.985   5.713 -0.3343 -0.4382  0.0683
    6SAPS  H11R  724   3.283   3.896   5.691  1.5782  0.8261 -0.0176
    6SAPS  C212  725   3.209   4.082   5.625  0.3401 -0.3933 -0.2904
    6SAPS  H12R  726   3.264   4.072   5.530  0.9734  0.0568  0.0167
    6SAPS  C213  727   3.137   4.212   5.647  0.6711  0.4515  0.1389
    6SAPS  H13R  728   3.099   4.216   5.751  0.0321 -0.8775 -0.0234
    6SAPS  H13S  729   3.049   4.224   5.581  0.9696  0.0397 -0.3413
    6SAPS  C214  730   3.235   4.320   5.617 -0.3307  0.0247  0.7681
    6SAPS  H14R  731   3.258   4.337   5.511 -0.7319  0.6376  0.7785
    6SAPS  C215  732   3.276   4.411   5.709  0.0027 -0.0459  0.4515
    6SAPS  H15R  733   3.341   4.489   5.667 -0.1084  0.3039  0.9190
    6SAPS  C216  734   3.250   4.414   5.862  0.7412 -0.1670  0.1793
    6SAPS  H16R  735   3.206   4.320   5.902  0.2670  0.0546  0.1916
    6SAPS  H16S  736   3.194   4.506   5.891  0.2557 -1.3706  3.4962
    6SAPS  C217  737   3.385   4.436   5.923  0.4385 -0.4779  0.0684
    6SAPS  H17R  738   3.420   4.539   5.901  0.0884 -0.4286 -0.2769
    6SAPS  H17S  739   3.450   4.372   5.860  0.4423  1.2296 -1.7726
    6SAPS  C218  740   3.382   4.414   6.074 -0.1593 -0.3406 -0.7203
    6SAPS  H18R  741   3.476   4.460   6.109 -1.1379  1.8333 -0.7580
    6SAPS  H18S  742   3.379   4.304   6.090 -2.7045 -0.1548  0.7327
    6SAPS  C219  743   3.270   4.471   6.164  0.1640 -0.4156  0.1315
    6SAPS  H19R  744   3.169   4.446   6.125  0.3280 -1.3637  0.2996
    6SAPS  H19S  745   3.266   4.582   6.171  0.4798 -0.4206  0.3769
    6SAPS  C220  746   3.296   4.395   6.302  0.2752 -0.9075  0.7850
    6SAPS  H20R  747   3.272   4.288   6.282  0.9732 -0.6874 -1.5803
    6SAPS  H20S  748   3.233   4.438   6.382  0.9463  0.5143  0.5779
    6SAPS  H20T  749   3.398   4.413   6.340  1.3357 -0.7511 -1.8824
    6SAPS   C33  750   3.522   4.891   6.407  0.0944  0.2473  0.2004
    6SAPS   H3X  751   3.625   4.869   6.371 -0.7091  0.6101 -2.5813
    6SAPS   H3Y  752   3.521   4.955   6.498  1.4355  0.7157 -0.0997
    6SAPS   C34  753   3.432   4.965   6.299 -0.1196  0.0575 -0.4834
    6SAPS   H4X  754   3.464   5.071   6.287  1.4019 -0.3831 -0.4313
    6SAPS   H4Y  755   3.325   4.960   6.330 -0.7083 -3.7407 -2.4241
    6SAPS   C35  756   3.436   4.904   6.157 -0.2707  0.0222  0.2146
    6SAPS   H5X  757   3.413   4.796   6.170  0.9286 -0.2769 -0.0015
    6SAPS   H5Y  758   3.542   4.902   6.122 -0.7654 -0.4848 -1.3008
    6SAPS   C36  759   3.356   4.969   6.053  0.2264  0.1244 -0.2199
    6SAPS   H6X  760   3.420   5.053   6.018  0.4070  0.1120  0.0860
    6SAPS   H6Y  761   3.259   5.005   6.093 -1.1812  0.1180 -3.3230
    6SAPS   C37  762   3.330   4.877   5.937  0.4744  0.3487 -0.2884
    6SAPS   H7X  763   3.282   4.786   5.977 -1.8277  2.0976  1.1822
    6SAPS   H7Y  764   3.421   4.850   5.879  0.7445  0.9254 -0.1430
    6SAPS   C38  765   3.222   4.932   5.838  0.0838 -0.2255 -0.7762
    6SAPS   H8X  766   3.253   5.016   5.772 -1.1191  1.6680  0.9943
    6SAPS   H8Y  767   3.135   4.956   5.902  0.4659 -2.5672  0.7774
    6SAPS   C39  768   3.172   4.806   5.751  0.1395  0.5604 -0.5131
    6SAPS   H9X  769   3.081   4.763   5.798  1.0189 -1.1590 -0.3008
    6SAPS   H9Y  770   3.250   4.727   5.752 -2.0332 -1.7789  2.1353
    6SAPS  C310  771   3.158   4.856   5.603  0.4218  0.6011 -0.8448
    6SAPS  H10X  772   3.260   4.882   5.568  0.3320  1.0010 -0.8081
    6SAPS  H10Y  773   3.087   4.941   5.601 -1.0916 -0.4416  2.3590
    6SAPS  C311  774   3.103   4.756   5.500 -0.0426  0.3785 -0.1641
    6SAPS  H11X  775   2.993   4.746   5.511  0.1102 -1.4826 -0.0822
    6SAPS  H11Y  776   3.140   4.654   5.521  2.1559  0.9933 -0.8524
    6SAPS  C312  777   3.150   4.790   5.359  0.0889  0.1993 -0.5255
    6SAPS  H12X  778   3.253   4.750   5.347 -0.3000 -1.7919  1.9363
    6SAPS  H12Y  779   3.146   4.901   5.354  1.3559  0.3052  0.4740
    6SAPS  C313  780   3.058   4.741   5.248 -0.5105 -0.2153 -0.0225
    6SAPS  H13X  781   3.110   4.762   5.152  2.8708 -0.2856  1.6189
    6SAPS  H13Y  782   2.956   4.783   5.237 -0.2015  0.0915 -2.0527
    6SAPS  C314  783   3.036   4.585   5.256  0.4493  0.5578  0.4532
    6SAPS  H14X  784   2.976   4.560   5.166  0.9498 -1.1017  0.5544
    6SAPS  H14Y  785   2.982   4.569   5.351 -1.8148  2.4691 -0.4067
    6SAPS  C315  786   3.160   4.501   5.242  0.0487  0.2150 -0.0421
    6SAPS  H15X  787   3.227   4.502   5.331  0.5074  0.9393 -0.3872
    6SAPS  H15Y  788   3.207   4.552   5.155  1.5499  0.8513  1.0944
    6SAPS  C316  789   3.144   4.354   5.204 -0.4677 -0.2887  0.0851
    6SAPS  H16X  790   3.090   4.335   5.109 -0.9347 -2.6421  0.7437
    6SAPS  H16Y  791   3.096   4.292   5.283  0.9875 -1.2779  0.2362
    6SAPS  C317  792   3.275   4.294   5.152  0.1922 -0.6804 -0.3483
    6SAPS  H17X  793   3.246   4.191   5.124  1.1055 -1.5901  1.7990
    6SAPS  H17Y  794   3.345   4.279   5.238 -1.0186  0.7843  0.9569
    6SAPS  C318  795   3.348   4.365   5.038 -0.6694 -0.2963 -0.1454
    6SAPS  H18X  796   3.416   4.299   4.980 -2.6184 -1.0393 -1.6968
    6SAPS  H18Y  797   3.414   4.444   5.078  2.2858 -3.6413  2.2684
    6SAPS  H18Z  798   3.278   4.407   4.963  1.1780 -0.2640 -1.9542
    7SAPS     N  799   4.269   4.473   7.480  0.6970 -0.2181 -0.7013
    7SAPS   HN1  800   4.247   4.419   7.566 -0.2545  1.3261  0.0743
    7SAPS   HN2  801   4.337   4.546   7.509  0.0477 -0.8573  2.9317
    7SAPS   HN3  802   4.175   4.506   7.449 -0.2740 -3.0756 -1.1497
    7SAPS   C12  803   4.312   4.383   7.364  0.5486 -0.4968 -0.4012
    7SAPS  H12A  804   4.414   4.356   7.387  0.0381 -0.1945  2.6517
    7SAPS   C13  805   4.220   4.255   7.372 -0.0216 -0.3923  0.7502
    7SAPS  O13A  806   4.124   4.245   7.453 -0.5690 -0.0870 -0.4209
    7SAPS  O13B  807   4.245   4.166   7.292 -0.7004 -0.1326 -0.0929
    7SAPS   C11  808   4.300   4.455   7.232  0.3364 -0.0982 -0.0666
    7SAPS  H11A  809   4.191   4.466   7.216  0.2547 -0.0642  0.5021
    7SAPS  H11B  810   4.335   4.389   7.150  0.4323 -0.4757  0.2774
    7SAPS     P  811   4.303   4.713   7.203 -0.0607  0.0065  0.3680
    7SAPS   O13  812   4.172   4.706   7.272 -0.0297  0.2735 -0.0964
    7SAPS   O14  813   4.392   4.828   7.245  1.1825 -0.3311  0.0134
    7SAPS   O12  814   4.379   4.571   7.231 -0.3722 -0.1577  0.2307
    7SAPS   O11  815   4.283   4.699   7.047  0.1377 -0.4844 -0.0359
    7SAPS    C1  816   4.405   4.663   6.978 -0.2303  0.5956 -0.7783
    7SAPS    HA  817   4.481   4.743   6.988 -1.3629  1.5545  0.4040
    7SAPS    HB  818   4.444   4.567   7.017  0.2428  1.3951  0.7771
    7SAPS    C2  819   4.387   4.634   6.827  0.1365  0.2204  0.0535
    7SAPS    HS  820   4.486   4.602   6.790  0.9811  1.3413  1.2747
    7SAPS   O21  821   4.336   4.752   6.756 -0.0121 -0.0314 -0.2102
    7SAPS   C21  822   4.418   4.851   6.754  0.4372 -0.5545  0.9678
    7SAPS   O22  823   4.533   4.852   6.785 -0.0333 -0.1586  0.0428
    7SAPS   C22  824   4.352   4.966   6.675 -0.2103  1.3197 -0.3696
    7SAPS   H2R  825   4.319   5.034   6.756  1.9694  0.1728  1.5866
    7SAPS   H2S  826   4.435   5.007   6.614  0.8206 -0.0881  0.0486
    7SAPS    C3  827   4.290   4.518   6.801  0.0158  0.2240 -0.0444
    7SAPS    HX  828   4.196   4.542   6.854  0.7714 -0.0952  1.5017
    7SAPS    HY  829   4.324   4.428   6.857  1.5920  0.2243 -0.9376
    7SAPS   O31  830   4.272   4.486   6.661 -0.2461  1.1048  0.2481
    7SAPS   C31  831   4.156   4.521   6.608 -0.1719 -0.5249 -0.0097
    7SAPS   O32  832   4.060   4.571   6.665 -0.2304  0.7579 -0.8192
    7SAPS   C32  833   4.167   4.510   6.458  0.1982 -0.1306 -0.1057
    7SAPS   H2X  834   4.201   4.409   6.426  1.8178  0.2475  0.3294
    7SAPS   H2Y  835   4.249   4.581   6.434  1.9635 -1.5906  1.3163
    7SAPS   C23  836   4.238   4.919   6.575  0.1209 -0.1372  0.4414
    7SAPS   H3R  837   4.160   4.868   6.636  2.0016 -0.7595  2.4653
    7SAPS   H3S  838   4.277   4.846   6.501 -0.8905 -0.4884  0.2331
    7SAPS   C24  839   4.168   5.036   6.512  0.6668  0.3644  0.4439
    7SAPS   H4R  840   4.112   5.103   6.581 -1.2238  0.4535 -1.0827
    7SAPS   H4S  841   4.095   4.990   6.442 -0.2503 -0.7558  2.0592
    7SAPS   C25  842   4.267   5.113   6.426 -0.2103 -0.4384  0.4664
    7SAPS   H5R  843   4.295   5.211   6.468  1.2948  0.6537 -2.7533
    7SAPS   C26  844   4.311   5.075   6.303 -0.2002 -0.0536 -0.5512
    7SAPS   H6R  845   4.397   5.138   6.275 -0.3488  3.3254  5.0058
    7SAPS   C27  846   4.278   4.956   6.216 -0.3407 -0.0541  0.1004
    7SAPS   H7R  847   4.175   4.920   6.236 -0.1256  0.1046  1.6255
    7SAPS   H7S  848   4.341   4.867   6.235 -0.7231 -0.7872 -1.9047
    7SAPS   C28  849   4.277   4.998   6.075 -0.0557  0.1145  0.8483
    7SAPS   H8R  850   4.193   5.067   6.060  2.1968  3.3178  1.8339
    7SAPS   C29  851   4.348   4.959   5.968 -0.0301 -0.2931 -0.6245
    7SAPS   H9R  852   4.328   5.000   5.868  1.3928  2.0645 -0.0318
    7SAPS  C210  853   4.466   4.865   5.984  0.3202  0.0214 -0.5621
    7SAPS  H10R  854   4.458   4.819   6.085 -0.9413  0.2895 -0.5254
    7SAPS  H10S  855   4.559   4.924   5.984  0.9027 -0.8669 -1.2104
    7SAPS  C211  856   4.465   4.751   5.889 -0.2697  0.2215 -0.0970
    7SAPS  H11R  857   4.363   4.724   5.856 -0.5866  1.0849  0.1603
    7SAPS  C212  858   4.571   4.677   5.854 -0.0825 -0.7747  0.1945
    7SAPS  H12R  859   4.548   4.603   5.777  0.2917 -0.2214 -0.4583
    7SAPS  C213  860   4.712   4.700   5.890 -0.9152 -0.6326  0.6742
    7SAPS  H13R  861   4.723   4.795   5.946 -1.6643  0.3715 -0.8493
    7SAPS  H13S  862   4.775   4.700   5.799  0.5446 -2.5495  1.5972
    7SAPS  C214  863   4.764   4.584   5.974 -0.2743  0.0160 -0.0476
    7SAPS  H14R  864   4.705   4.563   6.065 -0.3886 -0.2057 -0.1735
    7SAPS  C215  865   4.874   4.511   5.948  0.7442  0.0415 -0.3049
    7SAPS  H15R  866   4.890   4.426   6.016 -4.6610 -1.0369  0.0075
    7SAPS  C216  867   4.960   4.523   5.826  0.4649  0.4150  0.8225
    7SAPS  H16R  868   4.905   4.557   5.735 -1.5189  0.8444  2.1181
    7SAPS  H16S  869   4.995   4.420   5.804 -1.1981  0.1572 -0.9354
    7SAPS  C217  870   5.083   4.611   5.841 -0.2015 -0.1691 -0.2966
    7SAPS  H17R  871   5.047   4.716   5.830 -1.0619 -0.2254  1.6131
    7SAPS  H17S  872   5.165   4.595   5.767 -0.5339  1.3208 -1.0223
    7SAPS  C218  873   5.158   4.588   5.973 -0.2069  0.2810 -0.3802
    7SAPS  H18R  874   5.156   4.481   6.000 -1.2429  0.6463  1.1415
    7SAPS  H18S  875   5.096   4.618   6.060  0.0996 -0.2786  0.0385
    7SAPS  C219  876   5.303   4.646   5.979  0.3247 -0.3599 -0.2774
    7SAPS  H19R  877   5.307   4.752   5.948 -0.8172 -0.1446  0.2663
    7SAPS  H19S  878   5.370   4.593   5.907  1.7012  1.1576 -0.1744
    7SAPS  C220  879   5.356   4.638   6.115  0.4809 -0.0324  0.3032
    7SAPS  H20R  880   5.366   4.530   6.141  0.9338  0.5625  2.7962
    7SAPS  H20S  881   5.283   4.679   6.188 -0.9253 -1.9424  0.0686
    7SAPS  H20T  882   5.454   4.690   6.122  1.4657 -1.6171 -0.9248
    7SAPS   C33  883   4.033   4.542   6.395  0.3450 -0.0455 -0.4372
    7SAPS   H3X  884   3.986   4.629   6.446  1.8509  0.3657  0.3011
    7SAPS   H3Y  885   3.968   4.455   6.417 -0.1546 -0.1098 -2.0274
    7SAPS   C34  886   4.031   4.574   6.246  0.0364  0.1770  0.1888
    7SAPS   H4X  887   4.066   4.488   6.184  1.0520  0.6907  0.0276
    7SAPS   H4Y  888   4.103   4.654   6.221 -1.9500  1.3703 -2.1338
    7SAPS   C35  889   3.894   4.617   6.202 -0.2810  0.2868 -0.0617
    7SAPS   H5X  890   3.864   4.714   6.249 -1.3216  0.2544 -0.6266
    7SAPS   H5Y  891   3.826   4.534   6.232 -1.4955  1.1835 -0.2650
    7SAPS   C36  892   3.895   4.636   6.049  0.0728 -0.0077 -0.5281
    7SAPS   H6X  893   3.934   4.543   6.002  4.4027  2.1141 -1.5865
    7SAPS   H6Y  894   3.953   4.723   6.012  0.2346  0.1954  0.1742
    7SAPS   C37  895   3.751   4.650   5.982 -0.0965  0.7134  0.4294
    7SAPS   H7X  896   3.686   4.731   6.019 -0.9881  0.2224 -0.0316
    7SAPS   H7Y  897   3.700   4.554   6.006  0.6769  0.4193  0.9350
    7SAPS   C38  898   3.772   4.658   5.827  0.4249  0.2746  0.0471
    7SAPS   H8X  899   3.859   4.595   5.799 -0.5116 -1.0741  0.0914
    7SAPS   H8Y  900   3.806   4.762   5.805 -1.4597  1.0649  0.6392
    7SAPS   C39  901   3.648   4.623   5.744  0.0993 -1.1335  0.2524
    7SAPS   H9X  902   3.568   4.696   5.766  1.0580 -0.1360  0.4976
    7SAPS   H9Y  903   3.622   4.517   5.767  1.1240 -1.7704 -1.3613
    7SAPS  C310  904   3.668   4.642   5.595 -0.0794  0.0426  0.5771
    7SAPS  H10X  905   3.742   4.566   5.562 -1.4205 -1.9360  1.8953
    7SAPS  H10Y  906   3.707   4.742   5.568  1.0257 -0.8414 -1.4033
    7SAPS  C311  907   3.532   4.627   5.518  0.0979 -0.0608 -0.4541
    7SAPS  H11X  908   3.465   4.705   5.560 -0.0165 -0.4240  0.0386
    7SAPS  H11Y  909   3.497   4.525   5.542  1.8228 -0.1325  2.1393
    7SAPS  C312  910   3.550   4.624   5.357 -0.7680 -0.2252  0.0360
    7SAPS  H12X  911   3.455   4.585   5.314 -0.0193 -3.0130  0.7132
    7SAPS  H12Y  912   3.640   4.560   5.348 -1.0909 -0.6444 -0.2558
    7SAPS  C313  913   3.591   4.751   5.283 -0.7987  0.3538 -1.0464
    7SAPS  H13X  914   3.696   4.783   5.301 -0.7697 -0.3125  0.0609
    7SAPS  H13Y  915   3.523   4.832   5.316 -1.3428 -0.9008  1.1571
    7SAPS  C314  916   3.583   4.744   5.132  0.0710 -0.2967 -0.0777
    7SAPS  H14X  917   3.490   4.690   5.105 -1.2223  1.3896  0.7753
    7SAPS  H14Y  918   3.672   4.689   5.097  0.7235  0.8387 -0.2737
    7SAPS  C315  919   3.579   4.873   5.054 -0.4705  0.0354  0.0506
    7SAPS  H15X  920   3.651   4.950   5.089  1.3257 -0.8250 -1.5498
    7SAPS  H15Y  921   3.483   4.928   5.066 -0.0335  0.9420 -0.4746
    7SAPS  C316  922   3.588   4.842   4.906  0.4160 -0.0693 -0.1091
    7SAPS  H16X  923   3.638   4.744   4.894  1.0594  0.2502 -0.0555
    7SAPS  H16Y  924   3.646   4.925   4.861  0.4484  0.9235  1.6365
    7SAPS  C317  925   3.449   4.830   4.837  0.4765  0.4703  0.2710
    7SAPS  H17X  926   3.403   4.931   4.833  1.0339  0.6983 -2.3337
    7SAPS  H17Y  927   3.394   4.763   4.906 -1.3431 -0.8990 -2.3093
    7SAPS  C318  928   3.452   4.784   4.690  0.0905 -0.4556 -0.5600
    7SAPS  H18X  929   3.490   4.680   4.676 -1.5956 -1.0694 -0.7510
    7SAPS  H18Y  930   3.501   4.862   4.627  0.1677 -0.8749 -1.0334
    7SAPS  H18Z  931   3.350   4.784   4.646 -0.6706 -0.0908  1.1430
    8SAPS     N  932   3.287   6.252   6.830 -0.2783 -0.4113  0.6663
    8SAPS   HN1  933   3.277   6.173   6.897  0.4341  0.8201  2.2905
    8SAPS   HN2  934   3.386   6.284   6.832 -0.4317  0.5840 -2.1642
    8SAPS   HN3  935   3.219   6.323   6.863  0.0293  1.1062 -1.7313
    8SAPS   C12  936   3.241   6.211   6.691 -1.3855 -0.9418 -0.6376
    8SAPS  H12A  937   3.321   6.149   6.652 -0.2491 -0.4560  0.8011
    8SAPS   C13  938   3.111   6.123   6.685 -0.1449  0.1861  0.0805
    8SAPS  O13A  939   3.078   6.063   6.790 -0.4635 -0.0367 -0.6234
    8SAPS  O13B  940   3.080   6.084   6.570  0.1253  0.1633 -0.5268
    8SAPS   C11  941   3.212   6.328   6.601  0.0628  0.0418  0.4380
    8SAPS  H11A  942   3.123   6.384   6.634 -0.3109  1.7588 -3.0500
    8SAPS  H11B  943   3.193   6.288   6.499 -0.0048 -1.9086  1.1663
    8SAPS     P  944   3.320   6.542   6.505 -0.3876  0.0842 -0.1504
    8SAPS   O13  945   3.197   6.620   6.515 -0.4088 -0.1205 -0.5032
    8SAPS   O14  946   3.447   6.614   6.499  0.3771 -0.1403 -0.1175
    8SAPS   O12  947   3.322   6.423   6.609 -0.6113  0.4770 -0.2387
    8SAPS   O11  948   3.313   6.470   6.363  0.3355 -0.5388 -0.2771
    8SAPS    C1  949   3.407   6.370   6.322  0.3138 -0.6197  0.1677
    8SAPS    HA  950   3.509   6.414   6.309 -0.7292  3.1677  3.1184
    8SAPS    HB  951   3.411   6.286   6.394 -2.0166 -1.6496 -0.7905
    8SAPS    C2  952   3.369   6.299   6.191  0.7416 -0.5132 -0.2065
    8SAPS    HS  953   3.459   6.258   6.141  0.8006 -0.9318  0.2297
    8SAPS   O21  954   3.293   6.388   6.106  0.3848 -0.0505  0.0658
    8SAPS   C21  955   3.361   6.497   6.071 -0.4896 -0.0316  0.2088
    8SAPS   O22  956   3.482   6.515   6.090  0.1249 -0.0454  0.7616
    8SAPS   C22  957   3.266   6.601   6.004  0.6695  0.4212  0.3660
    8SAPS   H2R  958   3.246   6.561   5.902 -0.5775  1.5423  0.1482
    8SAPS   H2S  959   3.183   6.605   6.077 -1.0165 -1.8137 -1.2702
    8SAPS    C3  960   3.284   6.178   6.213 -0.2028 -0.1925 -0.4312
    8SAPS    HX  961   3.189   6.208   6.263  0.0078  0.1484 -0.2322
    8SAPS    HY  962   3.329   6.104   6.283 -2.5213 -0.1628  1.2321
    8SAPS   O31  963   3.268   6.095   6.091  0.3402 -0.2974  0.4056
    8SAPS   C31  964   3.149   6.048   6.073  0.3803  0.5502  0.1514
    8SAPS   O32  965   3.050   6.053   6.143  0.3033  0.1444 -0.6812
    8SAPS   C32  966   3.135   5.974   5.934 -0.3886  0.2553  0.4419
    8SAPS   H2X  967   3.047   5.908   5.943  1.3415 -2.1349  0.7048
    8SAPS   H2Y  968   3.230   5.921   5.910  0.4732  2.2859 -0.9685
    8SAPS   C23  969   3.318   6.744   5.979 -0.2112  0.5494  0.4018
    8SAPS   H3R  970   3.417   6.747   5.928  0.8566  1.7206  2.4136
    8SAPS   H3S  971   3.323   6.795   6.078  0.6126 -1.0101  1.2214
    8SAPS   C24  972   3.230   6.817   5.877 -0.4388  0.0646  0.1546
    8SAPS   H4R  973   3.217   6.756   5.785  0.0579 -2.1816  1.4964
    8SAPS   H4S  974   3.272   6.918   5.853 -1.2576  0.7608  1.5395
    8SAPS   C25  975   3.098   6.858   5.937 -0.3307 -0.6438  0.1320
    8SAPS   H5R  976   3.070   6.810   6.032  2.8552 -0.5658  1.2327
    8SAPS   C26  977   3.021   6.961   5.887 -0.4089  0.8359 -0.2567
    8SAPS   H6R  978   2.918   6.966   5.923 -1.3824 -0.5184 -2.6382
    8SAPS   C27  979   3.055   7.048   5.768  0.4423  0.2187 -0.5015
    8SAPS   H7R  980   3.124   7.000   5.696  1.0413  0.4779 -0.1076
    8SAPS   H7S  981   3.100   7.145   5.799 -1.8096  0.6230  1.9593
    8SAPS   C28  982   2.924   7.092   5.702 -0.3734 -0.5909 -0.7737
    8SAPS   H8R  983   2.872   7.185   5.728 -1.6400 -0.4088 -3.6081
    8SAPS   C29  984   2.866   7.035   5.602 -0.6217  0.1632 -0.7209
    8SAPS   H9R  985   2.767   7.068   5.566 -0.5578 -1.0116 -2.0702
    8SAPS  C210  986   2.931   6.917   5.526  0.8705 -0.2640  0.3817
    8SAPS  H10R  987   2.847   6.849   5.501  1.8913 -1.0357 -1.1336
    8SAPS  H10S  988   2.982   6.859   5.607  0.9349  0.1061  0.6082
    8SAPS  C211  989   3.018   6.931   5.404  0.1365  0.0530 -0.2240
    8SAPS  H11R  990   3.069   6.837   5.378  1.1032  0.5427 -0.1534
    8SAPS  C212  991   3.020   7.024   5.309 -0.3152  0.1920  0.5086
    8SAPS  H12R  992   3.080   7.001   5.220  2.5753 -1.1944  2.6801
    8SAPS  C213  993   2.942   7.147   5.296 -0.2249  0.1399 -0.4166
    8SAPS  H13R  994   2.854   7.144   5.364  2.3035  0.4624  3.1203
    8SAPS  H13S  995   2.909   7.152   5.190 -0.4111 -1.0105 -0.4300
    8SAPS  C214  996   3.039   7.250   5.345 -0.0786  0.0078  1.0265
    8SAPS  H14R  997   3.028   7.265   5.453 -0.0858 -0.0119  1.0285
    8SAPS  C215  998   3.145   7.305   5.280 -0.7797 -0.6798  0.1470
    8SAPS  H15R  999   3.213   7.374   5.332 -0.1363 -1.6990  0.6727
    8SAPS  C216 1000   3.196   7.274   5.135 -0.2520  0.4644  0.2408
    8SAPS  H16R 1001   3.157   7.182   5.087 -0.6226  0.6154  0.2502
    8SAPS  H16S 1002   3.306   7.263   5.142 -0.3304 -1.9301 -1.2868
    8SAPS  C217 1003   3.167   7.385   5.028 -0.1786 -0.3039  0.5563
    8SAPS  H17R 1004   3.058   7.406   5.032  0.3496  2.8554  0.8581
    8SAPS  H17S 1005   3.176   7.331   4.931  0.6569  2.7271 -1.2119
    8SAPS  C218 1006   3.245   7.514   5.038 -0.0905 -0.5833 -0.0718
    8SAPS  H18R 1007   3.352   7.487   5.043 -0.2790 -1.3517  0.1154
    8SAPS  H18S 1008   3.212   7.558   5.134 -0.4610  0.8155 -0.8215
    8SAPS  C219 1009   3.218   7.614   4.925 -0.5304 -0.1404  0.6336
    8SAPS  H19R 1010   3.282   7.705   4.932 -0.5461 -0.0005 -0.8061
    8SAPS  H19S 1011   3.117   7.658   4.944 -0.3327  1.7014 -2.0177
    8SAPS  C220 1012   3.215   7.564   4.778  0.8820  0.5625 -0.0961
    8SAPS  H20R 1013   3.204   7.651   4.710  2.1154  0.2694 -0.7013
    8SAPS  H20S 1014   3.129   7.495   4.764 -0.1814  1.0607  3.0200
    8SAPS  H20T 1015   3.310   7.510   4.755 -0.5693 -2.2257  0.0284
    8SAPS   C33 1016   3.123   6.085   5.830  0.1143 -0.6449 -0.2059
    8SAPS   H3X 1017   3.189   6.174   5.839  1.1260 -1.3741 -0.2052
    8SAPS   H3Y 1018   3.018   6.120   5.832 -0.6253 -2.4738 -2.8154
    8SAPS   C34 1019   3.164   6.042   5.691  0.2678  0.3210  0.1604
    8SAPS   H4X 1020   3.266   5.998   5.696  0.0822 -0.0489  0.9992
    8SAPS   H4Y 1021   3.164   6.123   5.615  1.6462  2.1857  2.0275
    8SAPS   C35 1022   3.070   5.933   5.639 -0.9645  0.3934  0.4204
    8SAPS   H5X 1023   2.965   5.960   5.664 -1.4032 -0.5770 -0.3287
    8SAPS   H5Y 1024   3.071   5.834   5.688 -0.6419  0.8607  1.3905
    8SAPS   C36 1025   3.093   5.895   5.495  0.1090  0.0844 -0.3318
    8SAPS   H6X 1026   3.077   5.981   5.427 -2.0546  0.7933  0.9480
    8SAPS   H6Y 1027   3.006   5.839   5.455  0.8837  0.3627 -2.5292
    8SAPS   C37 1028   3.224   5.819   5.476  0.3025  0.4362 -0.4412
    8SAPS   H7X 1029   3.207   5.713   5.503  3.1959  0.4261  1.7490
    8SAPS   H7Y 1030   3.290   5.859   5.555 -1.3155 -0.7069  1.5754
    8SAPS   C38 1031   3.294   5.834   5.342  0.0174  0.1311  0.7065
    8SAPS   H8X 1032   3.333   5.938   5.335 -0.4940  0.2167 -1.3747
    8SAPS   H8Y 1033   3.210   5.815   5.273 -1.4335 -0.4761  2.5414
    8SAPS   C39 1034   3.409   5.737   5.316  0.5865 -0.4584 -0.3265
    8SAPS   H9X 1035   3.373   5.636   5.347  0.8945  0.0005  1.6579
    8SAPS   H9Y 1036   3.495   5.764   5.381  0.3122 -2.0172  0.7470
    8SAPS  C310 1037   3.462   5.744   5.172 -0.1327  0.0573  0.4777
    8SAPS  H10X 1038   3.551   5.678   5.183 -0.5883 -0.5288  0.7436
    8SAPS  H10Y 1039   3.495   5.849   5.160  0.1003 -0.0843 -0.1829
    8SAPS  C311 1040   3.378   5.696   5.054  0.0894 -0.6166 -0.1499
    8SAPS  H11X 1041   3.291   5.761   5.033 -0.9832 -1.5270  1.3144
    8SAPS  H11Y 1042   3.333   5.596   5.074 -2.2369  0.4355  0.2252
    8SAPS  C312 1043   3.466   5.669   4.933  0.4694  0.1204  0.5283
    8SAPS  H12X 1044   3.541   5.593   4.961 -0.4498 -1.6561 -1.5305
    8SAPS  H12Y 1045   3.507   5.767   4.900 -0.2503  0.7885  1.5533
    8SAPS  C313 1046   3.378   5.618   4.813  0.2454  0.3939  0.4309
    8SAPS  H13X 1047   3.324   5.700   4.761  0.0120  0.1333  0.2573
    8SAPS  H13Y 1048   3.302   5.542   4.842 -1.4139 -0.2803 -4.6166
    8SAPS  C314 1049   3.447   5.534   4.702  0.0006 -0.1203  0.2030
    8SAPS  H14X 1050   3.373   5.496   4.629  0.4537  0.1019 -0.3807
    8SAPS  H14Y 1051   3.505   5.446   4.737  0.9658  0.1781 -0.5843
    8SAPS  C315 1052   3.535   5.631   4.619  0.5634 -0.1306  0.2740
    8SAPS  H15X 1053   3.607   5.680   4.687 -3.8768  2.8442  3.4032
    8SAPS  H15Y 1054   3.477   5.709   4.564  0.7034 -0.2734 -0.0803
    8SAPS  C316 1055   3.611   5.551   4.514 -0.6230  0.7146 -0.2656
    8SAPS  H16X 1056   3.529   5.500   4.458 -1.4384  0.6339  0.9733
    8SAPS  H16Y 1057   3.682   5.474   4.552 -0.1272  0.5497 -1.4771
    8SAPS  C317 1058   3.691   5.646   4.424  0.2325 -0.5142 -0.2419
    8SAPS  H17X 1059   3.760   5.718   4.473 -1.1728  0.2209  0.7092
    8SAPS  H17Y 1060   3.619   5.722   4.387  1.2781  2.2803  3.0161
    8SAPS  C318 1061   3.756   5.568   4.306 -0.3037 -0.3977 -0.2824
    8SAPS  H18X 1062   3.682   5.554   4.224 -0.3408 -2.1417  0.0160
    8SAPS  H18Y 1063   3.796   5.472   4.343  0.9092  0.7044  1.4115
    8SAPS  H18Z 1064   3.837   5.632   4.265  0.1112 -1.3575 -0.9977
    9SAPS     N 1065   2.533   4.297   7.257 -0.5326 -0.3466  0.4498
    9SAPS   HN1 1066   2.570   4.322   7.351  1.2764  2.4691 -0.8866
    9SAPS   HN2 1067   2.518   4.194   7.255  2.1416 -0.8048  0.0012
    9SAPS   HN3 1068   2.607   4.321   7.188 -0.4548 -0.5599  0.4587
    9SAPS   C12 1069   2.413   4.378   7.228  0.4758  0.2962 -0.0334
    9SAPS  H12A 1070   2.345   4.359   7.310  3.7921 -1.5446  2.5546
    9SAPS   C13 1071   2.413   4.532   7.231  0.7421  0.4451  0.0960
    9SAPS  O13A 1072   2.526   4.592   7.250  0.6359 -0.2008  1.0803
    9SAPS  O13B 1073   2.302   4.591   7.243 -0.5509 -0.4090 -0.0057
    9SAPS   C11 1074   2.348   4.333   7.093  0.5763  0.5224 -0.1506
    9SAPS  H11A 1075   2.257   4.392   7.070 -0.0930 -1.0069 -1.5772
    9SAPS  H11B 1076   2.309   4.230   7.109  0.2631  0.4540 -1.2591
    9SAPS     P 1077   2.441   4.213   6.876 -0.4650 -0.2114 -0.1833
    9SAPS   O13 1078   2.509   4.271   6.756  0.0980 -0.2459 -0.1287
    9SAPS   O14 1079   2.503   4.092   6.941 -0.4488 -0.3767 -0.2691
    9SAPS   O12 1080   2.447   4.332   6.990  0.0369 -0.1553  0.3073
    9SAPS   O11 1081   2.284   4.190   6.844 -0.4336  0.1897  0.3093
    9SAPS    C1 1082   2.232   4.095   6.755  0.1721  0.1732  0.1697
    9SAPS    HA 1083   2.308   4.030   6.705  0.1668 -0.8896  1.4785
    9SAPS    HB 1084   2.153   4.033   6.803  1.4220 -1.4071  0.2873
    9SAPS    C2 1085   2.158   4.159   6.630 -0.2281 -0.1849 -0.3466
    9SAPS    HS 1086   2.098   4.075   6.588 -1.7953  0.6061  0.2338
    9SAPS   O21 1087   2.245   4.224   6.542  0.2119  0.1763 -0.1590
    9SAPS   C21 1088   2.237   4.180   6.412  0.3833  0.1302  0.3098
    9SAPS   O22 1089   2.159   4.102   6.366 -0.4579  0.1650 -0.3231
    9SAPS   C22 1090   2.342   4.265   6.332  0.5332 -0.5269 -0.2770
    9SAPS   H2R 1091   2.339   4.372   6.364  1.6059 -0.2683 -1.0227
    9SAPS   H2S 1092   2.443   4.236   6.367  0.4520 -2.0054 -1.1982
    9SAPS    C3 1093   2.046   4.251   6.678  0.2185 -0.0560  0.6041
    9SAPS    HX 1094   2.086   4.352   6.702 -0.1154  0.2302 -0.0061
    9SAPS    HY 1095   2.007   4.206   6.771 -1.1282  0.1242  0.1589
    9SAPS   O31 1096   1.936   4.266   6.581 -0.5998 -0.0988 -0.6424
    9SAPS   C31 1097   1.949   4.357   6.489  0.1507 -0.1513 -0.0035
    9SAPS   O32 1098   2.044   4.437   6.489 -0.4183 -0.0019  0.0471
    9SAPS   C32 1099   1.841   4.339   6.381 -0.4316 -0.9292 -1.0064
    9SAPS   H2X 1100   1.748   4.373   6.431  0.1250  0.9189 -1.1449
    9SAPS   H2Y 1101   1.818   4.233   6.358 -2.0542 -1.0510  0.9059
    9SAPS   C23 1102   2.333   4.257   6.177 -0.0881 -0.0698  0.3337
    9SAPS   H3R 1103   2.358   4.152   6.153  0.0071 -0.7054  2.8937
    9SAPS   H3S 1104   2.418   4.315   6.136  0.8986 -2.3324 -0.9943
    9SAPS   C24 1105   2.207   4.308   6.106 -0.1227  0.2437  0.1616
    9SAPS   H4R 1106   2.110   4.263   6.138  0.7086 -2.2108 -0.5696
    9SAPS   H4S 1107   2.216   4.282   5.999 -3.6137 -0.1650 -0.1492
    9SAPS   C25 1108   2.207   4.457   6.137 -0.2645 -0.0310  0.2723
    9SAPS   H5R 1109   2.234   4.490   6.239  2.6964  3.5528 -1.4425
    9SAPS   C26 1110   2.182   4.554   6.050 -1.1092  0.0840 -0.2339
    9SAPS   H6R 1111   2.159   4.656   6.085 -5.0761  0.4855 -3.3368
    9SAPS   C27 1112   2.156   4.534   5.906  0.0125  0.0132  0.9752
    9SAPS   H7R 1113   2.169   4.428   5.874 -0.4064  0.4576 -0.7897
    9SAPS   H7S 1114   2.230   4.586   5.842 -1.9533  2.9350  0.8962
    9SAPS   C28 1115   2.013   4.578   5.869  0.2745 -0.1341 -1.0162
    9SAPS   H8R 1116   1.930   4.550   5.937  2.3486 -0.5182  1.5328
    9SAPS   C29 1117   1.984   4.665   5.775  0.4085 -0.7586 -0.0930
    9SAPS   H9R 1118   1.876   4.675   5.757  0.3142 -1.0277  0.3000
    9SAPS  C210 1119   2.074   4.753   5.697 -0.8907 -0.0371  0.0005
    9SAPS  H10R 1120   2.085   4.697   5.602  0.3112  0.5188 -0.2081
    9SAPS  H10S 1121   2.179   4.760   5.735 -0.8762  0.8834 -0.1919
    9SAPS  C211 1122   2.015   4.894   5.678 -0.1840  0.0479 -0.5326
    9SAPS  H11R 1123   2.005   4.944   5.775  2.0105  0.0526 -0.2449
    9SAPS  C212 1124   1.984   4.958   5.567 -0.6285  0.3573  1.4519
    9SAPS  H12R 1125   1.936   5.056   5.569 -1.5384  0.0081 -0.6524
    9SAPS  C213 1126   1.994   4.884   5.435  0.0376 -0.0189  0.4211
    9SAPS  H13R 1127   2.078   4.812   5.444  0.2814  0.3581  1.3361
    9SAPS  H13S 1128   2.027   4.956   5.358  1.5373 -0.1262  0.9294
    9SAPS  C214 1129   1.862   4.812   5.407  0.2246  0.0344  0.0959
    9SAPS  H14R 1130   1.843   4.730   5.477 -2.1924  0.3536 -0.0982
    9SAPS  C215 1131   1.760   4.840   5.321  0.8874 -0.4033 -0.0783
    9SAPS  H15R 1132   1.674   4.773   5.312  2.0204 -1.8983 -0.0902
    9SAPS  C216 1133   1.763   4.968   5.231  0.3395  0.5765  0.7534
    9SAPS  H16R 1134   1.822   5.046   5.283  1.9232  0.0146 -0.1179
    9SAPS  H16S 1135   1.658   4.999   5.212  0.3921  1.1181  1.3199
    9SAPS  C217 1136   1.836   4.953   5.095  0.1113 -0.3304  0.0966
    9SAPS  H17R 1137   1.942   4.932   5.122  0.2492  0.4951  0.2095
    9SAPS  H17S 1138   1.832   5.048   5.040 -0.8898 -1.4600 -1.8852
    9SAPS  C218 1139   1.771   4.853   5.008 -0.0141 -0.0318  0.5323
    9SAPS  H18R 1140   1.660   4.851   5.019  0.1169  0.4708  2.1893
    9SAPS  H18S 1141   1.796   4.756   5.056 -1.6576 -0.4400  0.6364
    9SAPS  C219 1142   1.840   4.856   4.877 -0.3625  0.0715  0.6450
    9SAPS  H19R 1143   1.950   4.867   4.881 -0.3708  0.3526  0.2172
    9SAPS  H19S 1144   1.807   4.948   4.823 -1.7989  0.2534  1.7701
    9SAPS  C220 1145   1.807   4.734   4.795  0.1698  0.5573  0.9864
    9SAPS  H20R 1146   1.863   4.720   4.700  0.9399 -1.6611  1.6966
    9SAPS  H20S 1147   1.701   4.714   4.767  1.0700 -3.1934 -0.4076
    9SAPS  H20T 1148   1.836   4.641   4.850 -1.1159  0.3339  1.3243
    9SAPS   C33 1149   1.870   4.421   6.261 -0.4603  0.1370 -0.5142
    9SAPS   H3X 1150   1.969   4.393   6.219 -0.6943  1.4149 -1.9806
    9SAPS   H3Y 1151   1.874   4.527   6.293  0.6591  0.5392 -1.8570
    9SAPS   C34 1152   1.775   4.401   6.142 -0.2813 -0.1427 -0.0295
    9SAPS   H4X 1153   1.768   4.505   6.104 -0.6882 -0.6292 -1.3318
    9SAPS   H4Y 1154   1.674   4.374   6.182 -0.8039  3.0482  1.1487
    9SAPS   C35 1155   1.828   4.304   6.036  0.1794 -0.4183  0.3316
    9SAPS   H5X 1156   1.834   4.207   6.089 -2.6070 -0.6215  0.4402
    9SAPS   H5Y 1157   1.933   4.327   6.008  0.9589 -3.9482 -0.0902
    9SAPS   C36 1158   1.723   4.296   5.923 -0.2893 -0.1698  0.0795
    9SAPS   H6X 1159   1.694   4.402   5.908 -0.0955 -0.4705 -2.7865
    9SAPS   H6Y 1160   1.646   4.225   5.960  1.7102 -2.4970  0.0432
    9SAPS   C37 1161   1.772   4.255   5.789  0.3162 -0.2957 -0.0047
    9SAPS   H7X 1162   1.826   4.159   5.793 -3.1501 -2.4540 -0.5682
    9SAPS   H7Y 1163   1.849   4.327   5.753  1.1034 -0.1639  1.8398
    9SAPS   C38 1164   1.653   4.240   5.691 -0.1157 -0.2903 -0.4697
    9SAPS   H8X 1165   1.613   4.342   5.675 -1.6765 -0.6338  0.9343
    9SAPS   H8Y 1166   1.571   4.178   5.734 -1.0393  1.9689  1.1913
    9SAPS   C39 1167   1.701   4.188   5.561 -0.4850  0.4871  0.0737
    9SAPS   H9X 1168   1.738   4.086   5.586 -2.1375  0.2876  1.9383
    9SAPS   H9Y 1169   1.786   4.252   5.528  0.4313 -1.2723 -1.1869
    9SAPS  C310 1170   1.592   4.185   5.458  0.9124 -0.6855  0.4286
    9SAPS  H10X 1171   1.569   4.287   5.421 -1.0474 -0.0819  2.9982
    9SAPS  H10Y 1172   1.504   4.147   5.515 -1.2555  2.1954 -0.7524
    9SAPS  C311 1173   1.616   4.085   5.337  0.0992 -0.8213 -0.2094
    9SAPS  H11X 1174   1.633   3.983   5.377  0.2778  0.1628  2.4241
    9SAPS  H11Y 1175   1.690   4.140   5.275  0.1392  1.6501  1.8520
    9SAPS  C312 1176   1.489   4.084   5.248 -0.4715 -0.0821  0.3013
    9SAPS  H12X 1177   1.478   4.188   5.212  2.7339  0.8331  1.5755
    9SAPS  H12Y 1178   1.399   4.049   5.302 -0.4812 -1.1953 -0.3937
    9SAPS  C313 1179   1.494   3.988   5.131 -0.1137  0.2968 -0.0461
    9SAPS  H13X 1180   1.392   3.983   5.087 -0.0033 -1.4459 -0.1546
    9SAPS  H13Y 1181   1.517   3.881   5.149  1.6636 -0.2644 -4.4967
    9SAPS  C314 1182   1.558   4.036   5.002  0.1105 -0.2763 -0.0953
    9SAPS  H14X 1183   1.667   4.048   5.022  0.3441  0.2961 -1.5678
    9SAPS  H14Y 1184   1.520   4.138   4.979 -1.4315 -0.9932 -0.8665
    9SAPS  C315 1185   1.531   3.937   4.894  0.0989 -0.1337 -0.0080
    9SAPS  H15X 1186   1.422   3.943   4.876 -0.6450 -3.5955  2.2515
    9SAPS  H15Y 1187   1.555   3.835   4.932 -1.5140 -0.9353 -1.0254
    9SAPS  C316 1188   1.606   3.946   4.761  0.2183 -0.4873  0.8477
    9SAPS  H16X 1189   1.585   4.051   4.729  3.0314 -0.0265  0.2458
    9SAPS  H16Y 1190   1.555   3.884   4.684  0.8474 -0.3719  0.3365
    9SAPS  C317 1191   1.753   3.918   4.762 -0.7751  0.0961  0.2105
    9SAPS  H17X 1192   1.785   3.851   4.680 -3.6072 -0.6979 -0.3429
    9SAPS  H17Y 1193   1.797   3.876   4.855  1.3621 -0.1625 -0.8516
    9SAPS  C318 1194   1.829   4.053   4.764 -0.3584 -0.0600  0.1133
    9SAPS  H18X 1195   1.787   4.130   4.832 -2.1226 -1.7807  1.0690
    9SAPS  H18Y 1196   1.835   4.089   4.659  1.3776 -1.2780 -0.2642
    9SAPS  H18Z 1197   1.938   4.046   4.788 -0.0595  2.9539 -0.0556
   10SAPS     N 1198   2.701   3.283   6.621 -0.2129 -0.1094 -0.0931
   10SAPS   HN1 1199   2.751   3.310   6.534  0.7311  0.2712  0.5557
   10SAPS   HN2 1200   2.630   3.211   6.595  0.0418 -0.0760 -0.8824
   10SAPS   HN3 1201   2.638   3.359   6.654  0.7503  1.1059 -0.9630
   10SAPS   C12 1202   2.800   3.254   6.726  0.2283 -0.1317 -0.9391
   10SAPS  H12A 1203   2.876   3.331   6.723  0.7184 -0.3593  2.1381
   10SAPS   C13 1204   2.742   3.266   6.877 -0.2438  0.3761  0.1418
   10SAPS  O13A 1205   2.621   3.265   6.898 -0.4283 -0.3890  0.5379
   10SAPS  O13B 1206   2.824   3.256   6.972  0.4083  0.1939  0.2668
   10SAPS   C11 1207   2.876   3.119   6.713  0.0314 -0.4668  0.1089
   10SAPS  H11A 1208   2.803   3.041   6.743 -1.7088  0.6317 -1.0248
   10SAPS  H11B 1209   2.965   3.117   6.780  0.2765 -3.3153 -0.1623
   10SAPS     P 1210   2.951   2.949   6.527  0.2118  0.2202  0.3654
   10SAPS   O13 1211   3.046   2.902   6.630  0.1962 -0.5919  0.9596
   10SAPS   O14 1212   2.829   2.871   6.491 -0.4438 -0.2737 -0.0754
   10SAPS   O12 1213   2.912   3.094   6.574  0.5215  0.6367  0.1307
   10SAPS   O11 1214   3.031   2.974   6.390 -0.1065 -0.1159  0.2084
   10SAPS    C1 1215   2.959   3.017   6.273  0.4259 -0.0472 -0.2560
   10SAPS    HA 1216   3.035   3.005   6.192  0.8536  2.3133 -0.2823
   10SAPS    HB 1217   2.871   2.953   6.253  0.6512 -1.2836  2.2799
   10SAPS    C2 1218   2.932   3.174   6.267 -0.5025  1.0258 -0.2394
   10SAPS    HS 1219   2.849   3.188   6.339  0.7980 -0.1808  1.5884
   10SAPS   O21 1220   2.907   3.214   6.132  0.2463 -0.1404 -0.1977
   10SAPS   C21 1221   2.783   3.172   6.093 -0.3582 -0.4397 -1.6571
   10SAPS   O22 1222   2.699   3.142   6.177  0.1361 -0.2451  0.3354
   10SAPS   C22 1223   2.777   3.212   5.941 -0.7854 -0.3730  0.6668
   10SAPS   H2R 1224   2.820   3.313   5.924 -2.1360  0.0652 -0.4050
   10SAPS   H2S 1225   2.833   3.144   5.873 -0.1796  1.4834 -0.7601
   10SAPS    C3 1226   3.054   3.253   6.325 -0.7468  0.2952  0.1856
   10SAPS    HX 1227   3.148   3.225   6.273  1.0484  2.1746  2.1610
   10SAPS    HY 1228   3.079   3.231   6.431  2.2911 -2.8789 -0.9787
   10SAPS   O31 1229   3.042   3.395   6.295  0.6564 -0.4605  0.2626
   10SAPS   C31 1230   2.940   3.449   6.355 -0.8502  0.2149  0.1429
   10SAPS   O32 1231   2.857   3.395   6.428 -0.1516  0.6841  0.7809
   10SAPS   C32 1232   2.950   3.600   6.329 -0.4628 -0.4962  0.2730
   10SAPS   H2X 1233   3.041   3.632   6.274  0.1240 -1.9622  0.3392
   10SAPS   H2Y 1234   2.960   3.649   6.428 -0.0688  1.5268 -0.7266
   10SAPS   C23 1235   2.623   3.207   5.888 -0.2772  0.8215  0.0184
   10SAPS   H3R 1236   2.567   3.277   5.953 -0.2081 -0.7990  1.9350
   10SAPS   H3S 1237   2.579   3.106   5.895  0.8276  0.1692 -1.7483
   10SAPS   C24 1238   2.619   3.259   5.742 -0.4880  0.3180  0.1440
   10SAPS   H4R 1239   2.688   3.344   5.727 -0.3334  0.4985  1.7173
   10SAPS   H4S 1240   2.517   3.301   5.726  0.2119  2.5099  1.1944
   10SAPS   C25 1241   2.651   3.148   5.641  0.4799 -0.2484  0.0060
   10SAPS   H5R 1242   2.717   3.066   5.674  2.1771  0.2986 -1.8513
   10SAPS   C26 1243   2.632   3.156   5.507 -0.0533  0.1522 -0.8644
   10SAPS   H6R 1244   2.667   3.067   5.452 -0.8330 -0.5571 -0.2445
   10SAPS   C27 1245   2.564   3.263   5.426  0.0696 -0.0117  0.3063
   10SAPS   H7R 1246   2.473   3.316   5.461  0.5338  1.3613 -0.4860
   10SAPS   H7S 1247   2.541   3.223   5.325  1.4535  1.2725 -0.5826
   10SAPS   C28 1248   2.654   3.381   5.404  0.0553  0.1006  0.4130
   10SAPS   H8R 1249   2.638   3.458   5.481  1.8358  1.3996 -0.4295
   10SAPS   C29 1250   2.749   3.407   5.305 -0.1554 -0.5893 -0.4404
   10SAPS   H9R 1251   2.809   3.498   5.322 -1.3607 -0.0316  1.0701
   10SAPS  C210 1252   2.777   3.326   5.183 -0.4827  0.3580  0.1469
   10SAPS  H10R 1253   2.741   3.222   5.201 -0.5943  0.3469 -0.1417
   10SAPS  H10S 1254   2.883   3.319   5.153 -0.6442 -1.6347 -0.0757
   10SAPS  C211 1255   2.716   3.379   5.058 -0.2606 -0.4168  0.4207
   10SAPS  H11R 1256   2.660   3.297   5.012 -0.8799 -0.5967  1.4610
   10SAPS  C212 1257   2.746   3.489   4.985  0.5645 -0.6709  0.1161
   10SAPS  H12R 1258   2.703   3.505   4.885  1.2136 -0.5093 -0.1415
   10SAPS  C213 1259   2.824   3.612   5.018 -0.1182 -0.6097 -0.1014
   10SAPS  H13R 1260   2.897   3.638   4.939 -2.6805  1.1892 -2.0328
   10SAPS  H13S 1261   2.869   3.610   5.120 -2.4588  0.3920  1.0297
   10SAPS  C214 1262   2.723   3.725   5.031  0.3387  0.1168  0.6633
   10SAPS  H14R 1263   2.645   3.710   5.108  1.8565 -1.3025  1.9985
   10SAPS  C215 1264   2.704   3.828   4.940  0.0002 -0.0568  0.1219
   10SAPS  H15R 1265   2.627   3.900   4.971 -0.1351 -0.1873  0.0851
   10SAPS  C216 1266   2.783   3.862   4.814 -0.2896  0.5517 -0.1715
   10SAPS  H16R 1267   2.874   3.799   4.804  1.0068  2.2875  0.0272
   10SAPS  H16S 1268   2.833   3.958   4.842 -0.4259  0.9463 -1.2371
   10SAPS  C217 1269   2.712   3.853   4.688  0.1168 -0.5905 -0.5080
   10SAPS  H17R 1270   2.619   3.913   4.700 -0.8173 -2.1563  0.3334
   10SAPS  H17S 1271   2.683   3.750   4.659  1.8292 -0.9828 -0.9676
   10SAPS  C218 1272   2.782   3.921   4.570 -0.3279  0.1981  0.4101
   10SAPS  H18R 1273   2.876   3.867   4.548 -0.8062  0.0571 -1.4779
   10SAPS  H18S 1274   2.802   4.028   4.592  0.6417  0.0520  0.2647
   10SAPS  C219 1275   2.695   3.919   4.444  0.0831  0.0125  0.1057
   10SAPS  H19R 1276   2.588   3.948   4.449 -1.1172 -3.8746 -0.1336
   10SAPS  H19S 1277   2.686   3.815   4.408 -0.6017 -0.0086  0.3192
   10SAPS  C220 1278   2.760   3.999   4.336 -0.1124 -0.4978 -0.2680
   10SAPS  H20R 1279   2.758   4.106   4.365  1.2950 -0.3245 -0.7494
   10SAPS  H20S 1280   2.698   3.985   4.245 -0.1327 -1.7700 -0.0821
   10SAPS  H20T 1281   2.865   3.974   4.311 -0.4220  1.3330 -4.1463
   10SAPS   C33 1282   2.824   3.650   6.268 -0.1231  0.2867  0.0488
   10SAPS   H3X 1283   2.831   3.758   6.244  1.2246  0.1149 -0.4283
   10SAPS   H3Y 1284   2.734   3.649   6.334  1.4207  0.0567  2.2457
   10SAPS   C34 1285   2.797   3.583   6.134 -0.9114  0.1060 -0.2411
   10SAPS   H4X 1286   2.705   3.634   6.100 -1.6097  0.1390  1.5893
   10SAPS   H4Y 1287   2.767   3.477   6.148 -1.1284  0.1782 -0.1603
   10SAPS   C35 1288   2.890   3.602   6.016 -0.0676 -0.0755 -0.2697
   10SAPS   H5X 1289   2.929   3.499   5.999  3.4098  0.9120  1.0048
   10SAPS   H5Y 1290   2.978   3.663   6.043 -0.1767 -0.2806  0.5633
   10SAPS   C36 1291   2.815   3.635   5.888 -0.0874 -0.1267  0.4855
   10SAPS   H6X 1292   2.773   3.737   5.900  1.1379  0.4929 -0.2615
   10SAPS   H6Y 1293   2.739   3.557   5.868 -0.3924  0.6333 -1.6081
   10SAPS   C37 1294   2.913   3.631   5.768  0.3428  0.4685 -0.1783
   10SAPS   H7X 1295   2.941   3.527   5.742 -0.2328  0.4467 -0.7418
   10SAPS   H7Y 1296   3.013   3.672   5.792  1.2330 -1.1274 -0.9583
   10SAPS   C38 1297   2.867   3.712   5.653 -0.5786 -0.5475  0.5563
   10SAPS   H8X 1298   2.841   3.816   5.684  1.1103 -0.2065  0.9164
   10SAPS   H8Y 1299   2.779   3.659   5.611 -0.9909  1.5824 -1.4802
   10SAPS   C39 1300   2.976   3.729   5.542 -0.6781 -0.0131 -0.0839
   10SAPS   H9X 1301   3.015   3.633   5.504  1.6055  1.1072 -0.7868
   10SAPS   H9Y 1302   3.074   3.769   5.577  0.8081 -0.1139 -3.7129
   10SAPS  C310 1303   2.918   3.809   5.424  0.6144 -0.2890 -0.8770
   10SAPS  H10X 1304   2.881   3.906   5.464  0.0608 -1.6390  2.2206
   10SAPS  H10Y 1305   2.826   3.753   5.396  0.4140  1.2595 -3.6372
   10SAPS  C311 1306   3.019   3.822   5.316 -0.2835 -0.6009 -0.1337
   10SAPS  H11X 1307   3.010   3.719   5.273 -4.1267 -1.2309  1.7227
   10SAPS  H11Y 1308   3.123   3.833   5.352  0.3158 -0.9372 -1.6695
   10SAPS  C312 1309   2.985   3.924   5.216 -0.0661 -0.3256 -0.4123
   10SAPS  H12X 1310   2.961   4.024   5.258 -0.3021 -0.7715  0.5400
   10SAPS  H12Y 1311   2.897   3.893   5.155 -0.6493  0.8049 -0.1829
   10SAPS  C313 1312   3.095   3.954   5.115 -0.5357  0.4351  0.1504
   10SAPS  H13X 1313   3.182   3.977   5.181  1.2619 -2.8039 -0.9042
   10SAPS  H13Y 1314   3.064   4.047   5.062  1.4890  0.2887 -1.4147
   10SAPS  C314 1315   3.139   3.841   5.021 -0.4755 -0.2727 -0.4881
   10SAPS  H14X 1316   3.057   3.818   4.950  0.4956 -0.6436 -1.5087
   10SAPS  H14Y 1317   3.168   3.750   5.077  1.1874 -0.8099 -2.1168
   10SAPS  C315 1318   3.263   3.889   4.939 -0.5776 -0.0503 -0.1161
   10SAPS  H15X 1319   3.308   3.797   4.898 -1.3384 -1.7014  2.5242
   10SAPS  H15Y 1320   3.343   3.922   5.009 -1.6303  0.7260  0.7675
   10SAPS  C316 1321   3.238   3.999   4.835 -0.3046  0.4768 -0.4304
   10SAPS  H16X 1322   3.251   4.094   4.893  0.7988  0.0188  0.1108
   10SAPS  H16Y 1323   3.135   4.006   4.795 -0.2952 -2.2762 -1.0867
   10SAPS  C317 1324   3.327   3.989   4.710 -0.8776 -0.1239  0.2219
   10SAPS  H17X 1325   3.304   4.084   4.658 -0.1182  0.2549  0.5653
   10SAPS  H17Y 1326   3.285   3.902   4.654 -1.7388  0.2382  0.3048
   10SAPS  C318 1327   3.472   3.973   4.738  0.4155 -0.1362 -0.2148
   10SAPS  H18X 1328   3.518   4.058   4.792 -2.0351  2.6658 -2.2003
   10SAPS  H18Y 1329   3.524   3.979   4.639  0.4473  2.5504 -0.1112
   10SAPS  H18Z 1330   3.494   3.876   4.787 -0.5987  0.2051  0.9528
   11SAPS     N 1331   5.055   1.454   1.925  0.1132 -0.0615 -0.2115
   11SAPS   HN1 1332   5.147   1.448   1.877  1.5527 -1.8703  2.4598
   11SAPS   HN2 1333   4.978   1.442   1.857  0.0275 -2.0736  0.1571
   11SAPS   HN3 1334   5.055   1.545   1.975 -1.1505 -0.1186 -0.0888
   11SAPS   C12 1335   5.035   1.337   2.026 -0.2483 -0.6376  0.2489
   11SAPS  H12A 1336   4.931   1.326   2.051 -0.8042 -1.3475 -2.1162
   11SAPS   C13 1337   5.056   1.201   1.956  0.3127  0.7114 -0.6974
   11SAPS  O13A 1338   5.071   1.188   1.831  0.5949  0.0031  0.6998
   11SAPS  O13B 1339   5.050   1.098   2.029  0.4571  0.6134 -0.1895
   11SAPS   C11 1340   5.121   1.367   2.145  0.2162 -0.3584 -0.3032
   11SAPS  H11A 1341   5.117   1.285   2.220 -1.5733 -0.3607 -0.3645
   11SAPS  H11B 1342   5.068   1.453   2.192  1.5343  0.6701 -0.6309
   11SAPS     P 1343   5.373   1.438   2.185  0.1321 -0.3328  0.7106
   11SAPS   O13 1344   5.473   1.501   2.100 -0.1925  0.3379 -0.3674
   11SAPS   O14 1345   5.324   1.519   2.300  0.8340 -0.1166  0.3047
   11SAPS   O12 1346   5.251   1.406   2.094 -0.2780  0.0723  0.0653
   11SAPS   O11 1347   5.426   1.303   2.238 -0.2190 -0.5555 -0.2910
   11SAPS    C1 1348   5.394   1.255   2.368  0.1001  0.3111 -0.2922
   11SAPS    HA 1349   5.287   1.276   2.391  0.7067  1.8350  1.3136
   11SAPS    HB 1350   5.408   1.144   2.366 -2.0000 -0.1348  2.5419
   11SAPS    C2 1351   5.492   1.305   2.483  0.5978  0.1531 -0.1229
   11SAPS    HS 1352   5.457   1.258   2.577  0.3648  2.4953  1.0319
   11SAPS   O21 1353   5.500   1.449   2.498 -0.0684 -0.1003 -0.3842
   11SAPS   C21 1354   5.402   1.493   2.576  0.2758  0.6362 -0.3749
   11SAPS   O22 1355   5.320   1.423   2.633  0.1164 -0.7850  0.4355
   11SAPS   C22 1356   5.436   1.646   2.599  0.6470 -0.1250  0.0963
   11SAPS   H2R 1357   5.545   1.665   2.591  0.1775  2.6352 -0.5474
   11SAPS   H2S 1358   5.394   1.694   2.508 -0.3184 -0.6774  0.2291
   11SAPS    C3 1359   5.636   1.261   2.442  0.5008  0.0566 -0.4088
   11SAPS    HX 1360   5.658   1.285   2.336  0.5010 -1.0634 -0.6700
   11SAPS    HY 1361   5.631   1.150   2.444  1.5134 -0.0365 -1.9182
   11SAPS   O31 1362   5.735   1.321   2.528  0.1075  0.3202 -0.2867
   11SAPS   C31 1363   5.731   1.291   2.647 -0.1337  0.8220 -0.2904
   11SAPS   O32 1364   5.646   1.220   2.700  0.5392 -0.0709 -0.3424
   11SAPS   C32 1365   5.826   1.392   2.731 -0.1480  0.1666  0.1751
   11SAPS   H2X 1366   5.909   1.421   2.663  0.0888  3.8875  1.8325
   11SAPS   H2Y 1367   5.878   1.329   2.806  1.0964  2.0927  1.0206
   11SAPS   C23 1368   5.351   1.709   2.716 -0.8559 -0.7696 -0.0014
   11SAPS   H3R 1369   5.241   1.698   2.701 -0.9086  1.6600 -1.7815
   11SAPS   H3S 1370   5.361   1.819   2.708  2.1618 -0.9496  0.3113
   11SAPS   C24 1371   5.406   1.646   2.851  0.0953  0.0076  0.0868
   11SAPS   H4R 1372   5.516   1.649   2.844  0.0947  0.9599  0.2959
   11SAPS   H4S 1373   5.364   1.543   2.857  1.4943 -0.5490  0.6879
   11SAPS   C25 1374   5.366   1.743   2.962  0.2642 -0.1350 -0.2205
   11SAPS   H5R 1375   5.382   1.851   2.945 -0.2033  0.5202  2.9181
   11SAPS   C26 1376   5.302   1.710   3.078  0.2239 -0.1528 -0.2796
   11SAPS   H6R 1377   5.282   1.796   3.143  1.0873 -0.6058  0.6107
   11SAPS   C27 1378   5.264   1.571   3.129  0.0354  0.1816 -0.0702
   11SAPS   H7R 1379   5.233   1.503   3.046 -0.1315 -0.6634  0.6729
   11SAPS   H7S 1380   5.181   1.582   3.201  1.2720 -1.4460  1.6870
   11SAPS   C28 1381   5.373   1.491   3.196  0.3053  0.0992 -0.0007
   11SAPS   H8R 1382   5.420   1.407   3.143  1.9970  0.0959  1.4216
   11SAPS   C29 1383   5.384   1.493   3.331 -0.1175 -0.3067  0.5169
   11SAPS   H9R 1384   5.454   1.427   3.384 -1.2346 -2.9114 -1.0506
   11SAPS  C210 1385   5.323   1.594   3.427 -0.0635 -0.4714 -0.2306
   11SAPS  H10R 1386   5.318   1.539   3.523 -0.6699  1.4229  0.8807
   11SAPS  H10S 1387   5.217   1.605   3.398 -0.3858  0.0444  1.0703
   11SAPS  C211 1388   5.396   1.726   3.428  0.2488 -0.1574 -0.6555
   11SAPS  H11R 1389   5.479   1.735   3.356  0.1009 -0.8873 -0.9235
   11SAPS  C212 1390   5.367   1.833   3.511  0.4298  0.0695  0.1230
   11SAPS  H12R 1391   5.431   1.923   3.516 -0.5842  0.9242 -1.5000
   11SAPS  C213 1392   5.261   1.839   3.628 -1.2740  0.3524 -0.1576
   11SAPS  H13R 1393   5.230   1.735   3.650  0.0336 -0.1870 -0.7215
   11SAPS  H13S 1394   5.176   1.901   3.593 -1.9475 -0.1954  0.4788
   11SAPS  C214 1395   5.325   1.873   3.762 -0.3174  0.4672  0.1654
   11SAPS  H14R 1396   5.377   1.785   3.802 -0.2955  0.0189 -0.8199
   11SAPS  C215 1397   5.308   1.989   3.824 -0.3154 -0.8386  1.0875
   11SAPS  H15R 1398   5.351   2.002   3.924  1.3670 -0.2086  0.3157
   11SAPS  C216 1399   5.223   2.111   3.780 -0.1523  0.4282 -0.1650
   11SAPS  H16R 1400   5.180   2.092   3.680  1.0239 -3.7222 -0.0510
   11SAPS  H16S 1401   5.266   2.213   3.790 -1.6376  0.8598  3.1666
   11SAPS  C217 1402   5.103   2.129   3.878 -0.5647 -0.0321 -0.0054
   11SAPS  H17R 1403   5.032   2.199   3.829 -1.0518  0.5486  1.4774
   11SAPS  H17S 1404   5.137   2.174   3.974 -1.7572  0.5051  0.1790
   11SAPS  C218 1405   5.017   2.007   3.916 -0.2874  0.5838 -0.2069
   11SAPS  H18R 1406   5.064   1.937   3.988 -0.9824  1.6372  1.3267
   11SAPS  H18S 1407   4.977   1.955   3.826  2.0333  3.0054 -2.8179
   11SAPS  C219 1408   4.900   2.055   4.003  0.2290 -0.8511 -0.1715
   11SAPS  H19R 1409   4.806   1.999   3.983  0.4077 -1.5162  0.7738
   11SAPS  H19S 1410   4.873   2.157   3.968  0.1805 -1.4023 -1.8299
   11SAPS  C220 1411   4.921   2.052   4.151 -0.0981 -0.5648 -0.2553
   11SAPS  H20R 1412   5.021   2.090   4.181 -0.4557 -1.2469  1.9795
   11SAPS  H20S 1413   4.916   1.948   4.191 -0.5251  0.1011  1.5384
   11SAPS  H20T 1414   4.841   2.110   4.202 -0.4623  0.4912 -1.9654
   11SAPS   C33 1415   5.752   1.512   2.790 -0.1217  0.1103 -0.1032
   11SAPS   H3X 1416   5.658   1.469   2.832 -2.4039  2.3787 -2.4564
   11SAPS   H3Y 1417   5.720   1.581   2.708  0.9431  0.3687 -0.3187
   11SAPS   C34 1418   5.814   1.595   2.906  0.4859  0.4416  0.6738
   11SAPS   H4X 1419   5.736   1.662   2.947  0.9539  2.0742 -0.9786
   11SAPS   H4Y 1420   5.894   1.659   2.863  0.4415  0.2670  0.3296
   11SAPS   C35 1421   5.876   1.516   3.027 -0.2548  0.4403  0.1532
   11SAPS   H5X 1422   5.987   1.506   3.024 -0.3878 -2.4609  1.8168
   11SAPS   H5Y 1423   5.836   1.413   3.033  2.6912 -0.6982  3.2491
   11SAPS   C36 1424   5.851   1.582   3.158  0.4366 -0.0791 -0.7068
   11SAPS   H6X 1425   5.871   1.510   3.241 -1.2241  0.4839  0.2365
   11SAPS   H6Y 1426   5.746   1.617   3.171  0.2704 -0.5379 -0.7985
   11SAPS   C37 1427   5.924   1.705   3.199  0.1259 -0.3102 -0.3265
   11SAPS   H7X 1428   5.886   1.791   3.138 -0.5021 -0.6977 -0.4944
   11SAPS   H7Y 1429   6.033   1.705   3.181  0.0315  2.4838 -1.5311
   11SAPS   C38 1430   5.911   1.748   3.348  1.2029  0.0107  0.2086
   11SAPS   H8X 1431   5.955   1.850   3.354  2.2536 -0.4847  1.2488
   11SAPS   H8Y 1432   5.973   1.681   3.411  2.2299 -0.6870 -1.4891
   11SAPS   C39 1433   5.765   1.752   3.404  0.3843  0.4814  0.2223
   11SAPS   H9X 1434   5.730   1.647   3.414 -0.9976  0.9443  0.4625
   11SAPS   H9Y 1435   5.714   1.808   3.323  2.6193  1.0741 -0.8491
   11SAPS  C310 1436   5.745   1.828   3.535  0.2927 -0.3215  0.8524
   11SAPS  H10X 1437   5.641   1.825   3.572 -0.5697  1.1612 -1.2709
   11SAPS  H10Y 1438   5.754   1.937   3.520 -0.9062 -0.2267  0.7609
   11SAPS  C311 1439   5.832   1.767   3.644  0.0073 -0.3637  0.6918
   11SAPS  H11X 1440   5.939   1.770   3.615 -0.5874  0.1558 -1.7097
   11SAPS  H11Y 1441   5.800   1.660   3.643  1.0003 -0.6717  0.0637
   11SAPS  C312 1442   5.811   1.829   3.780 -0.2508  0.6417  0.4506
   11SAPS  H12X 1443   5.714   1.791   3.816 -0.0747  0.9659  1.3077
   11SAPS  H12Y 1444   5.809   1.940   3.771  1.5921  0.8565  2.0096
   11SAPS  C313 1445   5.912   1.786   3.882 -0.2656 -0.4973 -0.2413
   11SAPS  H13X 1446   5.995   1.860   3.881 -0.2680 -0.4894  0.0443
   11SAPS  H13Y 1447   5.966   1.695   3.849  0.7850  0.1279 -0.2917
   11SAPS  C314 1448   5.852   1.802   4.022 -0.1206 -0.0918 -0.4675
   11SAPS  H14X 1449   5.745   1.830   4.015  0.4363  2.1339 -0.6736
   11SAPS  H14Y 1450   5.901   1.880   4.083 -1.9594  0.9830 -0.3066
   11SAPS  C315 1451   5.856   1.673   4.109 -0.8396  0.2202  0.0151
   11SAPS  H15X 1452   5.961   1.643   4.130 -1.5670 -1.9501  0.8079
   11SAPS  H15Y 1453   5.810   1.592   4.048 -1.3290 -1.0696  2.0262
   11SAPS  C316 1454   5.766   1.692   4.234 -0.1134 -0.1308 -0.0892
   11SAPS  H16X 1455   5.721   1.598   4.270  1.9087 -1.4952 -0.9524
   11SAPS  H16Y 1456   5.682   1.757   4.201 -0.8724 -1.2741 -0.4251
   11SAPS  C317 1457   5.853   1.734   4.356  0.1911  0.7229  0.3560
   11SAPS  H17X 1458   5.789   1.772   4.440  0.4483 -0.8776  1.3182
   11SAPS  H17Y 1459   5.919   1.811   4.312  2.2619 -1.3287 -0.2932
   11SAPS  C318 1460   5.941   1.623   4.416  0.8537 -0.0278 -0.2421
   11SAPS  H18X 1461   5.994   1.665   4.504 -0.2775  0.2594  0.3147
   11SAPS  H18Y 1462   6.018   1.593   4.341  1.3532  1.4526 -0.3601
   11SAPS  H18Z 1463   5.882   1.533   4.444  0.2865  0.3207 -0.3160
   12SAPS     N 1464   4.186   1.266   2.119 -0.8657  0.2926 -0.0935
   12SAPS   HN1 1465   4.089   1.240   2.093 -1.7823  0.9119  2.3511
   12SAPS   HN2 1466   4.255   1.199   2.079 -0.1624  0.9996 -0.0785
   12SAPS   HN3 1467   4.192   1.253   2.222  0.3819 -0.9748 -0.3010
   12SAPS   C12 1468   4.204   1.405   2.063  0.4304 -0.3091  0.4875
   12SAPS  H12A 1469   4.305   1.444   2.072 -0.3606  1.7740  1.0364
   12SAPS   C13 1470   4.169   1.414   1.916 -0.1592  0.1236 -0.3656
   12SAPS  O13A 1471   4.107   1.320   1.862 -0.9810  0.0407 -0.0930
   12SAPS  O13B 1472   4.193   1.524   1.856  0.2576  0.6317 -0.0854
   12SAPS   C11 1473   4.121   1.513   2.146 -0.0504 -0.0565  0.4891
   12SAPS  H11A 1474   4.016   1.479   2.139  0.0467 -0.2623 -0.0268
   12SAPS  H11B 1475   4.125   1.612   2.097 -1.6504  0.6121  1.6421
   12SAPS     P 1476   4.206   1.647   2.351  0.3849 -0.0443 -0.4295
   12SAPS   O13 1477   4.330   1.687   2.296 -0.2175 -0.1582  0.2420
   12SAPS   O14 1478   4.089   1.739   2.348 -0.2306  0.2570 -0.2542
   12SAPS   O12 1479   4.161   1.521   2.284 -0.1197  0.2351  0.0077
   12SAPS   O11 1480   4.229   1.597   2.496  0.2424  0.3070 -0.4668
   12SAPS    C1 1481   4.142   1.494   2.545 -0.0565  0.2120  0.8098
   12SAPS    HA 1482   4.032   1.508   2.535 -0.2635 -0.8477  1.4442
   12SAPS    HB 1483   4.161   1.403   2.483 -1.3355  0.1634  0.4494
   12SAPS    C2 1484   4.163   1.461   2.696 -0.5771  0.5917  0.6872
   12SAPS    HS 1485   4.086   1.388   2.728  0.6110 -0.8471  0.3500
   12SAPS   O21 1486   4.161   1.574   2.786 -0.6239  0.4465 -0.0515
   12SAPS   C21 1487   4.038   1.633   2.804 -0.0035  0.9774  0.4605
   12SAPS   O22 1488   3.933   1.584   2.764 -0.1649  0.4146 -0.4712
   12SAPS   C22 1489   4.048   1.772   2.863 -0.3407 -0.3311 -0.0528
   12SAPS   H2R 1490   3.979   1.803   2.945  0.2353  2.7529 -0.5844
   12SAPS   H2S 1491   4.144   1.773   2.920 -0.1400  0.9178 -0.3626
   12SAPS    C3 1492   4.302   1.386   2.712 -0.4501 -0.0104 -0.4134
   12SAPS    HX 1493   4.372   1.460   2.669 -0.8696 -0.7300 -2.4758
   12SAPS    HY 1494   4.294   1.298   2.644  1.7339  1.0615 -2.1852
   12SAPS   O31 1495   4.326   1.349   2.847 -0.3989  0.5999 -0.4457
   12SAPS   C31 1496   4.392   1.430   2.921 -0.7910  0.2408 -0.4220
   12SAPS   O32 1497   4.459   1.523   2.877  0.1740  0.1211 -0.1229
   12SAPS   C32 1498   4.380   1.387   3.072 -0.7159  0.1108  0.2383
   12SAPS   H2X 1499   4.450   1.301   3.088 -2.5060 -1.2347  1.2251
   12SAPS   H2Y 1500   4.277   1.347   3.078  0.2616 -2.4665  1.9994
   12SAPS   C23 1501   4.048   1.884   2.761 -0.4564  0.4610  0.4063
   12SAPS   H3R 1502   4.143   1.880   2.703  0.8786 -0.5882  2.5359
   12SAPS   H3S 1503   4.054   1.976   2.823  0.0329 -0.3538  1.5890
   12SAPS   C24 1504   3.930   1.882   2.663  0.8701  0.3244  0.1139
   12SAPS   H4R 1505   3.829   1.868   2.707 -0.4732  0.2897 -2.7588
   12SAPS   H4S 1506   3.931   1.796   2.594 -2.6647  1.5899 -1.7546
   12SAPS   C25 1507   3.931   2.008   2.574  0.4338  0.2459  1.0008
   12SAPS   H5R 1508   4.003   2.004   2.490  0.5387  1.5413  1.0147
   12SAPS   C26 1509   3.851   2.115   2.586  1.4286 -0.9350 -0.7463
   12SAPS   H6R 1510   3.850   2.193   2.509  2.2699  0.3350  0.4998
   12SAPS   C27 1511   3.748   2.129   2.696  0.7130  0.4564 -0.6411
   12SAPS   H7R 1512   3.778   2.091   2.796 -0.5871  0.3680 -0.2675
   12SAPS   H7S 1513   3.666   2.059   2.671  0.7025 -0.3278  1.4082
   12SAPS   C28 1514   3.681   2.262   2.709  0.2976  0.3895 -0.0455
   12SAPS   H8R 1515   3.630   2.283   2.614 -2.1685 -2.4203  0.4696
   12SAPS   C29 1516   3.663   2.338   2.818  0.3011  0.0042  0.0808
   12SAPS   H9R 1517   3.620   2.439   2.813  2.0449  0.7253 -1.1987
   12SAPS  C210 1518   3.704   2.295   2.955 -0.0751  0.4035  0.2620
   12SAPS  H10R 1519   3.671   2.191   2.972 -0.3399 -0.0776 -2.6802
   12SAPS  H10S 1520   3.639   2.355   3.021 -0.6577 -0.5722  0.5815
   12SAPS  C211 1521   3.849   2.322   2.996 -0.1529  0.3764 -0.1146
   12SAPS  H11R 1522   3.901   2.396   2.933 -0.0654  0.2181 -0.2280
   12SAPS  C212 1523   3.928   2.253   3.084  0.0364 -0.9978 -1.4816
   12SAPS  H12R 1524   4.026   2.296   3.106 -0.5538 -1.5929  3.3908
   12SAPS  C213 1525   3.906   2.126   3.162  0.8676  0.9060 -0.0712
   12SAPS  H13R 1526   3.864   2.052   3.090  0.7699  1.6123 -0.7456
   12SAPS  H13S 1527   3.833   2.144   3.244  1.7969  0.5451  0.8629
   12SAPS  C214 1528   4.024   2.056   3.219 -1.2308  0.9356 -0.0089
   12SAPS  H14R 1529   4.110   2.125   3.223 -1.4963  1.2904 -0.4605
   12SAPS  C215 1530   4.031   1.927   3.272 -0.3415  0.3540 -0.3252
   12SAPS  H15R 1531   4.131   1.909   3.314 -0.4321  1.9276  0.6729
   12SAPS  C216 1532   3.922   1.819   3.285  0.1984  0.7593 -0.1946
   12SAPS  H16R 1533   3.826   1.851   3.238 -1.2486  0.6467  2.4807
   12SAPS  H16S 1534   3.895   1.810   3.393  1.9816  1.3747  0.3291
   12SAPS  C217 1535   3.946   1.674   3.238  0.7422  0.3635 -0.4628
   12SAPS  H17R 1536   3.963   1.618   3.333  0.1094  0.5460 -0.2361
   12SAPS  H17S 1537   4.037   1.675   3.175  1.5183 -1.4102  0.5500
   12SAPS  C218 1538   3.828   1.607   3.168 -0.2893  0.2684  0.5550
   12SAPS  H18R 1539   3.811   1.635   3.062 -0.4854  0.0417  0.5258
   12SAPS  H18S 1540   3.742   1.640   3.230  1.1003  0.9111  2.2161
   12SAPS  C219 1541   3.838   1.449   3.172  0.8129 -0.8417 -0.0052
   12SAPS  H19R 1542   3.738   1.421   3.133 -0.7557 -1.0343  3.7184
   12SAPS  H19S 1543   3.836   1.418   3.279  0.0652  0.0401  0.2518
   12SAPS  C220 1544   3.950   1.390   3.086 -0.0267 -0.6225 -0.5407
   12SAPS  H20R 1545   3.995   1.467   3.019  1.4181 -2.3595 -1.6609
   12SAPS  H20S 1546   3.894   1.323   3.018  0.0517 -0.9631 -0.2700
   12SAPS  H20T 1547   4.030   1.344   3.147 -0.6977 -0.7509  0.2606
   12SAPS   C33 1548   4.407   1.501   3.171  0.0967 -0.1623  0.1392
   12SAPS   H3X 1549   4.379   1.602   3.135  0.3056  0.4868  1.6864
   12SAPS   H3Y 1550   4.517   1.497   3.182  0.3262 -1.9892 -2.1539
   12SAPS   C34 1551   4.335   1.477   3.308  0.6947  0.4428  0.5589
   12SAPS   H4X 1552   4.366   1.376   3.343  1.2764  0.8065  1.0961
   12SAPS   H4Y 1553   4.225   1.468   3.293  0.5658 -1.1571  2.1040
   12SAPS   C35 1554   4.385   1.562   3.421 -0.2489  0.6956  0.0591
   12SAPS   H5X 1555   4.363   1.668   3.395  2.7342  1.2309 -0.5691
   12SAPS   H5Y 1556   4.495   1.567   3.430 -0.2921 -0.3522  1.4348
   12SAPS   C36 1557   4.323   1.519   3.555 -0.9106  0.1998  0.5442
   12SAPS   H6X 1558   4.377   1.428   3.586 -2.2834 -0.4332  1.1777
   12SAPS   H6Y 1559   4.214   1.505   3.540 -0.7411 -0.7644  0.1352
   12SAPS   C37 1560   4.348   1.626   3.657 -0.3038 -0.5055 -0.8265
   12SAPS   H7X 1561   4.314   1.721   3.609  3.0876  1.1760 -0.1611
   12SAPS   H7Y 1562   4.457   1.625   3.673 -0.7015 -0.6744  2.4511
   12SAPS   C38 1563   4.283   1.593   3.789  0.8915  0.5631  0.1534
   12SAPS   H8X 1564   4.347   1.529   3.854 -0.9635  1.2491  2.8685
   12SAPS   H8Y 1565   4.191   1.531   3.780  0.9245  0.5682 -0.2267
   12SAPS   C39 1566   4.267   1.714   3.876  0.0943  0.4157 -0.0082
   12SAPS   H9X 1567   4.218   1.792   3.814 -3.7187 -0.5438  1.5722
   12SAPS   H9Y 1568   4.370   1.751   3.897  0.9412 -1.8203  0.0286
   12SAPS  C310 1569   4.194   1.697   4.009 -0.2039 -0.3649  0.3684
   12SAPS  H10X 1570   4.247   1.621   4.071 -0.1538 -1.2975 -0.7795
   12SAPS  H10Y 1571   4.087   1.669   3.997 -0.4262  0.2748  0.8583
   12SAPS  C311 1572   4.216   1.822   4.094 -0.4668  0.2280 -0.2817
   12SAPS  H11X 1573   4.171   1.904   4.035 -0.4227 -0.7019 -1.6738
   12SAPS  H11Y 1574   4.326   1.823   4.109 -0.2383 -1.6646 -1.4062
   12SAPS  C312 1575   4.142   1.806   4.227 -0.1112  0.5551 -0.2630
   12SAPS  H12X 1576   4.163   1.708   4.274 -1.3625  0.3015 -0.2034
   12SAPS  H12Y 1577   4.033   1.799   4.205 -0.1386 -1.3386  0.3196
   12SAPS  C313 1578   4.156   1.933   4.322  0.8107 -0.2303  0.1565
   12SAPS  H13X 1579   4.115   2.024   4.273 -1.3092 -2.7828 -3.2649
   12SAPS  H13Y 1580   4.262   1.950   4.351  0.8647 -0.7484  0.2824
   12SAPS  C314 1581   4.069   1.911   4.452 -0.8338 -0.2657 -0.2328
   12SAPS  H14X 1582   4.094   1.816   4.504  0.1234  0.2971  0.3448
   12SAPS  H14Y 1583   3.964   1.915   4.415 -0.5879 -1.1565 -1.0880
   12SAPS  C315 1584   4.084   2.035   4.552 -0.3272 -0.0183  0.0497
   12SAPS  H15X 1585   3.997   2.024   4.619 -0.7058 -0.5724 -0.5157
   12SAPS  H15Y 1586   4.075   2.127   4.490 -0.8307 -1.0973 -1.5608
   12SAPS  C316 1587   4.213   2.023   4.634  0.2582 -0.5675 -0.1480
   12SAPS  H16X 1588   4.293   2.070   4.574  0.9406 -0.5106  0.7783
   12SAPS  H16Y 1589   4.239   1.918   4.659  0.6436 -0.3217  0.5134
   12SAPS  C317 1590   4.208   2.108   4.762  0.0929  0.1164  0.8532
   12SAPS  H17X 1591   4.127   2.063   4.824 -2.6024  4.3138  0.7794
   12SAPS  H17Y 1592   4.172   2.210   4.738 -0.9999 -0.3347  0.4843
   12SAPS  C318 1593   4.341   2.113   4.836  0.4251 -0.0379 -0.0175
   12SAPS  H18X 1594   4.322   2.131   4.944 -2.2013 -1.0215 -0.2308
   12SAPS  H18Y 1595   4.413   2.180   4.785 -0.9867  0.4217 -1.4832
   12SAPS  H18Z 1596   4.384   2.011   4.840  4.3828  1.5093  1.1342
   13SAPS     N 1597   0.180   0.186   2.099  0.0722 -0.4284  0.1929
   13SAPS   HN1 1598   0.191   0.177   2.202  1.9980 -2.6861 -0.1292
   13SAPS   HN2 1599   0.202   0.093   2.058  1.0980  0.6763 -1.9510
   13SAPS   HN3 1600   0.251   0.255   2.066 -0.5916  0.7245  1.0951
   13SAPS   C12 1601   0.043   0.226   2.065  0.4073 -0.3412  0.4223
   13SAPS  H12A 1602   0.051   0.310   1.998  0.9464 -1.1088 -0.4990
   13SAPS   C13 1603  -0.030   0.113   1.990  1.0099  0.0958  0.4094
   13SAPS  O13A 1604   0.008  -0.004   2.002  0.0104 -0.4380  0.6641
   13SAPS  O13B 1605  -0.126   0.144   1.915  0.0837  0.4542 -0.0847
   13SAPS   C11 1606  -0.026   0.284   2.191  0.0412 -0.3285 -0.7267
   13SAPS  H11A 1607  -0.036   0.216   2.278  0.6931  1.1808  0.5777
   13SAPS  H11B 1608  -0.130   0.309   2.163  0.7425  1.4205 -1.9405
   13SAPS     P 1609  -0.014   0.516   2.315 -0.0816  0.2836 -0.1063
   13SAPS   O13 1610   0.096   0.613   2.348 -0.4549 -0.1385 -0.4510
   13SAPS   O14 1611  -0.139   0.564   2.249 -0.3683 -0.0239  0.4305
   13SAPS   O12 1612   0.049   0.400   2.227 -0.6814 -0.1750 -0.3428
   13SAPS   O11 1613  -0.048   0.432   2.435  0.5860  0.2215  0.1012
   13SAPS    C1 1614  -0.177   0.373   2.469  0.0157 -0.0065  0.1790
   13SAPS    HA 1615  -0.250   0.358   2.386  0.4793 -0.6735 -0.1221
   13SAPS    HB 1616  -0.157   0.271   2.508 -0.6772 -0.6236 -1.0403
   13SAPS    C2 1617  -0.264   0.438   2.587  0.1874  0.6629 -0.4379
   13SAPS    HS 1618  -0.311   0.530   2.545 -2.6893  0.6639  2.3483
   13SAPS   O21 1619  -0.187   0.479   2.705  0.0252 -0.3371 -0.2938
   13SAPS   C21 1620  -0.130   0.598   2.695 -0.5019 -0.1383 -0.0356
   13SAPS   O22 1621  -0.126   0.677   2.604  0.5860 -0.1661  0.0944
   13SAPS   C22 1622  -0.067   0.623   2.834 -1.0323  0.7062 -0.1519
   13SAPS   H2R 1623  -0.030   0.727   2.834 -2.2670  1.2151  2.2239
   13SAPS   H2S 1624  -0.143   0.617   2.915  0.8764 -0.1586  1.6664
   13SAPS    C3 1625  -0.390   0.363   2.619  0.4052 -0.4968  0.0355
   13SAPS    HX 1626  -0.433   0.326   2.523 -2.0006 -0.2980  0.9602
   13SAPS    HY 1627  -0.463   0.428   2.671  0.9996 -0.2047  0.5202
   13SAPS   O31 1628  -0.357   0.252   2.701  0.1357  0.3350  0.0066
   13SAPS   C31 1629  -0.381   0.254   2.833  0.4324  0.0461 -0.1808
   13SAPS   O32 1630  -0.430   0.345   2.894 -0.7617  0.2205 -0.2426
   13SAPS   C32 1631  -0.320   0.128   2.902  0.4721 -0.6293 -0.0776
   13SAPS   H2X 1632  -0.212   0.151   2.920 -0.6159  3.7319  2.4181
   13SAPS   H2Y 1633  -0.334   0.044   2.831  0.5248  0.5257 -1.4960
   13SAPS   C23 1634   0.047   0.520   2.861  0.1830 -0.3825 -0.2481
   13SAPS   H3R 1635   0.131   0.533   2.789  1.9358 -0.4688  1.6886
   13SAPS   H3S 1636   0.003   0.419   2.854  1.4549 -1.2834  2.9173
   13SAPS   C24 1637   0.106   0.532   3.004 -0.3044 -0.3056  0.0180
   13SAPS   H4R 1638   0.157   0.434   3.012 -0.7468 -0.4354  1.5106
   13SAPS   H4S 1639   0.023   0.508   3.074 -0.8793 -0.0179 -0.5531
   13SAPS   C25 1640   0.176   0.665   3.031 -0.1920 -0.2798 -0.1688
   13SAPS   H5R 1641   0.258   0.693   2.963 -0.9238  4.0447  0.4232
   13SAPS   C26 1642   0.137   0.760   3.118  0.4156  0.1232 -0.3365
   13SAPS   H6R 1643   0.197   0.852   3.132  0.6779 -0.4355  2.8273
   13SAPS   C27 1644   0.019   0.747   3.209 -0.1635 -0.7153  0.7352
   13SAPS   H7R 1645   0.015   0.814   3.297 -0.7657 -0.2355  0.3572
   13SAPS   H7S 1646   0.035   0.647   3.254 -1.9343 -1.2777  0.2077
   13SAPS   C28 1647  -0.117   0.763   3.133 -0.6032  0.2184 -0.7968
   13SAPS   H8R 1648  -0.123   0.824   3.041  1.7863 -0.2123 -1.3011
   13SAPS   C29 1649  -0.237   0.709   3.168  0.2743 -0.3389  0.4198
   13SAPS   H9R 1650  -0.324   0.722   3.101 -0.6948  2.3323  2.0493
   13SAPS  C210 1651  -0.257   0.618   3.285 -0.5387 -0.6393 -0.1710
   13SAPS  H10R 1652  -0.162   0.593   3.338  0.2266  3.3218  0.6452
   13SAPS  H10S 1653  -0.297   0.527   3.235 -1.6451 -0.0375 -0.4182
   13SAPS  C211 1654  -0.370   0.667   3.374 -0.2974 -0.2042  0.3569
   13SAPS  H11R 1655  -0.456   0.702   3.314  0.7602  1.2470 -0.3759
   13SAPS  C212 1656  -0.368   0.675   3.511  0.0137  0.5244  1.3196
   13SAPS  H12R 1657  -0.458   0.707   3.566 -0.6002  0.1836  0.5389
   13SAPS  C213 1658  -0.246   0.658   3.597  0.5217 -0.1212  0.3779
   13SAPS  H13R 1659  -0.234   0.548   3.607 -0.2745 -0.4230 -1.5984
   13SAPS  H13S 1660  -0.282   0.690   3.697  2.1025  0.1048  0.9009
   13SAPS  C214 1661  -0.118   0.731   3.573  0.2573 -0.3557  0.5211
   13SAPS  H14R 1662  -0.112   0.787   3.479  0.2423  0.5002  1.0134
   13SAPS  C215 1663  -0.025   0.745   3.673 -0.6926  0.0129  0.2691
   13SAPS  H15R 1664   0.061   0.810   3.651  0.6003 -1.7879 -0.2154
   13SAPS  C216 1665  -0.023   0.672   3.811 -0.6036 -0.6753  0.6187
   13SAPS  H16R 1666   0.049   0.587   3.804  0.0930  0.0062 -1.1129
   13SAPS  H16S 1667  -0.126   0.633   3.824 -2.0072  2.3932 -0.3813
   13SAPS  C217 1668   0.009   0.775   3.919 -0.8301 -0.5530  0.1816
   13SAPS  H17R 1669  -0.063   0.859   3.910 -0.7982 -0.6901 -1.8127
   13SAPS  H17S 1670   0.107   0.819   3.893 -1.7777  1.4138 -0.2988
   13SAPS  C218 1671   0.005   0.727   4.063 -0.2475 -0.3869 -0.1860
   13SAPS  H18R 1672   0.035   0.813   4.125  1.3565 -1.1854  0.1962
   13SAPS  H18S 1673   0.081   0.648   4.077 -1.5111 -1.3603  1.5496
   13SAPS  C219 1674  -0.136   0.689   4.111  0.0123 -0.7855  0.5412
   13SAPS  H19R 1675  -0.208   0.675   4.027 -0.0922 -1.5314  0.7484
   13SAPS  H19S 1676  -0.178   0.781   4.156 -1.7589  0.1673 -2.7539
   13SAPS  C220 1677  -0.130   0.572   4.202 -0.0695  0.3613 -0.0098
   13SAPS  H20R 1678  -0.049   0.579   4.278  0.0876  0.2117 -0.1628
   13SAPS  H20S 1679  -0.107   0.480   4.145  0.7531  0.9497 -0.6450
   13SAPS  H20T 1680  -0.230   0.559   4.249  0.7478 -0.8604  1.4784
   13SAPS   C33 1681  -0.388   0.082   3.032 -0.5022  0.1156  0.3872
   13SAPS   H3X 1682  -0.384  -0.029   3.040  1.2058  0.1510  0.5244
   13SAPS   H3Y 1683  -0.497   0.097   3.017 -0.7854 -2.1825 -0.2233
   13SAPS   C34 1684  -0.343   0.143   3.158 -0.3879 -0.3255 -0.0197
   13SAPS   H4X 1685  -0.372   0.251   3.162  3.3149  0.9453 -2.2544
   13SAPS   H4Y 1686  -0.233   0.159   3.150 -0.4084 -0.7330 -1.3141
   13SAPS   C35 1687  -0.401   0.072   3.283  0.0850  0.2517  0.2247
   13SAPS   H5X 1688  -0.350  -0.026   3.286 -1.4799 -0.7060 -1.8715
   13SAPS   H5Y 1689  -0.509   0.058   3.261 -0.0958  0.0047  1.2486
   13SAPS   C36 1690  -0.381   0.151   3.412  0.7216  0.3250  0.7681
   13SAPS   H6X 1691  -0.430   0.250   3.397  0.8024  0.3413  0.6033
   13SAPS   H6Y 1692  -0.271   0.169   3.421  1.3310 -2.3679 -0.2145
   13SAPS   C37 1693  -0.433   0.081   3.531  0.2187 -0.1268 -1.1393
   13SAPS   H7X 1694  -0.395  -0.022   3.549 -1.5408 -0.2211  3.7959
   13SAPS   H7Y 1695  -0.543   0.067   3.521  0.3358 -1.1638 -1.0983
   13SAPS   C38 1696  -0.393   0.152   3.661  0.2380 -0.0821 -0.5887
   13SAPS   H8X 1697  -0.282   0.143   3.662  0.2177 -0.6698 -1.7733
   13SAPS   H8Y 1698  -0.447   0.103   3.745 -2.1158  2.6542 -0.3678
   13SAPS   C39 1699  -0.434   0.301   3.679  0.3669  0.6234  0.7855
   13SAPS   H9X 1700  -0.529   0.326   3.626  0.8792  1.1720  0.1150
   13SAPS   H9Y 1701  -0.358   0.365   3.631  1.6583  1.1132  3.3102
   13SAPS  C310 1702  -0.460   0.342   3.824 -0.0519 -0.0838  0.8988
   13SAPS  H10X 1703  -0.358   0.345   3.867  0.7889 -0.5062 -0.9332
   13SAPS  H10Y 1704  -0.514   0.272   3.890  1.5411 -0.2620  2.0689
   13SAPS  C311 1705  -0.509   0.481   3.838 -0.2629 -0.2059  0.3278
   13SAPS  H11X 1706  -0.617   0.491   3.812 -0.2679 -1.8922 -0.4607
   13SAPS  H11Y 1707  -0.452   0.547   3.769  0.2875  0.1817  1.1409
   13SAPS  C312 1708  -0.489   0.540   3.973  0.6000 -0.5593  0.6004
   13SAPS  H12X 1709  -0.382   0.537   4.001  0.4787 -0.6930  1.0504
   13SAPS  H12Y 1710  -0.540   0.481   4.052 -0.6057  0.4573  0.6168
   13SAPS  C313 1711  -0.545   0.683   3.989 -0.2024  0.0064  0.2751
   13SAPS  H13X 1712  -0.646   0.681   3.943  0.2884  1.4456 -0.9252
   13SAPS  H13Y 1713  -0.473   0.747   3.933  1.3194 -0.0957  2.0024
   13SAPS  C314 1714  -0.557   0.715   4.139  0.1377  0.3011  0.3954
   13SAPS  H14X 1715  -0.453   0.709   4.178 -1.0378 -1.4406  3.6474
   13SAPS  H14Y 1716  -0.625   0.650   4.199  0.6584 -0.0504  0.6142
   13SAPS  C315 1717  -0.606   0.857   4.168  0.0378  0.4612 -0.7603
   13SAPS  H15X 1718  -0.697   0.878   4.109  0.9232 -0.2202 -2.4412
   13SAPS  H15Y 1719  -0.528   0.916   4.115  1.2600 -0.3914  0.0245
   13SAPS  C316 1720  -0.601   0.882   4.318 -0.3236  0.3628  0.0003
   13SAPS  H16X 1721  -0.655   0.797   4.365 -0.5466 -0.1488 -1.1686
   13SAPS  H16Y 1722  -0.653   0.974   4.353  1.5735  1.2793  0.5443
   13SAPS  C317 1723  -0.456   0.885   4.372 -0.3453  0.4561 -0.2813
   13SAPS  H17X 1724  -0.381   0.927   4.302 -1.2043  1.4839 -0.6182
   13SAPS  H17Y 1725  -0.413   0.784   4.387 -0.3718  0.5972  0.7820
   13SAPS  C318 1726  -0.446   0.956   4.506 -0.2909 -0.5076  0.5992
   13SAPS  H18X 1727  -0.475   1.063   4.497  0.1087 -0.5201 -1.2168
   13SAPS  H18Y 1728  -0.338   0.954   4.532  0.0754  0.8870 -0.6669
   13SAPS  H18Z 1729  -0.502   0.908   4.589 -0.1936  0.4813  1.2496
   14SAPS     N 1730   5.324   1.789   2.230  0.2442  0.4022  0.0408
   14SAPS   HN1 1731   5.240   1.798   2.291  1.4740 -0.6052  1.9736
   14SAPS   HN2 1732   5.359   1.692   2.239  1.7946  0.8089 -1.1452
   14SAPS   HN3 1733   5.405   1.846   2.260  1.4082 -0.5755 -1.1173
   14SAPS   C12 1734   5.291   1.827   2.087  0.1365 -1.0409 -0.3931
   14SAPS  H12A 1735   5.377   1.793   2.032  1.1702  1.9743 -0.8438
   14SAPS   C13 1736   5.169   1.771   2.015  0.1460  0.1492  0.3153
   14SAPS  O13A 1737   5.098   1.690   2.071  0.3786 -0.0368 -0.6473
   14SAPS  O13B 1738   5.135   1.806   1.893  0.1713  0.9520 -0.1806
   14SAPS   C11 1739   5.277   1.987   2.076  0.2373  0.7385  0.4485
   14SAPS  H11A 1740   5.181   2.025   2.116 -0.7484  1.5293 -2.4493
   14SAPS  H11B 1741   5.274   2.007   1.967  1.2189 -1.5622 -0.0600
   14SAPS     P 1742   5.399   2.204   2.155  0.2776  0.4608  0.2305
   14SAPS   O13 1743   5.529   2.249   2.210  0.3263  0.0626  0.2763
   14SAPS   O14 1744   5.362   2.261   2.019 -0.6265  0.3693  0.5222
   14SAPS   O12 1745   5.391   2.043   2.146 -0.4529  0.4002  0.6704
   14SAPS   O11 1746   5.280   2.233   2.250 -0.1221  0.0604  0.1850
   14SAPS    C1 1747   5.244   2.159   2.367 -0.4361  0.5428 -0.0111
   14SAPS    HA 1748   5.139   2.124   2.359 -0.7967  0.8659  2.5923
   14SAPS    HB 1749   5.307   2.068   2.381  0.9408  1.4302 -0.2882
   14SAPS    C2 1750   5.269   2.241   2.496  0.8438 -0.2637 -0.0780
   14SAPS    HS 1751   5.187   2.315   2.487 -0.3955 -1.1556  2.6065
   14SAPS   O21 1752   5.395   2.299   2.508  0.5242  0.4427 -0.6989
   14SAPS   C21 1753   5.419   2.413   2.463 -0.9655 -0.4579 -0.4546
   14SAPS   O22 1754   5.337   2.487   2.407 -0.4420  0.3403 -0.1449
   14SAPS   C22 1755   5.552   2.456   2.519  0.3366 -0.3007  0.2291
   14SAPS   H2R 1756   5.589   2.368   2.576 -1.2816 -1.5104 -0.4993
   14SAPS   H2S 1757   5.623   2.485   2.438 -0.3219  0.3315 -0.1326
   14SAPS    C3 1758   5.226   2.166   2.629  0.8405  0.4598  0.4192
   14SAPS    HX 1759   5.289   2.076   2.648 -0.8799 -0.9842 -0.4254
   14SAPS    HY 1760   5.125   2.129   2.601  0.9750  0.8344 -0.5709
   14SAPS   O31 1761   5.227   2.259   2.735  0.7943  0.1543  0.3659
   14SAPS   C31 1762   5.244   2.211   2.858 -0.7760  0.3387  0.4319
   14SAPS   O32 1763   5.259   2.092   2.891  0.1820 -0.6230  0.0113
   14SAPS   C32 1764   5.245   2.332   2.961  0.3606  0.6194 -0.1944
   14SAPS   H2X 1765   5.157   2.399   2.944  0.8391  1.3865  0.3153
   14SAPS   H2Y 1766   5.339   2.391   2.959 -0.2404  1.6088  0.2477
   14SAPS   C23 1767   5.533   2.575   2.617  0.0327  0.6218 -0.8335
   14SAPS   H3R 1768   5.466   2.652   2.575 -0.3197  1.9774  1.9738
   14SAPS   H3S 1769   5.635   2.611   2.640 -0.4684  1.0212  0.9631
   14SAPS   C24 1770   5.483   2.525   2.766  0.1577  0.0983 -0.1497
   14SAPS   H4R 1771   5.560   2.464   2.817 -0.3523 -0.9308 -0.5864
   14SAPS   H4S 1772   5.390   2.466   2.756  0.4920 -0.2803 -1.1298
   14SAPS   C25 1773   5.458   2.647   2.862  0.3331  0.4698 -0.8349
   14SAPS   H5R 1774   5.418   2.734   2.807  1.9961 -0.7380 -4.2942
   14SAPS   C26 1775   5.511   2.664   2.984 -0.3330 -0.4637  0.1632
   14SAPS   H6R 1776   5.492   2.755   3.043 -0.6622 -0.3692 -0.0885
   14SAPS   C27 1777   5.593   2.570   3.064  0.2431  0.1313 -0.5550
   14SAPS   H7R 1778   5.605   2.468   3.022  0.3308 -0.0789 -0.0304
   14SAPS   H7S 1779   5.547   2.558   3.165  0.9425  2.8054  0.1699
   14SAPS   C28 1780   5.735   2.607   3.082 -0.2393  0.4581  0.2215
   14SAPS   H8R 1781   5.779   2.615   2.982 -1.9851 -0.1029 -0.6376
   14SAPS   C29 1782   5.814   2.647   3.189  0.0165  0.7261  0.7174
   14SAPS   H9R 1783   5.918   2.669   3.161  0.0354  0.5259  0.6297
   14SAPS  C210 1784   5.782   2.650   3.334 -0.1564 -0.4181  0.4374
   14SAPS  H10R 1785   5.674   2.622   3.340 -0.1003 -0.8547 -0.5048
   14SAPS  H10S 1786   5.771   2.755   3.370 -0.3979 -0.8587  1.7255
   14SAPS  C211 1787   5.864   2.558   3.427  0.1484  0.4250 -0.1229
   14SAPS  H11R 1788   5.946   2.514   3.367 -0.8300 -0.4368 -0.8533
   14SAPS  C212 1789   5.846   2.529   3.563  0.5993 -0.4996  0.2913
   14SAPS  H12R 1790   5.928   2.475   3.612  0.9928  0.1336  0.3538
   14SAPS  C213 1791   5.739   2.603   3.658 -0.2489 -0.1691  0.5443
   14SAPS  H13R 1792   5.723   2.522   3.733 -0.9992 -0.3049  0.2415
   14SAPS  H13S 1793   5.642   2.618   3.607 -0.3265  1.0465  1.0228
   14SAPS  C214 1794   5.781   2.736   3.711  0.2353  0.3763 -0.4020
   14SAPS  H14R 1795   5.863   2.787   3.659  0.2971  0.6506 -0.0390
   14SAPS  C215 1796   5.710   2.815   3.799  0.4407 -0.5993  0.0986
   14SAPS  H15R 1797   5.738   2.919   3.820 -2.9765  0.2447  1.0442
   14SAPS  C216 1798   5.595   2.759   3.871  0.7475 -0.2232 -0.3231
   14SAPS  H16R 1799   5.614   2.653   3.898  2.4619  0.0728 -0.3039
   14SAPS  H16S 1800   5.507   2.768   3.803  0.6512  0.5579 -0.1060
   14SAPS  C217 1801   5.543   2.851   3.986 -0.0106 -0.6381 -0.3987
   14SAPS  H17R 1802   5.560   2.953   3.946  1.9756 -0.3877  0.9603
   14SAPS  H17S 1803   5.617   2.852   4.069  0.6559  1.4151 -0.9667
   14SAPS  C218 1804   5.395   2.830   4.024  0.0656 -0.1450  0.1827
   14SAPS  H18R 1805   5.340   2.880   3.941  1.7170  0.8897 -0.3335
   14SAPS  H18S 1806   5.366   2.877   4.120 -2.5692 -0.0498 -0.5924
   14SAPS  C219 1807   5.363   2.683   4.053  0.3133  0.1066 -0.3501
   14SAPS  H19R 1808   5.398   2.624   3.966 -1.2830 -0.1366 -0.8534
   14SAPS  H19S 1809   5.258   2.656   4.074  0.8189  0.0676  2.4724
   14SAPS  C220 1810   5.427   2.635   4.178  0.1507  0.4601 -0.2663
   14SAPS  H20R 1811   5.403   2.529   4.201 -0.3209  0.8289  1.0359
   14SAPS  H20S 1812   5.384   2.699   4.258 -3.3167 -1.9196 -0.0016
   14SAPS  H20T 1813   5.538   2.643   4.166  0.0709 -0.5175 -2.0056
   14SAPS   C33 1814   5.216   2.269   3.100  0.2304 -0.0311  0.2373
   14SAPS   H3X 1815   5.290   2.191   3.129  0.5741  0.4851  0.7836
   14SAPS   H3Y 1816   5.112   2.231   3.098 -0.4284  1.7331 -0.4467
   14SAPS   C34 1817   5.224   2.378   3.205  0.2246  0.5484  0.7163
   14SAPS   H4X 1818   5.160   2.466   3.182  1.1268  1.3408  1.1106
   14SAPS   H4Y 1819   5.325   2.425   3.211  1.2182 -1.2593 -0.6783
   14SAPS   C35 1820   5.191   2.335   3.343  0.4410  0.6101  0.0879
   14SAPS   H5X 1821   5.278   2.276   3.378  0.8585  0.6935 -0.7817
   14SAPS   H5Y 1822   5.098   2.274   3.335 -0.0582  1.3547  0.1287
   14SAPS   C36 1823   5.163   2.447   3.445  0.0434  0.1109 -0.0715
   14SAPS   H6X 1824   5.084   2.515   3.406 -0.5578 -1.3484 -1.5567
   14SAPS   H6Y 1825   5.259   2.501   3.454 -1.2985  2.9217 -1.5177
   14SAPS   C37 1826   5.114   2.413   3.583 -0.2114  0.0438  0.1221
   14SAPS   H7X 1827   5.184   2.343   3.635 -1.2867 -0.2323  1.2424
   14SAPS   H7Y 1828   5.020   2.356   3.571  0.6683 -1.5569  0.4630
   14SAPS   C38 1829   5.086   2.525   3.672 -0.7881 -0.0049 -1.2074
   14SAPS   H8X 1830   5.000   2.582   3.630 -0.5844  3.3998  2.4714
   14SAPS   H8Y 1831   5.175   2.590   3.683 -0.3020 -0.9268  0.6659
   14SAPS   C39 1832   5.046   2.500   3.814 -0.3113 -0.3326  0.1165
   14SAPS   H9X 1833   5.063   2.594   3.870  1.0782 -0.5852  0.1445
   14SAPS   H9Y 1834   5.122   2.430   3.856 -0.3501 -0.2126  0.3880
   14SAPS  C310 1835   4.897   2.469   3.835  0.2487  0.1248  0.1529
   14SAPS  H10X 1836   4.874   2.375   3.780 -4.0115  0.9369  0.1687
   14SAPS  H10Y 1837   4.834   2.555   3.803 -1.4348 -0.6237  1.3032
   14SAPS  C311 1838   4.861   2.444   3.980  0.5605 -0.0746 -0.4933
   14SAPS  H11X 1839   4.916   2.352   4.011 -0.0698 -0.3639 -0.2234
   14SAPS  H11Y 1840   4.753   2.418   3.977  0.4424  0.4766 -1.2707
   14SAPS  C312 1841   4.887   2.562   4.075  0.5252 -0.5956  0.0558
   14SAPS  H12X 1842   4.812   2.642   4.059 -2.2384 -2.9437  0.3874
   14SAPS  H12Y 1843   4.988   2.604   4.058  0.7945 -0.8909  0.8896
   14SAPS  C313 1844   4.873   2.513   4.217  0.0446  0.2277  1.4424
   14SAPS  H13X 1845   4.975   2.493   4.258  1.1744  2.1941 -0.2189
   14SAPS  H13Y 1846   4.827   2.412   4.225  1.1557 -0.3430  0.9077
   14SAPS  C314 1847   4.809   2.611   4.323 -0.9044 -0.3516  0.2167
   14SAPS  H14X 1848   4.843   2.715   4.302  2.2883 -1.2900  0.2287
   14SAPS  H14Y 1849   4.833   2.582   4.427 -0.7944  0.9175  0.5602
   14SAPS  C315 1850   4.653   2.611   4.321  0.1276 -0.7801 -0.1266
   14SAPS  H15X 1851   4.611   2.688   4.389  1.6613 -1.4302  1.6435
   14SAPS  H15Y 1852   4.626   2.510   4.358  2.4321 -1.4281 -0.0586
   14SAPS  C316 1853   4.587   2.643   4.186  0.9207 -0.5242  0.1174
   14SAPS  H16X 1854   4.622   2.575   4.104 -3.6353 -2.2609 -0.7221
   14SAPS  H16Y 1855   4.611   2.749   4.163  1.4274 -0.7819 -0.5753
   14SAPS  C317 1856   4.441   2.615   4.193 -0.4640  0.7194  0.1540
   14SAPS  H17X 1857   4.409   2.672   4.283 -1.2935 -0.2833  0.5096
   14SAPS  H17Y 1858   4.416   2.511   4.222 -0.4110  0.6651  0.0059
   14SAPS  C318 1859   4.357   2.661   4.072  0.1680  0.0119  0.0844
   14SAPS  H18X 1860   4.409   2.635   3.977 -0.3403 -2.4921  0.4053
   14SAPS  H18Y 1861   4.351   2.772   4.066 -2.0743 -0.1425 -2.1989
   14SAPS  H18Z 1862   4.256   2.616   4.060  0.0317  0.7378 -1.9251
   15SAPS     N 1863   5.091   2.287   1.962 -0.0518  1.0161  0.1635
   15SAPS   HN1 1864   5.062   2.202   1.909  1.7627  0.2265  0.3654
   15SAPS   HN2 1865   5.194   2.293   1.958  0.2383 -0.0822  3.1883
   15SAPS   HN3 1866   5.065   2.289   2.063 -0.1069  0.9053  0.1521
   15SAPS   C12 1867   5.047   2.401   1.884 -0.6906 -0.1690  0.0122
   15SAPS  H12A 1868   5.082   2.489   1.937 -0.3257 -1.7162  2.4558
   15SAPS   C13 1869   5.096   2.407   1.731 -0.4152  0.1492 -0.0584
   15SAPS  O13A 1870   5.193   2.330   1.703  0.2706  0.4010  0.0299
   15SAPS  O13B 1871   5.067   2.499   1.651  0.3447  0.2932 -0.1060
   15SAPS   C11 1872   4.887   2.412   1.893 -0.3797  0.7377  0.3894
   15SAPS  H11A 1873   4.845   2.507   1.854 -1.6802 -0.0061 -0.0820
   15SAPS  H11B 1874   4.883   2.419   2.004  2.7954  0.5886  0.6231
   15SAPS     P 1875   4.683   2.263   1.869 -0.2367  0.1386 -0.1340
   15SAPS   O13 1876   4.598   2.368   1.807 -0.1005  0.1244  0.3888
   15SAPS   O14 1877   4.645   2.126   1.834  0.5206  0.0676  0.4476
   15SAPS   O12 1878   4.829   2.294   1.845 -0.2180 -0.2294  0.2254
   15SAPS   O11 1879   4.673   2.275   2.022  0.2068  0.2297 -0.2310
   15SAPS    C1 1880   4.625   2.389   2.088 -0.4228 -0.3827 -0.3678
   15SAPS    HA 1881   4.701   2.471   2.088 -0.8099 -0.0097  0.6095
   15SAPS    HB 1882   4.534   2.435   2.044 -0.4993 -0.2846 -0.1125
   15SAPS    C2 1883   4.589   2.362   2.241 -0.4108  0.1696  0.5249
   15SAPS    HS 1884   4.516   2.441   2.267  1.4990  1.8187  1.1010
   15SAPS   O21 1885   4.713   2.363   2.317 -0.5964 -0.5754 -0.0616
   15SAPS   C21 1886   4.707   2.402   2.445 -0.1390  0.2465  0.5593
   15SAPS   O22 1887   4.607   2.440   2.507  0.0967 -0.6446 -0.4525
   15SAPS   C22 1888   4.852   2.370   2.497  0.1965  0.0303 -0.4860
   15SAPS   H2R 1889   4.895   2.279   2.451 -0.4584  0.1687 -1.3927
   15SAPS   H2S 1890   4.905   2.456   2.451 -3.0768  2.6266  0.1948
   15SAPS    C3 1891   4.523   2.220   2.250 -0.2268 -0.5058  0.2109
   15SAPS    HX 1892   4.602   2.144   2.234  0.4341  0.6314 -2.6593
   15SAPS    HY 1893   4.448   2.204   2.170  0.2477  1.1434 -0.6257
   15SAPS   O31 1894   4.473   2.198   2.377  0.3663 -0.7451  0.2229
   15SAPS   C31 1895   4.354   2.248   2.406 -0.0285  0.0349 -0.3725
   15SAPS   O32 1896   4.288   2.325   2.334 -0.9221  0.0568 -0.8260
   15SAPS   C32 1897   4.326   2.225   2.564 -0.7479 -0.6377  0.4232
   15SAPS   H2X 1898   4.420   2.256   2.613 -0.3032  0.5851 -1.1045
   15SAPS   H2Y 1899   4.303   2.118   2.584  3.3229 -1.7579 -0.0307
   15SAPS   C23 1900   4.871   2.363   2.654  0.2259 -0.4593 -0.3906
   15SAPS   H3R 1901   4.838   2.459   2.698  0.7652 -0.4324 -0.0384
   15SAPS   H3S 1902   4.982   2.358   2.658  0.3169  1.5235  0.2225
   15SAPS   C24 1903   4.820   2.235   2.720  0.4433 -0.1462  0.1851
   15SAPS   H4R 1904   4.910   2.173   2.701  1.8969  2.1006 -0.6440
   15SAPS   H4S 1905   4.737   2.194   2.659  0.7184  0.2285 -0.4507
   15SAPS   C25 1906   4.803   2.247   2.876  0.2008 -0.0828 -0.0654
   15SAPS   H5R 1907   4.890   2.239   2.943  1.3520 -0.3858 -1.5567
   15SAPS   C26 1908   4.692   2.267   2.947 -0.4078  0.2352 -0.6781
   15SAPS   H6R 1909   4.696   2.287   3.055 -0.3544 -0.2129 -0.5957
   15SAPS   C27 1910   4.566   2.277   2.871 -0.5117  0.1145  0.2281
   15SAPS   H7R 1911   4.570   2.285   2.761  1.9868 -1.4354  0.1316
   15SAPS   H7S 1912   4.509   2.364   2.911  1.1586  0.0572  3.0637
   15SAPS   C28 1913   4.481   2.158   2.894  0.6303  0.8084 -0.4034
   15SAPS   H8R 1914   4.488   2.075   2.822  2.2428  1.8646 -1.5436
   15SAPS   C29 1915   4.398   2.135   2.997 -0.8296 -0.3456 -0.2704
   15SAPS   H9R 1916   4.335   2.045   2.992 -2.1975  0.5555  0.3660
   15SAPS  C210 1917   4.366   2.228   3.108  0.1316 -0.2613 -0.1444
   15SAPS  H10R 1918   4.267   2.267   3.077  0.2346 -0.7421 -1.1338
   15SAPS  H10S 1919   4.434   2.315   3.120  1.4633 -1.0939 -1.3085
   15SAPS  C211 1920   4.353   2.159   3.236 -0.0580 -0.1535 -0.0051
   15SAPS  H11R 1921   4.385   2.054   3.244  0.8591  0.1670  0.6973
   15SAPS  C212 1922   4.315   2.212   3.356 -0.2002  0.6364  0.0019
   15SAPS  H12R 1923   4.303   2.149   3.446 -0.5653  2.3954  1.2344
   15SAPS  C213 1924   4.294   2.357   3.389 -0.0107  0.5799 -0.3355
   15SAPS  H13R 1925   4.187   2.380   3.405 -0.0175  0.8544 -0.7534
   15SAPS  H13S 1926   4.320   2.427   3.306 -1.9908  0.5886 -1.0102
   15SAPS  C214 1927   4.379   2.384   3.513  0.5257 -0.1796  0.0343
   15SAPS  H14R 1928   4.485   2.394   3.486  0.6766  1.2479  1.0833
   15SAPS  C215 1929   4.345   2.404   3.635 -0.1981 -0.4455 -0.4958
   15SAPS  H15R 1930   4.429   2.419   3.706  1.0437 -2.0236 -1.5636
   15SAPS  C216 1931   4.199   2.397   3.683 -0.7863 -0.6792  0.2192
   15SAPS  H16R 1932   4.131   2.422   3.599 -2.1970 -0.6627  1.3276
   15SAPS  H16S 1933   4.182   2.470   3.765  1.9484 -1.1169  1.2954
   15SAPS  C217 1934   4.148   2.260   3.730 -0.0286 -0.3526 -0.1032
   15SAPS  H17R 1935   4.147   2.250   3.841 -3.8297 -2.5350 -0.1701
   15SAPS  H17S 1936   4.207   2.177   3.685  0.9350 -0.4248  1.2266
   15SAPS  C218 1937   4.005   2.237   3.693  0.4434 -0.2564  0.5797
   15SAPS  H18R 1938   3.982   2.247   3.585 -0.6067  0.5325  0.8631
   15SAPS  H18S 1939   3.935   2.309   3.741 -0.8989  1.1215 -3.1075
   15SAPS  C219 1940   3.952   2.101   3.730  0.8127  0.8882  0.5155
   15SAPS  H19R 1941   3.978   2.081   3.836  2.6426 -1.7417 -0.3118
   15SAPS  H19S 1942   4.014   2.030   3.671 -0.0280  1.3578 -0.9620
   15SAPS  C220 1943   3.806   2.073   3.696 -0.6235  0.4617  0.4321
   15SAPS  H20R 1944   3.784   1.967   3.670  0.3744  0.6418 -1.2825
   15SAPS  H20S 1945   3.773   2.136   3.612 -0.4328  0.9181  0.6975
   15SAPS  H20T 1946   3.740   2.094   3.783 -1.5356 -1.4070  0.2457
   15SAPS   C33 1947   4.213   2.309   2.616  0.3373 -0.2411 -0.2602
   15SAPS   H3X 1948   4.193   2.258   2.713  1.5345 -3.0645 -1.3901
   15SAPS   H3Y 1949   4.120   2.293   2.558  1.2534 -3.0873 -1.1280
   15SAPS   C34 1950   4.248   2.456   2.613  0.0282  0.6456  0.1878
   15SAPS   H4X 1951   4.241   2.489   2.507 -1.8847 -1.5180 -0.4224
   15SAPS   H4Y 1952   4.357   2.469   2.629  0.1313  0.1309 -0.0846
   15SAPS   C35 1953   4.171   2.548   2.704  0.2415 -0.3919 -0.1894
   15SAPS   H5X 1954   4.063   2.524   2.710 -0.1437  1.1261 -0.5344
   15SAPS   H5Y 1955   4.185   2.657   2.687  0.3521 -0.4212 -0.2854
   15SAPS   C36 1956   4.221   2.532   2.848 -0.0346 -0.4810 -0.0190
   15SAPS   H6X 1957   4.328   2.560   2.841 -0.1778  0.5064  1.3180
   15SAPS   H6Y 1958   4.230   2.424   2.872 -1.1731 -1.2505 -2.7280
   15SAPS   C37 1959   4.153   2.610   2.964  0.1777  0.5379 -0.3304
   15SAPS   H7X 1960   4.048   2.572   2.963  0.5940 -0.7234  0.6536
   15SAPS   H7Y 1961   4.152   2.720   2.949  0.1133  0.3470 -2.0041
   15SAPS   C38 1962   4.213   2.591   3.100 -0.2618  0.3594  0.0765
   15SAPS   H8X 1963   4.317   2.630   3.093  0.5004 -1.5111  0.4692
   15SAPS   H8Y 1964   4.231   2.485   3.128  0.3042 -0.5046 -3.0782
   15SAPS   C39 1965   4.135   2.671   3.205 -0.2322 -0.5879 -0.3320
   15SAPS   H9X 1966   4.199   2.653   3.294 -0.4104 -1.7086 -0.4146
   15SAPS   H9Y 1967   4.032   2.635   3.223  0.1541 -0.4686  2.5750
   15SAPS  C310 1968   4.130   2.822   3.173  1.0522  0.6596 -0.2433
   15SAPS  H10X 1969   4.047   2.842   3.101  2.2994 -0.1711 -1.9637
   15SAPS  H10Y 1970   4.216   2.863   3.116  0.3847  1.2204 -0.8932
   15SAPS  C311 1971   4.102   2.915   3.290 -0.0757  0.2249 -0.0295
   15SAPS  H11X 1972   4.004   2.892   3.338  0.9680 -0.6349  1.8153
   15SAPS  H11Y 1973   4.089   3.019   3.254  0.5282  0.4670  0.4275
   15SAPS  C312 1974   4.225   2.920   3.377  0.6197  1.2789  0.3430
   15SAPS  H12X 1975   4.316   2.952   3.322  0.5243  1.2101  0.1433
   15SAPS  H12Y 1976   4.258   2.821   3.416 -1.8503  0.0682 -0.4480
   15SAPS  C313 1977   4.198   3.012   3.503  0.1105 -0.7698 -0.3137
   15SAPS  H13X 1978   4.151   3.107   3.469  1.8860 -0.0695 -0.9572
   15SAPS  H13Y 1979   4.285   3.042   3.565  0.6391 -3.2388  0.2321
   15SAPS  C314 1980   4.095   2.962   3.600 -0.7263 -0.6834 -0.1470
   15SAPS  H14X 1981   4.123   2.862   3.640 -2.6106 -0.9538  0.6047
   15SAPS  H14Y 1982   4.004   2.934   3.543 -0.0738 -2.0012 -0.5850
   15SAPS  C315 1983   4.082   3.051   3.722  0.7825 -0.0016 -0.3194
   15SAPS  H15X 1984   4.065   3.154   3.684  0.2207  0.0417  0.0352
   15SAPS  H15Y 1985   4.182   3.039   3.768  1.3295  0.4472 -1.3604
   15SAPS  C316 1986   3.961   3.000   3.803 -0.0131  0.0814 -0.0121
   15SAPS  H16X 1987   3.974   2.896   3.838 -1.3395  0.0330  0.4058
   15SAPS  H16Y 1988   3.874   2.999   3.733  0.0826 -1.6918 -0.1347
   15SAPS  C317 1989   3.930   3.076   3.931  0.2051 -0.6435  0.2932
   15SAPS  H17X 1990   3.823   3.055   3.953 -0.6822  1.3332 -1.7185
   15SAPS  H17Y 1991   3.936   3.184   3.906  0.2942 -1.1731 -2.2972
   15SAPS  C318 1992   4.014   3.026   4.049  0.3730 -0.0920 -0.6787
   15SAPS  H18X 1993   4.119   3.061   4.047  0.4623 -0.3766 -1.1798
   15SAPS  H18Y 1994   4.016   2.917   4.068  0.1538  0.2347  1.4561
   15SAPS  H18Z 1995   3.978   3.070   4.145  1.6290 -0.9151  0.1934
   16SAPS     N 1996   6.779   2.932   1.681 -0.2411  0.2982 -0.4358
   16SAPS   HN1 1997   6.864   2.973   1.724  0.4480 -0.0058 -1.4850
   16SAPS   HN2 1998   6.729   2.873   1.751 -0.7712  1.6514  0.3689
   16SAPS   HN3 1999   6.819   2.869   1.609  0.3449  1.8786 -1.5271
   16SAPS   C12 2000   6.691   3.034   1.624  0.2668 -0.1444 -0.1837
   16SAPS  H12A 2001   6.754   3.111   1.583 -0.9491  1.3006  0.5390
   16SAPS   C13 2002   6.585   2.980   1.520  0.3882  0.0923 -0.2728
   16SAPS  O13A 2003   6.570   2.859   1.492  0.6867 -0.0362  0.1005
   16SAPS  O13B 2004   6.529   3.069   1.449  0.3022  0.2667 -0.0940
   16SAPS   C11 2005   6.613   3.095   1.743  0.5218 -0.3780  0.4468
   16SAPS  H11A 2006   6.557   3.181   1.701  2.5227  1.0183  0.5015
   16SAPS  H11B 2007   6.681   3.149   1.812  0.9827  1.8401 -1.6061
   16SAPS     P 2008   6.386   3.014   1.864  0.4704 -0.0349  0.4350
   16SAPS   O13 2009   6.329   3.146   1.829  0.1353  0.7060  0.2784
   16SAPS   O14 2010   6.313   2.887   1.829 -0.6568  0.4243  0.0240
   16SAPS   O12 2011   6.533   2.997   1.808 -0.4169 -0.2554  0.1388
   16SAPS   O11 2012   6.417   3.015   2.016 -0.6307  0.1800 -0.1411
   16SAPS    C1 2013   6.493   3.112   2.087  0.0754  0.0635  0.2842
   16SAPS    HA 2014   6.595   3.107   2.045  0.9595 -1.0915  2.3925
   16SAPS    HB 2015   6.450   3.213   2.071 -0.8609  0.2001  3.1294
   16SAPS    C2 2016   6.483   3.105   2.239 -0.1830  0.4565 -0.8048
   16SAPS    HS 2017   6.513   3.208   2.269  0.7988  0.2112 -0.9297
   16SAPS   O21 2018   6.565   2.999   2.299  0.0187  0.8036  0.2468
   16SAPS   C21 2019   6.693   3.037   2.314  0.1126 -0.1068  0.5010
   16SAPS   O22 2020   6.741   3.144   2.279  0.2750  0.1456 -0.1559
   16SAPS   C22 2021   6.777   2.918   2.369  0.1379 -0.2043  0.7146
   16SAPS   H2R 2022   6.707   2.838   2.402 -1.7518  0.5475 -1.3266
   16SAPS   H2S 2023   6.829   2.888   2.275  0.4861  0.0948  0.8058
   16SAPS    C3 2024   6.329   3.083   2.282 -0.1290 -0.8357  0.5092
   16SAPS    HX 2025   6.306   2.989   2.228  0.2262 -0.2759 -0.6731
   16SAPS    HY 2026   6.267   3.166   2.241  1.7148  0.0762 -0.5710
   16SAPS   O31 2027   6.314   3.066   2.423  0.2429 -0.0129 -0.4738
   16SAPS   C31 2028   6.305   3.176   2.498 -0.4525  0.2860 -0.2505
   16SAPS   O32 2029   6.320   3.290   2.460 -0.0982 -0.9437 -0.2136
   16SAPS   C32 2030   6.303   3.130   2.645 -0.2195 -0.3772  0.0779
   16SAPS   H2X 2031   6.384   3.054   2.660  0.5223  0.2715 -0.5645
   16SAPS   H2Y 2032   6.209   3.075   2.665  1.2331 -2.3835  1.8753
   16SAPS   C23 2033   6.877   2.959   2.467  0.1013  0.4387 -0.4354
   16SAPS   H3R 2034   6.917   3.059   2.439  2.7411  0.6159  3.1860
   16SAPS   H3S 2035   6.961   2.887   2.465  0.9601  1.3824  0.2671
   16SAPS   C24 2036   6.824   2.965   2.611  0.5561  0.4262 -0.2192
   16SAPS   H4R 2037   6.741   3.038   2.608 -1.3077 -1.5101  1.0191
   16SAPS   H4S 2038   6.903   3.013   2.673  0.7687 -1.6543  1.2597
   16SAPS   C25 2039   6.775   2.838   2.671 -0.3905  1.0463 -0.2518
   16SAPS   H5R 2040   6.738   2.758   2.606 -0.2922  1.9629 -1.4604
   16SAPS   C26 2041   6.770   2.824   2.806 -0.5288  0.3497 -0.3363
   16SAPS   H6R 2042   6.721   2.733   2.842  0.9168 -0.9088 -1.3978
   16SAPS   C27 2043   6.814   2.922   2.916  0.0234 -1.0188 -0.0808
   16SAPS   H7R 2044   6.878   3.005   2.879  1.0082 -1.9118 -0.4162
   16SAPS   H7S 2045   6.887   2.868   2.980 -0.0888 -0.3114  0.6508
   16SAPS   C28 2046   6.705   2.983   2.995  0.9741 -0.8385 -0.7661
   16SAPS   H8R 2047   6.648   3.063   2.945  0.7460  0.2021  1.0809
   16SAPS   C29 2048   6.657   2.946   3.113  0.0750 -0.5507  1.2204
   16SAPS   H9R 2049   6.560   2.991   3.143  0.5013  1.1426  0.2365
   16SAPS  C210 2050   6.718   2.840   3.198  0.2433 -0.3841  0.0768
   16SAPS  H10R 2051   6.819   2.812   3.160 -0.3746 -2.0423 -0.4512
   16SAPS  H10S 2052   6.650   2.752   3.200  0.0206 -0.2019  1.2935
   16SAPS  C211 2053   6.721   2.901   3.342  0.2095  0.0687  0.6438
   16SAPS  H11R 2054   6.750   3.007   3.349  0.7654 -0.1065  1.0095
   16SAPS  C212 2055   6.700   2.844   3.463 -0.1514  0.4906 -0.3349
   16SAPS  H12R 2056   6.709   2.911   3.550  0.9334  0.1465 -0.1582
   16SAPS  C213 2057   6.684   2.697   3.487 -0.8646  0.0023  0.0488
   16SAPS  H13R 2058   6.603   2.651   3.426 -0.7147  0.2068 -0.3022
   16SAPS  H13S 2059   6.666   2.692   3.597  0.6312  0.8055  0.3561
   16SAPS  C214 2060   6.819   2.627   3.461 -0.7329 -0.2773 -0.0381
   16SAPS  H14R 2061   6.840   2.599   3.356  4.7452 -0.9700  0.9279
   16SAPS  C215 2062   6.922   2.602   3.549  0.2113 -0.2184  0.1634
   16SAPS  H15R 2063   7.021   2.576   3.509 -0.0556 -1.3848  0.2084
   16SAPS  C216 2064   6.917   2.628   3.699  0.5298 -1.1792  0.6607
   16SAPS  H16R 2065   6.925   2.538   3.764 -1.9890 -1.4117  0.7392
   16SAPS  H16S 2066   6.821   2.681   3.719  0.3996 -0.2958 -1.8652
   16SAPS  C217 2067   7.036   2.721   3.734 -0.3324 -0.2826 -0.9286
   16SAPS  H17R 2068   7.039   2.808   3.666 -3.3301  2.1748  1.7411
   16SAPS  H17S 2069   7.124   2.654   3.739  1.7219  2.3367  1.7003
   16SAPS  C218 2070   7.036   2.777   3.874  0.0912 -0.6848 -0.4318
   16SAPS  H18R 2071   6.976   2.716   3.944 -1.5477 -0.3636 -1.4955
   16SAPS  H18S 2072   6.994   2.880   3.878 -0.0736 -0.7715  0.0447
   16SAPS  C219 2073   7.175   2.800   3.949 -0.4363  0.7476  0.2511
   16SAPS  H19R 2074   7.208   2.698   3.975  0.8230  0.2047 -2.9908
   16SAPS  H19S 2075   7.146   2.855   4.041 -1.2289 -0.3873  0.7088
   16SAPS  C220 2076   7.292   2.850   3.866 -0.7349 -0.0021  0.6190
   16SAPS  H20R 2077   7.297   2.801   3.767 -0.1856  0.8661  0.2121
   16SAPS  H20S 2078   7.387   2.823   3.918 -1.6646 -0.0528  2.3951
   16SAPS  H20T 2079   7.292   2.958   3.842  0.2146 -0.3588 -1.1955
   16SAPS   C33 2080   6.325   3.253   2.729 -0.2072 -0.2001 -0.1265
   16SAPS   H3X 2081   6.241   3.324   2.713 -1.2981 -1.8786 -2.4551
   16SAPS   H3Y 2082   6.425   3.295   2.704 -0.5180 -0.3113 -1.6582
   16SAPS   C34 2083   6.336   3.218   2.873  0.4753  0.3899 -0.8144
   16SAPS   H4X 2084   6.415   3.141   2.888  0.3254  0.8064  3.1329
   16SAPS   H4Y 2085   6.244   3.171   2.914  0.0099  0.4119 -1.8128
   16SAPS   C35 2086   6.381   3.340   2.962 -0.7846  0.0350 -0.4565
   16SAPS   H5X 2087   6.304   3.420   2.962 -1.0212 -0.1897 -0.3158
   16SAPS   H5Y 2088   6.473   3.382   2.916  0.4462 -1.6271  0.3502
   16SAPS   C36 2089   6.412   3.291   3.105 -0.3435 -0.3205  0.2693
   16SAPS   H6X 2090   6.505   3.231   3.097 -1.1388 -1.4397 -1.0302
   16SAPS   H6Y 2091   6.329   3.223   3.134 -0.4042  0.3452  1.7917
   16SAPS   C37 2092   6.428   3.393   3.213 -0.0219  0.1311  1.2496
   16SAPS   H7X 2093   6.344   3.466   3.200 -1.4714 -1.4851  1.1544
   16SAPS   H7Y 2094   6.528   3.440   3.201  0.5892 -1.5622 -0.8092
   16SAPS   C38 2095   6.430   3.340   3.360 -0.5751 -0.0145 -0.1673
   16SAPS   H8X 2096   6.511   3.276   3.400 -1.4746 -0.3418  1.2083
   16SAPS   H8Y 2097   6.338   3.278   3.367 -0.8306  0.4132  0.2497
   16SAPS   C39 2098   6.436   3.462   3.456  0.0108 -0.6629  0.6048
   16SAPS   H9X 2099   6.352   3.532   3.434 -1.8700 -2.7601  0.8037
   16SAPS   H9Y 2100   6.525   3.524   3.431 -2.7433  3.0433 -0.9846
   16SAPS  C310 2101   6.418   3.426   3.601 -0.1568 -0.2627  0.6526
   16SAPS  H10X 2102   6.333   3.356   3.618  0.7911 -1.5595  0.2329
   16SAPS  H10Y 2103   6.389   3.521   3.652 -0.6791  0.8148 -1.5488
   16SAPS  C311 2104   6.535   3.357   3.670  0.2057 -0.5005 -0.1454
   16SAPS  H11X 2105   6.629   3.397   3.626 -0.1792 -1.0945 -1.5630
   16SAPS  H11Y 2106   6.540   3.249   3.644 -0.2228 -0.3743 -0.7827
   16SAPS  C312 2107   6.532   3.385   3.822  0.0629 -0.2206 -0.1246
   16SAPS  H12X 2108   6.466   3.472   3.845 -0.8446 -1.4481  2.1635
   16SAPS  H12Y 2109   6.636   3.409   3.853 -0.2334 -2.2336  2.7833
   16SAPS  C313 2110   6.496   3.260   3.903  0.5594  0.4641  0.0228
   16SAPS  H13X 2111   6.552   3.281   3.996 -1.1007  1.6159  0.8147
   16SAPS  H13Y 2112   6.529   3.165   3.856 -1.5642  0.2184 -1.0588
   16SAPS  C314 2113   6.346   3.263   3.935 -0.5692 -0.0621  0.4447
   16SAPS  H14X 2114   6.277   3.260   3.848 -0.9225  2.0551  0.5979
   16SAPS  H14Y 2115   6.333   3.365   3.977 -2.3431  0.8545 -2.1064
   16SAPS  C315 2116   6.306   3.148   4.027  0.4944 -0.1157  0.3435
   16SAPS  H15X 2117   6.384   3.138   4.105  0.1409  1.2556  0.9083
   16SAPS  H15Y 2118   6.302   3.053   3.968 -0.7107 -0.1314  0.4120
   16SAPS  C316 2119   6.171   3.172   4.105  0.3065  0.9377  0.1524
   16SAPS  H16X 2120   6.089   3.179   4.030  0.8061 -0.6024 -0.5657
   16SAPS  H16Y 2121   6.178   3.263   4.169 -0.1665 -0.7092  2.6958
   16SAPS  C317 2122   6.144   3.056   4.201  0.2593 -0.0497  0.5323
   16SAPS  H17X 2123   6.231   3.038   4.267  0.0293 -0.0511  0.8352
   16SAPS  H17Y 2124   6.147   2.966   4.136 -0.6215  0.5255 -0.3359
   16SAPS  C318 2125   6.009   3.069   4.281  0.2048 -0.6918  0.4983
   16SAPS  H18X 2126   6.025   3.126   4.375 -0.0599  0.9598 -0.4038
   16SAPS  H18Y 2127   5.982   2.967   4.314  1.0570 -0.7293  1.0992
   16SAPS  H18Z 2128   5.921   3.104   4.222 -0.3325 -2.4311  0.2273
   17SAPS     N 2129   2.930   1.329   1.865 -0.8431  0.0055 -0.3225
   17SAPS   HN1 2130   2.918   1.363   1.963  1.3549  0.3321 -0.1143
   17SAPS   HN2 2131   2.903   1.407   1.802 -0.5100 -0.1284 -0.6373
   17SAPS   HN3 2132   2.864   1.250   1.851 -1.6753  0.8413 -1.1781
   17SAPS   C12 2133   3.067   1.275   1.847 -0.3769  0.3813  0.3164
   17SAPS  H12A 2134   3.055   1.192   1.779  2.2213 -1.1887  1.5924
   17SAPS   C13 2135   3.158   1.360   1.766  0.7488  0.2014  1.2122
   17SAPS  O13A 2136   3.127   1.473   1.723  0.1032 -0.1329  0.0622
   17SAPS  O13B 2137   3.268   1.309   1.730 -0.7407  0.0304  0.0627
   17SAPS   C11 2138   3.138   1.223   1.977 -1.1381  0.5400 -0.4671
   17SAPS  H11A 2139   3.171   1.301   2.049  0.2694  1.2001 -1.7557
   17SAPS  H11B 2140   3.236   1.193   1.934 -0.4353  0.1203  1.3300
   17SAPS     P 2141   3.122   0.972   2.076  0.1331  0.4184 -0.3491
   17SAPS   O13 2142   3.014   0.911   2.158 -0.4087  0.1634  0.5210
   17SAPS   O14 2143   3.163   0.888   1.961  0.7718 -0.8255 -0.2761
   17SAPS   O12 2144   3.060   1.109   2.019  0.1198  0.3687 -0.1832
   17SAPS   O11 2145   3.253   1.015   2.154  0.8831  0.1313 -0.0042
   17SAPS    C1 2146   3.244   1.098   2.280  0.3211 -0.7118 -0.0545
   17SAPS    HA 2147   3.311   1.187   2.275 -2.2997  1.3385 -3.3877
   17SAPS    HB 2148   3.153   1.161   2.282  0.9571  0.2574 -0.5671
   17SAPS    C2 2149   3.282   1.011   2.401 -0.8027  0.7767 -0.7081
   17SAPS    HS 2150   3.379   0.960   2.388 -1.2963  0.0212 -1.5425
   17SAPS   O21 2151   3.181   0.916   2.421 -0.7321  0.4123 -0.1801
   17SAPS   C21 2152   3.212   0.812   2.495  0.5839  0.6733  0.5139
   17SAPS   O22 2153   3.323   0.780   2.538  0.4335 -0.0040 -0.1344
   17SAPS   C22 2154   3.080   0.736   2.519  0.4453 -0.4071 -0.4018
   17SAPS   H2R 2155   2.992   0.796   2.488  0.7481 -0.8915 -2.3475
   17SAPS   H2S 2156   3.082   0.646   2.453 -3.0813 -1.6041  0.8712
   17SAPS    C3 2157   3.291   1.095   2.525 -0.9344 -1.0458 -0.5486
   17SAPS    HX 2158   3.203   1.163   2.516 -0.9086 -0.7634  1.0804
   17SAPS    HY 2159   3.384   1.155   2.521 -0.5781 -1.3065  2.3323
   17SAPS   O31 2160   3.296   1.030   2.653 -1.0606  0.1885  0.5355
   17SAPS   C31 2161   3.406   1.006   2.716 -0.0136  0.4847 -0.3277
   17SAPS   O32 2162   3.519   1.036   2.678  0.2587 -0.1213 -0.1217
   17SAPS   C32 2163   3.383   0.931   2.844 -0.3903  0.5665  0.0345
   17SAPS   H2X 2164   3.459   0.965   2.918 -1.5887  0.8309  1.1791
   17SAPS   H2Y 2165   3.399   0.822   2.830  0.9723  0.4588  1.9358
   17SAPS   C23 2166   3.054   0.691   2.668  0.5904  0.5030 -1.2073
   17SAPS   H3R 2167   2.985   0.759   2.722  1.0769 -0.4830  0.7915
   17SAPS   H3S 2168   3.141   0.700   2.737  0.9052 -1.3299 -1.3175
   17SAPS   C24 2169   2.988   0.553   2.675  0.1640 -0.5751 -0.4876
   17SAPS   H4R 2170   2.891   0.555   2.621  0.4401  1.2178 -0.9842
   17SAPS   H4S 2171   2.961   0.545   2.782  0.4608  0.7836 -0.2940
   17SAPS   C25 2172   3.073   0.449   2.628 -0.2325 -0.2357 -0.8518
   17SAPS   H5R 2173   3.048   0.396   2.535 -1.9875  1.9230 -1.6735
   17SAPS   C26 2174   3.178   0.401   2.698 -0.2233 -0.3992 -0.2986
   17SAPS   H6R 2175   3.228   0.317   2.647 -0.1835 -0.9093  0.5687
   17SAPS   C27 2176   3.242   0.454   2.826  0.7405 -0.0061 -0.2940
   17SAPS   H7R 2177   3.272   0.363   2.882  0.0036 -1.3514 -1.9959
   17SAPS   H7S 2178   3.166   0.513   2.882  1.4046  1.5930 -1.0238
   17SAPS   C28 2179   3.362   0.533   2.790 -0.4347  0.2994  0.2897
   17SAPS   H8R 2180   3.340   0.622   2.730  2.0610  0.6450 -0.2417
   17SAPS   C29 2181   3.495   0.512   2.818 -0.0688 -0.9566 -0.5348
   17SAPS   H9R 2182   3.566   0.589   2.785 -0.0074  0.4178  2.5406
   17SAPS  C210 2183   3.547   0.392   2.894  0.0602  1.0068 -0.6181
   17SAPS  H10R 2184   3.465   0.318   2.906  0.7694  0.4513  1.2592
   17SAPS  H10S 2185   3.564   0.429   2.998 -0.7203 -0.0408 -0.0938
   17SAPS  C211 2186   3.663   0.330   2.820 -0.1955 -0.3130  0.2517
   17SAPS  H11R 2187   3.649   0.233   2.770 -1.3115 -0.8992  1.6229
   17SAPS  C212 2188   3.788   0.379   2.825  0.2081  0.5683 -0.6681
   17SAPS  H12R 2189   3.866   0.338   2.759 -0.3968 -1.0250 -0.4299
   17SAPS  C213 2190   3.830   0.492   2.919  0.5041  0.4953 -0.3442
   17SAPS  H13R 2191   3.751   0.570   2.914 -0.5757 -0.5688 -0.3960
   17SAPS  H13S 2192   3.927   0.532   2.882  0.2508  0.2780 -1.2713
   17SAPS  C214 2193   3.855   0.453   3.063  0.8633  0.5787  0.4420
   17SAPS  H14R 2194   3.788   0.372   3.096  2.2897 -0.9760 -0.3121
   17SAPS  C215 2195   3.953   0.484   3.150 -0.8046  0.1989 -0.4670
   17SAPS  H15R 2196   3.962   0.430   3.245 -0.8149 -0.9562 -1.0996
   17SAPS  C216 2197   4.062   0.586   3.116  0.0565 -0.1995 -0.0582
   17SAPS  H16R 2198   4.072   0.667   3.192  1.6491 -0.9362  0.5707
   17SAPS  H16S 2199   4.031   0.634   3.021 -2.0530 -2.1845 -0.4636
   17SAPS  C217 2200   4.204   0.521   3.110 -0.0739  0.4159 -0.1331
   17SAPS  H17R 2201   4.227   0.467   3.204  0.9382 -0.6076 -0.9440
   17SAPS  H17S 2202   4.291   0.589   3.102 -0.5395  0.9007 -1.4058
   17SAPS  C218 2203   4.214   0.425   2.985 -0.3313  0.0973  0.0709
   17SAPS  H18R 2204   4.206   0.499   2.903  0.2162 -0.5414 -0.5714
   17SAPS  H18S 2205   4.132   0.349   2.987  1.5360 -2.0166 -0.2212
   17SAPS  C219 2206   4.358   0.359   2.988  0.3977  0.6552 -0.2688
   17SAPS  H19R 2207   4.360   0.293   3.077 -1.5199  1.4980  0.4427
   17SAPS  H19S 2208   4.428   0.445   2.999  1.5746 -0.0526 -1.7804
   17SAPS  C220 2209   4.399   0.295   2.862 -0.5678  0.4438 -0.9789
   17SAPS  H20R 2210   4.370   0.350   2.769 -0.6865  0.6343 -0.8293
   17SAPS  H20S 2211   4.345   0.199   2.850 -0.6459  0.1750  1.1883
   17SAPS  H20T 2212   4.506   0.266   2.860 -1.0778 -1.7846  0.5305
   17SAPS   C33 2213   3.251   0.950   2.911  0.5529  0.4593 -0.1954
   17SAPS   H3X 2214   3.163   0.918   2.851 -0.0468 -0.5283  1.1277
   17SAPS   H3Y 2215   3.239   1.054   2.946 -1.0623 -0.3627  1.9646
   17SAPS   C34 2216   3.237   0.865   3.043 -0.1258  0.8488 -0.1716
   17SAPS   H4X 2217   3.307   0.907   3.118  1.8470 -0.3701 -1.2466
   17SAPS   H4Y 2218   3.258   0.761   3.010 -2.1091  0.1726  0.5565
   17SAPS   C35 2219   3.092   0.843   3.097  0.3420  0.6623 -0.1805
   17SAPS   H5X 2220   3.106   0.772   3.182  0.4262  1.1133  0.1862
   17SAPS   H5Y 2221   3.027   0.788   3.027  1.3195  2.0600 -2.2688
   17SAPS   C36 2222   3.035   0.955   3.171 -0.1870 -0.5995 -0.0694
   17SAPS   H6X 2223   2.990   1.025   3.098  1.8685  1.1010  0.1869
   17SAPS   H6Y 2224   3.115   1.020   3.214 -1.4056  0.9725 -0.0506
   17SAPS   C37 2225   2.926   0.930   3.272 -0.0571  1.0093 -0.6096
   17SAPS   H7X 2226   2.860   0.846   3.245  1.7086 -0.7446  0.2527
   17SAPS   H7Y 2227   2.855   1.015   3.279 -0.9109  0.2976 -0.3892
   17SAPS   C38 2228   2.987   0.910   3.412 -0.1584 -0.0557  0.7974
   17SAPS   H8X 2229   3.024   1.010   3.444 -2.9917  1.3052  0.2379
   17SAPS   H8Y 2230   3.072   0.841   3.396 -1.0835 -1.0250 -0.1166
   17SAPS   C39 2231   2.894   0.846   3.522 -0.1700  0.2568  0.2279
   17SAPS   H9X 2232   2.868   0.741   3.500  0.8700  0.1285 -0.4614
   17SAPS   H9Y 2233   2.796   0.898   3.516 -0.1982  0.3211  1.0382
   17SAPS  C310 2234   2.954   0.859   3.664 -0.1878 -0.2003  0.6171
   17SAPS  H10X 2235   2.888   0.806   3.735 -1.7816  1.1568  0.2015
   17SAPS  H10Y 2236   2.962   0.966   3.694  1.1117  0.1399 -0.7736
   17SAPS  C311 2237   3.096   0.794   3.661 -0.0857  0.1500  0.3349
   17SAPS  H11X 2238   3.161   0.859   3.599 -2.4833  1.6771 -0.7116
   17SAPS  H11Y 2239   3.086   0.686   3.637  0.2545 -0.3165  2.1081
   17SAPS  C312 2240   3.160   0.795   3.806 -0.0486  0.1510  0.3599
   17SAPS  H12X 2241   3.080   0.767   3.878  0.3207 -0.2784  0.6091
   17SAPS  H12Y 2242   3.186   0.899   3.835 -1.3897  1.3173 -2.1880
   17SAPS  C313 2243   3.290   0.711   3.802 -0.1376  0.0025 -0.1602
   17SAPS  H13X 2244   3.355   0.739   3.716 -2.5094 -0.9884 -2.4097
   17SAPS  H13Y 2245   3.264   0.603   3.792 -1.4819  0.2855  0.1407
   17SAPS  C314 2246   3.367   0.724   3.929 -0.2300 -0.0702  0.3420
   17SAPS  H14X 2247   3.411   0.826   3.928 -1.0116  0.3769  3.0185
   17SAPS  H14Y 2248   3.450   0.649   3.932 -0.3338 -0.1630  1.2299
   17SAPS  C315 2249   3.291   0.701   4.060 -0.2854 -0.1805  0.7594
   17SAPS  H15X 2250   3.248   0.599   4.055  1.1363 -0.8912  2.2662
   17SAPS  H15Y 2251   3.209   0.776   4.062 -1.6899 -1.6426 -0.2424
   17SAPS  C316 2252   3.376   0.716   4.184 -0.5308  0.3970 -0.3745
   17SAPS  H16X 2253   3.429   0.813   4.180 -0.8900  0.6938  1.3836
   17SAPS  H16Y 2254   3.450   0.634   4.194 -0.1333  0.7388 -0.4688
   17SAPS  C317 2255   3.308   0.719   4.316 -0.2289 -0.2098 -0.4199
   17SAPS  H17X 2256   3.228   0.643   4.315 -1.5584  1.0498  1.8074
   17SAPS  H17Y 2257   3.256   0.817   4.317 -1.9153 -1.0451 -1.6058
   17SAPS  C318 2258   3.394   0.703   4.441 -0.4584  0.3707 -0.1002
   17SAPS  H18X 2259   3.442   0.802   4.452  0.7444 -0.3041  1.1013
   17SAPS  H18Y 2260   3.473   0.625   4.429 -0.9327 -0.8184  3.3067
   17SAPS  H18Z 2261   3.337   0.683   4.535  2.3499 -0.7281  1.4976
   18SAPS     N 2262   4.963   0.951   2.235  0.1685  0.3767  0.6550
   18SAPS   HN1 2263   4.872   0.993   2.263  1.4826  2.0638  2.6527
   18SAPS   HN2 2264   5.034   0.972   2.307 -0.0866 -0.6871  1.2385
   18SAPS   HN3 2265   4.997   0.996   2.148 -1.7939 -2.5308 -1.8525
   18SAPS   C12 2266   4.949   0.805   2.218 -0.0351  0.5313  0.2473
   18SAPS  H12A 2267   4.913   0.755   2.307 -0.1790  0.5273  0.1874
   18SAPS   C13 2268   4.860   0.762   2.099  0.2718 -0.4802 -0.4566
   18SAPS  O13A 2269   4.784   0.852   2.054  0.1961 -0.8436 -0.2394
   18SAPS  O13B 2270   4.831   0.641   2.093  0.2674  0.4191 -0.3925
   18SAPS   C11 2271   5.087   0.740   2.185 -0.4145 -0.2710 -0.0895
   18SAPS  H11A 2272   5.106   0.751   2.076  1.0904 -0.8927  0.0936
   18SAPS  H11B 2273   5.083   0.630   2.203  0.2365 -0.3667 -0.5298
   18SAPS     P 2274   5.254   0.736   2.385  0.1015  0.1246  0.3010
   18SAPS   O13 2275   5.381   0.666   2.358  0.1252  0.8758  0.4859
   18SAPS   O14 2276   5.263   0.845   2.483 -0.4612  0.1028 -0.9962
   18SAPS   O12 2277   5.200   0.795   2.253  0.3645 -0.0483 -0.1567
   18SAPS   O11 2278   5.149   0.629   2.434 -0.3481 -0.7831 -0.2147
   18SAPS    C1 2279   5.079   0.629   2.563  0.0344  0.0942  0.1262
   18SAPS    HA 2280   5.072   0.734   2.599  2.4132  1.1610 -2.2068
   18SAPS    HB 2281   4.980   0.580   2.549  1.4289 -2.2861 -2.3472
   18SAPS    C2 2282   5.179   0.564   2.661  0.2839 -0.5593  0.0124
   18SAPS    HS 2283   5.278   0.611   2.640  0.2100  1.4294  3.4076
   18SAPS   O21 2284   5.181   0.429   2.635  0.1963  0.2374 -0.3036
   18SAPS   C21 2285   5.298   0.364   2.657 -0.2029  0.1583 -0.0975
   18SAPS   O22 2286   5.406   0.419   2.676 -0.5780 -0.1737 -0.8284
   18SAPS   C22 2287   5.275   0.211   2.643  0.1908  1.0880  0.0703
   18SAPS   H2R 2288   5.189   0.184   2.578  1.4006 -0.3952 -0.9878
   18SAPS   H2S 2289   5.363   0.172   2.587  0.5620  2.7718 -0.5872
   18SAPS    C3 2290   5.138   0.589   2.809 -0.3383  0.0604 -0.2518
   18SAPS    HX 2291   5.058   0.514   2.827 -0.5611 -0.2815 -2.3709
   18SAPS    HY 2292   5.097   0.691   2.826 -0.1467 -0.2650  2.7072
   18SAPS   O31 2293   5.251   0.565   2.899  0.8036  0.1734  0.0038
   18SAPS   C31 2294   5.344   0.659   2.907 -0.0127  0.4039  0.4057
   18SAPS   O32 2295   5.340   0.757   2.836  0.0821  0.5578  0.0960
   18SAPS   C32 2296   5.434   0.612   3.019 -0.4851 -0.1095 -0.2621
   18SAPS   H2X 2297   5.479   0.512   3.000 -0.8999 -0.8378  2.2210
   18SAPS   H2Y 2298   5.369   0.593   3.108  1.4737 -1.1134  1.0242
   18SAPS   C23 2299   5.254   0.149   2.781 -0.0487  0.1025 -0.0287
   18SAPS   H3R 2300   5.353   0.165   2.830 -0.8639  0.8975  1.4294
   18SAPS   H3S 2301   5.257   0.038   2.782 -0.0112  0.0827  2.1806
   18SAPS   C24 2302   5.137   0.207   2.856 -0.1915  0.3716 -0.1309
   18SAPS   H4R 2303   5.044   0.191   2.797 -1.0352  0.3353  1.1670
   18SAPS   H4S 2304   5.147   0.315   2.882  0.5383  0.3323 -0.2306
   18SAPS   C25 2305   5.116   0.138   2.985 -0.1816  0.2401 -0.5761
   18SAPS   H5R 2306   5.062   0.042   2.981 -1.6843  0.9427  1.1393
   18SAPS   C26 2307   5.151   0.195   3.101 -0.4781  0.0388 -0.1861
   18SAPS   H6R 2308   5.146   0.134   3.192  1.2237  2.2127  1.4813
   18SAPS   C27 2309   5.211   0.329   3.130 -0.0430  0.0761 -0.7011
   18SAPS   H7R 2310   5.135   0.410   3.124  2.0126  2.0465 -1.8558
   18SAPS   H7S 2311   5.276   0.362   3.045  0.4432 -1.4661 -0.9585
   18SAPS   C28 2312   5.302   0.329   3.254 -0.2696  0.4334 -0.7287
   18SAPS   H8R 2313   5.371   0.244   3.264  1.4238  2.0683  3.8164
   18SAPS   C29 2314   5.285   0.413   3.357 -0.1546  0.5231 -0.4655
   18SAPS   H9R 2315   5.355   0.397   3.441 -0.2905  0.5449 -0.3483
   18SAPS  C210 2316   5.182   0.521   3.377 -0.3369 -0.2802  0.2975
   18SAPS  H10R 2317   5.156   0.565   3.278  1.0463  2.2542  0.9621
   18SAPS  H10S 2318   5.230   0.603   3.435  0.0633 -1.6412  1.9732
   18SAPS  C211 2319   5.054   0.471   3.439 -0.0551 -0.6227  0.6740
   18SAPS  H11R 2320   4.998   0.400   3.376  0.1627  1.0814 -1.6059
   18SAPS  C212 2321   5.007   0.496   3.556  0.4587 -0.2317 -1.1220
   18SAPS  H12R 2322   4.907   0.463   3.588 -0.9042  4.2962  0.1039
   18SAPS  C213 2323   5.077   0.588   3.659  0.5014 -0.7970  0.1328
   18SAPS  H13R 2324   5.077   0.690   3.617  1.5613 -1.0363 -0.4829
   18SAPS  H13S 2325   5.186   0.569   3.660  1.5296  4.0056 -0.1017
   18SAPS  C214 2326   5.017   0.574   3.795  0.3727 -0.1092  0.9346
   18SAPS  H14R 2327   5.066   0.509   3.868  0.5465 -0.7713  0.2407
   18SAPS  C215 2328   4.913   0.643   3.839 -0.2484  0.2822  0.7569
   18SAPS  H15R 2329   4.869   0.615   3.935  0.4128 -0.5170  0.8338
   18SAPS  C216 2330   4.827   0.733   3.757  0.0495 -0.2470 -0.0747
   18SAPS  H16R 2331   4.732   0.678   3.741 -0.2335  0.6156 -1.5494
   18SAPS  H16S 2332   4.871   0.753   3.657 -1.2452  0.2489 -0.5755
   18SAPS  C217 2333   4.813   0.870   3.829 -0.4330 -0.4072 -0.1078
   18SAPS  H17R 2334   4.750   0.934   3.763 -2.0622 -0.1984  1.5612
   18SAPS  H17S 2335   4.913   0.917   3.837 -0.6943  0.1608 -0.1031
   18SAPS  C218 2336   4.748   0.867   3.971 -0.6648 -0.6992 -0.9325
   18SAPS  H18R 2337   4.798   0.791   4.035  1.8454  2.5097  1.1990
   18SAPS  H18S 2338   4.639   0.845   3.971 -0.1044 -3.9461 -1.2435
   18SAPS  C219 2339   4.777   0.995   4.044 -0.5887  0.2572  0.1136
   18SAPS  H19R 2340   4.747   1.086   3.988 -1.0505  0.9082  1.3664
   18SAPS  H19S 2341   4.886   1.009   4.055 -0.6389  0.2997  0.5691
   18SAPS  C220 2342   4.715   0.992   4.176  0.0945 -0.3294 -1.2930
   18SAPS  H20R 2343   4.605   0.976   4.178  0.1059 -0.4346 -1.5158
   18SAPS  H20S 2344   4.729   1.089   4.228  2.7930 -0.5512 -1.4679
   18SAPS  H20T 2345   4.759   0.921   4.250 -1.4946  0.8991  0.9700
   18SAPS   C33 2346   5.557   0.711   3.038  0.6776  0.9739  0.3216
   18SAPS   H3X 2347   5.525   0.797   3.100 -3.3237  1.1995 -1.7345
   18SAPS   H3Y 2348   5.599   0.738   2.939  2.6598 -3.2509 -0.2293
   18SAPS   C34 2349   5.675   0.639   3.101 -0.0131 -0.1703  0.5695
   18SAPS   H4X 2350   5.756   0.714   3.107 -0.4047  0.6216 -2.5997
   18SAPS   H4Y 2351   5.710   0.556   3.036 -0.5326 -0.0384  0.1234
   18SAPS   C35 2352   5.637   0.582   3.236  0.3608  0.5170  0.1942
   18SAPS   H5X 2353   5.587   0.483   3.227 -1.7520  1.3103  2.2246
   18SAPS   H5Y 2354   5.564   0.647   3.289 -1.6543 -0.8088 -0.8618
   18SAPS   C36 2355   5.754   0.571   3.338 -0.4219  0.0099 -0.1928
   18SAPS   H6X 2356   5.805   0.667   3.358  0.7679 -0.7703  0.6788
   18SAPS   H6Y 2357   5.824   0.499   3.289 -0.7604 -0.3714 -0.1280
   18SAPS   C37 2358   5.702   0.516   3.468  0.4462  0.1066 -0.3167
   18SAPS   H7X 2359   5.784   0.505   3.542  0.9947  0.7915 -0.8129
   18SAPS   H7Y 2360   5.647   0.420   3.456  1.2403 -0.1051 -2.9808
   18SAPS   C38 2361   5.604   0.625   3.532  0.1376  0.4801 -0.4544
   18SAPS   H8X 2362   5.504   0.610   3.486 -0.4958  1.9847  0.3562
   18SAPS   H8Y 2363   5.629   0.729   3.503 -0.2932  0.5867 -0.4532
   18SAPS   C39 2364   5.597   0.598   3.689  0.6727 -0.2990  0.7058
   18SAPS   H9X 2365   5.695   0.587   3.741 -0.0051 -1.2123  1.8388
   18SAPS   H9Y 2366   5.533   0.507   3.691 -0.1024  0.2221  0.0886
   18SAPS  C310 2367   5.510   0.701   3.765  0.0027 -0.8995  0.3605
   18SAPS  H10X 2368   5.423   0.705   3.695  0.3031 -2.8334 -0.1759
   18SAPS  H10Y 2369   5.558   0.801   3.766  1.1793 -1.4482  0.8687
   18SAPS  C311 2370   5.459   0.661   3.906  0.0761  0.2561  0.1901
   18SAPS  H11X 2371   5.402   0.566   3.914  0.6591 -0.1201 -0.0425
   18SAPS  H11Y 2372   5.406   0.748   3.950  0.9086  0.0045  1.7785
   18SAPS  C312 2373   5.579   0.637   3.994 -0.2292  0.3442 -0.2863
   18SAPS  H12X 2374   5.654   0.718   3.978  0.5362 -0.2962 -0.0090
   18SAPS  H12Y 2375   5.619   0.546   3.945  0.4514  0.5314 -0.0982
   18SAPS  C313 2376   5.538   0.638   4.140  0.2376  0.3752  0.3438
   18SAPS  H13X 2377   5.477   0.554   4.180 -0.8163  0.5717 -0.7925
   18SAPS  H13Y 2378   5.466   0.722   4.149  0.7073  0.7110  1.0295
   18SAPS  C314 2379   5.653   0.681   4.237  0.0050 -0.2967  0.0851
   18SAPS  H14X 2380   5.690   0.778   4.197 -1.2077 -0.7753 -2.3310
   18SAPS  H14Y 2381   5.743   0.617   4.221  0.8786  1.1255 -0.9456
   18SAPS  C315 2382   5.617   0.687   4.388 -0.3210  0.5981 -0.5383
   18SAPS  H15X 2383   5.712   0.655   4.434 -0.4386 -2.5519 -2.1654
   18SAPS  H15Y 2384   5.554   0.603   4.425  0.7193  0.0069 -0.0726
   18SAPS  C316 2385   5.594   0.825   4.436  0.1805  0.3282  0.3736
   18SAPS  H16X 2386   5.661   0.898   4.385 -0.2907  0.2134 -0.4307
   18SAPS  H16Y 2387   5.613   0.827   4.545 -0.5807 -0.0574  0.5240
   18SAPS  C317 2388   5.444   0.852   4.411 -0.0426  0.3969  0.8773
   18SAPS  H17X 2389   5.382   0.762   4.431 -2.9548  1.7363 -1.3562
   18SAPS  H17Y 2390   5.421   0.869   4.304  1.2175  0.2716  0.5681
   18SAPS  C318 2391   5.397   0.976   4.484 -0.4682 -0.5350  0.6742
   18SAPS  H18X 2392   5.287   0.995   4.484 -0.4112 -0.0010 -1.3353
   18SAPS  H18Y 2393   5.437   1.070   4.440  0.9370 -0.1792  2.6262
   18SAPS  H18Z 2394   5.434   0.972   4.589 -1.6154 -1.2929  1.0738
   19SAPS     N 2395   5.002   4.404   2.246  0.1793 -0.5067  0.1293
   19SAPS   HN1 2396   4.899   4.392   2.244  0.1536 -0.2021 -1.1678
   19SAPS   HN2 2397   5.036   4.417   2.344  1.5799  1.9202 -0.6027
   19SAPS   HN3 2398   5.022   4.490   2.191 -1.6276  0.3281  0.7042
   19SAPS   C12 2399   5.090   4.297   2.195  0.0604  0.0654 -0.4625
   19SAPS  H12A 2400   5.051   4.268   2.098 -3.1781  0.0532  0.7087
   19SAPS   C13 2401   5.238   4.352   2.187  0.1024  0.1783  0.4146
   19SAPS  O13A 2402   5.264   4.475   2.187 -0.4203  0.0641 -0.1385
   19SAPS  O13B 2403   5.325   4.267   2.152 -0.3237  0.1619  0.1212
   19SAPS   C11 2404   5.081   4.180   2.299  0.0861  0.1433 -0.2017
   19SAPS  H11A 2405   5.158   4.104   2.271  1.1594  1.6029 -1.4079
   19SAPS  H11B 2406   4.979   4.136   2.297 -0.2704  0.9740 -0.7297
   19SAPS     P 2407   5.109   4.130   2.554 -0.0618 -0.4541  0.0513
   19SAPS   O13 2408   5.227   4.036   2.546  0.1410  0.5971  0.7820
   19SAPS   O14 2409   5.082   4.199   2.682 -0.1007  0.0455 -0.2401
   19SAPS   O12 2410   5.114   4.231   2.428  0.1384 -0.0274  0.2819
   19SAPS   O11 2411   4.974   4.049   2.515 -0.1381  0.3276  0.6586
   19SAPS    C1 2412   4.845   4.108   2.518 -0.3257 -0.5575 -0.3231
   19SAPS    HA 2413   4.854   4.217   2.501 -0.6874 -0.4055  0.4151
   19SAPS    HB 2414   4.788   4.067   2.432 -0.6508  0.0413 -0.3980
   19SAPS    C2 2415   4.767   4.086   2.658  0.1881 -0.3293 -0.1215
   19SAPS    HS 2416   4.825   4.129   2.742 -1.6521 -0.0937  1.0920
   19SAPS   O21 2417   4.749   3.943   2.669 -0.4614 -0.1857 -0.5792
   19SAPS   C21 2418   4.804   3.887   2.770 -0.1110  0.5965  0.8218
   19SAPS   O22 2419   4.870   3.940   2.856  0.6369 -0.3000  0.3730
   19SAPS   C22 2420   4.760   3.744   2.767  0.5621 -0.3812  0.4542
   19SAPS   H2R 2421   4.650   3.756   2.762  0.6022  0.3067  1.0827
   19SAPS   H2S 2422   4.786   3.700   2.668 -0.6878  0.3014 -0.2053
   19SAPS    C3 2423   4.628   4.158   2.671  0.0749  0.2499  0.2666
   19SAPS    HX 2424   4.568   4.117   2.587  0.9006  0.5610 -0.4786
   19SAPS    HY 2425   4.645   4.263   2.642 -1.2343 -0.1540 -2.3097
   19SAPS   O31 2426   4.558   4.128   2.804 -0.2546 -0.2655 -0.0846
   19SAPS   C31 2427   4.574   4.226   2.893  0.7731 -0.2924 -0.4691
   19SAPS   O32 2428   4.641   4.322   2.880 -0.7348 -0.1525  0.5724
   19SAPS   C32 2429   4.486   4.200   3.022  0.1967 -0.5853  1.3028
   19SAPS   H2X 2430   4.388   4.153   3.000  0.1948 -0.0707  0.1369
   19SAPS   H2Y 2431   4.465   4.296   3.075  2.1566  1.1488 -0.8169
   19SAPS   C23 2432   4.789   3.659   2.898  0.0483  0.6287  0.5936
   19SAPS   H3R 2433   4.789   3.731   2.982  0.5251  2.2752 -0.7607
   19SAPS   H3S 2434   4.889   3.612   2.892 -1.2772 -2.3070 -0.5114
   19SAPS   C24 2435   4.697   3.542   2.930  0.1362  0.2223  0.0293
   19SAPS   H4R 2436   4.715   3.494   3.028 -1.3525  0.2301  0.3365
   19SAPS   H4S 2437   4.716   3.467   2.850 -1.4507  0.5812 -0.7222
   19SAPS   C25 2438   4.554   3.588   2.929 -0.1216 -0.0417  0.5824
   19SAPS   H5R 2439   4.520   3.618   2.829  0.1092  3.2562  1.3765
   19SAPS   C26 2440   4.473   3.592   3.037 -0.2607  0.4144 -0.0619
   19SAPS   H6R 2441   4.368   3.615   3.011 -0.3684 -0.8280 -0.8124
   19SAPS   C27 2442   4.509   3.556   3.181 -0.3180 -0.6045  0.2883
   19SAPS   H7R 2443   4.557   3.456   3.182  3.8661  1.1178 -1.7756
   19SAPS   H7S 2444   4.411   3.562   3.232 -1.2288  4.0438 -1.4277
   19SAPS   C28 2445   4.608   3.662   3.244  0.5911 -0.2222 -0.0438
   19SAPS   H8R 2446   4.683   3.700   3.174  2.2903  0.8338  2.2462
   19SAPS   C29 2447   4.591   3.728   3.359  0.3443  0.4791 -0.1393
   19SAPS   H9R 2448   4.669   3.800   3.390  1.2031 -0.4190 -0.1403
   19SAPS  C210 2449   4.466   3.708   3.449  1.0680 -0.2185  0.4369
   19SAPS  H10R 2450   4.478   3.628   3.526  1.2602 -0.5412  0.0712
   19SAPS  H10S 2451   4.371   3.680   3.398  0.7899  0.9725  0.2850
   19SAPS  C211 2452   4.432   3.833   3.517  0.4548 -0.7550 -0.6051
   19SAPS  H11R 2453   4.396   3.923   3.465  0.6482  0.0904  0.6678
   19SAPS  C212 2454   4.444   3.857   3.648  0.7753 -0.0869 -0.7202
   19SAPS  H12R 2455   4.406   3.952   3.687  1.2663 -0.9557  2.0533
   19SAPS  C213 2456   4.494   3.774   3.762  0.4936 -0.2477 -0.4663
   19SAPS  H13R 2457   4.532   3.845   3.838 -0.9106 -1.4087  1.3972
   19SAPS  H13S 2458   4.585   3.718   3.732  1.9678  1.3893  0.7614
   19SAPS  C214 2459   4.389   3.679   3.816 -0.1188  0.0515  0.0281
   19SAPS  H14R 2460   4.359   3.606   3.739 -0.9764  1.3199 -0.8648
   19SAPS  C215 2461   4.314   3.689   3.929 -0.1049  0.0945  0.0546
   19SAPS  H15R 2462   4.258   3.603   3.969 -1.7390  1.0719 -0.0452
   19SAPS  C216 2463   4.331   3.795   4.031 -0.0791  0.7517 -0.7183
   19SAPS  H16R 2464   4.387   3.881   3.989  0.7324  0.1642 -0.8657
   19SAPS  H16S 2465   4.402   3.773   4.113  3.0269  3.9250 -2.3262
   19SAPS  C217 2466   4.196   3.855   4.079  0.1664  0.6248  0.1588
   19SAPS  H17R 2467   4.131   3.896   4.000  0.4185  0.0998 -0.3302
   19SAPS  H17S 2468   4.220   3.948   4.135  0.9362  0.9350 -0.6662
   19SAPS  C218 2469   4.127   3.768   4.182  0.0670 -0.1246 -0.4924
   19SAPS  H18R 2470   4.193   3.728   4.262 -0.4547 -1.0930 -0.5325
   19SAPS  H18S 2471   4.088   3.674   4.137  1.7150 -0.2771 -1.7029
   19SAPS  C219 2472   4.002   3.842   4.241  0.2356  0.5985  0.4612
   19SAPS  H19R 2473   3.939   3.862   4.152  0.2353  1.9338  0.7438
   19SAPS  H19S 2474   4.026   3.937   4.294  1.9883 -0.7300  2.2178
   19SAPS  C220 2475   3.918   3.756   4.331 -0.6867  0.0007  0.1929
   19SAPS  H20R 2476   3.889   3.665   4.275 -1.6921  1.2485 -1.3935
   19SAPS  H20S 2477   3.827   3.810   4.363 -0.9801 -0.7509  0.6422
   19SAPS  H20T 2478   3.975   3.716   4.417 -0.2439 -2.0539 -0.9903
   19SAPS   C33 2479   4.571   4.106   3.117 -0.0973  0.4863 -0.0709
   19SAPS   H3X 2480   4.587   4.013   3.059 -2.2620 -1.1476  1.7974
   19SAPS   H3Y 2481   4.502   4.079   3.199  0.1385  1.5821  0.5057
   19SAPS   C34 2482   4.691   4.162   3.193  0.0711 -0.6463 -0.3151
   19SAPS   H4X 2483   4.655   4.256   3.239  0.7482 -0.5890  0.1175
   19SAPS   H4Y 2484   4.771   4.177   3.117  1.5974 -0.9700  1.1535
   19SAPS   C35 2485   4.756   4.071   3.297  0.1727 -1.0481  0.1849
   19SAPS   H5X 2486   4.866   4.085   3.301  0.0652  0.7400 -1.6537
   19SAPS   H5Y 2487   4.722   3.967   3.280  0.0185 -1.1123  0.8591
   19SAPS   C36 2488   4.697   4.124   3.430 -0.4044 -0.5929  0.0405
   19SAPS   H6X 2489   4.587   4.110   3.438 -0.4421 -0.8166 -0.7707
   19SAPS   H6Y 2490   4.733   4.229   3.439 -1.4087  0.0624 -2.7407
   19SAPS   C37 2491   4.757   4.035   3.547 -0.5401 -0.1472 -0.2224
   19SAPS   H7X 2492   4.867   4.040   3.531 -0.3799 -0.5975  0.6572
   19SAPS   H7Y 2493   4.734   3.927   3.547  2.0516 -0.7766  0.0992
   19SAPS   C38 2494   4.708   4.103   3.677 -0.0389 -1.1719 -0.5332
   19SAPS   H8X 2495   4.601   4.082   3.696  0.6421 -2.7742  1.8811
   19SAPS   H8Y 2496   4.730   4.212   3.670  3.1535 -1.7800 -1.7056
   19SAPS   C39 2497   4.793   4.049   3.794  0.3880  0.2839 -0.0262
   19SAPS   H9X 2498   4.903   4.061   3.787  0.2624  0.7843 -1.4765
   19SAPS   H9Y 2499   4.773   3.940   3.798  0.1931  0.3161 -0.0859
   19SAPS  C310 2500   4.740   4.101   3.938 -0.2014  1.0691 -0.5482
   19SAPS  H10X 2501   4.630   4.093   3.953 -0.0758 -1.8483 -0.6266
   19SAPS  H10Y 2502   4.765   4.209   3.947  0.0562  0.9335  0.5250
   19SAPS  C311 2503   4.824   4.028   4.043 -0.4901  0.1371  0.3559
   19SAPS  H11X 2504   4.932   4.033   4.020 -0.1982 -1.3233  1.2430
   19SAPS  H11Y 2505   4.799   3.920   4.034  0.1373  0.0000  0.2555
   19SAPS  C312 2506   4.788   4.089   4.178 -0.1367  0.0040  0.6034
   19SAPS  H12X 2507   4.682   4.067   4.203  0.1202 -2.0423  0.0377
   19SAPS  H12Y 2508   4.809   4.198   4.186  0.3638  0.0969 -1.4526
   19SAPS  C313 2509   4.882   4.027   4.274 -0.8002  0.4564  0.5855
   19SAPS  H13X 2510   4.986   4.039   4.236 -0.0937 -1.4091  1.7742
   19SAPS  H13Y 2511   4.868   3.917   4.272 -1.5201  0.5476  0.2194
   19SAPS  C314 2512   4.881   4.065   4.419 -0.0138 -0.0400 -0.5812
   19SAPS  H14X 2513   4.947   4.153   4.431  0.3615 -0.1215 -1.8285
   19SAPS  H14Y 2514   4.937   3.981   4.465 -1.6216  0.2455  2.1107
   19SAPS  C315 2515   4.750   4.070   4.496 -0.6265 -0.0852  0.7162
   19SAPS  H15X 2516   4.671   4.128   4.443 -1.2847 -1.2570  0.3830
   19SAPS  H15Y 2517   4.766   4.129   4.589  2.0752  0.8952 -0.2672
   19SAPS  C316 2518   4.692   3.929   4.525  0.2882 -1.0958 -0.4529
   19SAPS  H16X 2519   4.761   3.874   4.592  1.5266 -0.6375 -1.3263
   19SAPS  H16Y 2520   4.666   3.869   4.435 -0.1029 -1.3795 -0.1546
   19SAPS  C317 2521   4.558   3.940   4.604  0.2418 -0.3986 -0.3034
   19SAPS  H17X 2522   4.505   4.020   4.548  2.6825  2.0762  0.6904
   19SAPS  H17Y 2523   4.571   3.983   4.706 -0.3259  0.9027 -0.7540
   19SAPS  C318 2524   4.487   3.814   4.610  0.2898  0.2333  0.0587
   19SAPS  H18X 2525   4.530   3.746   4.687 -0.6819 -0.8922 -0.3591
   19SAPS  H18Y 2526   4.501   3.763   4.512  0.4807  0.2466  0.0782
   19SAPS  H18Z 2527   4.379   3.833   4.626 -0.1254 -0.4401 -1.7080
   20SAPS     N 2528   5.390   4.986   2.345 -0.6773  0.5441  0.3059
   20SAPS   HN1 2529   5.447   4.964   2.430 -0.7449  0.7758  0.4130
   20SAPS   HN2 2530   5.303   5.042   2.359 -1.6423 -1.1276  1.4535
   20SAPS   HN3 2531   5.370   4.894   2.300 -0.3801  0.9021 -0.5798
   20SAPS   C12 2532   5.484   5.054   2.256  0.2793  0.0456 -0.7052
   20SAPS  H12A 2533   5.450   5.058   2.154  1.2203  1.1268 -0.9997
   20SAPS   C13 2534   5.526   5.194   2.299 -0.6251  0.1498 -0.6295
   20SAPS  O13A 2535   5.490   5.252   2.407 -0.6097 -0.6170 -0.0877
   20SAPS  O13B 2536   5.592   5.258   2.208  0.0134  0.3119  0.5635
   20SAPS   C11 2537   5.616   4.965   2.271 -0.4837 -0.7923  0.1836
   20SAPS  H11A 2538   5.640   4.960   2.379  1.2990  0.1376 -0.1416
   20SAPS  H11B 2539   5.706   5.013   2.227 -0.4901  0.8366  1.8215
   20SAPS     P 2540   5.662   4.705   2.299  0.1875  0.3459 -0.1261
   20SAPS   O13 2541   5.553   4.608   2.332  0.2353  0.1672 -0.3608
   20SAPS   O14 2542   5.774   4.650   2.221 -0.0996 -0.4275 -0.3302
   20SAPS   O12 2543   5.600   4.829   2.220  0.0856 -0.3362 -0.6939
   20SAPS   O11 2544   5.717   4.766   2.429 -0.2391 -0.1211 -0.4847
   20SAPS    C1 2545   5.765   4.684   2.536  0.1131  0.5312 -0.4506
   20SAPS    HA 2546   5.787   4.580   2.504 -0.4863  0.6081 -1.1429
   20SAPS    HB 2547   5.869   4.716   2.556  1.4793 -2.9158 -1.3012
   20SAPS    C2 2548   5.674   4.700   2.660  0.3064  0.5199  0.2512
   20SAPS    HS 2549   5.570   4.676   2.629  1.2865 -1.2907 -1.9954
   20SAPS   O21 2550   5.691   4.830   2.715 -0.5276  0.3474  0.5638
   20SAPS   C21 2551   5.636   4.931   2.648 -0.2349 -0.0446  0.1447
   20SAPS   O22 2552   5.537   4.925   2.578 -0.4571 -0.4032  0.0889
   20SAPS   C22 2553   5.698   5.050   2.703 -0.1615 -0.2964 -0.0868
   20SAPS   H2R 2554   5.794   5.029   2.754  0.7882  0.5922 -1.4413
   20SAPS   H2S 2555   5.709   5.122   2.619  0.0946  0.7245  0.7924
   20SAPS    C3 2556   5.718   4.604   2.768  0.8385  0.2127 -0.5870
   20SAPS    HX 2557   5.813   4.632   2.818  0.9796 -0.6464 -0.3561
   20SAPS    HY 2558   5.726   4.501   2.726  1.4806  0.1382 -0.3049
   20SAPS   O31 2559   5.623   4.599   2.881  0.2203 -0.3806  0.2341
   20SAPS   C31 2560   5.628   4.486   2.955 -0.9384 -0.3259  0.1855
   20SAPS   O32 2561   5.709   4.397   2.933  0.4214  0.3266  0.3706
   20SAPS   C32 2562   5.527   4.483   3.066 -0.0228 -0.0747 -0.1850
   20SAPS   H2X 2563   5.493   4.378   3.080  1.0262 -0.9254 -3.3133
   20SAPS   H2Y 2564   5.440   4.545   3.035  0.0249 -0.4293 -1.0719
   20SAPS   C23 2565   5.612   5.132   2.801 -0.5956  1.1617 -0.1461
   20SAPS   H3R 2566   5.570   5.074   2.885 -1.5376  0.8896 -0.7928
   20SAPS   H3S 2567   5.529   5.173   2.739 -1.2693 -1.4294 -1.1094
   20SAPS   C24 2568   5.685   5.259   2.856 -0.3775 -0.5091  0.3553
   20SAPS   H4R 2569   5.722   5.316   2.768 -0.3234 -1.1666 -0.0570
   20SAPS   H4S 2570   5.775   5.242   2.919  0.2363  0.7787 -0.1542
   20SAPS   C25 2571   5.588   5.345   2.929  0.4927 -0.3500  0.2104
   20SAPS   H5R 2572   5.515   5.385   2.857 -0.2462 -1.7613  0.1512
   20SAPS   C26 2573   5.567   5.357   3.064  0.7873 -0.5959  0.5990
   20SAPS   H6R 2574   5.491   5.430   3.095 -0.6180 -1.6985 -0.1959
   20SAPS   C27 2575   5.650   5.294   3.174 -0.0577 -0.0502  0.1204
   20SAPS   H7R 2576   5.731   5.230   3.135 -0.8485  0.3607 -2.3905
   20SAPS   H7S 2577   5.580   5.226   3.229 -1.2993  1.7140  0.8392
   20SAPS   C28 2578   5.698   5.404   3.265  0.1328 -0.3318 -0.1425
   20SAPS   H8R 2579   5.736   5.494   3.215  0.4017  1.6231  3.2605
   20SAPS   C29 2580   5.710   5.416   3.396 -0.5406  0.4484 -0.1010
   20SAPS   H9R 2581   5.758   5.506   3.438  1.6661 -1.8400  2.7619
   20SAPS  C210 2582   5.675   5.306   3.495  0.0269  0.3293 -1.1117
   20SAPS  H10R 2583   5.764   5.275   3.555  0.7040 -0.1062 -2.3007
   20SAPS  H10S 2584   5.637   5.211   3.451 -0.8874  0.3863 -0.4601
   20SAPS  C211 2585   5.571   5.368   3.589  0.6677  0.7001 -0.1274
   20SAPS  H11R 2586   5.471   5.358   3.546  0.3852 -1.0325  0.8390
   20SAPS  C212 2587   5.597   5.429   3.708 -0.3143  0.5753 -0.4789
   20SAPS  H12R 2588   5.519   5.482   3.765  1.4175  2.5667  0.1727
   20SAPS  C213 2589   5.736   5.417   3.782 -0.7416 -0.7009 -0.2564
   20SAPS  H13R 2590   5.806   5.461   3.709 -0.8665 -0.9081 -0.5055
   20SAPS  H13S 2591   5.766   5.310   3.789  0.7987 -0.1929  1.8092
   20SAPS  C214 2592   5.731   5.468   3.923  0.8108 -0.2630  0.0021
   20SAPS  H14R 2593   5.766   5.572   3.933 -1.3229  0.5832 -0.8238
   20SAPS  C215 2594   5.716   5.398   4.034 -0.8182 -0.1662 -1.0788
   20SAPS  H15R 2595   5.714   5.455   4.129  1.2674  0.2843 -1.2619
   20SAPS  C216 2596   5.669   5.262   4.042 -0.1622  0.4666  0.4641
   20SAPS  H16R 2597   5.649   5.211   3.945 -0.7190 -0.8637  1.2499
   20SAPS  H16S 2598   5.565   5.280   4.078  1.3669  3.9712  3.8969
   20SAPS  C217 2599   5.751   5.173   4.126  0.0464  0.5553 -0.1771
   20SAPS  H17R 2600   5.850   5.137   4.091 -0.3116  0.1427 -0.7735
   20SAPS  H17S 2601   5.692   5.080   4.142  0.9298  0.3256  2.1360
   20SAPS  C218 2602   5.785   5.225   4.266 -0.4189  0.3606 -0.2429
   20SAPS  H18R 2603   5.702   5.251   4.335  1.8439  1.2661  2.3419
   20SAPS  H18S 2604   5.845   5.318   4.260 -1.2461  0.9046 -0.2170
   20SAPS  C219 2605   5.858   5.126   4.360  0.2449 -0.5173 -0.3071
   20SAPS  H19R 2606   5.809   5.027   4.361 -0.8455 -0.0289  2.1268
   20SAPS  H19S 2607   5.844   5.159   4.466 -3.2364 -0.2357 -0.7683
   20SAPS  C220 2608   6.005   5.102   4.335  0.0800 -0.1219 -0.3067
   20SAPS  H20R 2609   6.067   5.193   4.321  1.7542 -1.3654 -1.2648
   20SAPS  H20S 2610   6.005   5.056   4.234  0.1883 -2.4333  0.6943
   20SAPS  H20T 2611   6.048   5.023   4.400  1.1904  0.6511 -0.0725
   20SAPS   C33 2612   5.583   4.541   3.202  0.7160  0.0847 -0.4806
   20SAPS   H3X 2613   5.610   4.648   3.192  0.4614  0.3226  1.1075
   20SAPS   H3Y 2614   5.681   4.500   3.234  0.9016  0.5353 -0.4664
   20SAPS   C34 2615   5.492   4.511   3.324 -0.0757  0.5515  0.5761
   20SAPS   H4X 2616   5.473   4.402   3.319 -2.1848  0.8974 -0.7381
   20SAPS   H4Y 2617   5.398   4.568   3.303 -0.5491 -0.9550 -1.7613
   20SAPS   C35 2618   5.552   4.557   3.455 -0.3803  0.2814  0.6401
   20SAPS   H5X 2619   5.568   4.666   3.442 -1.5935  0.6312  1.8203
   20SAPS   H5Y 2620   5.652   4.510   3.464 -0.9460 -0.8917  0.9757
   20SAPS   C36 2621   5.462   4.520   3.565 -0.3388  0.3751 -0.0033
   20SAPS   H6X 2622   5.446   4.410   3.574 -1.1769  0.1536 -3.1209
   20SAPS   H6Y 2623   5.361   4.555   3.533 -0.6362 -0.1056  0.3741
   20SAPS   C37 2624   5.505   4.585   3.695  0.0866  0.3006  0.2713
   20SAPS   H7X 2625   5.447   4.679   3.708 -1.2852 -0.5542  0.4689
   20SAPS   H7Y 2626   5.614   4.601   3.683  0.1950 -0.9212 -0.5187
   20SAPS   C38 2627   5.481   4.496   3.813  0.2190  0.3210  0.6414
   20SAPS   H8X 2628   5.515   4.394   3.786  0.3632  0.8207 -1.2575
   20SAPS   H8Y 2629   5.372   4.492   3.833 -0.0942  0.3683 -0.9004
   20SAPS   C39 2630   5.549   4.538   3.946 -0.7143 -0.9832 -0.1759
   20SAPS   H9X 2631   5.493   4.622   3.991 -1.7905 -2.9274  2.3393
   20SAPS   H9Y 2632   5.654   4.564   3.919 -0.6503 -0.9012  0.1573
   20SAPS  C310 2633   5.558   4.427   4.052 -0.3140  0.2876 -0.5496
   20SAPS  H10X 2634   5.625   4.344   4.023 -2.1648 -2.2933  2.0104
   20SAPS  H10Y 2635   5.457   4.386   4.077  0.5272 -1.4101  0.1968
   20SAPS  C311 2636   5.599   4.478   4.191  0.6613 -0.1421  0.6967
   20SAPS  H11X 2637   5.706   4.501   4.206  1.1417 -0.1805 -2.1546
   20SAPS  H11Y 2638   5.566   4.389   4.249 -0.2518  1.1093  2.1854
   20SAPS  C312 2639   5.522   4.595   4.242  0.1336 -0.2428  0.2960
   20SAPS  H12X 2640   5.415   4.603   4.213 -0.5309 -1.0187  2.3645
   20SAPS  H12Y 2641   5.574   4.686   4.205  1.0401 -0.7546  0.3038
   20SAPS  C313 2642   5.520   4.591   4.392  0.6106 -0.3808 -0.7547
   20SAPS  H13X 2643   5.621   4.610   4.434  0.2841  2.9347 -1.1811
   20SAPS  H13Y 2644   5.496   4.488   4.426 -0.9144  0.6478  1.4483
   20SAPS  C314 2645   5.419   4.695   4.451  0.6270  0.3973 -0.0467
   20SAPS  H14X 2646   5.318   4.663   4.419  0.5976 -0.7857  1.1291
   20SAPS  H14Y 2647   5.443   4.797   4.414  0.7251  0.8906  1.2848
   20SAPS  C315 2648   5.426   4.696   4.605  0.3531 -0.4847 -0.3435
   20SAPS  H15X 2649   5.529   4.727   4.634  0.5124 -0.1444 -1.2291
   20SAPS  H15Y 2650   5.393   4.599   4.647  0.3056 -1.3495 -2.2568
   20SAPS  C316 2651   5.331   4.802   4.660  0.2663 -0.0118  0.6207
   20SAPS  H16X 2652   5.227   4.794   4.621  0.3091  2.4833 -0.1558
   20SAPS  H16Y 2653   5.378   4.894   4.619 -1.7916  0.6850 -0.2890
   20SAPS  C317 2654   5.328   4.814   4.814  0.3369  0.3027 -0.1040
   20SAPS  H17X 2655   5.273   4.903   4.852  1.3593  0.9282 -0.0574
   20SAPS  H17Y 2656   5.435   4.834   4.835 -0.1252  1.7231  1.0878
   20SAPS  C318 2657   5.279   4.695   4.894  0.3950  0.3004 -0.5295
   20SAPS  H18X 2658   5.306   4.594   4.858 -0.5502  0.1807 -0.9230
   20SAPS  H18Y 2659   5.169   4.714   4.894  0.5285  1.5054 -3.3109
   20SAPS  H18Z 2660   5.326   4.705   4.995  0.0437  5.0825 -0.6046
   21CHL1    C3 2661   1.613   2.776   6.034 -0.2108  0.2436 -0.0975
   21CHL1    H3 2662   1.574   2.878   6.010 -0.7452 -0.1627 -0.9909
   21CHL1    O3 2663   1.588   2.756   6.172 -0.3070 -0.0133 -0.2903
   21CHL1   H3' 2664   1.625   2.831   6.219 -0.9690 -0.7455  1.5076
   21CHL1    C4 2665   1.514   2.671   5.964  0.3445 -0.5636 -0.4340
   21CHL1   H4A 2666   1.524   2.566   6.001  1.8025 -0.5331 -0.6931
   21CHL1   H4B 2667   1.408   2.702   5.981  0.8286 -0.0565  2.1800
   21CHL1    C5 2668   1.542   2.682   5.816 -0.4203 -0.2088 -0.0739
   21CHL1    C6 2669   1.448   2.724   5.725 -0.3039  0.0060  0.2106
   21CHL1    H6 2670   1.347   2.752   5.756 -0.0793 -0.7330  1.7111
   21CHL1    C7 2671   1.480   2.714   5.581  0.0092  0.1974  0.1478
   21CHL1   H7A 2672   1.390   2.681   5.525 -0.2490  1.5152 -0.2565
   21CHL1   H7B 2673   1.506   2.815   5.544 -0.7389  1.0562  1.8235
   21CHL1    C8 2674   1.595   2.612   5.540 -0.0654 -0.5916  0.1383
   21CHL1    H8 2675   1.554   2.509   5.546 -1.6786 -0.0498 -0.8642
   21CHL1   C14 2676   1.635   2.639   5.399 -0.8246  0.0204 -0.3619
   21CHL1   H14 2677   1.664   2.746   5.387 -0.3772 -0.0465  0.1082
   21CHL1   C15 2678   1.518   2.629   5.298  0.1797  0.3563 -0.0893
   21CHL1  H15A 2679   1.457   2.542   5.330  1.0405  0.4685  2.0375
   21CHL1  H15B 2680   1.451   2.717   5.309 -0.3494  0.0062 -0.5044
   21CHL1   C16 2681   1.577   2.608   5.165  0.5206 -0.0004  0.0841
   21CHL1  H16A 2682   1.545   2.511   5.120  0.2225 -0.6819  1.6990
   21CHL1  H16B 2683   1.570   2.694   5.096  2.5674  0.8902  0.9113
   21CHL1   C17 2684   1.731   2.594   5.191  0.1015  0.1510  0.5529
   21CHL1   H17 2685   1.770   2.697   5.176  1.0636 -0.3015 -0.1771
   21CHL1   C13 2686   1.748   2.560   5.342 -0.1382  0.6977 -0.2410
   21CHL1   C18 2687   1.727   2.407   5.361 -0.6303 -0.1277  0.0868
   21CHL1  H18A 2688   1.648   2.362   5.297  0.3953 -1.7930 -0.0677
   21CHL1  H18B 2689   1.822   2.358   5.331 -0.2972  0.5329  0.0612
   21CHL1  H18C 2690   1.716   2.399   5.471  2.7699  0.6461  0.5871
   21CHL1   C12 2691   1.872   2.602   5.419  0.7361 -0.1972  0.7616
   21CHL1  H12A 2692   1.966   2.558   5.378  1.1543  1.4047 -0.0994
   21CHL1  H12B 2693   1.882   2.709   5.392 -0.2411  0.0122  1.1982
   21CHL1   C11 2694   1.854   2.576   5.569  0.8196 -0.5833 -0.5639
   21CHL1  H11A 2695   1.852   2.468   5.595  2.5074 -0.2221  1.3390
   21CHL1  H11B 2696   1.950   2.612   5.610  0.2707  1.1821 -0.7162
   21CHL1    C9 2697   1.721   2.646   5.623  0.6304  0.0308 -0.4155
   21CHL1    H9 2698   1.739   2.755   5.607  0.4529  0.3989  1.6820
   21CHL1   C10 2699   1.689   2.644   5.776  0.0627  1.3060  0.1819
   21CHL1   C19 2700   1.716   2.493   5.811  0.1541  0.0895  0.0030
   21CHL1  H19A 2701   1.656   2.430   5.742  0.5474  0.7438 -0.9572
   21CHL1  H19B 2702   1.823   2.464   5.803  0.1597  0.5808 -2.6610
   21CHL1  H19C 2703   1.699   2.471   5.919  2.6397  1.9350  0.8677
   21CHL1    C1 2704   1.784   2.739   5.852  0.3923 -0.8568 -0.3679
   21CHL1   H1A 2705   1.891   2.713   5.836  1.5654  1.8997  2.0984
   21CHL1   H1B 2706   1.776   2.843   5.813  2.2510 -0.7761 -0.6479
   21CHL1    C2 2707   1.758   2.750   6.005 -0.2148  0.0823 -0.0669
   21CHL1   H2A 2708   1.817   2.833   6.049 -2.4316  1.4273  0.5307
   21CHL1   H2B 2709   1.794   2.657   6.054 -1.0879 -2.0190 -3.1118
   21CHL1   C20 2710   1.795   2.507   5.084  0.7436 -0.1433 -0.3804
   21CHL1   H20 2711   1.754   2.406   5.102  1.3206 -0.3359 -0.1449
   21CHL1   C21 2712   1.945   2.518   5.110  0.1819  0.2664 -0.0981
   21CHL1  H21A 2713   1.996   2.457   5.032 -1.2771  1.0928 -1.7663
   21CHL1  H21B 2714   1.970   2.462   5.202  0.7317 -0.6962 -0.8135
   21CHL1  H21C 2715   1.998   2.615   5.100  1.2014 -0.3161 -0.5141
   21CHL1   C22 2716   1.759   2.554   4.941  0.3610 -0.4244  0.4269
   21CHL1  H22A 2717   1.648   2.550   4.929  0.3011  0.5703  0.5470
   21CHL1  H22B 2718   1.781   2.663   4.933 -1.6004  0.1418  1.7263
   21CHL1   C23 2719   1.830   2.475   4.836  0.2786  0.1600  1.1091
   21CHL1  H23A 2720   1.933   2.515   4.822  0.2408  0.3861  1.4665
   21CHL1  H23B 2721   1.844   2.375   4.881 -1.7879  0.5044  2.6663
   21CHL1   C24 2722   1.745   2.480   4.705 -0.8939  0.1339  0.7181
   21CHL1  H24A 2723   1.800   2.432   4.622 -1.6971 -2.0866  1.4003
   21CHL1  H24B 2724   1.654   2.416   4.703 -2.1028  1.7709  0.9604
   21CHL1   C25 2725   1.715   2.620   4.656  0.2556  0.0130  0.5582
   21CHL1   H25 2726   1.675   2.676   4.743 -0.5211  2.1014 -1.0621
   21CHL1   C26 2727   1.846   2.693   4.608  0.4748  0.3186  0.3364
   21CHL1  H26A 2728   1.865   2.681   4.499 -3.2184 -0.9694 -0.2963
   21CHL1  H26B 2729   1.832   2.799   4.636 -1.5728  0.1296  0.1812
   21CHL1  H26C 2730   1.939   2.660   4.660  0.0654 -1.3933  0.0653
   21CHL1   C27 2731   1.610   2.624   4.543  0.3213  0.1352  0.1216
   21CHL1  H27A 2732   1.523   2.568   4.583  0.3513 -0.0830 -0.1152
   21CHL1  H27B 2733   1.571   2.725   4.519 -0.3885 -0.1926 -0.1266
   21CHL1  H27C 2734   1.636   2.580   4.444  0.7404  0.0819  0.2544
   22CHL1    C3 2735   3.538   0.750   5.709 -0.2705 -0.3159 -0.9016
   22CHL1    H3 2736   3.646   0.771   5.728 -1.1446  1.7466  2.7489
   22CHL1    O3 2737   3.487   0.698   5.834  0.5709  0.3043 -0.4633
   22CHL1   H3' 2738   3.511   0.771   5.891  1.3201  0.2772 -0.7278
   22CHL1    C4 2739   3.474   0.888   5.673 -0.3656  0.3885  0.4135
   22CHL1   H4A 2740   3.363   0.881   5.678 -0.3882  1.3849  3.3828
   22CHL1   H4B 2741   3.501   0.957   5.756 -2.1297 -0.5183  1.8143
   22CHL1    C5 2742   3.501   0.946   5.535  0.1581 -0.3509  0.0206
   22CHL1    C6 2743   3.530   1.079   5.526 -0.1751  0.3965 -0.3798
   22CHL1    H6 2744   3.531   1.139   5.618  0.7512 -0.8602  0.4617
   22CHL1    C7 2745   3.559   1.156   5.398  0.8614 -0.1852  0.5129
   22CHL1   H7A 2746   3.496   1.247   5.414  1.8848  0.2141  2.6698
   22CHL1   H7B 2747   3.667   1.181   5.393  0.5731  1.4677  1.5899
   22CHL1    C8 2748   3.504   1.076   5.274 -0.6112  0.4142  0.0025
   22CHL1    H8 2749   3.394   1.091   5.275 -0.9613 -1.7124  0.8752
   22CHL1   C14 2750   3.562   1.124   5.144  0.3932 -0.6075  0.2967
   22CHL1   H14 2751   3.671   1.101   5.134  0.3869 -0.6925  0.4355
   22CHL1   C15 2752   3.561   1.275   5.116  0.9401 -0.3230  0.3784
   22CHL1  H15A 2753   3.467   1.319   5.156  1.4065 -0.5520  1.7734
   22CHL1  H15B 2754   3.640   1.326   5.175  0.2997  0.2208  0.7757
   22CHL1   C16 2755   3.577   1.290   4.963 -0.9510  0.3283 -0.5968
   22CHL1  H16A 2756   3.507   1.362   4.916 -0.0812  1.1057 -0.7396
   22CHL1  H16B 2757   3.675   1.341   4.950 -1.2305  1.1558  0.4498
   22CHL1   C17 2758   3.560   1.141   4.894 -0.0483 -0.1337 -0.8261
   22CHL1   H17 2759   3.659   1.096   4.874 -0.7858 -1.7993 -0.9311
   22CHL1   C13 2760   3.495   1.059   5.014 -0.6289 -1.0166 -0.2190
   22CHL1   C18 2761   3.341   1.086   5.010  0.4372 -0.7073 -0.0491
   22CHL1  H18A 2762   3.308   1.188   5.040  0.5425 -0.5324 -0.5084
   22CHL1  H18B 2763   3.294   1.056   4.914  1.6274 -0.1815 -0.8282
   22CHL1  H18C 2764   3.284   1.023   5.081  0.8915 -0.2356  0.7487
   22CHL1   C12 2765   3.526   0.914   5.012  0.8603 -0.0296 -0.1569
   22CHL1  H12A 2766   3.471   0.865   4.929 -1.8092 -0.2582  1.6501
   22CHL1  H12B 2767   3.636   0.899   5.001  0.8704  1.2261 -2.5890
   22CHL1   C11 2768   3.483   0.856   5.149 -0.2328 -0.2422 -0.5169
   22CHL1  H11A 2769   3.372   0.858   5.160 -0.1726 -1.9166  0.8609
   22CHL1  H11B 2770   3.503   0.747   5.140 -1.4158 -0.6756  1.4623
   22CHL1    C9 2771   3.537   0.924   5.282  0.2220  0.3275 -0.6861
   22CHL1    H9 2772   3.648   0.915   5.285  0.0523 -2.8441 -0.6751
   22CHL1   C10 2773   3.488   0.856   5.418 -0.9393  0.6777 -0.1588
   22CHL1   C19 2774   3.337   0.835   5.401  0.2991  0.4693 -0.0174
   22CHL1  H19A 2775   3.323   0.741   5.343  0.2921 -1.8098  3.4148
   22CHL1  H19B 2776   3.288   0.805   5.496 -0.2003  0.0611 -0.3951
   22CHL1  H19C 2777   3.284   0.918   5.349 -0.1919  0.7829  0.9736
   22CHL1    C1 2778   3.555   0.711   5.448  0.1149 -0.3683  0.4506
   22CHL1   H1A 2779   3.510   0.645   5.371 -2.7338  1.9365 -0.0516
   22CHL1   H1B 2780   3.664   0.727   5.441 -0.1689  1.4930 -0.4567
   22CHL1    C2 2781   3.519   0.651   5.589  0.1476  0.2844 -1.4448
   22CHL1   H2A 2782   3.573   0.555   5.599 -0.2439  0.0071 -1.9782
   22CHL1   H2B 2783   3.410   0.635   5.580  0.4095 -1.7671 -1.3573
   22CHL1   C20 2784   3.503   1.149   4.760  0.4218  0.2666  0.4343
   22CHL1   H20 2785   3.397   1.180   4.774  0.9157  1.8280  0.8619
   22CHL1   C21 2786   3.503   0.999   4.706  0.4583  0.0848 -0.5255
   22CHL1  H21A 2787   3.421   0.939   4.751 -1.5388  1.6153 -1.9357
   22CHL1  H21B 2788   3.609   0.963   4.710  0.4920  0.2059 -0.3661
   22CHL1  H21C 2789   3.471   0.988   4.600 -0.0406 -1.4887 -0.2396
   22CHL1   C22 2790   3.575   1.245   4.660  0.1967 -0.7835 -0.2336
   22CHL1  H22A 2791   3.561   1.350   4.692  0.2782 -0.9583  0.3883
   22CHL1  H22B 2792   3.683   1.220   4.668  0.4128 -0.1497 -1.0979
   22CHL1   C23 2793   3.540   1.243   4.512 -0.6886  0.0464  0.9084
   22CHL1  H23A 2794   3.585   1.151   4.470  1.4863  0.1693  2.7606
   22CHL1  H23B 2795   3.430   1.241   4.497 -1.0442  1.6553  2.7255
   22CHL1   C24 2796   3.596   1.364   4.434  0.3890 -0.2555  0.1621
   22CHL1  H24A 2797   3.556   1.448   4.494  0.3974 -0.3294  0.2715
   22CHL1  H24B 2798   3.706   1.355   4.433  0.3423 -1.1040  1.4021
   22CHL1   C25 2799   3.532   1.376   4.292  0.4419  0.0375 -0.1586
   22CHL1   H25 2800   3.424   1.382   4.314  0.5694  2.4044  0.0941
   22CHL1   C26 2801   3.561   1.503   4.212  0.8284  0.1271 -0.4829
   22CHL1  H26A 2802   3.669   1.497   4.187  1.3422 -1.1609  1.7488
   22CHL1  H26B 2803   3.485   1.504   4.131 -1.8232  0.5101  1.8578
   22CHL1  H26C 2804   3.556   1.596   4.271 -2.2902 -0.2341 -0.0199
   22CHL1   C27 2805   3.569   1.258   4.203 -0.2965  0.5141  0.1469
   22CHL1  H27A 2806   3.529   1.167   4.252 -0.3965  1.1317  1.2526
   22CHL1  H27B 2807   3.521   1.258   4.103 -1.1192 -0.5842  0.5157
   22CHL1  H27C 2808   3.681   1.256   4.206 -0.3054  0.2419  2.2758
   23CHL1    C3 2809   2.078   2.410   6.045  1.0381  0.2700 -1.1550
   23CHL1    H3 2810   1.970   2.434   6.028  0.9355 -1.5328 -3.5229
   23CHL1    O3 2811   2.090   2.395   6.186 -0.2147 -0.1719  0.2373
   23CHL1   H3' 2812   2.181   2.370   6.202 -0.0673  0.5614  0.5893
   23CHL1    C4 2813   2.116   2.275   5.991 -0.3114  0.5725  0.6749
   23CHL1   H4A 2814   2.219   2.250   6.025 -0.6155 -0.7850  0.6779
   23CHL1   H4B 2815   2.051   2.189   6.019 -3.6491  2.1792 -1.3982
   23CHL1    C5 2816   2.126   2.283   5.842 -0.3254 -0.0754 -0.4061
   23CHL1    C6 2817   2.072   2.190   5.760  0.3161  0.3779 -0.2106
   23CHL1    H6 2818   2.003   2.118   5.805  0.9611 -0.3456 -0.3667
   23CHL1    C7 2819   2.082   2.198   5.611 -0.5937 -0.4440  0.2572
   23CHL1   H7A 2820   2.084   2.095   5.569  0.0489 -0.7689  1.0684
   23CHL1   H7B 2821   1.991   2.244   5.567 -0.4422  0.6660  1.0707
   23CHL1    C8 2822   2.208   2.274   5.563 -0.5244 -0.2692 -0.5142
   23CHL1    H8 2823   2.303   2.224   5.590  1.1261  2.9446  0.0621
   23CHL1   C14 2824   2.199   2.277   5.407 -0.1682  0.0834 -0.7225
   23CHL1   H14 2825   2.102   2.330   5.395  0.0246  1.2327  1.9533
   23CHL1   C15 2826   2.192   2.147   5.322  0.5098  0.9825  0.1274
   23CHL1  H15A 2827   2.285   2.087   5.327 -0.7651 -1.0959  0.1537
   23CHL1  H15B 2828   2.100   2.086   5.332  0.2429  1.2831 -0.4160
   23CHL1   C16 2829   2.203   2.209   5.175  0.3550  0.5038 -0.9795
   23CHL1  H16A 2830   2.247   2.135   5.105 -0.8487 -1.8195  0.5479
   23CHL1  H16B 2831   2.096   2.223   5.150 -0.0614 -0.1128  0.3233
   23CHL1   C17 2832   2.276   2.348   5.194  0.4632  0.2093  0.2014
   23CHL1   H17 2833   2.196   2.424   5.176 -0.2538 -0.3377  1.0026
   23CHL1   C13 2834   2.309   2.371   5.344  0.0461 -0.2386  0.5765
   23CHL1   C18 2835   2.449   2.315   5.380  0.1398  0.5248 -0.5367
   23CHL1  H18A 2836   2.473   2.324   5.488  3.3779  0.2050 -1.1309
   23CHL1  H18B 2837   2.453   2.210   5.346  0.8996 -0.9146  3.4943
   23CHL1  H18C 2838   2.535   2.366   5.330  0.7274 -0.6590 -0.7677
   23CHL1   C12 2839   2.282   2.509   5.404  0.2145  0.0643  0.8456
   23CHL1  H12A 2840   2.354   2.577   5.354 -0.7829 -0.3094 -1.1873
   23CHL1  H12B 2841   2.194   2.566   5.367  1.1883  0.5043 -0.9015
   23CHL1   C11 2842   2.297   2.513   5.552  0.1141  0.9843 -0.6485
   23CHL1  H11A 2843   2.403   2.508   5.582 -0.3483  0.6943  1.0532
   23CHL1  H11B 2844   2.269   2.615   5.588  0.0212  0.7612 -0.0638
   23CHL1    C9 2845   2.207   2.417   5.623  0.7446 -0.0709  0.0107
   23CHL1    H9 2846   2.104   2.450   5.597  0.5266  0.6960  1.6899
   23CHL1   C10 2847   2.218   2.401   5.782 -0.5850 -0.0635  0.1946
   23CHL1   C19 2848   2.369   2.372   5.810  0.1353  0.2358 -0.2052
   23CHL1  H19A 2849   2.422   2.461   5.771  0.1091  0.7488  0.8944
   23CHL1  H19B 2850   2.385   2.377   5.920 -1.1139  3.3661 -0.0600
   23CHL1  H19C 2851   2.414   2.277   5.775  0.6542  0.1127  0.7576
   23CHL1    C1 2852   2.176   2.534   5.844  0.3432  0.2156 -0.3168
   23CHL1   H1A 2853   2.253   2.611   5.820 -2.4570  3.0165 -1.0378
   23CHL1   H1B 2854   2.085   2.582   5.803  0.9357  1.0931 -0.6420
   23CHL1    C2 2855   2.168   2.526   6.002 -0.1191  0.1407  1.0392
   23CHL1   H2A 2856   2.124   2.621   6.041 -0.3110  0.1864  0.7190
   23CHL1   H2B 2857   2.270   2.514   6.043  0.0435 -0.3143  0.5119
   23CHL1   C20 2858   2.392   2.380   5.090 -0.4181  0.2424 -0.3143
   23CHL1   H20 2859   2.486   2.323   5.100 -0.4575  0.1238 -0.6298
   23CHL1   C21 2860   2.439   2.526   5.101 -0.4056 -0.1775 -0.3709
   23CHL1  H21A 2861   2.499   2.548   5.192 -0.1649 -1.8501 -0.0949
   23CHL1  H21B 2862   2.353   2.597   5.100 -1.1217 -1.0130  0.3374
   23CHL1  H21C 2863   2.506   2.535   5.013 -0.0682 -1.5148 -0.2720
   23CHL1   C22 2864   2.360   2.329   4.946 -0.5609 -0.4475  0.1966
   23CHL1  H22A 2865   2.456   2.357   4.898 -2.0626  0.5021 -2.5079
   23CHL1  H22B 2866   2.348   2.219   4.941 -1.5700 -0.4449  1.8826
   23CHL1   C23 2867   2.255   2.401   4.871 -0.1592  0.0966  0.0698
   23CHL1  H23A 2868   2.153   2.383   4.913 -0.1553  0.5833  0.2950
   23CHL1  H23B 2869   2.276   2.509   4.887  1.8417  0.0923 -2.1074
   23CHL1   C24 2870   2.258   2.369   4.725 -0.2022 -0.6010  0.1010
   23CHL1  H24A 2871   2.269   2.265   4.687  0.9474 -0.2988 -0.4537
   23CHL1  H24B 2872   2.164   2.407   4.681  0.4069  0.6908 -0.1394
   23CHL1   C25 2873   2.366   2.440   4.648 -0.2748 -0.3865  0.1181
   23CHL1   H25 2874   2.460   2.433   4.706  0.8191 -0.3618 -1.6011
   23CHL1   C26 2875   2.396   2.374   4.510  0.0999 -0.7420  0.1361
   23CHL1  H26A 2876   2.303   2.386   4.450 -1.3119 -2.5849  1.8273
   23CHL1  H26B 2877   2.489   2.419   4.470  0.9330 -2.1798  0.3912
   23CHL1  H26C 2878   2.428   2.268   4.522  0.1943 -0.8472 -0.9488
   23CHL1   C27 2879   2.339   2.592   4.632  0.6522  0.1387 -0.3398
   23CHL1  H27A 2880   2.236   2.600   4.591  0.3563 -2.7113 -0.3836
   23CHL1  H27B 2881   2.352   2.650   4.726  0.3970  0.6835 -0.6356
   23CHL1  H27C 2882   2.404   2.620   4.547  0.7380 -1.8818 -0.9844
   24CHL1    C3 2883   3.473   2.661   5.700 -0.2529  0.2826 -0.5270
   24CHL1    H3 2884   3.537   2.574   5.672  0.2025  0.8039 -1.1623
   24CHL1    O3 2885   3.437   2.665   5.841 -0.8328  0.3088 -0.5636
   24CHL1   H3' 2886   3.518   2.657   5.892 -0.6064 -0.2260 -0.9982
   24CHL1    C4 2887   3.554   2.792   5.656  0.0691  0.5111  0.3289
   24CHL1   H4A 2888   3.497   2.883   5.687  0.3855  0.4851  0.9900
   24CHL1   H4B 2889   3.649   2.794   5.713  0.3543  0.9792 -0.1477
   24CHL1    C5 2890   3.582   2.798   5.506 -0.7486 -0.2901 -0.2464
   24CHL1    C6 2891   3.706   2.812   5.452 -0.5707 -0.7619  0.3587
   24CHL1    H6 2892   3.791   2.829   5.519 -1.0014  0.1094  0.6916
   24CHL1    C7 2893   3.734   2.824   5.302  0.7173  0.5853 -0.7461
   24CHL1   H7A 2894   3.800   2.911   5.282 -0.0131  1.2275 -0.4063
   24CHL1   H7B 2895   3.792   2.737   5.265  1.4002  0.4050  0.7107
   24CHL1    C8 2896   3.602   2.852   5.220  0.3773  0.0343 -0.3342
   24CHL1    H8 2897   3.559   2.951   5.249 -1.8480 -1.2392  1.0343
   24CHL1   C14 2898   3.631   2.832   5.070 -0.3474 -0.1070 -0.2651
   24CHL1   H14 2899   3.665   2.726   5.066  0.7940  0.2736 -1.1941
   24CHL1   C15 2900   3.746   2.923   5.018  0.0800 -0.4080  0.6398
   24CHL1  H15A 2901   3.755   3.025   5.062 -0.2320  1.3109 -2.9460
   24CHL1  H15B 2902   3.845   2.876   5.038  0.3924  0.4565  1.1780
   24CHL1   C16 2903   3.713   2.931   4.868  0.2980  0.0359 -0.1036
   24CHL1  H16A 2904   3.681   3.036   4.851 -0.4693  0.3329  2.7210
   24CHL1  H16B 2905   3.794   2.883   4.809  0.5803 -0.0119  0.3276
   24CHL1   C17 2906   3.580   2.851   4.842 -0.0342  0.2621 -0.3650
   24CHL1   H17 2907   3.612   2.747   4.824  1.6978  0.5117  1.0124
   24CHL1   C13 2908   3.509   2.848   4.980  0.4363 -0.4792  0.5550
   24CHL1   C18 2909   3.443   2.990   5.013  0.5039  0.1600 -0.2017
   24CHL1  H18A 2910   3.387   3.001   5.108  0.6442  2.1561 -0.3087
   24CHL1  H18B 2911   3.519   3.070   5.007  0.8652  0.0533  2.2432
   24CHL1  H18C 2912   3.363   3.009   4.938 -0.3388 -0.4367  0.5222
   24CHL1   C12 2913   3.411   2.731   5.015  0.8999  0.7505 -0.4152
   24CHL1  H12A 2914   3.320   2.741   4.953  1.9747  0.6011 -2.0759
   24CHL1  H12B 2915   3.466   2.638   4.986  1.0543  0.1508  1.6201
   24CHL1   C11 2916   3.371   2.732   5.163 -0.3110  0.3079  0.0885
   24CHL1  H11A 2917   3.308   2.819   5.188 -0.9904  0.0726 -0.7470
   24CHL1  H11B 2918   3.316   2.641   5.197 -0.4178  0.4405  0.2704
   24CHL1    C9 2919   3.496   2.753   5.266 -0.0483  0.0560  0.2391
   24CHL1    H9 2920   3.548   2.655   5.261 -1.7439 -0.8636 -0.2734
   24CHL1   C10 2921   3.456   2.782   5.420 -1.0090  0.3498  0.5563
   24CHL1   C19 2922   3.380   2.918   5.433 -0.4310  0.0499 -0.0975
   24CHL1  H19A 2923   3.304   2.929   5.353 -0.7689 -0.1048  0.1984
   24CHL1  H19B 2924   3.318   2.922   5.525  1.1393  0.2943  1.0086
   24CHL1  H19C 2925   3.447   3.007   5.428  0.4127 -0.3429  2.4487
   24CHL1    C1 2926   3.374   2.659   5.458  0.0086 -0.2368  0.3925
   24CHL1   H1A 2927   3.276   2.670   5.408  0.0625  0.5457  0.4488
   24CHL1   H1B 2928   3.423   2.567   5.420  0.0523  0.3948 -1.1613
   24CHL1    C2 2929   3.346   2.661   5.608 -0.0569  0.3468 -0.0302
   24CHL1   H2A 2930   3.286   2.577   5.649 -1.7072  0.9419 -1.0977
   24CHL1   H2B 2931   3.279   2.747   5.633 -1.0196 -0.7742  1.3884
   24CHL1   C20 2932   3.492   2.905   4.724  0.2212 -0.3506 -0.0162
   24CHL1   H20 2933   3.474   3.011   4.751 -0.5636 -0.2282 -0.9573
   24CHL1   C21 2934   3.353   2.836   4.711  0.7287  0.4840 -0.3238
   24CHL1  H21A 2935   3.368   2.726   4.706  2.8634  0.7875 -3.4270
   24CHL1  H21B 2936   3.301   2.854   4.614  0.9706  1.1450 -0.3360
   24CHL1  H21C 2937   3.287   2.866   4.796  0.5990  0.1175 -0.2923
   24CHL1   C22 2938   3.575   2.896   4.593  0.6066 -0.1029  0.2226
   24CHL1  H22A 2939   3.673   2.942   4.618 -0.8667  2.7480  1.1845
   24CHL1  H22B 2940   3.589   2.792   4.557 -0.3597 -0.0668 -0.2899
   24CHL1   C23 2941   3.511   2.964   4.471 -0.3943 -1.0256  0.0258
   24CHL1  H23A 2942   3.432   2.902   4.423 -0.6273 -1.7572  1.3218
   24CHL1  H23B 2943   3.471   3.063   4.499  0.2187 -0.1652 -1.9801
   24CHL1   C24 2944   3.611   2.990   4.359  0.3341  0.1033 -0.1858
   24CHL1  H24A 2945   3.704   3.038   4.397  2.0091 -1.6841 -1.8424
   24CHL1  H24B 2946   3.650   2.895   4.318  0.3940 -0.6039  1.4376
   24CHL1   C25 2947   3.568   3.078   4.237  0.7333 -0.2871  0.1067
   24CHL1   H25 2948   3.656   3.118   4.181  2.6902 -1.8092  1.9428
   24CHL1   C26 2949   3.501   2.984   4.124 -0.2096 -0.6015 -0.2540
   24CHL1  H26A 2950   3.472   3.045   4.035  1.2111  0.5430  0.0268
   24CHL1  H26B 2951   3.577   2.908   4.095  1.4992  1.2338 -0.8064
   24CHL1  H26C 2952   3.409   2.931   4.155 -0.5694  0.0014 -0.2847
   24CHL1   C27 2953   3.476   3.192   4.275  0.4067 -0.3292 -0.3901
   24CHL1  H27A 2954   3.376   3.150   4.301  0.4567 -0.5933 -0.6207
   24CHL1  H27B 2955   3.508   3.254   4.361 -0.6341 -1.5018  0.8794
   24CHL1  H27C 2956   3.465   3.264   4.191 -1.7395  0.9291  0.8579
   25CHL1    C3 2957   6.785   4.307   6.065 -0.3456 -0.2444  0.6310
   25CHL1    H3 2958   6.689   4.257   6.041 -0.0409 -0.5557  0.0302
   25CHL1    O3 2959   6.825   4.299   6.198  0.0392  0.6389 -0.0092
   25CHL1   H3' 2960   6.751   4.330   6.250 -0.0865 -1.7647  1.4007
   25CHL1    C4 2961   6.896   4.251   5.978 -0.3571  0.2429  0.0062
   25CHL1   H4A 2962   6.994   4.297   6.005  1.6868 -3.1932 -0.9622
   25CHL1   H4B 2963   6.915   4.145   6.004  0.0750  0.5009  0.7880
   25CHL1    C5 2964   6.857   4.274   5.836 -1.0642 -0.0256 -0.0166
   25CHL1    C6 2965   6.835   4.171   5.751  0.6917  0.5563 -0.2501
   25CHL1    H6 2966   6.847   4.064   5.776  0.5759  0.9670  1.7609
   25CHL1    C7 2967   6.808   4.186   5.608  0.0861 -0.5096  0.0297
   25CHL1   H7A 2968   6.857   4.112   5.541 -1.7601 -0.1659 -1.8166
   25CHL1   H7B 2969   6.697   4.183   5.600 -0.0319  2.4183 -0.5842
   25CHL1    C8 2970   6.845   4.332   5.562  0.9029  0.9515 -0.0697
   25CHL1    H8 2971   6.956   4.328   5.553  0.7393 -1.2215 -2.2375
   25CHL1   C14 2972   6.791   4.359   5.421 -0.6584  0.6826 -0.0349
   25CHL1   H14 2973   6.682   4.367   5.441 -0.6745 -0.0678  0.1820
   25CHL1   C15 2974   6.820   4.253   5.321 -0.0027  0.7998  0.3171
   25CHL1  H15A 2975   6.924   4.216   5.324  0.5046  2.1021 -0.3871
   25CHL1  H15B 2976   6.765   4.161   5.350  0.8825 -0.8830 -2.9523
   25CHL1   C16 2977   6.771   4.309   5.185 -0.3894 -0.2911 -0.4213
   25CHL1  H16A 2978   6.835   4.272   5.102  1.3174 -0.0930  0.7500
   25CHL1  H16B 2979   6.665   4.275   5.178 -0.3210 -0.4113 -0.9090
   25CHL1   C17 2980   6.772   4.464   5.211  0.1300 -0.9910  0.6077
   25CHL1   H17 2981   6.667   4.498   5.213 -0.0001 -1.4387  1.8329
   25CHL1   C13 2982   6.832   4.490   5.357 -0.6175 -0.0925 -0.2571
   25CHL1   C18 2983   6.986   4.497   5.356 -0.9216 -0.1078  0.3052
   25CHL1  H18A 2984   7.012   4.590   5.302  2.5866 -1.0299  0.2118
   25CHL1  H18B 2985   7.031   4.493   5.457  0.0944 -0.8516 -0.1706
   25CHL1  H18C 2986   7.023   4.415   5.292  1.2594  0.5058  0.7075
   25CHL1   C12 2987   6.758   4.602   5.442 -0.0147  0.3902  0.9136
   25CHL1  H12A 2988   6.776   4.702   5.398  0.1369  0.1266  0.3696
   25CHL1  H12B 2989   6.648   4.584   5.446  0.1965 -0.9067  1.5691
   25CHL1   C11 2990   6.808   4.589   5.586  0.4470  0.3464  0.2665
   25CHL1  H11A 2991   6.916   4.616   5.580  0.1121  1.5503 -0.6706
   25CHL1  H11B 2992   6.764   4.662   5.657  0.5761 -0.3643  1.0973
   25CHL1    C9 2993   6.791   4.441   5.652  0.1271  0.3061 -0.3271
   25CHL1    H9 2994   6.680   4.437   5.658  0.0738  1.3381 -0.3837
   25CHL1   C10 2995   6.843   4.426   5.799  0.4239  0.3428 -0.2086
   25CHL1   C19 2996   6.978   4.494   5.803  0.0072  0.2837 -0.0810
   25CHL1  H19A 2997   7.043   4.454   5.883  2.8014  4.3271 -0.0556
   25CHL1  H19B 2998   7.032   4.486   5.707  1.9410 -0.0034  0.9829
   25CHL1  H19C 2999   6.958   4.599   5.832  0.6605  0.7820 -1.3859
   25CHL1    C1 3000   6.742   4.491   5.903  0.0785 -0.0403  0.4591
   25CHL1   H1A 3001   6.744   4.600   5.877  2.6020  0.0127  0.6455
   25CHL1   H1B 3002   6.643   4.443   5.887  1.1616 -1.7250 -1.6203
   25CHL1    C2 3003   6.777   4.454   6.045  0.4888  0.3535 -0.4762
   25CHL1   H2A 3004   6.697   4.487   6.115  0.9479 -1.1281  0.8037
   25CHL1   H2B 3005   6.870   4.508   6.070  1.1855  0.5115 -3.1275
   25CHL1   C20 3006   6.830   4.543   5.087  0.2393  0.5178 -0.6091
   25CHL1   H20 3007   6.935   4.507   5.076 -0.4727 -1.3179 -1.9294
   25CHL1   C21 3008   6.822   4.692   5.125  0.2622  0.7203  0.0860
   25CHL1  H21A 3009   6.886   4.719   5.211 -0.6774 -1.8099  1.7262
   25CHL1  H21B 3010   6.721   4.735   5.143  0.8134  2.5471 -0.9779
   25CHL1  H21C 3011   6.867   4.749   5.042 -0.2403  0.1969 -0.5607
   25CHL1   C22 3012   6.758   4.527   4.951 -0.1686  0.4832  0.1603
   25CHL1  H22A 3013   6.808   4.575   4.865  1.1472 -2.0530 -0.5558
   25CHL1  H22B 3014   6.767   4.420   4.925 -0.1360  0.6670 -0.6016
   25CHL1   C23 3015   6.609   4.568   4.948 -0.5871  0.5117 -0.2567
   25CHL1  H23A 3016   6.560   4.522   5.036  2.0742  1.7223  2.0032
   25CHL1  H23B 3017   6.602   4.679   4.958  0.4670  0.5420  0.2994
   25CHL1   C24 3018   6.529   4.519   4.825 -0.3423  0.2773 -0.3972
   25CHL1  H24A 3019   6.564   4.585   4.742 -1.8563  0.6780 -0.7460
   25CHL1  H24B 3020   6.546   4.411   4.812  0.0732  0.3748 -0.6751
   25CHL1   C25 3021   6.378   4.541   4.845 -0.4088  0.4904 -0.0729
   25CHL1   H25 3022   6.353   4.488   4.939  0.4064 -3.1734 -1.7626
   25CHL1   C26 3023   6.332   4.684   4.839 -0.0192 -1.1437  0.2662
   25CHL1  H26A 3024   6.339   4.731   4.939 -0.1201 -0.8978  0.1600
   25CHL1  H26B 3025   6.406   4.740   4.777 -1.2765  0.3941  0.0835
   25CHL1  H26C 3026   6.234   4.691   4.787  0.0750  3.4045  0.2843
   25CHL1   C27 3027   6.315   4.465   4.727  0.6656 -0.0032  0.5381
   25CHL1  H27A 3028   6.208   4.459   4.759  0.3059 -0.3856 -0.6722
   25CHL1  H27B 3029   6.307   4.527   4.635 -0.5181 -0.7083  0.1352
   25CHL1  H27C 3030   6.363   4.370   4.695  2.0879  0.8818 -0.0591
   26CHL1    C3 3031   4.234   1.543   5.582 -0.4997  0.1054 -0.0514
   26CHL1    H3 3032   4.223   1.634   5.521  0.8688  1.1091  1.1219
   26CHL1    O3 3033   4.245   1.577   5.720 -0.2124  0.0883  0.3056
   26CHL1   H3' 3034   4.155   1.608   5.734  0.3268  1.2664  1.4470
   26CHL1    C4 3035   4.114   1.438   5.560 -0.3617 -0.6169 -0.6175
   26CHL1   H4A 3036   4.140   1.365   5.639 -1.2434 -0.9516 -0.6190
   26CHL1   H4B 3037   4.021   1.487   5.596 -0.9184  0.3898 -3.1920
   26CHL1    C5 3038   4.101   1.377   5.427 -0.5774  0.2899  0.6115
   26CHL1    C6 3039   3.992   1.377   5.350 -0.0291 -0.0877  0.4172
   26CHL1    H6 3040   3.901   1.427   5.388 -0.3194 -0.7324  0.5867
   26CHL1    C7 3041   3.979   1.311   5.214 -0.5387 -0.0640  0.6419
   26CHL1   H7A 3042   3.886   1.251   5.210 -0.1316 -0.7279  0.9726
   26CHL1   H7B 3043   3.975   1.394   5.139 -2.9094 -0.7741 -0.1073
   26CHL1    C8 3044   4.096   1.213   5.187 -0.8428  0.5521  0.1490
   26CHL1    H8 3045   4.082   1.132   5.261  3.3136 -0.8225 -0.3262
   26CHL1   C14 3046   4.094   1.177   5.040  0.3346  0.0384  0.2463
   26CHL1   H14 3047   4.121   1.272   4.990 -0.5704  0.4293  0.4841
   26CHL1   C15 3048   3.959   1.128   4.977  0.2955  0.0415 -0.0281
   26CHL1  H15A 3049   3.897   1.055   5.033 -1.2900  0.4089 -1.2470
   26CHL1  H15B 3050   3.888   1.211   4.958 -0.9285 -1.2137 -1.1611
   26CHL1   C16 3051   4.002   1.054   4.851 -0.6898 -0.4860  0.2601
   26CHL1  H16A 3052   3.969   0.948   4.858 -0.8025 -0.5848 -1.3763
   26CHL1  H16B 3053   3.944   1.095   4.765 -0.0528 -0.4800 -0.1727
   26CHL1   C17 3054   4.158   1.054   4.850 -0.3236 -1.0192  0.6607
   26CHL1   H17 3055   4.173   1.149   4.795  1.8466 -1.0306  1.1381
   26CHL1   C13 3056   4.206   1.085   4.989  0.1863  0.0165 -0.4399
   26CHL1   C18 3057   4.207   0.951   5.073  0.0418 -0.1082 -0.0389
   26CHL1  H18A 3058   4.110   0.897   5.079  0.1771 -0.3371  0.0882
   26CHL1  H18B 3059   4.278   0.880   5.024 -1.8966 -0.7739 -2.0639
   26CHL1  H18C 3060   4.236   0.968   5.179 -3.0440 -0.6992  0.9875
   26CHL1   C12 3061   4.337   1.166   5.006  0.4349 -0.9941  0.2862
   26CHL1  H12A 3062   4.429   1.108   4.983  0.6141 -0.4124 -0.4988
   26CHL1  H12B 3063   4.337   1.264   4.953  1.2623 -1.6296 -0.9454
   26CHL1   C11 3064   4.348   1.207   5.154  0.2477 -0.2944  0.1006
   26CHL1  H11A 3065   4.385   1.123   5.217  1.4512  0.3198  0.2378
   26CHL1  H11B 3066   4.429   1.283   5.158  0.3210 -0.3819  0.2804
   26CHL1    C9 3067   4.228   1.283   5.220  0.0765 -0.3324  0.1687
   26CHL1    H9 3068   4.224   1.379   5.164  0.6366 -1.4653 -1.8915
   26CHL1   C10 3069   4.234   1.321   5.373 -0.1004  0.5715 -0.7541
   26CHL1   C19 3070   4.265   1.181   5.442 -0.2353  0.3851  0.5357
   26CHL1  H19A 3071   4.234   1.188   5.548  0.6341  2.7613  0.6951
   26CHL1  H19B 3072   4.217   1.091   5.398  1.1682 -1.6070  2.8385
   26CHL1  H19C 3073   4.373   1.155   5.442 -0.1085  0.8307 -1.0818
   26CHL1    C1 3074   4.357   1.414   5.403  0.4077 -0.0914  0.6256
   26CHL1   H1A 3075   4.449   1.356   5.378  1.7881  1.8311  1.0063
   26CHL1   H1B 3076   4.359   1.495   5.327  0.1918  0.4384  1.1845
   26CHL1    C2 3077   4.363   1.472   5.546  0.3349 -0.9117  0.2027
   26CHL1   H2A 3078   4.458   1.527   5.561  1.1938 -1.5556 -2.3994
   26CHL1   H2B 3079   4.364   1.386   5.616  1.2106 -0.6311  0.5536
   26CHL1   C20 3080   4.217   0.940   4.769 -0.4542  0.6132  0.0798
   26CHL1   H20 3081   4.180   0.842   4.807 -0.9283  0.9857  0.5936
   26CHL1   C21 3082   4.370   0.953   4.783 -0.3231 -0.8172  0.9520
   26CHL1  H21A 3083   4.409   0.937   4.885  1.7892 -0.1103  0.3012
   26CHL1  H21B 3084   4.398   1.054   4.747 -1.7515  0.0418  2.1263
   26CHL1  H21C 3085   4.409   0.887   4.703  0.9806 -0.3597  1.1937
   26CHL1   C22 3086   4.174   0.957   4.620 -0.0034 -0.1160 -0.4115
   26CHL1  H22A 3087   4.063   0.954   4.616 -0.1379  1.3939  1.0243
   26CHL1  H22B 3088   4.208   1.059   4.591 -0.0912 -0.0130 -0.1601
   26CHL1   C23 3089   4.236   0.856   4.517  0.0029 -0.3772 -0.1238
   26CHL1  H23A 3090   4.342   0.890   4.510  0.4102 -0.9759  2.3436
   26CHL1  H23B 3091   4.233   0.750   4.548  0.9526 -0.2661  0.3902
   26CHL1   C24 3092   4.173   0.848   4.376 -0.8916 -0.3998 -0.1415
   26CHL1  H24A 3093   4.065   0.823   4.382 -1.4336  1.1053 -2.5379
   26CHL1  H24B 3094   4.171   0.950   4.331 -3.2252  0.3018  1.3522
   26CHL1   C25 3095   4.242   0.744   4.282 -0.0409 -0.5795 -0.4321
   26CHL1   H25 3096   4.219   0.642   4.318 -1.0157  0.2499  1.4379
   26CHL1   C26 3097   4.192   0.767   4.142  0.1854 -0.0491 -0.1005
   26CHL1  H26A 3098   4.082   0.764   4.131 -0.0175  0.0944  1.6667
   26CHL1  H26B 3099   4.224   0.868   4.107  1.4484 -0.0826  0.8745
   26CHL1  H26C 3100   4.229   0.692   4.069  0.9960  0.5909 -0.3590
   26CHL1   C27 3101   4.403   0.760   4.278  0.4299  0.8950  0.1728
   26CHL1  H27A 3102   4.434   0.866   4.279  1.1525  0.6882  0.2593
   26CHL1  H27B 3103   4.444   0.712   4.370  0.5077 -0.0013 -0.3141
   26CHL1  H27C 3104   4.443   0.707   4.189 -0.3995 -0.7985  0.7484
   27CHL1    C3 3105   1.939   0.332   5.972  0.6736  0.5752  0.8829
   27CHL1    H3 3106   1.982   0.434   5.973 -0.6923  1.3852 -3.0228
   27CHL1    O3 3107   1.925   0.285   6.110 -0.2742  0.1829  0.2724
   27CHL1   H3' 3108   1.898   0.193   6.101 -0.5353  0.3280 -0.4415
   27CHL1    C4 3109   1.798   0.339   5.914  1.5277  0.0348  0.1970
   27CHL1   H4A 3110   1.744   0.249   5.951  0.2581  1.4827  2.1150
   27CHL1   H4B 3111   1.752   0.419   5.975  0.6563 -0.7987  0.6700
   27CHL1    C5 3112   1.775   0.353   5.767 -0.5006 -1.0168 -0.1330
   27CHL1    C6 3113   1.689   0.448   5.717 -0.0355  0.0844 -0.1591
   27CHL1    H6 3114   1.626   0.501   5.790  1.4294  0.1809  1.0787
   27CHL1    C7 3115   1.661   0.475   5.568  0.6941 -0.0505 -0.5510
   27CHL1   H7A 3116   1.554   0.483   5.541  0.9515  2.4188 -1.1346
   27CHL1   H7B 3117   1.695   0.581   5.557 -1.7900  0.8881  0.1882
   27CHL1    C8 3118   1.739   0.372   5.480  0.7698  0.1443 -0.4547
   27CHL1    H8 3119   1.678   0.278   5.480 -1.2900  1.4204 -0.0628
   27CHL1   C14 3120   1.753   0.437   5.344  0.8484  0.1876 -0.8202
   27CHL1   H14 3121   1.835   0.512   5.348 -0.8390  2.0885 -0.5268
   27CHL1   C15 3122   1.635   0.500   5.270 -0.1574  0.1065  0.2487
   27CHL1  H15A 3123   1.541   0.443   5.285 -0.3042  0.3982  0.4575
   27CHL1  H15B 3124   1.608   0.604   5.299 -0.2586  0.0402  0.3937
   27CHL1   C16 3125   1.676   0.496   5.125  0.4896 -0.0967 -0.7163
   27CHL1  H16A 3126   1.601   0.437   5.069 -1.6082  1.1961  0.5833
   27CHL1  H16B 3127   1.667   0.596   5.079 -1.4386  0.4788  0.7733
   27CHL1   C17 3128   1.815   0.423   5.119 -0.0312  0.4971 -0.1138
   27CHL1   H17 3129   1.891   0.504   5.128 -0.4297  1.0378 -1.3042
   27CHL1   C13 3130   1.818   0.333   5.246  0.3638  0.3758  0.3230
   27CHL1   C18 3131   1.717   0.216   5.234  0.2679 -0.1304 -0.3190
   27CHL1  H18A 3132   1.725   0.159   5.329  2.5498  2.4654  1.1759
   27CHL1  H18B 3133   1.611   0.249   5.224  0.1541 -0.2095  0.5140
   27CHL1  H18C 3134   1.749   0.151   5.150  1.5855  0.4538 -0.2881
   27CHL1   C12 3135   1.955   0.288   5.295  0.1780 -0.2994  0.2018
   27CHL1  H12A 3136   1.985   0.197   5.239  1.7329  0.0078  0.4957
   27CHL1  H12B 3137   2.018   0.379   5.286  0.8820 -0.5473  2.0881
   27CHL1   C11 3138   1.951   0.242   5.440  0.0730 -0.3791  0.1974
   27CHL1  H11A 3139   1.903   0.142   5.447 -1.2363  0.2534  0.7202
   27CHL1  H11B 3140   2.055   0.236   5.478  1.9201 -0.4675 -4.3014
   27CHL1    C9 3141   1.877   0.336   5.537  1.3129  0.4795 -0.5479
   27CHL1    H9 3142   1.939   0.428   5.533  1.6589  0.2376 -0.8161
   27CHL1   C10 3143   1.875   0.270   5.678 -0.8915 -0.4870  0.6004
   27CHL1   C19 3144   1.823   0.118   5.676 -0.2844 -0.1199 -0.1874
   27CHL1  H19A 3145   1.806   0.086   5.781 -3.2247 -0.3614 -0.6597
   27CHL1  H19B 3146   1.720   0.127   5.635 -1.0402  1.5860  1.9010
   27CHL1  H19C 3147   1.894   0.053   5.620 -0.5024 -2.1211  1.7282
   27CHL1    C1 3148   2.025   0.277   5.741  0.5183  0.4543 -0.2454
   27CHL1   H1A 3149   2.097   0.210   5.689  0.6347 -0.1107  0.6359
   27CHL1   H1B 3150   2.063   0.382   5.739 -0.3878  0.8257  1.0616
   27CHL1    C2 3151   2.028   0.247   5.891 -0.0097 -1.0654 -0.2903
   27CHL1   H2A 3152   2.130   0.233   5.931 -0.8852 -1.3404  1.9899
   27CHL1   H2B 3153   1.993   0.142   5.889  0.8028 -1.3604  0.6228
   27CHL1   C20 3154   1.840   0.361   4.980 -0.4341 -1.1635  0.3185
   27CHL1   H20 3155   1.771   0.273   4.977 -1.5814 -0.2647 -2.1678
   27CHL1   C21 3156   1.984   0.298   4.966 -0.8592 -0.3629 -0.8434
   27CHL1  H21A 3157   1.997   0.203   5.023  0.0987 -0.1844 -0.7418
   27CHL1  H21B 3158   2.048   0.380   5.004 -0.3484 -1.2080  0.1830
   27CHL1  H21C 3159   1.997   0.271   4.859  0.9945 -0.4076 -0.6477
   27CHL1   C22 3160   1.821   0.462   4.862  0.3548  0.2514  0.0695
   27CHL1  H22A 3161   1.730   0.523   4.881  1.0220  1.1105  0.5938
   27CHL1  H22B 3162   1.907   0.533   4.861  1.2788 -0.7789  1.7148
   27CHL1   C23 3163   1.796   0.395   4.728 -0.8373  0.3858  0.0176
   27CHL1  H23A 3164   1.879   0.329   4.698 -2.4817 -1.1877 -1.3254
   27CHL1  H23B 3165   1.719   0.315   4.731  1.0048 -1.5616 -1.5237
   27CHL1   C24 3166   1.783   0.480   4.603  0.3084  0.8101 -0.9006
   27CHL1  H24A 3167   1.694   0.539   4.635  0.5880  1.0010 -0.4703
   27CHL1  H24B 3168   1.863   0.555   4.587  0.5918  0.4358 -1.2533
   27CHL1   C25 3169   1.767   0.394   4.473 -0.2183 -0.1409 -0.4203
   27CHL1   H25 3170   1.700   0.306   4.489 -0.7787 -0.4263 -3.7377
   27CHL1   C26 3171   1.694   0.477   4.367 -0.8288 -0.0035  0.7323
   27CHL1  H26A 3172   1.665   0.411   4.282 -2.0470  1.0930  0.2527
   27CHL1  H26B 3173   1.596   0.517   4.401 -0.6585  2.2766 -1.1594
   27CHL1  H26C 3174   1.757   0.560   4.329 -1.1988  1.0172  2.2847
   27CHL1   C27 3175   1.903   0.354   4.432 -0.5708  0.0523 -0.2466
   27CHL1  H27A 3176   1.980   0.421   4.477 -2.8365  1.1490  2.2588
   27CHL1  H27B 3177   1.911   0.368   4.322 -1.7623  0.6618 -0.2776
   27CHL1  H27C 3178   1.937   0.256   4.471  0.4787  1.0270  1.4368
   28CHL1    C3 3179   5.035   2.830   6.065  0.2100 -0.1239  0.5796
   28CHL1    H3 3180   4.952   2.901   6.040 -1.1124 -1.5262  0.8274
   28CHL1    O3 3181   5.034   2.808   6.207 -0.5711 -0.0679  0.2495
   28CHL1   H3' 3182   4.943   2.818   6.236 -0.5266 -1.1904  0.8317
   28CHL1    C4 3183   4.996   2.701   5.986 -0.0252 -0.1407  0.1051
   28CHL1   H4A 3184   5.055   2.616   6.025 -0.0330 -0.2746 -0.1706
   28CHL1   H4B 3185   4.897   2.687   6.035  0.6076 -0.6027  1.2973
   28CHL1    C5 3186   4.993   2.723   5.833  0.7541 -0.4091 -0.5315
   28CHL1    C6 3187   4.887   2.715   5.747 -0.1450  0.1722 -0.3471
   28CHL1    H6 3188   4.786   2.697   5.788 -0.7671  0.2593 -1.7855
   28CHL1    C7 3189   4.889   2.733   5.599 -0.5413 -0.5522  0.7942
   28CHL1   H7A 3190   4.831   2.648   5.556 -0.8201  1.1883 -2.6709
   28CHL1   H7B 3191   4.834   2.823   5.562 -2.8644 -2.3972 -0.5455
   28CHL1    C8 3192   5.037   2.720   5.549  0.5057  0.3257  0.3742
   28CHL1    H8 3193   5.067   2.614   5.557 -0.9032 -0.1195  0.0247
   28CHL1   C14 3194   5.045   2.756   5.402 -0.4724 -0.1646  0.2433
   28CHL1   H14 3195   5.020   2.864   5.392  1.1338  0.1495 -0.7275
   28CHL1   C15 3196   4.962   2.670   5.310  0.3039 -0.4441 -0.2269
   28CHL1  H15A 3197   4.959   2.563   5.342 -1.4300 -0.8601 -1.6900
   28CHL1  H15B 3198   4.858   2.707   5.313  0.5987  0.4781  3.2590
   28CHL1   C16 3199   5.015   2.704   5.173 -0.2998  0.1411 -0.0278
   28CHL1  H16A 3200   5.036   2.611   5.115  0.7884  0.5733 -0.3603
   28CHL1  H16B 3201   4.950   2.772   5.115 -0.0782  0.2486 -0.1523
   28CHL1   C17 3202   5.155   2.775   5.189  0.2461 -0.5680 -0.3794
   28CHL1   H17 3203   5.136   2.885   5.187 -0.7833 -0.7348 -0.1991
   28CHL1   C13 3204   5.191   2.748   5.345  0.7940 -0.4165  0.0830
   28CHL1   C18 3205   5.255   2.601   5.353  0.3154 -0.2505  0.0253
   28CHL1  H18A 3206   5.212   2.527   5.282  1.6834 -1.6589  0.6037
   28CHL1  H18B 3207   5.361   2.611   5.324  0.0492 -0.3396 -1.0026
   28CHL1  H18C 3208   5.236   2.557   5.454  0.3028  1.0000  0.5850
   28CHL1   C12 3209   5.265   2.869   5.419 -0.2433  0.1589 -0.4015
   28CHL1  H12A 3210   5.369   2.886   5.385 -0.4333 -2.3104 -2.5389
   28CHL1  H12B 3211   5.205   2.959   5.393  0.9804  1.0225 -0.2998
   28CHL1   C11 3212   5.271   2.837   5.570  0.1946  0.5725 -0.1735
   28CHL1  H11A 3213   5.328   2.742   5.577 -0.2662  0.2276 -0.9744
   28CHL1  H11B 3214   5.317   2.922   5.624 -1.2361 -0.4995  2.9806
   28CHL1    C9 3215   5.128   2.815   5.635  0.0160  0.4936 -0.6372
   28CHL1    H9 3216   5.093   2.920   5.622  1.2670  0.9458 -0.4866
   28CHL1   C10 3217   5.129   2.766   5.784 -0.1791  0.6832 -0.0426
   28CHL1   C19 3218   5.229   2.636   5.796 -0.4033 -0.5855 -0.2303
   28CHL1  H19A 3219   5.335   2.669   5.807 -0.2904 -0.5708 -1.2546
   28CHL1  H19B 3220   5.198   2.573   5.882  1.3644  0.2138  1.0580
   28CHL1  H19C 3221   5.228   2.582   5.699 -0.9065 -0.9014 -0.0464
   28CHL1    C1 3222   5.179   2.883   5.864 -0.6037  0.2057 -0.6838
   28CHL1   H1A 3223   5.285   2.906   5.839 -0.1385 -2.1115 -1.0478
   28CHL1   H1B 3224   5.118   2.975   5.847  1.1356  1.8542  1.3886
   28CHL1    C2 3225   5.175   2.865   6.017  0.7704 -0.6254 -0.2301
   28CHL1   H2A 3226   5.219   2.956   6.064  2.2027 -1.9260  1.0544
   28CHL1   H2B 3227   5.252   2.798   6.061  1.4775  0.1797 -0.1943
   28CHL1   C20 3228   5.263   2.741   5.088 -0.0520  0.6320  0.0877
   28CHL1   H20 3229   5.287   2.635   5.110  1.2934  1.2395  1.7458
   28CHL1   C21 3230   5.397   2.824   5.105  0.7549 -0.0202 -0.1375
   28CHL1  H21A 3231   5.472   2.758   5.057 -0.8448 -1.6383 -0.5513
   28CHL1  H21B 3232   5.428   2.850   5.208  0.0715 -1.1474  0.3723
   28CHL1  H21C 3233   5.383   2.921   5.052  1.2769 -0.3982 -0.9896
   28CHL1   C22 3234   5.210   2.742   4.947 -0.1537  0.5363 -0.5595
   28CHL1  H22A 3235   5.299   2.723   4.883  0.2573  0.7126 -0.0509
   28CHL1  H22B 3236   5.149   2.652   4.925  0.7539  0.0700 -1.2661
   28CHL1   C23 3237   5.127   2.863   4.889  1.0514  0.3462  0.0608
   28CHL1  H23A 3238   5.043   2.873   4.961  0.3681 -0.3457 -0.6182
   28CHL1  H23B 3239   5.200   2.944   4.911 -1.2881  2.0765  2.0365
   28CHL1   C24 3240   5.072   2.850   4.746  0.4213  0.2202 -0.2657
   28CHL1  H24A 3241   5.024   2.749   4.752  1.3359 -0.1300  2.1799
   28CHL1  H24B 3242   4.987   2.917   4.721  0.6453  0.9914  0.9481
   28CHL1   C25 3243   5.179   2.853   4.636  0.0551  0.3920 -0.3383
   28CHL1   H25 3244   5.267   2.795   4.671 -1.6191 -2.9855 -1.2491
   28CHL1   C26 3245   5.141   2.768   4.512 -0.1473  0.3887 -0.4608
   28CHL1  H26A 3246   5.043   2.802   4.475  0.1104  0.4109 -1.1280
   28CHL1  H26B 3247   5.211   2.782   4.427 -0.4016 -0.2002 -0.7737
   28CHL1  H26C 3248   5.130   2.661   4.540  0.2031  0.8089  1.4972
   28CHL1   C27 3249   5.227   2.998   4.602  0.3817 -0.6069 -0.1808
   28CHL1  H27A 3250   5.307   3.010   4.679  0.1133  0.1754 -0.0222
   28CHL1  H27B 3251   5.283   2.997   4.506  0.8602  0.8883  0.0657
   28CHL1  H27C 3252   5.149   3.076   4.587  1.1567  0.0432 -0.8881
   29CHL1    C3 3253   3.077   2.304   5.684  0.8911 -0.7091 -0.2753
   29CHL1    H3 3254   3.047   2.411   5.693  1.2564 -0.4791 -1.5245
   29CHL1    O3 3255   3.086   2.248   5.815  0.2115 -0.2240 -0.6696
   29CHL1   H3' 3256   3.141   2.311   5.861  0.5150 -1.5194  0.8189
   29CHL1    C4 3257   2.959   2.243   5.611 -0.2589  0.0183  0.2744
   29CHL1   H4A 3258   2.974   2.133   5.622 -2.2259 -0.2737  0.4138
   29CHL1   H4B 3259   2.866   2.252   5.671 -0.0158  1.2521  0.4985
   29CHL1    C5 3260   2.951   2.285   5.466  0.1730  0.1487  0.0233
   29CHL1    C6 3261   2.834   2.333   5.419 -0.1110  0.1341 -0.0066
   29CHL1    H6 3262   2.749   2.323   5.488 -1.0336 -1.5350 -1.3229
   29CHL1    C7 3263   2.822   2.369   5.274  0.5002  0.0864 -0.4690
   29CHL1   H7A 3264   2.722   2.334   5.241  0.2066  0.0484  0.4311
   29CHL1   H7B 3265   2.818   2.480   5.265 -0.0100  0.0658 -0.5369
   29CHL1    C8 3266   2.932   2.323   5.183  0.0934 -0.0045 -0.0910
   29CHL1    H8 3267   2.924   2.215   5.161 -3.1888  0.5622 -2.3455
   29CHL1   C14 3268   2.929   2.387   5.046 -0.1314 -0.1411 -0.0687
   29CHL1   H14 3269   2.940   2.496   5.066  0.6224 -0.3778  0.9226
   29CHL1   C15 3270   2.795   2.381   4.963 -0.0601 -0.5086  0.0272
   29CHL1  H15A 3271   2.755   2.277   4.964 -1.1316 -0.1094  1.6830
   29CHL1  H15B 3272   2.715   2.452   4.992  0.7489 -0.0957  1.3850
   29CHL1   C16 3273   2.843   2.414   4.822 -0.1331  0.5439 -0.5357
   29CHL1  H16A 3274   2.812   2.329   4.757  0.2452 -0.2800  0.3357
   29CHL1  H16B 3275   2.789   2.501   4.777 -1.9206  0.1675  0.7534
   29CHL1   C17 3276   2.998   2.429   4.824 -0.2432 -0.0111 -0.1234
   29CHL1   H17 3277   3.006   2.538   4.846  1.6195 -0.4006  1.3129
   29CHL1   C13 3278   3.043   2.347   4.949 -0.0556  0.0352 -0.3455
   29CHL1   C18 3279   3.041   2.193   4.914  0.4514 -0.5711 -0.7245
   29CHL1  H18A 3280   3.125   2.185   4.841 -1.2326 -1.0320 -2.7293
   29CHL1  H18B 3281   3.060   2.139   5.009 -1.0636 -0.3032 -0.2302
   29CHL1  H18C 3282   2.946   2.166   4.863 -1.3174  0.8329  1.6258
   29CHL1   C12 3283   3.179   2.381   5.017 -0.5235 -0.4507  0.1634
   29CHL1  H12A 3284   3.257   2.344   4.947  1.7237 -1.0250  2.7940
   29CHL1  H12B 3285   3.187   2.492   5.027  0.2007 -0.5128  0.3249
   29CHL1   C11 3286   3.191   2.312   5.153 -0.1860  0.0040 -0.1008
   29CHL1  H11A 3287   3.214   2.203   5.150  0.2090  0.1084 -1.1409
   29CHL1  H11B 3288   3.281   2.343   5.211 -0.7608 -0.9620  1.3841
   29CHL1    C9 3289   3.073   2.347   5.245  0.0167 -0.0746 -0.6470
   29CHL1    H9 3290   3.079   2.457   5.258 -0.0699 -0.1685  0.3162
   29CHL1   C10 3291   3.083   2.279   5.388  0.4181  0.1965 -0.5036
   29CHL1   C19 3292   3.106   2.131   5.372 -0.3892  0.2014  0.1648
   29CHL1  H19A 3293   3.104   2.076   5.468 -0.9971 -0.1776 -0.0584
   29CHL1  H19B 3294   3.037   2.072   5.309  0.3730  0.8290 -1.3186
   29CHL1  H19C 3295   3.210   2.114   5.335 -0.0315 -0.8247  1.5634
   29CHL1    C1 3296   3.200   2.348   5.466 -0.0895 -0.1037 -0.5868
   29CHL1   H1A 3297   3.296   2.337   5.411  0.8445 -0.2813  1.0202
   29CHL1   H1B 3298   3.182   2.457   5.470 -2.5239 -0.4154 -1.3919
   29CHL1    C2 3299   3.206   2.288   5.606 -1.1287 -0.2451 -0.2489
   29CHL1   H2A 3300   3.285   2.342   5.662 -1.8978  1.5358 -0.8166
   29CHL1   H2B 3301   3.226   2.179   5.597 -1.7735 -0.4055  0.2169
   29CHL1   C20 3302   3.079   2.403   4.689  0.3680 -0.0957 -0.3403
   29CHL1   H20 3303   3.076   2.293   4.678 -1.1453 -0.0823 -0.3427
   29CHL1   C21 3304   3.220   2.441   4.688 -0.1831 -0.3498 -0.2101
   29CHL1  H21A 3305   3.265   2.443   4.587  0.7368 -2.6157  0.1065
   29CHL1  H21B 3306   3.284   2.366   4.738  0.6095  0.3456 -0.1520
   29CHL1  H21C 3307   3.231   2.538   4.743 -2.6724  0.1754 -0.4937
   29CHL1   C22 3308   3.010   2.480   4.562 -1.0998  0.2028 -0.1521
   29CHL1  H22A 3309   3.081   2.466   4.478 -0.2004  1.2299  0.4092
   29CHL1  H22B 3310   2.912   2.429   4.550 -1.6099  1.4822 -1.8405
   29CHL1   C23 3311   2.990   2.632   4.577  0.6640 -0.2246 -0.6309
   29CHL1  H23A 3312   2.912   2.637   4.656  1.0785  0.9053 -0.2737
   29CHL1  H23B 3313   3.079   2.682   4.621 -2.1908  2.8613  2.1943
   29CHL1   C24 3314   2.951   2.695   4.445 -0.2432  0.2358  0.2992
   29CHL1  H24A 3315   3.044   2.690   4.384  0.1039 -3.8481  0.8924
   29CHL1  H24B 3316   2.873   2.629   4.402  0.7286 -0.0520 -1.1199
   29CHL1   C25 3317   2.905   2.842   4.455 -0.3364 -0.6311  0.8652
   29CHL1   H25 3318   2.822   2.834   4.529 -0.2215  1.3787  1.2500
   29CHL1   C26 3319   3.005   2.939   4.504 -0.1419 -0.5335  0.7214
   29CHL1  H26A 3320   3.094   2.954   4.438 -1.7213  1.6032 -1.0586
   29CHL1  H26B 3321   2.956   3.037   4.520 -0.9540 -0.7529 -0.3169
   29CHL1  H26C 3322   3.043   2.910   4.605 -0.8116  0.1642  1.1750
   29CHL1   C27 3323   2.844   2.900   4.322 -0.0112  0.4384 -0.0878
   29CHL1  H27A 3324   2.752   2.845   4.292  0.8848 -1.1149 -0.1384
   29CHL1  H27B 3325   2.816   3.007   4.331 -0.0922  0.7510 -3.1828
   29CHL1  H27C 3326   2.926   2.903   4.246  0.8313  2.0715  0.8345
   30CHL1    C3 3327   3.508   2.154   5.733 -0.3893 -0.5766 -0.2495
   30CHL1    H3 3328   3.411   2.179   5.683  0.9065 -0.4866 -2.9185
   30CHL1    O3 3329   3.499   2.107   5.866  0.6477  0.5191  0.2407
   30CHL1   H3' 3330   3.510   2.189   5.915  1.9949  2.2916 -2.7007
   30CHL1    C4 3331   3.573   2.045   5.643  0.1362 -0.1094  0.0663
   30CHL1   H4A 3332   3.672   2.012   5.680  1.4892  1.6889 -1.6776
   30CHL1   H4B 3333   3.511   1.954   5.656 -0.7080  0.7623  2.8050
   30CHL1    C5 3334   3.578   2.087   5.493  0.1425 -0.4288 -0.2466
   30CHL1    C6 3335   3.497   2.032   5.395  0.1630  0.4279 -0.2262
   30CHL1    H6 3336   3.428   1.951   5.423  1.3788 -0.6593 -0.2940
   30CHL1    C7 3337   3.496   2.078   5.256  0.0924  0.0820  0.2113
   30CHL1   H7A 3338   3.495   1.989   5.189  1.9896 -0.4860  0.8718
   30CHL1   H7B 3339   3.409   2.143   5.235  0.2050  0.0020 -0.5577
   30CHL1    C8 3340   3.620   2.165   5.227 -0.2088  0.1836  0.3001
   30CHL1    H8 3341   3.713   2.104   5.226  0.3122  0.9609  0.6142
   30CHL1   C14 3342   3.615   2.224   5.088  0.8351 -0.2111 -0.6032
   30CHL1   H14 3343   3.527   2.292   5.091  0.0474 -1.2232  1.9891
   30CHL1   C15 3344   3.588   2.128   4.972 -0.0595  0.6772  0.8793
   30CHL1  H15A 3345   3.640   2.031   4.990 -2.4984 -0.7595  0.6282
   30CHL1  H15B 3346   3.483   2.095   4.959  0.9306 -1.8869 -1.6716
   30CHL1   C16 3347   3.631   2.213   4.847 -0.9740  0.1791 -1.0759
   30CHL1  H16A 3348   3.706   2.156   4.787  0.0017  0.3936 -0.1021
   30CHL1  H16B 3349   3.547   2.224   4.775 -0.2611  1.6280 -1.7133
   30CHL1   C17 3350   3.699   2.342   4.896 -1.1997  0.7084 -0.3541
   30CHL1   H17 3351   3.611   2.410   4.887 -1.0823  0.8756 -0.2316
   30CHL1   C13 3352   3.733   2.309   5.041 -0.6717  0.3131 -0.3887
   30CHL1   C18 3353   3.864   2.220   5.038  0.0337 -0.1174 -0.1476
   30CHL1  H18A 3354   3.862   2.147   4.954  0.1850  1.2771 -1.4003
   30CHL1  H18B 3355   3.953   2.286   5.045 -1.0301  1.5101 -1.3986
   30CHL1  H18C 3356   3.881   2.156   5.127  0.3313  0.3439  0.1327
   30CHL1   C12 3357   3.731   2.423   5.137 -0.4502  0.1037  0.0648
   30CHL1  H12A 3358   3.808   2.498   5.109  0.1320 -0.9753 -1.3188
   30CHL1  H12B 3359   3.628   2.466   5.135 -0.9443 -1.0303  0.2821
   30CHL1   C11 3360   3.750   2.382   5.285  0.5080 -0.2049 -0.3404
   30CHL1  H11A 3361   3.847   2.328   5.284 -0.0703 -1.2969  0.7657
   30CHL1  H11B 3362   3.749   2.474   5.347  1.1058  0.0772 -0.7314
   30CHL1    C9 3363   3.642   2.273   5.331  0.6132 -0.5901  0.5729
   30CHL1    H9 3364   3.545   2.327   5.341 -1.1072 -3.4697  0.7457
   30CHL1   C10 3365   3.668   2.209   5.470  0.2577 -0.0240  0.3247
   30CHL1   C19 3366   3.813   2.172   5.490 -0.5334 -1.1140 -0.0712
   30CHL1  H19A 3367   3.885   2.256   5.487 -0.8583 -0.8136  0.4903
   30CHL1  H19B 3368   3.825   2.116   5.586 -1.6002 -0.2293  0.5946
   30CHL1  H19C 3369   3.841   2.102   5.408  2.4155  0.7360 -0.8210
   30CHL1    C1 3370   3.634   2.320   5.580 -0.3492  0.4175 -0.4769
   30CHL1   H1A 3371   3.721   2.389   5.570  1.3305 -1.5777 -0.2796
   30CHL1   H1B 3372   3.538   2.370   5.555 -1.1392 -0.8108  0.0539
   30CHL1    C2 3373   3.613   2.269   5.726 -0.0969 -0.8176  0.4029
   30CHL1   H2A 3374   3.570   2.359   5.774  2.4494  2.9919 -3.7258
   30CHL1   H2B 3375   3.714   2.249   5.767  1.0356  3.8518  0.3681
   30CHL1   C20 3376   3.814   2.390   4.808  0.7056  0.1196  0.7638
   30CHL1   H20 3377   3.901   2.322   4.816  0.2695 -0.4233  0.9893
   30CHL1   C21 3378   3.863   2.535   4.848 -0.5030  0.3925 -0.2525
   30CHL1  H21A 3379   3.917   2.525   4.944 -0.0637  2.6714 -0.2124
   30CHL1  H21B 3380   3.788   2.615   4.869  0.2685  0.7484  1.2425
   30CHL1  H21C 3381   3.933   2.569   4.770 -1.1802 -0.2497 -1.1712
   30CHL1   C22 3382   3.789   2.374   4.660 -0.8634  0.2487 -0.5091
   30CHL1  H22A 3383   3.737   2.282   4.626  1.8754 -1.2004 -1.0615
   30CHL1  H22B 3384   3.724   2.458   4.627 -3.2562 -2.0362 -2.0466
   30CHL1   C23 3385   3.912   2.385   4.572 -0.3725  0.0656  0.2591
   30CHL1  H23A 3386   3.947   2.490   4.565  0.7172 -0.3662 -1.3212
   30CHL1  H23B 3387   3.989   2.313   4.604 -1.1148 -3.0161 -3.9739
   30CHL1   C24 3388   3.876   2.334   4.430  0.5221 -1.0728 -0.0649
   30CHL1  H24A 3389   3.870   2.223   4.435  1.7522 -1.0818  2.7317
   30CHL1  H24B 3390   3.775   2.366   4.396  1.1450  1.1495  0.0810
   30CHL1   C25 3391   3.977   2.378   4.328  0.1866 -0.2469  0.1961
   30CHL1   H25 3392   4.078   2.368   4.374  0.5153 -0.9704 -0.6682
   30CHL1   C26 3393   3.956   2.297   4.202 -0.0405  0.5051  1.0885
   30CHL1  H26A 3394   4.037   2.307   4.126 -0.9896  2.4001  0.2496
   30CHL1  H26B 3395   3.949   2.189   4.224 -1.5109 -0.0518 -1.6370
   30CHL1  H26C 3396   3.863   2.326   4.147  0.1467  1.5657  1.2975
   30CHL1   C27 3397   3.958   2.532   4.299 -0.0008 -0.5771 -0.0361
   30CHL1  H27A 3398   4.059   2.573   4.277  1.1646 -2.3411  1.7207
   30CHL1  H27B 3399   3.885   2.547   4.216  0.1616  2.5922  0.2589
   30CHL1  H27C 3400   3.917   2.594   4.381 -2.5238  0.7775 -2.1433
   31CHL1    C3 3401   2.316   3.029   6.026  0.8825 -0.1541  0.8723
   31CHL1    H3 3402   2.389   3.109   6.000 -0.3664  1.1302  1.2067
   31CHL1    O3 3403   2.315   3.002   6.165  0.4887 -0.5902 -0.4653
   31CHL1   H3' 3404   2.399   2.963   6.188 -1.0647 -1.6095  4.5696
   31CHL1    C4 3405   2.179   3.090   5.981  0.4895 -0.4900  0.7602
   31CHL1   H4A 3406   2.099   3.022   6.019 -0.3148  0.5302  0.9398
   31CHL1   H4B 3407   2.164   3.185   6.035 -0.9127 -0.9631  1.2607
   31CHL1    C5 3408   2.180   3.118   5.828 -0.0745 -0.0401 -0.6023
   31CHL1    C6 3409   2.142   3.234   5.772 -0.4438  0.5836 -0.0499
   31CHL1    H6 3410   2.108   3.323   5.827 -0.7166 -0.4549  1.5373
   31CHL1    C7 3411   2.132   3.260   5.626 -0.0733  0.0630 -0.4707
   31CHL1   H7A 3412   2.036   3.307   5.595  0.7239  1.3462 -1.0740
   31CHL1   H7B 3413   2.212   3.328   5.589  0.1091 -0.4919 -1.1112
   31CHL1    C8 3414   2.144   3.134   5.541 -1.0242 -0.5933  0.1510
   31CHL1    H8 3415   2.050   3.076   5.553 -0.6825 -0.6893  3.3985
   31CHL1   C14 3416   2.179   3.173   5.396 -0.5323  0.0964 -0.2643
   31CHL1   H14 3417   2.275   3.229   5.403  0.0201 -0.7616 -0.7663
   31CHL1   C15 3418   2.084   3.265   5.317 -0.0083 -0.0405  0.3751
   31CHL1  H15A 3419   1.983   3.218   5.323 -0.4594  0.8832  0.1633
   31CHL1  H15B 3420   2.077   3.372   5.346 -1.6049  0.6379 -2.1519
   31CHL1   C16 3421   2.134   3.250   5.169  0.3879 -0.0752 -0.1561
   31CHL1  H16A 3422   2.042   3.230   5.110 -0.6144 -2.1770  1.9280
   31CHL1  H16B 3423   2.180   3.341   5.126 -0.4666  1.2487  1.6230
   31CHL1   C17 3424   2.230   3.130   5.170 -0.9633 -0.1913 -0.0864
   31CHL1   H17 3425   2.335   3.164   5.184 -0.4846 -1.1302 -1.2152
   31CHL1   C13 3426   2.203   3.053   5.304 -0.4127 -0.2540  0.2460
   31CHL1   C18 3427   2.071   2.968   5.298  0.2248  0.2425 -0.1643
   31CHL1  H18A 3428   1.977   3.010   5.256 -0.2866 -3.2283 -2.8718
   31CHL1  H18B 3429   2.085   2.880   5.233 -1.8802 -0.0805 -0.2452
   31CHL1  H18C 3430   2.058   2.929   5.401 -0.1983 -0.1312 -0.3564
   31CHL1   C12 3431   2.322   2.975   5.353  0.0369 -0.5798 -0.5748
   31CHL1  H12A 3432   2.333   2.877   5.302  0.3493 -1.3739  0.9379
   31CHL1  H12B 3433   2.416   3.034   5.345 -0.2553 -0.0375 -0.1192
   31CHL1   C11 3434   2.299   2.935   5.500  0.3217 -0.0434 -0.2942
   31CHL1  H11A 3435   2.230   2.848   5.504  0.6061 -0.2638 -0.1592
   31CHL1  H11B 3436   2.396   2.897   5.537  1.7263  3.0053 -0.5730
   31CHL1    C9 3437   2.256   3.051   5.596 -0.2501 -0.4312  0.4177
   31CHL1    H9 3438   2.345   3.118   5.604 -1.4463  1.5108 -1.4258
   31CHL1   C10 3439   2.224   3.005   5.740  0.0579  0.3979  0.2261
   31CHL1   C19 3440   2.104   2.893   5.737 -0.0097 -0.1217  1.1898
   31CHL1  H19A 3441   2.127   2.805   5.673 -0.7037 -0.0281  0.8067
   31CHL1  H19B 3442   2.092   2.864   5.844  0.5334 -1.5144  0.8961
   31CHL1  H19C 3443   2.011   2.935   5.694  0.8865 -1.5686 -2.5071
   31CHL1    C1 3444   2.353   2.942   5.801 -0.1582  0.1767 -0.8492
   31CHL1   H1A 3445   2.372   2.848   5.743  0.1018  0.3018 -0.9640
   31CHL1   H1B 3446   2.437   3.012   5.789 -1.1142  1.2902 -1.2310
   31CHL1    C2 3447   2.342   2.899   5.946  0.5633  0.4210 -0.0658
   31CHL1   H2A 3448   2.438   2.867   5.992  0.3003  1.8323  1.5413
   31CHL1   H2B 3449   2.271   2.816   5.967  1.7416 -1.4587 -2.8129
   31CHL1   C20 3450   2.226   3.053   5.038 -0.8943  0.2022  0.2561
   31CHL1   H20 3451   2.123   3.020   5.014 -0.7559  0.3901 -0.6577
   31CHL1   C21 3452   2.302   2.918   5.020  1.1181  0.6776 -0.2599
   31CHL1  H21A 3453   2.284   2.855   5.110  1.4631 -1.7344 -1.7984
   31CHL1  H21B 3454   2.410   2.927   4.997  0.9886 -0.7803 -1.5891
   31CHL1  H21C 3455   2.251   2.862   4.939  0.9135 -0.5052  0.6606
   31CHL1   C22 3456   2.257   3.152   4.920 -0.1955  0.0095 -0.5277
   31CHL1  H22A 3457   2.161   3.206   4.909 -1.5628 -1.8961  1.1468
   31CHL1  H22B 3458   2.334   3.223   4.955  0.1757 -0.4613 -0.3684
   31CHL1   C23 3459   2.275   3.087   4.783  0.0573  0.5460  0.4017
   31CHL1  H23A 3460   2.354   3.010   4.783 -1.1565 -0.7681  1.8357
   31CHL1  H23B 3461   2.181   3.032   4.764  0.4432 -0.3023  0.9122
   31CHL1   C24 3462   2.307   3.192   4.663  0.2463  1.2644 -0.1642
   31CHL1  H24A 3463   2.214   3.252   4.662 -1.9793 -1.8999 -0.1857
   31CHL1  H24B 3464   2.395   3.249   4.701  1.1018  0.0084 -0.1797
   31CHL1   C25 3465   2.306   3.119   4.521 -0.0763  0.1431 -0.5020
   31CHL1   H25 3466   2.216   3.054   4.521 -0.6670  0.9406 -1.0660
   31CHL1   C26 3467   2.296   3.215   4.397 -0.0636 -0.9436 -0.1538
   31CHL1  H26A 3468   2.259   3.162   4.307 -1.1256 -1.2766  0.4610
   31CHL1  H26B 3469   2.211   3.285   4.414  1.2805  0.5536  0.7104
   31CHL1  H26C 3470   2.388   3.274   4.379 -0.6013 -0.0048  0.1210
   31CHL1   C27 3471   2.422   3.016   4.509  0.3499 -0.2728  0.5489
   31CHL1  H27A 3472   2.521   3.063   4.527  1.0058 -1.5070  0.3318
   31CHL1  H27B 3473   2.402   2.932   4.579  1.7664 -0.2002  1.0715
   31CHL1  H27C 3474   2.429   2.970   4.408  0.4484 -0.9360  0.8462
   32CHL1    C3 3475   3.099   1.667   5.555  0.0071  0.0927  0.3513
   32CHL1    H3 3476   3.097   1.777   5.565 -3.2153  0.1463  0.1728
   32CHL1    O3 3477   3.046   1.628   5.676 -0.5150  0.0461 -0.5799
   32CHL1   H3' 3478   3.055   1.532   5.671  3.3539  0.3044 -1.9684
   32CHL1    C4 3479   2.999   1.627   5.439  0.3205  0.1620  0.2072
   32CHL1   H4A 3480   2.983   1.517   5.439 -1.9185  0.4299  1.2555
   32CHL1   H4B 3481   2.907   1.679   5.475 -0.3486 -1.6004  1.1500
   32CHL1    C5 3482   3.064   1.674   5.307  0.0059  0.5525 -1.0476
   32CHL1    C6 3483   2.998   1.757   5.220  0.0833 -0.6404 -0.2319
   32CHL1    H6 3484   2.894   1.786   5.245  0.0109  0.1199 -1.3367
   32CHL1    C7 3485   3.046   1.810   5.089  1.0439  0.7166  0.2397
   32CHL1   H7A 3486   2.959   1.813   5.020 -0.1716  1.1868  1.7436
   32CHL1   H7B 3487   3.089   1.910   5.113  0.4541  0.4450  2.7183
   32CHL1    C8 3488   3.169   1.733   5.037 -0.1471 -0.3554  0.4934
   32CHL1    H8 3489   3.127   1.634   5.006  1.2558 -0.7908 -0.1057
   32CHL1   C14 3490   3.250   1.808   4.918  0.1191  0.9479 -1.1232
   32CHL1   H14 3491   3.284   1.908   4.952 -0.9209  0.4161  1.7022
   32CHL1   C15 3492   3.163   1.849   4.798  0.7563 -0.2083 -0.0787
   32CHL1  H15A 3493   3.087   1.773   4.770  1.0259 -0.7443  0.5963
   32CHL1  H15B 3494   3.113   1.944   4.825 -0.4399 -0.5789 -0.8892
   32CHL1   C16 3495   3.263   1.879   4.685  0.7189 -0.3739  0.2647
   32CHL1  H16A 3496   3.237   1.828   4.590  3.2321 -0.0055 -0.7040
   32CHL1  H16B 3497   3.279   1.988   4.670 -0.5236  0.0333  1.6055
   32CHL1   C17 3498   3.406   1.821   4.741 -0.5732 -0.3034  0.4317
   32CHL1   H17 3499   3.461   1.909   4.780 -2.5188  0.2119  2.1976
   32CHL1   C13 3500   3.368   1.738   4.863  0.1599 -0.1479 -0.2412
   32CHL1   C18 3501   3.328   1.600   4.812 -0.4856 -0.1886 -0.0458
   32CHL1  H18A 3502   3.284   1.536   4.892  2.1366  0.2270  1.8721
   32CHL1  H18B 3503   3.275   1.603   4.715 -1.4498  2.6509  0.4576
   32CHL1  H18C 3504   3.423   1.552   4.781 -0.2429 -0.8955  1.6636
   32CHL1   C12 3505   3.469   1.729   4.982 -0.0883  0.2353  0.6707
   32CHL1  H12A 3506   3.561   1.685   4.938 -1.6689 -0.7790 -1.8057
   32CHL1  H12B 3507   3.490   1.830   5.024  0.1497  0.5987 -0.2914
   32CHL1   C11 3508   3.410   1.659   5.103 -0.6710  0.5003  0.3104
   32CHL1  H11A 3509   3.417   1.550   5.081 -0.7835  0.2737  1.3287
   32CHL1  H11B 3510   3.477   1.667   5.191 -0.6616  1.2544  0.2355
   32CHL1    C9 3511   3.270   1.714   5.150  0.0210  0.0262  0.0683
   32CHL1    H9 3512   3.286   1.816   5.190 -2.3084  0.1278  0.9062
   32CHL1   C10 3513   3.213   1.636   5.275  0.2895  0.1348 -0.6628
   32CHL1   C19 3514   3.231   1.490   5.254  0.1407 -0.6327  0.1869
   32CHL1  H19A 3515   3.163   1.428   5.317 -0.4849 -0.5810 -0.4201
   32CHL1  H19B 3516   3.195   1.464   5.152  0.9055  0.9013 -0.4982
   32CHL1  H19C 3517   3.336   1.456   5.264  1.3122  1.9962 -1.8592
   32CHL1    C1 3518   3.301   1.674   5.401 -0.4291 -0.3328 -0.5202
   32CHL1   H1A 3519   3.402   1.635   5.379  0.4690  0.6055  1.6264
   32CHL1   H1B 3520   3.307   1.785   5.408  2.1250 -0.3814 -0.8439
   32CHL1    C2 3521   3.248   1.619   5.535  0.5449 -0.4708  0.3260
   32CHL1   H2A 3522   3.303   1.659   5.623 -1.8402  0.2398  1.5803
   32CHL1   H2B 3523   3.245   1.509   5.528 -1.9830 -0.5608  1.7048
   32CHL1   C20 3524   3.489   1.765   4.626  0.1006  0.1026 -0.4819
   32CHL1   H20 3525   3.436   1.675   4.587  1.1421 -0.4045 -0.7629
   32CHL1   C21 3526   3.624   1.713   4.677  0.2498  0.0486  0.1595
   32CHL1  H21A 3527   3.668   1.781   4.753 -2.2867  2.3040 -0.2683
   32CHL1  H21B 3528   3.693   1.703   4.590 -2.1648 -0.2243 -1.8338
   32CHL1  H21C 3529   3.629   1.615   4.731  1.8563 -1.5989 -2.7209
   32CHL1   C22 3530   3.501   1.861   4.511 -0.1885  0.2198 -0.3548
   32CHL1  H22A 3531   3.538   1.801   4.425 -0.3181 -0.4134  0.0275
   32CHL1  H22B 3532   3.403   1.899   4.475  0.2724  1.9067  0.0991
   32CHL1   C23 3533   3.594   1.979   4.550 -0.0423  0.1189  0.5432
   32CHL1  H23A 3534   3.540   2.036   4.629  0.4299  2.3073 -0.6493
   32CHL1  H23B 3535   3.694   1.941   4.580  0.0740  0.8047  1.0590
   32CHL1   C24 3536   3.619   2.063   4.423 -1.1078 -1.0977  0.5843
   32CHL1  H24A 3537   3.679   2.152   4.451 -0.7714 -1.3714  0.7432
   32CHL1  H24B 3538   3.685   2.007   4.352 -1.1964  0.1236 -0.4836
   32CHL1   C25 3539   3.489   2.105   4.347  0.1705 -0.7213  0.4713
   32CHL1   H25 3540   3.435   2.014   4.312  0.0205 -0.8802  1.1097
   32CHL1   C26 3541   3.398   2.195   4.432  0.1307  0.5343  0.2704
   32CHL1  H26A 3542   3.299   2.213   4.384  0.2151  0.9203  0.2393
   32CHL1  H26B 3543   3.378   2.138   4.525  0.1713 -0.8760 -0.5414
   32CHL1  H26C 3544   3.447   2.291   4.458  1.7409 -0.5142  1.2492
   32CHL1   C27 3545   3.537   2.167   4.211  0.7755  0.2985 -0.3670
   32CHL1  H27A 3546   3.556   2.276   4.218 -1.1959  0.5788  1.4994
   32CHL1  H27B 3547   3.625   2.107   4.178  0.3655 -0.8811  0.5991
   32CHL1  H27C 3548   3.458   2.158   4.133  1.0824  0.7462 -0.7309
   33CHL1    C3 3549   1.651   5.898   5.854  0.7033  0.9785  0.6297
   33CHL1    H3 3550   1.644   5.787   5.863  1.7780  0.9781  1.6288
   33CHL1    O3 3551   1.583   5.957   5.963  0.2933  0.3764 -0.4978
   33CHL1   H3' 3552   1.507   5.902   5.981 -0.3657  1.6514  0.8608
   33CHL1    C4 3553   1.792   5.942   5.843 -0.0019  0.1591  0.3495
   33CHL1   H4A 3554   1.788   6.053   5.841  0.7293  0.1787 -0.8485
   33CHL1   H4B 3555   1.846   5.916   5.937  0.9573  0.1256 -0.2104
   33CHL1    C5 3556   1.866   5.898   5.718 -0.3751  0.3920 -0.4501
   33CHL1    C6 3557   1.979   5.826   5.726  0.7507 -0.6179  0.4755
   33CHL1    H6 3558   2.028   5.795   5.819  1.2131  0.5445  0.6428
   33CHL1    C7 3559   2.056   5.786   5.604 -0.6320  0.2128  0.1250
   33CHL1   H7A 3560   2.161   5.822   5.611 -1.2107  3.1527 -3.4363
   33CHL1   H7B 3561   2.056   5.676   5.589 -1.7924  0.1648  0.4178
   33CHL1    C8 3562   2.006   5.846   5.465  0.5302  0.0046 -0.2100
   33CHL1    H8 3563   2.041   5.952   5.472 -0.2766  0.1923  1.5381
   33CHL1   C14 3564   2.043   5.769   5.340  0.4703 -0.0153  0.4943
   33CHL1   H14 3565   1.985   5.675   5.347  0.3598  0.1550  2.7324
   33CHL1   C15 3566   2.193   5.744   5.319  0.4887 -0.3558  0.1494
   33CHL1  H15A 3567   2.258   5.826   5.355  1.1139 -1.0834  0.7056
   33CHL1  H15B 3568   2.221   5.648   5.368 -1.5520 -0.4618  1.2046
   33CHL1   C16 3569   2.223   5.742   5.169 -0.2966 -0.2000 -0.2694
   33CHL1  H16A 3570   2.270   5.839   5.144 -1.9788  1.1646  1.5556
   33CHL1  H16B 3571   2.288   5.659   5.132  0.7228  1.7042 -3.0717
   33CHL1   C17 3572   2.086   5.761   5.106 -0.4548 -0.8929 -0.2946
   33CHL1   H17 3573   2.035   5.662   5.093  0.8933 -1.6361 -0.0938
   33CHL1   C13 3574   1.996   5.833   5.211  0.5017 -0.4307 -0.2071
   33CHL1   C18 3575   2.038   5.988   5.216  0.1771  0.0725 -0.0703
   33CHL1  H18A 3576   1.978   6.041   5.293  1.2420  1.2665 -0.0203
   33CHL1  H18B 3577   2.145   5.989   5.246 -0.0320 -0.3523  0.7194
   33CHL1  H18C 3578   2.014   6.045   5.124 -1.2177 -3.2924 -1.9722
   33CHL1   C12 3579   1.840   5.817   5.207  0.1009 -0.0769 -0.2894
   33CHL1  H12A 3580   1.789   5.875   5.127 -4.9966 -0.4206  2.3108
   33CHL1  H12B 3581   1.809   5.711   5.200 -1.7344  0.3874  0.4609
   33CHL1   C11 3582   1.781   5.885   5.336 -0.6446 -0.2214  0.3454
   33CHL1  H11A 3583   1.784   5.993   5.311  1.0214  0.0401  1.4758
   33CHL1  H11B 3584   1.677   5.846   5.338 -0.5060 -0.6893 -0.7779
   33CHL1    C9 3585   1.852   5.853   5.470  1.0148 -0.0403 -0.6314
   33CHL1    H9 3586   1.814   5.749   5.480 -1.7683  0.9402 -0.2229
   33CHL1   C10 3587   1.792   5.931   5.589  0.3789  0.0260 -0.6762
   33CHL1   C19 3588   1.811   6.085   5.571  1.0222 -0.3969  1.2201
   33CHL1  H19A 3589   1.919   6.104   5.557  1.1475 -2.7146 -2.3776
   33CHL1  H19B 3590   1.762   6.110   5.474  0.4470  0.1688  1.6504
   33CHL1  H19C 3591   1.767   6.152   5.648  1.3987 -0.7283  1.7332
   33CHL1    C1 3592   1.637   5.884   5.599  0.0732 -0.4843 -0.9461
   33CHL1   H1A 3593   1.566   5.919   5.521  0.3553  1.3031 -0.4570
   33CHL1   H1B 3594   1.634   5.774   5.613  3.2125 -0.4037  1.3375
   33CHL1    C2 3595   1.574   5.942   5.726  0.3357 -0.4753 -0.5940
   33CHL1   H2A 3596   1.467   5.912   5.732 -0.2166  1.3994 -0.1600
   33CHL1   H2B 3597   1.571   6.053   5.716 -0.4310 -0.5525 -1.3089
   33CHL1   C20 3598   2.087   5.822   4.967  0.2924  0.6188  0.1933
   33CHL1   H20 3599   2.086   5.933   4.974 -1.2595  0.6823 -0.7438
   33CHL1   C21 3600   1.960   5.780   4.891 -0.0234  0.5692 -0.1953
   33CHL1  H21A 3601   1.949   5.833   4.794  1.0708 -0.3028 -0.8209
   33CHL1  H21B 3602   1.870   5.807   4.950 -0.3830  0.1086 -0.5245
   33CHL1  H21C 3603   1.969   5.672   4.867  0.1805  0.7101 -0.7681
   33CHL1   C22 3604   2.207   5.783   4.879  0.6134 -0.0337 -0.6822
   33CHL1  H22A 3605   2.297   5.834   4.918  0.9017  0.6415 -2.1517
   33CHL1  H22B 3606   2.217   5.672   4.880  0.8361 -0.0179  1.1601
   33CHL1   C23 3607   2.197   5.824   4.736 -0.6128 -0.5483  0.4019
   33CHL1  H23A 3608   2.131   5.757   4.676 -1.0521 -0.4720  0.7969
   33CHL1  H23B 3609   2.155   5.926   4.724 -1.0530 -0.7458  0.2499
   33CHL1   C24 3610   2.333   5.820   4.664 -0.8286  0.4809  0.0886
   33CHL1  H24A 3611   2.394   5.894   4.720  1.3573  0.1552 -1.6904
   33CHL1  H24B 3612   2.365   5.715   4.681  1.3161  0.6203 -2.3820
   33CHL1   C25 3613   2.346   5.855   4.510  0.7071 -0.4356  0.0142
   33CHL1   H25 3614   2.276   5.783   4.462  1.5418 -2.7525  2.0234
   33CHL1   C26 3615   2.311   5.996   4.477  0.1252  0.1046 -0.4169
   33CHL1  H26A 3616   2.212   6.019   4.522 -0.8262  0.0355 -2.3536
   33CHL1  H26B 3617   2.376   6.074   4.522  0.0770 -0.3343  0.4426
   33CHL1  H26C 3618   2.296   6.015   4.369  3.3488  2.2761 -0.6304
   33CHL1   C27 3619   2.484   5.833   4.461  0.1711 -0.9807 -0.3819
   33CHL1  H27A 3620   2.486   5.839   4.350 -0.6824 -0.7666 -0.3940
   33CHL1  H27B 3621   2.551   5.904   4.514 -1.2379 -1.5676  2.3528
   33CHL1  H27C 3622   2.514   5.734   4.503 -0.0621 -0.7542  0.3257
   34CHL1    C3 3623   4.712   1.244   6.007 -0.1410 -0.2072 -0.4787
   34CHL1    H3 3624   4.631   1.169   5.996 -0.4967  0.1267 -0.1589
   34CHL1    O3 3625   4.715   1.310   6.139 -0.2408 -0.0777  0.6142
   34CHL1   H3' 3626   4.746   1.398   6.116 -1.5665 -0.3741 -2.8546
   34CHL1    C4 3627   4.852   1.177   5.992 -1.0379 -0.2973 -0.1336
   34CHL1   H4A 3628   4.927   1.259   5.995  0.8316 -1.9256 -0.0855
   34CHL1   H4B 3629   4.874   1.112   6.080  2.0915  1.4093  0.4967
   34CHL1    C5 3630   4.853   1.103   5.856  0.3878  1.0937 -0.5278
   34CHL1    C6 3631   4.869   0.962   5.845 -0.2722 -0.4083 -0.0086
   34CHL1    H6 3632   4.888   0.907   5.939 -1.3799 -0.2664  0.3169
   34CHL1    C7 3633   4.876   0.881   5.725  0.0064 -0.7487  0.7790
   34CHL1   H7A 3634   4.957   0.805   5.736  0.2286 -0.4475  1.2315
   34CHL1   H7B 3635   4.777   0.830   5.719 -1.2396  1.7173 -1.2363
   34CHL1    C8 3636   4.889   0.974   5.599 -0.5225  0.7480 -0.4429
   34CHL1    H8 3637   4.995   1.009   5.593 -0.5938  0.7777 -1.8850
   34CHL1   C14 3638   4.856   0.903   5.464  0.0741 -0.0648 -1.4616
   34CHL1   H14 3639   4.751   0.874   5.487 -0.6755  4.2684  1.8356
   34CHL1   C15 3640   4.931   0.772   5.427  0.7085  0.2708  0.7968
   34CHL1  H15A 3641   5.040   0.791   5.435  0.5538  3.2385 -2.1961
   34CHL1  H15B 3642   4.906   0.693   5.501 -2.7000 -0.2354 -0.6747
   34CHL1   C16 3643   4.884   0.743   5.284 -0.0137  0.1086 -0.3341
   34CHL1  H16A 3644   4.976   0.725   5.224  0.9641 -0.9636  1.4079
   34CHL1  H16B 3645   4.806   0.664   5.277  1.5915 -1.5730  0.0666
   34CHL1   C17 3646   4.810   0.871   5.231  0.7674 -0.9979  0.1148
   34CHL1   H17 3647   4.706   0.847   5.261  1.1490 -0.1733  2.3371
   34CHL1   C13 3648   4.853   0.996   5.337  0.3884  0.9450 -0.3078
   34CHL1   C18 3649   4.993   1.039   5.310  0.7025  0.1104 -0.1214
   34CHL1  H18A 3650   5.007   1.113   5.229 -0.4234  0.1324 -0.3186
   34CHL1  H18B 3651   5.039   1.084   5.400  2.3047 -1.2857 -0.1999
   34CHL1  H18C 3652   5.059   0.953   5.288  1.6911  1.2131 -1.6810
   34CHL1   C12 3653   4.748   1.105   5.362 -0.5405 -0.0299  0.3043
   34CHL1  H12A 3654   4.772   1.169   5.274  0.7012 -0.8369  0.0159
   34CHL1  H12B 3655   4.644   1.067   5.357 -0.1765 -1.2435  1.3374
   34CHL1   C11 3656   4.791   1.185   5.491  0.4296 -0.6074  0.2542
   34CHL1  H11A 3657   4.880   1.250   5.474  0.6652  0.4191  4.3775
   34CHL1  H11B 3658   4.715   1.264   5.511  1.2863 -0.3604  3.1083
   34CHL1    C9 3659   4.800   1.101   5.619 -0.0740  0.5360  0.0533
   34CHL1    H9 3660   4.698   1.061   5.633  0.6406 -2.3306 -1.9762
   34CHL1   C10 3661   4.827   1.195   5.735 -0.0517 -0.3641  0.1102
   34CHL1   C19 3662   4.952   1.278   5.700  0.2982  0.1802 -0.4189
   34CHL1  H19A 3663   4.922   1.367   5.640  0.7332  0.7384  0.1734
   34CHL1  H19B 3664   5.004   1.315   5.791 -0.8244 -0.7730  0.6517
   34CHL1  H19C 3665   5.024   1.218   5.642 -0.3125  1.5591 -2.7098
   34CHL1    C1 3666   4.705   1.291   5.754  0.0745  0.0770 -0.1914
   34CHL1   H1A 3667   4.713   1.374   5.681  0.3021 -0.9135 -1.3206
   34CHL1   H1B 3668   4.612   1.233   5.738  1.3954 -1.8147 -1.4951
   34CHL1    C2 3669   4.687   1.348   5.896 -0.2171  0.7983  0.0151
   34CHL1   H2A 3670   4.590   1.402   5.906 -0.9484 -0.2263 -1.2742
   34CHL1   H2B 3671   4.772   1.418   5.911  2.1200 -1.5089 -1.6047
   34CHL1   C20 3672   4.813   0.903   5.079 -0.2587  0.2036 -0.3129
   34CHL1   H20 3673   4.883   0.987   5.064 -1.5718  1.5262  0.7208
   34CHL1   C21 3674   4.684   0.965   5.033  0.1399  0.2768  0.2364
   34CHL1  H21A 3675   4.692   1.036   4.948  0.9643  1.0879  0.9542
   34CHL1  H21B 3676   4.628   1.020   5.111 -0.8355 -0.7978  0.3254
   34CHL1  H21C 3677   4.617   0.880   5.010 -0.8744  0.7560  1.2949
   34CHL1   C22 3678   4.840   0.781   4.985 -0.4839 -0.0017  0.3525
   34CHL1  H22A 3679   4.925   0.722   5.024 -0.2358 -0.5660 -1.0096
   34CHL1  H22B 3680   4.756   0.709   4.996  1.3493 -2.3694 -0.4339
   34CHL1   C23 3681   4.858   0.820   4.838 -0.3374 -0.1517 -0.0414
   34CHL1  H23A 3682   4.757   0.854   4.807 -0.6090 -1.5120 -0.7126
   34CHL1  H23B 3683   4.920   0.913   4.832 -0.8537  0.1791 -0.3530
   34CHL1   C24 3684   4.919   0.713   4.752 -0.0605 -0.2481  0.3790
   34CHL1  H24A 3685   5.020   0.674   4.777 -0.3178 -0.9675  0.3201
   34CHL1  H24B 3686   4.861   0.618   4.743  0.1631 -0.3358 -0.1370
   34CHL1   C25 3687   4.926   0.754   4.603 -0.4895  0.1862  0.0054
   34CHL1   H25 3688   4.943   0.659   4.547  1.0864 -0.8593  2.1144
   34CHL1   C26 3689   4.794   0.814   4.539 -0.3291 -0.5507  0.3996
   34CHL1  H26A 3690   4.710   0.743   4.556 -1.4519  0.6440  0.0357
   34CHL1  H26B 3691   4.774   0.911   4.590 -1.4880 -0.8364  0.5179
   34CHL1  H26C 3692   4.810   0.837   4.432 -0.1015 -0.4527  0.4550
   34CHL1   C27 3693   5.052   0.846   4.575  0.4588  0.3821 -0.6710
   34CHL1  H27A 3694   5.069   0.875   4.469 -0.2630 -0.4422 -1.0261
   34CHL1  H27B 3695   5.059   0.941   4.632 -1.9643  2.4991 -3.5531
   34CHL1  H27C 3696   5.129   0.771   4.604 -0.3604  0.2827  1.4140
   35CHL1    C3 3697   3.988   3.712   6.328  0.7019 -0.1845  0.1116
   35CHL1    H3 3698   3.975   3.806   6.271 -1.2587  0.0806  0.9208
   35CHL1    O3 3699   3.959   3.730   6.463 -0.6765 -0.3305  0.2871
   35CHL1   H3' 3700   4.012   3.660   6.503 -1.1629 -0.3672  0.8885
   35CHL1    C4 3701   3.878   3.617   6.273 -0.3029 -0.2400  0.0982
   35CHL1   H4A 3702   3.892   3.521   6.325  0.2105  0.5976  1.5492
   35CHL1   H4B 3703   3.775   3.654   6.295  0.0377 -0.4143  2.1107
   35CHL1    C5 3704   3.899   3.600   6.125 -0.0485  0.1080 -0.6600
   35CHL1    C6 3705   3.803   3.647   6.038 -1.0446 -0.1950  0.0659
   35CHL1    H6 3706   3.706   3.679   6.078 -1.4841 -0.7204 -0.5581
   35CHL1    C7 3707   3.822   3.656   5.886  0.4276  0.8251 -0.1106
   35CHL1   H7A 3708   3.742   3.594   5.839  1.9519  0.0870 -1.8062
   35CHL1   H7B 3709   3.814   3.762   5.855 -2.3201  0.9929  0.8500
   35CHL1    C8 3710   3.953   3.574   5.838  0.0776 -0.5772 -0.1918
   35CHL1    H8 3711   3.923   3.467   5.830 -0.6198 -0.2734 -2.5945
   35CHL1   C14 3712   3.996   3.625   5.702 -0.6939  0.2062  0.4520
   35CHL1   H14 3713   4.035   3.726   5.727 -1.9708  0.5703  1.0668
   35CHL1   C15 3714   3.897   3.652   5.591 -0.5824  0.0613 -0.4823
   35CHL1  H15A 3715   3.814   3.579   5.578  0.7184 -1.7875  1.0512
   35CHL1  H15B 3716   3.849   3.752   5.599 -0.1243  0.3666 -1.3758
   35CHL1   C16 3717   3.981   3.656   5.459  0.6514  0.0528 -0.1631
   35CHL1  H16A 3718   3.939   3.579   5.391  0.2371  0.5774 -0.5000
   35CHL1  H16B 3719   3.989   3.750   5.402  2.4174 -0.2255 -0.4320
   35CHL1   C17 3720   4.130   3.609   5.496 -0.7570  0.3501 -0.0541
   35CHL1   H17 3721   4.191   3.699   5.520  0.2482 -0.5825  1.0328
   35CHL1   C13 3722   4.105   3.546   5.633  0.0294  0.0117  0.2251
   35CHL1   C18 3723   4.066   3.399   5.608  0.5381  0.1329  0.5560
   35CHL1  H18A 3724   3.985   3.372   5.537  0.2175 -1.4988  1.4809
   35CHL1  H18B 3725   4.159   3.342   5.589 -0.5891 -1.9967  1.1173
   35CHL1  H18C 3726   4.028   3.349   5.700  0.3772 -2.4350 -0.8087
   35CHL1   C12 3727   4.227   3.557   5.731  0.2249  0.3175 -0.5139
   35CHL1  H12A 3728   4.303   3.481   5.706  0.3204  0.4495 -0.6193
   35CHL1  H12B 3729   4.266   3.660   5.721 -0.7769  1.1634  2.8329
   35CHL1   C11 3730   4.195   3.525   5.877 -0.6348 -0.1212  1.0150
   35CHL1  H11A 3731   4.188   3.414   5.877  1.2489 -0.2740  1.6238
   35CHL1  H11B 3732   4.282   3.558   5.937 -1.4203  2.3244  0.9383
   35CHL1    C9 3733   4.070   3.590   5.933 -0.2610  0.1430 -0.4962
   35CHL1    H9 3734   4.097   3.698   5.930 -0.1919  0.0999 -2.2580
   35CHL1   C10 3735   4.041   3.556   6.080 -0.1279 -0.3157 -0.2089
   35CHL1   C19 3736   4.052   3.406   6.102 -0.1005 -0.5042 -0.5322
   35CHL1  H19A 3737   3.985   3.350   6.033  0.1584 -2.2972  0.6069
   35CHL1  H19B 3738   4.156   3.368   6.092  0.9917  1.6390  1.7644
   35CHL1  H19C 3739   4.027   3.374   6.206 -2.8621  0.4578 -0.8019
   35CHL1    C1 3740   4.150   3.625   6.162  0.1935 -0.0682 -0.1031
   35CHL1   H1A 3741   4.246   3.572   6.141 -0.6058 -1.8946  0.6661
   35CHL1   H1B 3742   4.157   3.728   6.123  0.0089  0.0529  0.1842
   35CHL1    C2 3743   4.119   3.640   6.306 -0.2999  0.1465  0.2418
   35CHL1   H2A 3744   4.202   3.696   6.356  0.0424  1.3622 -1.5941
   35CHL1   H2B 3745   4.108   3.540   6.353  0.7477 -0.0986 -0.0092
   35CHL1   C20 3746   4.203   3.521   5.392  0.0503 -0.1946 -0.1132
   35CHL1   H20 3747   4.160   3.421   5.376 -0.2414 -0.2946  1.1768
   35CHL1   C21 3748   4.348   3.498   5.429  0.3967 -0.6091 -0.4068
   35CHL1  H21A 3749   4.417   3.439   5.365 -0.1633 -0.1083 -1.5074
   35CHL1  H21B 3750   4.355   3.428   5.515  2.2364 -0.1883 -0.1778
   35CHL1  H21C 3751   4.404   3.591   5.454  0.5576 -0.1485 -2.3146
   35CHL1   C22 3752   4.182   3.593   5.252  0.4946 -0.5432  0.2270
   35CHL1  H22A 3753   4.075   3.587   5.224  0.1610  0.8949  1.0431
   35CHL1  H22B 3754   4.211   3.701   5.250  1.8584 -0.8417  1.6442
   35CHL1   C23 3755   4.269   3.535   5.140  0.1589  0.0828 -0.0983
   35CHL1  H23A 3756   4.365   3.590   5.153  1.1538 -1.0591 -2.1039
   35CHL1  H23B 3757   4.293   3.429   5.166  1.8026  0.5692  0.4868
   35CHL1   C24 3758   4.210   3.543   5.006 -0.3357 -0.2293 -0.2375
   35CHL1  H24A 3759   4.129   3.467   5.004 -1.1623  0.6414 -1.1737
   35CHL1  H24B 3760   4.167   3.643   4.982  1.3135 -0.0062 -2.5578
   35CHL1   C25 3761   4.311   3.505   4.900 -0.0234 -0.4572 -0.0729
   35CHL1   H25 3762   4.354   3.406   4.929 -1.5672 -1.7133 -1.7745
   35CHL1   C26 3763   4.240   3.484   4.765 -0.3273  0.1173  0.1445
   35CHL1  H26A 3764   4.320   3.449   4.697  1.4716  2.1954  1.0320
   35CHL1  H26B 3765   4.161   3.407   4.771  1.1224 -1.3503  1.5508
   35CHL1  H26C 3766   4.198   3.575   4.717  1.5209  0.9087 -0.0572
   35CHL1   C27 3767   4.425   3.603   4.890  0.2443  0.7863 -1.6167
   35CHL1  H27A 3768   4.491   3.595   4.802  0.0639  0.0197 -1.6898
   35CHL1  H27B 3769   4.380   3.704   4.894 -2.6337 -0.4189 -0.4377
   35CHL1  H27C 3770   4.485   3.579   4.981  1.7373  2.6219 -2.0489
   36CHL1    C3 3771   1.833   3.403   6.370 -0.5388  0.1631 -0.6264
   36CHL1    H3 3772   1.867   3.494   6.317 -0.6700  0.4229 -0.2665
   36CHL1    O3 3773   1.847   3.414   6.512  0.3538 -0.5526 -0.2052
   36CHL1   H3' 3774   1.775   3.359   6.544  0.1574  0.5958  1.4923
   36CHL1    C4 3775   1.680   3.380   6.349 -0.7580 -0.0790 -0.5836
   36CHL1   H4A 3776   1.647   3.298   6.416  0.3522 -0.8705 -0.9703
   36CHL1   H4B 3777   1.625   3.472   6.377 -0.4518  0.4888 -1.7837
   36CHL1    C5 3778   1.644   3.352   6.209  0.0684 -0.3410 -0.0917
   36CHL1    C6 3779   1.563   3.430   6.143  0.1237 -0.8777 -0.1447
   36CHL1    H6 3780   1.525   3.517   6.199 -1.7837 -0.6743 -1.6681
   36CHL1    C7 3781   1.514   3.410   6.001  0.2122  0.9302  0.9722
   36CHL1   H7A 3782   1.405   3.405   5.978  0.5242 -2.9533 -0.3480
   36CHL1   H7B 3783   1.556   3.490   5.936 -1.6721 -0.2295 -1.8769
   36CHL1    C8 3784   1.563   3.283   5.933 -0.1763 -0.3341  0.1228
   36CHL1    H8 3785   1.508   3.193   5.966 -0.1404 -0.8471 -1.1424
   36CHL1   C14 3786   1.559   3.288   5.782 -0.3019  0.0047  0.2846
   36CHL1   H14 3787   1.624   3.377   5.767  0.1782 -0.1532  1.3460
   36CHL1   C15 3788   1.436   3.322   5.701 -0.6176  0.7544 -0.1213
   36CHL1  H15A 3789   1.354   3.265   5.750  2.0300 -0.5066  3.2792
   36CHL1  H15B 3790   1.401   3.427   5.707 -1.7397  0.3608  0.4879
   36CHL1   C16 3791   1.467   3.284   5.555  0.2294 -0.1178 -0.2006
   36CHL1  H16A 3792   1.384   3.236   5.499 -0.6355 -0.8625  1.6232
   36CHL1  H16B 3793   1.484   3.369   5.485 -1.6249 -1.1840 -2.0695
   36CHL1   C17 3794   1.600   3.206   5.565  0.4861  0.6983  0.1659
   36CHL1   H17 3795   1.674   3.284   5.536  2.2165 -1.6740 -2.3882
   36CHL1   C13 3796   1.625   3.170   5.709  0.5228  0.6711  0.4274
   36CHL1   C18 3797   1.552   3.038   5.739  0.5893  0.3505  0.0051
   36CHL1  H18A 3798   1.527   3.018   5.845 -0.1015 -3.0353 -0.6905
   36CHL1  H18B 3799   1.451   3.038   5.693  0.7429  2.7308 -0.4542
   36CHL1  H18C 3800   1.600   2.952   5.688  0.4181  1.0704 -1.4237
   36CHL1   C12 3801   1.771   3.166   5.746 -0.6173  0.0430 -0.7123
   36CHL1  H12A 3802   1.809   3.071   5.701  2.5755 -0.2287  2.1120
   36CHL1  H12B 3803   1.824   3.259   5.717 -2.1201  1.5750  1.1525
   36CHL1   C11 3804   1.791   3.152   5.901  0.9321  0.3734 -0.1155
   36CHL1  H11A 3805   1.767   3.048   5.931  1.7669  0.0543 -0.5165
   36CHL1  H11B 3806   1.900   3.155   5.921  0.7420  0.0849  1.0029
   36CHL1    C9 3807   1.715   3.260   5.978 -0.2946 -0.8058 -0.6851
   36CHL1    H9 3808   1.769   3.353   5.951  2.1993 -1.7200  0.8035
   36CHL1   C10 3809   1.720   3.241   6.136 -0.5132 -0.5056  0.3802
   36CHL1   C19 3810   1.655   3.100   6.173 -0.5992 -0.2251 -0.8664
   36CHL1  H19A 3811   1.675   3.081   6.281  0.8938  0.2944 -1.0286
   36CHL1  H19B 3812   1.545   3.103   6.158 -1.0863  0.3097  2.0838
   36CHL1  H19C 3813   1.698   3.016   6.115 -2.5976 -0.8263 -1.5562
   36CHL1    C1 3814   1.871   3.250   6.167 -0.2623  0.4317 -0.2754
   36CHL1   H1A 3815   1.921   3.154   6.140 -1.7470 -0.6973  0.7895
   36CHL1   H1B 3816   1.911   3.330   6.101 -0.3372  1.6288  1.0828
   36CHL1    C2 3817   1.910   3.276   6.315 -0.5524  0.1145  0.1965
   36CHL1   H2A 3818   2.015   3.310   6.330  0.2721 -2.4457  0.8072
   36CHL1   H2B 3819   1.878   3.194   6.383  0.7109 -0.7517 -0.2210
   36CHL1   C20 3820   1.603   3.098   5.453 -0.1504  0.4746  0.4377
   36CHL1   H20 3821   1.531   3.017   5.474  2.5644 -1.9022  1.2739
   36CHL1   C21 3822   1.740   3.023   5.446  0.3318  1.0870 -0.6531
   36CHL1  H21A 3823   1.734   2.953   5.359 -1.1912  2.5438 -1.8034
   36CHL1  H21B 3824   1.754   2.968   5.541 -1.4320  0.9487 -0.4466
   36CHL1  H21C 3825   1.824   3.094   5.429  2.1411 -0.8435 -0.1338
   36CHL1   C22 3826   1.585   3.148   5.303  0.2082  0.2771 -0.3576
   36CHL1  H22A 3827   1.506   3.226   5.303 -1.6853 -1.4500  2.6965
   36CHL1  H22B 3828   1.680   3.188   5.261  1.2481 -1.7706 -0.0869
   36CHL1   C23 3829   1.515   3.032   5.218 -0.4569 -0.2049 -0.5117
   36CHL1  H23A 3830   1.558   2.937   5.255 -2.5633  0.0983  3.2022
   36CHL1  H23B 3831   1.412   3.030   5.257 -0.4364 -1.5613 -0.5099
   36CHL1   C24 3832   1.517   3.054   5.062 -0.8144 -0.1518 -0.1142
   36CHL1  H24A 3833   1.471   2.965   5.015  1.5840  0.4727 -4.1585
   36CHL1  H24B 3834   1.464   3.150   5.042 -1.2622 -0.5216 -0.7044
   36CHL1   C25 3835   1.647   3.074   4.992 -0.6983 -0.1530  0.5063
   36CHL1   H25 3836   1.708   3.160   5.027  1.3666 -1.4924  0.4451
   36CHL1   C26 3837   1.736   2.947   5.011  0.6704  0.0194 -0.1599
   36CHL1  H26A 3838   1.673   2.863   4.975  0.9665 -0.8546  1.2913
   36CHL1  H26B 3839   1.830   2.964   4.954 -0.1079 -0.5922 -1.6981
   36CHL1  H26C 3840   1.755   2.932   5.119 -0.5992  0.3297  0.1224
   36CHL1   C27 3841   1.611   3.101   4.846 -0.0445 -0.5723  0.1782
   36CHL1  H27A 3842   1.702   3.119   4.784 -0.3834  1.0996  0.1225
   36CHL1  H27B 3843   1.546   3.024   4.800  0.0184 -0.7983  0.4644
   36CHL1  H27C 3844   1.555   3.197   4.842  1.4752  0.3216 -2.0110
   37CHL1    C3 3845   1.000   4.073   6.356  0.4820  0.0171  0.5934
   37CHL1    H3 3846   1.044   4.173   6.335  1.3805 -0.4257  0.3197
   37CHL1    O3 3847   0.987   4.050   6.493  1.2347 -0.3094  0.3642
   37CHL1   H3' 3848   0.928   3.975   6.494 -0.9560  1.3073 -0.2331
   37CHL1    C4 3849   0.861   4.088   6.291 -0.1320  0.4550  0.4951
   37CHL1   H4A 3850   0.812   3.990   6.306  3.0945 -1.3694 -0.0909
   37CHL1   H4B 3851   0.810   4.173   6.342  0.2689  1.5268 -0.8332
   37CHL1    C5 3852   0.866   4.119   6.146  0.2662  0.0207  1.1054
   37CHL1    C6 3853   0.810   4.223   6.088 -0.2494 -0.1751 -0.1913
   37CHL1    H6 3854   0.750   4.287   6.155  0.2606  0.6956 -0.5496
   37CHL1    C7 3855   0.795   4.237   5.942 -0.0815 -0.2733 -0.6903
   37CHL1   H7A 3856   0.687   4.258   5.926 -0.1616 -1.1058 -1.3184
   37CHL1   H7B 3857   0.860   4.317   5.902 -0.3499 -0.7302 -2.1303
   37CHL1    C8 3858   0.834   4.114   5.859 -0.2512 -0.0511 -0.3918
   37CHL1    H8 3859   0.739   4.057   5.855 -2.2236  2.9606 -0.2268
   37CHL1   C14 3860   0.869   4.159   5.717 -0.2444  0.2216  0.1224
   37CHL1   H14 3861   0.957   4.225   5.730 -0.4759  0.9085 -1.5219
   37CHL1   C15 3862   0.772   4.251   5.634  0.1995 -0.3221 -0.2121
   37CHL1  H15A 3863   0.668   4.216   5.649 -0.4327  1.5663  0.1695
   37CHL1  H15B 3864   0.772   4.359   5.662  0.3015 -0.5889  0.8627
   37CHL1   C16 3865   0.804   4.232   5.486 -0.1881  0.6343 -0.4484
   37CHL1  H16A 3866   0.712   4.186   5.445 -2.1635  3.8748  0.0329
   37CHL1  H16B 3867   0.829   4.328   5.436 -0.5562  0.4061 -1.0892
   37CHL1   C17 3868   0.922   4.125   5.487  0.0010 -0.2763  0.1845
   37CHL1   H17 3869   1.020   4.176   5.497 -0.1885 -0.2311  2.5444
   37CHL1   C13 3870   0.908   4.050   5.619 -0.2396  0.2723 -0.2252
   37CHL1   C18 3871   0.793   3.939   5.608 -0.1072  0.5539  1.1813
   37CHL1  H18A 3872   0.839   3.854   5.553  0.3160 -0.6342  3.2881
   37CHL1  H18B 3873   0.744   3.910   5.704 -0.7465  0.9125  0.9688
   37CHL1  H18C 3874   0.705   3.977   5.552  0.7160  1.5826  0.5581
   37CHL1   C12 3875   1.031   3.979   5.686  0.1048 -0.1395 -0.0680
   37CHL1  H12A 3876   1.057   3.891   5.623  2.8619  1.5942 -1.5588
   37CHL1  H12B 3877   1.121   4.043   5.691 -1.4968  2.1926  4.6453
   37CHL1   C11 3878   0.995   3.932   5.826 -0.0791  0.4824  0.6187
   37CHL1  H11A 3879   0.922   3.849   5.815  0.4256  0.3325 -3.4818
   37CHL1  H11B 3880   1.090   3.887   5.862  0.1810  1.8462  1.7155
   37CHL1    C9 3881   0.956   4.044   5.923 -0.7422 -0.4206  0.6181
   37CHL1    H9 3882   1.035   4.121   5.919  0.5554 -1.4643  3.2428
   37CHL1   C10 3883   0.941   4.009   6.074 -0.0552  0.5213 -0.3317
   37CHL1   C19 3884   0.859   3.878   6.073  0.0943  0.9670 -0.0948
   37CHL1  H19A 3885   0.911   3.786   6.039  1.1292  1.5891 -0.2191
   37CHL1  H19B 3886   0.840   3.841   6.176  1.3332 -0.4920 -0.3499
   37CHL1  H19C 3887   0.763   3.876   6.016  0.8521 -0.8254 -1.4351
   37CHL1    C1 3888   1.082   3.993   6.136 -0.0715 -0.2418  0.1063
   37CHL1   H1A 3889   1.130   3.906   6.088 -0.1245 -0.5426  0.5913
   37CHL1   H1B 3890   1.148   4.078   6.109 -2.1737  0.8412 -1.9238
   37CHL1    C2 3891   1.080   3.968   6.286 -0.6041 -0.0916 -0.3246
   37CHL1   H2A 3892   1.186   3.964   6.317 -0.9259 -1.3481  0.7000
   37CHL1   H2B 3893   1.032   3.869   6.305 -1.6307  0.4688  0.0943
   37CHL1   C20 3894   0.935   4.057   5.354  0.2194  0.6578 -0.8228
   37CHL1   H20 3895   0.835   4.010   5.344 -0.1739  0.8671  1.5187
   37CHL1   C21 3896   1.050   3.953   5.350 -0.4893 -0.0611 -0.2705
   37CHL1  H21A 3897   1.152   3.983   5.385  1.2839 -2.9697 -2.4739
   37CHL1  H21B 3898   1.062   3.909   5.249  0.6414 -0.9768  0.2381
   37CHL1  H21C 3899   1.021   3.866   5.412  0.5435  0.8777  1.6483
   37CHL1   C22 3900   0.946   4.154   5.236  0.3550 -0.4682  0.0161
   37CHL1  H22A 3901   0.888   4.248   5.245  3.6909  1.8095 -0.2915
   37CHL1  H22B 3902   1.055   4.166   5.220  0.3903  0.7702  1.0143
   37CHL1   C23 3903   0.880   4.098   5.106 -0.4100  0.6888  0.5731
   37CHL1  H23A 3904   0.936   4.007   5.076 -0.8418  0.3827  0.6817
   37CHL1  H23B 3905   0.771   4.081   5.121 -0.2035 -1.7163 -0.2322
   37CHL1   C24 3906   0.895   4.194   4.990  0.5696 -0.1264  0.0146
   37CHL1  H24A 3907   0.829   4.282   5.003 -0.8293 -1.3931  1.9514
   37CHL1  H24B 3908   1.001   4.230   4.988  0.8246 -0.6971  1.8047
   37CHL1   C25 3909   0.871   4.136   4.855  0.7091  0.0586  0.2871
   37CHL1   H25 3910   0.946   4.062   4.819 -0.8029 -1.3218 -0.1967
   37CHL1   C26 3911   0.741   4.069   4.846 -0.0451  0.0173  0.8441
   37CHL1  H26A 3912   0.727   4.049   4.738  1.7126 -2.0647  0.9257
   37CHL1  H26B 3913   0.738   3.974   4.904 -2.3607 -1.5534 -1.5768
   37CHL1  H26C 3914   0.654   4.132   4.872 -0.8262 -1.0447  0.8919
   37CHL1   C27 3915   0.882   4.256   4.761 -0.2287  0.0851  0.1249
   37CHL1  H27A 3916   0.817   4.342   4.788 -1.4857 -0.7018 -0.2912
   37CHL1  H27B 3917   0.988   4.286   4.767 -0.0896 -0.5700  1.2550
   37CHL1  H27C 3918   0.858   4.228   4.656 -2.6211 -0.9409  0.8773
   38CHL1    C3 3919   2.525   6.847   5.443  1.1016  0.5022 -1.2399
   38CHL1    H3 3920   2.635   6.848   5.427  1.1009 -2.0012 -1.8138
   38CHL1    O3 3921   2.502   6.815   5.581  0.1662 -0.0171 -0.5733
   38CHL1   H3' 3922   2.530   6.725   5.598  1.4835  0.2418 -1.2462
   38CHL1    C4 3923   2.463   6.987   5.422 -0.2260 -0.0677  0.2035
   38CHL1   H4A 3924   2.357   6.988   5.453 -0.6121  1.6581 -1.0075
   38CHL1   H4B 3925   2.525   7.057   5.483  2.0720 -1.2187 -0.6752
   38CHL1    C5 3926   2.480   7.018   5.275 -0.2966 -0.1571 -0.0977
   38CHL1    C6 3927   2.543   7.130   5.229  0.7941  0.7079  0.4924
   38CHL1    H6 3928   2.575   7.205   5.303  3.4333  0.3527 -0.1721
   38CHL1    C7 3929   2.549   7.176   5.086 -0.4536  0.2161  0.7649
   38CHL1   H7A 3930   2.510   7.279   5.068 -0.1311  0.3250  0.6786
   38CHL1   H7B 3931   2.659   7.171   5.073 -0.3612 -0.2152  1.6219
   38CHL1    C8 3932   2.462   7.087   4.990  1.4413  0.2771 -0.0735
   38CHL1    H8 3933   2.359   7.128   4.997  1.2302 -0.1066 -0.8862
   38CHL1   C14 3934   2.513   7.092   4.850 -0.1162 -0.2139 -0.3737
   38CHL1   H14 3935   2.605   7.030   4.844 -0.4389 -0.7295 -0.0784
   38CHL1   C15 3936   2.539   7.237   4.801 -0.6392 -0.8900  0.3518
   38CHL1  H15A 3937   2.452   7.298   4.835 -0.5961  1.3352 -3.0098
   38CHL1  H15B 3938   2.636   7.265   4.846 -0.2356 -1.3825 -0.1954
   38CHL1   C16 3939   2.537   7.227   4.648 -0.9523 -0.0342 -0.3401
   38CHL1  H16A 3940   2.473   7.312   4.614  0.0778  0.4885 -1.0409
   38CHL1  H16B 3941   2.644   7.243   4.622  0.1150 -3.7682  1.0775
   38CHL1   C17 3942   2.502   7.078   4.623  0.2984  0.6352  0.3480
   38CHL1   H17 3943   2.598   7.024   4.613 -0.2511 -0.0230 -2.3887
   38CHL1   C13 3944   2.429   7.026   4.748 -0.2660 -0.8209  0.6880
   38CHL1   C18 3945   2.287   7.083   4.739 -1.0614 -0.1727 -0.2226
   38CHL1  H18A 3946   2.232   7.014   4.672  0.1136 -0.2721 -1.1163
   38CHL1  H18B 3947   2.235   7.072   4.837  0.7665 -0.9362  0.7158
   38CHL1  H18C 3948   2.287   7.190   4.707  1.8333  0.3422  1.1551
   38CHL1   C12 3949   2.435   6.879   4.782  0.5571  0.2294 -0.3238
   38CHL1  H12A 3950   2.364   6.817   4.722 -1.3518  1.3417  0.6939
   38CHL1  H12B 3951   2.534   6.839   4.751 -0.1131  0.3305 -2.7692
   38CHL1   C11 3952   2.393   6.855   4.923  0.2162 -0.3134 -0.2983
   38CHL1  H11A 3953   2.283   6.866   4.929  0.1936  0.3219 -1.6661
   38CHL1  H11B 3954   2.404   6.746   4.943  0.9203  0.0044  1.2775
   38CHL1    C9 3955   2.466   6.941   5.034 -0.0478 -0.3198  0.2487
   38CHL1    H9 3956   2.572   6.907   5.034 -0.5121 -1.9419  2.2671
   38CHL1   C10 3957   2.418   6.918   5.177  0.3382 -0.6142  0.3186
   38CHL1   C19 3958   2.260   6.948   5.188 -0.5488 -0.3757  0.5852
   38CHL1  H19A 3959   2.224   6.923   5.290  0.9297  1.4630  1.6414
   38CHL1  H19B 3960   2.248   7.056   5.165  0.9071 -0.2049  0.5232
   38CHL1  H19C 3961   2.201   6.884   5.119 -4.0243  1.9335  1.1350
   38CHL1    C1 3962   2.457   6.769   5.214  0.1750 -0.0601  0.3273
   38CHL1   H1A 3963   2.401   6.699   5.148  0.5901  0.7157 -0.8782
   38CHL1   H1B 3964   2.561   6.752   5.180  0.1833 -0.3829  0.5019
   38CHL1    C2 3965   2.445   6.741   5.364  0.7005 -0.7362  0.6555
   38CHL1   H2A 3966   2.475   6.636   5.384  0.8469 -0.7470  0.3891
   38CHL1   H2B 3967   2.337   6.745   5.390  0.7446 -1.5177  0.9988
   38CHL1   C20 3968   2.440   7.055   4.477 -0.3030 -0.0972 -0.3912
   38CHL1   H20 3969   2.333   7.083   4.472  0.0983  2.4144  2.2991
   38CHL1   C21 3970   2.455   6.903   4.440 -0.4360 -0.4145 -0.3067
   38CHL1  H21A 3971   2.412   6.885   4.339 -1.7855 -0.9069  0.3342
   38CHL1  H21B 3972   2.390   6.847   4.510 -0.3489 -2.0049 -1.4261
   38CHL1  H21C 3973   2.557   6.857   4.448  1.3738  3.2536 -0.3592
   38CHL1   C22 3974   2.515   7.136   4.368 -0.7641 -0.0850  0.1730
   38CHL1  H22A 3975   2.460   7.122   4.272  1.4184 -1.1938 -0.9860
   38CHL1  H22B 3976   2.518   7.242   4.403  0.7121 -0.1794  0.3848
   38CHL1   C23 3977   2.663   7.112   4.346 -0.8686 -0.1359  0.1212
   38CHL1  H23A 3978   2.715   7.135   4.441  1.3497  0.5356 -1.1812
   38CHL1  H23B 3979   2.674   7.004   4.322 -0.7826 -0.0147 -0.4049
   38CHL1   C24 3980   2.713   7.199   4.235 -0.6526 -0.1254  0.0248
   38CHL1  H24A 3981   2.658   7.179   4.140  0.8317 -1.0386 -0.6745
   38CHL1  H24B 3982   2.702   7.306   4.263  2.3868  1.1851 -3.0705
   38CHL1   C25 3983   2.862   7.163   4.201  0.1254 -0.5304  0.2682
   38CHL1   H25 3984   2.920   7.184   4.294 -0.0847  2.8874 -0.2358
   38CHL1   C26 3985   2.889   7.022   4.143  0.1981 -0.6272 -0.5263
   38CHL1  H26A 3986   2.998   7.003   4.132  0.3456  0.4602 -1.1216
   38CHL1  H26B 3987   2.842   6.949   4.211 -0.5340  0.4558  0.1674
   38CHL1  H26C 3988   2.836   7.017   4.046 -2.9576 -1.2090  1.1201
   38CHL1   C27 3989   2.915   7.272   4.101 -0.1440  0.3322  0.6577
   38CHL1  H27A 3990   2.860   7.275   4.004 -1.3337  1.3895  1.3174
   38CHL1  H27B 3991   2.906   7.377   4.137  0.3240  0.6453 -0.1070
   38CHL1  H27C 3992   3.023   7.255   4.083 -0.2680 -0.8400  0.9934
   39CHL1    C3 3993   3.677   5.973   6.013  0.2798 -0.0504 -0.0710
   39CHL1    H3 3994   3.762   5.904   5.992 -0.6162 -1.5946  1.1514
   39CHL1    O3 3995   3.643   5.955   6.152 -0.1164  0.1851  0.1583
   39CHL1   H3' 3996   3.551   5.928   6.157  0.0318 -0.2749  0.4220
   39CHL1    C4 3997   3.704   6.125   5.993 -0.3893 -0.9539 -0.1102
   39CHL1   H4A 3998   3.618   6.187   6.026 -1.8849 -1.9849 -1.8439
   39CHL1   H4B 3999   3.799   6.145   6.046 -0.7142  1.8604 -0.4633
   39CHL1    C5 4000   3.726   6.169   5.857  0.6542 -0.0718  0.1219
   39CHL1    C6 4001   3.838   6.227   5.807 -0.5551  0.1125  0.3737
   39CHL1    H6 4002   3.914   6.245   5.885 -1.9289 -1.3964  2.1587
   39CHL1    C7 4003   3.864   6.256   5.661  0.3468 -0.4053  0.4822
   39CHL1   H7A 4004   3.906   6.359   5.659  0.0492 -0.2750 -1.6482
   39CHL1   H7B 4005   3.935   6.181   5.621  0.1770 -0.8511  1.0024
   39CHL1    C8 4006   3.732   6.254   5.577  0.1781  0.0099  0.1146
   39CHL1    H8 4007   3.678   6.349   5.599 -0.4565  0.3839 -2.7504
   39CHL1   C14 4008   3.777   6.242   5.433 -0.1359 -0.7116  0.0796
   39CHL1   H14 4009   3.829   6.145   5.421  1.5096  0.0316  0.8827
   39CHL1   C15 4010   3.882   6.346   5.382 -0.2856  0.1558 -0.1009
   39CHL1  H15A 4011   3.860   6.452   5.403  1.4948  0.5354  0.0034
   39CHL1  H15B 4012   3.985   6.316   5.411  0.2912  0.0446 -2.1037
   39CHL1   C16 4013   3.863   6.320   5.229 -0.0431 -0.6397  0.2485
   39CHL1  H16A 4014   3.866   6.415   5.173 -2.0804 -0.8052 -0.2311
   39CHL1  H16B 4015   3.945   6.249   5.202  0.5925 -0.4651  1.6205
   39CHL1   C17 4016   3.727   6.238   5.200 -0.1323 -0.3299  0.8465
   39CHL1   H17 4017   3.772   6.140   5.173  1.7019  1.4228 -3.5590
   39CHL1   C13 4018   3.664   6.239   5.337  0.0020 -0.5758  0.9807
   39CHL1   C18 4019   3.580   6.370   5.348 -0.6640 -0.4330  0.2375
   39CHL1  H18A 4020   3.492   6.362   5.281 -1.1427  0.5106  0.7360
   39CHL1  H18B 4021   3.536   6.358   5.449 -1.7032 -2.8932 -0.4151
   39CHL1  H18C 4022   3.638   6.462   5.328 -0.9402  0.0283  1.4837
   39CHL1   C12 4023   3.588   6.115   5.374  0.2904 -0.0814 -0.2563
   39CHL1  H12A 4024   3.499   6.112   5.307  0.8128 -2.4414 -0.9175
   39CHL1  H12B 4025   3.645   6.022   5.356 -0.2124 -0.8154  1.6994
   39CHL1   C11 4026   3.537   6.112   5.517  0.0383  0.6117  0.3580
   39CHL1  H11A 4027   3.466   6.197   5.529  0.1606  0.9352 -1.0972
   39CHL1  H11B 4028   3.484   6.017   5.536  0.7247  0.6360  2.7166
   39CHL1    C9 4029   3.655   6.125   5.612  0.2366  0.0563  0.1416
   39CHL1    H9 4030   3.725   6.039   5.600 -0.4891 -0.3815 -1.1449
   39CHL1   C10 4031   3.611   6.123   5.760 -0.1681  0.1310  0.7375
   39CHL1   C19 4032   3.493   6.213   5.786  0.2376 -0.0384 -0.0406
   39CHL1  H19A 4033   3.470   6.210   5.895  0.7965 -1.9009  0.0504
   39CHL1  H19B 4034   3.515   6.316   5.751 -0.8976  0.1684 -0.1965
   39CHL1  H19C 4035   3.406   6.172   5.730  1.0997 -0.6053 -0.9808
   39CHL1    C1 4036   3.573   5.975   5.783  0.2448  0.3695 -0.6104
   39CHL1   H1A 4037   3.473   5.958   5.738 -0.0518 -1.6851  0.6987
   39CHL1   H1B 4038   3.646   5.908   5.733 -0.2316  2.0810 -3.9297
   39CHL1    C2 4039   3.554   5.939   5.931  0.0799 -0.1857  0.0627
   39CHL1   H2A 4040   3.524   5.832   5.935 -3.4059  0.6645 -0.3439
   39CHL1   H2B 4041   3.466   5.997   5.964  0.4657 -0.5317  1.7958
   39CHL1   C20 4042   3.656   6.283   5.069  0.1220  0.4739 -0.4621
   39CHL1   H20 4043   3.625   6.390   5.076 -0.5297  0.2832 -0.3560
   39CHL1   C21 4044   3.520   6.207   5.055  0.1179 -0.0824  0.1268
   39CHL1  H21A 4045   3.459   6.222   5.146 -0.7516  2.6606 -0.7831
   39CHL1  H21B 4046   3.523   6.097   5.059  1.3980 -0.0639  0.1683
   39CHL1  H21C 4047   3.458   6.248   4.973 -1.0556 -0.6619  0.7067
   39CHL1   C22 4048   3.738   6.267   4.936 -0.3007  0.0501 -0.0240
   39CHL1  H22A 4049   3.839   6.307   4.957 -0.6929  0.3039  1.4432
   39CHL1  H22B 4050   3.753   6.161   4.904  1.6349  0.0981  0.5951
   39CHL1   C23 4051   3.704   6.347   4.809 -0.2233  0.5559 -0.3308
   39CHL1  H23A 4052   3.607   6.312   4.769  0.6879 -2.7708  0.0929
   39CHL1  H23B 4053   3.696   6.452   4.844  0.6680 -0.5386  3.6099
   39CHL1   C24 4054   3.812   6.334   4.698 -0.0255 -0.3025  0.4759
   39CHL1  H24A 4055   3.898   6.401   4.718  1.1595 -2.1131  1.7229
   39CHL1  H24B 4056   3.861   6.235   4.701  0.5173 -0.0239  1.6001
   39CHL1   C25 4057   3.776   6.370   4.556 -0.2701  0.9661  0.5516
   39CHL1   H25 4058   3.715   6.290   4.510  2.8966 -0.1431 -2.1198
   39CHL1   C26 4059   3.694   6.504   4.542  0.2123 -0.2347 -0.3600
   39CHL1  H26A 4060   3.679   6.539   4.438  5.0895 -2.9576 -2.2790
   39CHL1  H26B 4061   3.591   6.487   4.582  0.7065  2.2201  2.2922
   39CHL1  H26C 4062   3.731   6.576   4.618  0.1259 -1.2792  0.7151
   39CHL1   C27 4063   3.908   6.385   4.474  0.2869  0.1046 -0.4976
   39CHL1  H27A 4064   3.879   6.419   4.372 -2.8136 -0.6858  0.0295
   39CHL1  H27B 4065   3.978   6.461   4.515 -1.4603  0.9869  0.9640
   39CHL1  H27C 4066   3.955   6.284   4.467 -0.9529 -0.6487  1.4618
   40CHL1    C3 4067   3.684   4.130   6.325  0.1793  0.3173  0.9349
   40CHL1    H3 4068   3.593   4.184   6.292  0.8322 -0.5336 -2.8063
   40CHL1    O3 4069   3.682   4.105   6.463 -0.6735 -0.0215 -0.3246
   40CHL1   H3' 4070   3.760   4.053   6.484 -2.4611 -2.2173  1.2578
   40CHL1    C4 4071   3.690   3.993   6.251 -0.3630  0.4720 -0.9901
   40CHL1   H4A 4072   3.782   3.937   6.279 -1.0984  0.8316  2.5569
   40CHL1   H4B 4073   3.613   3.925   6.293  0.9076  0.0679  0.7833
   40CHL1    C5 4074   3.690   4.020   6.104  0.9169 -0.5903  1.1183
   40CHL1    C6 4075   3.586   3.975   6.027 -0.8194 -0.1087 -0.2459
   40CHL1    H6 4076   3.519   3.903   6.077  0.9815 -2.1778 -0.6641
   40CHL1    C7 4077   3.576   3.994   5.874  0.5179 -0.1653 -0.1014
   40CHL1   H7A 4078   3.539   3.901   5.826 -1.3753  0.9218 -0.8993
   40CHL1   H7B 4079   3.495   4.067   5.852  1.8832  0.8009 -2.2616
   40CHL1    C8 4080   3.709   4.046   5.822 -0.3831 -0.5540 -0.3248
   40CHL1    H8 4081   3.782   3.963   5.813 -0.4726 -0.5743 -0.9363
   40CHL1   C14 4082   3.686   4.111   5.692 -0.0798 -0.5416  0.4991
   40CHL1   H14 4083   3.614   4.195   5.703 -0.7419 -1.0930  0.4083
   40CHL1   C15 4084   3.617   4.024   5.586  0.1576  0.4802 -0.7234
   40CHL1  H15A 4085   3.677   3.932   5.575 -0.4297  0.2458 -2.2491
   40CHL1  H15B 4086   3.511   3.992   5.599  0.2589  0.3746 -0.1056
   40CHL1   C16 4087   3.642   4.088   5.454 -0.0988  0.3296  0.4898
   40CHL1  H16A 4088   3.664   4.012   5.377 -1.7803 -0.2885  0.5709
   40CHL1  H16B 4089   3.554   4.148   5.421 -0.8404 -0.5014  0.9331
   40CHL1   C17 4090   3.749   4.198   5.486  0.3490  0.4257 -0.6267
   40CHL1   H17 4091   3.702   4.297   5.504 -0.0356  0.3278 -1.0922
   40CHL1   C13 4092   3.817   4.161   5.623  0.7307  0.2101  0.7064
   40CHL1   C18 4093   3.927   4.061   5.595 -0.0599  0.1104  0.1038
   40CHL1  H18A 4094   4.004   4.102   5.526  0.4776 -0.7579  0.1723
   40CHL1  H18B 4095   3.969   4.019   5.688  0.8932 -0.6182 -0.6312
   40CHL1  H18C 4096   3.876   3.973   5.550  0.8901 -1.2735  1.6277
   40CHL1   C12 4097   3.870   4.271   5.711 -0.3577  0.0753 -0.2300
   40CHL1  H12A 4098   3.964   4.318   5.674 -0.2228  1.0330  1.2474
   40CHL1  H12B 4099   3.791   4.348   5.723 -1.4617 -0.9201 -0.8591
   40CHL1   C11 4100   3.898   4.219   5.849  0.0233  0.4143  0.7342
   40CHL1  H11A 4101   3.986   4.153   5.837  0.0432  0.6983 -0.9083
   40CHL1  H11B 4102   3.947   4.298   5.910 -0.8032  2.7158 -1.4118
   40CHL1    C9 4103   3.779   4.148   5.913 -0.8796 -0.4306 -0.6239
   40CHL1    H9 4104   3.692   4.216   5.926  0.4791  0.9672  2.3192
   40CHL1   C10 4105   3.805   4.105   6.060  0.2366  0.5471 -0.0775
   40CHL1   C19 4106   3.939   4.025   6.074 -0.2894 -0.1388  0.1625
   40CHL1  H19A 4107   4.026   4.081   6.034 -1.3128  0.9629 -0.6032
   40CHL1  H19B 4108   3.966   3.995   6.178  1.7960 -1.2162 -0.6465
   40CHL1  H19C 4109   3.934   3.928   6.022 -1.5308  0.1968 -0.3864
   40CHL1    C1 4110   3.818   4.231   6.147 -0.6483 -0.4531 -0.5614
   40CHL1   H1A 4111   3.920   4.271   6.135 -0.4501 -0.4620  0.8900
   40CHL1   H1B 4112   3.739   4.302   6.115  0.0258 -0.0063 -1.2659
   40CHL1    C2 4113   3.811   4.206   6.302  0.3446  0.5268 -0.5248
   40CHL1   H2A 4114   3.809   4.303   6.356  2.7517  1.3528 -1.7233
   40CHL1   H2B 4115   3.911   4.168   6.332 -0.0656 -0.3625 -0.2591
   40CHL1   C20 4116   3.842   4.218   5.358  0.0641 -0.4911 -0.0442
   40CHL1   H20 4117   3.914   4.134   5.351  0.4752 -0.0059 -2.5304
   40CHL1   C21 4118   3.926   4.342   5.375 -0.4081 -0.2666 -0.0650
   40CHL1  H21A 4119   3.861   4.432   5.363 -2.4157 -1.8481 -1.8951
   40CHL1  H21B 4120   3.997   4.355   5.291  0.2647 -1.5881  0.2671
   40CHL1  H21C 4121   3.996   4.337   5.461 -0.1116  3.6488  0.1147
   40CHL1   C22 4122   3.763   4.218   5.220  0.1673  0.8374 -0.5675
   40CHL1  H22A 4123   3.755   4.114   5.180 -0.6706  1.5740 -2.4428
   40CHL1  H22B 4124   3.661   4.257   5.240  1.0437  2.4676  0.9096
   40CHL1   C23 4125   3.820   4.294   5.107 -0.2304 -0.6466  0.2944
   40CHL1  H23A 4126   3.820   4.405   5.112  1.0755 -0.3822 -2.9993
   40CHL1  H23B 4127   3.929   4.276   5.094 -0.2028 -0.3493  0.1068
   40CHL1   C24 4128   3.750   4.249   4.978  0.3425  0.1575  0.2012
   40CHL1  H24A 4129   3.787   4.151   4.942  2.3079  1.0869 -0.4311
   40CHL1  H24B 4130   3.642   4.230   4.996  0.6982 -3.9645 -0.9855
   40CHL1   C25 4131   3.769   4.350   4.861 -0.0322  0.4834  0.2909
   40CHL1   H25 4132   3.749   4.449   4.908  0.4334  0.6652  0.1066
   40CHL1   C26 4133   3.906   4.354   4.806 -0.5472  0.1765  1.0969
   40CHL1  H26A 4134   3.975   4.377   4.890  0.6643 -1.8808  0.7332
   40CHL1  H26B 4135   3.925   4.255   4.759 -2.7433  0.4444 -0.5234
   40CHL1  H26C 4136   3.908   4.424   4.719  0.8453 -1.2630 -0.0919
   40CHL1   C27 4137   3.670   4.332   4.749  0.2450  0.0336  0.7341
   40CHL1  H27A 4138   3.640   4.429   4.704 -3.4489 -2.3123 -2.4733
   40CHL1  H27B 4139   3.705   4.264   4.669  3.6054  1.5142  0.7779
   40CHL1  H27C 4140   3.580   4.286   4.796  0.1833  0.4755  1.0627
   41CHL1    C3 4141   0.070   3.812   6.280 -0.8369  0.1180  0.3379
   41CHL1    H3 4142   0.094   3.920   6.280 -1.8502  0.4030 -1.6377
   41CHL1    O3 4143   0.088   3.779   6.420 -0.1601 -0.2716 -0.2877
   41CHL1   H3' 4144   0.082   3.684   6.423  0.5535 -0.3018  0.8335
   41CHL1    C4 4145  -0.068   3.767   6.233  0.4486 -0.0754  0.3415
   41CHL1   H4A 4146  -0.081   3.664   6.271  1.6511 -0.2087  0.4367
   41CHL1   H4B 4147  -0.143   3.826   6.290 -0.7997 -0.3338 -0.9618
   41CHL1    C5 4148  -0.105   3.769   6.083  0.3113 -0.2187  0.0989
   41CHL1    C6 4149  -0.223   3.824   6.045  0.0329  0.7058 -0.2118
   41CHL1    H6 4150  -0.288   3.861   6.125  1.5765 -0.1327  1.5238
   41CHL1    C7 4151  -0.266   3.826   5.902 -0.0765 -0.1057 -1.1586
   41CHL1   H7A 4152  -0.377   3.817   5.900 -0.0693 -0.0723 -2.1977
   41CHL1   H7B 4153  -0.243   3.933   5.881  1.0543 -0.2399 -0.6841
   41CHL1    C8 4154  -0.179   3.738   5.799 -0.1159  0.1562 -0.8079
   41CHL1    H8 4155  -0.219   3.635   5.810 -0.4973  0.5026  1.6704
   41CHL1   C14 4156  -0.200   3.794   5.656 -0.3376  0.0275 -0.2557
   41CHL1   H14 4157  -0.157   3.896   5.661  1.9387 -0.8992  0.2271
   41CHL1   C15 4158  -0.340   3.807   5.592 -0.6752  0.3997  0.1715
   41CHL1  H15A 4159  -0.390   3.708   5.589  1.0781 -0.4908 -1.2683
   41CHL1  H15B 4160  -0.408   3.869   5.654 -0.8267  1.9309 -1.4642
   41CHL1   C16 4161  -0.313   3.834   5.448  0.3573 -0.5366 -0.4624
   41CHL1  H16A 4162  -0.354   3.755   5.382  0.1745  1.0230 -2.2799
   41CHL1  H16B 4163  -0.355   3.932   5.416 -0.8830 -0.1429  2.0940
   41CHL1   C17 4164  -0.160   3.818   5.430  0.3346 -0.5674 -0.3766
   41CHL1   H17 4165  -0.117   3.916   5.459 -2.3433 -0.3879  3.7394
   41CHL1   C13 4166  -0.108   3.731   5.553  0.5431  0.6048  0.8805
   41CHL1   C18 4167  -0.140   3.581   5.519 -0.7105  0.0146  0.0345
   41CHL1  H18A 4168  -0.063   3.540   5.450 -1.9619  0.1598 -1.4984
   41CHL1  H18B 4169  -0.125   3.515   5.606  0.2727 -0.4508 -0.4809
   41CHL1  H18C 4170  -0.241   3.557   5.479  0.1138 -1.9121 -0.9980
   41CHL1   C12 4171   0.034   3.749   5.584  0.1219  0.0907 -0.3399
   41CHL1  H12A 4172   0.094   3.698   5.506  1.0948 -1.7066  1.4886
   41CHL1  H12B 4173   0.058   3.857   5.592 -1.5237  0.5446 -1.0461
   41CHL1   C11 4174   0.061   3.697   5.727  0.0262  0.2647 -0.2942
   41CHL1  H11A 4175   0.051   3.586   5.725 -0.0086 -0.0570  4.4636
   41CHL1  H11B 4176   0.168   3.708   5.756 -0.1989 -0.2671  0.8326
   41CHL1    C9 4177  -0.031   3.755   5.837 -0.3157  1.3591 -0.3811
   41CHL1    H9 4178  -0.013   3.865   5.834  0.4020  1.2299 -1.8657
   41CHL1   C10 4179  -0.000   3.715   5.987 -0.1394  0.2606  0.2759
   41CHL1   C19 4180   0.002   3.562   5.992  0.1691  0.5407 -0.0618
   41CHL1  H19A 4181  -0.078   3.511   5.933  0.1568 -1.0052  1.2400
   41CHL1  H19B 4182   0.093   3.525   5.941  0.4906 -0.3874  1.1661
   41CHL1  H19C 4183  -0.002   3.513   6.091 -0.7528 -0.8541 -0.7602
   41CHL1    C1 4184   0.138   3.775   6.029  0.2810  0.6584 -0.7697
   41CHL1   H1A 4185   0.226   3.732   5.975  0.9934  0.4400  0.5231
   41CHL1   H1B 4186   0.134   3.884   6.010 -0.1914  0.8059  0.1679
   41CHL1    C2 4187   0.178   3.751   6.187  0.1703  0.1745 -0.1040
   41CHL1   H2A 4188   0.278   3.796   6.208  0.1307 -0.1884  0.9264
   41CHL1   H2B 4189   0.183   3.642   6.207 -0.7753  0.6807  3.5083
   41CHL1   C20 4190  -0.118   3.778   5.291  0.2665  0.7512  0.3251
   41CHL1   H20 4191  -0.140   3.671   5.272 -0.6187  0.6608  1.7270
   41CHL1   C21 4192   0.029   3.801   5.268 -0.7656  0.1426  0.6373
   41CHL1  H21A 4193   0.051   3.897   5.319 -2.5118  0.1584  1.4594
   41CHL1  H21B 4194   0.060   3.815   5.163  1.3735  2.5195  1.5103
   41CHL1  H21C 4195   0.081   3.712   5.309 -1.0547  0.0694  0.8520
   41CHL1   C22 4196  -0.205   3.852   5.180  0.3759  0.4494 -0.0723
   41CHL1  H22A 4197  -0.312   3.822   5.183  1.0931 -2.3739  1.1150
   41CHL1  H22B 4198  -0.202   3.962   5.190  0.8737  0.4568 -0.2842
   41CHL1   C23 4199  -0.168   3.812   5.039 -0.5254  0.0432 -0.6378
   41CHL1  H23A 4200  -0.066   3.841   5.008 -0.8257  0.9658 -0.8050
   41CHL1  H23B 4201  -0.180   3.704   5.018 -1.7750  0.4849 -2.4460
   41CHL1   C24 4202  -0.254   3.892   4.935 -0.4637 -0.6547  0.2879
   41CHL1  H24A 4203  -0.349   3.835   4.923 -1.0490  0.5389 -1.0780
   41CHL1  H24B 4204  -0.271   3.996   4.971 -1.5827 -0.8705  0.4117
   41CHL1   C25 4205  -0.188   3.901   4.795 -0.1833  0.4166  1.0814
   41CHL1   H25 4206  -0.087   3.942   4.816 -0.8308  0.5940  4.4811
   41CHL1   C26 4207  -0.194   3.766   4.722  0.6231  0.1214 -0.4912
   41CHL1  H26A 4208  -0.300   3.745   4.696  0.7737 -0.1952 -0.8520
   41CHL1  H26B 4209  -0.133   3.778   4.630  2.3710  3.3579  0.9135
   41CHL1  H26C 4210  -0.144   3.692   4.788 -0.2955 -1.1385 -1.1624
   41CHL1   C27 4211  -0.252   4.010   4.709  0.1059 -0.9506  0.5345
   41CHL1  H27A 4212  -0.359   3.981   4.706 -0.0517 -0.2892 -0.4526
   41CHL1  H27B 4213  -0.241   4.108   4.761  1.5831 -0.6185 -0.3658
   41CHL1  H27C 4214  -0.210   4.023   4.607 -0.3618  0.2336  0.4749
   42CHL1    C3 4215   6.620   2.686   6.317 -0.2321 -0.9652  0.5206
   42CHL1    H3 4216   6.591   2.581   6.333 -0.1016 -1.2008 -0.6882
   42CHL1    O3 4217   6.629   2.761   6.436 -0.1401 -0.4115 -0.3576
   42CHL1   H3' 4218   6.539   2.780   6.462 -0.9453 -1.1637 -2.3892
   42CHL1    C4 4219   6.760   2.683   6.243  1.0526 -0.3541  0.1454
   42CHL1   H4A 4220   6.789   2.788   6.224 -0.4360 -0.2261 -1.6978
   42CHL1   H4B 4221   6.833   2.636   6.313  1.3586 -2.6441 -1.5735
   42CHL1    C5 4222   6.756   2.612   6.108 -0.2771 -0.1631  0.2495
   42CHL1    C6 4223   6.835   2.511   6.072 -0.3130 -1.1322 -0.6343
   42CHL1    H6 4224   6.914   2.477   6.141 -0.3893  2.3219  1.3776
   42CHL1    C7 4225   6.830   2.444   5.939  0.4865 -0.0526  0.3148
   42CHL1   H7A 4226   6.918   2.387   5.904  0.0385 -0.2837 -0.4671
   42CHL1   H7B 4227   6.742   2.376   5.939 -0.7960  1.3448 -3.3579
   42CHL1    C8 4228   6.767   2.535   5.827  0.1394  0.2809 -0.0070
   42CHL1    H8 4229   6.839   2.617   5.804 -0.6316  0.8035 -0.5939
   42CHL1   C14 4230   6.739   2.452   5.704 -0.0558  0.3993 -0.8168
   42CHL1   H14 4231   6.664   2.378   5.736  1.8656 -0.2414  2.6759
   42CHL1   C15 4232   6.851   2.366   5.636  0.8181  0.0816 -0.1916
   42CHL1  H15A 4233   6.947   2.420   5.647  1.0197 -0.1854 -0.6234
   42CHL1  H15B 4234   6.863   2.268   5.688  0.6555  0.2187  0.1097
   42CHL1   C16 4235   6.805   2.342   5.491 -0.0551 -0.1332 -0.1626
   42CHL1  H16A 4236   6.878   2.392   5.424  2.1815 -1.5983  1.0389
   42CHL1  H16B 4237   6.789   2.233   5.476 -1.0195 -0.1387  0.7996
   42CHL1   C17 4238   6.670   2.424   5.480  0.2454  0.4053  1.1548
   42CHL1   H17 4239   6.592   2.352   5.514 -0.5021  0.6992  0.1217
   42CHL1   C13 4240   6.678   2.533   5.587 -0.6346  0.2444  0.0234
   42CHL1   C18 4241   6.769   2.645   5.527  0.8352  0.4616  0.1363
   42CHL1  H18A 4242   6.709   2.709   5.459 -0.8317 -1.3160 -0.1362
   42CHL1  H18B 4243   6.829   2.712   5.593  1.6115  0.6858 -0.7670
   42CHL1  H18C 4244   6.848   2.596   5.465  0.2081 -0.7636  0.2753
   42CHL1   C12 4245   6.551   2.604   5.626 -0.2824  0.5663 -0.1534
   42CHL1  H12A 4246   6.493   2.649   5.542 -1.2744  0.5853  0.5258
   42CHL1  H12B 4247   6.478   2.524   5.655 -1.2280  0.9244 -1.4292
   42CHL1   C11 4248   6.569   2.677   5.756 -0.1420  0.0608 -0.2080
   42CHL1  H11A 4249   6.639   2.760   5.733  0.3596  0.4212  2.2910
   42CHL1  H11B 4250   6.470   2.715   5.789 -1.3456 -0.5998 -2.7889
   42CHL1    C9 4251   6.637   2.596   5.872 -0.1478 -0.1347 -0.2929
   42CHL1    H9 4252   6.563   2.518   5.900  0.1857  0.2211  1.7892
   42CHL1   C10 4253   6.656   2.676   6.006 -0.1022 -0.7655  0.2667
   42CHL1   C19 4254   6.708   2.816   5.965 -0.4724  0.2328  0.0278
   42CHL1  H19A 4255   6.627   2.872   5.913 -0.6667 -1.1976 -1.2892
   42CHL1  H19B 4256   6.725   2.877   6.057  1.1971 -1.2718  0.7626
   42CHL1  H19C 4257   6.792   2.800   5.894 -1.3733 -2.1051 -0.5798
   42CHL1    C1 4258   6.515   2.692   6.081 -0.2862  0.7017 -0.8578
   42CHL1   H1A 4259   6.438   2.743   6.020 -1.9961 -0.9247 -0.1431
   42CHL1   H1B 4260   6.480   2.589   6.102  2.6014 -0.4287 -1.0709
   42CHL1    C2 4261   6.525   2.766   6.218  0.4109 -0.0426  0.6355
   42CHL1   H2A 4262   6.424   2.760   6.264  0.5847  0.7127  1.1384
   42CHL1   H2B 4263   6.554   2.872   6.201 -3.2031  0.6812 -2.2001
   42CHL1   C20 4264   6.634   2.450   5.334  0.0627  0.1164  0.6673
   42CHL1   H20 4265   6.535   2.498   5.318 -0.2539  0.2060  2.6693
   42CHL1   C21 4266   6.610   2.305   5.278 -0.0915  0.1735  0.4690
   42CHL1  H21A 4267   6.554   2.243   5.351  0.7694 -1.0604  0.1028
   42CHL1  H21B 4268   6.710   2.259   5.268 -0.5475 -1.4338  2.6403
   42CHL1  H21C 4269   6.559   2.315   5.180  2.3242  0.4401 -0.8297
   42CHL1   C22 4270   6.729   2.529   5.237  0.2871 -0.3020  0.1561
   42CHL1  H22A 4271   6.713   2.634   5.269 -1.5554 -0.4367 -0.2054
   42CHL1  H22B 4272   6.835   2.501   5.256  0.0439 -0.2667  1.6368
   42CHL1   C23 4273   6.695   2.521   5.086  0.7549 -0.0513  0.2647
   42CHL1  H23A 4274   6.739   2.422   5.060  0.3280 -0.7144  1.8871
   42CHL1  H23B 4275   6.584   2.516   5.073  0.5879  1.1554  1.0734
   42CHL1   C24 4276   6.752   2.632   4.994 -0.0562  0.4471  0.3030
   42CHL1  H24A 4277   6.704   2.726   5.028 -0.8719  1.0637 -2.3199
   42CHL1  H24B 4278   6.861   2.652   5.007 -0.0637  0.4933  0.2961
   42CHL1   C25 4279   6.729   2.618   4.844  0.0565 -0.1264  0.4482
   42CHL1   H25 4280   6.795   2.532   4.818 -1.6282 -2.1698  2.5341
   42CHL1   C26 4281   6.587   2.579   4.814  0.1935 -0.0709  0.0633
   42CHL1  H26A 4282   6.512   2.643   4.866 -0.4085  0.8120 -1.7936
   42CHL1  H26B 4283   6.580   2.604   4.706  3.2992 -1.7174 -0.6170
   42CHL1  H26C 4284   6.568   2.470   4.820 -1.5885  0.1815 -0.3836
   42CHL1   C27 4285   6.781   2.741   4.771 -1.2606 -0.5882  0.2222
   42CHL1  H27A 4286   6.739   2.841   4.794 -1.4448 -0.8089  0.8663
   42CHL1  H27B 4287   6.891   2.755   4.776 -1.4209  0.3407  1.6667
   42CHL1  H27C 4288   6.754   2.727   4.664 -2.4051 -1.7916  0.6425
   43CHL1    C3 4289   0.757   1.286   6.047  0.3500 -0.2364 -0.0609
   43CHL1    H3 4290   0.776   1.392   6.076  3.4444 -0.8425  0.4718
   43CHL1    O3 4291   0.693   1.218   6.152 -0.2547  0.5590 -0.2400
   43CHL1   H3' 4292   0.682   1.133   6.109 -1.1489  0.6832 -0.2764
   43CHL1    C4 4293   0.666   1.289   5.926 -0.1553  0.7111  0.0397
   43CHL1   H4A 4294   0.638   1.184   5.901  0.3089  0.3254  1.0905
   43CHL1   H4B 4295   0.569   1.335   5.954 -0.9826 -0.8882 -0.0519
   43CHL1    C5 4296   0.741   1.346   5.808  0.4174  0.5813 -0.6179
   43CHL1    C6 4297   0.681   1.449   5.742 -0.1013  0.0457 -0.5869
   43CHL1    H6 4298   0.581   1.474   5.781 -0.6550 -2.3772 -0.2453
   43CHL1    C7 4299   0.743   1.511   5.624 -0.5316  0.0222 -0.2860
   43CHL1   H7A 4300   0.667   1.529   5.545 -0.0234 -0.5783 -0.9313
   43CHL1   H7B 4301   0.784   1.610   5.654 -1.5525  0.6569 -0.9410
   43CHL1    C8 4302   0.858   1.427   5.560 -0.1700 -0.8306  0.0644
   43CHL1    H8 4303   0.805   1.346   5.504  0.0789  0.9517 -2.9765
   43CHL1   C14 4304   0.934   1.516   5.459 -0.7779  0.1614 -0.5164
   43CHL1   H14 4305   0.980   1.595   5.522  2.3415 -1.9805  0.1285
   43CHL1   C15 4306   0.852   1.587   5.349  0.9153  0.3952 -0.4068
   43CHL1  H15A 4307   0.795   1.501   5.309 -1.7516  0.8586  2.1012
   43CHL1  H15B 4308   0.779   1.664   5.382  0.5867 -0.0002 -0.2148
   43CHL1   C16 4309   0.959   1.639   5.248 -0.2543  0.1057  0.1088
   43CHL1  H16A 4310   0.937   1.602   5.145  1.7750  0.6973 -0.5722
   43CHL1  H16B 4311   0.955   1.748   5.267 -0.6085  0.0118  0.5823
   43CHL1   C17 4312   1.092   1.580   5.292  0.0332 -0.2936  0.4023
   43CHL1   H17 4313   1.134   1.657   5.359  0.5994 -1.7613  1.8057
   43CHL1   C13 4314   1.058   1.461   5.385  0.3909  0.5488 -0.4118
   43CHL1   C18 4315   1.035   1.328   5.309  0.6395 -0.4596  0.3398
   43CHL1  H18A 4316   0.974   1.338   5.217  0.5234  0.9508  0.5446
   43CHL1  H18B 4317   1.129   1.275   5.281  0.6920 -0.5997  0.7657
   43CHL1  H18C 4318   0.980   1.268   5.385 -0.8939 -0.8069 -0.9846
   43CHL1   C12 4319   1.151   1.424   5.506  0.3845  0.9702 -0.2889
   43CHL1  H12A 4320   1.234   1.366   5.460 -0.6262  0.0814 -1.0423
   43CHL1  H12B 4321   1.195   1.507   5.566 -0.6245  0.4375  1.2589
   43CHL1   C11 4322   1.085   1.323   5.610  0.0969  1.3272 -0.6883
   43CHL1  H11A 4323   1.072   1.223   5.564 -1.1327 -0.1364  2.5449
   43CHL1  H11B 4324   1.149   1.300   5.698  0.9566  1.2488 -1.3317
   43CHL1    C9 4325   0.946   1.373   5.667 -0.1046 -0.4557 -0.0126
   43CHL1    H9 4326   0.987   1.464   5.714  1.4107  0.0635 -2.1631
   43CHL1   C10 4327   0.881   1.285   5.774  0.2031  1.0334  0.4700
   43CHL1   C19 4328   0.869   1.143   5.716  0.2141 -0.3674  0.4599
   43CHL1  H19A 4329   0.838   1.071   5.795  0.1139 -0.2056  0.5691
   43CHL1  H19B 4330   0.784   1.137   5.645 -0.3109 -1.5461  1.1497
   43CHL1  H19C 4331   0.963   1.107   5.670 -0.7547 -1.1003 -1.0087
   43CHL1    C1 4332   0.973   1.283   5.904 -0.8296  0.4622  0.3821
   43CHL1   H1A 4333   1.066   1.224   5.892 -0.9837  0.2022  0.4360
   43CHL1   H1B 4334   0.995   1.389   5.926  1.4375  0.4766 -1.5908
   43CHL1    C2 4335   0.895   1.225   6.026 -0.7674  0.1845  0.3681
   43CHL1   H2A 4336   0.957   1.242   6.117 -2.2042 -1.4171  1.7046
   43CHL1   H2B 4337   0.882   1.115   6.030 -0.8955  0.1414 -0.9672
   43CHL1   C20 4338   1.187   1.562   5.169 -0.2212 -0.0810 -0.1731
   43CHL1   H20 4339   1.142   1.481   5.108  1.7926 -0.3500 -1.3824
   43CHL1   C21 4340   1.316   1.498   5.214 -0.3470  0.2338  0.4246
   43CHL1  H21A 4341   1.352   1.550   5.306  1.3719 -1.0505  0.5160
   43CHL1  H21B 4342   1.392   1.504   5.134 -0.1208  0.3746  0.6460
   43CHL1  H21C 4343   1.300   1.392   5.243 -1.2384  0.6757  1.6657
   43CHL1   C22 4344   1.205   1.694   5.090  0.3470  0.8247  0.7135
   43CHL1  H22A 4345   1.109   1.745   5.066 -1.2808 -2.2715  0.0697
   43CHL1  H22B 4346   1.274   1.766   5.138  0.3241  3.7019 -3.0881
   43CHL1   C23 4347   1.264   1.667   4.952 -0.3012  0.2064 -0.1545
   43CHL1  H23A 4348   1.355   1.604   4.948 -0.0545  0.5726 -0.2856
   43CHL1  H23B 4349   1.184   1.615   4.895 -1.5563  1.9750 -0.0887
   43CHL1   C24 4350   1.290   1.792   4.868  0.2878  0.1072 -0.6805
   43CHL1  H24A 4351   1.202   1.860   4.869  0.1723 -0.0390  0.0252
   43CHL1  H24B 4352   1.368   1.841   4.930 -1.8336  1.3388  1.1871
   43CHL1   C25 4353   1.341   1.754   4.728 -0.2377 -0.3868 -0.3258
   43CHL1   H25 4354   1.270   1.687   4.677 -1.2304  0.5201 -0.1756
   43CHL1   C26 4355   1.345   1.874   4.637  0.7774 -0.2584 -0.1038
   43CHL1  H26A 4356   1.401   1.959   4.681 -2.9340  2.4071 -0.0073
   43CHL1  H26B 4357   1.379   1.852   4.534  1.7534 -1.3217  0.4282
   43CHL1  H26C 4358   1.243   1.917   4.630  0.6047 -0.1819  2.1973
   43CHL1   C27 4359   1.476   1.680   4.725 -0.6228 -0.2568  0.7034
   43CHL1  H27A 4360   1.516   1.685   4.621 -0.1270  0.9267  0.9359
   43CHL1  H27B 4361   1.553   1.738   4.780  0.3143  0.2951 -1.1205
   43CHL1  H27C 4362   1.471   1.576   4.764 -2.6980 -0.9913 -1.2656
   44CHL1    C3 4363   1.475   0.910   5.726 -0.7228  0.5585 -0.3689
   44CHL1    H3 4364   1.577   0.929   5.687 -0.7613  0.4367 -0.5273
   44CHL1    O3 4365   1.466   0.901   5.868 -0.0749 -0.7982  0.0906
   44CHL1   H3' 4366   1.531   0.835   5.894  0.0549 -0.8057 -0.2448
   44CHL1    C4 4367   1.390   1.025   5.663 -0.0846  0.4238  0.1069
   44CHL1   H4A 4368   1.281   1.030   5.683 -0.1259  0.1928 -0.0566
   44CHL1   H4B 4369   1.443   1.112   5.708  2.0735  0.1050 -1.6169
   44CHL1    C5 4370   1.406   1.023   5.512  0.8460  0.0969  0.3958
   44CHL1    C6 4371   1.470   1.121   5.446  0.6552  0.5319  0.2747
   44CHL1    H6 4372   1.508   1.215   5.487  4.6652 -0.7122 -0.1300
   44CHL1    C7 4373   1.466   1.120   5.298  0.0823  0.3921  0.5824
   44CHL1   H7A 4374   1.452   1.224   5.259  0.5475  0.5285  0.7708
   44CHL1   H7B 4375   1.567   1.084   5.272 -0.7909 -1.1449 -0.8301
   44CHL1    C8 4376   1.362   1.022   5.229 -1.2139  0.0574  0.7484
   44CHL1    H8 4377   1.261   1.063   5.250 -0.7589  1.5874  0.1673
   44CHL1   C14 4378   1.381   1.007   5.070  0.1341  0.0703 -0.3492
   44CHL1   H14 4379   1.485   0.969   5.058  0.1950  0.5097 -1.3137
   44CHL1   C15 4380   1.387   1.133   4.976 -0.1199  0.2336 -0.1495
   44CHL1  H15A 4381   1.328   1.221   5.009 -1.4984  0.0406 -1.9237
   44CHL1  H15B 4382   1.492   1.168   4.963 -0.4251  0.9989 -0.6186
   44CHL1   C16 4383   1.332   1.081   4.843 -0.1072 -0.3315  0.2434
   44CHL1  H16A 4384   1.243   1.139   4.812  0.1110  0.4372  1.0218
   44CHL1  H16B 4385   1.401   1.108   4.760  0.9440  1.0146  1.5208
   44CHL1   C17 4386   1.316   0.928   4.858  0.8594  0.6083  0.5831
   44CHL1   H17 4387   1.420   0.890   4.850  0.4335 -0.2312 -1.7048
   44CHL1   C13 4388   1.287   0.904   5.007 -0.5995 -0.9897 -0.5060
   44CHL1   C18 4389   1.138   0.943   5.039  0.2678  0.3573  0.0258
   44CHL1  H18A 4390   1.119   1.048   5.006 -3.4013 -0.1555  0.0197
   44CHL1  H18B 4391   1.054   0.886   4.995  1.1648 -2.7747  2.0672
   44CHL1  H18C 4392   1.122   0.934   5.149 -1.7170  1.6507 -0.0945
   44CHL1   C12 4393   1.336   0.765   5.066  0.6288  0.6828 -0.5112
   44CHL1  H12A 4394   1.273   0.690   5.013  2.8196 -0.6928 -1.3092
   44CHL1  H12B 4395   1.444   0.753   5.043  0.0542 -2.4028 -2.1275
   44CHL1   C11 4396   1.325   0.764   5.222  0.0309  0.3617 -0.7072
   44CHL1  H11A 4397   1.216   0.747   5.238  0.5204 -1.5353  1.1121
   44CHL1  H11B 4398   1.374   0.671   5.257 -0.4977  0.5350  0.5823
   44CHL1    C9 4399   1.380   0.885   5.295  0.1502  0.5491  0.0335
   44CHL1    H9 4400   1.489   0.864   5.292 -0.0881 -1.0105  1.0313
   44CHL1   C10 4401   1.354   0.890   5.445 -1.2521 -0.0940 -0.6517
   44CHL1   C19 4402   1.200   0.869   5.471  0.4664 -0.7537 -0.7284
   44CHL1  H19A 4403   1.129   0.949   5.438 -1.8061 -1.3256  2.3652
   44CHL1  H19B 4404   1.175   0.765   5.441  1.4167 -1.1279 -0.2548
   44CHL1  H19C 4405   1.187   0.873   5.581 -2.6843 -0.1265 -1.0349
   44CHL1    C1 4406   1.444   0.781   5.517  0.1143 -0.0902  0.6050
   44CHL1   H1A 4407   1.404   0.685   5.478  1.2332 -0.0798 -0.6644
   44CHL1   H1B 4408   1.547   0.801   5.479 -0.8866  1.2194 -1.6233
   44CHL1    C2 4409   1.441   0.773   5.670 -0.5393 -0.4162  0.4661
   44CHL1   H2A 4410   1.516   0.696   5.697 -0.6769 -1.4501 -1.8610
   44CHL1   H2B 4411   1.336   0.748   5.698 -1.2559  0.6949 -1.0706
   44CHL1   C20 4412   1.225   0.858   4.764 -0.5628 -0.3561  0.5209
   44CHL1   H20 4413   1.169   0.779   4.819 -1.5703  0.5850  0.8899
   44CHL1   C21 4414   1.317   0.784   4.659  0.2345 -0.3705  0.0133
   44CHL1  H21A 4415   1.269   0.762   4.561 -3.4941  0.2363  1.5070
   44CHL1  H21B 4416   1.362   0.691   4.700  0.8567  0.0547  0.3077
   44CHL1  H21C 4417   1.400   0.849   4.627 -1.1498  2.5135  1.8893
   44CHL1   C22 4418   1.117   0.940   4.691 -0.2967  0.3929 -0.0882
   44CHL1  H22A 4419   1.067   1.005   4.765 -2.3478 -2.7740  1.5112
   44CHL1  H22B 4420   1.161   1.017   4.624  1.3496  1.4185  2.0508
   44CHL1   C23 4421   1.006   0.861   4.621  0.2707 -0.2780 -0.5733
   44CHL1  H23A 4422   1.048   0.838   4.521  2.1278 -1.5661  0.4418
   44CHL1  H23B 4423   0.963   0.779   4.682  1.8570 -0.2335  0.6742
   44CHL1   C24 4424   0.890   0.963   4.596  0.2876 -0.1128  0.1436
   44CHL1  H24A 4425   0.823   0.999   4.677  0.9886  0.9468  0.2696
   44CHL1  H24B 4426   0.934   1.056   4.555  0.6963 -0.2267  0.3202
   44CHL1   C25 4427   0.801   0.907   4.488  0.0962 -0.4368  0.3840
   44CHL1   H25 4428   0.882   0.891   4.413 -0.1126  0.5312 -0.0624
   44CHL1   C26 4429   0.729   0.782   4.529  0.0540  0.2002 -0.4547
   44CHL1  H26A 4430   0.677   0.788   4.627  0.8683 -2.0120  0.1967
   44CHL1  H26B 4431   0.658   0.756   4.448 -1.1689  0.6500  0.4466
   44CHL1  H26C 4432   0.806   0.702   4.532 -0.1845 -0.0153  0.1429
   44CHL1   C27 4433   0.710   1.007   4.428  0.4118 -0.7745  0.0436
   44CHL1  H27A 4434   0.647   1.070   4.496  1.3043 -0.1233  0.2885
   44CHL1  H27B 4435   0.775   1.065   4.358 -0.4333 -1.7028 -1.5764
   44CHL1  H27C 4436   0.633   0.964   4.361 -0.8547 -0.5899  1.3273
   45CHL1    C3 4437   0.896   2.563   5.983  0.2134  0.2552 -0.3257
   45CHL1    H3 4438   0.866   2.667   5.959  3.4907  1.1155 -1.2582
   45CHL1    O3 4439   0.886   2.545   6.121 -0.4649  0.5928 -0.0194
   45CHL1   H3' 4440   0.975   2.534   6.156 -0.2801 -0.4090 -0.7640
   45CHL1    C4 4441   0.810   2.462   5.898  0.6091  0.2783  0.0597
   45CHL1   H4A 4442   0.840   2.359   5.926 -0.6333 -0.2484 -0.4635
   45CHL1   H4B 4443   0.703   2.478   5.923  0.5501 -0.2347  0.1537
   45CHL1    C5 4444   0.836   2.484   5.754 -0.7385 -0.5472 -0.0489
   45CHL1    C6 4445   0.736   2.495   5.663 -0.9215  0.6982 -0.3309
   45CHL1    H6 4446   0.633   2.482   5.698 -0.2001 -0.7407  1.4304
   45CHL1    C7 4447   0.747   2.529   5.518 -0.6779  0.0932  0.3515
   45CHL1   H7A 4448   0.678   2.469   5.455 -0.8156 -1.2741  1.7278
   45CHL1   H7B 4449   0.709   2.633   5.505 -0.0730  0.0588 -2.1807
   45CHL1    C8 4450   0.887   2.510   5.472  0.1692 -0.1546  1.0836
   45CHL1    H8 4451   0.898   2.401   5.455  0.0441 -0.4665  2.8526
   45CHL1   C14 4452   0.901   2.591   5.340 -0.4391  0.2016 -1.0665
   45CHL1   H14 4453   0.896   2.699   5.365  0.6696  0.1968 -0.7831
   45CHL1   C15 4454   0.797   2.569   5.235 -0.3513 -0.3263  0.9307
   45CHL1  H15A 4455   0.773   2.462   5.246  3.3996 -1.2417  1.6442
   45CHL1  H15B 4456   0.706   2.632   5.244 -0.4701 -0.3099 -0.2362
   45CHL1   C16 4457   0.875   2.602   5.100  0.2764  0.5388  0.7744
   45CHL1  H16A 4458   0.892   2.502   5.055 -2.2257 -0.3763  1.7261
   45CHL1  H16B 4459   0.824   2.671   5.030  1.6488  1.8509  1.0086
   45CHL1   C17 4460   1.010   2.657   5.137 -1.1209 -0.0450  0.0554
   45CHL1   H17 4461   0.984   2.763   5.156  0.0968  1.0481 -3.6221
   45CHL1   C13 4462   1.038   2.572   5.269 -0.0104 -0.5494  0.0745
   45CHL1   C18 4463   1.072   2.425   5.233 -0.0519  0.0935  0.5337
   45CHL1  H18A 4464   1.182   2.421   5.219 -0.0470  0.0811  0.5784
   45CHL1  H18B 4465   1.039   2.370   5.324  0.4609 -0.9579  0.0983
   45CHL1  H18C 4466   1.030   2.384   5.139  0.0855  1.0453  0.0351
   45CHL1   C12 4467   1.147   2.629   5.366 -0.6144  0.2668 -0.4949
   45CHL1  H12A 4468   1.244   2.616   5.313 -0.4583 -0.8111  0.0393
   45CHL1  H12B 4469   1.132   2.737   5.384 -1.7559 -0.0688  0.6895
   45CHL1   C11 4470   1.133   2.556   5.498 -0.2908  0.2299  0.5275
   45CHL1  H11A 4471   1.160   2.448   5.493  1.1666  0.5732  0.4300
   45CHL1  H11B 4472   1.205   2.598   5.571  1.4731 -1.5784 -0.0454
   45CHL1    C9 4473   0.994   2.560   5.568  0.5866 -0.6108  0.5304
   45CHL1    H9 4474   0.978   2.669   5.587  0.6801 -0.9726  2.9519
   45CHL1   C10 4475   0.984   2.493   5.701  0.2637 -0.2343 -0.2643
   45CHL1   C19 4476   1.034   2.345   5.695 -0.2710 -0.3144  0.3572
   45CHL1  H19A 4477   1.017   2.300   5.795 -0.1245 -0.7073  0.2106
   45CHL1  H19B 4478   0.966   2.291   5.625 -1.6708  1.5376  0.2242
   45CHL1  H19C 4479   1.141   2.340   5.663 -0.1321  0.7607  0.6441
   45CHL1    C1 4480   1.071   2.581   5.802 -0.6797 -0.7067  0.7702
   45CHL1   H1A 4481   1.180   2.565   5.791 -0.1797  2.1053  0.8802
   45CHL1   H1B 4482   1.048   2.686   5.775 -0.0027 -0.5553  0.7536
   45CHL1    C2 4483   1.041   2.553   5.951 -0.4999 -0.8605  0.0726
   45CHL1   H2A 4484   1.104   2.626   6.005  1.1178 -1.0344 -1.4511
   45CHL1   H2B 4485   1.079   2.454   5.984 -0.6996 -0.9314  0.0933
   45CHL1   C20 4486   1.129   2.662   5.039 -0.5537  0.4120 -0.0523
   45CHL1   H20 4487   1.182   2.566   5.053 -2.7344 -0.7574  0.6705
   45CHL1   C21 4488   1.227   2.777   5.071 -0.4520  0.1390 -0.0201
   45CHL1  H21A 4489   1.259   2.790   5.177  1.9097  1.2329 -0.8064
   45CHL1  H21B 4490   1.184   2.870   5.029 -1.0183 -1.0261 -2.2032
   45CHL1  H21C 4491   1.318   2.754   5.012 -0.2967  1.7863 -0.4618
   45CHL1   C22 4492   1.088   2.661   4.897 -0.6890  0.3901 -0.8055
   45CHL1  H22A 4493   1.178   2.641   4.835  0.1373  2.6382 -0.4226
   45CHL1  H22B 4494   1.028   2.569   4.879  1.8425 -1.0574 -2.5730
   45CHL1   C23 4495   1.011   2.779   4.848  0.7037 -0.0388  0.7227
   45CHL1  H23A 4496   0.940   2.816   4.925  0.8338  0.5406  0.5704
   45CHL1  H23B 4497   1.081   2.863   4.827  2.3628 -1.7020 -0.7163
   45CHL1   C24 4498   0.918   2.756   4.723 -0.5459  0.0019 -0.1437
   45CHL1  H24A 4499   0.974   2.725   4.632  1.6285  0.0001  1.1272
   45CHL1  H24B 4500   0.854   2.669   4.749  0.2966 -0.4637  0.3949
   45CHL1   C25 4501   0.829   2.879   4.693  0.9252  0.4070  0.1226
   45CHL1   H25 4502   0.787   2.904   4.793  1.4029  2.9125 -0.2312
   45CHL1   C26 4503   0.904   2.997   4.625  0.5869  0.1526  0.2798
   45CHL1  H26A 4504   0.982   3.033   4.695  2.1788 -3.1303  0.3864
   45CHL1  H26B 4505   0.944   2.965   4.527 -0.6897  0.8770 -0.4941
   45CHL1  H26C 4506   0.839   3.081   4.594  0.4467 -0.8037 -2.2110
   45CHL1   C27 4507   0.716   2.838   4.594  0.5858  0.0975 -0.1557
   45CHL1  H27A 4508   0.641   2.920   4.584 -0.3589 -0.9199 -1.9931
   45CHL1  H27B 4509   0.753   2.810   4.493 -1.0630 -0.5429 -0.6248
   45CHL1  H27C 4510   0.675   2.746   4.641  0.3973  1.2674  2.0996
   46CHL1    C3 4511   2.931   4.809   6.239  0.2886 -0.1794 -0.6682
   46CHL1    H3 4512   3.016   4.853   6.184  0.6332 -1.1059 -0.8931
   46CHL1    O3 4513   2.925   4.861   6.374 -0.0274 -0.2607 -0.0689
   46CHL1   H3' 4514   2.839   4.834   6.406  0.9426 -1.2126  1.8820
   46CHL1    C4 4515   2.805   4.851   6.159 -0.3658  0.3855 -0.2262
   46CHL1   H4A 4516   2.712   4.818   6.209 -0.8727 -1.6870 -2.3531
   46CHL1   H4B 4517   2.810   4.962   6.162  2.4818  0.3623 -0.9011
   46CHL1    C5 4518   2.797   4.793   6.023  0.1497  0.3212  0.2026
   46CHL1    C6 4519   2.784   4.871   5.910 -0.1425  0.4725 -0.4323
   46CHL1    H6 4520   2.786   4.981   5.917 -0.7137  0.4118  1.2316
   46CHL1    C7 4521   2.754   4.816   5.771 -0.5466 -0.0976  0.0058
   46CHL1   H7A 4522   2.691   4.890   5.717 -0.0965 -0.2719 -0.7782
   46CHL1   H7B 4523   2.852   4.827   5.720 -0.9515  2.1273 -0.4067
   46CHL1    C8 4524   2.713   4.665   5.778  0.0850 -0.6771  0.3934
   46CHL1    H8 4525   2.608   4.662   5.813 -0.8291  0.6597 -2.0036
   46CHL1   C14 4526   2.710   4.601   5.640  0.7497  0.1815  0.3150
   46CHL1   H14 4527   2.813   4.605   5.598  0.4749 -1.9148 -0.7226
   46CHL1   C15 4528   2.624   4.661   5.527  0.5103 -0.1622  0.1958
   46CHL1  H15A 4529   2.529   4.697   5.573 -0.2199  1.2001 -2.2036
   46CHL1  H15B 4530   2.659   4.750   5.470  0.3537 -0.6506 -0.6786
   46CHL1   C16 4531   2.607   4.547   5.427  0.0190 -0.3140 -0.2948
   46CHL1  H16A 4532   2.497   4.541   5.410  0.3172 -0.4103 -2.4515
   46CHL1  H16B 4533   2.650   4.570   5.327  0.0932 -0.3596 -0.2735
   46CHL1   C17 4534   2.667   4.422   5.491 -0.0460  0.2486 -0.5030
   46CHL1   H17 4535   2.772   4.422   5.454  0.2598  1.3357  0.3247
   46CHL1   C13 4536   2.680   4.449   5.647  0.7263  0.4516  0.4997
   46CHL1   C18 4537   2.542   4.419   5.720 -0.4373  0.5610  0.7234
   46CHL1  H18A 4538   2.523   4.309   5.721  1.5479  0.1730 -0.1197
   46CHL1  H18B 4539   2.545   4.451   5.826 -0.6901  3.2534 -0.0105
   46CHL1  H18C 4540   2.463   4.471   5.661 -1.0426 -0.1692  0.8695
   46CHL1   C12 4541   2.795   4.384   5.714 -0.1652 -0.0383  0.0716
   46CHL1  H12A 4542   2.767   4.277   5.725  0.1643  0.0940  2.7279
   46CHL1  H12B 4543   2.891   4.389   5.658  0.1509  0.2196  0.6240
   46CHL1   C11 4544   2.812   4.438   5.854 -0.2918  0.1800  0.1225
   46CHL1  H11A 4545   2.722   4.395   5.904  0.2807 -1.0349  0.1337
   46CHL1  H11B 4546   2.902   4.395   5.903  0.2638 -1.5518 -2.2584
   46CHL1    C9 4547   2.811   4.586   5.870 -0.9642  0.5045  1.0232
   46CHL1    H9 4548   2.905   4.623   5.824 -0.1463 -0.4650  1.8644
   46CHL1   C10 4549   2.811   4.642   6.016  0.2820  0.0786 -0.1045
   46CHL1   C19 4550   2.682   4.578   6.081 -0.3351  0.1484 -0.2837
   46CHL1  H19A 4551   2.591   4.599   6.022 -0.9808  0.7017  0.8788
   46CHL1  H19B 4552   2.697   4.469   6.093 -0.7524  0.0909 -0.3017
   46CHL1  H19C 4553   2.664   4.615   6.184 -0.3937 -1.4035  0.2790
   46CHL1    C1 4554   2.938   4.594   6.098 -0.5960  0.4838 -0.1426
   46CHL1   H1A 4555   2.937   4.485   6.122  4.1530  0.9747  3.9839
   46CHL1   H1B 4556   3.034   4.631   6.055  0.2267  0.9469  1.9852
   46CHL1    C2 4557   2.938   4.655   6.243 -0.2805  0.1165 -0.1022
   46CHL1   H2A 4558   3.032   4.623   6.293  0.0580  0.4144 -0.5432
   46CHL1   H2B 4559   2.853   4.612   6.299  1.3404 -1.9917  0.8761
   46CHL1   C20 4560   2.584   4.296   5.452  0.9051  0.3843  0.2717
   46CHL1   H20 4561   2.484   4.297   5.500  0.4194  0.2859 -0.7070
   46CHL1   C21 4562   2.655   4.164   5.497  0.2166  0.7095 -0.2483
   46CHL1  H21A 4563   2.606   4.078   5.448  1.4006  0.5686 -1.2376
   46CHL1  H21B 4564   2.654   4.151   5.607 -0.0623  0.0825 -0.3220
   46CHL1  H21C 4565   2.762   4.155   5.466  0.0269 -0.2972 -0.6328
   46CHL1   C22 4566   2.540   4.287   5.302  0.1443  0.3806 -0.7388
   46CHL1  H22A 4567   2.470   4.202   5.304 -0.7998  1.1495  0.7149
   46CHL1  H22B 4568   2.480   4.378   5.278 -0.7267 -0.2366 -0.9330
   46CHL1   C23 4569   2.646   4.263   5.201 -0.6383 -0.0327 -0.1763
   46CHL1  H23A 4570   2.729   4.337   5.202 -1.7999  1.3036  1.1677
   46CHL1  H23B 4571   2.693   4.162   5.202  0.3871  0.4366 -0.6122
   46CHL1   C24 4572   2.593   4.281   5.053 -0.2448 -0.5455  0.0577
   46CHL1  H24A 4573   2.493   4.237   5.033  0.4734 -1.0585 -2.8708
   46CHL1  H24B 4574   2.582   4.391   5.048 -2.6120 -0.6194  1.7804
   46CHL1   C25 4575   2.694   4.235   4.947 -0.2840  0.5651 -0.1975
   46CHL1   H25 4576   2.711   4.125   4.956  1.7650  0.9871  2.4084
   46CHL1   C26 4577   2.650   4.263   4.802  0.9822  0.4041 -0.0684
   46CHL1  H26A 4578   2.732   4.226   4.737  2.3278 -0.3892  1.9957
   46CHL1  H26B 4579   2.562   4.211   4.759  0.6324 -0.3298  1.4956
   46CHL1  H26C 4580   2.637   4.372   4.780  1.9556  0.6196  0.3593
   46CHL1   C27 4581   2.831   4.284   4.974  0.2931 -0.5137 -0.6985
   46CHL1  H27A 4582   2.902   4.263   4.891  1.2367 -0.4735  0.0877
   46CHL1  H27B 4583   2.822   4.394   4.988 -0.6530 -0.4272 -1.7789
   46CHL1  H27C 4584   2.867   4.237   5.067  0.8200  2.0672  0.5069
   47CHL1    C3 4585   5.713   3.016   6.196 -0.4245  0.5658  0.0572
   47CHL1    H3 4586   5.817   3.001   6.159 -0.0177 -1.4772  1.8176
   47CHL1    O3 4587   5.718   2.975   6.328 -0.4222 -0.2262  0.0322
   47CHL1   H3' 4588   5.633   2.941   6.358 -0.0834  0.6001  2.0914
   47CHL1    C4 4589   5.655   3.160   6.186  0.2471 -0.5632  0.2225
   47CHL1   H4A 4590   5.550   3.163   6.220  0.0270  0.7939 -0.5055
   47CHL1   H4B 4591   5.717   3.219   6.257  0.2550 -1.3624  0.8962
   47CHL1    C5 4592   5.641   3.213   6.048  0.7829 -0.6951  0.1579
   47CHL1    C6 4593   5.697   3.339   6.014 -1.1552  0.2443 -0.7513
   47CHL1    H6 4594   5.755   3.390   6.093  0.6845  0.9570 -2.4963
   47CHL1    C7 4595   5.691   3.405   5.882 -0.1599 -0.3202 -0.8336
   47CHL1   H7A 4596   5.669   3.514   5.883 -0.8099 -0.4392 -1.8973
   47CHL1   H7B 4597   5.796   3.404   5.845 -0.4872  0.6616 -1.8227
   47CHL1    C8 4598   5.606   3.327   5.781  0.1234 -0.1214 -0.1785
   47CHL1    H8 4599   5.502   3.359   5.806  0.3099  0.5649 -0.2835
   47CHL1   C14 4600   5.636   3.370   5.642 -0.6755 -0.3829 -0.3697
   47CHL1   H14 4601   5.739   3.339   5.616 -0.4045 -1.7774  2.0599
   47CHL1   C15 4602   5.634   3.524   5.611 -0.2847  0.1623  0.9637
   47CHL1  H15A 4603   5.547   3.581   5.649 -1.6470 -0.6269 -0.8553
   47CHL1  H15B 4604   5.726   3.568   5.654  2.3372 -2.3374 -1.5906
   47CHL1   C16 4605   5.636   3.527   5.453  0.7973 -0.0433  0.2994
   47CHL1  H16A 4606   5.565   3.603   5.414  1.1485 -0.6009 -1.4947
   47CHL1  H16B 4607   5.739   3.560   5.427  0.2582  2.1088  0.6791
   47CHL1   C17 4608   5.613   3.377   5.406  0.3481 -0.0704 -0.2730
   47CHL1   H17 4609   5.709   3.326   5.386 -0.3059 -1.3950 -0.1846
   47CHL1   C13 4610   5.559   3.300   5.535  0.1406  0.0194  0.2507
   47CHL1   C18 4611   5.411   3.345   5.553  0.1170  0.0728  0.1526
   47CHL1  H18A 4612   5.353   3.318   5.462 -1.1784 -0.4875  1.1073
   47CHL1  H18B 4613   5.360   3.293   5.637  0.3250 -1.0214 -0.3828
   47CHL1  H18C 4614   5.401   3.454   5.576 -0.1494  0.5407 -2.0061
   47CHL1   C12 4615   5.588   3.150   5.543  0.4792 -0.5884 -0.6670
   47CHL1  H12A 4616   5.534   3.084   5.471 -0.9143  0.4022 -0.5594
   47CHL1  H12B 4617   5.694   3.134   5.516  0.3335  1.1067 -2.4903
   47CHL1   C11 4618   5.556   3.090   5.684  0.3195  0.7671  0.0227
   47CHL1  H11A 4619   5.446   3.092   5.699  0.4679  1.4358  1.1012
   47CHL1  H11B 4620   5.597   2.986   5.683 -0.6089  0.3866  0.2270
   47CHL1    C9 4621   5.615   3.168   5.805  0.3866 -0.2342  0.7871
   47CHL1    H9 4622   5.721   3.136   5.802 -0.1880 -2.3609  1.3496
   47CHL1   C10 4623   5.570   3.127   5.943  0.1991  0.7724 -0.0409
   47CHL1   C19 4624   5.419   3.145   5.961  0.3779  0.6850  0.7562
   47CHL1  H19A 4625   5.385   3.097   6.055 -0.3229  0.9583  0.6479
   47CHL1  H19B 4626   5.391   3.253   5.968  0.0053  0.5519  1.3423
   47CHL1  H19C 4627   5.354   3.087   5.892 -1.8401 -0.1046  3.3701
   47CHL1    C1 4628   5.609   2.973   5.970 -0.3588 -0.4447 -0.1096
   47CHL1   H1A 4629   5.535   2.919   5.907 -0.5477 -0.5237  0.1751
   47CHL1   H1B 4630   5.712   2.966   5.931 -0.3134  0.5755 -0.2057
   47CHL1    C2 4631   5.623   2.918   6.115 -0.2031 -0.5580  0.3984
   47CHL1   H2A 4632   5.663   2.814   6.122 -1.4288 -1.0458  0.5094
   47CHL1   H2B 4633   5.521   2.921   6.161 -0.1028 -1.1981  0.6762
   47CHL1   C20 4634   5.530   3.370   5.276  0.3405  0.1524  0.3620
   47CHL1   H20 4635   5.431   3.418   5.291  0.2980 -0.3191  1.8146
   47CHL1   C21 4636   5.504   3.219   5.237 -0.0515 -0.4546 -0.4636
   47CHL1  H21A 4637   5.596   3.158   5.245 -0.2548 -0.5987  0.9023
   47CHL1  H21B 4638   5.461   3.205   5.135 -1.7495  3.1217 -0.4223
   47CHL1  H21C 4639   5.436   3.169   5.308  2.0826 -1.0983  1.2348
   47CHL1   C22 4640   5.608   3.441   5.164  0.0373 -0.2266 -0.3653
   47CHL1  H22A 4641   5.623   3.548   5.191  2.2896  0.4187 -3.5681
   47CHL1  H22B 4642   5.711   3.402   5.150 -0.6028 -2.1442  0.0309
   47CHL1   C23 4643   5.541   3.443   5.022 -0.2328 -0.3695  0.5242
   47CHL1  H23A 4644   5.431   3.430   5.031 -0.8271  0.8950 -3.1957
   47CHL1  H23B 4645   5.547   3.546   4.981  1.2939 -1.0864 -1.2152
   47CHL1   C24 4646   5.594   3.344   4.917 -0.1825  0.2277  0.0828
   47CHL1  H24A 4647   5.696   3.386   4.904 -0.8317  1.5473 -1.1184
   47CHL1  H24B 4648   5.603   3.236   4.939 -0.3241 -0.1566 -1.5954
   47CHL1   C25 4649   5.529   3.355   4.773 -0.4474  0.3383 -0.0727
   47CHL1   H25 4650   5.419   3.345   4.776 -0.4343 -0.2969 -1.1625
   47CHL1   C26 4651   5.551   3.491   4.705  0.0746  0.2998 -0.1123
   47CHL1  H26A 4652   5.489   3.504   4.614 -0.0792  0.9630  0.0744
   47CHL1  H26B 4653   5.521   3.569   4.780  0.1093 -1.0239  1.3229
   47CHL1  H26C 4654   5.658   3.514   4.688  0.8082 -1.5693  1.5976
   47CHL1   C27 4655   5.594   3.250   4.684  0.1162  0.0226 -0.3292
   47CHL1  H27A 4656   5.704   3.265   4.673  0.1216 -0.3941 -0.9480
   47CHL1  H27B 4657   5.563   3.147   4.712  2.0269 -1.0182 -1.7244
   47CHL1  H27C 4658   5.550   3.261   4.582  1.6323 -0.2192 -1.0431
   48CHL1    C3 4659   2.808   5.432   6.043  0.0420 -0.5799  0.3481
   48CHL1    H3 4660   2.874   5.518   6.065  0.1037  0.4397 -3.2835
   48CHL1    O3 4661   2.709   5.417   6.145 -1.0544  0.4120 -0.6361
   48CHL1   H3' 4662   2.722   5.324   6.165  1.3197  0.2065 -2.6330
   48CHL1    C4 4663   2.729   5.484   5.916 -0.2112  0.6792 -0.2666
   48CHL1   H4A 4664   2.636   5.424   5.908 -0.5982  1.4997 -2.9575
   48CHL1   H4B 4665   2.694   5.585   5.945 -0.7834  0.8348 -1.4279
   48CHL1    C5 4666   2.814   5.482   5.792  0.3404  0.8038 -0.3711
   48CHL1    C6 4667   2.831   5.587   5.711 -0.0845  0.1630 -0.0123
   48CHL1    H6 4668   2.771   5.677   5.731 -0.6215 -0.0926 -0.4618
   48CHL1    C7 4669   2.913   5.591   5.583 -0.6018  0.2916  0.0834
   48CHL1   H7A 4670   2.876   5.661   5.505  0.2411  1.9351  1.0757
   48CHL1   H7B 4671   3.014   5.620   5.619 -0.6295 -1.7853  2.0401
   48CHL1    C8 4672   2.926   5.445   5.530  0.6857 -0.4419 -0.7255
   48CHL1    H8 4673   2.826   5.426   5.487 -0.7690  3.0208  0.7295
   48CHL1   C14 4674   3.020   5.439   5.416 -0.2509 -0.0092  0.6765
   48CHL1   H14 4675   3.122   5.469   5.451  0.5641 -0.2138 -1.3855
   48CHL1   C15 4676   2.989   5.535   5.295 -0.4429  0.0497  0.3368
   48CHL1  H15A 4677   2.880   5.521   5.277 -0.0050 -2.6403 -0.7166
   48CHL1  H15B 4678   3.017   5.641   5.317  0.2065 -0.4515  2.1706
   48CHL1   C16 4679   3.066   5.466   5.173  0.2353 -0.9490 -0.4224
   48CHL1  H16A 4680   3.006   5.463   5.079  0.3342 -0.2155 -0.5142
   48CHL1  H16B 4681   3.160   5.523   5.155 -0.6983  0.9141  0.3997
   48CHL1   C17 4682   3.113   5.321   5.221 -0.5995  0.1293 -0.1045
   48CHL1   H17 4683   3.221   5.323   5.248 -0.0574  1.6766 -2.1538
   48CHL1   C13 4684   3.036   5.300   5.349 -0.3502  0.1864  0.1504
   48CHL1   C18 4685   2.896   5.242   5.303 -0.3345 -0.1769 -0.0948
   48CHL1  H18A 4686   2.820   5.269   5.379 -0.5264 -1.7160  0.2907
   48CHL1  H18B 4687   2.864   5.300   5.214  1.1158  0.5488 -0.1731
   48CHL1  H18C 4688   2.890   5.132   5.293  2.0248 -0.4460  0.8542
   48CHL1   C12 4689   3.106   5.215   5.451  0.0473  0.0391  0.6123
   48CHL1  H12A 4690   3.115   5.114   5.406  2.8768  1.4649 -2.4138
   48CHL1  H12B 4691   3.208   5.255   5.466  0.4621 -0.5282 -0.5509
   48CHL1   C11 4692   3.019   5.210   5.581 -1.0741 -0.7540  0.4982
   48CHL1  H11A 4693   2.932   5.150   5.548 -1.1441 -0.7587  0.6902
   48CHL1  H11B 4694   3.075   5.148   5.654 -1.5011 -2.5331 -0.6124
   48CHL1    C9 4695   2.980   5.349   5.635  0.1485 -0.9825  0.4735
   48CHL1    H9 4696   3.073   5.389   5.680  0.0616 -0.2159 -0.0099
   48CHL1   C10 4697   2.884   5.345   5.763 -0.1398 -0.5135 -0.2686
   48CHL1   C19 4698   2.773   5.241   5.732 -0.1548 -0.3710 -0.0378
   48CHL1  H19A 4699   2.737   5.285   5.637  1.2899  1.5765  0.2420
   48CHL1  H19B 4700   2.818   5.144   5.700 -0.7631  0.0158 -2.2238
   48CHL1  H19C 4701   2.698   5.237   5.814 -2.2612 -0.6273 -1.8916
   48CHL1    C1 4702   2.963   5.298   5.890 -0.4342 -0.2413 -0.3994
   48CHL1   H1A 4703   3.002   5.195   5.876 -0.8788 -0.5769  0.7293
   48CHL1   H1B 4704   3.047   5.366   5.914 -3.0363  2.6502  1.3546
   48CHL1    C2 4705   2.882   5.302   6.019  0.0374  0.3617  0.1598
   48CHL1   H2A 4706   2.945   5.270   6.105 -0.5091  2.0160  1.2164
   48CHL1   H2B 4707   2.811   5.217   6.005  0.3514  0.1060  0.1147
   48CHL1   C20 4708   3.107   5.216   5.106  0.2099  0.1143  0.2647
   48CHL1   H20 4709   2.999   5.205   5.082  0.2357  1.3009 -0.4502
   48CHL1   C21 4710   3.150   5.075   5.150 -0.6957 -0.0213  0.5935
   48CHL1  H21A 4711   3.070   5.029   5.213 -0.4123  0.0593  1.0174
   48CHL1  H21B 4712   3.152   5.009   5.061  0.6528  0.9811 -0.1646
   48CHL1  H21C 4713   3.249   5.066   5.199 -1.6991  0.0762  2.7502
   48CHL1   C22 4714   3.187   5.263   4.982 -0.4498 -0.5184  0.1291
   48CHL1  H22A 4715   3.158   5.364   4.945 -1.1448 -0.5826  0.4965
   48CHL1  H22B 4716   3.289   5.274   5.025 -1.0551 -2.5888  2.3153
   48CHL1   C23 4717   3.187   5.161   4.862  0.2582 -0.4340  0.4016
   48CHL1  H23A 4718   3.241   5.069   4.894  0.4673 -0.3453  0.3056
   48CHL1  H23B 4719   3.081   5.143   4.832  0.5731 -0.3399 -0.8169
   48CHL1   C24 4720   3.270   5.215   4.748 -0.1359  0.3386  0.8560
   48CHL1  H24A 4721   3.240   5.318   4.719 -1.9083 -0.8570 -2.0635
   48CHL1  H24B 4722   3.372   5.216   4.790 -0.3401  1.2062  1.3463
   48CHL1   C25 4723   3.265   5.128   4.622  0.0836  0.4391  0.3859
   48CHL1   H25 4724   3.274   5.021   4.651 -1.0135  0.3747  0.5245
   48CHL1   C26 4725   3.129   5.141   4.548  0.5295  0.1437 -0.0013
   48CHL1  H26A 4726   3.048   5.083   4.599  1.9570 -2.5756 -0.6580
   48CHL1  H26B 4727   3.090   5.244   4.538 -0.8093 -0.4573 -1.3520
   48CHL1  H26C 4728   3.142   5.096   4.447  1.0174  0.3482 -0.0307
   48CHL1   C27 4729   3.380   5.166   4.528  0.0515 -0.7815  0.3038
   48CHL1  H27A 4730   3.477   5.194   4.573  0.8398  0.3074 -1.9062
   48CHL1  H27B 4731   3.399   5.091   4.449  1.8155 -0.7349  0.6441
   48CHL1  H27C 4732   3.338   5.255   4.476 -1.7331 -2.1802 -0.7805
   49CHL1    C3 4733   5.421   4.000   2.860  0.3179 -0.0303 -0.0023
   49CHL1    H3 4734   5.331   3.938   2.880 -1.6546  2.5278 -0.5152
   49CHL1    O3 4735   5.441   4.026   2.718 -0.2441  0.2100 -0.0339
   49CHL1   H3' 4736   5.358   4.048   2.674  0.1308 -0.3637 -1.0740
   49CHL1    C4 4737   5.415   4.132   2.936  0.2763  0.6048  0.1465
   49CHL1   H4A 4738   5.507   4.189   2.911 -0.9870  1.9809 -1.5977
   49CHL1   H4B 4739   5.329   4.183   2.888 -0.8792 -3.0137 -2.0500
   49CHL1    C5 4740   5.401   4.110   3.088 -0.1440  0.2976  0.5676
   49CHL1    C6 4741   5.295   4.161   3.147  0.8060 -0.2935 -1.0058
   49CHL1    H6 4742   5.222   4.208   3.079 -0.0904 -2.9275 -1.9940
   49CHL1    C7 4743   5.261   4.144   3.289 -0.4732 -0.3325 -0.8434
   49CHL1   H7A 4744   5.233   4.242   3.331  0.0959  0.1766 -1.6263
   49CHL1   H7B 4745   5.175   4.074   3.303 -0.2774 -0.6059 -0.9879
   49CHL1    C8 4746   5.385   4.095   3.372 -0.3647 -0.1853 -0.3281
   49CHL1    H8 4747   5.455   4.179   3.390  0.9223 -0.9916 -1.4048
   49CHL1   C14 4748   5.342   4.044   3.500 -0.4743  0.5936 -0.3315
   49CHL1   H14 4749   5.277   3.959   3.471  1.7552 -0.7482 -1.7091
   49CHL1   C15 4750   5.236   4.125   3.575  0.5304 -0.6962  0.3100
   49CHL1  H15A 4751   5.261   4.232   3.594  1.4650 -0.9533  0.5798
   49CHL1  H15B 4752   5.140   4.136   3.520  0.0464  0.4747  1.3562
   49CHL1   C16 4753   5.227   4.059   3.711 -0.3382  0.4934 -0.2791
   49CHL1  H16A 4754   5.255   4.140   3.781 -1.3659  1.3575 -0.8386
   49CHL1  H16B 4755   5.131   4.020   3.751  1.3991 -3.7440  0.2490
   49CHL1   C17 4756   5.335   3.949   3.704 -0.9236  0.0429  0.3360
   49CHL1   H17 4757   5.279   3.860   3.667  0.8280 -0.7549 -0.5548
   49CHL1   C13 4758   5.436   3.986   3.596 -0.3373  0.0374  0.1744
   49CHL1   C18 4759   5.532   4.093   3.655  0.0073  0.1107 -0.3848
   49CHL1  H18A 4760   5.614   4.039   3.708  1.3547 -1.3325 -3.6600
   49CHL1  H18B 4761   5.569   4.148   3.566 -1.8352  1.9387 -0.0988
   49CHL1  H18C 4762   5.480   4.171   3.715 -0.6596 -1.0262  0.5571
   49CHL1   C12 4763   5.517   3.872   3.528  0.0919 -0.2558  0.8226
   49CHL1  H12A 4764   5.609   3.860   3.589  2.3219  2.3153 -1.7536
   49CHL1  H12B 4765   5.453   3.782   3.518  0.5416 -0.4633 -0.4011
   49CHL1   C11 4766   5.574   3.918   3.393 -0.1802  0.6121 -0.0407
   49CHL1  H11A 4767   5.660   3.986   3.414  2.1319 -2.3253  0.7031
   49CHL1  H11B 4768   5.623   3.833   3.342  2.1612  0.5918  2.0685
   49CHL1    C9 4769   5.461   3.982   3.302 -0.5911  0.3061 -0.2539
   49CHL1    H9 4770   5.389   3.898   3.301  0.0872 -0.4343  2.6259
   49CHL1   C10 4771   5.498   4.022   3.160 -0.1581 -0.5628 -0.7025
   49CHL1   C19 4772   5.637   4.100   3.174 -1.1600  0.3997 -0.1089
   49CHL1  H19A 4773   5.621   4.176   3.254 -0.6227 -1.3644  1.7486
   49CHL1  H19B 4774   5.716   4.032   3.212 -1.5686  0.1222  0.2534
   49CHL1  H19C 4775   5.676   4.132   3.075 -1.8427 -2.4619 -1.3898
   49CHL1    C1 4776   5.515   3.894   3.074 -0.0951 -0.1782  0.0268
   49CHL1   H1A 4777   5.590   3.827   3.120 -0.1200  1.1843  2.1815
   49CHL1   H1B 4778   5.420   3.835   3.080 -0.4127  0.3788  0.6104
   49CHL1    C2 4779   5.538   3.919   2.922  0.2012 -0.5623 -0.1570
   49CHL1   H2A 4780   5.557   3.818   2.879  0.4649  0.0130 -1.4606
   49CHL1   H2B 4781   5.628   3.983   2.908  0.3634 -0.8671 -0.5601
   49CHL1   C20 4782   5.387   3.894   3.843 -0.6174 -0.3057  0.2525
   49CHL1   H20 4783   5.440   3.975   3.897 -0.3263 -0.9555  0.9483
   49CHL1   C21 4784   5.481   3.776   3.822  0.4632  0.3281 -0.0739
   49CHL1  H21A 4785   5.580   3.825   3.810 -0.2453  1.9273  0.2382
   49CHL1  H21B 4786   5.450   3.723   3.730 -1.9684  0.8618  0.3631
   49CHL1  H21C 4787   5.484   3.698   3.901 -2.0241 -0.8464 -1.0309
   49CHL1   C22 4788   5.258   3.848   3.924 -0.8018  0.5386 -0.4493
   49CHL1  H22A 4789   5.197   3.940   3.939 -0.0202  0.7690  1.7821
   49CHL1  H22B 4790   5.214   3.766   3.863  0.2305 -2.2727  2.2806
   49CHL1   C23 4791   5.292   3.791   4.065  0.4976  0.2389 -0.0465
   49CHL1  H23A 4792   5.333   3.688   4.057  0.7246  0.4495 -2.1396
   49CHL1  H23B 4793   5.364   3.861   4.113  1.0745 -0.8725  0.7434
   49CHL1   C24 4794   5.162   3.774   4.149  0.3776  0.2281  1.0107
   49CHL1  H24A 4795   5.111   3.873   4.150  1.1796  0.6542  1.2254
   49CHL1  H24B 4796   5.101   3.692   4.107  4.7246 -2.4378 -0.8432
   49CHL1   C25 4797   5.186   3.750   4.302  0.2011  0.4426 -0.6484
   49CHL1   H25 4798   5.264   3.671   4.300 -1.2067 -0.9883 -2.5584
   49CHL1   C26 4799   5.230   3.867   4.384 -0.0402 -0.1776  0.4376
   49CHL1  H26A 4800   5.172   3.957   4.413 -0.5369 -0.3151 -0.1171
   49CHL1  H26B 4801   5.270   3.836   4.483  1.8082 -2.0126 -0.7962
   49CHL1  H26C 4802   5.322   3.895   4.329  0.8076 -2.9792  0.2615
   49CHL1   C27 4803   5.059   3.692   4.365  0.6143  0.1424 -0.5100
   49CHL1  H27A 4804   5.076   3.651   4.466 -0.2326 -0.4144 -0.5766
   49CHL1  H27B 4805   4.976   3.761   4.390  0.2592 -0.8593  1.1836
   49CHL1  H27C 4806   5.009   3.611   4.306  0.8478 -0.3494 -0.0419
   50CHL1    C3 4807   4.713   6.153   3.136 -0.0380 -0.1757  0.8194
   50CHL1    H3 4808   4.762   6.063   3.179  2.6446  0.5959 -0.4654
   50CHL1    O3 4809   4.680   6.134   2.995  0.4426 -0.4334 -0.1161
   50CHL1   H3' 4810   4.759   6.149   2.943 -1.1690 -0.1489 -2.6158
   50CHL1    C4 4811   4.589   6.191   3.224 -0.2459  0.1268  0.4739
   50CHL1   H4A 4812   4.533   6.274   3.176 -0.5444  0.1651  0.8883
   50CHL1   H4B 4813   4.519   6.105   3.227  1.0381 -0.9200  1.9802
   50CHL1    C5 4814   4.612   6.228   3.370  0.0672  0.2000 -0.3775
   50CHL1    C6 4815   4.543   6.172   3.475  0.3978  0.4207 -0.2765
   50CHL1    H6 4816   4.471   6.089   3.468  1.1046 -0.1247 -1.2516
   50CHL1    C7 4817   4.572   6.212   3.617  0.0964  0.2280  0.3000
   50CHL1   H7A 4818   4.481   6.223   3.679 -0.3760  1.4109 -0.5562
   50CHL1   H7B 4819   4.639   6.135   3.660 -0.3920 -1.3703 -1.6253
   50CHL1    C8 4820   4.657   6.335   3.635  0.3744  0.6415  0.3403
   50CHL1    H8 4821   4.600   6.427   3.609  1.7394  2.1772  2.4212
   50CHL1   C14 4822   4.712   6.355   3.779 -0.0464  0.2451 -0.1184
   50CHL1   H14 4823   4.787   6.276   3.801 -0.8978  0.0741  2.5547
   50CHL1   C15 4824   4.609   6.341   3.896 -0.1685 -0.0983  0.2024
   50CHL1  H15A 4825   4.510   6.386   3.874  0.0096  0.2544  0.1275
   50CHL1  H15B 4826   4.597   6.231   3.909 -2.7865 -0.6990 -4.7814
   50CHL1   C16 4827   4.682   6.418   4.013  0.0097  0.2371  0.1617
   50CHL1  H16A 4828   4.628   6.512   4.034 -0.1432  0.2286 -0.1733
   50CHL1  H16B 4829   4.677   6.357   4.106 -2.4979  1.1285  0.6962
   50CHL1   C17 4830   4.818   6.459   3.954  0.3565 -0.1708 -0.2594
   50CHL1   H17 4831   4.890   6.374   3.949  0.9221  0.3287 -0.9190
   50CHL1   C13 4832   4.786   6.479   3.805 -0.4227  0.0441  0.0730
   50CHL1   C18 4833   4.694   6.601   3.789  0.1007 -0.7777  0.3600
   50CHL1  H18A 4834   4.745   6.695   3.821  0.4147 -1.0209  0.5825
   50CHL1  H18B 4835   4.663   6.613   3.683  0.1520  1.9581  0.5761
   50CHL1  H18C 4836   4.596   6.594   3.840 -0.7592  1.6616 -0.7943
   50CHL1   C12 4837   4.907   6.480   3.713 -0.3040 -0.5947  0.2950
   50CHL1  H12A 4838   4.945   6.584   3.721  0.6372 -0.9325  0.3810
   50CHL1  H12B 4839   4.978   6.401   3.746  1.1642  0.1531 -0.9349
   50CHL1   C11 4840   4.863   6.462   3.567  0.5052  0.1523 -0.0299
   50CHL1  H11A 4841   4.801   6.551   3.543 -0.4626 -0.7357 -0.9567
   50CHL1  H11B 4842   4.952   6.460   3.500 -0.1669  0.7412 -0.9578
   50CHL1    C9 4843   4.776   6.342   3.536  0.3364 -0.1522 -0.2865
   50CHL1    H9 4844   4.837   6.253   3.561 -1.3804 -1.1739  0.4280
   50CHL1   C10 4845   4.735   6.327   3.385  0.1071  0.4828  0.8919
   50CHL1   C19 4846   4.685   6.461   3.337  0.0187  0.8098 -0.4547
   50CHL1  H19A 4847   4.650   6.457   3.231  1.6219 -0.8624 -0.9605
   50CHL1  H19B 4848   4.605   6.505   3.400  0.1952 -1.1980  1.2601
   50CHL1  H19C 4849   4.774   6.526   3.333  0.7940 -0.1932  0.0080
   50CHL1    C1 4850   4.852   6.287   3.293  0.6001 -0.0086  0.2377
   50CHL1   H1A 4851   4.914   6.379   3.300 -2.5528  2.3077  0.1534
   50CHL1   H1B 4852   4.893   6.202   3.352 -2.2228 -0.4682  1.7356
   50CHL1    C2 4853   4.828   6.254   3.143  0.2871 -0.0572 -0.5296
   50CHL1   H2A 4854   4.920   6.213   3.095  0.7657  0.4342 -0.0427
   50CHL1   H2B 4855   4.800   6.349   3.094  2.0525  0.8145  0.0636
   50CHL1   C20 4856   4.884   6.570   4.041  0.5759 -0.2652  0.2740
   50CHL1   H20 4857   4.844   6.670   4.011  1.8601 -0.5118 -2.5678
   50CHL1   C21 4858   5.033   6.564   4.000  0.4731  0.2911  0.5632
   50CHL1  H21A 4859   5.087   6.466   4.001  1.0549  0.6050  0.2645
   50CHL1  H21B 4860   5.096   6.629   4.065  0.5241  0.7893  0.0226
   50CHL1  H21C 4861   5.031   6.597   3.894 -3.1030 -2.1231 -0.3071
   50CHL1   C22 4862   4.865   6.551   4.194 -0.1347 -0.8735  0.0499
   50CHL1  H22A 4863   4.756   6.555   4.212 -0.7198 -2.7418 -2.5432
   50CHL1  H22B 4864   4.895   6.448   4.223 -1.7531 -1.9115 -1.6929
   50CHL1   C23 4865   4.918   6.662   4.285  0.2910  0.2177  0.2179
   50CHL1  H23A 4866   5.028   6.646   4.279 -0.0842 -2.9182 -4.7713
   50CHL1  H23B 4867   4.880   6.758   4.244 -2.6266 -0.6778  0.5811
   50CHL1   C24 4868   4.870   6.679   4.429  0.5926 -0.1298 -0.5604
   50CHL1  H24A 4869   4.760   6.688   4.441  0.2238 -3.1321 -1.0127
   50CHL1  H24B 4870   4.895   6.581   4.474 -2.0461 -1.1093 -1.0359
   50CHL1   C25 4871   4.957   6.799   4.499 -0.2690  0.5318  0.5033
   50CHL1   H25 4872   5.063   6.771   4.481 -0.5665  0.5797 -1.5092
   50CHL1   C26 4873   4.923   6.946   4.442  0.3503 -0.0418 -0.8632
   50CHL1  H26A 4874   4.941   6.960   4.333 -1.7651 -0.4997 -1.3272
   50CHL1  H26B 4875   4.818   6.978   4.461  0.8364  1.0046  0.2137
   50CHL1  H26C 4876   4.996   7.012   4.493  0.6732 -0.8802 -0.2268
   50CHL1   C27 4877   4.937   6.802   4.654 -0.3583  1.1365  0.8267
   50CHL1  H27A 4878   5.015   6.865   4.700  1.5906 -0.3345 -0.3136
   50CHL1  H27B 4879   4.838   6.849   4.670 -0.4254  1.3293 -0.1205
   50CHL1  H27C 4880   4.941   6.700   4.698 -1.2219  0.8725  0.3357
   51CHL1    C3 4881   4.861   1.818   2.797  0.2300 -0.7004 -0.0137
   51CHL1    H3 4882   4.819   1.919   2.778 -0.7005 -0.7559  1.5630
   51CHL1    O3 4883   4.906   1.770   2.677  0.0407  0.4494 -0.1337
   51CHL1   H3' 4884   4.931   1.680   2.697 -1.8448 -0.6003 -2.0623
   51CHL1    C4 4885   4.978   1.823   2.898  0.5641  0.0167  0.1399
   51CHL1   H4A 4886   5.020   1.722   2.914  1.3428 -0.3525 -3.4211
   51CHL1   H4B 4887   5.063   1.879   2.853 -0.2247  0.5573 -0.7048
   51CHL1    C5 4888   4.919   1.880   3.024 -0.7216 -0.5647 -0.4840
   51CHL1    C6 4889   4.965   1.998   3.073  0.7236 -0.1517  0.6701
   51CHL1    H6 4890   5.050   2.039   3.017 -1.8081  0.9548 -2.6915
   51CHL1    C7 4891   4.929   2.057   3.203 -0.8610 -0.0675  0.6259
   51CHL1   H7A 4892   5.028   2.077   3.249  0.2937 -0.5815 -1.5174
   51CHL1   H7B 4893   4.860   2.144   3.193 -0.2327  0.5248  1.2837
   51CHL1    C8 4894   4.849   1.953   3.288  0.8217 -0.0875 -0.0258
   51CHL1    H8 4895   4.903   1.865   3.328 -2.6287 -2.4205 -0.0002
   51CHL1   C14 4896   4.778   2.026   3.401  0.1681  0.8964  0.2952
   51CHL1   H14 4897   4.714   2.100   3.349  0.6970  1.6804  0.7228
   51CHL1   C15 4898   4.863   2.121   3.486  0.6647 -0.5727 -0.1648
   51CHL1  H15A 4899   4.956   2.064   3.505  1.8087  0.5598 -2.0515
   51CHL1  H15B 4900   4.897   2.217   3.442 -3.0578  0.4005 -1.3081
   51CHL1   C16 4901   4.775   2.147   3.607 -0.3002  0.6276 -0.3680
   51CHL1  H16A 4902   4.821   2.110   3.701 -2.6631 -1.6770  0.0199
   51CHL1  H16B 4903   4.761   2.256   3.622 -0.2770  0.5824 -0.0115
   51CHL1   C17 4904   4.641   2.064   3.598  0.1132  0.4664 -0.2881
   51CHL1   H17 4905   4.561   2.125   3.550 -2.3034 -0.9109  1.7470
   51CHL1   C13 4906   4.685   1.948   3.495  0.3766 -0.1845  0.3609
   51CHL1   C18 4907   4.761   1.846   3.573  0.2219  0.3004  0.1717
   51CHL1  H18A 4908   4.693   1.768   3.612 -1.8824  1.5037 -0.9145
   51CHL1  H18B 4909   4.840   1.787   3.521  0.4557  0.6949  0.0769
   51CHL1  H18C 4910   4.812   1.893   3.659  2.7616 -1.0769 -0.4725
   51CHL1   C12 4911   4.577   1.881   3.410  0.4088 -0.0671  0.5699
   51CHL1  H12A 4912   4.514   1.812   3.470  0.1019  0.5387  0.9498
   51CHL1  H12B 4913   4.507   1.956   3.368  0.9845  0.3236  0.2907
   51CHL1   C11 4914   4.631   1.810   3.281  0.1354 -0.1608  0.5367
   51CHL1  H11A 4915   4.680   1.716   3.315  2.8201  1.3442  1.1007
   51CHL1  H11B 4916   4.549   1.798   3.206  0.3504 -0.4565  0.3480
   51CHL1    C9 4917   4.730   1.895   3.200 -0.3070 -0.3263  0.0606
   51CHL1    H9 4918   4.675   1.978   3.150  0.5066  0.8766  1.0829
   51CHL1   C10 4919   4.795   1.808   3.083  0.0649  0.4792 -0.3290
   51CHL1   C19 4920   4.855   1.676   3.141  0.1765 -0.2716  0.0509
   51CHL1  H19A 4921   4.777   1.607   3.179  1.8721 -1.4109  1.6535
   51CHL1  H19B 4922   4.903   1.621   3.058  2.1344 -0.3398  1.1822
   51CHL1  H19C 4923   4.928   1.688   3.224 -1.5884 -0.5215  1.7243
   51CHL1    C1 4924   4.687   1.777   2.984  0.3485  0.0103  0.4856
   51CHL1   H1A 4925   4.619   1.700   3.024 -1.6223 -0.3036 -3.0841
   51CHL1   H1B 4926   4.630   1.866   2.948 -1.4290 -2.3577 -3.0509
   51CHL1    C2 4927   4.749   1.732   2.851  0.2216  0.4545  0.5430
   51CHL1   H2A 4928   4.670   1.728   2.774  0.2333  0.3718  0.5343
   51CHL1   H2B 4929   4.800   1.633   2.855  1.8910  1.1787 -1.2096
   51CHL1   C20 4930   4.578   2.023   3.729  0.0554 -0.5508 -0.2946
   51CHL1   H20 4931   4.631   1.934   3.770  1.1398  0.2418  0.0643
   51CHL1   C21 4932   4.433   1.981   3.695 -0.5307 -0.8153  0.1541
   51CHL1  H21A 4933   4.433   1.879   3.650 -0.5899 -1.8873  2.4560
   51CHL1  H21B 4934   4.384   2.051   3.624  1.3692  1.3904  0.8930
   51CHL1  H21C 4935   4.374   1.971   3.788 -1.3005 -0.7736 -0.3229
   51CHL1   C22 4936   4.579   2.137   3.836  0.0629 -0.0649 -0.3310
   51CHL1  H22A 4937   4.688   2.155   3.851  0.5803 -2.5072 -0.6730
   51CHL1  H22B 4938   4.525   2.222   3.789 -1.3657 -1.3126 -1.0077
   51CHL1   C23 4939   4.524   2.107   3.975  0.2364 -0.7505 -0.7741
   51CHL1  H23A 4940   4.413   2.102   3.975 -0.1087  3.2889 -2.3302
   51CHL1  H23B 4941   4.563   2.010   4.013  0.9949  0.0818  0.7065
   51CHL1   C24 4942   4.550   2.220   4.077 -0.0008  0.1118  0.3183
   51CHL1  H24A 4943   4.659   2.216   4.099 -0.0720  0.0281  0.6610
   51CHL1  H24B 4944   4.543   2.322   4.032  0.8084 -0.3576 -0.9480
   51CHL1   C25 4945   4.474   2.216   4.205 -0.4700  0.3556 -0.2366
   51CHL1   H25 4946   4.520   2.299   4.262 -0.1823  1.0918 -1.5037
   51CHL1   C26 4947   4.323   2.244   4.198 -0.3214  0.0526 -0.2268
   51CHL1  H26A 4948   4.262   2.163   4.153 -0.2897 -1.7830  2.7284
   51CHL1  H26B 4949   4.283   2.235   4.302 -2.5689 -2.2840 -1.1890
   51CHL1  H26C 4950   4.291   2.327   4.132 -4.0810 -1.2817 -0.3313
   51CHL1   C27 4951   4.505   2.077   4.283  0.0188 -1.2863  0.2967
   51CHL1  H27A 4952   4.615   2.061   4.287 -0.0947 -2.0913  0.2898
   51CHL1  H27B 4953   4.477   2.092   4.389  2.2564 -1.3923  0.9551
   51CHL1  H27C 4954   4.457   1.992   4.230 -1.9497  0.2607 -0.5392
   52CHL1    C3 4955   2.667   2.797   2.605  0.2345 -0.3828  0.6846
   52CHL1    H3 4956   2.628   2.894   2.643  0.9299 -0.2477  1.0728
   52CHL1    O3 4957   2.698   2.800   2.467 -0.2249 -0.1064  0.5468
   52CHL1   H3' 4958   2.746   2.717   2.467 -1.8965 -1.1401  1.8394
   52CHL1    C4 4959   2.795   2.790   2.678  0.0082  0.0848 -0.3288
   52CHL1   H4A 4960   2.831   2.688   2.652 -2.1958 -0.5178 -1.2278
   52CHL1   H4B 4961   2.879   2.854   2.644 -1.4942  1.7457 -1.0555
   52CHL1    C5 4962   2.782   2.793   2.830  0.0866 -0.0488 -0.0743
   52CHL1    C6 4963   2.845   2.880   2.913  0.1874 -0.4073 -0.0694
   52CHL1    H6 4964   2.900   2.962   2.866 -0.7944 -0.0971 -0.7004
   52CHL1    C7 4965   2.834   2.878   3.059 -0.6225 -1.0624 -0.8365
   52CHL1   H7A 4966   2.932   2.902   3.105 -2.2146  2.0006  1.2878
   52CHL1   H7B 4967   2.773   2.962   3.100  0.0129 -0.7182 -0.5764
   52CHL1    C8 4968   2.769   2.749   3.118  0.7413 -0.2523 -0.1916
   52CHL1    H8 4969   2.857   2.681   3.117  0.5523 -0.5462  1.3585
   52CHL1   C14 4970   2.736   2.775   3.260  0.1132  0.1631  0.0520
   52CHL1   H14 4971   2.665   2.861   3.260 -0.5774 -0.3919  0.8237
   52CHL1   C15 4972   2.849   2.824   3.350 -0.0511  0.7705  0.4869
   52CHL1  H15A 4973   2.945   2.775   3.324 -1.4846 -2.0389  0.1231
   52CHL1  H15B 4974   2.857   2.935   3.350 -3.5485  1.1526 -0.3370
   52CHL1   C16 4975   2.797   2.774   3.482  0.8779 -0.2008 -0.2595
   52CHL1  H16A 4976   2.870   2.704   3.529  0.4432  1.1469  2.6753
   52CHL1  H16B 4977   2.783   2.859   3.553  0.3625  0.3085 -0.9595
   52CHL1   C17 4978   2.655   2.700   3.467 -0.1474 -0.5005  0.0084
   52CHL1   H17 4979   2.573   2.775   3.459  0.3983  0.0262 -0.7852
   52CHL1   C13 4980   2.664   2.651   3.317  0.1334 -0.4253 -0.2635
   52CHL1   C18 4981   2.757   2.524   3.309  0.7927 -0.4553  0.4474
   52CHL1  H18A 4982   2.697   2.439   3.348 -0.1184  0.3696  0.8841
   52CHL1  H18B 4983   2.780   2.499   3.203  1.1070 -0.7815  0.5906
   52CHL1  H18C 4984   2.852   2.537   3.365  0.5888 -3.1417  1.5410
   52CHL1   C12 4985   2.530   2.620   3.243 -0.3203  0.2003 -0.4368
   52CHL1  H12A 4986   2.481   2.535   3.294 -0.2572  0.3057 -0.1929
   52CHL1  H12B 4987   2.469   2.713   3.249  1.0739  1.1094  0.5908
   52CHL1   C11 4988   2.560   2.597   3.090 -0.8279 -0.2391 -0.6076
   52CHL1  H11A 4989   2.613   2.500   3.079 -1.9241 -0.6799 -2.4243
   52CHL1  H11B 4990   2.464   2.586   3.035 -0.0650 -1.4742 -1.7728
   52CHL1    C9 4991   2.650   2.712   3.032  0.7812  0.1765 -0.3948
   52CHL1    H9 4992   2.585   2.802   3.031  2.3542  1.3608 -1.7813
   52CHL1   C10 4993   2.688   2.686   2.884  0.1219 -0.4212 -0.5608
   52CHL1   C19 4994   2.757   2.544   2.881 -0.7949 -0.4908 -0.3017
   52CHL1  H19A 4995   2.832   2.524   2.960 -1.4680  0.0486  0.4882
   52CHL1  H19B 4996   2.673   2.472   2.890 -0.2649 -1.1106 -0.2284
   52CHL1  H19C 4997   2.799   2.526   2.779 -0.5645 -0.2034 -0.2588
   52CHL1    C1 4998   2.556   2.676   2.793 -0.1190 -0.8126  0.6697
   52CHL1   H1A 4999   2.495   2.590   2.829  1.5729 -1.3622  2.4071
   52CHL1   H1B 5000   2.503   2.770   2.819  0.7784  0.0855 -0.6536
   52CHL1    C2 5001   2.573   2.683   2.642 -0.3037  0.3797  0.2743
   52CHL1   H2A 5002   2.476   2.689   2.588  0.8401  0.5410 -1.8846
   52CHL1   H2B 5003   2.614   2.582   2.620  0.1629  1.1182 -2.6741
   52CHL1   C20 5004   2.630   2.604   3.582 -0.1482  0.1476 -0.6728
   52CHL1   H20 5005   2.699   2.517   3.572  0.1646  0.4394 -1.1399
   52CHL1   C21 5006   2.488   2.547   3.566  0.2172  0.4348  0.4328
   52CHL1  H21A 5007   2.420   2.634   3.551  1.1273  0.9915 -0.5162
   52CHL1  H21B 5008   2.448   2.481   3.647 -2.3912  2.3230  0.8421
   52CHL1  H21C 5009   2.479   2.484   3.475  1.5176 -0.0881  0.6548
   52CHL1   C22 5010   2.638   2.666   3.727 -0.3502 -0.5156  0.4188
   52CHL1  H22A 5011   2.746   2.688   3.743  0.0829  0.1900 -2.7699
   52CHL1  H22B 5012   2.578   2.760   3.722  0.5440  0.0013 -1.0599
   52CHL1   C23 5013   2.592   2.567   3.834 -0.5405 -0.3799  0.1223
   52CHL1  H23A 5014   2.482   2.559   3.842 -0.5720  0.8423  1.2655
   52CHL1  H23B 5015   2.622   2.465   3.799  3.8811  0.6979  0.0833
   52CHL1   C24 5016   2.643   2.587   3.977 -0.1091 -0.1592  0.4458
   52CHL1  H24A 5017   2.754   2.590   3.970 -0.1835 -0.8934 -2.7629
   52CHL1  H24B 5018   2.603   2.683   4.016 -1.3335 -0.9801  1.2750
   52CHL1   C25 5019   2.609   2.482   4.084 -0.6776 -0.5253 -0.3361
   52CHL1   H25 5020   2.657   2.382   4.072  0.6476 -0.4333  3.0878
   52CHL1   C26 5021   2.675   2.536   4.213  0.0253 -0.0473 -0.3933
   52CHL1  H26A 5022   2.643   2.636   4.247 -0.0031 -0.2978  0.3382
   52CHL1  H26B 5023   2.668   2.457   4.292  0.6462 -0.3955 -0.6733
   52CHL1  H26C 5024   2.784   2.548   4.196 -0.2184  2.1943 -0.6222
   52CHL1   C27 5025   2.460   2.473   4.119  0.0352 -0.1261 -0.2456
   52CHL1  H27A 5026   2.418   2.572   4.146  0.8258  0.5500 -1.4256
   52CHL1  H27B 5027   2.405   2.436   4.030 -1.1843  0.6884  0.1520
   52CHL1  H27C 5028   2.438   2.395   4.196 -0.0083 -0.3869 -0.5221
   53CHL1    C3 5029   3.334   1.909   2.721  0.7926  0.1887 -1.1045
   53CHL1    H3 5030   3.395   2.000   2.706  3.3693 -0.4414  3.4643
   53CHL1    O3 5031   3.324   1.843   2.596  0.2682  0.0507 -0.0694
   53CHL1   H3' 5032   3.415   1.817   2.579 -0.2329 -1.4377 -0.6253
   53CHL1    C4 5033   3.395   1.823   2.832  0.3033 -0.1376  0.5169
   53CHL1   H4A 5034   3.336   1.729   2.831 -2.2277  1.3769  0.3412
   53CHL1   H4B 5035   3.487   1.796   2.777  0.0844  1.3396 -0.6532
   53CHL1    C5 5036   3.409   1.892   2.963  0.1516 -0.2290  0.0815
   53CHL1    C6 5037   3.526   1.909   3.024  0.0656 -0.3622 -0.2770
   53CHL1    H6 5038   3.618   1.886   2.968  0.0206  2.8328 -1.8495
   53CHL1    C7 5039   3.541   1.960   3.168  0.2590  0.4329  0.1903
   53CHL1   H7A 5040   3.594   1.884   3.230  2.3100  0.6560 -1.1969
   53CHL1   H7B 5041   3.593   2.058   3.153 -1.3071  0.8457 -3.6800
   53CHL1    C8 5042   3.398   1.980   3.239  0.7294 -0.4616  0.2758
   53CHL1    H8 5043   3.374   1.877   3.272 -0.3349  0.1232  1.3836
   53CHL1   C14 5044   3.409   2.064   3.362  0.0670 -0.0303  0.1804
   53CHL1   H14 5045   3.428   2.166   3.322  1.0392  0.0146  0.7258
   53CHL1   C15 5046   3.525   2.047   3.468  0.6160  0.3104  0.5026
   53CHL1  H15A 5047   3.527   1.937   3.484 -0.5714 -0.0920 -1.7401
   53CHL1  H15B 5048   3.625   2.069   3.424 -0.1528  1.4553 -0.7313
   53CHL1   C16 5049   3.477   2.134   3.584  0.0381 -0.2772 -1.1131
   53CHL1  H16A 5050   3.474   2.075   3.679 -1.8209  0.6217 -0.5579
   53CHL1  H16B 5051   3.535   2.226   3.607 -0.3326 -0.0677 -0.9904
   53CHL1   C17 5052   3.327   2.183   3.553  0.9113  0.3233  0.0186
   53CHL1   H17 5053   3.323   2.286   3.510  2.5646  0.5398  0.2964
   53CHL1   C13 5054   3.282   2.086   3.440 -0.0519  0.4662 -0.0992
   53CHL1   C18 5055   3.241   1.946   3.497  0.3267 -0.2808  0.0885
   53CHL1  H18A 5056   3.158   1.963   3.568  0.3899 -0.9230  0.3272
   53CHL1  H18B 5057   3.198   1.869   3.429 -0.5650 -1.4134  1.8555
   53CHL1  H18C 5058   3.315   1.889   3.556 -1.2321 -3.5395 -0.8570
   53CHL1   C12 5059   3.178   2.150   3.341  0.1834 -0.4332  0.1463
   53CHL1  H12A 5060   3.078   2.161   3.388 -0.5264 -4.1125 -0.2167
   53CHL1  H12B 5061   3.219   2.251   3.322  0.2740 -0.5009 -0.0123
   53CHL1   C11 5062   3.158   2.066   3.220 -0.2442  0.1169  0.6524
   53CHL1  H11A 5063   3.105   1.973   3.248 -0.4975 -0.5087 -1.6695
   53CHL1  H11B 5064   3.085   2.118   3.155 -0.2925 -0.0612  0.5634
   53CHL1    C9 5065   3.288   2.032   3.142 -0.5036  0.2476 -1.1040
   53CHL1    H9 5066   3.331   2.130   3.113  0.9761  0.6928  2.0733
   53CHL1   C10 5067   3.279   1.938   3.018  0.4376 -0.4367 -0.1893
   53CHL1   C19 5068   3.193   1.815   3.060 -0.3499 -0.7220  0.5624
   53CHL1  H19A 5069   3.104   1.856   3.111  0.3540  0.8406  0.5953
   53CHL1  H19B 5070   3.151   1.764   2.971 -2.2666 -0.2840  1.1596
   53CHL1  H19C 5071   3.245   1.743   3.127  1.8825  0.0216 -0.2924
   53CHL1    C1 5072   3.206   2.017   2.908  0.3325 -0.1503 -0.6577
   53CHL1   H1A 5073   3.104   2.021   2.952  1.3418 -1.4321  2.0322
   53CHL1   H1B 5074   3.245   2.119   2.891  0.7629 -0.1161  0.4754
   53CHL1    C2 5075   3.197   1.956   2.768 -0.4808  0.2984 -0.2287
   53CHL1   H2A 5076   3.162   2.021   2.685 -0.1266 -0.7747 -1.2497
   53CHL1   H2B 5077   3.135   1.864   2.764 -0.5022  0.3142 -0.2657
   53CHL1   C20 5078   3.250   2.185   3.686 -0.4887  0.5644  0.0978
   53CHL1   H20 5079   3.255   2.085   3.733  1.6956  0.3311 -0.5138
   53CHL1   C21 5080   3.108   2.229   3.649  0.0959  0.1710  0.1458
   53CHL1  H21A 5081   3.042   2.262   3.732 -0.2648 -0.1602 -0.0065
   53CHL1  H21B 5082   3.068   2.148   3.585  0.0173 -0.8496  1.4409
   53CHL1  H21C 5083   3.124   2.316   3.581  0.6079  1.1149  1.4256
   53CHL1   C22 5084   3.317   2.291   3.784 -1.0948 -0.1158  0.3097
   53CHL1  H22A 5085   3.424   2.273   3.809 -0.2866  2.2338 -1.1105
   53CHL1  H22B 5086   3.341   2.383   3.727  1.8848 -1.5427 -0.9274
   53CHL1   C23 5087   3.251   2.310   3.917  0.1274  0.4439 -0.4193
   53CHL1  H23A 5088   3.141   2.317   3.905 -0.0858 -0.3690  0.8477
   53CHL1  H23B 5089   3.253   2.215   3.976 -0.6858  1.5822  1.5373
   53CHL1   C24 5090   3.285   2.435   3.999  0.0549 -0.7957  1.0536
   53CHL1  H24A 5091   3.392   2.413   4.019  1.0725  2.2990 -0.3174
   53CHL1  H24B 5092   3.267   2.524   3.935 -3.4650 -1.5035  0.8542
   53CHL1   C25 5093   3.225   2.452   4.141 -0.2195  0.8530 -0.1903
   53CHL1   H25 5094   3.235   2.356   4.196  1.6834  1.1623  0.0843
   53CHL1   C26 5095   3.295   2.566   4.216 -0.3548  1.5002  0.0571
   53CHL1  H26A 5096   3.304   2.659   4.156 -2.5373  0.9394 -1.2398
   53CHL1  H26B 5097   3.240   2.592   4.310  1.0292  0.5500  1.1803
   53CHL1  H26C 5098   3.399   2.538   4.242 -0.8519  0.1844  0.7413
   53CHL1   C27 5099   3.078   2.478   4.138  1.0149  0.0161 -0.1302
   53CHL1  H27A 5100   3.055   2.583   4.109  2.3221  0.5479  0.6502
   53CHL1  H27B 5101   3.017   2.405   4.080 -1.8368  2.2121 -0.1372
   53CHL1  H27C 5102   3.030   2.480   4.239 -2.7804 -0.1375 -1.7857
   54CHL1    C3 5103   2.732   2.080   2.671 -0.0629  0.6060 -0.5502
   54CHL1    H3 5104   2.658   2.161   2.656 -1.9366 -1.0318 -0.7376
   54CHL1    O3 5105   2.798   2.082   2.549  0.0741  0.5236  0.2135
   54CHL1   H3' 5106   2.860   2.009   2.547 -0.0157  0.4523 -0.0695
   54CHL1    C4 5107   2.825   2.112   2.785  0.3586 -0.0846  0.0844
   54CHL1   H4A 5108   2.919   2.054   2.772 -0.2076 -1.4975  1.8788
   54CHL1   H4B 5109   2.858   2.218   2.780 -1.5630  0.9171  4.2809
   54CHL1    C5 5110   2.793   2.082   2.929  0.6548 -0.1533 -0.4742
   54CHL1    C6 5111   2.818   2.175   3.026 -0.3686  0.2306 -0.2873
   54CHL1    H6 5112   2.854   2.275   2.999  2.3292 -0.2097  1.2922
   54CHL1    C7 5113   2.783   2.151   3.170 -0.3521 -0.1144 -0.6725
   54CHL1   H7A 5114   2.868   2.176   3.236 -1.1815  0.6466  0.1356
   54CHL1   H7B 5115   2.692   2.209   3.196 -1.1034 -1.2054 -0.7951
   54CHL1    C8 5116   2.757   2.004   3.213  0.3531  0.2546  0.8068
   54CHL1    H8 5117   2.849   1.943   3.205  0.8751  0.9520  1.4110
   54CHL1   C14 5118   2.697   2.007   3.345  0.2048  0.5792 -0.3252
   54CHL1   H14 5119   2.602   2.063   3.339  1.3528  2.5196 -1.2541
   54CHL1   C15 5120   2.774   2.072   3.463  0.9487 -0.0833 -0.1455
   54CHL1  H15A 5121   2.881   2.046   3.469  1.8169  3.2483  1.0254
   54CHL1  H15B 5122   2.765   2.181   3.482  1.5548 -0.2854  1.3676
   54CHL1   C16 5123   2.705   2.012   3.591  0.4715  0.7027  0.4466
   54CHL1  H16A 5124   2.788   1.962   3.644  1.7364  0.4720 -1.6348
   54CHL1  H16B 5125   2.659   2.090   3.656 -0.4228  1.9686 -1.5877
   54CHL1   C17 5126   2.606   1.907   3.534 -0.2182 -0.9559 -0.5285
   54CHL1   H17 5127   2.515   1.967   3.514  0.9371  0.5470 -1.5045
   54CHL1   C13 5128   2.661   1.864   3.395 -0.1710  0.6243  0.5236
   54CHL1   C18 5129   2.797   1.776   3.413  0.7729 -0.2036 -0.3475
   54CHL1  H18A 5130   2.773   1.680   3.463  2.3831 -1.5621 -2.0083
   54CHL1  H18B 5131   2.842   1.748   3.315  1.4824  0.2758 -0.1706
   54CHL1  H18C 5132   2.870   1.826   3.481 -1.3315  2.6372  0.0072
   54CHL1   C12 5133   2.556   1.798   3.297 -0.5056 -0.2410 -0.2173
   54CHL1  H12A 5134   2.535   1.693   3.325  1.0119 -0.2701  0.9237
   54CHL1  H12B 5135   2.466   1.864   3.298  0.3203  0.9791 -1.3035
   54CHL1   C11 5136   2.615   1.796   3.150 -0.4532  0.8240  0.5932
   54CHL1  H11A 5137   2.692   1.716   3.151 -0.1159  1.1221  2.5756
   54CHL1  H11B 5138   2.529   1.767   3.085  1.5510 -0.2015 -1.7974
   54CHL1    C9 5139   2.664   1.932   3.102 -0.8318  0.4801  0.0346
   54CHL1    H9 5140   2.576   2.000   3.099  0.9261  2.8792 -1.6186
   54CHL1   C10 5141   2.724   1.938   2.958 -0.0394  0.3129  0.5532
   54CHL1   C19 5142   2.834   1.834   2.942  0.6808 -0.2262  0.9483
   54CHL1  H19A 5143   2.920   1.863   3.006  2.0810 -1.2288 -0.4152
   54CHL1  H19B 5144   2.800   1.728   2.954  0.3825 -1.4622 -6.1251
   54CHL1  H19C 5145   2.863   1.843   2.835 -2.2590  2.6097  0.2290
   54CHL1    C1 5146   2.619   1.914   2.849 -0.1250  0.0055 -0.3057
   54CHL1   H1A 5147   2.556   1.823   2.852 -2.4569  1.4510 -1.7771
   54CHL1   H1B 5148   2.542   1.992   2.863  0.5979  0.3248  2.4330
   54CHL1    C2 5149   2.667   1.945   2.697 -0.4596 -0.0946 -0.6276
   54CHL1   H2A 5150   2.576   1.927   2.636  0.7244  1.4027 -2.9898
   54CHL1   H2B 5151   2.733   1.861   2.669 -1.6151 -0.9149 -0.9875
   54CHL1   C20 5152   2.589   1.793   3.643  0.6438 -0.2186 -0.0584
   54CHL1   H20 5153   2.674   1.721   3.647  1.0318  0.2122 -0.4294
   54CHL1   C21 5154   2.462   1.725   3.603  0.4122 -0.1410  0.8790
   54CHL1  H21A 5155   2.437   1.643   3.674  1.1743 -0.7165  0.5065
   54CHL1  H21B 5156   2.479   1.670   3.508  1.0145  1.7916 -0.1677
   54CHL1  H21C 5157   2.369   1.784   3.596 -0.5026 -1.7359 -1.7851
   54CHL1   C22 5158   2.569   1.843   3.796  0.0966  0.7802  0.1174
   54CHL1  H22A 5159   2.663   1.890   3.832  0.8349 -2.1073  2.3713
   54CHL1  H22B 5160   2.488   1.918   3.805 -0.6871  0.2974 -2.2158
   54CHL1   C23 5161   2.552   1.723   3.897  0.2390 -0.0188 -0.4200
   54CHL1  H23A 5162   2.460   1.665   3.876 -1.1710  2.3807 -1.2998
   54CHL1  H23B 5163   2.634   1.651   3.877  0.7784  0.7591 -1.1074
   54CHL1   C24 5164   2.544   1.760   4.049 -0.6140  0.0225  0.6443
   54CHL1  H24A 5165   2.636   1.814   4.079 -0.6638  0.3504  0.2272
   54CHL1  H24B 5166   2.464   1.837   4.054  0.3711  1.0617  0.6194
   54CHL1   C25 5167   2.507   1.635   4.132  0.2178  0.1177  0.1274
   54CHL1   H25 5168   2.425   1.586   4.075  1.0725  0.5496 -1.5452
   54CHL1   C26 5169   2.623   1.539   4.163  0.0243 -1.2014 -0.4605
   54CHL1  H26A 5170   2.708   1.603   4.195 -0.7722 -0.4052  0.1269
   54CHL1  H26B 5171   2.578   1.469   4.236 -0.7038  0.7078  0.9971
   54CHL1  H26C 5172   2.649   1.480   4.072 -0.4104 -0.4320 -1.0987
   54CHL1   C27 5173   2.453   1.695   4.258  0.2112 -0.3202 -0.3102
   54CHL1  H27A 5174   2.533   1.766   4.290  1.4260 -1.9678  0.4306
   54CHL1  H27B 5175   2.360   1.755   4.245  1.1629  1.6863  1.4831
   54CHL1  H27C 5176   2.454   1.614   4.334 -0.7862  0.4564  0.5504
   55CHL1    C3 5177   4.440   4.553   3.279  0.2949  0.2535  0.0621
   55CHL1    H3 5178   4.496   4.459   3.262  0.0801  0.3274 -1.1327
   55CHL1    O3 5179   4.382   4.607   3.160 -0.3909  0.4871  0.1073
   55CHL1   H3' 5180   4.339   4.531   3.120  1.1274 -0.7556  0.7517
   55CHL1    C4 5181   4.320   4.515   3.377  0.8221  0.0737 -0.4916
   55CHL1   H4A 5182   4.256   4.605   3.368 -2.3429 -1.9406  0.1292
   55CHL1   H4B 5183   4.263   4.439   3.319 -1.7843  1.0750  0.6183
   55CHL1    C5 5184   4.353   4.476   3.518  0.6376 -0.7147 -0.1681
   55CHL1    C6 5185   4.311   4.359   3.572  0.0048  0.4085  0.2416
   55CHL1    H6 5186   4.251   4.288   3.512  0.7531  2.4231 -3.2003
   55CHL1    C7 5187   4.343   4.312   3.709 -0.4125 -0.2195 -0.0703
   55CHL1   H7A 5188   4.262   4.260   3.765  0.2967 -1.9837 -0.6181
   55CHL1   H7B 5189   4.423   4.235   3.712 -0.3392 -0.1541  3.4632
   55CHL1    C8 5190   4.395   4.429   3.799  0.5886 -0.0348  0.2874
   55CHL1    H8 5191   4.312   4.502   3.812 -0.0412 -0.7786  0.5221
   55CHL1   C14 5192   4.453   4.372   3.928  0.3731  0.3155 -0.2455
   55CHL1   H14 5193   4.538   4.304   3.908  1.0785 -0.1724  3.5929
   55CHL1   C15 5194   4.365   4.285   4.017 -0.4572  0.2878 -0.2224
   55CHL1  H15A 5195   4.260   4.320   4.020  0.0047  1.7397  1.5210
   55CHL1  H15B 5196   4.363   4.182   3.977 -2.1394  1.2731 -2.8883
   55CHL1   C16 5197   4.430   4.295   4.161 -0.1385  0.5426 -0.6462
   55CHL1  H16A 5198   4.359   4.313   4.245 -0.2426  0.6489 -0.7570
   55CHL1  H16B 5199   4.480   4.201   4.194 -1.7825 -0.0955  0.1430
   55CHL1   C17 5200   4.547   4.398   4.149  0.3479 -0.2535 -0.8877
   55CHL1   H17 5201   4.643   4.347   4.127  0.4150 -0.5644  0.0914
   55CHL1   C13 5202   4.512   4.484   4.024 -0.0496  0.5330  0.4886
   55CHL1   C18 5203   4.404   4.594   4.059  0.1004  0.2969 -0.2086
   55CHL1  H18A 5204   4.337   4.551   4.136  0.4949  1.0794  0.5814
   55CHL1  H18B 5205   4.464   4.679   4.096  0.0993 -0.3805  1.4160
   55CHL1  H18C 5206   4.347   4.620   3.967 -0.0885  1.1412  0.1472
   55CHL1   C12 5207   4.637   4.541   3.950 -0.6376  0.7080 -0.1859
   55CHL1  H12A 5208   4.689   4.619   4.009  0.7683 -0.5943  0.3577
   55CHL1  H12B 5209   4.703   4.453   3.935 -1.7494  0.0102 -1.1223
   55CHL1   C11 5210   4.599   4.600   3.817  0.2476  1.1684 -0.0647
   55CHL1  H11A 5211   4.542   4.694   3.834  0.4572  1.1444  0.8178
   55CHL1  H11B 5212   4.694   4.632   3.767 -0.4208  1.6942 -1.0382
   55CHL1    C9 5213   4.514   4.504   3.721  0.0636 -0.6206 -0.6394
   55CHL1    H9 5214   4.584   4.423   3.693 -1.3288 -1.8594 -0.6551
   55CHL1   C10 5215   4.456   4.574   3.593  0.2411  0.6247 -0.4232
   55CHL1   C19 5216   4.377   4.704   3.628 -0.2267 -0.7273  0.5484
   55CHL1  H19A 5217   4.331   4.746   3.536  3.3307  1.5016 -0.4036
   55CHL1  H19B 5218   4.308   4.687   3.713  0.3486 -2.5893  0.6998
   55CHL1  H19C 5219   4.446   4.784   3.661  1.7502 -2.1251  0.0334
   55CHL1    C1 5220   4.575   4.608   3.499 -0.2976  0.3055 -0.7870
   55CHL1   H1A 5221   4.629   4.689   3.550 -0.5351  0.3434 -0.5945
   55CHL1   H1B 5222   4.646   4.524   3.486 -1.9880 -1.5978  1.2987
   55CHL1    C2 5223   4.532   4.657   3.359 -0.4176  0.1666  0.3504
   55CHL1   H2A 5224   4.622   4.668   3.294 -0.2131 -0.6082  0.4940
   55CHL1   H2B 5225   4.475   4.753   3.359 -0.5455  0.1232  2.3678
   55CHL1   C20 5226   4.575   4.479   4.283 -0.4969  0.0988  0.9769
   55CHL1   H20 5227   4.483   4.539   4.297  0.1373  0.8000  2.3773
   55CHL1   C21 5228   4.696   4.574   4.275 -0.2171  0.7952  0.1674
   55CHL1  H21A 5229   4.775   4.526   4.213 -2.5645 -2.7075 -0.3893
   55CHL1  H21B 5230   4.724   4.594   4.381 -1.6054 -1.3448  1.0127
   55CHL1  H21C 5231   4.672   4.671   4.226 -0.0902 -0.4531 -2.5344
   55CHL1   C22 5232   4.591   4.395   4.413  0.6471  0.1019 -0.1820
   55CHL1  H22A 5233   4.523   4.307   4.408 -0.4610  0.9640 -0.7026
   55CHL1  H22B 5234   4.696   4.361   4.424  0.7484  0.6756  0.6948
   55CHL1   C23 5235   4.556   4.478   4.541  0.4163 -0.3843 -0.3571
   55CHL1  H23A 5236   4.630   4.559   4.558  1.4796 -1.6213  1.2237
   55CHL1  H23B 5237   4.448   4.503   4.544  0.7365  1.1747 -1.2685
   55CHL1   C24 5238   4.593   4.387   4.659 -0.1825 -0.5701  0.1795
   55CHL1  H24A 5239   4.533   4.296   4.640 -0.0516 -0.5401 -0.4011
   55CHL1  H24B 5240   4.699   4.357   4.640 -0.2987 -0.4309 -0.7231
   55CHL1   C25 5241   4.565   4.441   4.797 -0.6103 -0.3049 -1.1634
   55CHL1   H25 5242   4.563   4.363   4.875 -1.0015 -0.3521 -1.2181
   55CHL1   C26 5243   4.676   4.534   4.854  0.1899 -0.2380  0.0651
   55CHL1  H26A 5244   4.774   4.481   4.846  0.2694 -0.1158  0.2333
   55CHL1  H26B 5245   4.672   4.634   4.807  1.0224 -0.1938  0.0720
   55CHL1  H26C 5246   4.655   4.547   4.962  0.9746 -3.1240  0.6512
   55CHL1   C27 5247   4.430   4.510   4.804  0.7783 -1.0798  0.0939
   55CHL1  H27A 5248   4.342   4.452   4.766 -1.5319  1.9689  0.4131
   55CHL1  H27B 5249   4.411   4.539   4.909 -0.1585 -1.9454  0.1797
   55CHL1  H27C 5250   4.430   4.603   4.743  1.6128 -1.9464 -1.2844
   56CHL1    C3 5251   6.803   1.261   2.976  0.1724 -0.2724  0.2262
   56CHL1    H3 5252   6.884   1.185   2.964 -0.0365 -0.1332 -2.4529
   56CHL1    O3 5253   6.719   1.262   2.855 -0.1591  0.4275 -0.3208
   56CHL1   H3' 5254   6.775   1.282   2.780 -0.2575  0.4770 -0.3827
   56CHL1    C4 5255   6.700   1.219   3.090 -0.0878 -0.9889  0.3361
   56CHL1   H4A 5256   6.602   1.271   3.095 -0.5032 -1.7047 -0.1218
   56CHL1   H4B 5257   6.672   1.114   3.065 -0.6579 -1.7400  3.6588
   56CHL1    C5 5258   6.755   1.232   3.231  0.3484  0.2694  0.2885
   56CHL1    C6 5259   6.759   1.125   3.314 -1.0442 -0.1733 -0.2293
   56CHL1    H6 5260   6.710   1.031   3.284 -5.2523  1.9033 -0.6049
   56CHL1    C7 5261   6.821   1.119   3.457 -0.0304  0.3104  0.0072
   56CHL1   H7A 5262   6.754   1.063   3.525 -0.0813 -2.1017 -1.8661
   56CHL1   H7B 5263   6.910   1.058   3.431  0.6458  1.0201  0.5994
   56CHL1    C8 5264   6.866   1.257   3.505  0.2491 -0.5269 -0.3930
   56CHL1    H8 5265   6.776   1.313   3.540  1.7861 -0.1034  3.2032
   56CHL1   C14 5266   6.959   1.242   3.621 -0.0882  0.5057  0.3605
   56CHL1   H14 5267   7.049   1.186   3.586  0.0264  0.4886  0.6804
   56CHL1   C15 5268   6.893   1.161   3.737  0.0007  0.3867 -0.8109
   56CHL1  H15A 5269   6.787   1.186   3.760 -0.7375 -2.0908 -1.2182
   56CHL1  H15B 5270   6.895   1.051   3.728  1.3815  0.1111  1.8606
   56CHL1   C16 5271   6.975   1.208   3.860  0.3694 -0.1406 -0.6288
   56CHL1  H16A 5272   6.917   1.234   3.951  0.7697 -0.0003 -0.4098
   56CHL1  H16B 5273   7.033   1.124   3.903 -0.3692 -0.4680 -0.2456
   56CHL1   C17 5274   7.081   1.318   3.809  0.4665 -0.0579  0.4313
   56CHL1   H17 5275   7.168   1.257   3.775 -0.8348 -0.8475 -1.6681
   56CHL1   C13 5276   7.018   1.365   3.680 -0.3066 -0.7681 -0.6513
   56CHL1   C18 5277   6.909   1.467   3.718 -0.3180 -0.4975  0.0952
   56CHL1  H18A 5278   6.869   1.523   3.631 -0.7459  0.3000  0.7912
   56CHL1  H18B 5279   6.826   1.426   3.780  0.3244  1.5183  2.4611
   56CHL1  H18C 5280   6.961   1.552   3.767  0.0481 -0.0569 -1.0151
   56CHL1   C12 5281   7.108   1.430   3.570 -0.5654  0.2277 -0.0398
   56CHL1  H12A 5282   7.163   1.522   3.598 -0.8031  0.2339  0.4193
   56CHL1  H12B 5283   7.182   1.352   3.541  0.9202  2.3846 -2.4202
   56CHL1   C11 5284   7.027   1.456   3.435 -0.1488  0.2945 -0.2435
   56CHL1  H11A 5285   6.963   1.546   3.445  1.1407  1.2043  0.0516
   56CHL1  H11B 5286   7.104   1.486   3.360 -1.5858  2.0456 -1.0994
   56CHL1    C9 5287   6.938   1.334   3.388  0.2302  0.6726 -0.3463
   56CHL1    H9 5288   7.019   1.265   3.356 -0.4868 -1.6358  2.3520
   56CHL1   C10 5289   6.841   1.355   3.264 -0.3953  0.4844 -0.7604
   56CHL1   C19 5290   6.745   1.454   3.304 -0.0864 -0.9584 -0.3628
   56CHL1  H19A 5291   6.792   1.552   3.328 -1.3192 -0.5085  0.2888
   56CHL1  H19B 5292   6.668   1.483   3.229  1.1052  0.9189 -0.9179
   56CHL1  H19C 5293   6.688   1.443   3.398 -1.8454 -0.7774 -1.3691
   56CHL1    C1 5294   6.928   1.406   3.145  0.4941 -0.1011 -0.0749
   56CHL1   H1A 5295   6.960   1.509   3.172 -0.8090  1.0105 -2.3892
   56CHL1   H1B 5296   7.015   1.338   3.133  1.2388  0.7441  0.4417
   56CHL1    C2 5297   6.846   1.407   3.009 -0.1986  0.5267 -0.8868
   56CHL1   H2A 5298   6.912   1.436   2.925  0.4924  0.7514 -0.2747
   56CHL1   H2B 5299   6.765   1.483   3.015 -1.6593 -1.0130 -0.0565
   56CHL1   C20 5300   7.134   1.417   3.920  0.1957  0.2121 -0.3604
   56CHL1   H20 5301   7.050   1.488   3.937  0.1972  0.3311 -0.8422
   56CHL1   C21 5302   7.250   1.501   3.863  0.7315  0.1976  0.0293
   56CHL1  H21A 5303   7.298   1.558   3.945  0.3974  0.7177 -0.1305
   56CHL1  H21B 5304   7.217   1.578   3.789 -0.3605 -1.1649 -0.9575
   56CHL1  H21C 5305   7.325   1.435   3.816  0.0716 -1.5688  1.3340
   56CHL1   C22 5306   7.172   1.364   4.060 -0.6612  0.4549 -0.1528
   56CHL1  H22A 5307   7.125   1.265   4.076 -1.5129  0.7543 -0.7145
   56CHL1  H22B 5308   7.282   1.349   4.060 -0.7901 -1.1375  2.2609
   56CHL1   C23 5309   7.131   1.448   4.186 -0.2797 -0.0448 -0.4841
   56CHL1  H23A 5310   7.150   1.554   4.157 -1.1545  0.9981  2.4278
   56CHL1  H23B 5311   7.021   1.437   4.196 -0.3255  1.1670  0.6136
   56CHL1   C24 5312   7.203   1.419   4.315 -0.0236  0.3375  0.1890
   56CHL1  H24A 5313   7.176   1.313   4.336  0.6058 -0.0127 -0.7113
   56CHL1  H24B 5314   7.311   1.440   4.303  0.0819  0.7627  1.7010
   56CHL1   C25 5315   7.164   1.516   4.429 -0.5276  0.4509 -0.0433
   56CHL1   H25 5316   7.053   1.515   4.430 -0.5421  1.3748  0.1581
   56CHL1   C26 5317   7.223   1.475   4.562 -0.7825  0.9278 -0.3545
   56CHL1  H26A 5318   7.169   1.527   4.645  0.5090 -0.2035  1.2583
   56CHL1  H26B 5319   7.237   1.366   4.573 -1.9298  0.9107  1.4720
   56CHL1  H26C 5320   7.323   1.523   4.567 -0.8648  1.1777 -1.0454
   56CHL1   C27 5321   7.197   1.660   4.407  0.3032  0.3757 -0.1966
   56CHL1  H27A 5322   7.161   1.699   4.309  0.1208 -1.0686 -0.7316
   56CHL1  H27B 5323   7.148   1.725   4.482  0.3990 -0.4449  0.5919
   56CHL1  H27C 5324   7.307   1.673   4.413  0.0987  2.5235 -0.3709
   57CHL1    C3 5325   6.060   5.411   2.918  0.0514  0.3604 -0.3262
   57CHL1    H3 5326   5.966   5.469   2.930 -0.6435  0.1839 -3.7343
   57CHL1    O3 5327   6.100   5.410   2.781 -0.2170  0.1866 -0.1658
   57CHL1   H3' 5328   6.188   5.372   2.780  0.5798  1.7366  2.2179
   57CHL1    C4 5329   6.161   5.498   2.992 -0.0185 -0.1610  0.4477
   57CHL1   H4A 5330   6.263   5.475   2.955 -0.2899 -0.9610  0.1800
   57CHL1   H4B 5331   6.135   5.600   2.955 -1.0159 -1.0362 -1.3946
   57CHL1    C5 5332   6.139   5.491   3.141  0.1195  0.2328  0.1766
   57CHL1    C6 5333   6.120   5.607   3.216  0.1176  0.8273  1.1834
   57CHL1    H6 5334   6.114   5.705   3.166  0.9899  0.5268  0.4670
   57CHL1    C7 5335   6.101   5.605   3.364 -0.4522 -0.0398  0.3421
   57CHL1   H7A 5336   6.150   5.693   3.411 -0.1682 -1.0542  1.9853
   57CHL1   H7B 5337   5.993   5.611   3.392 -0.7337 -1.2672 -0.4095
   57CHL1    C8 5338   6.150   5.480   3.432  0.4344 -0.1432  0.6783
   57CHL1    H8 5339   6.261   5.485   3.432  0.4137  0.5446  0.3632
   57CHL1   C14 5340   6.104   5.473   3.575 -0.2849 -0.3695 -0.4306
   57CHL1   H14 5341   5.993   5.461   3.579 -0.0172 -3.0639  0.2765
   57CHL1   C15 5342   6.111   5.588   3.674 -0.2970 -0.0734 -0.4672
   57CHL1  H15A 5343   6.208   5.639   3.657 -0.5274  0.3745 -0.4333
   57CHL1  H15B 5344   6.023   5.654   3.659 -0.9333 -1.3332 -2.8057
   57CHL1   C16 5345   6.130   5.520   3.810  0.3555  0.1064 -0.6804
   57CHL1  H16A 5346   6.233   5.530   3.850  0.3681 -1.0629 -0.3975
   57CHL1  H16B 5347   6.052   5.552   3.882 -0.7322 -0.6962 -1.4673
   57CHL1   C17 5348   6.115   5.363   3.787  0.7846 -0.3881 -0.1055
   57CHL1   H17 5349   6.005   5.344   3.789  0.6538  0.2249 -1.0095
   57CHL1   C13 5350   6.154   5.344   3.643 -0.3046  0.0739  1.2102
   57CHL1   C18 5351   6.312   5.340   3.637 -0.1180  0.0417  0.0421
   57CHL1  H18A 5352   6.353   5.344   3.534  1.5450 -0.3374  0.6595
   57CHL1  H18B 5353   6.350   5.431   3.689 -0.9781  0.6808 -0.4386
   57CHL1  H18C 5354   6.351   5.243   3.675 -0.4498  0.1925  0.7832
   57CHL1   C12 5355   6.097   5.218   3.575  0.2825 -0.4345 -0.0516
   57CHL1  H12A 5356   6.152   5.135   3.623  2.3350  1.4675  1.0614
   57CHL1  H12B 5357   5.989   5.219   3.602  0.6938 -0.2217  1.6566
   57CHL1   C11 5358   6.124   5.214   3.420 -0.6009  0.1024  0.1531
   57CHL1  H11A 5359   6.224   5.167   3.410 -0.2409  0.6255  1.1246
   57CHL1  H11B 5360   6.053   5.142   3.374 -0.9030  0.4161  0.1248
   57CHL1    C9 5361   6.099   5.349   3.358 -0.4288 -0.2422 -0.0451
   57CHL1    H9 5362   5.989   5.361   3.350 -0.3821  0.2449  0.0450
   57CHL1   C10 5363   6.132   5.347   3.205 -0.5246  0.7295  0.4742
   57CHL1   C19 5364   6.278   5.295   3.185  0.3137 -0.1462 -0.2664
   57CHL1  H19A 5365   6.348   5.357   3.245  0.0696  0.0162 -0.1504
   57CHL1  H19B 5366   6.280   5.188   3.214  0.8766 -0.1841 -0.4210
   57CHL1  H19C 5367   6.309   5.293   3.078 -1.6322  0.6620 -0.8749
   57CHL1    C1 5368   6.045   5.253   3.122 -0.4364  0.1073 -0.7238
   57CHL1   H1A 5369   6.064   5.147   3.147 -0.7778  0.3782  0.8009
   57CHL1   H1B 5370   5.942   5.270   3.161  0.1033  0.2008  0.7392
   57CHL1    C2 5371   6.052   5.266   2.974  0.0427  0.1567  0.1975
   57CHL1   H2A 5372   5.969   5.205   2.932 -0.9866  3.0613 -2.3699
   57CHL1   H2B 5373   6.149   5.219   2.947  0.7383  0.0337  2.6426
   57CHL1   C20 5374   6.172   5.268   3.901 -0.1969 -0.9981  0.5130
   57CHL1   H20 5375   6.264   5.214   3.871  0.9153 -1.2458  3.9688
   57CHL1   C21 5376   6.057   5.169   3.933 -0.3065 -0.2984  0.0023
   57CHL1  H21A 5377   5.977   5.235   3.972 -1.0189 -1.2845  0.2427
   57CHL1  H21B 5378   6.089   5.087   4.001  0.0314  0.1807  0.4268
   57CHL1  H21C 5379   6.015   5.117   3.845 -2.4109 -0.2132  0.8944
   57CHL1   C22 5380   6.212   5.323   4.037  0.7841 -0.6535  0.2079
   57CHL1  H22A 5381   6.273   5.416   4.034  0.6588 -0.5890 -0.4275
   57CHL1  H22B 5382   6.113   5.352   4.080  0.2819  2.0529 -2.4161
   57CHL1   C23 5383   6.296   5.223   4.119  0.5061 -0.5457  0.4182
   57CHL1  H23A 5384   6.241   5.139   4.165 -1.0321 -0.1688 -0.6528
   57CHL1  H23B 5385   6.372   5.176   4.052  3.1267 -1.8358  3.9919
   57CHL1   C24 5386   6.360   5.293   4.236 -0.0381  0.4742  0.1434
   57CHL1  H24A 5387   6.424   5.378   4.205  0.4169 -0.6483 -2.2413
   57CHL1  H24B 5388   6.281   5.329   4.306 -1.0497 -4.2051  1.8129
   57CHL1   C25 5389   6.443   5.211   4.332  0.1314 -0.1006 -0.6671
   57CHL1   H25 5390   6.381   5.124   4.364  0.3199 -0.1522 -0.4454
   57CHL1   C26 5391   6.573   5.161   4.267 -0.4640 -0.4864  0.2188
   57CHL1  H26A 5392   6.541   5.101   4.179 -2.1215  1.6872 -0.7437
   57CHL1  H26B 5393   6.623   5.250   4.223  0.1532 -0.4907  0.8812
   57CHL1  H26C 5394   6.632   5.101   4.340 -0.9413  0.6089  1.5501
   57CHL1   C27 5395   6.483   5.293   4.456  0.0689  0.8144  0.0514
   57CHL1  H27A 5396   6.506   5.217   4.534  0.1671  0.7070 -0.0817
   57CHL1  H27B 5397   6.572   5.356   4.440  0.8087  0.1320  1.2669
   57CHL1  H27C 5398   6.412   5.369   4.495 -2.7554 -1.0761 -1.0829
   58CHL1    C3 5399   6.004   6.507   3.045 -0.2114 -0.6499  0.5598
   58CHL1    H3 5400   6.101   6.458   3.065 -0.8488 -1.8264  0.8165
   58CHL1    O3 5401   5.979   6.484   2.902 -0.5686 -0.5076 -0.2191
   58CHL1   H3' 5402   5.899   6.533   2.880  0.2514  1.6782  1.3746
   58CHL1    C4 5403   5.883   6.465   3.126 -0.2254  0.7949 -0.6275
   58CHL1   H4A 5404   5.798   6.534   3.105 -2.0385 -0.7602  1.1441
   58CHL1   H4B 5405   5.843   6.365   3.097 -0.4212  0.7126 -0.0890
   58CHL1    C5 5406   5.917   6.476   3.274  0.2613  0.7084 -0.5581
   58CHL1    C6 5407   5.903   6.375   3.360 -0.0788  0.1787 -0.3147
   58CHL1    H6 5408   5.869   6.278   3.322 -1.1829 -0.2164  1.5620
   58CHL1    C7 5409   5.931   6.377   3.511  0.0867 -0.0579  0.0331
   58CHL1   H7A 5410   5.839   6.346   3.565  1.2622  0.1185  2.2384
   58CHL1   H7B 5411   6.022   6.317   3.534 -0.4525 -0.4653  1.1595
   58CHL1    C8 5412   5.960   6.521   3.561  0.8632 -0.5088 -0.1626
   58CHL1    H8 5413   5.861   6.571   3.562  1.4175  0.7665 -2.4793
   58CHL1   C14 5414   6.034   6.520   3.694 -0.4821  0.3556 -0.0453
   58CHL1   H14 5415   6.136   6.480   3.676 -0.1916 -1.2825  4.1557
   58CHL1   C15 5416   5.981   6.436   3.805 -0.1695 -0.3215 -0.7142
   58CHL1  H15A 5417   5.872   6.455   3.816  0.2562  1.2762  1.3515
   58CHL1  H15B 5418   5.991   6.325   3.807  0.7090 -0.2507 -1.0560
   58CHL1   C16 5419   6.054   6.491   3.929 -0.0784 -0.6224  0.5336
   58CHL1  H16A 5420   5.985   6.497   4.015 -1.3049 -1.4578 -0.3504
   58CHL1  H16B 5421   6.142   6.430   3.961 -0.2590 -0.9117  0.4859
   58CHL1   C17 5422   6.121   6.628   3.887  0.1661 -0.6252 -0.2827
   58CHL1   H17 5423   6.228   6.602   3.872  0.7593  1.4779  0.0351
   58CHL1   C13 5424   6.057   6.660   3.749  0.5093  0.7298  0.0698
   58CHL1   C18 5425   5.910   6.723   3.765 -0.6019  0.5297 -0.3597
   58CHL1  H18A 5426   5.869   6.748   3.664 -2.0786  0.3322  0.1555
   58CHL1  H18B 5427   5.842   6.654   3.820 -1.1073  1.2288 -0.0960
   58CHL1  H18C 5428   5.908   6.815   3.827  0.8788 -0.4263  1.1727
   58CHL1   C12 5429   6.145   6.733   3.648  0.0492  0.0492 -0.5837
   58CHL1  H12A 5430   6.183   6.832   3.683 -2.1979  0.7247  0.1264
   58CHL1  H12B 5431   6.235   6.669   3.634  1.2386  1.7989 -1.2611
   58CHL1   C11 5432   6.095   6.738   3.504  0.2544 -0.0690 -0.2621
   58CHL1  H11A 5433   6.017   6.817   3.504 -1.5923 -1.7827 -0.0749
   58CHL1  H11B 5434   6.180   6.778   3.445  0.1535  1.7552  0.7578
   58CHL1    C9 5435   6.042   6.600   3.458  0.1536 -0.6279  0.2530
   58CHL1    H9 5436   6.129   6.534   3.437 -0.2693 -0.5811 -1.8732
   58CHL1   C10 5437   5.966   6.613   3.319  0.5331  0.7214  0.0932
   58CHL1   C19 5438   5.843   6.702   3.331  0.8310 -0.1703 -0.3977
   58CHL1  H19A 5439   5.859   6.811   3.347 -1.3246  0.3485 -1.4408
   58CHL1  H19B 5440   5.793   6.706   3.232  2.0640  0.2118 -1.0288
   58CHL1  H19C 5441   5.765   6.673   3.405  1.3826  0.1173  0.3125
   58CHL1    C1 5442   6.066   6.672   3.220  0.0721  0.2268  0.3999
   58CHL1   H1A 5443   6.096   6.777   3.242  3.8012 -0.4297 -0.7910
   58CHL1   H1B 5444   6.165   6.626   3.244  0.5120  1.8933  2.0190
   58CHL1    C2 5445   6.031   6.657   3.073 -0.1686 -0.6853 -0.5024
   58CHL1   H2A 5446   6.103   6.700   3.001 -0.6287  1.4869  0.2579
   58CHL1   H2B 5447   5.937   6.713   3.055 -0.5534 -1.1420  0.0468
   58CHL1   C20 5448   6.113   6.731   4.004  0.2577 -0.3032  0.2220
   58CHL1   H20 5449   6.005   6.737   4.030  0.4375  2.1438  0.5799
   58CHL1   C21 5450   6.173   6.864   3.960 -0.5552 -0.2815  0.1819
   58CHL1  H21A 5451   6.106   6.901   3.880 -0.0879  1.7240  0.6537
   58CHL1  H21B 5452   6.273   6.857   3.911 -0.8065 -2.5782 -0.1279
   58CHL1  H21C 5453   6.181   6.950   4.030  1.4328 -0.0587 -0.2490
   58CHL1   C22 5454   6.187   6.680   4.125 -0.0342  0.1767 -0.3355
   58CHL1  H22A 5455   6.153   6.736   4.214 -0.9351 -1.8537  0.6683
   58CHL1  H22B 5456   6.168   6.573   4.148 -3.2015  0.7054 -0.1054
   58CHL1   C23 5457   6.341   6.687   4.130  0.5422 -0.2101 -0.6052
   58CHL1  H23A 5458   6.385   6.665   4.030 -0.4314  0.7720 -1.2748
   58CHL1  H23B 5459   6.379   6.790   4.151 -2.7198  0.9751  0.0281
   58CHL1   C24 5460   6.398   6.605   4.249  0.1931 -0.2173 -0.1739
   58CHL1  H24A 5461   6.364   6.659   4.340  1.6117  0.1401  0.1690
   58CHL1  H24B 5462   6.362   6.501   4.243 -0.8608  0.1464 -0.3331
   58CHL1   C25 5463   6.555   6.605   4.265  0.6111  0.1678  0.4233
   58CHL1   H25 5464   6.584   6.601   4.158 -1.1862 -0.4054 -0.0915
   58CHL1   C26 5465   6.600   6.743   4.319 -0.9987  0.4891  0.1355
   58CHL1  H26A 5466   6.710   6.758   4.306 -0.4984 -3.2273 -1.1134
   58CHL1  H26B 5467   6.553   6.827   4.264 -2.7197 -0.7802 -0.4021
   58CHL1  H26C 5468   6.577   6.746   4.427  1.6668 -1.7651  0.8998
   58CHL1   C27 5469   6.608   6.487   4.340  0.2740 -0.2032 -0.7893
   58CHL1  H27A 5470   6.715   6.469   4.317 -0.1153 -1.0466 -2.0779
   58CHL1  H27B 5471   6.597   6.513   4.447 -0.3930 -1.1355 -0.6182
   58CHL1  H27C 5472   6.567   6.386   4.318 -1.4069  0.0547  0.8603
   59CHL1    C3 5473   2.143   4.000   2.890  1.3687 -1.1362  0.4495
   59CHL1    H3 5474   2.248   3.973   2.913  1.9920  0.6494 -0.1203
   59CHL1    O3 5475   2.103   3.992   2.752 -0.3592 -0.2411 -0.0051
   59CHL1   H3' 5476   2.026   4.049   2.761 -0.0600 -0.1144  2.4822
   59CHL1    C4 5477   2.055   3.905   2.973  0.5227  0.3134  0.0978
   59CHL1   H4A 5478   1.946   3.924   2.964  0.5768 -0.2029 -2.0693
   59CHL1   H4B 5479   2.073   3.801   2.940  2.5226  0.3363  0.9970
   59CHL1    C5 5480   2.096   3.914   3.119  0.1445 -0.9233  0.5005
   59CHL1    C6 5481   2.141   3.811   3.194 -0.4369 -0.1589  0.0766
   59CHL1    H6 5482   2.141   3.710   3.148 -2.9258 -0.2434  0.1043
   59CHL1    C7 5483   2.181   3.816   3.337 -0.0487  0.4981 -0.5469
   59CHL1   H7A 5484   2.147   3.729   3.396  0.3131  0.4946 -0.3468
   59CHL1   H7B 5485   2.292   3.822   3.340 -0.0962  1.1765  0.2281
   59CHL1    C8 5486   2.128   3.944   3.401  0.2787 -0.7333  0.8256
   59CHL1    H8 5487   2.018   3.931   3.397  0.3526 -1.0921 -1.9091
   59CHL1   C14 5488   2.184   3.966   3.540  0.5340  0.6999 -0.1625
   59CHL1   H14 5489   2.291   3.984   3.516  0.2568 -0.1195 -2.2280
   59CHL1   C15 5490   2.189   3.841   3.633 -0.5791 -0.2120 -1.1225
   59CHL1  H15A 5491   2.101   3.775   3.621  0.1747 -1.5030  0.0460
   59CHL1  H15B 5492   2.277   3.780   3.602  0.8379  1.5223 -0.7019
   59CHL1   C16 5493   2.206   3.903   3.777 -0.2108  0.1399  0.3410
   59CHL1  H16A 5494   2.117   3.860   3.828 -1.6635 -1.0250 -2.9098
   59CHL1  H16B 5495   2.300   3.870   3.826 -0.7078  0.7193  1.7546
   59CHL1   C17 5496   2.187   4.059   3.761 -0.8593 -0.4806 -0.1818
   59CHL1   H17 5497   2.291   4.097   3.751  0.3829 -3.7397 -0.7795
   59CHL1   C13 5498   2.123   4.079   3.622  0.5451 -0.3184 -0.0349
   59CHL1   C18 5499   1.972   4.069   3.634  0.5564  0.3187 -1.1320
   59CHL1  H18A 5500   1.910   4.060   3.542 -1.0607 -1.0152  0.0188
   59CHL1  H18B 5501   1.942   3.978   3.691  1.0804 -0.1514 -1.5912
   59CHL1  H18C 5502   1.930   4.156   3.687  0.1001  0.7146 -2.1187
   59CHL1   C12 5503   2.158   4.210   3.536  0.0863  0.0278  0.0502
   59CHL1  H12A 5504   2.131   4.303   3.592  1.3310 -0.6552  1.9121
   59CHL1  H12B 5505   2.265   4.209   3.506 -0.7305 -0.7389 -3.1724
   59CHL1   C11 5506   2.103   4.193   3.393 -0.2861  0.0256  0.1270
   59CHL1  H11A 5507   1.994   4.205   3.411 -0.1951  3.2486 -0.7973
   59CHL1  H11B 5508   2.121   4.281   3.328  1.6289 -0.1304  0.3740
   59CHL1    C9 5509   2.155   4.071   3.318  0.0916  0.3703  0.1942
   59CHL1    H9 5510   2.265   4.083   3.309  0.2226  1.6966  2.7079
   59CHL1   C10 5511   2.099   4.057   3.176  0.6671  0.1842 -0.0947
   59CHL1   C19 5512   1.945   4.103   3.190 -0.3309 -0.1726  0.5591
   59CHL1  H19A 5513   1.896   4.049   3.273 -2.4609 -0.6222 -0.8982
   59CHL1  H19B 5514   1.931   4.213   3.191 -3.3190 -0.4800  0.9713
   59CHL1  H19C 5515   1.887   4.081   3.098 -0.6674 -0.3451  0.8119
   59CHL1    C1 5516   2.170   4.159   3.080 -0.3056 -0.2659  0.2729
   59CHL1   H1A 5517   2.162   4.263   3.118 -0.6121 -0.6981  1.4274
   59CHL1   H1B 5518   2.278   4.130   3.084 -0.2929 -0.3416 -0.4802
   59CHL1    C2 5519   2.117   4.143   2.936 -0.4987 -0.8579 -0.8551
   59CHL1   H2A 5520   2.162   4.218   2.867 -0.8336  1.5397  1.3651
   59CHL1   H2B 5521   2.010   4.171   2.953  0.5465  1.8581  2.6489
   59CHL1   C20 5522   2.125   4.127   3.883  0.0992  0.2381  0.4464
   59CHL1   H20 5523   2.020   4.100   3.908  0.5138  1.5007  4.1845
   59CHL1   C21 5524   2.132   4.283   3.863  0.4934 -0.1041  0.4559
   59CHL1  H21A 5525   2.228   4.330   3.834 -0.0184  1.9388  1.7923
   59CHL1  H21B 5526   2.095   4.335   3.954  3.1862  0.3460  1.3810
   59CHL1  H21C 5527   2.052   4.317   3.793  0.6928 -0.9275 -0.1833
   59CHL1   C22 5528   2.201   4.092   4.014 -0.0656 -0.1195 -0.3615
   59CHL1  H22A 5529   2.207   3.981   4.014 -0.1164 -0.1228 -0.1702
   59CHL1  H22B 5530   2.303   4.138   4.009  0.0499 -0.4246 -0.9722
   59CHL1   C23 5531   2.121   4.146   4.144  0.1862 -0.1340 -0.3518
   59CHL1  H23A 5532   2.124   4.257   4.148 -0.6304 -0.0587 -1.5062
   59CHL1  H23B 5533   2.019   4.101   4.140  0.3384 -0.5524  0.2906
   59CHL1   C24 5534   2.181   4.105   4.274 -0.0725 -0.1773  0.2635
   59CHL1  H24A 5535   2.189   3.995   4.284  1.6551 -0.1585 -0.5401
   59CHL1  H24B 5536   2.285   4.144   4.285  0.4721 -1.9904  2.3925
   59CHL1   C25 5537   2.097   4.148   4.397  0.4852 -0.0265 -0.7484
   59CHL1   H25 5538   1.990   4.157   4.371  0.0499  0.9831  1.2530
   59CHL1   C26 5539   2.104   4.035   4.505 -0.0715 -0.1148 -0.4485
   59CHL1  H26A 5540   2.209   4.009   4.529 -0.1556 -0.7033 -0.6806
   59CHL1  H26B 5541   2.057   4.065   4.601  0.9292 -1.6614  0.5755
   59CHL1  H26C 5542   2.049   3.948   4.462 -0.3987  0.0812 -0.4364
   59CHL1   C27 5543   2.151   4.277   4.460  0.2818  0.5328  0.0969
   59CHL1  H27A 5544   2.084   4.312   4.542 -1.8327  0.0559 -1.3600
   59CHL1  H27B 5545   2.254   4.264   4.501  0.4701  1.7748  0.0453
   59CHL1  H27C 5546   2.149   4.361   4.389  1.5257  0.9056  0.4821
   60CHL1    C3 5547   5.938   3.629   2.856  0.1788  0.1793 -0.1410
   60CHL1    H3 5548   5.929   3.518   2.850 -0.7089 -0.2175  4.6802
   60CHL1    O3 5549   5.949   3.689   2.725  0.1287 -0.1929 -0.1622
   60CHL1   H3' 5550   5.929   3.783   2.734 -0.3002 -0.1602 -1.3160
   60CHL1    C4 5551   5.809   3.678   2.931  0.5076 -0.2118  0.2311
   60CHL1   H4A 5552   5.800   3.789   2.929 -0.4501 -0.2866 -0.6858
   60CHL1   H4B 5553   5.725   3.648   2.865  0.4125  1.3380 -0.4129
   60CHL1    C5 5554   5.794   3.617   3.071  0.1145  0.2486  0.2517
   60CHL1    C6 5555   5.686   3.553   3.112 -0.3084  0.0849 -1.0270
   60CHL1    H6 5556   5.603   3.537   3.042  0.3974 -0.8215 -1.6695
   60CHL1    C7 5557   5.666   3.504   3.254  0.0954 -0.0157 -0.0018
   60CHL1   H7A 5558   5.557   3.516   3.274  0.3387 -1.5055  2.6022
   60CHL1   H7B 5559   5.679   3.394   3.264 -1.2093 -0.1756  0.0718
   60CHL1    C8 5560   5.766   3.569   3.362  0.1193 -0.2662 -0.4029
   60CHL1    H8 5561   5.741   3.675   3.380 -0.9793 -0.1411 -2.3666
   60CHL1   C14 5562   5.758   3.487   3.493 -0.6556  1.2045  1.1459
   60CHL1   H14 5563   5.780   3.381   3.469 -0.7322  1.6540 -1.1798
   60CHL1   C15 5564   5.625   3.476   3.572 -0.5905  0.4825  0.2276
   60CHL1  H15A 5565   5.583   3.578   3.576  1.2160  1.2510  0.4223
   60CHL1  H15B 5566   5.551   3.403   3.533 -2.3175  0.7980  2.7101
   60CHL1   C16 5567   5.671   3.428   3.713  0.8037 -0.7277 -0.3837
   60CHL1  H16A 5568   5.635   3.488   3.799  1.3363 -0.0860 -0.5981
   60CHL1  H16B 5569   5.641   3.322   3.729 -1.5429  0.0421  0.7444
   60CHL1   C17 5570   5.830   3.434   3.718  0.7239  0.3342  0.3390
   60CHL1   H17 5571   5.854   3.331   3.681 -0.6690  0.7746 -2.0574
   60CHL1   C13 5572   5.861   3.527   3.598  0.3693  0.1038 -0.8583
   60CHL1   C18 5573   5.841   3.669   3.654 -0.5274 -0.3923 -0.0967
   60CHL1  H18A 5574   5.927   3.692   3.720  0.1467 -1.5543 -0.5253
   60CHL1  H18B 5575   5.843   3.742   3.570 -0.1327  1.6243  1.5752
   60CHL1  H18C 5576   5.750   3.672   3.717 -0.6020 -0.9683 -0.1696
   60CHL1   C12 5577   5.998   3.506   3.532  0.3951 -0.0224  0.6792
   60CHL1  H12A 5578   6.078   3.528   3.605 -0.7295  3.9717  0.9156
   60CHL1  H12B 5579   5.994   3.403   3.490  0.4266  0.2958 -0.1238
   60CHL1   C11 5580   6.021   3.588   3.404 -1.0418 -0.1600  0.3578
   60CHL1  H11A 5581   6.020   3.696   3.431  0.1458  0.0719 -0.4434
   60CHL1  H11B 5582   6.125   3.566   3.370 -0.4434 -0.4498  2.2867
   60CHL1    C9 5583   5.908   3.566   3.299 -0.1999 -0.1958 -0.3753
   60CHL1    H9 5584   5.928   3.461   3.268  2.0772  0.2165 -0.4975
   60CHL1   C10 5585   5.917   3.650   3.162 -0.9311 -0.3787  0.5229
   60CHL1   C19 5586   5.925   3.792   3.193  0.5345 -0.1246 -0.0238
   60CHL1  H19A 5587   6.027   3.830   3.215  0.6786 -0.6356  0.2078
   60CHL1  H19B 5588   5.897   3.861   3.111  0.0188 -0.1488  0.1254
   60CHL1  H19C 5589   5.846   3.813   3.269 -0.8076 -2.0234 -0.8291
   60CHL1    C1 5590   6.041   3.599   3.091  1.1457  0.3682 -0.4642
   60CHL1   H1A 5591   6.133   3.633   3.142  0.6293  1.4552 -0.2149
   60CHL1   H1B 5592   6.048   3.489   3.078  2.5029 -0.0236  2.7157
   60CHL1    C2 5593   6.053   3.663   2.953 -0.0034  0.3233  0.6558
   60CHL1   H2A 5594   6.143   3.636   2.894  0.1426  0.1889  0.9391
   60CHL1   H2B 5595   6.063   3.774   2.952 -2.3393  0.5861 -0.3042
   60CHL1   C20 5596   5.884   3.464   3.860 -0.7189 -0.5993  0.1147
   60CHL1   H20 5597   5.854   3.567   3.889 -1.4082 -1.1344  1.3794
   60CHL1   C21 5598   6.040   3.451   3.870  0.5339  0.6948 -0.1822
   60CHL1  H21A 5599   6.080   3.549   3.838 -1.9251  1.7780 -0.1777
   60CHL1  H21B 5600   6.085   3.357   3.830 -1.6889 -1.5114  2.1141
   60CHL1  H21C 5601   6.057   3.445   3.979 -1.0978  0.7995  0.1105
   60CHL1   C22 5602   5.824   3.386   3.972  0.0102  0.2562 -0.6216
   60CHL1  H22A 5603   5.713   3.386   3.962 -0.2461  2.0536  1.5195
   60CHL1  H22B 5604   5.866   3.283   3.978  0.1177  0.3719  1.2000
   60CHL1   C23 5605   5.836   3.450   4.112  0.0146 -0.2388 -0.0460
   60CHL1  H23A 5606   5.942   3.452   4.148 -0.4443  0.7058  1.3608
   60CHL1  H23B 5607   5.798   3.554   4.103  0.9624  0.0218 -1.4156
   60CHL1   C24 5608   5.744   3.383   4.212  0.2325  0.5900 -0.3742
   60CHL1  H24A 5609   5.648   3.382   4.156 -0.0947 -0.7295  0.1592
   60CHL1  H24B 5610   5.770   3.275   4.222 -0.8264  0.3600 -0.0207
   60CHL1   C25 5611   5.739   3.444   4.359  0.4433 -0.3458 -0.3603
   60CHL1   H25 5612   5.673   3.374   4.414  0.4685 -1.0900 -1.2497
   60CHL1   C26 5613   5.875   3.436   4.423  0.7993 -0.1051 -0.7665
   60CHL1  H26A 5614   5.936   3.510   4.367 -0.5940  0.6737 -1.3052
   60CHL1  H26B 5615   5.869   3.471   4.528 -2.5351 -1.9827 -0.1741
   60CHL1  H26C 5616   5.918   3.334   4.433  1.3263  0.3071  2.4202
   60CHL1   C27 5617   5.689   3.589   4.361 -0.0747  0.6394  0.3029
   60CHL1  H27A 5618   5.658   3.616   4.464  0.2583  2.1566  0.0294
   60CHL1  H27B 5619   5.771   3.658   4.332  1.3197  0.5407  3.6212
   60CHL1  H27C 5620   5.596   3.596   4.300  0.1764  0.8203 -0.0672
   61CHL1    C3 5621   6.312   1.339   3.120 -0.1248 -0.1445 -0.1531
   61CHL1    H3 5622   6.419   1.353   3.147 -0.4726 -0.6289  1.6498
   61CHL1    O3 5623   6.288   1.368   2.986  0.1192 -0.3767 -0.1365
   61CHL1   H3' 5624   6.341   1.448   2.973 -0.3253  0.4162  2.4260
   61CHL1    C4 5625   6.278   1.202   3.161 -0.2025 -0.2430  0.1168
   61CHL1   H4A 5626   6.173   1.177   3.134 -1.1000  3.0915  0.0495
   61CHL1   H4B 5627   6.337   1.143   3.088 -0.4417  0.1398 -0.3976
   61CHL1    C5 5628   6.304   1.158   3.305  0.1313  0.0022 -0.3666
   61CHL1    C6 5629   6.382   1.052   3.337  0.5603 -0.6076  0.1140
   61CHL1    H6 5630   6.420   0.997   3.250  1.1122  2.4667 -1.7434
   61CHL1    C7 5631   6.421   1.017   3.482  0.5048  0.3458 -0.0366
   61CHL1   H7A 5632   6.409   0.907   3.497  3.0081 -0.4546 -2.8899
   61CHL1   H7B 5633   6.530   1.033   3.497  0.7786 -0.2233 -1.2935
   61CHL1    C8 5634   6.351   1.108   3.584  0.3525 -0.0828 -0.7133
   61CHL1    H8 5635   6.254   1.062   3.614  0.6437 -0.7087 -0.7234
   61CHL1   C14 5636   6.440   1.116   3.712  0.3395 -0.0478  0.7274
   61CHL1   H14 5637   6.538   1.154   3.676  0.2998 -0.7099 -0.1435
   61CHL1   C15 5638   6.491   0.974   3.767 -0.4276 -1.1602 -0.5157
   61CHL1  H15A 5639   6.407   0.902   3.773 -1.5963  0.2800  1.3727
   61CHL1  H15B 5640   6.573   0.937   3.701  1.0461  1.0049 -0.0068
   61CHL1   C16 5641   6.538   1.012   3.910 -0.2175  0.2644  0.2959
   61CHL1  H16A 5642   6.482   0.945   3.979 -2.3098 -1.1315 -2.5391
   61CHL1  H16B 5643   6.647   0.993   3.915 -0.3785 -0.3750  1.8902
   61CHL1   C17 5644   6.510   1.163   3.931  0.8804 -0.1508  0.5438
   61CHL1   H17 5645   6.602   1.213   3.897  0.7247 -0.2490 -0.0331
   61CHL1   C13 5646   6.398   1.194   3.833  0.1513  0.6562 -0.4804
   61CHL1   C18 5647   6.273   1.127   3.886  0.9579  0.3150  0.1154
   61CHL1  H18A 5648   6.191   1.120   3.810  0.4717  0.4416  0.6258
   61CHL1  H18B 5649   6.282   1.020   3.915  0.3415  0.3221  0.3342
   61CHL1  H18C 5650   6.216   1.178   3.966 -0.3394  0.0211 -0.5906
   61CHL1   C12 5651   6.372   1.336   3.793 -0.4013 -0.0058  0.0742
   61CHL1  H12A 5652   6.306   1.386   3.868  1.5329  1.7506  0.6847
   61CHL1  H12B 5653   6.470   1.385   3.781 -0.5416  0.2886  0.1138
   61CHL1   C11 5654   6.282   1.341   3.654 -0.5400  0.0888  0.0713
   61CHL1  H11A 5655   6.176   1.315   3.676 -1.4447  2.0454 -1.6543
   61CHL1  H11B 5656   6.289   1.449   3.629  0.0209 -0.1452 -0.8776
   61CHL1    C9 5657   6.330   1.248   3.538  0.4289 -0.9138  0.4149
   61CHL1    H9 5658   6.432   1.284   3.512 -0.4068  1.2862 -0.0941
   61CHL1   C10 5659   6.250   1.264   3.404  0.1356  0.8917 -0.3389
   61CHL1   C19 5660   6.100   1.225   3.419 -0.3877 -0.4185 -0.1030
   61CHL1  H19A 5661   6.034   1.286   3.485 -0.2915  0.4332 -0.7767
   61CHL1  H19B 5662   6.044   1.235   3.324 -2.1188  0.9633  0.9862
   61CHL1  H19C 5663   6.090   1.121   3.458  0.4226 -0.3931  0.1866
   61CHL1    C1 5664   6.265   1.407   3.349  0.0145  0.6822  0.3664
   61CHL1   H1A 5665   6.212   1.475   3.419  1.3466  3.2918 -0.9955
   61CHL1   H1B 5666   6.369   1.444   3.357 -0.2221  1.8422 -1.2847
   61CHL1    C2 5667   6.221   1.429   3.204 -0.5562 -0.1622  0.1405
   61CHL1   H2A 5668   6.242   1.536   3.182  0.3744  0.2470  2.6993
   61CHL1   H2B 5669   6.112   1.414   3.184 -1.0232  4.0513 -1.6625
   61CHL1   C20 5670   6.488   1.203   4.081 -0.5799  0.1520 -0.3016
   61CHL1   H20 5671   6.402   1.153   4.131  0.3419 -2.2234 -0.9691
   61CHL1   C21 5672   6.462   1.358   4.093 -0.0804 -0.3948  0.5967
   61CHL1  H21A 5673   6.521   1.416   4.019 -0.0560 -0.7181  0.3587
   61CHL1  H21B 5674   6.472   1.407   4.192  3.8018  1.3094 -0.4325
   61CHL1  H21C 5675   6.355   1.374   4.067  0.2200  1.5942  0.4813
   61CHL1   C22 5676   6.614   1.159   4.161 -0.0564  0.2833  0.3176
   61CHL1  H22A 5677   6.639   1.051   4.164 -2.9253 -0.4455  0.8212
   61CHL1  H22B 5678   6.702   1.215   4.122 -0.5353  1.3188  0.6936
   61CHL1   C23 5679   6.622   1.203   4.312  0.1689  0.4798 -0.1376
   61CHL1  H23A 5680   6.602   1.312   4.327  1.2847  0.6064  0.5504
   61CHL1  H23B 5681   6.548   1.152   4.378 -0.2807  1.0523 -0.1916
   61CHL1   C24 5682   6.755   1.168   4.379  0.0339 -0.2728  0.1256
   61CHL1  H24A 5683   6.755   1.060   4.404  0.9032 -0.1270  0.7970
   61CHL1  H24B 5684   6.837   1.183   4.306  0.9308  0.6976  1.2710
   61CHL1   C25 5685   6.773   1.261   4.500 -0.2045  0.1216 -0.1449
   61CHL1   H25 5686   6.778   1.363   4.456  0.3487 -0.2378 -0.9502
   61CHL1   C26 5687   6.655   1.262   4.598 -0.1834  0.5139  0.0317
   61CHL1  H26A 5688   6.679   1.310   4.696 -1.5519 -0.4478  0.8679
   61CHL1  H26B 5689   6.561   1.291   4.546 -1.5785 -0.3227  1.9634
   61CHL1  H26C 5690   6.646   1.156   4.628  0.5171  0.0425 -1.3466
   61CHL1   C27 5691   6.904   1.237   4.570  0.1765  0.4218 -0.3435
   61CHL1  H27A 5692   6.987   1.240   4.497  1.2412 -0.0729  0.8097
   61CHL1  H27B 5693   6.917   1.324   4.638 -0.0847 -0.6105  1.0748
   61CHL1  H27C 5694   6.908   1.143   4.629 -0.2482  1.0888  0.7881
   62CHL1    C3 5695   3.395   5.540   2.777 -0.5677  0.1445  0.2484
   62CHL1    H3 5696   3.290   5.563   2.806 -1.3460  0.2058 -2.3662
   62CHL1    O3 5697   3.388   5.522   2.639 -0.2274 -0.2048  0.8586
   62CHL1   H3' 5698   3.351   5.435   2.628  2.1094 -1.0530 -1.4420
   62CHL1    C4 5699   3.488   5.661   2.806 -0.3370  0.3442  0.9575
   62CHL1   H4A 5700   3.584   5.623   2.765 -0.7363  0.6444 -0.3001
   62CHL1   H4B 5701   3.454   5.748   2.746  1.3923  0.6348  0.3426
   62CHL1    C5 5702   3.506   5.685   2.956 -0.2818  0.3708  0.4385
   62CHL1    C6 5703   3.466   5.797   3.005  0.1500  0.2983  0.3542
   62CHL1    H6 5704   3.405   5.863   2.940  1.4983  0.1970 -1.0681
   62CHL1    C7 5705   3.487   5.831   3.151  0.2239  0.1670 -0.2349
   62CHL1   H7A 5706   3.532   5.932   3.162 -1.0396  0.6189  1.1221
   62CHL1   H7B 5707   3.392   5.834   3.209  0.8100  0.2085  0.7343
   62CHL1    C8 5708   3.576   5.732   3.233 -0.1081 -0.2746  0.2228
   62CHL1    H8 5709   3.681   5.757   3.208 -0.0209 -1.1859 -0.3597
   62CHL1   C14 5710   3.557   5.747   3.383  0.7466  0.3145 -0.8749
   62CHL1   H14 5711   3.455   5.709   3.404  0.6534 -0.7011 -2.8997
   62CHL1   C15 5712   3.573   5.889   3.442 -0.3145 -0.3215 -0.2890
   62CHL1  H15A 5713   3.670   5.933   3.412 -1.4857  2.1192 -0.7255
   62CHL1  H15B 5714   3.486   5.953   3.415 -1.3258 -1.0589  1.1085
   62CHL1   C16 5715   3.580   5.865   3.590 -0.4859  0.5219 -0.4327
   62CHL1  H16A 5716   3.660   5.933   3.627 -0.7689  1.0657 -0.7974
   62CHL1  H16B 5717   3.484   5.871   3.646  0.0178  0.0232  0.5036
   62CHL1   C17 5718   3.613   5.713   3.608  0.5745  0.2620  0.0759
   62CHL1   H17 5719   3.532   5.647   3.644 -0.0943  1.8152  1.5563
   62CHL1   C13 5720   3.645   5.655   3.471 -0.4682  0.2518 -0.1890
   62CHL1   C18 5721   3.801   5.675   3.438 -0.4636 -0.0266 -0.4426
   62CHL1  H18A 5722   3.863   5.627   3.518 -0.3793 -0.5492 -0.8159
   62CHL1  H18B 5723   3.827   5.634   3.338 -0.7903 -0.1176 -0.4934
   62CHL1  H18C 5724   3.828   5.782   3.434 -0.3738  0.1478  2.5573
   62CHL1   C12 5725   3.599   5.509   3.438  0.4392 -0.1628  0.6917
   62CHL1  H12A 5726   3.654   5.436   3.501 -0.6359 -1.2550  0.4020
   62CHL1  H12B 5727   3.493   5.511   3.471 -0.0380  1.3390 -0.7956
   62CHL1   C11 5728   3.610   5.481   3.280 -0.6355  0.0276 -0.3627
   62CHL1  H11A 5729   3.715   5.458   3.252 -0.9348 -0.6281 -0.9578
   62CHL1  H11B 5730   3.558   5.385   3.260  1.6629 -0.9919 -1.9181
   62CHL1    C9 5731   3.557   5.594   3.188  0.4640  0.8403  0.0507
   62CHL1    H9 5732   3.448   5.582   3.203  0.4858 -1.7842 -1.3099
   62CHL1   C10 5733   3.571   5.570   3.034  0.6107 -0.3524 -0.6686
   62CHL1   C19 5734   3.725   5.569   3.003  0.7004  0.3199 -0.4750
   62CHL1  H19A 5735   3.758   5.589   2.899  1.2251 -1.1110 -0.6092
   62CHL1  H19B 5736   3.782   5.629   3.077 -0.0033  1.6950 -0.9998
   62CHL1  H19C 5737   3.757   5.463   3.013 -1.7404 -0.4376  0.1499
   62CHL1    C1 5738   3.502   5.437   2.996  0.1123 -0.5602 -0.1019
   62CHL1   H1A 5739   3.551   5.350   3.044 -1.1744 -1.4680 -0.4087
   62CHL1   H1B 5740   3.406   5.436   3.051  0.5346 -0.5366  0.6466
   62CHL1    C2 5741   3.451   5.412   2.849  0.5269 -0.1109 -0.6203
   62CHL1   H2A 5742   3.373   5.333   2.849  0.5975 -0.2045  0.5623
   62CHL1   H2B 5743   3.536   5.383   2.783 -0.5730 -0.7435 -1.7871
   62CHL1   C20 5744   3.720   5.699   3.723 -0.2303 -0.1755  0.5022
   62CHL1   H20 5745   3.814   5.748   3.690 -0.6944 -0.3868 -1.2220
   62CHL1   C21 5746   3.745   5.553   3.753 -0.6861  0.5839  0.4473
   62CHL1  H21A 5747   3.766   5.488   3.666 -2.2893 -1.1733  1.3140
   62CHL1  H21B 5748   3.651   5.518   3.801 -0.2029  0.9007  1.6806
   62CHL1  H21C 5749   3.825   5.528   3.825 -0.9755 -1.4154  0.1259
   62CHL1   C22 5750   3.685   5.774   3.858  0.3305  1.0123  0.5091
   62CHL1  H22A 5751   3.644   5.874   3.832  0.3729  1.0328  0.5222
   62CHL1  H22B 5752   3.610   5.713   3.913  0.9583  1.4992  1.9619
   62CHL1   C23 5753   3.815   5.795   3.944 -0.1045 -0.1283  0.2161
   62CHL1  H23A 5754   3.848   5.691   3.967 -0.3324 -0.4375 -0.7618
   62CHL1  H23B 5755   3.887   5.851   3.880 -0.6431  1.2498  0.7799
   62CHL1   C24 5756   3.795   5.863   4.082  0.1653 -0.3303 -0.1273
   62CHL1  H24A 5757   3.697   5.916   4.073 -0.1990 -1.3029 -2.5947
   62CHL1  H24B 5758   3.777   5.787   4.160 -1.1985 -0.7415 -0.8027
   62CHL1   C25 5759   3.888   5.976   4.117  0.0610  0.2628  0.2914
   62CHL1   H25 5760   3.887   6.049   4.034  0.5075 -0.3641 -0.2821
   62CHL1   C26 5761   3.850   6.050   4.244  0.5579  0.1628  0.0983
   62CHL1  H26A 5762   3.920   6.134   4.263  1.4720 -0.8216  1.1637
   62CHL1  H26B 5763   3.752   6.093   4.211  0.9477  0.4008 -0.7748
   62CHL1  H26C 5764   3.856   5.979   4.329  0.2420  0.0902  0.0629
   62CHL1   C27 5765   4.033   5.928   4.143 -0.2120  0.0392  0.1007
   62CHL1  H27A 5766   4.091   6.018   4.174 -0.9475  0.3824  0.5402
   62CHL1  H27B 5767   4.031   5.851   4.223  2.9975 -0.2654  0.0063
   62CHL1  H27C 5768   4.080   5.869   4.063 -2.3123 -0.6763 -0.6792
   63CHL1    C3 5769   5.182   3.600   2.704 -0.2523 -0.0643 -0.3681
   63CHL1    H3 5770   5.072   3.607   2.709 -0.3961 -2.2335  0.2061
   63CHL1    O3 5771   5.246   3.622   2.576  0.2580  0.3478  0.1008
   63CHL1   H3' 5772   5.327   3.668   2.599 -0.6638  0.9136  2.5986
   63CHL1    C4 5773   5.220   3.722   2.790  0.5546  0.0045 -0.4259
   63CHL1   H4A 5774   5.331   3.727   2.795  0.5247 -0.2579  0.8422
   63CHL1   H4B 5775   5.174   3.812   2.745 -1.6837 -1.4904 -1.2805
   63CHL1    C5 5776   5.168   3.713   2.937 -0.4126  0.0714  0.4643
   63CHL1    C6 5777   5.105   3.811   2.996  0.2166 -0.0532 -0.2548
   63CHL1    H6 5778   5.085   3.909   2.950 -1.3491 -0.2694 -0.1059
   63CHL1    C7 5779   5.057   3.809   3.133 -0.6123 -0.3041 -0.1433
   63CHL1   H7A 5780   5.078   3.906   3.184  1.1061 -0.8825  0.3098
   63CHL1   H7B 5781   4.948   3.790   3.121 -0.7098  0.1256  0.0393
   63CHL1    C8 5782   5.115   3.688   3.213 -0.2449  0.5001  0.4834
   63CHL1    H8 5783   5.219   3.716   3.238  0.7848 -1.1199 -1.6623
   63CHL1   C14 5784   5.034   3.659   3.333  0.3430  0.5876  0.2361
   63CHL1   H14 5785   4.929   3.649   3.300  0.0107 -1.0662  1.6461
   63CHL1   C15 5786   5.019   3.773   3.437 -0.5230  0.0535 -0.5452
   63CHL1  H15A 5787   5.121   3.808   3.466 -0.6288  0.0263 -0.1358
   63CHL1  H15B 5788   4.964   3.863   3.402 -0.8224  0.9982  2.1481
   63CHL1   C16 5789   4.955   3.706   3.556  0.4257  0.4391  0.2045
   63CHL1  H16A 5790   5.028   3.730   3.635  1.2062  0.3348 -0.4726
   63CHL1  H16B 5791   4.851   3.739   3.578 -0.7640 -0.0183 -3.8180
   63CHL1   C17 5792   4.946   3.551   3.522  1.1638  0.1561 -0.2596
   63CHL1   H17 5793   4.849   3.539   3.468  1.5830  1.2729 -1.3153
   63CHL1   C13 5794   5.060   3.531   3.415 -0.4830  0.5472 -0.2162
   63CHL1   C18 5795   5.195   3.534   3.486  0.0135  1.0111  0.0837
   63CHL1  H18A 5796   5.274   3.564   3.414  0.9992 -1.3367  0.0797
   63CHL1  H18B 5797   5.192   3.605   3.572 -1.4051  1.5045 -0.3576
   63CHL1  H18C 5798   5.230   3.434   3.521 -3.2963 -0.1373  0.4469
   63CHL1   C12 5799   5.048   3.409   3.325  0.2323  0.7975  0.2535
   63CHL1  H12A 5800   5.085   3.318   3.377 -0.3173 -0.4689 -1.4831
   63CHL1  H12B 5801   4.948   3.382   3.287  0.3849 -0.3870  0.6324
   63CHL1   C11 5802   5.131   3.429   3.199 -0.0934  0.4880  0.6300
   63CHL1  H11A 5803   5.230   3.438   3.249  0.4809 -0.5563 -0.2669
   63CHL1  H11B 5804   5.115   3.342   3.132 -2.3712  0.9118  0.5362
   63CHL1    C9 5805   5.107   3.563   3.126  0.5076  0.0365 -0.0073
   63CHL1    H9 5806   5.000   3.556   3.097  0.2729 -0.2547  0.9077
   63CHL1   C10 5807   5.194   3.577   3.008  0.7122 -0.8595 -0.4073
   63CHL1   C19 5808   5.343   3.555   3.040 -0.1603  0.4112 -0.0579
   63CHL1  H19A 5809   5.404   3.554   2.948 -0.7568 -4.6340 -0.6405
   63CHL1  H19B 5810   5.372   3.626   3.121 -2.1420  1.0390  0.1648
   63CHL1  H19C 5811   5.362   3.450   3.072  0.6123  0.5556 -0.0293
   63CHL1    C1 5812   5.170   3.459   2.909  0.5039 -0.1935  0.7863
   63CHL1   H1A 5813   5.208   3.360   2.942 -0.6753 -1.2785 -0.9582
   63CHL1   H1B 5814   5.061   3.454   2.889  0.6021  0.6143 -0.0501
   63CHL1    C2 5815   5.234   3.474   2.777  0.1497  0.0947 -0.1337
   63CHL1   H2A 5816   5.203   3.395   2.705 -1.5781  2.2231 -1.8894
   63CHL1   H2B 5817   5.343   3.465   2.792 -0.1221 -4.0667  0.4824
   63CHL1   C20 5818   4.951   3.459   3.645  0.1886  0.1351 -0.2334
   63CHL1   H20 5819   5.046   3.463   3.702  0.8090 -0.2827 -1.2019
   63CHL1   C21 5820   4.909   3.312   3.614 -0.4272  0.1339  0.2801
   63CHL1  H21A 5821   4.832   3.302   3.535  0.7325 -4.3716 -0.5639
   63CHL1  H21B 5822   4.870   3.271   3.710 -0.9313  1.2533  0.5792
   63CHL1  H21C 5823   4.996   3.250   3.586  1.1022  1.8013  1.1084
   63CHL1   C22 5824   4.849   3.509   3.748 -0.5202 -0.2076  0.0821
   63CHL1  H22A 5825   4.841   3.620   3.748  2.4338  0.0948 -1.1022
   63CHL1  H22B 5826   4.751   3.472   3.711 -0.8636  1.9625 -1.3921
   63CHL1   C23 5827   4.885   3.487   3.895 -0.5515 -0.5097  0.3500
   63CHL1  H23A 5828   4.903   3.379   3.918  0.1584 -0.1041  1.8031
   63CHL1  H23B 5829   4.974   3.550   3.912 -2.3101  2.6510 -1.3128
   63CHL1   C24 5830   4.774   3.539   3.987  0.1353 -0.2112 -0.2962
   63CHL1  H24A 5831   4.760   3.642   3.949 -0.2841 -0.6400 -1.3408
   63CHL1  H24B 5832   4.679   3.483   3.973  0.1333 -1.3109  3.0766
   63CHL1   C25 5833   4.817   3.554   4.135  0.9303 -0.2923  0.4141
   63CHL1   H25 5834   4.915   3.605   4.136 -0.2602  2.5182 -3.4042
   63CHL1   C26 5835   4.710   3.651   4.208  0.5411 -1.2493 -1.0420
   63CHL1  H26A 5836   4.708   3.755   4.169  0.2439 -0.3565  1.2035
   63CHL1  H26B 5837   4.605   3.616   4.193  0.9606 -2.7332 -0.7279
   63CHL1  H26C 5838   4.749   3.653   4.312  0.4174 -1.1085 -0.9983
   63CHL1   C27 5839   4.804   3.417   4.198  0.0493  0.2401  0.0714
   63CHL1  H27A 5840   4.854   3.328   4.156 -1.5612 -0.9810  0.6189
   63CHL1  H27B 5841   4.841   3.433   4.302  0.3743  2.3587 -0.3259
   63CHL1  H27C 5842   4.698   3.385   4.201 -0.1445  0.8310 -0.2480
   64CHL1    C3 5843   4.964   1.318   3.304  0.3728  0.0364 -0.5711
   64CHL1    H3 5844   5.006   1.418   3.278  1.8313 -0.7969 -1.5822
   64CHL1    O3 5845   4.981   1.236   3.186 -1.0137  0.9731 -0.1641
   64CHL1   H3' 5846   4.931   1.156   3.199  0.2558  0.0803 -0.5432
   64CHL1    C4 5847   5.040   1.245   3.420  0.2630 -0.2969  0.0909
   64CHL1   H4A 5848   4.993   1.145   3.427 -0.0517 -0.1814 -0.3018
   64CHL1   H4B 5849   5.140   1.217   3.379 -0.8013 -0.6957 -2.4226
   64CHL1    C5 5850   5.020   1.316   3.552  0.3820  0.2901  0.5169
   64CHL1    C6 5851   5.120   1.361   3.629 -0.0128  0.7237  0.0735
   64CHL1    H6 5852   5.226   1.341   3.607  0.9646  0.6573  4.0199
   64CHL1    C7 5853   5.090   1.420   3.765 -0.0702 -0.4079 -0.0722
   64CHL1   H7A 5854   5.139   1.359   3.844 -0.8035 -1.5827 -0.5104
   64CHL1   H7B 5855   5.119   1.526   3.781 -0.8223  0.1180 -1.9139
   64CHL1    C8 5856   4.945   1.418   3.819 -0.0271  0.2700  0.1321
   64CHL1    H8 5857   4.937   1.316   3.860  2.5217  0.3187  0.9212
   64CHL1   C14 5858   4.922   1.521   3.930  0.3652 -0.0086  0.4479
   64CHL1   H14 5859   4.920   1.617   3.874 -1.3596 -1.4756 -2.2510
   64CHL1   C15 5860   5.026   1.536   4.039 -0.1303 -0.1972 -0.0956
   64CHL1  H15A 5861   5.044   1.443   4.097  0.9893  0.0296 -0.0731
   64CHL1  H15B 5862   5.122   1.578   4.003  0.3480 -0.0233  1.3126
   64CHL1   C16 5863   4.958   1.621   4.148  0.1905  0.2220  0.4782
   64CHL1  H16A 5864   4.985   1.574   4.245 -1.2446 -0.2107  0.6855
   64CHL1  H16B 5865   4.983   1.729   4.150 -1.3561  0.6007  2.3376
   64CHL1   C17 5866   4.798   1.610   4.114 -0.6244 -0.1529 -1.3900
   64CHL1   H17 5867   4.792   1.711   4.067 -0.2803  1.5714  1.9404
   64CHL1   C13 5868   4.782   1.510   3.997  0.3174 -0.0945  0.1821
   64CHL1   C18 5869   4.761   1.377   4.069 -0.4814  0.4392 -0.5424
   64CHL1  H18A 5870   4.772   1.297   3.993  1.2420  0.9299 -0.8583
   64CHL1  H18B 5871   4.841   1.368   4.146 -0.6978  1.2163 -0.2144
   64CHL1  H18C 5872   4.666   1.354   4.121  0.4472 -0.9219  0.6436
   64CHL1   C12 5873   4.668   1.534   3.894 -0.0050  0.1713  0.8408
   64CHL1  H12A 5874   4.568   1.513   3.937 -0.3252 -0.9294 -0.3702
   64CHL1  H12B 5875   4.667   1.640   3.860  1.0077  0.0541  0.4322
   64CHL1   C11 5876   4.692   1.445   3.768 -0.0338  0.1722 -0.3080
   64CHL1  H11A 5877   4.674   1.340   3.798 -0.0436 -0.0323 -1.0107
   64CHL1  H11B 5878   4.623   1.466   3.684 -0.2792  4.0818  0.6648
   64CHL1    C9 5879   4.842   1.443   3.709  0.0767 -0.1095 -0.2025
   64CHL1    H9 5880   4.856   1.545   3.667  2.5968 -0.5122 -0.4731
   64CHL1   C10 5881   4.869   1.342   3.581  0.1324 -0.2223 -0.2212
   64CHL1   C19 5882   4.807   1.211   3.613 -0.1983  0.6729  0.2739
   64CHL1  H19A 5883   4.839   1.178   3.715 -1.5270  2.3979  1.3166
   64CHL1  H19B 5884   4.696   1.214   3.619 -0.3742 -2.4726  0.3577
   64CHL1  H19C 5885   4.830   1.132   3.539 -1.7276  2.0959 -1.8430
   64CHL1    C1 5886   4.796   1.406   3.460  0.5661 -0.1139  0.2466
   64CHL1   H1A 5887   4.694   1.422   3.501  1.1297  2.8788  0.7058
   64CHL1   H1B 5888   4.846   1.506   3.457 -0.0229  0.1554 -1.3453
   64CHL1    C2 5889   4.811   1.337   3.329 -0.4640  0.3948 -0.3408
   64CHL1   H2A 5890   4.758   1.389   3.246 -1.6090 -1.7779 -1.0531
   64CHL1   H2B 5891   4.746   1.247   3.336 -1.1389  0.6851 -2.2410
   64CHL1   C20 5892   4.711   1.607   4.240 -0.2087  0.0042  0.4568
   64CHL1   H20 5893   4.720   1.510   4.293 -0.5594  0.0973  0.6896
   64CHL1   C21 5894   4.560   1.628   4.208 -0.0634  0.0595  0.5051
   64CHL1  H21A 5895   4.530   1.537   4.152  0.9952 -1.5070  2.3602
   64CHL1  H21B 5896   4.546   1.717   4.144  0.0869 -0.0300  0.3465
   64CHL1  H21C 5897   4.498   1.642   4.299  0.2874 -1.7192  1.0578
   64CHL1   C22 5898   4.757   1.711   4.345  0.3124 -0.7944  0.4540
   64CHL1  H22A 5899   4.866   1.713   4.365  0.6821 -2.4859 -1.1328
   64CHL1  H22B 5900   4.725   1.808   4.301  0.9972 -0.5594  0.4549
   64CHL1   C23 5901   4.683   1.681   4.481  0.1340 -0.4612  0.7001
   64CHL1  H23A 5902   4.585   1.733   4.485 -0.3993 -1.2921 -0.9233
   64CHL1  H23B 5903   4.671   1.571   4.493  0.6960 -0.5254  0.6883
   64CHL1   C24 5904   4.762   1.738   4.604 -0.5504  0.1403  0.4610
   64CHL1  H24A 5905   4.699   1.732   4.695 -1.3419 -1.1004 -0.1411
   64CHL1  H24B 5906   4.845   1.666   4.621 -0.4273 -0.1219 -1.1361
   64CHL1   C25 5907   4.796   1.886   4.594 -0.6425  0.2225  0.1936
   64CHL1   H25 5908   4.837   1.916   4.495 -2.1948  0.3020 -0.4612
   64CHL1   C26 5909   4.673   1.968   4.628  0.7362  0.1532 -0.2233
   64CHL1  H26A 5910   4.582   1.955   4.565 -0.9201  0.5057  1.9932
   64CHL1  H26B 5911   4.638   1.936   4.729 -0.2218  0.2904 -0.5022
   64CHL1  H26C 5912   4.700   2.073   4.651  0.9437 -0.5750  3.5493
   64CHL1   C27 5913   4.916   1.915   4.689  0.2523 -0.2316 -1.0933
   64CHL1  H27A 5914   4.961   2.015   4.672 -1.7131  1.1766  1.3005
   64CHL1  H27B 5915   4.890   1.894   4.795  0.3117  2.8920 -0.3692
   64CHL1  H27C 5916   4.995   1.839   4.671 -0.5647 -1.3408 -0.1002
   65CHL1    C3 5917   2.056   6.026   2.869 -0.6283  0.0217  0.4792
   65CHL1    H3 5918   2.156   6.015   2.917  0.3038 -2.1251 -1.7264
   65CHL1    O3 5919   2.053   5.930   2.761 -0.1229 -0.4231  0.0839
   65CHL1   H3' 5920   2.054   5.841   2.799 -1.7167 -0.0779  1.0130
   65CHL1    C4 5921   1.942   5.994   2.964  0.8987 -0.4680 -0.7214
   65CHL1   H4A 5922   1.844   6.001   2.912  0.0578  0.4587  0.9001
   65CHL1   H4B 5923   1.963   5.892   3.002  0.3231 -0.2533  0.1967
   65CHL1    C5 5924   1.955   6.088   3.082  0.2378  0.3397 -0.3829
   65CHL1    C6 5925   1.982   6.042   3.207 -0.5258  0.5930  0.5923
   65CHL1    H6 5926   2.002   5.934   3.208  0.1820  0.7080  1.7270
   65CHL1    C7 5927   2.010   6.120   3.331 -0.1374  1.0490  0.2748
   65CHL1   H7A 5928   1.958   6.080   3.420 -0.5231  0.8246 -0.0494
   65CHL1   H7B 5929   2.116   6.122   3.363  0.3610  1.7510 -1.2967
   65CHL1    C8 5930   1.967   6.270   3.315  0.5426 -0.2023 -0.2661
   65CHL1    H8 5931   1.858   6.264   3.331  0.7661  0.9882  2.0942
   65CHL1   C14 5932   2.022   6.358   3.425 -0.1035  0.4988  0.0907
   65CHL1   H14 5933   2.131   6.347   3.403  0.0277 -0.5411  1.1507
   65CHL1   C15 5934   2.005   6.310   3.574 -0.2265 -0.0590  0.0242
   65CHL1  H15A 5935   1.896   6.289   3.580 -0.1829 -0.1554  0.4932
   65CHL1  H15B 5936   2.056   6.213   3.593  0.3172  0.0829 -0.6687
   65CHL1   C16 5937   2.052   6.434   3.652  0.0356 -0.6829 -0.1747
   65CHL1  H16A 5938   1.976   6.454   3.731  1.0483 -0.9705  0.9038
   65CHL1  H16B 5939   2.150   6.411   3.698  0.3706  2.0700  0.6676
   65CHL1   C17 5940   2.061   6.551   3.554  0.9927 -0.2586  0.7982
   65CHL1   H17 5941   2.168   6.559   3.527  1.0519 -0.7521  0.8701
   65CHL1   C13 5942   1.985   6.501   3.424 -0.1825  0.2124 -0.3170
   65CHL1   C18 5943   1.829   6.508   3.442  0.1281  0.1726 -0.1118
   65CHL1  H18A 5944   1.781   6.440   3.369  0.1779  0.8968 -0.8325
   65CHL1  H18B 5945   1.800   6.465   3.540 -1.0011 -3.7541 -1.9694
   65CHL1  H18C 5946   1.800   6.615   3.433  2.0882  0.8021  0.4904
   65CHL1   C12 5947   2.035   6.553   3.285 -0.4658 -0.2349  0.3104
   65CHL1  H12A 5948   2.008   6.660   3.279  2.1599  0.6379  2.2731
   65CHL1  H12B 5949   2.144   6.537   3.271 -0.8749 -1.7873 -1.6043
   65CHL1   C11 5950   1.963   6.481   3.161  0.2348  0.0858  0.0365
   65CHL1  H11A 5951   1.853   6.494   3.172  0.1437 -1.1971  0.7105
   65CHL1  H11B 5952   1.999   6.526   3.066 -0.5973  0.1869 -0.2423
   65CHL1    C9 5953   1.995   6.327   3.175 -0.4999  0.2014 -0.4151
   65CHL1    H9 5954   2.105   6.334   3.165 -0.5864  1.8835 -0.5270
   65CHL1   C10 5955   1.944   6.240   3.055 -1.1937 -0.5902  0.2082
   65CHL1   C19 5956   1.804   6.268   3.017  0.0579 -0.2326  0.1648
   65CHL1  H19A 5957   1.734   6.245   3.100 -0.3786  2.3156  0.5802
   65CHL1  H19B 5958   1.794   6.375   2.990  2.0525 -0.6069 -2.5250
   65CHL1  H19C 5959   1.778   6.211   2.925  1.5187 -0.2612 -0.2583
   65CHL1    C1 5960   2.037   6.266   2.931  0.7074  0.0155 -0.0819
   65CHL1   H1A 5961   2.013   6.367   2.891  1.0489 -0.4037 -1.3676
   65CHL1   H1B 5962   2.145   6.270   2.957  1.1113  0.1859 -1.6972
   65CHL1    C2 5963   2.027   6.163   2.816  0.8271  0.4904  0.6273
   65CHL1   H2A 5964   2.108   6.178   2.741 -1.6920  0.3065 -2.3295
   65CHL1   H2B 5965   1.928   6.164   2.766 -0.5662  0.5563  3.2274
   65CHL1   C20 5966   2.010   6.687   3.613  0.4601 -0.3926  0.3124
   65CHL1   H20 5967   1.900   6.675   3.621  0.2497 -0.5872 -2.1719
   65CHL1   C21 5968   2.034   6.804   3.524 -0.0586  0.2983 -0.3359
   65CHL1  H21A 5969   2.142   6.807   3.498  0.0212  0.3180 -0.0086
   65CHL1  H21B 5970   2.001   6.899   3.572 -0.9260  0.1923 -0.7125
   65CHL1  H21C 5971   1.961   6.786   3.442 -1.6234  2.5472  0.4604
   65CHL1   C22 5972   2.075   6.720   3.751 -0.2588  0.0539 -0.2027
   65CHL1  H22A 5973   2.011   6.790   3.809 -0.3080 -0.0804 -0.0941
   65CHL1  H22B 5974   2.076   6.629   3.815  0.0201  0.7342  0.7827
   65CHL1   C23 5975   2.218   6.773   3.744  0.4571 -0.0135  0.8614
   65CHL1  H23A 5976   2.284   6.715   3.674  1.2612  0.7319  0.9890
   65CHL1  H23B 5977   2.213   6.872   3.694 -0.7870 -0.2111  0.5778
   65CHL1   C24 5978   2.297   6.788   3.879 -0.1643 -0.2454  0.9001
   65CHL1  H24A 5979   2.241   6.718   3.945 -1.3819 -0.3529 -0.2010
   65CHL1  H24B 5980   2.402   6.752   3.882  0.6448  1.9817  0.7108
   65CHL1   C25 5981   2.291   6.933   3.933 -0.1105 -0.4381 -0.1261
   65CHL1   H25 5982   2.340   6.993   3.853  2.2937 -1.1752  0.7169
   65CHL1   C26 5983   2.142   6.978   3.961  0.0444  0.1627  0.9578
   65CHL1  H26A 5984   2.094   6.900   4.024  1.7352 -2.1626 -0.5009
   65CHL1  H26B 5985   2.126   7.079   4.005  2.5881  1.0972 -0.0837
   65CHL1  H26C 5986   2.078   6.978   3.870  0.3398 -1.4769  0.7309
   65CHL1   C27 5987   2.378   6.949   4.054 -1.2759 -0.2127 -0.2857
   65CHL1  H27A 5988   2.389   7.055   4.084  1.5377 -1.2060  2.7771
   65CHL1  H27B 5989   2.334   6.898   4.142  1.2498 -0.8481  0.7030
   65CHL1  H27C 5990   2.478   6.908   4.029 -1.7595 -1.7035  0.1257
   66CHL1    C3 5991   4.707   5.560   2.955 -0.6196 -0.3353  0.7066
   66CHL1    H3 5992   4.808   5.514   2.967 -0.1038  0.7377  0.5758
   66CHL1    O3 5993   4.663   5.552   2.823 -0.3145  0.0592 -0.2378
   66CHL1   H3' 5994   4.650   5.458   2.817  1.1273 -0.3565  2.0846
   66CHL1    C4 5995   4.596   5.494   3.040 -0.2696 -0.4550  0.0353
   66CHL1   H4A 5996   4.500   5.538   3.007 -1.3010 -2.7742 -0.3047
   66CHL1   H4B 5997   4.588   5.386   3.015  1.2912 -0.6732  0.3728
   66CHL1    C5 5998   4.629   5.509   3.188 -0.2052  0.8051  0.0499
   66CHL1    C6 5999   4.650   5.395   3.265 -0.0418  0.4732  0.0047
   66CHL1    H6 6000   4.645   5.296   3.217  4.7361  1.6454 -3.6459
   66CHL1    C7 6001   4.681   5.396   3.407  0.1421 -0.6861 -0.5778
   66CHL1   H7A 6002   4.617   5.323   3.460 -0.8435  1.5859  1.5666
   66CHL1   H7B 6003   4.789   5.377   3.426 -0.3191 -0.4548  2.6769
   66CHL1    C8 6004   4.654   5.544   3.470 -0.1545  0.0915 -0.0679
   66CHL1    H8 6005   4.544   5.557   3.469 -0.1955  0.7217  3.1859
   66CHL1   C14 6006   4.715   5.553   3.607  1.1279 -0.4669 -0.0552
   66CHL1   H14 6007   4.824   5.545   3.588  1.2281 -0.6136  0.5799
   66CHL1   C15 6008   4.689   5.431   3.704 -0.5757  0.1691 -0.1506
   66CHL1  H15A 6009   4.581   5.405   3.706 -0.6008  0.2522 -0.4005
   66CHL1  H15B 6010   4.748   5.337   3.691 -0.5139  0.1334  0.3512
   66CHL1   C16 6011   4.716   5.491   3.847  0.6190  0.3398  0.1450
   66CHL1  H16A 6012   4.617   5.486   3.898  1.3638 -0.2719  1.5789
   66CHL1  H16B 6013   4.790   5.416   3.883  1.1726 -0.3393 -2.2304
   66CHL1   C17 6014   4.764   5.637   3.820  0.1069  0.6310  0.8966
   66CHL1   H17 6015   4.868   5.632   3.782 -0.5385  0.0781 -0.9269
   66CHL1   C13 6016   4.688   5.678   3.687 -0.7528 -0.3283 -0.0664
   66CHL1   C18 6017   4.545   5.705   3.716 -0.0685  0.0985 -0.3573
   66CHL1  H18A 6018   4.544   5.806   3.761  0.7197  0.5969 -1.4173
   66CHL1  H18B 6019   4.486   5.719   3.623 -0.2538  2.0702  0.0189
   66CHL1  H18C 6020   4.494   5.639   3.789 -0.7822  1.7791  0.7258
   66CHL1   C12 6021   4.755   5.791   3.597 -0.3273  0.3145 -0.6336
   66CHL1  H12A 6022   4.754   5.891   3.646 -1.9183 -0.0324  0.1042
   66CHL1  H12B 6023   4.864   5.774   3.587 -0.0542  1.9293 -0.7756
   66CHL1   C11 6024   4.704   5.793   3.451  0.1395  0.1636  0.7980
   66CHL1  H11A 6025   4.606   5.845   3.450 -0.3932 -0.7991  1.7244
   66CHL1  H11B 6026   4.776   5.859   3.397  0.3672 -0.1765  0.6792
   66CHL1    C9 6027   4.706   5.655   3.381  0.3378  0.4211 -0.2350
   66CHL1    H9 6028   4.814   5.629   3.377  0.2536  0.1132 -0.5191
   66CHL1   C10 6029   4.645   5.652   3.236 -0.0461  0.2770 -0.0605
   66CHL1   C19 6030   4.501   5.722   3.236  0.3691  0.2385  0.0488
   66CHL1  H19A 6031   4.434   5.668   3.306  0.4348 -0.4801 -0.4351
   66CHL1  H19B 6032   4.509   5.830   3.259 -0.1169  0.0095  1.3408
   66CHL1  H19C 6033   4.454   5.729   3.136  0.4363  0.2904  0.0210
   66CHL1    C1 6034   4.748   5.723   3.138  0.3978 -0.4195  1.0961
   66CHL1   H1A 6035   4.761   5.830   3.165  4.8253 -0.8162  1.2615
   66CHL1   H1B 6036   4.848   5.680   3.160  0.5580 -0.7462 -0.2387
   66CHL1    C2 6037   4.712   5.712   2.986 -0.4338 -0.2110  0.0012
   66CHL1   H2A 6038   4.797   5.762   2.935  0.3694 -2.2117 -0.7539
   66CHL1   H2B 6039   4.617   5.766   2.969  1.1192  2.4576 -0.6623
   66CHL1   C20 6040   4.772   5.739   3.930 -0.6974 -0.3512 -0.0983
   66CHL1   H20 6041   4.787   5.839   3.884  0.2230 -0.8213 -0.8495
   66CHL1   C21 6042   4.898   5.703   4.017 -0.3507 -0.0341  0.1133
   66CHL1  H21A 6043   4.906   5.793   4.081 -0.1721  0.6733 -0.8793
   66CHL1  H21B 6044   4.987   5.700   3.950 -1.3155 -2.0400 -1.1739
   66CHL1  H21C 6045   4.883   5.605   4.066 -0.3940 -1.5619 -2.7250
   66CHL1   C22 6046   4.644   5.737   4.020  0.2639  0.2276  0.7296
   66CHL1  H22A 6047   4.548   5.749   3.965  0.7548  3.6616  0.4172
   66CHL1  H22B 6048   4.645   5.642   4.076  0.3992  0.5546  1.2860
   66CHL1   C23 6049   4.642   5.855   4.114  0.2027 -0.2785 -0.2396
   66CHL1  H23A 6050   4.727   5.859   4.186  0.6221  0.2914 -0.7552
   66CHL1  H23B 6051   4.641   5.947   4.051  1.7588  0.2023  0.3739
   66CHL1   C24 6052   4.509   5.851   4.196  0.3444  0.4541  0.2333
   66CHL1  H24A 6053   4.431   5.888   4.126  0.2875  0.0877  0.1016
   66CHL1  H24B 6054   4.492   5.744   4.218  1.3960 -0.0184 -1.1399
   66CHL1   C25 6055   4.498   5.946   4.318 -0.2865 -0.3089  0.6710
   66CHL1   H25 6056   4.567   5.915   4.400  1.1952 -0.1473 -0.4667
   66CHL1   C26 6057   4.508   6.093   4.279 -0.3252 -0.3726 -0.4546
   66CHL1  H26A 6058   4.501   6.141   4.379 -1.9480 -2.4134  0.4806
   66CHL1  H26B 6059   4.609   6.116   4.238 -0.1572 -0.0526  0.1248
   66CHL1  H26C 6060   4.423   6.121   4.213 -1.5123 -1.4829  0.5455
   66CHL1   C27 6061   4.360   5.923   4.376 -0.0133  0.5956 -0.1804
   66CHL1  H27A 6062   4.353   5.816   4.405 -0.5156  0.6235 -0.1953
   66CHL1  H27B 6063   4.288   5.955   4.297  1.1351  0.7954 -1.1792
   66CHL1  H27C 6064   4.334   5.991   4.459 -1.0130  1.1469 -0.9301
   67CHL1    C3 6065   5.704   5.714   2.856  0.1359  0.4427  0.3718
   67CHL1    H3 6066   5.713   5.609   2.892 -0.2034 -0.1120 -1.0796
   67CHL1    O3 6067   5.678   5.699   2.717 -0.3568 -0.1561  0.2594
   67CHL1   H3' 6068   5.755   5.650   2.685 -0.9263  0.3158 -1.9899
   67CHL1    C4 6069   5.591   5.792   2.916  0.2654 -0.1812 -0.0372
   67CHL1   H4A 6070   5.585   5.896   2.876 -0.7311  0.4559  1.6604
   67CHL1   H4B 6071   5.489   5.756   2.893 -0.9912  0.5163  3.6913
   67CHL1    C5 6072   5.607   5.799   3.070 -0.1708  0.2067  0.1911
   67CHL1    C6 6073   5.517   5.741   3.153  0.0131  0.8474  0.1901
   67CHL1    H6 6074   5.426   5.692   3.117  0.6457  1.0209 -1.7537
   67CHL1    C7 6075   5.525   5.753   3.301 -0.0750 -0.1904  0.2613
   67CHL1   H7A 6076   5.427   5.767   3.351 -0.4976 -0.5096 -0.4736
   67CHL1   H7B 6077   5.550   5.655   3.347 -1.1659 -0.9741 -0.7614
   67CHL1    C8 6078   5.628   5.866   3.345  0.1187 -0.0873  0.2314
   67CHL1    H8 6079   5.576   5.964   3.339  0.1985  0.1301  2.1996
   67CHL1   C14 6080   5.677   5.838   3.491 -0.3358  0.8128 -0.6007
   67CHL1   H14 6081   5.721   5.736   3.488 -2.4857 -0.1979  0.0242
   67CHL1   C15 6082   5.562   5.821   3.594 -0.8660  0.3914  0.6364
   67CHL1  H15A 6083   5.489   5.903   3.576  0.7572  1.3454 -2.4679
   67CHL1  H15B 6084   5.506   5.725   3.591  0.9584 -0.7700  1.8369
   67CHL1   C16 6085   5.630   5.841   3.727  0.0105  0.2596 -0.2585
   67CHL1  H16A 6086   5.583   5.919   3.791  2.7783  0.9707  1.0367
   67CHL1  H16B 6087   5.638   5.752   3.794 -1.8258 -0.4227 -0.8747
   67CHL1   C17 6088   5.777   5.894   3.697  0.7579 -0.4599  0.1806
   67CHL1   H17 6089   5.833   5.798   3.695  0.5357 -0.5837 -0.6101
   67CHL1   C13 6090   5.768   5.932   3.553 -0.8747 -0.3307  0.1912
   67CHL1   C18 6091   5.711   6.075   3.542  0.0167 -0.1674  0.1643
   67CHL1  H18A 6092   5.681   6.106   3.440 -0.5187 -1.1999 -0.0045
   67CHL1  H18B 6093   5.618   6.081   3.604 -0.4518 -0.1673 -0.5238
   67CHL1  H18C 6094   5.781   6.152   3.580  1.1338 -1.5578  0.9946
   67CHL1   C12 6095   5.906   5.916   3.474  0.6008 -0.3050 -0.7521
   67CHL1  H12A 6096   5.976   5.999   3.497  0.5392 -0.3153 -0.5284
   67CHL1  H12B 6097   5.949   5.815   3.491 -0.2368 -0.6484 -0.6122
   67CHL1   C11 6098   5.877   5.928   3.320  0.6170 -0.1437 -1.1476
   67CHL1  H11A 6099   5.845   6.034   3.308 -0.9364 -0.5458 -0.6814
   67CHL1  H11B 6100   5.969   5.901   3.264  1.1398  1.5896 -1.1983
   67CHL1    C9 6101   5.757   5.851   3.262 -0.6661 -0.1951  0.0689
   67CHL1    H9 6102   5.776   5.743   3.276  0.0423 -0.0724  0.1291
   67CHL1   C10 6103   5.734   5.864   3.111 -0.7928  0.3428  0.2115
   67CHL1   C19 6104   5.740   6.007   3.076  0.1107  0.0811 -0.1877
   67CHL1  H19A 6105   5.723   6.028   2.968 -0.5188  0.1066 -0.0858
   67CHL1  H19B 6106   5.663   6.057   3.138 -1.4227 -0.7189 -1.3871
   67CHL1  H19C 6107   5.838   6.056   3.098  1.0720 -2.0137  0.4784
   67CHL1    C1 6108   5.856   5.797   3.037  0.2742  0.0462 -0.3675
   67CHL1   H1A 6109   5.952   5.845   3.067  1.4045 -2.4705  0.3239
   67CHL1   H1B 6110   5.866   5.696   3.082  0.2394 -0.6801 -1.9347
   67CHL1    C2 6111   5.838   5.782   2.883  0.0049 -0.2604  0.4766
   67CHL1   H2A 6112   5.912   5.711   2.842  0.1477  0.3351 -0.3172
   67CHL1   H2B 6113   5.849   5.882   2.836  1.5662 -0.6560 -0.0658
   67CHL1   C20 6114   5.838   5.983   3.803 -0.2001 -0.1166 -0.2374
   67CHL1   H20 6115   5.777   6.074   3.823 -1.2730 -0.1795 -2.8487
   67CHL1   C21 6116   5.980   6.032   3.762 -0.3933 -0.6348 -0.0523
   67CHL1  H21A 6117   5.964   6.094   3.671  1.7156 -1.6440 -1.1993
   67CHL1  H21B 6118   6.058   5.960   3.729  0.5090  0.1592  0.2918
   67CHL1  H21C 6119   6.032   6.090   3.842 -2.1248  0.3944  0.3788
   67CHL1   C22 6120   5.843   5.912   3.943  0.0484  0.1043 -0.7868
   67CHL1  H22A 6121   5.738   5.880   3.963 -0.7274  0.7838 -3.3938
   67CHL1  H22B 6122   5.911   5.826   3.928 -2.0393 -1.3898 -2.1073
   67CHL1   C23 6123   5.886   5.993   4.066  0.4622  0.1625  0.1516
   67CHL1  H23A 6124   5.992   6.023   4.058  0.1802  0.8808 -1.1261
   67CHL1  H23B 6125   5.836   6.090   4.047  2.2555  0.7731 -1.8587
   67CHL1   C24 6126   5.842   5.929   4.198 -0.5595 -0.0992  0.8667
   67CHL1  H24A 6127   5.733   5.949   4.195 -0.4406  1.0502 -3.5527
   67CHL1  H24B 6128   5.856   5.820   4.183 -1.8859 -0.3025  0.9847
   67CHL1   C25 6129   5.906   5.969   4.327 -0.5845 -0.4908  0.1605
   67CHL1   H25 6130   5.843   5.929   4.410 -2.0300  0.0204 -0.6604
   67CHL1   C26 6131   6.045   5.902   4.331  0.0773 -0.1444  0.3990
   67CHL1  H26A 6132   6.029   5.796   4.303  2.8452 -1.1002  2.0378
   67CHL1  H26B 6133   6.111   5.939   4.249 -0.8008  0.2323 -0.1541
   67CHL1  H26C 6134   6.090   5.905   4.433  1.5178 -0.2309 -0.2043
   67CHL1   C27 6135   5.918   6.121   4.340 -0.9648 -0.2191 -0.8489
   67CHL1  H27A 6136   5.960   6.175   4.253  0.6607 -0.3268 -0.1627
   67CHL1  H27B 6137   5.823   6.173   4.364 -0.7036  0.0598 -0.3985
   67CHL1  H27C 6138   5.984   6.144   4.426  1.6318 -0.4773 -2.6618
   68CHL1    C3 6139   1.560   3.640   2.785 -0.6253 -1.1216 -0.6005
   68CHL1    H3 6140   1.454   3.665   2.808 -0.5721 -1.3256 -0.1130
   68CHL1    O3 6141   1.577   3.636   2.647  0.4065  0.2502  0.2799
   68CHL1   H3' 6142   1.668   3.609   2.636  0.4867 -0.0411  1.5219
   68CHL1    C4 6143   1.644   3.756   2.841  0.4302  1.1754 -0.4582
   68CHL1   H4A 6144   1.749   3.739   2.809  0.2698 -0.9344  0.0351
   68CHL1   H4B 6145   1.604   3.847   2.792 -1.8826 -0.1440 -1.1520
   68CHL1    C5 6146   1.642   3.764   2.990 -0.3573 -0.4658 -0.5301
   68CHL1    C6 6147   1.617   3.878   3.060 -0.6235  0.8281  0.1202
   68CHL1    H6 6148   1.599   3.971   3.005 -0.6438  1.7897  1.6928
   68CHL1    C7 6149   1.620   3.894   3.214 -0.5401  0.4946 -0.1721
   68CHL1   H7A 6150   1.690   3.974   3.246 -1.3881  1.0629  0.2890
   68CHL1   H7B 6151   1.516   3.916   3.246 -1.6262 -1.8784 -1.7470
   68CHL1    C8 6152   1.674   3.761   3.286  0.5978  0.0846  0.2086
   68CHL1    H8 6153   1.784   3.765   3.293  0.4849  3.2584  2.1013
   68CHL1   C14 6154   1.625   3.751   3.429 -0.0356  0.2724 -0.0879
   68CHL1   H14 6155   1.514   3.752   3.427 -0.0743 -1.2093  0.0085
   68CHL1   C15 6156   1.662   3.881   3.509  0.4767 -0.2888  0.1240
   68CHL1  H15A 6157   1.768   3.900   3.482  1.1249 -1.3970  1.7662
   68CHL1  H15B 6158   1.590   3.963   3.487  0.0480 -1.2444 -2.3976
   68CHL1   C16 6159   1.663   3.831   3.651 -0.4443 -0.1274  0.4149
   68CHL1  H16A 6160   1.765   3.829   3.694  0.1403 -0.5524 -0.9605
   68CHL1  H16B 6161   1.588   3.885   3.713 -1.4079 -1.9835  0.9395
   68CHL1   C17 6162   1.626   3.676   3.649  0.3329  0.2670 -0.8831
   68CHL1   H17 6163   1.516   3.664   3.644  0.5131 -2.9106  0.2154
   68CHL1   C13 6164   1.673   3.630   3.511  0.5214  0.2987 -0.0176
   68CHL1   C18 6165   1.827   3.612   3.507 -0.5206 -0.3922  0.4528
   68CHL1  H18A 6166   1.880   3.701   3.547  1.0537  0.0385 -2.2829
   68CHL1  H18B 6167   1.852   3.520   3.563 -2.6218 -0.6177  1.1167
   68CHL1  H18C 6168   1.861   3.595   3.402 -2.4497  0.0378 -0.2822
   68CHL1   C12 6169   1.606   3.512   3.438  0.3710 -0.9084  0.4323
   68CHL1  H12A 6170   1.641   3.420   3.489  0.0038 -1.0676  0.3945
   68CHL1  H12B 6171   1.498   3.525   3.459  0.2153 -1.8512  0.2489
   68CHL1   C11 6172   1.646   3.507   3.290  0.4585  0.2731  0.7002
   68CHL1  H11A 6173   1.753   3.478   3.283  0.0323 -1.1301 -0.6705
   68CHL1  H11B 6174   1.600   3.418   3.241  2.0874 -0.1989 -0.0533
   68CHL1    C9 6175   1.620   3.639   3.216 -0.9534 -0.2307 -0.2048
   68CHL1    H9 6176   1.509   3.649   3.207 -1.1689 -0.7011  1.5994
   68CHL1   C10 6177   1.662   3.634   3.066 -0.5125  0.0372 -0.4129
   68CHL1   C19 6178   1.818   3.601   3.056 -1.0501  0.4466  0.7456
   68CHL1  H19A 6179   1.879   3.662   3.125 -1.1361  1.7333 -0.2876
   68CHL1  H19B 6180   1.832   3.499   3.099 -0.2906  0.5385  0.7298
   68CHL1  H19C 6181   1.851   3.610   2.950  1.7217 -1.3656  1.3412
   68CHL1    C1 6182   1.585   3.520   2.999  0.0413  0.3315 -0.2201
   68CHL1   H1A 6183   1.616   3.419   3.033  0.7116  1.0706  1.4786
   68CHL1   H1B 6184   1.476   3.524   3.018  0.0976  0.1048  0.1565
   68CHL1    C2 6185   1.613   3.517   2.847  0.7071  0.7787  0.1620
   68CHL1   H2A 6186   1.546   3.434   2.815  0.6106  1.5341 -1.7043
   68CHL1   H2B 6187   1.718   3.500   2.815  0.7654 -0.8702  1.1365
   68CHL1   C20 6188   1.671   3.612   3.785  0.3822 -0.2787  0.5692
   68CHL1   H20 6189   1.782   3.609   3.780  0.4683  2.3269 -3.4520
   68CHL1   C21 6190   1.626   3.462   3.785  0.7179 -0.3124 -0.0448
   68CHL1  H21A 6191   1.655   3.415   3.881  1.1149  0.4415  0.2141
   68CHL1  H21B 6192   1.678   3.405   3.704  1.1882 -0.0012  0.0368
   68CHL1  H21C 6193   1.516   3.460   3.766  1.0034 -1.6512 -1.8429
   68CHL1   C22 6194   1.610   3.687   3.901  0.7858 -0.1604  0.3096
   68CHL1  H22A 6195   1.564   3.786   3.883 -0.0153 -0.2140  1.9105
   68CHL1  H22B 6196   1.535   3.622   3.951  0.9716 -0.7171 -0.1182
   68CHL1   C23 6197   1.717   3.706   4.010  0.6234 -0.2634  0.3912
   68CHL1  H23A 6198   1.774   3.614   4.036 -0.7140 -1.7343 -1.5741
   68CHL1  H23B 6199   1.784   3.781   3.962  0.5326 -0.9367 -0.8445
   68CHL1   C24 6200   1.646   3.782   4.125 -0.1461  0.2327 -0.1412
   68CHL1  H24A 6201   1.580   3.863   4.087  0.2779 -0.5763 -2.8078
   68CHL1  H24B 6202   1.586   3.709   4.184  0.9154 -0.8413 -0.3447
   68CHL1   C25 6203   1.743   3.842   4.234  0.3491  0.1769  0.4823
   68CHL1   H25 6204   1.823   3.768   4.254 -0.7332 -1.6535 -1.5426
   68CHL1   C26 6205   1.800   3.981   4.198 -0.2338  0.2058  0.5200
   68CHL1  H26A 6206   1.718   4.053   4.178  0.2057  0.6555  0.3303
   68CHL1  H26B 6207   1.854   4.026   4.284  0.5558  1.2756 -0.5047
   68CHL1  H26C 6208   1.858   3.963   4.105 -0.6116 -3.3264  0.8116
   68CHL1   C27 6209   1.664   3.847   4.365  0.0901 -0.2521 -0.2565
   68CHL1  H27A 6210   1.590   3.930   4.369  0.1209 -0.2441  0.2300
   68CHL1  H27B 6211   1.619   3.749   4.389  0.6102 -0.4073  0.1143
   68CHL1  H27C 6212   1.739   3.870   4.444 -2.1403  2.4165  1.2764
   69CHL1    C3 6213   1.270   2.122   2.588  0.1916 -0.3623  0.1588
   69CHL1    H3 6214   1.172   2.071   2.578  0.4966 -0.6865 -1.6001
   69CHL1    O3 6215   1.336   2.150   2.461  0.6798  1.0192 -0.5338
   69CHL1   H3' 6216   1.268   2.206   2.423  0.1315  0.0279 -1.0482
   69CHL1    C4 6217   1.240   2.263   2.648  0.4020 -0.2312 -0.7618
   69CHL1   H4A 6218   1.342   2.305   2.660  0.6991 -1.6905  3.2715
   69CHL1   H4B 6219   1.177   2.329   2.584  1.4053  2.4544  0.8132
   69CHL1    C5 6220   1.190   2.258   2.797  0.2833  0.5882 -0.1712
   69CHL1    C6 6221   1.069   2.311   2.826 -0.9225 -0.0096  0.6164
   69CHL1    H6 6222   1.027   2.377   2.749 -1.7649  0.2291  1.2743
   69CHL1    C7 6223   1.017   2.313   2.963  0.9092  0.1897  0.2639
   69CHL1   H7A 6224   0.960   2.403   2.996  0.0646  0.1957 -1.1562
   69CHL1   H7B 6225   0.929   2.246   2.966 -0.6323  2.0817 -0.3902
   69CHL1    C8 6226   1.115   2.278   3.071 -0.5260 -0.0272 -1.0934
   69CHL1    H8 6227   1.181   2.368   3.069 -2.3497  1.3606 -1.6528
   69CHL1   C14 6228   1.039   2.254   3.200  0.3585 -0.0747 -0.0270
   69CHL1   H14 6229   0.972   2.167   3.179  0.0916 -0.3532  1.8236
   69CHL1   C15 6230   0.961   2.365   3.270 -0.6513  0.2654  0.5034
   69CHL1  H15A 6231   1.006   2.467   3.273  0.0159  0.0321 -0.7605
   69CHL1  H15B 6232   0.858   2.389   3.234 -0.8959  2.0898  2.2523
   69CHL1   C16 6233   0.929   2.310   3.406  0.1115  0.2513 -0.9202
   69CHL1  H16A 6234   0.931   2.398   3.473  1.1605 -0.4301 -0.0226
   69CHL1  H16B 6235   0.822   2.285   3.428 -0.2393  1.0559 -1.6880
   69CHL1   C17 6236   1.024   2.192   3.432  0.3523 -0.6503  0.6301
   69CHL1   H17 6237   0.965   2.098   3.424 -2.0981  0.7237  1.4242
   69CHL1   C13 6238   1.126   2.197   3.307 -0.0831 -0.0348 -0.1231
   69CHL1   C18 6239   1.235   2.299   3.341  0.1019 -0.2151  0.1614
   69CHL1  H18A 6240   1.317   2.253   3.399  0.3059  1.0353  0.9177
   69CHL1  H18B 6241   1.275   2.332   3.243 -2.6079 -0.4557 -1.1228
   69CHL1  H18C 6242   1.190   2.380   3.404  2.8001  0.6537  1.0887
   69CHL1   C12 6243   1.190   2.065   3.268  0.0866  0.4175 -1.0992
   69CHL1  H12A 6244   1.245   2.004   3.343 -2.3360 -1.6940 -0.9249
   69CHL1  H12B 6245   1.100   2.003   3.248  0.3633  0.1485 -1.5257
   69CHL1   C11 6246   1.274   2.074   3.141 -0.8457 -0.4998  0.3662
   69CHL1  H11A 6247   1.368   2.122   3.175 -0.5315  0.8376 -2.1881
   69CHL1  H11B 6248   1.282   1.972   3.098  0.5947  0.0302 -0.6640
   69CHL1    C9 6249   1.189   2.149   3.030  0.1839 -0.7149 -0.4595
   69CHL1    H9 6250   1.102   2.082   3.012 -0.7140  0.3410 -0.1084
   69CHL1   C10 6251   1.268   2.167   2.895  0.3188 -0.1320  0.0169
   69CHL1   C19 6252   1.402   2.243   2.924  0.2967 -0.4605 -0.0658
   69CHL1  H19A 6253   1.460   2.252   2.830  1.3848 -0.7501  0.5530
   69CHL1  H19B 6254   1.386   2.339   2.978  1.6196 -0.5590  0.5380
   69CHL1  H19C 6255   1.470   2.181   2.987  1.0340 -0.4567 -0.8394
   69CHL1    C1 6256   1.299   2.027   2.829  0.7423 -0.2418  0.1059
   69CHL1   H1A 6257   1.375   1.981   2.895  0.5409  1.2186  1.4054
   69CHL1   H1B 6258   1.208   1.964   2.825  0.1882  0.5867 -1.1582
   69CHL1    C2 6259   1.354   2.035   2.680 -0.1080  0.2713 -0.0374
   69CHL1   H2A 6260   1.354   1.932   2.638  1.3460  0.2102  0.0865
   69CHL1   H2B 6261   1.459   2.068   2.666 -0.1670 -0.2649 -2.0792
   69CHL1   C20 6262   1.081   2.192   3.566  0.2871 -0.1701 -0.4657
   69CHL1   H20 6263   1.131   2.284   3.603  0.4336 -0.5760  0.3939
   69CHL1   C21 6264   1.189   2.085   3.591  0.9168 -0.4478  0.4073
   69CHL1  H21A 6265   1.203   2.078   3.701 -2.7603 -2.4669  0.9269
   69CHL1  H21B 6266   1.285   2.098   3.538  1.6201 -2.0845  1.2182
   69CHL1  H21C 6267   1.145   1.987   3.559  0.3244  0.4411 -1.6916
   69CHL1   C22 6268   0.967   2.169   3.674 -0.1967  0.5962  0.3408
   69CHL1  H22A 6269   0.883   2.237   3.648  0.8405  1.4075 -0.9695
   69CHL1  H22B 6270   0.943   2.060   3.675  2.7047 -0.1666  3.0460
   69CHL1   C23 6271   1.007   2.222   3.810 -0.7244 -0.3366  0.5747
   69CHL1  H23A 6272   1.079   2.153   3.859  0.3516  0.8046  0.6307
   69CHL1  H23B 6273   1.046   2.325   3.804 -1.6375  0.0805  1.5034
   69CHL1   C24 6274   0.885   2.234   3.903  0.0228 -0.6182  0.7629
   69CHL1  H24A 6275   0.805   2.285   3.845 -0.9156  0.2967  2.7656
   69CHL1  H24B 6276   0.844   2.138   3.942 -0.9533 -0.0824  1.1008
   69CHL1   C25 6277   0.900   2.330   4.021  0.2196 -0.4921 -0.3346
   69CHL1   H25 6278   0.917   2.431   3.979  0.0354  0.5745  2.0022
   69CHL1   C26 6279   0.765   2.332   4.098 -0.6293 -0.3869  0.0766
   69CHL1  H26A 6280   0.739   2.240   4.155 -2.2374  1.2326  2.1174
   69CHL1  H26B 6281   0.769   2.413   4.174  3.0226  1.7480 -2.0681
   69CHL1  H26C 6282   0.682   2.342   4.025 -0.4213 -1.7257 -0.3691
   69CHL1   C27 6283   1.020   2.306   4.110 -0.3718 -0.8342 -0.3938
   69CHL1  H27A 6284   1.016   2.205   4.157  0.5714 -1.0593 -0.7718
   69CHL1  H27B 6285   1.111   2.316   4.047  0.3693 -1.3851  0.5587
   69CHL1  H27C 6286   1.027   2.382   4.190  1.1649 -2.0456  0.6918
   70CHL1    C3 6287   3.718   6.535   3.191 -1.3899  0.5106  0.0390
   70CHL1    H3 6288   3.678   6.637   3.211 -0.2857  1.2791 -1.4421
   70CHL1    O3 6289   3.766   6.530   3.056 -0.1031 -0.4596  0.3277
   70CHL1   H3' 6290   3.829   6.602   3.045 -0.7170  0.2794  1.4564
   70CHL1    C4 6291   3.844   6.516   3.294  0.3403 -0.1815  0.2527
   70CHL1   H4A 6292   3.914   6.439   3.257  0.3082 -0.0276 -0.1353
   70CHL1   H4B 6293   3.893   6.616   3.288 -1.4410  0.7252  0.0916
   70CHL1    C5 6294   3.802   6.493   3.440  0.1172  0.2539 -0.0212
   70CHL1    C6 6295   3.842   6.568   3.539  0.6540  0.1690  0.3219
   70CHL1    H6 6296   3.915   6.647   3.515 -0.2808  1.4912  1.6237
   70CHL1    C7 6297   3.794   6.558   3.681 -0.0531  0.1056 -0.1301
   70CHL1   H7A 6298   3.879   6.592   3.743 -2.3159  0.8683  2.7680
   70CHL1   H7B 6299   3.714   6.635   3.690  1.1660  1.4042 -0.0875
   70CHL1    C8 6300   3.733   6.423   3.706 -0.0700 -0.2704  0.2662
   70CHL1    H8 6301   3.809   6.341   3.700 -0.1442 -0.2964 -0.3842
   70CHL1   C14 6302   3.655   6.432   3.842 -0.8594 -0.4133 -0.6155
   70CHL1   H14 6303   3.572   6.504   3.828  1.1495  1.8457 -1.6520
   70CHL1   C15 6304   3.735   6.488   3.969  0.1779  0.6742 -0.1716
   70CHL1  H15A 6305   3.837   6.443   3.973  0.6390  1.6462 -0.6243
   70CHL1  H15B 6306   3.762   6.594   3.951  2.3808  0.4197  1.2337
   70CHL1   C16 6307   3.646   6.450   4.089  0.4384 -0.0630  0.8369
   70CHL1  H16A 6308   3.713   6.397   4.160  0.6855 -1.4026 -0.3684
   70CHL1  H16B 6309   3.609   6.539   4.145 -0.4622  1.8244 -2.4680
   70CHL1   C17 6310   3.534   6.358   4.032  0.1563 -0.3842  0.3698
   70CHL1   H17 6311   3.449   6.426   4.005  0.1972 -0.8563 -1.0197
   70CHL1   C13 6312   3.582   6.315   3.894  0.0808  0.6960  0.1395
   70CHL1   C18 6313   3.682   6.188   3.908 -0.3573 -0.5260 -0.0044
   70CHL1  H18A 6314   3.719   6.154   3.809  0.0702 -2.1216  0.6658
   70CHL1  H18B 6315   3.768   6.217   3.972 -0.1242 -0.9714 -0.1114
   70CHL1  H18C 6316   3.631   6.103   3.958  0.8579  0.0158  2.3547
   70CHL1   C12 6317   3.476   6.276   3.787 -0.7123  0.5293 -0.4302
   70CHL1  H12A 6318   3.433   6.175   3.805  2.4184 -0.7889  0.3910
   70CHL1  H12B 6319   3.402   6.359   3.799 -0.1140  0.9820  0.2282
   70CHL1   C11 6320   3.537   6.268   3.644 -0.1869  0.1595 -0.2705
   70CHL1  H11A 6321   3.608   6.183   3.647  0.4016  0.5691 -1.7042
   70CHL1  H11B 6322   3.464   6.257   3.561 -2.3778  1.2524  1.4111
   70CHL1    C9 6323   3.625   6.393   3.606 -0.5562 -0.1902 -0.5836
   70CHL1    H9 6324   3.558   6.481   3.623  1.8210  1.5023  0.5200
   70CHL1   C10 6325   3.680   6.392   3.468 -1.0762  0.0291  1.2698
   70CHL1   C19 6326   3.727   6.251   3.428 -0.4243 -0.1292 -0.1118
   70CHL1  H19A 6327   3.773   6.198   3.514  0.5264  1.8158  0.6349
   70CHL1  H19B 6328   3.647   6.177   3.404 -0.1771 -0.0769 -1.1729
   70CHL1  H19C 6329   3.788   6.246   3.336  0.0741 -1.6714  0.2746
   70CHL1    C1 6330   3.568   6.433   3.364  0.8500 -0.1472  0.3960
   70CHL1   H1A 6331   3.475   6.372   3.375  0.3258  0.9430  2.4263
   70CHL1   H1B 6332   3.536   6.531   3.404  1.7424 -0.1231  1.0792
   70CHL1    C2 6333   3.604   6.430   3.213  0.2600 -0.2607 -0.3606
   70CHL1   H2A 6334   3.519   6.448   3.144 -1.0455  0.5127  1.3722
   70CHL1   H2B 6335   3.649   6.331   3.192  1.8898  0.4065 -0.1575
   70CHL1   C20 6336   3.482   6.247   4.129 -0.4544  0.2490 -0.5372
   70CHL1   H20 6337   3.564   6.177   4.155 -0.3273  0.1273 -1.2674
   70CHL1   C21 6338   3.356   6.165   4.079 -0.5558 -0.3138  0.1005
   70CHL1  H21A 6339   3.313   6.097   4.155  0.4936 -1.5956 -0.4138
   70CHL1  H21B 6340   3.397   6.097   4.001 -2.8184 -0.6561 -0.8803
   70CHL1  H21C 6341   3.279   6.236   4.042 -1.2582  0.1200  2.2484
   70CHL1   C22 6342   3.446   6.303   4.264  0.5241  0.9979 -0.2229
   70CHL1  H22A 6343   3.418   6.212   4.321 -0.2557  0.3943 -1.5445
   70CHL1  H22B 6344   3.536   6.345   4.313 -0.2671 -0.2344  2.5015
   70CHL1   C23 6345   3.321   6.393   4.262  0.0446 -0.4593  1.0371
   70CHL1  H23A 6346   3.311   6.454   4.170 -1.3213  2.2761  2.8591
   70CHL1  H23B 6347   3.224   6.341   4.275  0.7373 -1.5169  2.1413
   70CHL1   C24 6348   3.328   6.503   4.367 -0.0162  0.2141 -0.0918
   70CHL1  H24A 6349   3.421   6.562   4.351 -0.4941  0.9965 -0.0444
   70CHL1  H24B 6350   3.241   6.566   4.338 -0.6638 -1.0083 -0.8724
   70CHL1   C25 6351   3.298   6.459   4.510 -0.4146 -0.1011  0.1546
   70CHL1   H25 6352   3.388   6.409   4.552  1.4155  3.7394  1.3349
   70CHL1   C26 6353   3.285   6.585   4.601  0.1376 -0.0315  0.4501
   70CHL1  H26A 6354   3.365   6.661   4.589 -2.5845  3.4225  2.1905
   70CHL1  H26B 6355   3.188   6.636   4.583 -0.8521 -1.7165  0.7649
   70CHL1  H26C 6356   3.290   6.552   4.707  0.7002 -1.8513 -0.0932
   70CHL1   C27 6357   3.166   6.379   4.515 -0.7025 -0.4579  0.8595
   70CHL1  H27A 6358   3.080   6.428   4.464 -0.4726  0.5503  1.4071
   70CHL1  H27B 6359   3.185   6.279   4.469  0.8124  0.3803 -0.4328
   70CHL1  H27C 6360   3.127   6.368   4.619 -2.2658  1.5100  0.5548
   71CHL1    C3 6361   6.416   4.383   2.827 -0.2291  0.2712  0.3327
   71CHL1    H3 6362   6.497   4.311   2.853 -0.6774 -0.8877 -1.3153
   71CHL1    O3 6363   6.440   4.439   2.697  0.1795  0.0520  0.6161
   71CHL1   H3' 6364   6.372   4.503   2.675 -0.5728 -1.6763 -2.6820
   71CHL1    C4 6365   6.281   4.312   2.827  0.2362  1.0034 -0.3085
   71CHL1   H4A 6366   6.202   4.375   2.780 -0.0791  0.2526 -0.8027
   71CHL1   H4B 6367   6.288   4.223   2.762  1.1761  0.0613  1.0470
   71CHL1    C5 6368   6.233   4.279   2.968 -0.0402 -0.0524 -0.1526
   71CHL1    C6 6369   6.195   4.154   2.997 -0.3187 -0.0041  0.1476
   71CHL1    H6 6370   6.212   4.074   2.923  1.2381  1.8720 -1.6749
   71CHL1    C7 6371   6.133   4.124   3.124 -0.2860 -0.1589 -0.0713
   71CHL1   H7A 6372   6.038   4.071   3.098 -1.6052  2.3840 -0.7476
   71CHL1   H7B 6373   6.194   4.054   3.184  0.2569  0.1889 -0.2107
   71CHL1    C8 6374   6.093   4.244   3.212  0.0797 -1.0619  0.1520
   71CHL1    H8 6375   6.000   4.292   3.176  0.8846 -0.2555 -0.9102
   71CHL1   C14 6376   6.079   4.198   3.357 -0.1953  0.5883 -0.5963
   71CHL1   H14 6377   6.173   4.152   3.394 -0.8638 -0.1295  0.2420
   71CHL1   C15 6378   5.981   4.087   3.389 -0.5604  0.0817  0.3731
   71CHL1  H15A 6379   5.884   4.113   3.342 -0.0149  0.1364 -0.7581
   71CHL1  H15B 6380   6.031   3.992   3.359  2.9780  2.2883 -1.4222
   71CHL1   C16 6381   5.959   4.098   3.537  0.4647  0.3459 -0.0294
   71CHL1  H16A 6382   5.849   4.109   3.553 -0.4229 -1.2352 -3.9531
   71CHL1  H16B 6383   5.988   4.005   3.591  0.4450  0.7660  0.7166
   71CHL1   C17 6384   6.039   4.224   3.591 -0.1441 -0.0552 -0.0851
   71CHL1   H17 6385   6.142   4.186   3.611  0.5693  2.3885  1.3002
   71CHL1   C13 6386   6.044   4.315   3.462  0.6793  0.5114 -0.4730
   71CHL1   C18 6387   5.900   4.372   3.432  0.3127  0.7081  0.3979
   71CHL1  H18A 6388   5.904   4.414   3.329  0.6379  1.4990  0.7261
   71CHL1  H18B 6389   5.820   4.295   3.434 -0.3194  1.2696 -1.3462
   71CHL1  H18C 6390   5.864   4.454   3.498 -0.9238  2.1538 -1.9288
   71CHL1   C12 6391   6.150   4.412   3.449 -0.5253  0.2097  0.3918
   71CHL1  H12A 6392   6.148   4.502   3.514  1.2121  0.1472  0.5758
   71CHL1  H12B 6393   6.255   4.377   3.460  0.7764  2.8975 -2.0048
   71CHL1   C11 6394   6.164   4.466   3.306  0.5601  0.3076 -0.3896
   71CHL1  H11A 6395   6.071   4.518   3.273 -0.1440 -1.0016 -0.5385
   71CHL1  H11B 6396   6.252   4.534   3.305 -0.3484  1.5509 -1.7611
   71CHL1    C9 6397   6.194   4.358   3.207 -0.1551 -0.4422 -0.0164
   71CHL1    H9 6398   6.281   4.303   3.248 -0.8308 -1.0814  0.5754
   71CHL1   C10 6399   6.225   4.398   3.066 -0.3639 -0.5969  0.1454
   71CHL1   C19 6400   6.109   4.484   3.012  0.5157  0.4233 -0.1537
   71CHL1  H19A 6401   6.010   4.439   3.035  1.0916 -0.7026  0.2033
   71CHL1  H19B 6402   6.101   4.582   3.065 -0.2990  0.9055 -1.1338
   71CHL1  H19C 6403   6.107   4.498   2.902  1.6419  1.2008 -0.0936
   71CHL1    C1 6404   6.362   4.476   3.058  0.3699  0.4527 -0.7727
   71CHL1   H1A 6405   6.342   4.574   3.106  0.9816  0.9728 -1.5577
   71CHL1   H1B 6406   6.441   4.420   3.112 -0.2314 -1.1434 -1.4698
   71CHL1    C2 6407   6.418   4.504   2.921 -0.2996  0.3433  1.1201
   71CHL1   H2A 6408   6.514   4.560   2.915 -1.2503  1.8995 -1.5113
   71CHL1   H2B 6409   6.344   4.569   2.870  0.1060  0.3822  0.5606
   71CHL1   C20 6410   5.987   4.264   3.728  0.1347  0.4980  0.7515
   71CHL1   H20 6411   5.879   4.289   3.718  0.2206 -0.0002 -3.0084
   71CHL1   C21 6412   6.063   4.395   3.767 -0.3663 -0.2059 -0.0568
   71CHL1  H21A 6413   6.031   4.478   3.701  1.2319  0.2109 -0.3359
   71CHL1  H21B 6414   6.173   4.384   3.755 -0.4320 -2.1939  0.8335
   71CHL1  H21C 6415   6.055   4.415   3.876  0.0469 -1.2535  0.1717
   71CHL1   C22 6416   6.004   4.160   3.839  0.6028 -0.3855  0.3465
   71CHL1  H22A 6417   5.978   4.064   3.790 -2.9495  0.6383 -0.1266
   71CHL1  H22B 6418   6.113   4.150   3.853  0.5769  1.8985  3.2092
   71CHL1   C23 6419   5.925   4.199   3.964 -0.0470 -0.0468 -0.7439
   71CHL1  H23A 6420   5.955   4.294   4.015 -0.5116 -1.4053  2.2933
   71CHL1  H23B 6421   5.821   4.211   3.927  0.1844  1.7970 -0.8842
   71CHL1   C24 6422   5.930   4.087   4.069  0.1766 -0.1433 -0.6635
   71CHL1  H24A 6423   5.889   3.991   4.031 -0.8433  0.2530 -0.5757
   71CHL1  H24B 6424   6.033   4.067   4.107 -0.3427 -0.0669  0.8619
   71CHL1   C25 6425   5.833   4.123   4.192 -0.0063 -0.1717 -0.7572
   71CHL1   H25 6426   5.837   4.234   4.191  1.0857 -0.1513  1.1742
   71CHL1   C26 6427   5.686   4.061   4.173 -0.5764  0.1690 -0.0005
   71CHL1  H26A 6428   5.632   4.109   4.089 -2.5762  0.6100  1.4652
   71CHL1  H26B 6429   5.689   3.951   4.155  0.5030  0.4493 -1.7674
   71CHL1  H26C 6430   5.631   4.076   4.268  0.5546  1.5859  0.4676
   71CHL1   C27 6431   5.880   4.065   4.328  0.5833 -0.1872  0.2909
   71CHL1  H27A 6432   5.795   4.076   4.398 -1.3314  1.4617 -2.1166
   71CHL1  H27B 6433   5.897   3.957   4.313 -0.3559  0.0002 -3.0408
   71CHL1  H27C 6434   5.971   4.115   4.369 -0.7646  0.4022  2.7942
   72CHL1    C3 6435   1.143   4.221   3.027 -0.5643  0.3608 -0.1912
   72CHL1    H3 6436   1.204   4.135   3.062 -1.0410 -0.4305 -1.2432
   72CHL1    O3 6437   1.174   4.237   2.891 -0.1859  0.2855  0.4858
   72CHL1   H3' 6438   1.086   4.225   2.854  0.3554 -1.2593 -0.4198
   72CHL1    C4 6439   0.990   4.183   3.035 -0.6738 -0.1176 -1.3713
   72CHL1   H4A 6440   0.936   4.252   2.966 -2.0366 -0.8607 -1.0904
   72CHL1   H4B 6441   0.978   4.082   2.992 -1.5320 -0.6616  0.0699
   72CHL1    C5 6442   0.938   4.182   3.174 -0.5262 -0.4407  0.0034
   72CHL1    C6 6443   0.865   4.078   3.216  0.2482  0.3291  0.2135
   72CHL1    H6 6444   0.841   3.999   3.144 -3.8824  0.2263  1.4855
   72CHL1    C7 6445   0.809   4.071   3.357  0.5869 -0.2187 -0.0703
   72CHL1   H7A 6446   0.702   4.042   3.346  1.1884 -1.9105 -2.3427
   72CHL1   H7B 6447   0.867   3.992   3.409 -0.3010  0.3279  1.8441
   72CHL1    C8 6448   0.812   4.199   3.443 -0.2327 -0.4063 -0.7614
   72CHL1    H8 6449   0.729   4.258   3.400  0.4174  0.9286 -0.2199
   72CHL1   C14 6450   0.797   4.175   3.589  0.6897  0.0817  0.0885
   72CHL1   H14 6451   0.884   4.115   3.624  0.2425 -0.6077  0.0447
   72CHL1   C15 6452   0.676   4.091   3.640  0.2526 -0.1047 -0.0626
   72CHL1  H15A 6453   0.581   4.117   3.589 -0.0244  1.8717  1.3331
   72CHL1  H15B 6454   0.674   3.982   3.619 -1.2225 -0.1752  0.2861
   72CHL1   C16 6455   0.669   4.130   3.794 -0.0282 -0.2736 -0.2574
   72CHL1  H16A 6456   0.566   4.161   3.820  0.4187  1.2151 -0.1457
   72CHL1  H16B 6457   0.713   4.051   3.858  1.7213  0.7649 -0.0959
   72CHL1   C17 6458   0.765   4.255   3.812 -0.1323  0.0054 -0.2668
   72CHL1   H17 6459   0.860   4.207   3.843  0.4444  0.9869 -0.5053
   72CHL1   C13 6460   0.803   4.308   3.669 -0.9480 -0.6177 -0.5242
   72CHL1   C18 6461   0.682   4.396   3.618  0.4688 -0.0219  0.6910
   72CHL1  H18A 6462   0.586   4.341   3.622  0.4379  0.0482  0.9251
   72CHL1  H18B 6463   0.660   4.492   3.670 -1.8549 -0.6855  1.0564
   72CHL1  H18C 6464   0.692   4.436   3.515  0.2375 -0.3409  0.5464
   72CHL1   C12 6465   0.935   4.386   3.644  0.6696 -0.0947 -0.5945
   72CHL1  H12A 6466   0.944   4.479   3.703  0.4768 -0.8001  0.5827
   72CHL1  H12B 6467   1.023   4.323   3.672  0.2967  0.8479  3.1339
   72CHL1   C11 6468   0.958   4.407   3.495  0.5121 -0.0867  0.2253
   72CHL1  H11A 6469   0.885   4.480   3.454  0.0930  1.3212  3.2278
   72CHL1  H11B 6470   1.060   4.451   3.487  0.2457  1.3661  3.2810
   72CHL1    C9 6471   0.944   4.273   3.413  0.1261 -0.1091 -0.3442
   72CHL1    H9 6472   1.020   4.200   3.448  1.0127 -0.3281 -2.5199
   72CHL1   C10 6473   0.970   4.311   3.262  0.1545 -0.0119 -0.5778
   72CHL1   C19 6474   0.872   4.420   3.210  0.6477 -0.0554 -0.3942
   72CHL1  H19A 6475   0.918   4.517   3.239  0.3514  0.2193 -0.8285
   72CHL1  H19B 6476   0.855   4.425   3.101 -0.0696  0.8614 -0.2497
   72CHL1  H19C 6477   0.771   4.412   3.257  1.1880 -0.2390  0.7775
   72CHL1    C1 6478   1.121   4.351   3.243 -0.5193 -0.4393 -0.9069
   72CHL1   H1A 6479   1.139   4.449   3.292  2.0345 -0.9222 -0.7594
   72CHL1   H1B 6480   1.186   4.272   3.287  0.6672  0.0172 -1.7844
   72CHL1    C2 6481   1.164   4.359   3.097  0.4905 -0.2222 -0.2321
   72CHL1   H2A 6482   1.272   4.382   3.088  0.6506 -1.3864 -2.0440
   72CHL1   H2B 6483   1.094   4.424   3.040  0.3766 -0.5930 -0.5257
   72CHL1   C20 6484   0.714   4.345   3.922 -0.1087  0.0674  0.2155
   72CHL1   H20 6485   0.615   4.387   3.894  1.6149  2.2666 -3.2006
   72CHL1   C21 6486   0.804   4.463   3.938  0.0278  0.5437  0.4040
   72CHL1  H21A 6487   0.901   4.428   3.980  0.6741 -2.1577 -2.8936
   72CHL1  H21B 6488   0.757   4.528   4.014 -1.0405 -0.2812  0.4685
   72CHL1  H21C 6489   0.819   4.529   3.850 -0.1533  0.0182 -0.0274
   72CHL1   C22 6490   0.693   4.275   4.054  0.1880 -0.1645  0.7555
   72CHL1  H22A 6491   0.618   4.193   4.043 -2.0134  1.6527  1.3977
   72CHL1  H22B 6492   0.789   4.235   4.092 -0.0862  0.0233  1.6772
   72CHL1   C23 6493   0.634   4.362   4.167  0.2149 -0.1690 -0.2351
   72CHL1  H23A 6494   0.689   4.458   4.175 -1.3757  0.9018 -1.6432
   72CHL1  H23B 6495   0.530   4.392   4.141 -0.2099 -0.4953  1.0026
   72CHL1   C24 6496   0.633   4.290   4.300  0.3857 -0.4174 -0.2414
   72CHL1  H24A 6497   0.573   4.197   4.293  1.3531 -0.9384 -3.1716
   72CHL1  H24B 6498   0.735   4.253   4.322  0.4617  0.4595  0.9957
   72CHL1   C25 6499   0.604   4.377   4.427  0.2360 -0.0804 -0.0138
   72CHL1   H25 6500   0.510   4.431   4.405  0.6283  1.4602  1.8629
   72CHL1   C26 6501   0.583   4.281   4.543  0.4281  0.6253 -0.0682
   72CHL1  H26A 6502   0.579   4.338   4.639  1.0504 -0.9013  0.9002
   72CHL1  H26B 6503   0.482   4.235   4.545 -0.0028  1.5418 -0.4660
   72CHL1  H26C 6504   0.667   4.210   4.554  1.4950  1.8756  0.1320
   72CHL1   C27 6505   0.721   4.476   4.463 -0.2274 -0.2188  0.7412
   72CHL1  H27A 6506   0.693   4.549   4.542 -2.2134 -0.2949  0.1665
   72CHL1  H27B 6507   0.805   4.423   4.512  0.2748  0.0902  0.2259
   72CHL1  H27C 6508   0.751   4.534   4.373  3.5661 -1.8918  0.7525
   73CHL1    C3 6509   1.056   3.719   2.970  0.4530  0.0173 -0.0052
   73CHL1    H3 6510   1.034   3.828   2.975  0.1863  0.2181 -3.2547
   73CHL1    O3 6511   1.072   3.680   2.835  0.3197 -0.2006 -0.4801
   73CHL1   H3' 6512   1.162   3.708   2.816  0.1957 -0.3485 -1.3236
   73CHL1    C4 6513   1.181   3.707   3.050  0.0540  0.0498  0.1267
   73CHL1   H4A 6514   1.227   3.607   3.031 -1.4459 -0.9867  1.6597
   73CHL1   H4B 6515   1.260   3.772   3.007  0.2165  0.1258  0.5399
   73CHL1    C5 6516   1.157   3.733   3.196 -0.9585  0.0735 -0.7965
   73CHL1    C6 6517   1.219   3.836   3.249 -0.2305  0.3943  0.9392
   73CHL1    H6 6518   1.286   3.894   3.183  0.9409 -3.1924 -1.2876
   73CHL1    C7 6519   1.208   3.867   3.394  0.8391 -0.6625 -0.4880
   73CHL1   H7A 6520   1.310   3.894   3.430  0.7272  0.2040 -0.7918
   73CHL1   H7B 6521   1.142   3.952   3.421 -1.0794 -2.3914  0.5085
   73CHL1    C8 6522   1.143   3.749   3.481 -0.2388 -0.3611 -0.3463
   73CHL1    H8 6523   1.214   3.666   3.504  0.8842  1.2658  2.6467
   73CHL1   C14 6524   1.101   3.802   3.618 -0.3403 -0.3267  0.2948
   73CHL1   H14 6525   1.023   3.874   3.588 -1.2217 -2.3843 -2.8664
   73CHL1   C15 6526   1.200   3.874   3.708  0.5590 -0.0095  0.5650
   73CHL1  H15A 6527   1.297   3.821   3.699  0.3612 -0.1807 -0.7124
   73CHL1  H15B 6528   1.214   3.981   3.680  1.2894 -0.6662 -1.7840
   73CHL1   C16 6529   1.147   3.862   3.848 -0.2601 -0.9312  0.3753
   73CHL1  H16A 6530   1.219   3.809   3.914 -0.2837 -1.5682 -0.1087
   73CHL1  H16B 6531   1.120   3.960   3.894  1.2225 -1.1425  1.7877
   73CHL1   C17 6532   1.015   3.778   3.844  0.3782 -0.2217  0.2808
   73CHL1   H17 6533   0.934   3.853   3.830  0.6971  0.1610  0.4330
   73CHL1   C13 6534   1.022   3.702   3.712  0.3481 -0.4399  0.3892
   73CHL1   C18 6535   1.116   3.576   3.735  0.0491 -0.0150 -0.5342
   73CHL1  H18A 6536   1.066   3.506   3.805 -2.2792  1.0550 -1.0090
   73CHL1  H18B 6537   1.134   3.515   3.644  0.7016 -0.3108 -0.2094
   73CHL1  H18C 6538   1.217   3.599   3.774  0.3550 -0.2806 -1.1708
   73CHL1   C12 6539   0.889   3.665   3.637  0.0792 -0.0473 -0.9275
   73CHL1  H12A 6540   0.833   3.583   3.688  0.3785 -0.1221 -0.7176
   73CHL1  H12B 6541   0.826   3.754   3.617  2.0639  1.5772 -0.3466
   73CHL1   C11 6542   0.922   3.610   3.501  0.4186 -0.1665  0.8976
   73CHL1  H11A 6543   0.969   3.510   3.515 -1.5498 -1.4676 -1.1186
   73CHL1  H11B 6544   0.834   3.578   3.443  0.8327  0.4715 -0.1116
   73CHL1    C9 6545   1.012   3.705   3.410  0.2917  0.2645  0.0077
   73CHL1    H9 6546   0.949   3.795   3.397 -0.1134 -0.0211 -0.0382
   73CHL1   C10 6547   1.040   3.649   3.267 -0.7019 -0.8883 -0.0819
   73CHL1   C19 6548   1.084   3.501   3.270 -0.2870  0.0730 -0.2129
   73CHL1  H19A 6549   1.120   3.461   3.173 -0.1060 -2.4955  0.8388
   73CHL1  H19B 6550   1.166   3.481   3.341 -0.4406  1.3302  0.3421
   73CHL1  H19C 6551   0.998   3.434   3.293 -0.7216  0.6128 -0.2517
   73CHL1    C1 6552   0.916   3.672   3.175  0.1748  0.4859  0.0685
   73CHL1   H1A 6553   0.831   3.608   3.206 -0.7841  1.5404 -0.3475
   73CHL1   H1B 6554   0.868   3.772   3.180 -2.6323 -0.6439 -1.8241
   73CHL1    C2 6555   0.935   3.635   3.028  0.2006 -0.0940  0.2087
   73CHL1   H2A 6556   0.844   3.658   2.969  0.3027  0.1844  0.1627
   73CHL1   H2B 6557   0.952   3.525   3.018 -0.7075 -0.3992  1.6629
   73CHL1   C20 6558   0.982   3.713   3.977 -0.2337 -0.3214  0.1916
   73CHL1   H20 6559   1.069   3.645   3.993 -1.5866 -2.8714 -2.4496
   73CHL1   C21 6560   0.851   3.631   3.954 -0.5878 -0.5168  0.3522
   73CHL1  H21A 6561   0.775   3.692   3.901 -0.9522 -1.0996  0.1900
   73CHL1  H21B 6562   0.798   3.597   4.046 -4.1346  1.0506 -0.9418
   73CHL1  H21C 6563   0.894   3.554   3.887  1.4456  2.7414 -2.4350
   73CHL1   C22 6564   0.964   3.818   4.092 -0.2041 -0.3730  0.1221
   73CHL1  H22A 6565   1.053   3.884   4.091 -1.9282  2.1262  1.1504
   73CHL1  H22B 6566   0.875   3.881   4.070 -0.7683 -0.9913  0.6127
   73CHL1   C23 6567   0.951   3.740   4.220 -0.2234 -0.5915  0.3755
   73CHL1  H23A 6568   0.933   3.635   4.188  0.3729  0.0726 -2.4582
   73CHL1  H23B 6569   1.045   3.745   4.279 -0.5562  1.5217  0.8000
   73CHL1   C24 6570   0.841   3.793   4.313  1.0232 -0.6221  0.2530
   73CHL1  H24A 6571   0.863   3.897   4.344 -0.8670 -0.1497  0.1572
   73CHL1  H24B 6572   0.746   3.800   4.254  0.1816  2.0346  1.7879
   73CHL1   C25 6573   0.812   3.713   4.438  0.3272  0.1094 -0.4515
   73CHL1   H25 6574   0.910   3.718   4.490  0.0205  1.1815  0.0429
   73CHL1   C26 6575   0.690   3.768   4.514  0.5402 -0.5747 -0.6469
   73CHL1  H26A 6576   0.670   3.701   4.600 -2.7409 -0.1538 -0.9634
   73CHL1  H26B 6577   0.691   3.873   4.548 -0.1785 -0.6568 -0.3714
   73CHL1  H26C 6578   0.600   3.761   4.450  0.3710  0.6963 -0.5655
   73CHL1   C27 6579   0.777   3.563   4.394 -0.1070 -0.2847 -0.0489
   73CHL1  H27A 6580   0.860   3.521   4.334 -1.6184 -1.3163 -1.5232
   73CHL1  H27B 6581   0.773   3.494   4.481 -2.1576  0.9069  0.8913
   73CHL1  H27C 6582   0.692   3.549   4.324 -1.5346  0.7482  1.3833
   74CHL1    C3 6583   0.343   3.368   2.435  0.5447  0.1752 -0.9933
   74CHL1    H3 6584   0.424   3.299   2.465 -1.3007 -1.3027  0.8939
   74CHL1    O3 6585   0.296   3.369   2.306 -0.5544 -0.0197 -0.1108
   74CHL1   H3' 6586   0.237   3.445   2.299 -0.7020  0.0098  1.1602
   74CHL1    C4 6587   0.225   3.355   2.532 -0.1886 -0.7384  0.9491
   74CHL1   H4A 6588   0.158   3.437   2.498  0.2610 -0.9368 -0.4560
   74CHL1   H4B 6589   0.168   3.261   2.516 -2.3096  0.6332  0.0724
   74CHL1    C5 6590   0.270   3.363   2.677 -0.0739  0.1238 -0.7842
   74CHL1    C6 6591   0.246   3.261   2.761 -0.4650  0.1089  0.1157
   74CHL1    H6 6592   0.206   3.164   2.726  0.0535 -1.1389  2.7092
   74CHL1    C7 6593   0.284   3.272   2.911 -0.2404 -0.7287 -0.0189
   74CHL1   H7A 6594   0.195   3.237   2.968 -0.1029  0.4118  0.9360
   74CHL1   H7B 6595   0.373   3.210   2.937  0.5971  0.7649  0.7705
   74CHL1    C8 6596   0.325   3.422   2.958 -0.3628  0.4401  0.2943
   74CHL1    H8 6597   0.230   3.479   2.970  0.0190  1.2986 -0.6347
   74CHL1   C14 6598   0.391   3.427   3.098  0.5205 -1.1264  0.3979
   74CHL1   H14 6599   0.478   3.359   3.095  0.3207 -1.3715  0.1228
   74CHL1   C15 6600   0.311   3.369   3.212 -0.2993  0.0396 -0.6177
   74CHL1  H15A 6601   0.201   3.373   3.193 -0.3153  0.6458 -0.4290
   74CHL1  H15B 6602   0.330   3.260   3.216 -1.8580 -0.2597 -0.4861
   74CHL1   C16 6603   0.375   3.439   3.332  0.2044 -0.1968  0.0358
   74CHL1  H16A 6604   0.302   3.502   3.385  0.0785 -0.3738  0.0745
   74CHL1  H16B 6605   0.416   3.367   3.407 -1.0913  0.2636  1.2267
   74CHL1   C17 6606   0.481   3.540   3.283 -0.5033 -0.4771 -0.0133
   74CHL1   H17 6607   0.578   3.486   3.281  0.5787  1.3860 -0.3715
   74CHL1   C13 6608   0.437   3.565   3.142  0.2658  0.1238  0.4734
   74CHL1   C18 6609   0.315   3.663   3.144 -0.2242 -0.3172 -0.0457
   74CHL1  H18A 6610   0.365   3.759   3.172  0.4280 -1.2048  2.0008
   74CHL1  H18B 6611   0.268   3.671   3.044  0.4558 -1.9459 -0.5282
   74CHL1  H18C 6612   0.244   3.630   3.223 -0.4342 -0.5858 -0.3454
   74CHL1   C12 6613   0.548   3.604   3.040  0.0126 -0.5550  0.1464
   74CHL1  H12A 6614   0.590   3.702   3.072  2.1886 -1.1050 -0.8176
   74CHL1  H12B 6615   0.620   3.522   3.060  0.5152 -0.0476  0.4471
   74CHL1   C11 6616   0.488   3.617   2.896 -0.4011 -0.7104 -0.3093
   74CHL1  H11A 6617   0.430   3.711   2.910 -0.1477 -0.6170  0.1300
   74CHL1  H11B 6618   0.570   3.634   2.823 -0.8539  1.4365 -0.3927
   74CHL1    C9 6619   0.416   3.484   2.850  0.2505 -0.1695 -0.1143
   74CHL1    H9 6620   0.502   3.416   2.836  0.5360  0.3097 -0.7419
   74CHL1   C10 6621   0.345   3.487   2.718 -1.2513  0.2571 -0.6636
   74CHL1   C19 6622   0.248   3.610   2.721 -0.1927  0.2831  0.5028
   74CHL1  H19A 6623   0.304   3.703   2.695 -0.5465 -0.4062 -3.2591
   74CHL1  H19B 6624   0.167   3.611   2.645  0.3485 -1.5381 -0.1510
   74CHL1  H19C 6625   0.212   3.630   2.824  1.7737  0.2108  1.2558
   74CHL1    C1 6626   0.455   3.512   2.605  0.6174 -0.3067  0.5465
   74CHL1   H1A 6627   0.507   3.609   2.621 -0.8477  0.7628 -0.7777
   74CHL1   H1B 6628   0.532   3.433   2.604  1.6082  0.6329  0.0403
   74CHL1    C2 6629   0.401   3.510   2.467 -0.1679 -0.4645 -0.3018
   74CHL1   H2A 6630   0.486   3.546   2.404 -0.5889 -0.7581 -1.0570
   74CHL1   H2B 6631   0.321   3.586   2.461 -2.1038 -2.5087 -3.0405
   74CHL1   C20 6632   0.496   3.661   3.382 -0.0966  0.7886 -0.2332
   74CHL1   H20 6633   0.396   3.705   3.401  0.8803  2.1620  2.3277
   74CHL1   C21 6634   0.600   3.773   3.352 -0.4490  0.2135  0.1370
   74CHL1  H21A 6635   0.557   3.813   3.257 -1.2843 -1.1540 -0.0951
   74CHL1  H21B 6636   0.705   3.739   3.342 -0.9632 -1.7226  0.8651
   74CHL1  H21C 6637   0.594   3.844   3.437 -1.8155  0.4683 -0.1438
   74CHL1   C22 6638   0.534   3.612   3.530  0.4207 -0.2486  0.5694
   74CHL1  H22A 6639   0.479   3.518   3.548 -1.2229  0.7945  1.2608
   74CHL1  H22B 6640   0.639   3.576   3.525  0.1392 -0.9050 -1.5981
   74CHL1   C23 6641   0.510   3.711   3.641 -0.3176 -0.4604  0.0045
   74CHL1  H23A 6642   0.584   3.794   3.645 -0.1650 -0.5616 -0.6062
   74CHL1  H23B 6643   0.416   3.768   3.623  1.4836  3.0648  0.7008
   74CHL1   C24 6644   0.503   3.635   3.772 -0.3970 -0.0137 -0.8097
   74CHL1  H24A 6645   0.447   3.540   3.757  1.6192 -1.1867 -1.3644
   74CHL1  H24B 6646   0.607   3.608   3.799 -0.8894  0.0477  1.2849
   74CHL1   C25 6647   0.443   3.706   3.900  0.3811 -0.7116  0.5139
   74CHL1   H25 6648   0.501   3.798   3.919 -1.5549  1.1813 -1.9776
   74CHL1   C26 6649   0.292   3.759   3.890 -0.0200  0.1029 -0.0625
   74CHL1  H26A 6650   0.280   3.805   3.790 -2.1466  1.0238  0.5530
   74CHL1  H26B 6651   0.227   3.674   3.921  0.3178 -0.2439 -0.3057
   74CHL1  H26C 6652   0.279   3.841   3.965  2.6051 -0.5524  1.2343
   74CHL1   C27 6653   0.452   3.620   4.026  0.3563  0.7966 -0.1545
   74CHL1  H27A 6654   0.385   3.660   4.104 -1.5890 -0.6092 -1.0182
   74CHL1  H27B 6655   0.409   3.519   4.013 -0.4662  1.3371 -1.9266
   74CHL1  H27C 6656   0.557   3.599   4.056  0.3283  0.5235 -0.2429
   75CHL1    C3 6657   1.623   2.568   2.807  0.2017  0.0638 -0.4234
   75CHL1    H3 6658   1.580   2.465   2.812  0.9512 -0.2584 -0.5263
   75CHL1    O3 6659   1.669   2.580   2.676 -0.9305  0.6801  0.1924
   75CHL1   H3' 6660   1.723   2.659   2.682  0.1606 -0.1024  0.9913
   75CHL1    C4 6661   1.514   2.666   2.837 -0.1177  0.1196  0.5334
   75CHL1   H4A 6662   1.529   2.773   2.811 -2.5635  0.7325  1.3827
   75CHL1   H4B 6663   1.437   2.622   2.770 -0.4053  0.1463  0.8462
   75CHL1    C5 6664   1.471   2.664   2.983  0.0758  0.6254  0.1677
   75CHL1    C6 6665   1.345   2.631   3.011 -0.3621 -0.5451  0.1242
   75CHL1    H6 6666   1.272   2.622   2.929 -1.0615  0.1480  0.6541
   75CHL1    C7 6667   1.289   2.635   3.151 -0.4520 -0.2043  0.5141
   75CHL1   H7A 6668   1.209   2.712   3.159 -0.4190 -0.1346  0.1738
   75CHL1   H7B 6669   1.244   2.537   3.179  2.1162 -1.7505 -0.3956
   75CHL1    C8 6670   1.398   2.687   3.253 -0.6496  0.6640 -0.5281
   75CHL1    H8 6671   1.409   2.796   3.239  0.2348  0.4614 -1.5189
   75CHL1   C14 6672   1.361   2.641   3.394  0.4659 -0.2648  0.5697
   75CHL1   H14 6673   1.360   2.530   3.399 -1.8836 -0.3626 -0.5464
   75CHL1   C15 6674   1.216   2.692   3.431 -0.1439 -0.3665  0.1860
   75CHL1  H15A 6675   1.195   2.797   3.402 -0.6191 -0.9457 -1.6776
   75CHL1  H15B 6676   1.142   2.622   3.389 -0.1718 -0.6014  0.6279
   75CHL1   C16 6677   1.217   2.670   3.582 -0.4774 -0.2394  0.1840
   75CHL1  H16A 6678   1.196   2.768   3.630  0.2434  0.4727 -0.9099
   75CHL1  H16B 6679   1.144   2.590   3.608  1.3945 -2.0941  0.0013
   75CHL1   C17 6680   1.361   2.630   3.619 -0.3645  0.8931  0.4993
   75CHL1   H17 6681   1.354   2.520   3.604  0.5381  1.0524 -1.3017
   75CHL1   C13 6682   1.455   2.687   3.507  0.0039 -0.4154  0.7010
   75CHL1   C18 6683   1.461   2.847   3.525  0.2123  0.1973 -0.1458
   75CHL1  H18A 6684   1.496   2.901   3.434 -3.1082  0.6633 -1.2814
   75CHL1  H18B 6685   1.362   2.896   3.540  0.0814  0.5572 -1.9510
   75CHL1  H18C 6686   1.513   2.870   3.620 -0.8176  0.6158  0.3320
   75CHL1   C12 6687   1.591   2.629   3.482  0.0245 -0.2617 -0.0729
   75CHL1  H12A 6688   1.669   2.672   3.549  0.2116  0.0403 -0.4822
   75CHL1  H12B 6689   1.596   2.519   3.495 -1.3526 -0.1577  1.7346
   75CHL1   C11 6690   1.640   2.662   3.338  0.4432  0.4594 -0.1553
   75CHL1  H11A 6691   1.652   2.773   3.344 -1.0402  0.6045  0.6207
   75CHL1  H11B 6692   1.738   2.615   3.316  0.0953  0.4818 -1.9184
   75CHL1    C9 6693   1.545   2.625   3.225 -0.3845 -0.1512 -0.6099
   75CHL1    H9 6694   1.523   2.516   3.230  2.7168 -0.9245 -1.6336
   75CHL1   C10 6695   1.590   2.662   3.084  0.0863 -0.2134 -0.8229
   75CHL1   C19 6696   1.640   2.810   3.083 -0.1561 -0.1788 -1.0080
   75CHL1  H19A 6697   1.722   2.826   3.156 -0.8628  1.9482 -0.6232
   75CHL1  H19B 6698   1.674   2.848   2.984  1.7025  1.3707  0.1741
   75CHL1  H19C 6699   1.554   2.877   3.104  0.7881  1.3625 -1.9051
   75CHL1    C1 6700   1.705   2.564   3.046  0.3395  0.4454 -0.8659
   75CHL1   H1A 6701   1.792   2.584   3.112 -0.1450 -0.2343 -0.0064
   75CHL1   H1B 6702   1.682   2.457   3.059 -1.6750  1.0529  1.1123
   75CHL1    C2 6703   1.746   2.577   2.893 -0.5433 -0.4614 -0.4460
   75CHL1   H2A 6704   1.825   2.501   2.874 -0.9843 -1.4617  1.4181
   75CHL1   H2B 6705   1.792   2.678   2.893  0.7453 -0.9732  1.6806
   75CHL1   C20 6706   1.396   2.657   3.767 -0.0475 -0.4827 -0.6627
   75CHL1   H20 6707   1.394   2.766   3.786 -2.5086 -0.6838  0.6721
   75CHL1   C21 6708   1.533   2.603   3.803  0.0169 -0.3886 -0.3675
   75CHL1  H21A 6709   1.565   2.610   3.909  0.1712 -0.5573 -0.4026
   75CHL1  H21B 6710   1.610   2.661   3.746 -1.3547  1.6481 -0.2697
   75CHL1  H21C 6711   1.530   2.498   3.767  0.3134 -0.5785  0.1548
   75CHL1   C22 6712   1.292   2.609   3.871 -0.7560 -0.1895  0.1704
   75CHL1  H22A 6713   1.191   2.599   3.825 -1.5961  0.6515  1.7599
   75CHL1  H22B 6714   1.325   2.504   3.890 -1.6231 -0.4661  0.2105
   75CHL1   C23 6715   1.291   2.681   4.004  0.8621  0.6520  0.0329
   75CHL1  H23A 6716   1.389   2.672   4.056 -0.3684 -2.1399  2.1824
   75CHL1  H23B 6717   1.268   2.788   3.985  2.0499  1.6094  3.2736
   75CHL1   C24 6718   1.177   2.639   4.094  0.3022 -0.1280  0.3847
   75CHL1  H24A 6719   1.082   2.663   4.040  0.5171  1.9802  0.8788
   75CHL1  H24B 6720   1.185   2.529   4.107 -1.9139 -0.2726  0.9216
   75CHL1   C25 6721   1.169   2.710   4.229 -0.5219 -0.0826  0.3163
   75CHL1   H25 6722   1.267   2.680   4.272  0.6603  1.5598 -1.1012
   75CHL1   C26 6723   1.153   2.861   4.209 -0.4998 -0.6055  0.1778
   75CHL1  H26A 6724   1.245   2.907   4.167 -1.4249  3.0806  1.7790
   75CHL1  H26B 6725   1.070   2.894   4.143  0.4999 -1.0988 -1.3697
   75CHL1  H26C 6726   1.137   2.903   4.310 -2.2264 -0.9751  0.0852
   75CHL1   C27 6727   1.058   2.643   4.318  0.0905 -0.4517 -0.0285
   75CHL1  H27A 6728   1.080   2.677   4.422 -3.0314  2.3939 -0.1262
   75CHL1  H27B 6729   0.956   2.682   4.300  0.1839  1.0591  2.2428
   75CHL1  H27C 6730   1.058   2.533   4.328  0.0513 -0.6613 -1.9551
   76CHL1    C3 6731   1.240   5.350   3.010 -0.2742  0.6249 -0.2511
   76CHL1    H3 6732   1.227   5.460   3.009 -0.0577  0.7031 -2.8784
   76CHL1    O3 6733   1.267   5.321   2.874 -0.4318  0.0909  0.4973
   76CHL1   H3' 6734   1.187   5.331   2.822 -0.5719  3.2193  1.1438
   76CHL1    C4 6735   1.370   5.300   3.089  0.3218  0.0940 -0.2964
   76CHL1   H4A 6736   1.355   5.191   3.074  0.4270  0.2730 -1.8802
   76CHL1   H4B 6737   1.460   5.338   3.037  0.1859  0.1087 -0.5228
   76CHL1    C5 6738   1.342   5.343   3.230 -0.5955  0.0148  0.2540
   76CHL1    C6 6739   1.425   5.428   3.286  0.2270 -0.1670  0.0333
   76CHL1    H6 6740   1.512   5.465   3.230 -1.0707 -0.2740 -2.1793
   76CHL1    C7 6741   1.410   5.467   3.433  0.1328  0.1209 -0.4488
   76CHL1   H7A 6742   1.513   5.468   3.474  0.7305 -1.0245 -1.8090
   76CHL1   H7B 6743   1.368   5.570   3.433 -0.2966 -0.0300  1.0560
   76CHL1    C8 6744   1.313   5.381   3.523  0.9480 -0.3388  0.7150
   76CHL1    H8 6745   1.372   5.291   3.550 -0.2303 -1.2026  0.4817
   76CHL1   C14 6746   1.270   5.457   3.651 -0.1397  0.2641 -1.0584
   76CHL1   H14 6747   1.224   5.552   3.615  0.2410  0.5660 -0.7616
   76CHL1   C15 6748   1.388   5.507   3.732 -0.2446 -0.5737  0.5539
   76CHL1  H15A 6749   1.474   5.437   3.727  1.2832  1.2441  0.2239
   76CHL1  H15B 6750   1.418   5.607   3.695 -1.6945 -0.3435 -0.0352
   76CHL1   C16 6751   1.336   5.512   3.870 -0.2647 -0.6954 -0.0698
   76CHL1  H16A 6752   1.397   5.445   3.934 -0.3442  0.7277  1.5790
   76CHL1  H16B 6753   1.334   5.611   3.921 -0.0437  0.9081 -2.9826
   76CHL1   C17 6754   1.184   5.462   3.867  0.3898 -0.1423  1.1790
   76CHL1   H17 6755   1.135   5.558   3.839  0.8202  0.0348  1.0262
   76CHL1   C13 6756   1.185   5.371   3.742 -0.0196 -0.7222  0.4342
   76CHL1   C18 6757   1.261   5.246   3.775 -0.6725 -0.4610 -0.6772
   76CHL1  H18A 6758   1.210   5.188   3.854  2.2541 -1.4991  0.5768
   76CHL1  H18B 6759   1.263   5.185   3.682 -1.7383 -0.1643 -0.9036
   76CHL1  H18C 6760   1.368   5.263   3.800 -0.2126 -1.5599 -1.7524
   76CHL1   C12 6761   1.054   5.334   3.670 -0.4718  0.2910  0.7544
   76CHL1  H12A 6762   0.989   5.264   3.727 -2.1880 -0.2841 -1.7421
   76CHL1  H12B 6763   0.999   5.428   3.650  0.0882  0.3112 -0.7793
   76CHL1   C11 6764   1.082   5.261   3.535 -0.1698  0.2923  0.2780
   76CHL1  H11A 6765   1.118   5.160   3.564  1.7293  1.7240  3.5261
   76CHL1  H11B 6766   0.989   5.253   3.476 -0.3342  0.4324  0.5154
   76CHL1    C9 6767   1.184   5.348   3.444  0.6381  0.2749 -0.1065
   76CHL1    H9 6768   1.124   5.439   3.420  2.7701  1.4305 -1.3555
   76CHL1   C10 6769   1.216   5.282   3.305  0.1220 -0.4789 -0.2287
   76CHL1   C19 6770   1.246   5.132   3.321 -0.1871  0.2014  0.0215
   76CHL1  H19A 6771   1.328   5.126   3.396  0.0787 -0.1856 -0.2970
   76CHL1  H19B 6772   1.163   5.067   3.357 -0.1905  1.0034  1.5558
   76CHL1  H19C 6773   1.283   5.081   3.230  2.4713 -0.1780  1.2020
   76CHL1    C1 6774   1.097   5.316   3.204 -0.0532 -0.2783 -1.3253
   76CHL1   H1A 6775   1.011   5.259   3.244 -0.4529  1.3605  0.2984
   76CHL1   H1B 6776   1.086   5.427   3.209 -1.9728 -0.2429 -4.0860
   76CHL1    C2 6777   1.113   5.287   3.050  0.3972  0.6205 -0.1379
   76CHL1   H2A 6778   1.020   5.319   2.997 -1.0073 -1.1276  1.1474
   76CHL1   H2B 6779   1.106   5.177   3.038  0.8934  0.6677 -0.9288
   76CHL1   C20 6780   1.138   5.408   4.007 -0.3841  0.3771  0.3226
   76CHL1   H20 6781   1.184   5.307   4.010 -2.9973 -0.8843  2.1987
   76CHL1   C21 6782   0.984   5.396   4.002 -0.0698 -0.6210  0.1796
   76CHL1  H21A 6783   0.923   5.393   3.909 -4.0348  1.6578  2.4363
   76CHL1  H21B 6784   0.945   5.476   4.068 -0.5445 -0.7578  0.0698
   76CHL1  H21C 6785   0.971   5.306   4.066  0.1770 -0.9718 -0.2508
   76CHL1   C22 6786   1.185   5.481   4.139 -0.0228 -0.2163  0.3254
   76CHL1  H22A 6787   1.295   5.479   4.149  0.0458  0.9306 -0.0540
   76CHL1  H22B 6788   1.151   5.586   4.133  2.0018  0.4107 -2.6978
   76CHL1   C23 6789   1.127   5.426   4.274  0.1745 -0.0422 -0.8794
   76CHL1  H23A 6790   1.024   5.390   4.254 -0.1222 -0.8736  1.7997
   76CHL1  H23B 6791   1.191   5.341   4.305  1.4228  0.8026 -1.0688
   76CHL1   C24 6792   1.129   5.528   4.389 -0.3568 -0.9705 -0.8673
   76CHL1  H24A 6793   1.052   5.604   4.362 -1.3705 -1.1055  1.3990
   76CHL1  H24B 6794   1.102   5.462   4.474  1.4919 -1.1753 -0.3939
   76CHL1   C25 6795   1.268   5.591   4.423  1.1048 -0.2003 -1.1937
   76CHL1   H25 6796   1.308   5.628   4.326  3.2256  1.1650  0.1087
   76CHL1   C26 6797   1.232   5.726   4.500 -0.1132  0.0624  0.1993
   76CHL1  H26A 6798   1.156   5.784   4.443 -0.3965  0.2198  0.7218
   76CHL1  H26B 6799   1.185   5.705   4.599  1.5697  0.3766  1.1044
   76CHL1  H26C 6800   1.315   5.799   4.511  1.3419 -1.2303 -1.6135
   76CHL1   C27 6801   1.365   5.506   4.498 -0.7622 -0.2754  0.0325
   76CHL1  H27A 6802   1.415   5.427   4.438  2.6756  1.2606  0.6169
   76CHL1  H27B 6803   1.451   5.567   4.534  0.0631 -1.1570 -0.4010
   76CHL1  H27C 6804   1.310   5.471   4.588 -1.2693  2.6193  0.9595
   77SOPE     N 6805   3.536   3.015   6.707 -0.6346  0.1337 -0.0350
   77SOPE   HN1 6806   3.567   2.916   6.712 -0.6395  0.0239 -1.6823
   77SOPE   HN2 6807   3.590   3.050   6.789  1.8613 -1.9126 -0.6887
   77SOPE   HN3 6808   3.433   3.017   6.718 -0.5278  1.8711  1.0145
   77SOPE   C12 6809   3.585   3.047   6.570 -0.7264  0.3027 -0.2910
   77SOPE  H12A 6810   3.624   3.151   6.576  0.7817 -0.3300  2.7233
   77SOPE  H12B 6811   3.504   3.028   6.496 -0.1092 -2.4069 -0.3702
   77SOPE   C11 6812   3.695   2.952   6.526 -0.5068  0.0230 -0.3430
   77SOPE  H11A 6813   3.780   2.958   6.598 -0.7219 -0.3065 -0.0577
   77SOPE  H11B 6814   3.733   2.985   6.427 -0.7831  0.1123 -0.4196
   77SOPE     P 6815   3.729   2.693   6.473 -0.1031  0.0016 -0.0770
   77SOPE   O13 6816   3.640   2.579   6.458 -0.0552 -0.0064 -0.2759
   77SOPE   O14 6817   3.838   2.674   6.566  0.2319 -0.4503  0.3145
   77SOPE   O12 6818   3.642   2.822   6.520 -0.2501 -0.0382 -0.0601
   77SOPE   O11 6819   3.788   2.736   6.336 -0.1596 -0.1306  0.4505
   77SOPE    C1 6820   3.714   2.796   6.232  0.3341  0.5936 -0.2804
   77SOPE    HA 6821   3.686   2.901   6.256  1.8658  1.4005 -1.7374
   77SOPE    HB 6822   3.623   2.738   6.207  1.3548 -0.4871 -1.6168
   77SOPE    C2 6823   3.797   2.815   6.112 -0.1780 -0.1718  0.9426
   77SOPE    HS 6824   3.743   2.849   6.021  1.8199  0.6721 -0.0042
   77SOPE   O21 6825   3.860   2.689   6.086 -0.0602  0.0141 -0.4513
   77SOPE   C21 6826   3.792   2.608   6.003 -0.4967 -1.0594  0.6458
   77SOPE   O22 6827   3.684   2.636   5.950  0.0245  0.3604  0.2273
   77SOPE   C22 6828   3.865   2.472   5.984 -0.2669  0.0965  0.4755
   77SOPE   H2R 6829   3.794   2.389   6.004 -1.0362 -0.1716 -2.8776
   77SOPE   H2S 6830   3.966   2.467   6.031  0.7230 -0.9135 -1.6654
   77SOPE    C3 6831   3.899   2.932   6.143 -0.4815  0.2948 -0.2688
   77SOPE    HX 6832   3.963   2.901   6.229  1.6117 -0.2507 -1.9389
   77SOPE    HY 6833   3.835   3.015   6.180  0.3365  1.9578 -2.3626
   77SOPE   O31 6834   3.986   2.968   6.036 -0.1853 -0.0246  0.0623
   77SOPE   C31 6835   4.110   2.909   6.032  0.5332  0.3236  0.3741
   77SOPE   O32 6836   4.151   2.832   6.111 -0.9908  0.5057 -0.0174
   77SOPE   C32 6837   4.168   2.971   5.910 -0.0380  0.3477 -0.2794
   77SOPE   H2X 6838   4.279   2.967   5.911  0.0366  2.1145  0.6636
   77SOPE   H2Y 6839   4.141   3.078   5.914  1.2994  0.6545  1.4030
   77SOPE   C23 6840   3.891   2.452   5.830  0.2233 -0.5761 -0.1973
   77SOPE   H3R 6841   3.794   2.458   5.776  0.3816 -0.7745 -0.5114
   77SOPE   H3S 6842   3.940   2.352   5.820 -0.4870 -0.8727 -0.8140
   77SOPE   C24 6843   3.994   2.545   5.766 -0.1452 -0.3761  0.2441
   77SOPE   H4R 6844   3.947   2.645   5.760  0.6076 -0.0000  0.4299
   77SOPE   H4S 6845   4.088   2.551   5.826  0.7666 -0.3655 -1.1167
   77SOPE   C25 6846   4.030   2.499   5.628  0.0015  0.0721 -0.1092
   77SOPE   H5R 6847   4.064   2.393   5.624  2.1526  0.6920  0.3728
   77SOPE   H5S 6848   3.942   2.504   5.560 -1.3039 -2.1621  1.2941
   77SOPE   C26 6849   4.157   2.573   5.570  0.1803 -0.4752 -0.3278
   77SOPE   H6R 6850   4.125   2.678   5.583 -1.2121 -0.5612 -2.6061
   77SOPE   H6S 6851   4.246   2.553   5.634 -0.4398  1.2592  1.1524
   77SOPE   C27 6852   4.191   2.525   5.428 -0.3358  0.2831  0.5439
   77SOPE   H7R 6853   4.275   2.590   5.394  0.1790 -0.9194 -0.5868
   77SOPE   H7S 6854   4.220   2.417   5.431 -3.0197 -0.6298 -1.6488
   77SOPE   C28 6855   4.084   2.531   5.320  0.0306 -0.1405  0.0503
   77SOPE   H8R 6856   4.003   2.469   5.365  0.6985 -0.1339  1.2905
   77SOPE   H8S 6857   4.049   2.637   5.317 -1.5589 -0.6675 -2.0029
   77SOPE   C29 6858   4.130   2.476   5.193  0.1805 -1.1357 -0.0423
   77SOPE   H91 6859   4.126   2.366   5.185 -0.5486 -1.1273  0.1026
   77SOPE  C210 6860   4.167   2.548   5.088  0.0115  0.3217  0.3211
   77SOPE  H101 6861   4.190   2.480   5.004 -1.9415  1.3139 -1.0933
   77SOPE  C211 6862   4.188   2.697   5.073  0.8658  0.4094  0.0878
   77SOPE  H11R 6863   4.151   2.753   5.161 -0.0879 -1.9562  1.2991
   77SOPE  H11S 6864   4.127   2.736   4.989  0.0692  1.2670  1.0345
   77SOPE  C212 6865   4.337   2.743   5.064 -1.0946 -0.3939 -0.5658
   77SOPE  H12R 6866   4.391   2.694   5.148 -0.7770  0.4703 -0.2579
   77SOPE  H12S 6867   4.335   2.853   5.075 -0.8358 -0.5374  1.1620
   77SOPE  C213 6868   4.401   2.703   4.936  0.4825 -0.7961 -0.2786
   77SOPE  H13R 6869   4.327   2.722   4.856  0.6387 -2.1811 -0.7711
   77SOPE  H13S 6870   4.427   2.596   4.923 -1.5110 -1.2791 -0.5580
   77SOPE  C214 6871   4.534   2.774   4.909 -0.1052  0.2311 -0.0581
   77SOPE  H14R 6872   4.598   2.773   5.000 -0.2682  0.2487  0.0585
   77SOPE  H14S 6873   4.503   2.879   4.888  3.6459  1.5074  0.1137
   77SOPE  C215 6874   4.609   2.728   4.782 -0.4406 -0.0374  0.3902
   77SOPE  H15R 6875   4.538   2.702   4.701  1.5847  0.7848 -1.7680
   77SOPE  H15S 6876   4.671   2.638   4.800  0.5768  1.0515  2.7697
   77SOPE  C216 6877   4.710   2.842   4.736 -0.6214  1.0641 -0.3733
   77SOPE  H16R 6878   4.794   2.801   4.676 -0.2707  0.5236  0.4612
   77SOPE  H16S 6879   4.755   2.899   4.820  0.6322  2.6588 -2.0596
   77SOPE  C217 6880   4.644   2.934   4.630  0.0830  0.8741 -0.3162
   77SOPE  H17R 6881   4.560   2.972   4.691  0.1036 -3.8805  3.2364
   77SOPE  H17S 6882   4.615   2.881   4.537  0.1187 -0.3236  0.3313
   77SOPE  C218 6883   4.744   3.043   4.581  0.2220  0.4221 -0.0269
   77SOPE  H18R 6884   4.704   3.101   4.496 -1.0782 -0.5978 -0.1405
   77SOPE  H18S 6885   4.833   2.992   4.537 -1.1252  1.5136 -4.4746
   77SOPE  H18T 6886   4.779   3.116   4.657 -2.3120  0.3009  1.3793
   77SOPE   C33 6887   4.121   2.902   5.777  0.2470 -0.0737 -0.3875
   77SOPE   H3X 6888   4.023   2.852   5.792  0.6528 -0.2290  2.2974
   77SOPE   H3Y 6889   4.200   2.828   5.752 -0.0406 -0.2968 -0.6341
   77SOPE   C34 6890   4.103   3.013   5.670  0.3800 -0.4967  0.1691
   77SOPE   H4X 6891   4.184   3.088   5.678 -1.7439  1.9664 -0.0644
   77SOPE   H4Y 6892   4.002   3.060   5.680  0.4615 -0.6036  1.7320
   77SOPE   C35 6893   4.100   2.958   5.525 -1.0188 -0.0654 -0.7386
   77SOPE   H5X 6894   4.019   2.887   5.497  1.2863 -2.3615 -2.0748
   77SOPE   H5Y 6895   4.197   2.904   5.521  0.0671  1.3049  3.0862
   77SOPE   C36 6896   4.113   3.073   5.420 -0.0532  0.1259 -0.1976
   77SOPE   H6X 6897   4.188   3.149   5.449 -0.3565  0.3704 -0.0544
   77SOPE   H6Y 6898   4.019   3.131   5.410 -1.2860 -1.4992  1.3707
   77SOPE   C37 6899   4.141   3.034   5.268 -0.1272 -0.0179  0.5258
   77SOPE   H7X 6900   4.064   2.964   5.229 -0.1002  0.7423 -0.9675
   77SOPE   H7Y 6901   4.236   2.977   5.259  0.5893  1.3500 -1.1322
   77SOPE   C38 6902   4.159   3.150   5.175 -0.0387  0.2695  0.3808
   77SOPE   H8X 6903   4.234   3.217   5.222  2.3503 -1.1682 -1.1770
   77SOPE   H8Y 6904   4.060   3.201   5.175  0.7296  1.9124 -1.8295
   77SOPE   C39 6905   4.207   3.114   5.035  0.1632  0.8699  0.5646
   77SOPE   H9X 6906   4.301   3.054   5.034 -0.8576 -0.7922 -0.1859
   77SOPE   H9Y 6907   4.235   3.211   4.989 -2.9700  2.1166  1.0468
   77SOPE  C310 6908   4.098   3.035   4.950 -0.7731 -0.4103  0.4049
   77SOPE  H10X 6909   4.019   3.111   4.931 -0.6196 -0.2143  0.5477
   77SOPE  H10Y 6910   4.052   2.944   4.994 -1.7820 -1.4412 -2.5080
   77SOPE  C311 6911   4.155   3.011   4.806  0.3214 -0.3954 -0.6630
   77SOPE  H11X 6912   4.238   2.938   4.813 -0.7022 -1.5660 -0.2489
   77SOPE  H11Y 6913   4.197   3.105   4.766  2.6477 -2.3051 -3.0816
   77SOPE  C312 6914   4.043   2.975   4.712 -0.9677  0.6530  0.6993
   77SOPE  H12X 6915   3.972   3.060   4.721 -0.9199  0.6170  1.4390
   77SOPE  H12Y 6916   3.997   2.881   4.750  0.3632  0.4325  1.8397
   77SOPE  C313 6917   4.066   2.961   4.562 -0.1180 -0.2114  0.3190
   77SOPE  H13X 6918   4.102   3.053   4.510  0.5198 -1.4109 -1.4708
   77SOPE  H13Y 6919   3.979   2.916   4.510 -0.8386 -0.4450  1.6973
   77SOPE  C314 6920   4.187   2.868   4.525  0.2799 -0.3529  0.8932
   77SOPE  H14X 6921   4.284   2.919   4.544  0.9076 -0.9540 -0.5061
   77SOPE  H14Y 6922   4.181   2.864   4.414 -0.5575  1.2025  0.8625
   77SOPE  C315 6923   4.178   2.731   4.592 -0.1524  0.4010  0.3062
   77SOPE  H15X 6924   4.078   2.688   4.569 -0.2060  0.3972  0.5379
   77SOPE  H15Y 6925   4.175   2.738   4.703  0.8733  1.2608  0.2958
   77SOPE  C316 6926   4.284   2.625   4.543 -0.0206  0.0886  0.1913
   77SOPE  H16X 6927   4.388   2.653   4.569 -0.1743  1.5647 -0.6757
   77SOPE  H16Y 6928   4.265   2.612   4.434  1.3643 -1.9482  0.1310
   77SOPE  C317 6929   4.272   2.478   4.594 -0.1081 -0.7481 -0.1911
   77SOPE  H17X 6930   4.178   2.435   4.553 -0.9529  0.6954  0.1305
   77SOPE  H17Y 6931   4.246   2.482   4.702  3.1875 -0.3569  0.6720
   77SOPE  C318 6932   4.384   2.386   4.565 -0.2196 -0.1758 -0.1266
   77SOPE  H18X 6933   4.441   2.412   4.473  0.6298  0.3541  0.5259
   77SOPE  H18Y 6934   4.349   2.282   4.547 -1.0402 -0.3460  2.1900
   77SOPE  H18Z 6935   4.450   2.389   4.655 -1.3826 -0.7734  0.7680
   78SOPE     N 6936   3.422   0.143   6.270 -0.5764  0.0403  0.2921
   78SOPE   HN1 6937   3.508   0.093   6.239  0.4187  1.8609 -0.0341
   78SOPE   HN2 6938   3.340   0.079   6.275 -1.3836  0.9680 -0.6950
   78SOPE   HN3 6939   3.401   0.220   6.204 -1.3437 -0.5198 -0.1284
   78SOPE   C12 6940   3.435   0.206   6.407 -0.0380  0.7651  0.2842
   78SOPE  H12A 6941   3.463   0.123   6.476 -2.3474 -1.5232 -1.3189
   78SOPE  H12B 6942   3.332   0.232   6.439 -0.8355 -3.3403  1.7635
   78SOPE   C11 6943   3.536   0.324   6.415 -0.1828 -0.1359  0.0865
   78SOPE  H11A 6944   3.637   0.281   6.398  0.7027  1.6129  0.7271
   78SOPE  H11B 6945   3.531   0.350   6.523  1.3678 -0.1447  0.1841
   78SOPE     P 6946   3.593   0.570   6.341 -0.2308 -0.1080 -0.1444
   78SOPE   O13 6947   3.723   0.545   6.415 -0.2635 -0.0534  0.2752
   78SOPE   O14 6948   3.518   0.679   6.398  0.1606 -0.2868  0.6140
   78SOPE   O12 6949   3.505   0.434   6.327  0.2456  0.7472 -0.2105
   78SOPE   O11 6950   3.629   0.616   6.192  0.1809 -0.0225  0.2177
   78SOPE    C1 6951   3.697   0.525   6.106 -0.4013  0.4713 -0.0573
   78SOPE    HA 6952   3.645   0.511   6.009 -1.5904 -2.1902  0.8645
   78SOPE    HB 6953   3.682   0.424   6.150 -3.6303  0.9669  0.1842
   78SOPE    C2 6954   3.840   0.560   6.089  0.2447  0.6655  0.1877
   78SOPE    HS 6955   3.893   0.561   6.187 -0.1587 -0.7784  0.4459
   78SOPE   O21 6956   3.853   0.691   6.024 -0.2446  0.0925 -0.4864
   78SOPE   C21 6957   3.963   0.766   6.060  0.1185  0.6072 -0.4567
   78SOPE   O22 6958   4.063   0.720   6.118 -0.0574  0.8072  0.4581
   78SOPE   C22 6959   3.951   0.906   6.000  0.6443  0.8140 -0.8559
   78SOPE   H2R 6960   4.057   0.933   5.983  0.1921  2.7312 -0.8117
   78SOPE   H2S 6961   3.898   0.956   6.084 -0.1987 -0.5521 -0.5271
   78SOPE    C3 6962   3.903   0.452   6.002 -0.3596  0.3674  0.0902
   78SOPE    HX 6963   3.847   0.439   5.907  0.7695 -0.3516 -0.5131
   78SOPE    HY 6964   3.912   0.354   6.054  0.2589  0.9703  1.1526
   78SOPE   O31 6965   4.038   0.490   5.960 -0.3142  0.7590 -0.2268
   78SOPE   C31 6966   4.147   0.448   6.037 -0.3697 -0.8163  0.3082
   78SOPE   O32 6967   4.129   0.387   6.142  0.5440  0.0575 -0.3321
   78SOPE   C32 6968   4.279   0.496   5.970  0.1779  1.2666  0.2932
   78SOPE   H2X 6969   4.362   0.427   5.999  0.3613  1.2615 -0.2300
   78SOPE   H2Y 6970   4.309   0.592   6.017 -0.3758  0.8328  1.5833
   78SOPE   C23 6971   3.880   0.924   5.868  0.7160 -0.4044  0.2034
   78SOPE   H3R 6972   3.874   1.030   5.838  0.4145 -0.2636  0.7484
   78SOPE   H3S 6973   3.774   0.893   5.873 -0.0177  1.9995  0.9223
   78SOPE   C24 6974   3.962   0.857   5.753 -0.2379  0.6622  0.4236
   78SOPE   H4R 6975   4.071   0.874   5.766 -0.1976 -0.0581  1.1333
   78SOPE   H4S 6976   3.955   0.746   5.763 -1.7519  0.8123  1.3149
   78SOPE   C25 6977   3.924   0.902   5.608 -0.7626  0.5009  0.4936
   78SOPE   H5R 6978   3.814   0.899   5.589 -0.5957 -1.7410 -0.3991
   78SOPE   H5S 6979   3.956   1.009   5.602 -0.0352  0.2345 -0.7592
   78SOPE   C26 6980   3.986   0.824   5.490  0.1266  0.1680  0.6348
   78SOPE   H6R 6981   3.953   0.856   5.388  0.2992  1.4671  0.9675
   78SOPE   H6S 6982   4.095   0.829   5.508 -0.0916  0.8284  1.8507
   78SOPE   C27 6983   3.957   0.672   5.499  0.6352 -0.5915  0.1589
   78SOPE   H7R 6984   4.007   0.629   5.588  1.8947 -2.4965 -1.4030
   78SOPE   H7S 6985   3.848   0.670   5.520  0.3932  0.7473 -0.8274
   78SOPE   C28 6986   3.998   0.589   5.380 -0.4366  0.5339 -0.8982
   78SOPE   H8R 6987   4.106   0.599   5.356  0.7984 -3.9055  1.6557
   78SOPE   H8S 6988   3.993   0.485   5.418 -0.8772  0.9946  0.3931
   78SOPE   C29 6989   3.906   0.590   5.260  0.3286 -0.1948 -0.9614
   78SOPE   H91 6990   3.799   0.595   5.283  0.7270  0.0329  1.0428
   78SOPE  C210 6991   3.937   0.580   5.132 -0.2662  0.2841 -0.4368
   78SOPE  H101 6992   3.856   0.591   5.058  0.0147  3.2252 -0.4479
   78SOPE  C211 6993   4.073   0.563   5.075 -0.9067 -0.5650  0.5258
   78SOPE  H11R 6994   4.148   0.591   5.152 -0.8318 -2.6114  1.2454
   78SOPE  H11S 6995   4.094   0.636   4.993  0.5000 -1.3616  0.1305
   78SOPE  C212 6996   4.099   0.420   5.031 -0.4792 -0.6380 -0.3956
   78SOPE  H12R 6997   4.076   0.349   5.114  1.7645 -1.6920 -0.5878
   78SOPE  H12S 6998   4.206   0.408   5.002 -0.2150 -0.1883  0.3545
   78SOPE  C213 6999   4.035   0.371   4.896 -0.5404 -0.7577 -0.2434
   78SOPE  H13R 7000   3.926   0.386   4.904 -0.1952  1.6562  0.9476
   78SOPE  H13S 7001   4.058   0.263   4.886 -0.6952 -0.7586 -0.5934
   78SOPE  C214 7002   4.100   0.432   4.774 -0.5878  0.1542 -0.3754
   78SOPE  H14R 7003   4.206   0.457   4.796  0.1279 -3.8370  1.7185
   78SOPE  H14S 7004   4.053   0.531   4.761  0.1577  0.7845  1.4596
   78SOPE  C215 7005   4.099   0.357   4.643 -0.1438 -0.3459 -0.3951
   78SOPE  H15R 7006   4.012   0.289   4.646 -0.3961 -0.0171 -0.1450
   78SOPE  H15S 7007   4.190   0.294   4.647 -0.5719 -0.9090  0.8855
   78SOPE  C216 7008   4.089   0.455   4.528  0.1239 -0.3003 -0.5766
   78SOPE  H16R 7009   4.176   0.524   4.540  2.4665 -3.2728  1.2199
   78SOPE  H16S 7010   3.995   0.512   4.527  0.6636  0.6713  0.8747
   78SOPE  C217 7011   4.104   0.383   4.394 -0.0682 -0.6307 -0.6378
   78SOPE  H17R 7012   4.112   0.459   4.313 -2.1521 -2.3629 -2.6105
   78SOPE  H17S 7013   4.019   0.314   4.377 -0.4064 -1.3596  3.1347
   78SOPE  C218 7014   4.237   0.308   4.389  0.0606  0.0116 -0.5526
   78SOPE  H18R 7015   4.223   0.215   4.448  0.1651 -1.1990 -2.3454
   78SOPE  H18S 7016   4.317   0.376   4.425  0.5657 -1.3034  0.9773
   78SOPE  H18T 7017   4.260   0.263   4.290  0.5562 -1.4356  0.1768
   78SOPE   C33 7018   4.279   0.502   5.816 -0.5029  0.2442  0.6274
   78SOPE   H3X 7019   4.373   0.561   5.806  0.4393 -1.3340 -0.3621
   78SOPE   H3Y 7020   4.204   0.572   5.774  0.2005  1.8231  1.8810
   78SOPE   C34 7021   4.295   0.369   5.744 -0.3584 -0.2224  0.2563
   78SOPE   H4X 7022   4.201   0.310   5.747  0.3706 -1.5455 -1.3557
   78SOPE   H4Y 7023   4.373   0.304   5.788  3.5132  1.0801 -3.8911
   78SOPE   C35 7024   4.317   0.394   5.589 -0.0732 -0.2957 -0.1284
   78SOPE   H5X 7025   4.407   0.453   5.562 -0.0189 -1.6198 -3.3243
   78SOPE   H5Y 7026   4.235   0.460   5.554  0.1313 -0.0269 -0.0998
   78SOPE   C36 7027   4.306   0.268   5.508 -0.8470  0.1288 -0.2292
   78SOPE   H6X 7028   4.198   0.244   5.497 -1.3185  2.0666 -0.3303
   78SOPE   H6Y 7029   4.359   0.193   5.570 -1.6667  0.7665  1.3088
   78SOPE   C37 7030   4.372   0.283   5.366  0.6825  0.2293  0.7105
   78SOPE   H7X 7031   4.482   0.291   5.377  1.2145 -1.6729 -2.1454
   78SOPE   H7Y 7032   4.328   0.372   5.314  1.0260  0.7949  1.3797
   78SOPE   C38 7033   4.352   0.157   5.281 -0.3863  0.0483  0.4351
   78SOPE   H8X 7034   4.244   0.137   5.298  0.0383 -0.5894  2.6821
   78SOPE   H8Y 7035   4.418   0.076   5.320 -1.3616 -0.1802  1.6626
   78SOPE   C39 7036   4.379   0.179   5.132  0.1220 -0.0601 -0.1989
   78SOPE   H9X 7037   4.486   0.208   5.119 -0.3038  1.6120 -0.1412
   78SOPE   H9Y 7038   4.309   0.256   5.093  0.6095 -0.1451 -1.2836
   78SOPE  C310 7039   4.359   0.050   5.054  0.1747 -0.1392  0.1743
   78SOPE  H10X 7040   4.252   0.030   5.075 -0.1185  1.3229  0.1746
   78SOPE  H10Y 7041   4.417  -0.035   5.096 -0.2053 -1.1535 -1.2786
   78SOPE  C311 7042   4.370   0.068   4.904  0.0852  0.3609  0.9128
   78SOPE  H11X 7043   4.288   0.136   4.874  0.7319  2.3786  3.3452
   78SOPE  H11Y 7044   4.346  -0.033   4.864  1.7403  0.0504  0.6196
   78SOPE  C312 7045   4.511   0.106   4.845  0.6486 -0.2831  0.1095
   78SOPE  H12X 7046   4.585   0.078   4.923 -1.7850  1.7922  3.4359
   78SOPE  H12Y 7047   4.505   0.217   4.843  0.3840 -0.2991 -0.0052
   78SOPE  C313 7048   4.543   0.054   4.707 -0.6742  0.2001 -0.0895
   78SOPE  H13X 7049   4.536  -0.057   4.707  1.0388 -0.0084  2.4320
   78SOPE  H13Y 7050   4.651   0.072   4.690 -0.0888 -2.3957  0.4924
   78SOPE  C314 7051   4.459   0.112   4.598 -0.2605  0.0682  0.1317
   78SOPE  H14X 7052   4.445   0.221   4.614 -0.6161 -0.0747  0.8009
   78SOPE  H14Y 7053   4.356   0.073   4.608 -0.5562  0.9810  0.7504
   78SOPE  C315 7054   4.517   0.100   4.458 -0.1926 -0.3921 -1.0712
   78SOPE  H15X 7055   4.625   0.125   4.450 -0.4658  1.1034 -0.4478
   78SOPE  H15Y 7056   4.461   0.182   4.408 -0.8355 -0.7316 -0.9204
   78SOPE  C316 7057   4.490  -0.029   4.381  0.4024 -0.2905 -0.3050
   78SOPE  H16X 7058   4.380  -0.041   4.371  0.2174  0.8101  0.3180
   78SOPE  H16Y 7059   4.523  -0.120   4.437 -1.2666  0.2522  1.7028
   78SOPE  C317 7060   4.542  -0.031   4.229  0.4031  0.0027  0.1332
   78SOPE  H17X 7061   4.652  -0.018   4.241  0.3829 -1.3170  2.2002
   78SOPE  H17Y 7062   4.509   0.055   4.167 -0.8092 -1.2023 -0.9351
   78SOPE  C318 7063   4.504  -0.163   4.172  0.2447 -0.5311 -0.5907
   78SOPE  H18X 7064   4.563  -0.175   4.078  1.0287 -0.1740 -0.1559
   78SOPE  H18Y 7065   4.395  -0.172   4.151 -0.3521  3.0453  0.3062
   78SOPE  H18Z 7066   4.523  -0.251   4.238 -2.7912 -0.7352  0.1486
   79SOPE     N 7067   0.145   6.585   6.266 -0.1115 -0.0161  0.7813
   79SOPE   HN1 7068   0.187   6.678   6.288  0.3936 -0.4957  1.8910
   79SOPE   HN2 7069   0.204   6.500   6.257  0.0732  0.2589 -1.0175
   79SOPE   HN3 7070   0.102   6.592   6.172  1.2070 -1.7821 -0.0092
   79SOPE   C12 7071   0.040   6.539   6.363  0.5974 -0.3899 -0.0818
   79SOPE  H12A 7072  -0.044   6.606   6.336  0.9383 -0.0137 -0.2204
   79SOPE  H12B 7073   0.068   6.578   6.463 -3.6331  1.7094  0.5141
   79SOPE   C11 7074   0.011   6.395   6.340  0.0963 -0.1041 -0.2765
   79SOPE  H11A 7075  -0.015   6.376   6.234  0.0496 -2.4524  0.1086
   79SOPE  H11B 7076  -0.076   6.375   6.406 -0.8056  0.2348 -1.3364
   79SOPE     P 7077   0.212   6.248   6.277 -0.4627  0.3341  0.2180
   79SOPE   O13 7078   0.302   6.159   6.349 -0.2867  0.3120 -0.2390
   79SOPE   O14 7079   0.264   6.360   6.197 -0.7846 -0.3588  0.1012
   79SOPE   O12 7080   0.119   6.308   6.383  0.2379 -0.2130 -0.6083
   79SOPE   O11 7081   0.100   6.178   6.191 -0.5524 -0.3667 -0.2568
   79SOPE    C1 7082   0.024   6.068   6.243  0.2130  0.3548 -0.2447
   79SOPE    HA 7083  -0.025   6.088   6.341 -0.2584  1.2632 -0.6525
   79SOPE    HB 7084   0.093   5.983   6.261 -0.2045  0.6343  3.6144
   79SOPE    C2 7085  -0.096   6.028   6.147  0.1459  0.3149 -0.0114
   79SOPE    HS 7086  -0.141   5.937   6.191  2.0416 -0.9829 -0.6045
   79SOPE   O21 7087  -0.045   5.996   6.013  0.1611 -0.0994 -0.3931
   79SOPE   C21 7088   0.024   5.893   6.009 -0.9299  0.0454  0.1167
   79SOPE   O22 7089   0.048   5.825   6.106  0.2732  0.5612  0.0254
   79SOPE   C22 7090   0.065   5.869   5.865 -0.4846  0.8509 -0.1129
   79SOPE   H2R 7091   0.059   5.961   5.803  1.2807  1.7446  0.9535
   79SOPE   H2S 7092  -0.008   5.802   5.815  0.3693  0.2111 -0.5262
   79SOPE    C3 7093  -0.203   6.143   6.143  0.6128  0.5216  0.9585
   79SOPE    HX 7094  -0.158   6.227   6.085 -1.3045  2.3745  2.0294
   79SOPE    HY 7095  -0.221   6.166   6.250 -0.8193 -0.6657  0.9909
   79SOPE   O31 7096  -0.316   6.086   6.078  0.0974  0.1197 -0.9427
   79SOPE   C31 7097  -0.393   6.168   6.020  0.0279  0.4200 -0.6016
   79SOPE   O32 7098  -0.376   6.288   6.006 -0.0160  0.7068 -0.7368
   79SOPE   C32 7099  -0.524   6.096   5.975  0.0393 -0.9018  0.0085
   79SOPE   H2X 7100  -0.552   6.032   6.062  0.9004 -0.2141  0.8032
   79SOPE   H2Y 7101  -0.502   6.029   5.889 -2.2372 -0.8545 -0.6806
   79SOPE   C23 7102   0.214   5.826   5.859 -0.3899 -0.1657  0.0976
   79SOPE   H3R 7103   0.223   5.719   5.889 -1.5583  0.3509  2.4689
   79SOPE   H3S 7104   0.261   5.872   5.948 -0.3123 -1.0087  0.5016
   79SOPE   C24 7105   0.294   5.865   5.741  0.1756 -0.5962  0.2451
   79SOPE   H4R 7106   0.224   5.847   5.656 -1.7702  0.3336  1.5695
   79SOPE   H4S 7107   0.289   5.975   5.748  0.0956 -0.5923  0.1336
   79SOPE   C25 7108   0.429   5.800   5.723  0.3046  0.0010 -0.6323
   79SOPE   H5R 7109   0.501   5.875   5.683  0.6212  0.7186  1.1817
   79SOPE   H5S 7110   0.467   5.777   5.825  0.1318  1.3107 -0.2538
   79SOPE   C26 7111   0.427   5.685   5.627 -0.0891 -0.5229 -0.3136
   79SOPE   H6R 7112   0.511   5.615   5.648 -0.2135 -0.0998  1.8081
   79SOPE   H6S 7113   0.337   5.621   5.641 -1.1729  0.6122 -1.7230
   79SOPE   C27 7114   0.432   5.728   5.483 -0.4545  0.4031 -0.0567
   79SOPE   H7R 7115   0.368   5.819   5.472 -0.3289  0.3844 -0.9939
   79SOPE   H7S 7116   0.537   5.759   5.467 -0.1698  0.0189  0.9980
   79SOPE   C28 7117   0.392   5.617   5.377  0.4252 -0.0249 -0.0379
   79SOPE   H8R 7118   0.282   5.604   5.369  0.1403  1.9920  0.1809
   79SOPE   H8S 7119   0.434   5.663   5.284 -0.4364 -0.2177 -0.5360
   79SOPE   C29 7120   0.457   5.488   5.402  1.1749 -0.0720 -0.3091
   79SOPE   H91 7121   0.551   5.503   5.457  0.5645  0.5202  0.6143
   79SOPE  C210 7122   0.430   5.369   5.355  0.3157 -0.5244  0.8564
   79SOPE  H101 7123   0.486   5.280   5.387 -0.0230 -1.1076 -0.1375
   79SOPE  C211 7124   0.313   5.327   5.268  1.0124 -0.1699  0.6930
   79SOPE  H11R 7125   0.225   5.390   5.294  0.6823 -1.0962  1.9383
   79SOPE  H11S 7126   0.268   5.233   5.305  0.0860  1.1310  3.1147
   79SOPE  C212 7127   0.329   5.319   5.113 -0.0014 -0.3105  0.4671
   79SOPE  H12R 7128   0.234   5.272   5.079 -0.7893  0.3157  1.7007
   79SOPE  H12S 7129   0.412   5.252   5.083  0.6209  0.1696  1.0970
   79SOPE  C213 7130   0.334   5.458   5.031 -0.1532  1.6168 -0.4192
   79SOPE  H13R 7131   0.420   5.513   5.074  1.2328  0.4557 -1.5768
   79SOPE  H13S 7132   0.242   5.516   5.051 -2.9971 -2.1451 -1.4237
   79SOPE  C214 7133   0.359   5.448   4.878  0.6463 -0.3297 -0.3741
   79SOPE  H14R 7134   0.268   5.413   4.825 -0.2772  1.0565  0.2250
   79SOPE  H14S 7135   0.443   5.380   4.851  0.8625 -1.2708  2.3841
   79SOPE  C215 7136   0.387   5.583   4.799 -0.0699  0.9355  0.6702
   79SOPE  H15R 7137   0.489   5.611   4.834  1.5924  3.0533 -4.8795
   79SOPE  H15S 7138   0.304   5.651   4.830 -1.3813 -0.0507 -0.5406
   79SOPE  C216 7139   0.388   5.570   4.649  0.5717 -0.3178  0.5934
   79SOPE  H16R 7140   0.284   5.555   4.614  1.0380  1.0884 -1.5848
   79SOPE  H16S 7141   0.442   5.476   4.626  1.4042  0.3673 -0.3331
   79SOPE  C217 7142   0.459   5.689   4.581 -0.2278  0.6980 -0.4295
   79SOPE  H17R 7143   0.562   5.700   4.621 -0.4649  0.5902  0.2311
   79SOPE  H17S 7144   0.396   5.774   4.615 -1.8020 -0.2611 -0.7931
   79SOPE  C218 7145   0.453   5.676   4.435  0.2983 -0.3146  0.4822
   79SOPE  H18R 7146   0.346   5.664   4.407  0.5624  0.8264 -1.1733
   79SOPE  H18S 7147   0.495   5.577   4.408  0.3733  0.9017 -5.0259
   79SOPE  H18T 7148   0.516   5.743   4.373  1.5698 -0.4050  1.6287
   79SOPE   C33 7149  -0.637   6.198   5.935 -0.8819 -0.3637 -0.2712
   79SOPE   H3X 7150  -0.598   6.275   5.865  1.1254  3.0450  4.0316
   79SOPE   H3Y 7151  -0.682   6.241   6.027 -0.5965 -0.9626  0.1518
   79SOPE   C34 7152  -0.759   6.122   5.866  0.1845 -0.2663 -0.0398
   79SOPE   H4X 7153  -0.850   6.181   5.843 -1.7182 -2.1143  2.2324
   79SOPE   H4Y 7154  -0.791   6.048   5.942 -0.4265  0.9280  0.8870
   79SOPE   C35 7155  -0.720   6.036   5.751 -0.0509 -0.2661  0.0618
   79SOPE   H5X 7156  -0.686   5.937   5.788 -1.6702 -0.9209 -0.0803
   79SOPE   H5Y 7157  -0.628   6.074   5.701  0.0777  0.5459  0.9138
   79SOPE   C36 7158  -0.824   6.017   5.631 -0.5761 -0.4534 -0.0385
   79SOPE   H6X 7159  -0.855   6.114   5.586  2.6668  0.4138 -0.7088
   79SOPE   H6Y 7160  -0.916   5.963   5.661 -1.6273  1.7410  0.9139
   79SOPE   C37 7161  -0.759   5.938   5.509  0.8659  0.1792 -0.5935
   79SOPE   H7X 7162  -0.715   5.844   5.550  2.0907  0.5343 -1.0376
   79SOPE   H7Y 7163  -0.673   5.994   5.466  1.4268 -0.5216 -0.4048
   79SOPE   C38 7164  -0.865   5.901   5.405  0.0657  0.0958 -0.0420
   79SOPE   H8X 7165  -0.912   5.991   5.360  0.9569 -0.2425 -1.7235
   79SOPE   H8Y 7166  -0.951   5.847   5.451  0.0906 -1.9718 -2.2329
   79SOPE   C39 7167  -0.798   5.817   5.290 -0.3081 -0.2743 -0.0447
   79SOPE   H9X 7168  -0.747   5.730   5.336  1.5479  1.1314  0.6978
   79SOPE   H9Y 7169  -0.715   5.882   5.255  2.0445 -2.6512  0.8015
   79SOPE  C310 7170  -0.900   5.780   5.183  0.4048  0.4672 -0.0819
   79SOPE  H10X 7171  -0.929   5.877   5.138 -0.5636  0.2127 -0.0328
   79SOPE  H10Y 7172  -0.993   5.739   5.228 -0.4622  0.4474 -1.7982
   79SOPE  C311 7173  -0.840   5.694   5.075  0.0177  0.2583  0.0873
   79SOPE  H11X 7174  -0.826   5.593   5.120 -0.3197 -0.9829 -2.4472
   79SOPE  H11Y 7175  -0.745   5.738   5.040 -0.3235  1.9378  1.1641
   79SOPE  C312 7176  -0.926   5.669   4.949  0.3229  0.3403  0.3744
   79SOPE  H12X 7177  -0.965   5.760   4.898 -1.1684 -0.2637  0.3884
   79SOPE  H12Y 7178  -1.019   5.618   4.983  0.8398 -0.3109  0.8407
   79SOPE  C313 7179  -0.862   5.563   4.858 -0.3833 -0.0347 -0.2490
   79SOPE  H13X 7180  -0.845   5.471   4.918 -2.0097 -0.6077 -0.6038
   79SOPE  H13Y 7181  -0.768   5.609   4.820 -0.8120  0.5809 -0.5865
   79SOPE  C314 7182  -0.959   5.523   4.748 -0.0604  0.6068  0.4840
   79SOPE  H14X 7183  -1.063   5.501   4.781 -0.4347 -1.6600 -1.8941
   79SOPE  H14Y 7184  -0.924   5.427   4.704  0.0908  0.7443  0.3017
   79SOPE  C315 7185  -0.955   5.620   4.630  0.2169  0.9425  0.4358
   79SOPE  H15X 7186  -0.848   5.629   4.600  0.9256 -1.3765  1.9454
   79SOPE  H15Y 7187  -0.984   5.717   4.675  0.2486  0.4676  1.5038
   79SOPE  C316 7188  -1.037   5.588   4.505  0.5859  0.3254  0.3095
   79SOPE  H16X 7189  -1.020   5.481   4.480 -1.1838  0.2210 -0.6224
   79SOPE  H16Y 7190  -0.998   5.647   4.419  3.6719 -0.4948  1.0275
   79SOPE  C317 7191  -1.187   5.614   4.532  0.4445  0.6238 -0.1838
   79SOPE  H17X 7192  -1.205   5.718   4.567 -0.6538  1.1869 -2.2654
   79SOPE  H17Y 7193  -1.217   5.556   4.622 -4.2606  1.6055 -0.8149
   79SOPE  C318 7194  -1.280   5.557   4.424 -0.1892  0.1109  0.6643
   79SOPE  H18X 7195  -1.245   5.453   4.403  0.1777  0.4611 -0.5665
   79SOPE  H18Y 7196  -1.280   5.624   4.335 -1.8089 -1.7311 -0.8114
   79SOPE  H18Z 7197  -1.383   5.544   4.462 -0.0921 -2.6421  0.2313
   80SOPE     N 7198   3.365   2.608   6.592  0.0803  0.4287  0.3381
   80SOPE   HN1 7199   3.454   2.580   6.545 -0.9911  0.5006 -1.8753
   80SOPE   HN2 7200   3.380   2.639   6.690  2.3507 -0.1023  0.2335
   80SOPE   HN3 7201   3.312   2.519   6.592  2.5720 -1.1631  0.7193
   80SOPE   C12 7202   3.282   2.702   6.504 -0.0931  0.6747  0.6657
   80SOPE  H12A 7203   3.338   2.798   6.495  1.9216 -0.5648 -0.7934
   80SOPE  H12B 7204   3.183   2.724   6.550 -1.4664 -0.1730 -1.6784
   80SOPE   C11 7205   3.240   2.650   6.367 -0.7409  0.0091 -0.5150
   80SOPE  H11A 7206   3.328   2.642   6.299  1.4498 -0.7012  2.2196
   80SOPE  H11B 7207   3.175   2.731   6.327  0.7276  1.3526 -0.2770
   80SOPE     P 7208   3.040   2.482   6.351  0.1424  0.2486 -0.1922
   80SOPE   O13 7209   2.936   2.483   6.461 -0.6152 -0.3340 -0.2567
   80SOPE   O14 7210   3.056   2.352   6.282  0.5052 -0.1324  0.0783
   80SOPE   O12 7211   3.179   2.529   6.395 -0.2290  0.6159 -0.0339
   80SOPE   O11 7212   2.995   2.592   6.247  0.8654 -0.5804 -0.3790
   80SOPE    C1 7213   3.056   2.580   6.120 -0.6917 -0.3003 -0.5997
   80SOPE    HA 7214   3.027   2.484   6.073 -1.7418  0.1059 -0.8006
   80SOPE    HB 7215   3.166   2.595   6.128 -0.6934  0.3033 -1.5630
   80SOPE    C2 7216   3.000   2.689   6.021 -0.3410  0.1516 -0.8788
   80SOPE    HS 7217   3.010   2.784   6.077  1.9496 -0.7278  0.3394
   80SOPE   O21 7218   2.865   2.663   5.985 -0.4131 -0.2434  0.0997
   80SOPE   C21 7219   2.801   2.772   5.947  0.0916 -0.4838 -0.0625
   80SOPE   O22 7220   2.849   2.883   5.944 -0.1218 -0.1557  0.3315
   80SOPE   C22 7221   2.659   2.738   5.919  0.4655 -0.5270  0.4782
   80SOPE   H2R 7222   2.616   2.840   5.906  0.6297 -0.4560  0.4913
   80SOPE   H2S 7223   2.613   2.694   6.010 -2.4514  0.2373 -0.5160
   80SOPE    C3 7224   3.083   2.678   5.887  0.3337  0.0365 -0.2852
   80SOPE    HX 7225   3.067   2.573   5.855 -4.1201  0.4261 -0.0211
   80SOPE    HY 7226   3.191   2.674   5.909  0.7963 -1.8141 -2.5121
   80SOPE   O31 7227   3.053   2.763   5.776  0.1188  0.0525 -0.6790
   80SOPE   C31 7228   3.098   2.888   5.792  0.0592  0.1193  0.5390
   80SOPE   O32 7229   3.168   2.931   5.883  0.2572  0.2979  0.2087
   80SOPE   C32 7230   3.050   2.974   5.683 -0.1762 -0.3665 -0.6092
   80SOPE   H2X 7231   2.939   2.970   5.673 -0.1806  0.9771 -1.4106
   80SOPE   H2Y 7232   3.088   2.923   5.592  0.8726 -0.6045 -0.0491
   80SOPE   C23 7233   2.645   2.655   5.788 -0.7111 -0.2875  0.4501
   80SOPE   H3R 7234   2.551   2.598   5.771 -2.0770  1.9168  0.2289
   80SOPE   H3S 7235   2.723   2.575   5.790 -1.3806 -0.9475  1.7652
   80SOPE   C24 7236   2.665   2.734   5.656  0.0314 -0.7457 -0.3747
   80SOPE   H4R 7237   2.575   2.798   5.638 -0.4133 -1.4354 -0.6299
   80SOPE   H4S 7238   2.745   2.807   5.681 -0.0590 -0.6916 -0.2445
   80SOPE   C25 7239   2.692   2.647   5.532 -0.2250  0.2424  0.0861
   80SOPE   H5R 7240   2.771   2.575   5.562 -0.1705  0.3147  0.1151
   80SOPE   H5S 7241   2.603   2.582   5.521 -0.0767 -0.3411  2.0627
   80SOPE   C26 7242   2.739   2.732   5.413  0.0818 -0.2833  1.2725
   80SOPE   H6R 7243   2.824   2.801   5.433  0.9402  0.1288 -2.8340
   80SOPE   H6S 7244   2.772   2.658   5.336 -0.0224  0.5259  0.4381
   80SOPE   C27 7245   2.614   2.792   5.351  0.2993  0.1805 -0.3452
   80SOPE   H7R 7246   2.535   2.714   5.340  1.2865 -0.7468 -1.0443
   80SOPE   H7S 7247   2.572   2.865   5.423 -0.3823  1.3520 -1.8751
   80SOPE   C28 7248   2.646   2.868   5.223  0.1408  0.1523  0.5396
   80SOPE   H8R 7249   2.558   2.930   5.198 -0.8481 -2.0789 -2.0676
   80SOPE   H8S 7250   2.732   2.937   5.232 -1.5989  2.3825  0.9399
   80SOPE   C29 7251   2.659   2.776   5.100 -0.4020 -0.5332 -0.6138
   80SOPE   H91 7252   2.568   2.728   5.062 -1.3178  1.2607 -0.8173
   80SOPE  C210 7253   2.776   2.756   5.031  0.4543  0.7006 -0.1484
   80SOPE  H101 7254   2.765   2.694   4.940  0.0712  2.1903 -1.1511
   80SOPE  C211 7255   2.917   2.812   5.051 -0.3917 -0.6333  0.5211
   80SOPE  H11R 7256   2.990   2.752   4.992 -1.7166  1.2505 -3.3950
   80SOPE  H11S 7257   2.951   2.805   5.157  1.1615  1.7056  0.2642
   80SOPE  C212 7258   2.933   2.964   5.013  0.5368  0.0913 -0.0593
   80SOPE  H12R 7259   3.044   2.972   5.012  0.6888 -1.1946  1.4846
   80SOPE  H12S 7260   2.904   3.042   5.086 -0.2476 -1.4890  1.3868
   80SOPE  C213 7261   2.869   3.001   4.868  0.1163  0.0277 -0.1522
   80SOPE  H13R 7262   2.759   2.986   4.876  0.4686 -2.0152  1.9117
   80SOPE  H13S 7263   2.901   2.924   4.795 -0.3642 -0.3308  0.0034
   80SOPE  C214 7264   2.915   3.139   4.820  0.2972  0.2818  0.0809
   80SOPE  H14R 7265   3.023   3.119   4.800  0.8160  0.1798  2.6239
   80SOPE  H14S 7266   2.924   3.205   4.909  2.3177  1.3774 -0.8671
   80SOPE  C215 7267   2.820   3.205   4.718 -0.3634 -0.4392  0.1832
   80SOPE  H15R 7268   2.717   3.215   4.758 -0.7588  0.2781 -0.9895
   80SOPE  H15S 7269   2.825   3.136   4.631 -1.1912 -4.4571  3.0183
   80SOPE  C216 7270   2.867   3.351   4.681  0.1711 -0.4672  0.2296
   80SOPE  H16R 7271   2.958   3.345   4.618 -1.2684 -1.9885 -1.8661
   80SOPE  H16S 7272   2.895   3.410   4.770 -1.3513 -1.3380  1.3277
   80SOPE  C217 7273   2.769   3.442   4.602 -1.3159  0.1785 -0.1347
   80SOPE  H17R 7274   2.810   3.543   4.582 -2.3610  0.1398 -2.8806
   80SOPE  H17S 7275   2.676   3.458   4.660 -1.2210  0.0583  0.0513
   80SOPE  C218 7276   2.726   3.395   4.462  0.4011 -0.0184  0.6932
   80SOPE  H18R 7277   2.798   3.420   4.382 -0.3621  1.2655  0.3737
   80SOPE  H18S 7278   2.624   3.420   4.423  1.0366  0.4785 -0.7374
   80SOPE  H18T 7279   2.716   3.284   4.468 -3.3373  0.1680  0.6028
   80SOPE   C33 7280   3.099   3.116   5.719  0.0011 -0.4820  0.4217
   80SOPE   H3X 7281   3.209   3.105   5.735  0.5354  0.3318 -2.2287
   80SOPE   H3Y 7282   3.043   3.164   5.801 -0.8356  3.3598 -2.1294
   80SOPE   C34 7283   3.070   3.216   5.607  0.8698 -0.5416 -0.3749
   80SOPE   H4X 7284   3.087   3.318   5.646  1.3437 -1.2358  1.3298
   80SOPE   H4Y 7285   2.961   3.228   5.589  1.4129  2.3316 -2.3199
   80SOPE   C35 7286   3.161   3.195   5.483  0.5021 -1.2151 -0.4154
   80SOPE   H5X 7287   3.153   3.094   5.438 -0.1573 -0.4218 -2.1408
   80SOPE   H5Y 7288   3.264   3.224   5.513 -0.1628 -0.6613  1.5469
   80SOPE   C36 7289   3.117   3.288   5.373 -0.0163  0.4855  0.9423
   80SOPE   H6X 7290   3.117   3.393   5.410  0.8344  1.1749 -0.8839
   80SOPE   H6Y 7291   3.013   3.266   5.341  0.6135  0.1150 -0.9675
   80SOPE   C37 7292   3.226   3.279   5.263  0.2058 -0.2819  0.1946
   80SOPE   H7X 7293   3.234   3.170   5.246 -1.1057 -0.1392 -1.6971
   80SOPE   H7Y 7294   3.318   3.315   5.314 -0.5903  0.6944  0.9834
   80SOPE   C38 7295   3.201   3.369   5.147 -0.5469 -0.6619 -0.1491
   80SOPE   H8X 7296   3.170   3.468   5.188  1.3541  0.4422 -1.2288
   80SOPE   H8Y 7297   3.109   3.330   5.099 -1.3982  1.0965 -0.0225
   80SOPE   C39 7298   3.310   3.381   5.036  0.1190  0.0668  0.2959
   80SOPE   H9X 7299   3.345   3.280   5.008 -2.4947 -0.9340  0.3246
   80SOPE   H9Y 7300   3.392   3.442   5.080  0.4569 -0.9471  1.1152
   80SOPE  C310 7301   3.277   3.454   4.908  0.3152  1.1964  1.0217
   80SOPE  H10X 7302   3.251   3.561   4.923  0.6223  1.8453 -2.2008
   80SOPE  H10Y 7303   3.182   3.401   4.881  0.8566  0.7868 -0.1555
   80SOPE  C311 7304   3.389   3.453   4.802 -0.6891  0.6545 -0.4808
   80SOPE  H11X 7305   3.428   3.351   4.784  0.1468  0.9632 -0.5146
   80SOPE  H11Y 7306   3.482   3.505   4.835 -0.6422  0.8742 -0.9446
   80SOPE  C312 7307   3.355   3.502   4.658  0.1588 -0.4189 -0.6981
   80SOPE  H12X 7308   3.343   3.612   4.654  3.6533  0.1882  0.9302
   80SOPE  H12Y 7309   3.263   3.450   4.626  0.1839 -1.0589  0.2109
   80SOPE  C313 7310   3.458   3.480   4.548 -0.7188 -0.5053  0.2733
   80SOPE  H13X 7311   3.479   3.372   4.556 -0.9340 -0.5994 -0.3896
   80SOPE  H13Y 7312   3.541   3.550   4.572 -0.4935 -0.3425 -0.9338
   80SOPE  C314 7313   3.400   3.503   4.412 -0.2825  1.0536  0.4168
   80SOPE  H14X 7314   3.325   3.423   4.393  1.1040 -0.1817 -0.0723
   80SOPE  H14Y 7315   3.475   3.486   4.332 -1.3882  2.7582 -1.0672
   80SOPE  C315 7316   3.347   3.643   4.370  0.2848  0.5139 -0.4207
   80SOPE  H15X 7317   3.268   3.669   4.443  2.2533  0.3087  1.9285
   80SOPE  H15Y 7318   3.301   3.641   4.269 -0.9333  1.2085  0.0988
   80SOPE  C316 7319   3.456   3.752   4.379 -0.8848 -0.0821  0.0303
   80SOPE  H16X 7320   3.547   3.700   4.343 -0.4438  0.4847  0.3181
   80SOPE  H16Y 7321   3.486   3.785   4.481  1.5720  1.2525 -1.0443
   80SOPE  C317 7322   3.414   3.868   4.290  0.6556  0.3934  0.2118
   80SOPE  H17X 7323   3.315   3.907   4.323 -1.2385 -2.1513 -1.9682
   80SOPE  H17Y 7324   3.394   3.833   4.186  1.5046 -0.0046  0.1775
   80SOPE  C318 7325   3.515   3.987   4.271 -0.2685 -0.2307  0.2411
   80SOPE  H18X 7326   3.560   4.020   4.367 -1.6441 -3.1503  2.0001
   80SOPE  H18Y 7327   3.467   4.079   4.231  0.1690  0.4844  1.3072
   80SOPE  H18Z 7328   3.598   3.952   4.204  1.2778  1.4282  1.2075
   81SOPE     N 7329   5.407   5.964   7.373  0.3816  0.4009 -0.0199
   81SOPE   HN1 7330   5.347   6.041   7.410 -0.2995  0.3832 -1.0498
   81SOPE   HN2 7331   5.424   5.888   7.441 -1.7668 -0.2873 -0.1844
   81SOPE   HN3 7332   5.496   6.017   7.365  0.8752 -0.2536  1.0322
   81SOPE   C12 7333   5.366   5.892   7.246  0.1017  0.2100  0.1031
   81SOPE  H12A 7334   5.345   5.967   7.166 -1.1263  0.8074  0.9559
   81SOPE  H12B 7335   5.266   5.848   7.265  0.3637  0.3200  1.9122
   81SOPE   C11 7336   5.450   5.782   7.201  0.4560 -0.0163  0.9172
   81SOPE  H11A 7337   5.426   5.744   7.099  2.4395  1.2879 -0.1094
   81SOPE  H11B 7338   5.433   5.700   7.273  1.3402 -2.2837 -1.2937
   81SOPE     P 7339   5.645   5.891   7.066  0.3381 -0.4281 -0.0231
   81SOPE   O13 7340   5.783   5.846   7.036 -0.1167 -0.1342  0.2164
   81SOPE   O14 7341   5.623   6.036   7.084  0.0726 -0.3783  0.1925
   81SOPE   O12 7342   5.587   5.818   7.192 -0.8646 -0.2505 -0.1353
   81SOPE   O11 7343   5.554   5.856   6.944  0.2057 -0.3757  0.1836
   81SOPE    C1 7344   5.558   5.942   6.825  0.1342  0.6006 -0.6312
   81SOPE    HA 7345   5.626   6.027   6.847  1.3467 -0.6826  0.8815
   81SOPE    HB 7346   5.453   5.975   6.808 -0.1578 -0.6794 -1.4566
   81SOPE    C2 7347   5.606   5.870   6.693 -0.3849  0.0120 -0.3876
   81SOPE    HS 7348   5.546   5.779   6.670  1.1981 -1.2201  0.1312
   81SOPE   O21 7349   5.752   5.840   6.693  0.3355  0.2307 -0.0876
   81SOPE   C21 7350   5.787   5.724   6.633 -0.0703 -0.8100  0.0925
   81SOPE   O22 7351   5.714   5.640   6.593  0.4272 -0.2049 -0.2850
   81SOPE   C22 7352   5.943   5.717   6.636 -0.8020 -0.0323  0.0871
   81SOPE   H2R 7353   5.962   5.617   6.681  0.3442  0.4315  0.6651
   81SOPE   H2S 7354   5.989   5.797   6.698 -0.6488  0.2302 -0.3618
   81SOPE    C3 7355   5.570   5.966   6.578 -0.0343  0.3674  0.8057
   81SOPE    HX 7356   5.628   6.059   6.596  1.5301 -0.8369  2.2741
   81SOPE    HY 7357   5.467   6.004   6.596  0.4869  0.9821  2.7433
   81SOPE   O31 7358   5.590   5.919   6.444 -0.1942  0.0143  0.3178
   81SOPE   C31 7359   5.492   5.863   6.376  0.2563  0.6126 -0.0798
   81SOPE   O32 7360   5.384   5.830   6.422  0.8425 -0.3582  0.2807
   81SOPE   C32 7361   5.546   5.824   6.233 -0.2785  0.4186  0.0420
   81SOPE   H2X 7362   5.608   5.734   6.255 -1.2868 -0.1141  0.7926
   81SOPE   H2Y 7363   5.605   5.910   6.197  2.5571 -2.0568 -1.7322
   81SOPE   C23 7364   6.006   5.702   6.493 -0.0960  0.6577 -0.4291
   81SOPE   H3R 7365   5.949   5.618   6.447 -0.8872  1.3829 -0.8042
   81SOPE   H3S 7366   6.112   5.674   6.511 -1.1543 -3.3181  0.7717
   81SOPE   C24 7367   5.997   5.839   6.421 -0.6878  0.5536  0.1774
   81SOPE   H4R 7368   5.890   5.864   6.404 -1.5316 -2.9830 -0.4992
   81SOPE   H4S 7369   6.035   5.919   6.489 -1.5136  0.6061  0.5929
   81SOPE   C25 7370   6.061   5.847   6.281 -0.1005 -0.6087  0.4794
   81SOPE   H5R 7371   6.040   5.948   6.239  1.1484 -1.4824 -2.5258
   81SOPE   H5S 7372   6.172   5.846   6.280 -0.0971 -0.7211 -1.3141
   81SOPE   C26 7373   6.001   5.737   6.193 -0.4085  0.3811  0.3434
   81SOPE   H6R 7374   6.024   5.635   6.229  0.2693 -0.4790 -2.2736
   81SOPE   H6S 7375   5.891   5.738   6.179 -0.4022  1.6736  0.2293
   81SOPE   C27 7376   6.060   5.736   6.051  0.6603  0.3002 -0.4283
   81SOPE   H7R 7377   6.032   5.822   5.987  0.7140 -0.0282 -0.8934
   81SOPE   H7S 7378   6.170   5.748   6.057  0.7815  0.3953 -2.2690
   81SOPE   C28 7379   6.026   5.603   5.983 -0.7126  0.3645  0.9444
   81SOPE   H8R 7380   5.918   5.598   5.956 -0.5670  0.2195  0.3838
   81SOPE   H8S 7381   6.076   5.609   5.884 -0.8221 -1.6963  0.7091
   81SOPE   C29 7382   6.077   5.482   6.054  0.0330  0.1771  0.2366
   81SOPE   H91 7383   6.167   5.496   6.116  1.2758 -0.9937 -1.2143
   81SOPE  C210 7384   6.022   5.359   6.060  0.7570  0.2342 -0.9458
   81SOPE  H101 7385   6.073   5.287   6.126 -0.3250  2.2083  2.3234
   81SOPE  C211 7386   5.908   5.313   5.971 -0.0295  0.3077  0.2134
   81SOPE  H11R 7387   5.863   5.400   5.919 -0.0185 -0.1741 -0.6089
   81SOPE  H11S 7388   5.829   5.266   6.034 -0.6132  0.0790 -0.6775
   81SOPE  C212 7389   5.958   5.224   5.851 -0.0676  0.6046  0.3058
   81SOPE  H12R 7390   6.057   5.262   5.818 -0.4877 -0.6771 -2.6753
   81SOPE  H12S 7391   5.878   5.234   5.774  0.9298 -1.7913 -1.1526
   81SOPE  C213 7392   5.986   5.077   5.883 -0.3869 -0.1166 -0.1989
   81SOPE  H13R 7393   5.886   5.031   5.897 -0.8203  0.8174 -0.2094
   81SOPE  H13S 7394   6.039   5.059   5.979  2.9160 -2.1248 -2.1751
   81SOPE  C214 7395   6.068   5.009   5.777 -0.2112  0.1860  0.3611
   81SOPE  H14R 7396   6.089   4.904   5.805 -3.0651 -0.9763 -1.4611
   81SOPE  H14S 7397   6.165   5.064   5.779 -0.5524  0.7967  1.7480
   81SOPE  C215 7398   6.016   5.014   5.636 -0.0055 -0.3594  0.6433
   81SOPE  H15R 7399   6.094   5.005   5.558  0.0105 -0.7604  0.7062
   81SOPE  H15S 7400   5.965   5.112   5.631 -0.5804 -0.7116 -0.4870
   81SOPE  C216 7401   5.908   4.901   5.617  0.5089 -0.3746 -0.1163
   81SOPE  H16R 7402   5.848   4.894   5.711  0.5452 -0.1050 -0.0705
   81SOPE  H16S 7403   5.972   4.814   5.593  0.3233 -0.0364 -1.9407
   81SOPE  C217 7404   5.802   4.932   5.508 -0.4230  0.2061  0.0450
   81SOPE  H17R 7405   5.847   4.926   5.407 -2.2127  2.2458 -0.9467
   81SOPE  H17S 7406   5.767   5.037   5.509 -1.7625 -0.2009 -0.7640
   81SOPE  C218 7407   5.678   4.839   5.509  0.4794  0.5906  0.1508
   81SOPE  H18R 7408   5.612   4.851   5.598  1.9891  0.4333  1.3412
   81SOPE  H18S 7409   5.702   4.733   5.489 -0.5895 -0.1685  2.5645
   81SOPE  H18T 7410   5.612   4.857   5.422  0.5468  0.0483 -0.0145
   81SOPE   C33 7411   5.431   5.790   6.135 -0.7036  0.2137 -0.1908
   81SOPE   H3X 7412   5.466   5.795   6.030  1.0262  0.4751  0.3700
   81SOPE   H3Y 7413   5.348   5.864   6.135 -0.4082  0.6558  2.3046
   81SOPE   C34 7414   5.387   5.643   6.161  0.1942 -0.3520  0.0734
   81SOPE   H4X 7415   5.320   5.642   6.249 -0.1583 -0.8635 -0.1894
   81SOPE   H4Y 7416   5.473   5.582   6.195 -0.5748 -0.3646  2.1328
   81SOPE   C35 7417   5.307   5.581   6.041  0.1556 -0.2430  0.2732
   81SOPE   H5X 7418   5.258   5.666   5.989  3.5874  0.4231 -2.2174
   81SOPE   H5Y 7419   5.229   5.518   6.089 -1.0196 -0.2924 -1.6167
   81SOPE   C36 7420   5.394   5.502   5.937  0.1262 -0.4474 -0.2188
   81SOPE   H6X 7421   5.339   5.458   5.851  0.8494  0.5388 -1.2248
   81SOPE   H6Y 7422   5.444   5.419   5.991  0.6199 -1.2437 -1.8186
   81SOPE   C37 7423   5.503   5.594   5.884 -0.0409 -0.3837  0.1984
   81SOPE   H7X 7424   5.581   5.619   5.959 -0.0784 -1.1595  0.5053
   81SOPE   H7Y 7425   5.467   5.689   5.838  0.2680  1.2544  3.1272
   81SOPE   C38 7426   5.583   5.520   5.770  0.4543 -0.2474 -0.2459
   81SOPE   H8X 7427   5.522   5.463   5.697 -0.0938  0.1899 -0.1345
   81SOPE   H8Y 7428   5.629   5.445   5.839 -2.8179 -0.8008  1.5357
   81SOPE   C39 7429   5.694   5.599   5.705 -0.1730 -0.0339 -0.4571
   81SOPE   H9X 7430   5.763   5.535   5.646  0.1465 -0.9072  0.8306
   81SOPE   H9Y 7431   5.750   5.658   5.781 -0.8054  0.1102 -0.0998
   81SOPE  C310 7432   5.658   5.704   5.596 -0.0861 -0.6211  0.1011
   81SOPE  H10X 7433   5.750   5.746   5.551 -1.3305  2.3322  0.0759
   81SOPE  H10Y 7434   5.592   5.787   5.630 -1.0862 -0.6228 -1.7079
   81SOPE  C311 7435   5.576   5.640   5.484  0.1356  0.3421  0.0210
   81SOPE  H11X 7436   5.473   5.616   5.519  0.6145 -1.7515  0.0947
   81SOPE  H11Y 7437   5.620   5.540   5.464 -0.1336 -0.3538  2.5662
   81SOPE  C312 7438   5.569   5.726   5.359  0.0203  0.8910  0.5978
   81SOPE  H12X 7439   5.668   5.765   5.327  0.0230  1.4775  1.3012
   81SOPE  H12Y 7440   5.500   5.813   5.362  0.2742  1.0812  0.9665
   81SOPE  C313 7441   5.518   5.639   5.243  0.5440 -0.1721  0.9020
   81SOPE  H13X 7442   5.410   5.616   5.257  0.2357 -0.9013 -2.0083
   81SOPE  H13Y 7443   5.568   5.540   5.245 -0.0206 -0.4776  0.4381
   81SOPE  C314 7444   5.534   5.700   5.104 -0.4204 -0.3076  0.4460
   81SOPE  H14X 7445   5.635   5.744   5.097  0.0192 -1.1546  1.2538
   81SOPE  H14Y 7446   5.466   5.787   5.100 -0.6439 -0.4830  0.3989
   81SOPE  C315 7447   5.506   5.591   5.003  0.6696  0.0418  0.7288
   81SOPE  H15X 7448   5.421   5.524   5.025  0.2319 -0.3464 -1.9147
   81SOPE  H15Y 7449   5.604   5.538   4.993  0.1593 -0.9713  1.0203
   81SOPE  C316 7450   5.480   5.657   4.863 -0.1637  0.0883 -0.4474
   81SOPE  H16X 7451   5.514   5.576   4.793  0.7226 -1.0526  1.2332
   81SOPE  H16Y 7452   5.548   5.744   4.854  1.4963 -0.8858  1.6188
   81SOPE  C317 7453   5.335   5.691   4.840  0.0486 -0.2483 -0.0528
   81SOPE  H17X 7454   5.301   5.756   4.923 -3.0000 -2.4446  0.6044
   81SOPE  H17Y 7455   5.277   5.598   4.859  0.6988 -0.6413  0.0554
   81SOPE  C318 7456   5.306   5.765   4.706 -0.4444 -0.2468  0.2727
   81SOPE  H18X 7457   5.196   5.769   4.697 -0.4213 -2.0402 -1.4768
   81SOPE  H18Y 7458   5.347   5.715   4.616 -1.0114  0.0923 -0.1805
   81SOPE  H18Z 7459   5.356   5.864   4.715 -0.0723 -0.3863 -0.2413
   82SOPE     N 7460   2.336   5.388   6.432  0.1375  0.4058  0.0805
   82SOPE   HN1 7461   2.262   5.459   6.418 -0.7231 -0.9289 -2.7629
   82SOPE   HN2 7462   2.308   5.318   6.504 -1.4120  0.0023 -0.8734
   82SOPE   HN3 7463   2.427   5.431   6.457  0.6001 -1.0826  1.1261
   82SOPE   C12 7464   2.345   5.316   6.297 -0.6542  0.0239  0.0202
   82SOPE  H12A 7465   2.407   5.224   6.304  1.3969  1.0986 -2.2552
   82SOPE  H12B 7466   2.396   5.391   6.233  0.7979  0.4245  1.5677
   82SOPE   C11 7467   2.212   5.304   6.229  0.1483 -0.7542 -0.2168
   82SOPE  H11A 7468   2.146   5.245   6.295  1.2410 -2.9363 -0.9986
   82SOPE  H11B 7469   2.226   5.252   6.132  0.0621  0.1770 -0.7476
   82SOPE     P 7470   2.038   5.491   6.272  0.7011  0.0059  0.3914
   82SOPE   O13 7471   2.088   5.547   6.396  0.1379 -0.8496 -0.2241
   82SOPE   O14 7472   1.939   5.381   6.271  0.4647 -0.7961 -1.3432
   82SOPE   O12 7473   2.161   5.435   6.201 -0.0210  0.7050 -0.2747
   82SOPE   O11 7474   1.981   5.606   6.177 -0.2634  0.0081  0.4850
   82SOPE    C1 7475   1.889   5.583   6.076 -0.1343  0.4706 -0.3888
   82SOPE    HA 7476   1.843   5.677   6.041 -1.3760 -0.2817 -0.8522
   82SOPE    HB 7477   1.802   5.530   6.120 -0.2953  1.0351 -0.0253
   82SOPE    C2 7478   1.943   5.512   5.951  1.4530  0.8889  0.6396
   82SOPE    HS 7479   1.955   5.407   5.983  2.1291  0.8561  0.2866
   82SOPE   O21 7480   2.066   5.572   5.917  0.0433  0.0467 -0.8383
   82SOPE   C21 7481   2.169   5.497   5.873  0.6543  0.4970 -0.6482
   82SOPE   O22 7482   2.166   5.378   5.861  0.0180  0.3638 -0.7117
   82SOPE   C22 7483   2.289   5.588   5.857 -0.3817  0.2401 -0.8156
   82SOPE   H2R 7484   2.325   5.605   5.961 -1.8289 -0.6020 -0.1452
   82SOPE   H2S 7485   2.259   5.685   5.812  0.0992  1.6507  1.7305
   82SOPE    C3 7486   1.840   5.512   5.828 -0.6654  0.0192  0.4570
   82SOPE    HX 7487   1.806   5.618   5.817  1.6875  0.8606  0.7195
   82SOPE    HY 7488   1.754   5.452   5.864 -1.1247 -0.6222 -1.6172
   82SOPE   O31 7489   1.893   5.461   5.710 -0.2111 -0.0839 -0.5478
   82SOPE   C31 7490   1.809   5.471   5.601  0.1107 -0.4146  0.2784
   82SOPE   O32 7491   1.705   5.527   5.616 -0.5261 -0.7376 -0.6159
   82SOPE   C32 7492   1.864   5.422   5.465 -0.1523  0.1524  0.4114
   82SOPE   H2X 7493   1.834   5.494   5.386 -1.7561  0.2231  1.0492
   82SOPE   H2Y 7494   1.807   5.328   5.448  1.6458 -0.6777 -1.6142
   82SOPE   C23 7495   2.407   5.523   5.780  0.0274  0.0895 -0.2444
   82SOPE   H3R 7496   2.437   5.423   5.818  0.3215 -0.3391 -1.5532
   82SOPE   H3S 7497   2.491   5.595   5.785  0.0503 -0.0361  3.3103
   82SOPE   C24 7498   2.365   5.517   5.632 -0.0363 -0.0320  0.6512
   82SOPE   H4R 7499   2.301   5.431   5.603 -0.2587  0.4666 -0.3703
   82SOPE   H4S 7500   2.309   5.611   5.612 -1.4856 -1.0372 -0.2729
   82SOPE   C25 7501   2.481   5.506   5.537 -0.1377  0.0214  0.4528
   82SOPE   H5R 7502   2.565   5.576   5.558  0.2790  0.0370 -1.1737
   82SOPE   H5S 7503   2.520   5.404   5.555 -1.8505 -0.5672  1.0520
   82SOPE   C26 7504   2.446   5.513   5.386  0.3803 -0.4602 -0.2012
   82SOPE   H6R 7505   2.354   5.455   5.366 -0.5136  1.5381 -2.4365
   82SOPE   H6S 7506   2.417   5.621   5.382 -2.5568 -1.1511  0.2765
   82SOPE   C27 7507   2.567   5.466   5.306  0.7156  0.4925 -0.4996
   82SOPE   H7R 7508   2.642   5.544   5.331 -1.2367  3.3971 -2.9246
   82SOPE   H7S 7509   2.599   5.369   5.351 -0.6944 -0.0299 -0.5848
   82SOPE   C28 7510   2.538   5.459   5.155  0.1916  0.5057  0.0999
   82SOPE   H8R 7511   2.455   5.390   5.127 -0.7385  1.9336 -0.8056
   82SOPE   H8S 7512   2.490   5.552   5.118  1.6849  0.5095 -1.9818
   82SOPE   C29 7513   2.667   5.455   5.065  0.0615  0.6538 -0.0211
   82SOPE   H91 7514   2.753   5.515   5.098  1.3587  1.3007 -4.0215
   82SOPE  C210 7515   2.673   5.385   4.951  0.5585 -0.4712 -0.5682
   82SOPE  H101 7516   2.766   5.402   4.896  0.6884  2.4519  0.3533
   82SOPE  C211 7517   2.566   5.293   4.892 -0.4411 -0.3228  0.0524
   82SOPE  H11R 7518   2.505   5.353   4.821  0.4259  0.4539 -0.0537
   82SOPE  H11S 7519   2.498   5.252   4.969 -0.5080  1.0200  0.7330
   82SOPE  C212 7520   2.631   5.184   4.805 -0.0228 -0.6890  0.4018
   82SOPE  H12R 7521   2.695   5.228   4.724 -2.9074  1.4838 -0.8888
   82SOPE  H12S 7522   2.545   5.128   4.764 -0.0499  0.3474 -1.0413
   82SOPE  C213 7523   2.710   5.085   4.892  0.4527 -0.6093  0.4304
   82SOPE  H13R 7524   2.649   5.075   4.984 -0.2439  0.8021  0.1429
   82SOPE  H13S 7525   2.809   5.132   4.913 -0.0596  2.3332 -2.8124
   82SOPE  C214 7526   2.721   4.951   4.820  0.5135  0.5136  0.0766
   82SOPE  H14R 7527   2.760   4.976   4.719 -0.1885  1.0626 -0.0669
   82SOPE  H14S 7528   2.625   4.895   4.820  1.4448 -1.3111 -2.5931
   82SOPE  C215 7529   2.818   4.848   4.879  0.1347  0.8933 -0.1240
   82SOPE  H15R 7530   2.774   4.807   4.973  1.3961  0.0950  0.1388
   82SOPE  H15S 7531   2.912   4.896   4.912  0.4459 -0.3458  0.8878
   82SOPE  C216 7532   2.845   4.735   4.782  0.1456  0.9011 -0.1384
   82SOPE  H16R 7533   2.893   4.783   4.694  0.3633 -2.2385 -1.8790
   82SOPE  H16S 7534   2.745   4.696   4.752  0.7540 -1.8142  1.0860
   82SOPE  C217 7535   2.936   4.617   4.819  0.0086 -0.5701  0.0781
   82SOPE  H17R 7536   2.941   4.543   4.736 -0.1639  0.8852 -1.2760
   82SOPE  H17S 7537   2.906   4.567   4.914  1.4032  2.0962  2.0346
   82SOPE  C218 7538   3.082   4.660   4.827 -0.8712 -0.8453 -0.7028
   82SOPE  H18R 7539   3.154   4.578   4.804 -1.7994 -1.8728 -0.0539
   82SOPE  H18S 7540   3.110   4.696   4.928  0.3133  2.8078 -2.1906
   82SOPE  H18T 7541   3.101   4.748   4.763 -1.6226  0.7687  1.2042
   82SOPE   C33 7542   2.018   5.385   5.462  0.5978  0.0389  0.3278
   82SOPE   H3X 7543   2.040   5.328   5.555  0.3828 -1.4834 -0.5098
   82SOPE   H3Y 7544   2.085   5.473   5.463 -1.3282  1.7057 -2.7387
   82SOPE   C34 7545   2.057   5.299   5.343 -0.4445 -0.5950 -0.2261
   82SOPE   H4X 7546   1.990   5.212   5.332 -0.0899 -0.5882 -3.2723
   82SOPE   H4Y 7547   2.156   5.254   5.369  0.5219  1.0925 -0.8154
   82SOPE   C35 7548   2.066   5.380   5.213 -0.3047 -0.6353  0.4459
   82SOPE   H5X 7549   2.149   5.453   5.228  1.2923 -2.2693 -0.0872
   82SOPE   H5Y 7550   1.969   5.432   5.198  0.1283  0.0487 -0.0828
   82SOPE   C36 7551   2.113   5.285   5.100 -0.1214 -0.2268 -0.4124
   82SOPE   H6X 7552   2.046   5.196   5.102 -2.3135  1.3476  1.4680
   82SOPE   H6Y 7553   2.217   5.252   5.119 -0.6246 -1.2877  0.6730
   82SOPE   C37 7554   2.093   5.344   4.959  0.3773  0.4733  0.4216
   82SOPE   H7X 7555   2.153   5.436   4.941  1.4862  0.1385  2.1785
   82SOPE   H7Y 7556   1.985   5.360   4.938  0.6974  0.6674 -1.2575
   82SOPE   C38 7557   2.136   5.236   4.854 -0.3314 -0.3369 -0.1767
   82SOPE   H8X 7558   2.050   5.169   4.831 -1.6038  0.5410  1.8428
   82SOPE   H8Y 7559   2.207   5.159   4.891 -0.1551 -0.1988 -0.2267
   82SOPE   C39 7560   2.195   5.291   4.723 -0.8613 -0.1426  0.5768
   82SOPE   H9X 7561   2.218   5.200   4.664  1.0714  0.7939 -0.2233
   82SOPE   H9Y 7562   2.285   5.345   4.761 -0.9722  1.4230 -1.2302
   82SOPE  C310 7563   2.110   5.384   4.635  0.3908  0.8166 -0.2467
   82SOPE  H10X 7564   2.158   5.431   4.547 -0.4680  0.9241 -0.6612
   82SOPE  H10Y 7565   2.068   5.452   4.712 -1.6327 -0.9284  0.2684
   82SOPE  C311 7566   1.984   5.306   4.584 -0.0413  0.1512 -0.1705
   82SOPE  H11X 7567   1.920   5.261   4.663 -2.2230 -1.1459 -2.5195
   82SOPE  H11Y 7568   2.026   5.216   4.535  0.9648 -0.4658  1.7125
   82SOPE  C312 7569   1.896   5.395   4.494 -0.1366  0.3032 -0.2262
   82SOPE  H12X 7570   1.957   5.435   4.410  0.1030 -0.9098 -0.6458
   82SOPE  H12Y 7571   1.854   5.485   4.544  2.2548  1.1534  0.3793
   82SOPE  C313 7572   1.781   5.308   4.441  0.0553 -0.2644  0.3075
   82SOPE  H13X 7573   1.725   5.267   4.528  2.0530 -0.2858  1.6328
   82SOPE  H13Y 7574   1.823   5.220   4.388  0.6733 -0.5038  1.1818
   82SOPE  C314 7575   1.681   5.387   4.355  0.3027 -0.4908 -0.4373
   82SOPE  H14X 7576   1.650   5.478   4.412 -0.8481 -0.3934 -1.1958
   82SOPE  H14Y 7577   1.591   5.329   4.326  0.5006  0.3127 -2.8201
   82SOPE  C315 7578   1.734   5.422   4.216 -0.1740  0.1277 -0.4247
   82SOPE  H15X 7579   1.774   5.335   4.158 -1.8933  1.3752 -3.7331
   82SOPE  H15Y 7580   1.825   5.486   4.224  0.0482 -0.3917  1.6545
   82SOPE  C316 7581   1.630   5.478   4.121  0.5435 -0.1098  0.5375
   82SOPE  H16X 7582   1.554   5.397   4.129  1.5177 -1.0566  0.4367
   82SOPE  H16Y 7583   1.672   5.494   4.019 -0.4387  2.3604  0.4389
   82SOPE  C317 7584   1.589   5.617   4.158  0.5206 -0.1745 -0.3867
   82SOPE  H17X 7585   1.601   5.640   4.266 -3.5456  1.2378 -0.0542
   82SOPE  H17Y 7586   1.480   5.630   4.140  0.0978  1.3056  2.5261
   82SOPE  C318 7587   1.656   5.725   4.071  0.1001 -0.4706 -0.1623
   82SOPE  H18X 7588   1.764   5.732   4.098 -0.4256 -2.1679  2.7951
   82SOPE  H18Y 7589   1.611   5.824   4.096  0.8315 -0.5523  1.5908
   82SOPE  H18Z 7590   1.633   5.717   3.963 -0.1211  0.5487 -0.2025
   83SOPE     N 7591   2.855   0.705   2.112  0.6058 -0.0159  0.3345
   83SOPE   HN1 7592   2.831   0.673   2.208  0.7407 -1.4240 -0.0801
   83SOPE   HN2 7593   2.928   0.641   2.076 -0.4708 -1.5176  0.6998
   83SOPE   HN3 7594   2.896   0.800   2.103 -1.3938  1.0144  1.2743
   83SOPE   C12 7595   2.738   0.687   2.023 -0.0696  0.0819  0.1154
   83SOPE  H12A 7596   2.648   0.719   2.080  1.0686  2.7344  0.5390
   83SOPE  H12B 7597   2.729   0.582   1.988  1.5558  0.4321 -1.4879
   83SOPE   C11 7598   2.744   0.798   1.917 -0.9353 -0.1585 -0.7695
   83SOPE  H11A 7599   2.648   0.783   1.864 -1.8695  0.2834  0.7361
   83SOPE  H11B 7600   2.828   0.771   1.849  1.3097  0.4613  1.6053
   83SOPE     P 7601   2.670   1.047   1.929 -0.0452  0.1367  0.3278
   83SOPE   O13 7602   2.540   0.998   1.888  0.1276  0.5419 -0.4294
   83SOPE   O14 7603   2.749   1.141   1.839 -0.2929 -0.2460  0.6064
   83SOPE   O12 7604   2.764   0.923   1.970 -0.4411  0.2493 -0.0464
   83SOPE   O11 7605   2.653   1.117   2.066 -0.0631 -0.3782 -0.0731
   83SOPE    C1 7606   2.757   1.151   2.153 -0.8454  0.0673 -0.6394
   83SOPE    HA 7607   2.759   1.261   2.170 -1.7361  0.0095 -0.1094
   83SOPE    HB 7608   2.857   1.122   2.114 -1.4908 -2.0063 -0.8669
   83SOPE    C2 7609   2.740   1.088   2.289  0.0461  0.2942 -0.5437
   83SOPE    HS 7610   2.741   0.979   2.273 -1.3820 -0.2278  2.2998
   83SOPE   O21 7611   2.608   1.124   2.333  0.3089  0.3250 -0.8445
   83SOPE   C21 7612   2.548   1.028   2.411 -1.1375  0.4452  0.4064
   83SOPE   O22 7613   2.609   0.927   2.443 -0.1054 -0.7005  0.1003
   83SOPE   C22 7614   2.403   1.046   2.429  0.2225 -0.6445  0.0178
   83SOPE   H2R 7615   2.348   0.956   2.462 -1.6506  0.5291  0.2477
   83SOPE   H2S 7616   2.365   1.068   2.327 -0.1451  0.6807  0.4238
   83SOPE    C3 7617   2.842   1.123   2.394  0.1775 -0.0606  0.3532
   83SOPE    HX 7618   2.811   1.228   2.412  2.1127  0.6457 -0.2640
   83SOPE    HY 7619   2.943   1.132   2.349 -0.4819 -1.0837 -1.4029
   83SOPE   O31 7620   2.852   1.033   2.505 -0.0368  0.0988 -0.2454
   83SOPE   C31 7621   2.841   1.094   2.615  0.2226 -0.2667  0.0739
   83SOPE   O32 7622   2.847   1.217   2.629  1.0274 -0.3417  0.0164
   83SOPE   C32 7623   2.794   1.010   2.729 -0.4226  0.3412  0.1238
   83SOPE   H2X 7624   2.873   0.935   2.752  0.6510  0.5944 -2.4550
   83SOPE   H2Y 7625   2.705   0.956   2.691  0.2882  0.1194 -1.2853
   83SOPE   C23 7626   2.364   1.156   2.533  0.6924 -0.7407  0.0625
   83SOPE   H3R 7627   2.256   1.178   2.514  1.1030  0.4909 -1.0253
   83SOPE   H3S 7628   2.399   1.257   2.501  1.0865 -0.8214  0.2368
   83SOPE   C24 7629   2.411   1.117   2.675  0.3271  0.3229 -0.3556
   83SOPE   H4R 7630   2.522   1.115   2.677  0.3371 -0.5431  1.7296
   83SOPE   H4S 7631   2.373   1.194   2.745 -1.1602 -1.4716  0.9276
   83SOPE   C25 7632   2.352   0.978   2.722  0.6405  0.0688  0.9419
   83SOPE   H5R 7633   2.387   0.893   2.659  2.4321  1.2877  0.1836
   83SOPE   H5S 7634   2.387   0.955   2.824 -1.9240  0.2510  1.9320
   83SOPE   C26 7635   2.194   0.968   2.725 -0.5613 -0.0831 -0.1888
   83SOPE   H6R 7636   2.157   1.057   2.781 -0.2086  0.0722 -0.2002
   83SOPE   H6S 7637   2.158   0.968   2.620 -0.1276  3.0883 -0.4550
   83SOPE   C27 7638   2.145   0.842   2.798 -0.1883  0.1377 -0.2959
   83SOPE   H7R 7639   2.170   0.755   2.732 -1.8690 -2.9403  2.7876
   83SOPE   H7S 7640   2.200   0.815   2.891  0.0748  1.2418 -0.1220
   83SOPE   C28 7641   1.997   0.840   2.840  0.0307  0.4486 -0.9220
   83SOPE   H8R 7642   1.927   0.878   2.761 -2.4916  0.0784  0.9964
   83SOPE   H8S 7643   1.963   0.736   2.862  1.3961 -0.1868 -1.6971
   83SOPE   C29 7644   1.973   0.916   2.965 -0.4543 -0.1282  0.6306
   83SOPE   H91 7645   1.957   1.020   2.931 -0.3865 -0.9501 -2.1520
   83SOPE  C210 7646   1.965   0.879   3.093  0.1751  0.6731 -0.5287
   83SOPE  H101 7647   1.952   0.961   3.165  1.2950 -0.6670  1.2729
   83SOPE  C211 7648   1.992   0.741   3.143  0.4459  0.3110 -0.6707
   83SOPE  H11R 7649   1.951   0.671   3.067 -0.6621  1.6159 -1.3305
   83SOPE  H11S 7650   1.940   0.731   3.240 -0.7303  0.3905 -1.2692
   83SOPE  C212 7651   2.136   0.695   3.177 -0.0551 -0.2789  0.8189
   83SOPE  H12R 7652   2.182   0.777   3.235 -0.1070  0.0735  0.3711
   83SOPE  H12S 7653   2.194   0.692   3.082  0.2773  1.4768  0.9478
   83SOPE  C213 7654   2.134   0.564   3.254 -0.0958  0.6254 -0.1463
   83SOPE  H13R 7655   2.098   0.481   3.189  0.9557 -0.3563  0.5012
   83SOPE  H13S 7656   2.074   0.568   3.347 -0.1818 -0.9395 -0.1009
   83SOPE  C214 7657   2.268   0.518   3.312 -0.0015 -0.6317  0.3785
   83SOPE  H14R 7658   2.314   0.614   3.343 -0.4241 -0.0471 -0.7661
   83SOPE  H14S 7659   2.332   0.473   3.233 -0.3628 -2.5621  1.1224
   83SOPE  C215 7660   2.254   0.418   3.425  0.7581 -0.6348  1.1073
   83SOPE  H15R 7661   2.349   0.360   3.422  0.9088 -0.4737  2.2019
   83SOPE  H15S 7662   2.179   0.341   3.397  0.6005  0.4154 -1.7788
   83SOPE  C216 7663   2.230   0.472   3.568  0.6072 -0.0457  0.9247
   83SOPE  H16R 7664   2.131   0.518   3.584  1.2001  0.2032  5.1721
   83SOPE  H16S 7665   2.305   0.554   3.577  0.5766  0.1776 -0.6199
   83SOPE  C217 7666   2.251   0.371   3.678  0.4968 -0.1221 -0.2697
   83SOPE  H17R 7667   2.355   0.332   3.679  0.7260  0.4559 -0.9804
   83SOPE  H17S 7668   2.192   0.277   3.667  1.0447 -0.4258 -0.6611
   83SOPE  C218 7669   2.228   0.428   3.812  0.6649 -0.3258  0.5186
   83SOPE  H18R 7670   2.236   0.344   3.885  1.5223 -1.9718 -1.4016
   83SOPE  H18S 7671   2.126   0.472   3.813  0.1584 -1.4613  1.1500
   83SOPE  H18T 7672   2.296   0.509   3.848  2.0102 -1.9606  1.8089
   83SOPE   C33 7673   2.744   1.086   2.860  0.0393  0.3790 -0.0024
   83SOPE   H3X 7674   2.672   1.163   2.825 -0.8240 -0.9392 -1.2530
   83SOPE   H3Y 7675   2.833   1.134   2.906  2.4637 -3.0034 -0.7273
   83SOPE   C34 7676   2.665   0.984   2.948  0.0861  0.4330 -0.2708
   83SOPE   H4X 7677   2.728   0.895   2.973 -2.5957 -1.5844 -0.1518
   83SOPE   H4Y 7678   2.593   0.955   2.869 -0.1412  2.4321 -0.8423
   83SOPE   C35 7679   2.601   1.044   3.069 -0.2935  0.1034  0.1540
   83SOPE   H5X 7680   2.572   1.147   3.039  3.6381  1.6819  1.1867
   83SOPE   H5Y 7681   2.665   1.049   3.160 -2.0245  0.0385  1.4319
   83SOPE   C36 7682   2.465   0.973   3.099  0.1754  0.5995 -0.5005
   83SOPE   H6X 7683   2.421   0.913   3.017 -3.2196  0.4580  1.2243
   83SOPE   H6Y 7684   2.387   1.045   3.130 -0.8486 -0.8634  0.4576
   83SOPE   C37 7685   2.480   0.875   3.215  0.2818 -0.2599 -0.7012
   83SOPE   H7X 7686   2.560   0.799   3.201 -1.1165 -1.5472 -2.1728
   83SOPE   H7Y 7687   2.388   0.813   3.231 -1.3054  1.8052 -1.3496
   83SOPE   C38 7688   2.508   0.932   3.359 -0.1619 -0.3985  0.2718
   83SOPE   H8X 7689   2.431   1.011   3.378  0.5682  1.1400 -2.6386
   83SOPE   H8Y 7690   2.595   1.002   3.358 -1.0263  0.7055 -0.0980
   83SOPE   C39 7691   2.506   0.822   3.466  0.3161 -0.8534 -1.4919
   83SOPE   H9X 7692   2.599   0.762   3.454  2.9949  2.3645  1.2402
   83SOPE   H9Y 7693   2.413   0.764   3.447 -1.7565 -0.1322  4.2982
   83SOPE  C310 7694   2.501   0.888   3.605 -0.5115 -0.4529 -0.6243
   83SOPE  H10X 7695   2.416   0.959   3.617  1.2009  1.4561  1.0981
   83SOPE  H10Y 7696   2.589   0.957   3.613 -0.6396 -0.4309  0.7248
   83SOPE  C311 7697   2.502   0.796   3.728 -0.3393 -0.0651  0.1517
   83SOPE  H11X 7698   2.606   0.782   3.765  0.6502  1.5570 -1.8188
   83SOPE  H11Y 7699   2.467   0.696   3.697 -0.4599  0.1855 -0.5390
   83SOPE  C312 7700   2.413   0.851   3.840 -0.0585 -0.4462 -0.0954
   83SOPE  H12X 7701   2.376   0.772   3.909 -1.6549  1.3973  1.2716
   83SOPE  H12Y 7702   2.321   0.890   3.792 -0.7328 -2.9203 -0.9534
   83SOPE  C313 7703   2.488   0.955   3.930  0.6836 -0.3441  0.8284
   83SOPE  H13X 7704   2.531   1.040   3.873  1.7489 -1.4197 -0.0221
   83SOPE  H13Y 7705   2.571   0.897   3.977  0.2902  0.2642  2.3452
   83SOPE  C314 7706   2.396   0.996   4.046 -0.6445 -0.1707  1.0745
   83SOPE  H14X 7707   2.332   0.915   4.088 -0.1717 -0.4800  1.2174
   83SOPE  H14Y 7708   2.327   1.071   4.003  0.5455  0.3564  0.0057
   83SOPE  C315 7709   2.482   1.066   4.154  0.3405  0.7474  0.3805
   83SOPE  H15X 7710   2.502   1.171   4.122 -0.2718  0.9323  0.5844
   83SOPE  H15Y 7711   2.578   1.011   4.161 -0.4975 -0.9115 -0.4680
   83SOPE  C316 7712   2.407   1.059   4.290  0.9729 -0.2948  0.4955
   83SOPE  H16X 7713   2.406   0.954   4.328  1.7664 -0.6361 -0.3920
   83SOPE  H16Y 7714   2.302   1.093   4.282  0.7900 -0.9758 -0.1152
   83SOPE  C317 7715   2.468   1.147   4.402 -0.1638 -0.5492  0.0768
   83SOPE  H17X 7716   2.394   1.153   4.485  1.3559  2.6483  1.3789
   83SOPE  H17Y 7717   2.481   1.255   4.381  2.3878  0.0138  3.5750
   83SOPE  C318 7718   2.601   1.087   4.453  0.9716 -0.0963  0.6609
   83SOPE  H18X 7719   2.605   0.976   4.455  1.6412 -0.1223 -0.7669
   83SOPE  H18Y 7720   2.622   1.128   4.554  1.2729 -1.5579  1.2107
   83SOPE  H18Z 7721   2.685   1.122   4.389  0.8203 -0.1208  0.4484
   84SOPE     N 7722   1.274   5.400   2.275  0.2617 -0.4255  0.5751
   84SOPE   HN1 7723   1.208   5.321   2.262  1.2533 -0.9459 -1.8530
   84SOPE   HN2 7724   1.216   5.483   2.300  0.0325  0.0802 -1.4471
   84SOPE   HN3 7725   1.314   5.423   2.182 -0.9171  0.2794  0.2182
   84SOPE   C12 7726   1.373   5.378   2.382 -0.7045  0.7738  0.0279
   84SOPE  H12A 7727   1.441   5.464   2.397 -1.3828  1.6137 -1.5344
   84SOPE  H12B 7728   1.429   5.283   2.367 -1.1693  0.3887  0.6506
   84SOPE   C11 7729   1.293   5.348   2.512 -0.7833 -0.3556  0.4594
   84SOPE  H11A 7730   1.242   5.444   2.535  1.9467  1.0048  1.2998
   84SOPE  H11B 7731   1.364   5.323   2.593  1.3678  0.4131 -1.1021
   84SOPE     P 7732   1.063   5.239   2.570  0.1414  0.0133 -0.1114
   84SOPE   O13 7733   1.035   5.107   2.628  0.1622  0.4930  0.1921
   84SOPE   O14 7734   0.967   5.290   2.471  0.2663  1.0671 -0.2359
   84SOPE   O12 7735   1.207   5.234   2.506  0.0041 -0.4021  0.0962
   84SOPE   O11 7736   1.078   5.347   2.693  0.0971 -0.0855 -0.3137
   84SOPE    C1 7737   0.981   5.449   2.730 -0.4086 -0.2025  0.0001
   84SOPE    HA 7738   0.944   5.441   2.834 -0.7686 -1.9158 -0.2225
   84SOPE    HB 7739   0.889   5.433   2.669 -0.2095  0.1198 -0.3916
   84SOPE    C2 7740   1.032   5.597   2.725  0.4225 -0.3930  0.2989
   84SOPE    HS 7741   1.070   5.594   2.620 -1.6167 -2.0102 -0.4520
   84SOPE   O21 7742   1.132   5.612   2.820  0.2461 -0.6338  0.2487
   84SOPE   C21 7743   1.230   5.701   2.783  0.6556  1.0295  0.4408
   84SOPE   O22 7744   1.244   5.744   2.672 -0.0596 -0.1009 -0.6708
   84SOPE   C22 7745   1.311   5.742   2.908 -0.5919 -0.0532 -0.5523
   84SOPE   H2R 7746   1.315   5.657   2.980  3.1163 -0.3483 -0.9170
   84SOPE   H2S 7747   1.260   5.827   2.957  0.8228  0.0043  0.9094
   84SOPE    C3 7748   0.920   5.700   2.740 -0.0058 -0.6762  0.3045
   84SOPE    HX 7749   0.846   5.664   2.666 -0.3026 -0.7970  0.6570
   84SOPE    HY 7750   0.954   5.802   2.714 -1.3224 -0.2271  0.2889
   84SOPE   O31 7751   0.860   5.695   2.872  0.4115 -0.6409  0.2226
   84SOPE   C31 7752   0.911   5.769   2.968 -0.0992  0.2406 -0.0625
   84SOPE   O32 7753   0.971   5.873   2.948  0.2658  0.3127  0.0998
   84SOPE   C32 7754   0.886   5.703   3.105  0.0851 -0.5738  0.1447
   84SOPE   H2X 7755   0.926   5.601   3.126 -0.8397 -0.9091  0.3120
   84SOPE   H2Y 7756   0.775   5.703   3.103  0.0728  0.5160 -1.8476
   84SOPE   C23 7757   1.456   5.788   2.869 -0.1890 -0.2815  0.3129
   84SOPE   H3R 7758   1.455   5.873   2.798 -2.3561 -0.3603  0.1928
   84SOPE   H3S 7759   1.518   5.701   2.841 -0.7179 -0.6612  0.3168
   84SOPE   C24 7760   1.516   5.866   2.994 -1.2937  0.0368 -0.6525
   84SOPE   H4R 7761   1.597   5.940   2.979 -0.9748  0.3310  2.0321
   84SOPE   H4S 7762   1.436   5.912   3.056  0.5222  1.0815  1.0295
   84SOPE   C25 7763   1.577   5.765   3.098  0.0645  0.4665  1.0774
   84SOPE   H5R 7764   1.501   5.685   3.109  0.4920 -0.1232 -0.1052
   84SOPE   H5S 7765   1.665   5.723   3.044 -0.3855  2.6239 -1.6019
   84SOPE   C26 7766   1.614   5.830   3.233 -0.3699  0.6629 -0.5816
   84SOPE   H6R 7767   1.688   5.912   3.217  2.5747 -1.8221 -0.6805
   84SOPE   H6S 7768   1.525   5.868   3.288  0.4173  1.1899  0.3653
   84SOPE   C27 7769   1.681   5.722   3.323 -0.2672 -0.3078  0.9427
   84SOPE   H7R 7770   1.612   5.636   3.334 -0.9382  0.2494  1.1839
   84SOPE   H7S 7771   1.768   5.677   3.270 -1.8279 -1.3429 -0.8908
   84SOPE   C28 7772   1.719   5.780   3.458  0.5217  0.9819 -0.0073
   84SOPE   H8R 7773   1.796   5.718   3.508 -0.1553 -0.5675 -0.8387
   84SOPE   H8S 7774   1.769   5.877   3.435  1.2523 -0.0724 -3.4126
   84SOPE   C29 7775   1.602   5.801   3.543  0.4023  0.3510 -0.0481
   84SOPE   H91 7776   1.505   5.771   3.501 -0.1934 -0.9067  2.0840
   84SOPE  C210 7777   1.611   5.860   3.665 -0.1897  0.2464 -0.3470
   84SOPE  H101 7778   1.529   5.875   3.737  0.8279 -1.5378  1.2814
   84SOPE  C211 7779   1.743   5.892   3.736  0.2942  0.0619  0.6072
   84SOPE  H11R 7780   1.821   5.842   3.676 -0.9074 -1.9641  0.6622
   84SOPE  H11S 7781   1.751   5.840   3.833  0.6470 -0.5988  0.2272
   84SOPE  C212 7782   1.771   6.041   3.761  0.1306 -0.4160  0.5158
   84SOPE  H12R 7783   1.742   6.100   3.670 -2.2903  0.0443  1.4960
   84SOPE  H12S 7784   1.880   6.052   3.774 -0.0744  1.7949  0.8487
   84SOPE  C213 7785   1.696   6.092   3.889 -0.2327  0.2548 -0.2074
   84SOPE  H13R 7786   1.732   6.021   3.967 -1.2137  1.4393  1.3979
   84SOPE  H13S 7787   1.586   6.090   3.873 -0.2477  0.9086 -0.2106
   84SOPE  C214 7788   1.738   6.231   3.920 -0.0228 -0.3966  0.3375
   84SOPE  H14R 7789   1.673   6.265   4.004 -1.1279  1.5260 -1.2120
   84SOPE  H14S 7790   1.718   6.294   3.831 -0.5424 -0.0372  0.7083
   84SOPE  C215 7791   1.887   6.239   3.952  0.2433 -0.7822 -0.3018
   84SOPE  H15R 7792   1.949   6.226   3.861 -0.1055  0.0429 -0.6653
   84SOPE  H15S 7793   1.912   6.147   4.011 -2.8738 -1.2103  0.5219
   84SOPE  C216 7794   1.932   6.354   4.044 -0.2995 -0.6013 -0.3006
   84SOPE  H16R 7795   1.891   6.327   4.143  1.0608  3.2153  1.5199
   84SOPE  H16S 7796   1.891   6.451   4.007 -1.6552 -1.0720 -0.0671
   84SOPE  C217 7797   2.085   6.357   4.060 -0.8013  0.3880 -0.1971
   84SOPE  H17R 7798   2.142   6.356   3.965 -0.3386  0.1125  0.0796
   84SOPE  H17S 7799   2.118   6.259   4.099 -1.7818 -0.4889 -1.5045
   84SOPE  C218 7800   2.130   6.478   4.146 -0.0248 -0.8565 -0.1276
   84SOPE  H18R 7801   2.240   6.487   4.158  0.0886 -1.3338 -0.7639
   84SOPE  H18S 7802   2.078   6.467   4.244  1.4111 -1.3711  0.5949
   84SOPE  H18T 7803   2.084   6.571   4.104 -4.1751 -2.7584 -0.2799
   84SOPE   C33 7804   0.924   5.802   3.218 -0.4250  0.6964  0.8076
   84SOPE   H3X 7805   0.836   5.864   3.244 -0.3608 -0.3452  3.9228
   84SOPE   H3Y 7806   1.004   5.875   3.191 -1.7918  1.3370 -1.8402
   84SOPE   C34 7807   0.976   5.714   3.333 -0.3363 -0.4845 -0.1955
   84SOPE   H4X 7808   1.058   5.647   3.299 -0.9615 -1.6748  0.5577
   84SOPE   H4Y 7809   0.885   5.660   3.365 -0.2704 -1.2125 -1.2062
   84SOPE   C35 7810   1.034   5.786   3.449 -0.3738 -1.1825 -0.3641
   84SOPE   H5X 7811   1.031   5.721   3.539  0.8765  0.5195  0.9595
   84SOPE   H5Y 7812   0.976   5.880   3.456 -2.0299 -2.0620 -1.5931
   84SOPE   C36 7813   1.184   5.832   3.426 -0.3493  0.1020 -0.6520
   84SOPE   H6X 7814   1.192   5.888   3.330  1.5467 -1.0409 -1.2014
   84SOPE   H6Y 7815   1.245   5.740   3.419 -3.1836 -1.7911 -3.4124
   84SOPE   C37 7816   1.226   5.930   3.535  0.0123 -0.1472 -0.1259
   84SOPE   H7X 7817   1.141   6.000   3.550 -1.0438 -1.0719 -1.5431
   84SOPE   H7Y 7818   1.311   5.991   3.499  0.1777 -1.1200 -1.4487
   84SOPE   C38 7819   1.251   5.880   3.679 -0.1180 -0.3701 -0.2039
   84SOPE   H8X 7820   1.331   5.804   3.683 -0.7090 -1.0137 -0.4080
   84SOPE   H8Y 7821   1.167   5.816   3.713  0.4821  0.6342  3.7204
   84SOPE   C39 7822   1.272   5.987   3.784  0.1548 -0.0542  0.0141
   84SOPE   H9X 7823   1.185   6.054   3.799  1.5550  1.5800  1.3571
   84SOPE   H9Y 7824   1.356   6.056   3.759 -1.0942  0.9514 -1.5512
   84SOPE  C310 7825   1.304   5.923   3.920 -0.2561  0.0630  0.6300
   84SOPE  H10X 7826   1.394   5.858   3.921 -0.6109 -0.4757  2.6924
   84SOPE  H10Y 7827   1.226   5.853   3.957  0.2634  0.5900  2.8588
   84SOPE  C311 7828   1.314   6.022   4.037  0.2369 -0.6804  0.7595
   84SOPE  H11X 7829   1.235   6.099   4.035 -0.7843 -1.7146 -0.4344
   84SOPE  H11Y 7830   1.410   6.074   4.014  0.7903 -1.7632  0.5369
   84SOPE  C312 7831   1.318   5.952   4.169 -0.3084  0.4630 -0.0492
   84SOPE  H12X 7832   1.406   5.885   4.164 -0.5490  0.1957 -0.8216
   84SOPE  H12Y 7833   1.226   5.890   4.180 -0.2091  0.1165 -1.0404
   84SOPE  C313 7834   1.341   6.040   4.298  1.0037  0.5343  0.3024
   84SOPE  H13X 7835   1.389   5.972   4.372  0.5364  0.4320  0.5152
   84SOPE  H13Y 7836   1.243   6.072   4.340 -0.1130  0.8892 -2.4051
   84SOPE  C314 7837   1.441   6.158   4.283  0.0549  0.6045  0.9502
   84SOPE  H14X 7838   1.402   6.226   4.203  0.1291 -0.7878 -0.3166
   84SOPE  H14Y 7839   1.542   6.128   4.248 -0.6989  0.8015 -1.5889
   84SOPE  C315 7840   1.456   6.243   4.409  0.1773  0.1727 -0.4404
   84SOPE  H15X 7841   1.510   6.186   4.487 -2.8642  0.4240  2.0374
   84SOPE  H15Y 7842   1.352   6.250   4.448  1.4030  1.5597  2.8571
   84SOPE  C316 7843   1.524   6.372   4.382  0.1706 -0.2376  0.5059
   84SOPE  H16X 7844   1.527   6.434   4.473 -0.5377  2.8117 -1.4133
   84SOPE  H16Y 7845   1.465   6.424   4.303 -0.4634 -1.4860  0.1152
   84SOPE  C317 7846   1.667   6.364   4.330 -0.1241 -0.7236 -0.0169
   84SOPE  H17X 7847   1.664   6.308   4.235 -0.2404  1.2960 -1.2596
   84SOPE  H17Y 7848   1.719   6.303   4.408  1.8351  1.0310  0.1453
   84SOPE  C318 7849   1.735   6.500   4.319 -0.7927  0.5706 -0.1988
   84SOPE  H18X 7850   1.728   6.561   4.412  3.5650 -0.5238  1.1277
   84SOPE  H18Y 7851   1.685   6.551   4.234 -2.4335  3.1191  2.1358
   84SOPE  H18Z 7852   1.840   6.492   4.283 -0.2903  0.0702  1.2980
   85SOPE     N 7853   6.459   3.970   1.759 -0.2253 -0.1813  0.0859
   85SOPE   HN1 7854   6.420   3.875   1.740 -0.4844  0.0665 -0.6318
   85SOPE   HN2 7855   6.409   4.004   1.844  2.9796  1.5479  1.4542
   85SOPE   HN3 7856   6.439   4.041   1.686 -1.0117  0.4699  0.9148
   85SOPE   C12 7857   6.599   3.944   1.809  0.3413 -0.0558 -0.3982
   85SOPE  H12A 7858   6.657   4.038   1.801 -0.4786  0.3838 -1.3751
   85SOPE  H12B 7859   6.638   3.869   1.737  0.7624 -0.1188 -0.1079
   85SOPE   C11 7860   6.610   3.889   1.946 -0.5486  0.1555  0.4155
   85SOPE  H11A 7861   6.576   3.962   2.023  2.0514  2.4978 -0.5123
   85SOPE  H11B 7862   6.720   3.880   1.940 -0.5515  0.3579  0.0487
   85SOPE     P 7863   6.463   3.705   2.071 -0.4681  0.5313 -0.0935
   85SOPE   O13 7864   6.472   3.557   2.075  0.5129 -0.1384 -0.0574
   85SOPE   O14 7865   6.334   3.772   2.063  0.0599 -0.3208 -0.2967
   85SOPE   O12 7866   6.560   3.756   1.954  0.5914 -0.6530  0.5411
   85SOPE   O11 7867   6.534   3.753   2.210 -0.0787 -0.2305 -0.4996
   85SOPE    C1 7868   6.667   3.740   2.253  0.3255  0.5785 -0.0884
   85SOPE    HA 7869   6.723   3.819   2.199  0.8670 -0.9107 -1.8096
   85SOPE    HB 7870   6.711   3.646   2.213  0.2286  0.5999 -0.2458
   85SOPE    C2 7871   6.689   3.756   2.410  0.3191  0.0494  0.0751
   85SOPE    HS 7872   6.798   3.768   2.430  0.1536 -0.4418  1.3083
   85SOPE   O21 7873   6.636   3.648   2.479 -0.3043 -0.6658 -0.3631
   85SOPE   C21 7874   6.704   3.538   2.458 -0.3153  0.0949  1.0597
   85SOPE   O22 7875   6.802   3.520   2.380  0.6089 -0.2364 -0.3880
   85SOPE   C22 7876   6.640   3.425   2.543 -0.3088  0.0150 -0.5180
   85SOPE   H2R 7877   6.638   3.343   2.468 -0.4943  0.5008 -1.0502
   85SOPE   H2S 7878   6.540   3.453   2.584  0.1092  1.3854 -0.3877
   85SOPE    C3 7879   6.628   3.890   2.466  0.5600  0.0288 -0.3948
   85SOPE    HX 7880   6.528   3.911   2.422  0.3911  0.0755  0.0049
   85SOPE    HY 7881   6.690   3.979   2.441 -0.2703  1.8049  3.2138
   85SOPE   O31 7882   6.630   3.881   2.612  0.0674  0.2963  0.6071
   85SOPE   C31 7883   6.510   3.854   2.671  0.3578  0.5510  0.0277
   85SOPE   O32 7884   6.411   3.818   2.607  0.0555  0.3214 -0.3389
   85SOPE   C32 7885   6.521   3.842   2.825 -0.1649  0.2087 -0.5042
   85SOPE   H2X 7886   6.545   3.940   2.871 -1.9345 -0.0815  1.1507
   85SOPE   H2Y 7887   6.616   3.785   2.834  0.2517  1.0158  0.3409
   85SOPE   C23 7888   6.731   3.395   2.662  0.5765  0.7567 -0.0354
   85SOPE   H3R 7889   6.837   3.373   2.634 -0.2021 -1.6253 -1.4362
   85SOPE   H3S 7890   6.691   3.304   2.712 -1.3053  1.5247 -0.0720
   85SOPE   C24 7891   6.723   3.500   2.772 -0.4372 -0.3977 -1.1045
   85SOPE   H4R 7892   6.748   3.599   2.729 -0.1052  1.0557  2.1125
   85SOPE   H4S 7893   6.618   3.503   2.809  0.7219 -1.8159  2.9170
   85SOPE   C25 7894   6.799   3.461   2.903 -0.1662 -0.0403  0.4118
   85SOPE   H5R 7895   6.792   3.353   2.928  1.7694  0.1977  2.2434
   85SOPE   H5S 7896   6.904   3.466   2.867 -0.7740 -0.5803 -1.5875
   85SOPE   C26 7897   6.744   3.537   3.019  0.6311 -0.0017 -0.9395
   85SOPE   H6R 7898   6.762   3.646   3.012  0.3561  0.3313  2.1392
   85SOPE   H6S 7899   6.634   3.528   3.025  0.4875  1.5787 -0.9395
   85SOPE   C27 7900   6.817   3.494   3.152  0.3451 -0.0601  0.1271
   85SOPE   H7R 7901   6.796   3.390   3.185  1.7350  0.3146  2.3962
   85SOPE   H7S 7902   6.924   3.512   3.127  0.4821  0.5464  1.1028
   85SOPE   C28 7903   6.784   3.583   3.279 -0.4817  0.3689  0.0319
   85SOPE   H8R 7904   6.811   3.689   3.260  2.5836 -0.1974  0.6679
   85SOPE   H8S 7905   6.675   3.564   3.288 -0.1596 -3.5788 -2.2413
   85SOPE   C29 7906   6.863   3.523   3.397  0.3491 -0.5851  0.7215
   85SOPE   H91 7907   6.864   3.414   3.408  0.2476 -0.6344  0.2405
   85SOPE  C210 7908   6.913   3.598   3.500 -0.3668 -0.2933  0.4319
   85SOPE  H101 7909   6.979   3.544   3.570 -0.8830 -0.1175  1.0643
   85SOPE  C211 7910   6.905   3.748   3.521  0.0743  0.8185 -0.7663
   85SOPE  H11R 7911   6.928   3.805   3.429  2.3468  0.4080 -0.5011
   85SOPE  H11S 7912   6.989   3.767   3.592 -0.5510 -0.4029  0.3544
   85SOPE  C212 7913   6.775   3.787   3.587 -0.2496 -0.0860  0.3495
   85SOPE  H12R 7914   6.686   3.752   3.531 -0.8238  2.2936 -0.3285
   85SOPE  H12S 7915   6.768   3.896   3.601 -0.3050 -0.0912  0.3642
   85SOPE  C213 7916   6.782   3.731   3.732  0.0618 -0.4216  0.2977
   85SOPE  H13R 7917   6.878   3.763   3.777  0.2092 -0.5944  0.1102
   85SOPE  H13S 7918   6.773   3.620   3.738  1.0899 -0.5128  0.3625
   85SOPE  C214 7919   6.677   3.792   3.822  0.3318  0.9089  0.1569
   85SOPE  H14R 7920   6.588   3.768   3.760  1.6567 -1.1554 -1.0601
   85SOPE  H14S 7921   6.694   3.902   3.827 -0.3403  1.0841 -1.0853
   85SOPE  C215 7922   6.674   3.733   3.963 -0.7234  0.5028 -0.5480
   85SOPE  H15R 7923   6.665   3.622   3.963  0.9018  0.3042 -2.5986
   85SOPE  H15S 7924   6.575   3.750   4.010  0.1985 -1.2830  2.3130
   85SOPE  C216 7925   6.787   3.788   4.049  0.3974 -0.4806  0.0792
   85SOPE  H16R 7926   6.790   3.899   4.043 -0.3364 -0.4983 -0.8763
   85SOPE  H16S 7927   6.888   3.754   4.019  0.3288 -0.4713 -0.1590
   85SOPE  C217 7928   6.765   3.740   4.194 -0.5563 -1.0611 -0.1353
   85SOPE  H17R 7929   6.664   3.772   4.227 -0.7268  0.8494 -2.2886
   85SOPE  H17S 7930   6.828   3.811   4.252 -0.4468  0.4917 -2.0342
   85SOPE  C218 7931   6.803   3.591   4.202 -0.4160  0.0539 -0.3767
   85SOPE  H18R 7932   6.895   3.589   4.141 -0.7861  1.7467 -1.0572
   85SOPE  H18S 7933   6.725   3.527   4.155 -2.2249  1.7329  0.1874
   85SOPE  H18T 7934   6.815   3.560   4.308 -0.9552  1.0401 -0.0104
   85SOPE   C33 7935   6.410   3.768   2.888  0.5322  0.1672  0.4599
   85SOPE   H3X 7936   6.394   3.671   2.837  0.4772  1.5903 -2.4060
   85SOPE   H3Y 7937   6.317   3.827   2.875  0.6845  0.4946  0.8498
   85SOPE   C34 7938   6.437   3.744   3.035  0.5818 -0.1510  0.2283
   85SOPE   H4X 7939   6.545   3.762   3.054  0.6746 -0.8758  0.4164
   85SOPE   H4Y 7940   6.423   3.634   3.046  1.6680 -0.4072 -0.8076
   85SOPE   C35 7941   6.347   3.815   3.137 -1.0895  0.0748  0.3789
   85SOPE   H5X 7942   6.242   3.783   3.119 -0.4098 -1.8311 -0.5851
   85SOPE   H5Y 7943   6.359   3.922   3.112 -0.2507 -0.2936 -0.8906
   85SOPE   C36 7944   6.378   3.783   3.285 -0.3034  0.2671  0.0317
   85SOPE   H6X 7945   6.482   3.819   3.301  0.3538 -0.8596 -1.4676
   85SOPE   H6Y 7946   6.388   3.674   3.308  0.3616  0.5610  1.2330
   85SOPE   C37 7947   6.291   3.873   3.374  0.5406 -0.1231  0.8508
   85SOPE   H7X 7948   6.184   3.847   3.360  0.5151  0.2677  0.3273
   85SOPE   H7Y 7949   6.288   3.980   3.345  2.1407 -0.3996 -0.4575
   85SOPE   C38 7950   6.336   3.849   3.514 -0.3671  0.3616  0.2692
   85SOPE   H8X 7951   6.431   3.906   3.520  0.1057 -0.1676 -1.4662
   85SOPE   H8Y 7952   6.354   3.739   3.513  2.4556  0.7441 -1.0416
   85SOPE   C39 7953   6.235   3.883   3.621  0.3662 -0.1865  0.7760
   85SOPE   H9X 7954   6.135   3.836   3.609  1.8940 -3.3257 -0.7537
   85SOPE   H9Y 7955   6.208   3.990   3.609  2.2761  0.3177  0.6401
   85SOPE  C310 7956   6.295   3.854   3.761  0.2268 -0.3333  0.3762
   85SOPE  H10X 7957   6.362   3.940   3.782  1.1741 -1.1877  0.9587
   85SOPE  H10Y 7958   6.352   3.758   3.762  3.1873  1.2219 -1.8135
   85SOPE  C311 7959   6.182   3.851   3.863 -0.9576  0.4817  0.0864
   85SOPE  H11X 7960   6.124   3.761   3.834 -1.4809  1.2752 -1.4543
   85SOPE  H11Y 7961   6.117   3.941   3.856 -0.3573  0.7974 -2.0027
   85SOPE  C312 7962   6.240   3.829   4.008  0.1378  0.1541  0.7558
   85SOPE  H12X 7963   6.155   3.865   4.070  0.0950  1.3435  0.0376
   85SOPE  H12Y 7964   6.316   3.907   4.027 -0.8200  1.1185  0.7432
   85SOPE  C313 7965   6.273   3.680   4.038  0.1051 -0.1069 -0.0818
   85SOPE  H13X 7966   6.352   3.639   3.971  0.5475 -4.1326  2.5155
   85SOPE  H13Y 7967   6.184   3.618   4.016  0.8005 -1.0274 -0.4058
   85SOPE  C314 7968   6.336   3.652   4.173  0.1323 -0.2996 -0.6683
   85SOPE  H14X 7969   6.396   3.740   4.203  0.4830 -1.3898  2.1862
   85SOPE  H14Y 7970   6.379   3.550   4.177  1.0301  0.0589 -1.0527
   85SOPE  C315 7971   6.230   3.675   4.287  0.1618  0.0760 -0.4467
   85SOPE  H15X 7972   6.135   3.650   4.234 -1.3644  2.2541  1.0494
   85SOPE  H15Y 7973   6.216   3.782   4.315  0.4640  0.2164 -0.8280
   85SOPE  C316 7974   6.250   3.599   4.419  0.3084  0.2798  0.1248
   85SOPE  H16X 7975   6.257   3.489   4.404 -0.4063  0.0102  1.5497
   85SOPE  H16Y 7976   6.157   3.606   4.479 -0.1016 -0.7967 -0.3599
   85SOPE  C317 7977   6.378   3.624   4.506 -0.2543 -0.2620  0.1094
   85SOPE  H17X 7978   6.349   3.606   4.611  0.3217 -1.0661  0.1385
   85SOPE  H17Y 7979   6.405   3.731   4.495  0.6606 -0.2054  2.4549
   85SOPE  C318 7980   6.496   3.533   4.472  0.6769  0.1361 -0.4151
   85SOPE  H18X 7981   6.474   3.432   4.513  0.1467 -0.0106 -1.0476
   85SOPE  H18Y 7982   6.589   3.577   4.514  0.8785 -1.8489  1.3783
   85SOPE  H18Z 7983   6.500   3.523   4.361  0.1971  0.2268 -0.4452
   86SOPE     N 7984   6.182   6.541   2.268  0.4410  0.4164 -0.3046
   86SOPE   HN1 7985   6.189   6.443   2.304  0.7432  0.3778 -0.4658
   86SOPE   HN2 7986   6.224   6.597   2.345 -1.0470 -0.2963  1.0923
   86SOPE   HN3 7987   6.081   6.566   2.264  0.3635  0.0086 -1.1447
   86SOPE   C12 7988   6.244   6.570   2.140  0.1856 -0.2626 -0.3460
   86SOPE  H12A 7989   6.190   6.654   2.092  0.0950  0.6947  1.3411
   86SOPE  H12B 7990   6.241   6.478   2.078  0.8282 -1.5868  1.4770
   86SOPE   C11 7991   6.391   6.602   2.157  0.1540 -1.1774 -0.1584
   86SOPE  H11A 7992   6.405   6.688   2.226 -0.3259 -0.4021 -1.0075
   86SOPE  H11B 7993   6.425   6.637   2.058  0.9470  1.7155  1.0408
   86SOPE     P 7994   6.620   6.476   2.207  0.1903 -0.0259 -0.0264
   86SOPE   O13 7995   6.686   6.536   2.088 -0.0157  0.2506 -0.2365
   86SOPE   O14 7996   6.661   6.336   2.235  0.2812  0.1219  0.1048
   86SOPE   O12 7997   6.462   6.483   2.191  0.6920 -0.4153  0.5234
   86SOPE   O11 7998   6.657   6.557   2.340  0.5799 -0.4581 -0.0134
   86SOPE    C1 7999   6.559   6.589   2.437  0.0277 -0.0370  0.4181
   86SOPE    HA 8000   6.479   6.512   2.439  1.0402 -1.1958 -1.0014
   86SOPE    HB 8001   6.500   6.680   2.412 -1.2812 -0.7295  0.8943
   86SOPE    C2 8002   6.615   6.600   2.583  0.8355 -0.2081 -0.2366
   86SOPE    HS 8003   6.548   6.663   2.646  1.8743  0.9096 -0.2165
   86SOPE   O21 8004   6.743   6.660   2.576 -0.5019 -0.3159 -0.2467
   86SOPE   C21 8005   6.739   6.789   2.564  0.1215 -0.5869 -0.4008
   86SOPE   O22 8006   6.638   6.852   2.543  0.4173 -0.3914 -0.1020
   86SOPE   C22 8007   6.878   6.864   2.585 -0.4709 -0.2151 -0.3392
   86SOPE   H2R 8008   6.889   6.929   2.495 -1.5429  1.1184  0.4556
   86SOPE   H2S 8009   6.957   6.786   2.590 -0.6734 -0.3266  1.7166
   86SOPE    C3 8010   6.623   6.454   2.644 -0.6558  0.0228  0.3270
   86SOPE    HX 8011   6.707   6.396   2.599 -1.1084 -1.6736  1.5474
   86SOPE    HY 8012   6.531   6.397   2.621  0.6743 -1.2080 -2.4101
   86SOPE   O31 8013   6.657   6.459   2.786  0.2625  0.3400  0.0476
   86SOPE   C31 8014   6.555   6.460   2.873 -0.0495 -0.0025  0.2616
   86SOPE   O32 8015   6.437   6.454   2.841 -0.2285  0.3781 -0.5551
   86SOPE   C32 8016   6.604   6.466   3.017 -0.2296 -0.6578  0.1246
   86SOPE   H2X 8017   6.674   6.552   3.019 -0.5756 -0.3840  0.9100
   86SOPE   H2Y 8018   6.645   6.366   3.043 -0.6342 -0.4316  1.7407
   86SOPE   C23 8019   6.891   6.961   2.698  0.2290  0.1012 -0.0548
   86SOPE   H3R 8020   6.790   7.004   2.715 -0.7050 -0.9513 -2.4054
   86SOPE   H3S 8021   6.942   7.059   2.687  1.1623 -0.4490 -0.7713
   86SOPE   C24 8022   6.955   6.890   2.822 -0.0190 -0.2371  0.0726
   86SOPE   H4R 8023   6.876   6.820   2.857 -0.0605  0.2069  0.8910
   86SOPE   H4S 8024   7.055   6.844   2.814  0.2301  0.3949 -0.5252
   86SOPE   C25 8025   6.973   6.996   2.939  0.6313  1.3567 -0.4925
   86SOPE   H5R 8026   7.063   7.059   2.919  2.3165 -1.5251 -2.8935
   86SOPE   H5S 8027   6.890   7.070   2.946 -0.9436 -0.2052 -1.5995
   86SOPE   C26 8028   7.001   6.936   3.078  0.2695  0.0924  0.2576
   86SOPE   H6R 8029   6.933   6.848   3.088  0.2721 -0.0546 -0.9541
   86SOPE   H6S 8030   7.106   6.901   3.081  0.5417  0.9159  0.9762
   86SOPE   C27 8031   6.985   7.041   3.192 -0.2952  0.4674  0.0836
   86SOPE   H7R 8032   7.077   7.100   3.213  0.7913 -0.9956 -0.4397
   86SOPE   H7S 8033   6.903   7.111   3.165  0.1999  1.0180 -0.0135
   86SOPE   C28 8034   6.943   6.976   3.321  0.3094  0.2185  0.2178
   86SOPE   H8R 8035   6.880   7.046   3.379 -0.5598  0.1772 -0.6572
   86SOPE   H8S 8036   6.866   6.897   3.308  0.3264  0.1809  0.3424
   86SOPE   C29 8037   7.067   6.937   3.402 -0.5244 -0.0794 -0.5502
   86SOPE   H91 8038   7.095   6.831   3.394 -0.8103 -0.0127 -3.8747
   86SOPE  C210 8039   7.148   7.019   3.475  0.0703 -0.9037 -0.1994
   86SOPE  H101 8040   7.237   6.979   3.526 -0.6470 -2.1314  0.1275
   86SOPE  C211 8041   7.133   7.168   3.508 -0.4464  0.1049 -0.6069
   86SOPE  H11R 8042   7.095   7.220   3.417 -0.6145 -1.6991 -1.6287
   86SOPE  H11S 8043   7.223   7.213   3.554 -0.7190  2.9340 -2.5935
   86SOPE  C212 8044   7.051   7.184   3.639 -0.0476 -0.3138 -0.0442
   86SOPE  H12R 8045   6.944   7.162   3.618 -0.1139  0.8950 -1.0884
   86SOPE  H12S 8046   7.040   7.291   3.668 -2.3160  0.1104 -2.1563
   86SOPE  C213 8047   7.102   7.096   3.754  0.7850  0.4251 -0.2821
   86SOPE  H13R 8048   7.073   6.989   3.742  0.2716  0.5831 -0.4575
   86SOPE  H13S 8049   7.031   7.136   3.829 -2.0712 -1.9866 -1.4704
   86SOPE  C214 8050   7.247   7.114   3.796 -0.7058 -0.0774  0.0132
   86SOPE  H14R 8051   7.260   7.224   3.806 -2.3172  0.0952  0.5468
   86SOPE  H14S 8052   7.318   7.075   3.720  0.7092  0.7521  0.8598
   86SOPE  C215 8053   7.269   7.042   3.930 -0.0826 -0.0251  0.3288
   86SOPE  H15R 8054   7.265   6.932   3.915 -0.4310  0.3755 -3.3502
   86SOPE  H15S 8055   7.203   7.079   4.012 -0.8741  2.8716 -1.4834
   86SOPE  C216 8056   7.406   7.070   3.990 -0.9194  0.7130 -0.4242
   86SOPE  H16R 8057   7.485   7.039   3.918 -0.5391  0.9704 -0.1200
   86SOPE  H16S 8058   7.406   7.003   4.079  1.1177 -1.5295 -1.9714
   86SOPE  C217 8059   7.425   7.208   4.038 -0.3945 -0.4007 -0.4852
   86SOPE  H17R 8060   7.333   7.232   4.096 -0.9102 -1.1286 -0.9876
   86SOPE  H17S 8061   7.448   7.283   3.959  0.0539 -0.9471 -0.8840
   86SOPE  C218 8062   7.532   7.239   4.139 -0.0928 -0.1529 -0.5349
   86SOPE  H18R 8063   7.538   7.349   4.155  1.5377 -0.3484  0.3792
   86SOPE  H18S 8064   7.631   7.211   4.098  0.7739 -0.8469  1.8600
   86SOPE  H18T 8065   7.503   7.184   4.231  3.0579 -0.7595  0.2273
   86SOPE   C33 8066   6.486   6.494   3.111  0.4176  0.8079 -0.2976
   86SOPE   H3X 8067   6.405   6.419   3.098  0.6092  0.9995 -3.1608
   86SOPE   H3Y 8068   6.439   6.592   3.089 -1.4675 -0.2193 -1.0382
   86SOPE   C34 8069   6.519   6.496   3.264 -0.2022 -0.2836  0.0222
   86SOPE   H4X 8070   6.591   6.578   3.285 -3.1527  2.4594  0.1660
   86SOPE   H4Y 8071   6.577   6.408   3.301 -0.5144 -0.2370  0.6334
   86SOPE   C35 8072   6.394   6.489   3.347 -0.1338 -0.5728  0.0547
   86SOPE   H5X 8073   6.325   6.415   3.301 -0.4301 -1.3668  1.6869
   86SOPE   H5Y 8074   6.354   6.592   3.337 -0.2356 -0.8074 -2.3804
   86SOPE   C36 8075   6.419   6.441   3.492  0.0598  0.3911 -0.0708
   86SOPE   H6X 8076   6.454   6.335   3.498 -1.0041  0.0172 -0.2753
   86SOPE   H6Y 8077   6.319   6.434   3.540 -0.1661 -1.3546 -0.7253
   86SOPE   C37 8078   6.516   6.536   3.562  0.3429 -0.2036  0.2581
   86SOPE   H7X 8079   6.493   6.643   3.542  2.1848  0.2190  0.2461
   86SOPE   H7Y 8080   6.614   6.523   3.512  0.9207  1.5745  0.8527
   86SOPE   C38 8081   6.504   6.508   3.711  0.5030 -0.3386  0.0100
   86SOPE   H8X 8082   6.489   6.400   3.730  0.9388 -0.8273 -2.1477
   86SOPE   H8Y 8083   6.417   6.557   3.760 -0.9382 -2.7830  0.0693
   86SOPE   C39 8084   6.627   6.562   3.787 -0.4679  0.7968  0.4023
   86SOPE   H9X 8085   6.714   6.511   3.739  0.0151  1.9051  0.0653
   86SOPE   H9Y 8086   6.625   6.525   3.891 -1.3665  0.2840  0.2112
   86SOPE  C310 8087   6.647   6.714   3.767 -0.1404 -1.0688 -0.3920
   86SOPE  H10X 8088   6.565   6.764   3.824 -0.9629 -1.1120 -1.5100
   86SOPE  H10Y 8089   6.636   6.737   3.659 -0.5891 -1.5347 -0.4554
   86SOPE  C311 8090   6.770   6.768   3.837  0.1697 -0.0467  0.0386
   86SOPE  H11X 8091   6.772   6.715   3.935 -1.9035 -0.7050 -0.2149
   86SOPE  H11Y 8092   6.777   6.876   3.862  0.3575 -0.9867  5.1427
   86SOPE  C312 8093   6.905   6.736   3.774 -0.6662  0.4005 -0.5487
   86SOPE  H12X 8094   6.920   6.796   3.682  2.5826  0.1066 -0.3017
   86SOPE  H12Y 8095   6.905   6.629   3.743  2.1499  0.6063 -1.5125
   86SOPE  C313 8096   7.027   6.762   3.870  0.2421 -0.4794 -0.6254
   86SOPE  H13X 8097   7.010   6.853   3.932  1.8685  0.0006 -0.8259
   86SOPE  H13Y 8098   7.120   6.777   3.811  1.3068 -2.0524  0.5865
   86SOPE  C314 8099   7.056   6.651   3.976  0.1910  0.5964  0.2318
   86SOPE  H14X 8100   7.091   6.563   3.918 -0.4868 -0.7787  1.8108
   86SOPE  H14Y 8101   6.958   6.624   4.020  0.5656  0.9269  1.3032
   86SOPE  C315 8102   7.159   6.681   4.086  0.9799 -0.2538 -0.0894
   86SOPE  H15X 8103   7.144   6.785   4.124 -0.4046 -0.6311  0.4480
   86SOPE  H15Y 8104   7.263   6.661   4.052  0.3087 -3.3587 -0.6008
   86SOPE  C316 8105   7.140   6.580   4.204 -0.7731 -0.2342 -0.1652
   86SOPE  H16X 8106   7.232   6.572   4.265  1.0704  1.7668 -2.5119
   86SOPE  H16Y 8107   7.126   6.485   4.148 -1.5668  0.5846 -1.3898
   86SOPE  C317 8108   7.030   6.620   4.299 -0.2347  0.1325 -1.1727
   86SOPE  H17X 8109   6.935   6.622   4.243  0.6709 -2.5139 -2.9771
   86SOPE  H17Y 8110   7.052   6.718   4.347 -0.8968 -0.5486  0.6137
   86SOPE  C318 8111   7.025   6.530   4.419  0.2640  1.0373 -0.0929
   86SOPE  H18X 8112   7.115   6.540   4.482  1.6336 -1.1511 -1.5849
   86SOPE  H18Y 8113   7.012   6.422   4.397  2.2271  0.5092  1.1649
   86SOPE  H18Z 8114   6.938   6.552   4.484 -2.1077 -2.2539 -1.8408
   87SOPE     N 8115   1.515   6.203   2.341 -0.0196 -0.2004  0.1055
   87SOPE   HN1 8116   1.440   6.244   2.283 -1.4339 -1.5817  0.8723
   87SOPE   HN2 8117   1.609   6.248   2.338  1.8186 -3.1634  3.6625
   87SOPE   HN3 8118   1.528   6.113   2.289 -0.9085  0.9410 -2.2080
   87SOPE   C12 8119   1.466   6.176   2.479 -0.4795 -0.3196  0.0950
   87SOPE  H12A 8120   1.445   6.272   2.531 -2.2982 -0.3003 -0.5752
   87SOPE  H12B 8121   1.547   6.127   2.537 -0.2791  1.3398  1.2772
   87SOPE   C11 8122   1.348   6.074   2.478 -0.3268  0.1757  0.0617
   87SOPE  H11A 8123   1.317   6.058   2.584 -0.5148 -0.4955 -0.0864
   87SOPE  H11B 8124   1.394   5.982   2.435 -1.6201 -2.7332  4.2644
   87SOPE     P 8125   1.148   6.246   2.419 -0.4246  0.3432 -0.0231
   87SOPE   O13 8126   1.010   6.198   2.411  0.2298 -0.2033 -0.0711
   87SOPE   O14 8127   1.191   6.358   2.330 -0.5229  0.9529 -1.2278
   87SOPE   O12 8128   1.237   6.119   2.395 -0.0358 -0.1342 -0.0648
   87SOPE   O11 8129   1.189   6.294   2.566 -0.5620  0.0844  0.6995
   87SOPE    C1 8130   1.115   6.239   2.674  0.3890  0.0725 -0.3707
   87SOPE    HA 8131   1.169   6.258   2.769 -2.3487  1.9902  0.9232
   87SOPE    HB 8132   1.104   6.129   2.658  2.3470 -0.1871 -0.2792
   87SOPE    C2 8133   0.968   6.294   2.688  0.3002  0.0771 -0.3911
   87SOPE    HS 8134   0.914   6.278   2.592 -1.4329  1.0225  0.3586
   87SOPE   O21 8135   0.981   6.430   2.731 -0.0035  0.5887  0.1086
   87SOPE   C21 8136   0.867   6.491   2.741  0.1770 -0.1205 -0.1139
   87SOPE   O22 8137   0.759   6.447   2.694  0.3809 -0.2579 -0.1671
   87SOPE   C22 8138   0.898   6.629   2.803 -0.3245 -0.3048 -0.1868
   87SOPE   H2R 8139   0.809   6.692   2.784 -1.1441 -1.3610  0.0063
   87SOPE   H2S 8140   0.983   6.666   2.743 -1.2429  0.4084 -1.0880
   87SOPE    C3 8141   0.893   6.208   2.798  0.1485 -0.1511 -0.8424
   87SOPE    HX 8142   0.910   6.108   2.753  1.4546  0.2260 -1.2457
   87SOPE    HY 8143   0.785   6.232   2.798 -0.1085 -1.2668  0.0255
   87SOPE   O31 8144   0.956   6.227   2.921 -0.3339  0.3082  0.2412
   87SOPE   C31 8145   0.878   6.190   3.023  0.4911 -0.3995 -0.3368
   87SOPE   O32 8146   0.765   6.143   3.016 -0.7710  0.0275 -0.2039
   87SOPE   C32 8147   0.961   6.226   3.145 -0.0252 -0.4016 -0.5823
   87SOPE   H2X 8148   0.988   6.332   3.127 -1.9893  0.3187  0.3333
   87SOPE   H2Y 8149   1.051   6.162   3.148 -0.2633 -0.8795 -2.4282
   87SOPE   C23 8150   0.940   6.624   2.954  0.4712 -0.4203 -0.5018
   87SOPE   H3R 8151   0.978   6.724   2.985  0.3733 -0.6479  0.3766
   87SOPE   H3S 8152   1.010   6.539   2.968 -1.3561 -1.7745  0.9710
   87SOPE   C24 8153   0.823   6.593   3.045  0.3669 -0.0287  0.2810
   87SOPE   H4R 8154   0.733   6.636   2.996  1.5775  1.9368 -0.3077
   87SOPE   H4S 8155   0.816   6.482   3.049  1.0588 -0.1215 -0.8226
   87SOPE   C25 8156   0.824   6.657   3.183  0.0978  0.3780  0.1073
   87SOPE   H5R 8157   0.866   6.583   3.254 -0.7874 -0.4553 -0.2128
   87SOPE   H5S 8158   0.897   6.740   3.190  0.2966  0.1046  1.7307
   87SOPE   C26 8159   0.686   6.717   3.223  0.5497 -0.5987  0.4953
   87SOPE   H6R 8160   0.651   6.765   3.130  0.3651  0.8191  1.2764
   87SOPE   H6S 8161   0.609   6.643   3.253 -2.2041  1.5965 -0.7147
   87SOPE   C27 8162   0.690   6.829   3.336  0.2471 -0.4799  0.5432
   87SOPE   H7R 8163   0.771   6.899   3.304 -0.0408  0.6163  2.1130
   87SOPE   H7S 8164   0.600   6.891   3.317  1.7769  1.2364 -1.6865
   87SOPE   C28 8165   0.711   6.779   3.475 -0.6622  0.1269 -0.2576
   87SOPE   H8R 8166   0.783   6.694   3.471 -1.7272 -0.8709  1.0640
   87SOPE   H8S 8167   0.742   6.866   3.538 -0.8184 -0.5455  0.7691
   87SOPE   C29 8168   0.585   6.713   3.528  0.0724 -0.3139 -0.2406
   87SOPE   H91 8169   0.516   6.678   3.450 -2.2382 -1.6291  2.2624
   87SOPE  C210 8170   0.544   6.693   3.657 -0.1192  0.3124 -0.5024
   87SOPE  H101 8171   0.454   6.632   3.677  0.2419  0.1229  0.6173
   87SOPE  C211 8172   0.615   6.738   3.783  0.3849  0.2074  0.2576
   87SOPE  H11R 8173   0.544   6.764   3.864  2.9394 -1.0262  3.0666
   87SOPE  H11S 8174   0.673   6.829   3.755  0.3175 -0.1977 -1.3387
   87SOPE  C212 8175   0.715   6.625   3.835  0.1475 -0.1381  0.1743
   87SOPE  H12R 8176   0.807   6.624   3.772  1.5346  0.2343  2.1160
   87SOPE  H12S 8177   0.666   6.525   3.830  1.5986 -0.9763  1.7667
   87SOPE  C213 8178   0.762   6.644   3.982 -0.3270 -0.2664  0.3993
   87SOPE  H13R 8179   0.806   6.745   3.972 -0.0931 -0.4001  0.0949
   87SOPE  H13S 8180   0.839   6.572   4.018 -1.0450  0.2054  3.0582
   87SOPE  C214 8181   0.656   6.652   4.089  0.3730  0.1400  0.4123
   87SOPE  H14R 8182   0.608   6.551   4.087  0.0640  0.2972 -0.9670
   87SOPE  H14S 8183   0.588   6.737   4.066  2.1739  1.5031 -0.0537
   87SOPE  C215 8184   0.717   6.680   4.230 -0.1850  0.1310  0.0760
   87SOPE  H15R 8185   0.791   6.761   4.215 -1.0346  0.5625 -2.1888
   87SOPE  H15S 8186   0.759   6.583   4.264 -0.2406 -1.1199 -3.0779
   87SOPE  C216 8187   0.617   6.735   4.332 -0.2257 -0.4754  0.2034
   87SOPE  H16R 8188   0.544   6.656   4.357  0.3903 -1.1711 -0.1629
   87SOPE  H16S 8189   0.567   6.821   4.282  2.8334  2.6953  2.1467
   87SOPE  C217 8190   0.682   6.785   4.458 -0.2534 -0.2244 -0.3230
   87SOPE  H17R 8191   0.779   6.828   4.429 -0.0755 -1.5474 -1.8410
   87SOPE  H17S 8192   0.701   6.697   4.523  0.0863  0.5667  0.6704
   87SOPE  C218 8193   0.601   6.898   4.530 -0.1183  0.5034  0.1932
   87SOPE  H18R 8194   0.563   6.968   4.453  0.6648 -0.9037 -1.5396
   87SOPE  H18S 8195   0.655   6.949   4.612 -1.8539 -0.2649  1.8967
   87SOPE  H18T 8196   0.521   6.841   4.583  0.2656 -0.1727  0.0517
   87SOPE   C33 8197   0.882   6.203   3.276  0.0166  0.4530  0.2927
   87SOPE   H3X 8198   0.882   6.094   3.295  0.4299  0.7700  2.3380
   87SOPE   H3Y 8199   0.785   6.256   3.280  0.2848  0.8595  2.2370
   87SOPE   C34 8200   0.961   6.272   3.389  0.7241  0.0789  0.1219
   87SOPE   H4X 8201   0.962   6.383   3.381  0.0774  0.0595 -0.2773
   87SOPE   H4Y 8202   1.061   6.225   3.393  0.0783 -1.2872  0.6093
   87SOPE   C35 8203   0.901   6.233   3.526  0.1724 -0.0491  0.7928
   87SOPE   H5X 8204   0.901   6.122   3.530 -0.4495 -0.1409 -0.8465
   87SOPE   H5Y 8205   0.796   6.268   3.539  0.1050 -0.4928  1.4500
   87SOPE   C36 8206   0.987   6.292   3.633 -0.3752 -0.8824 -0.5873
   87SOPE   H6X 8207   0.985   6.403   3.630 -0.8271 -0.8311  1.0672
   87SOPE   H6Y 8208   1.092   6.254   3.625 -0.6923 -2.1331  0.7811
   87SOPE   C37 8209   0.937   6.241   3.772 -0.0959 -0.1518 -0.0162
   87SOPE   H7X 8210   0.950   6.131   3.786 -0.1167 -0.1689 -0.1254
   87SOPE   H7Y 8211   0.834   6.281   3.785  0.2025  0.6675 -0.1316
   87SOPE   C38 8212   1.015   6.313   3.885 -0.6520  0.2804  0.5319
   87SOPE   H8X 8213   0.988   6.421   3.882  0.7926  0.6693 -2.1454
   87SOPE   H8Y 8214   1.121   6.301   3.856 -0.0335  0.5712  2.5356
   87SOPE   C39 8215   0.991   6.259   4.023  0.0053  0.9931  0.0041
   87SOPE   H9X 8216   1.033   6.156   4.030  1.3974  1.4074 -1.5922
   87SOPE   H9Y 8217   0.882   6.252   4.040  0.1055 -0.1465  0.2719
   87SOPE  C310 8218   1.062   6.347   4.130  0.0674  0.6324 -0.2079
   87SOPE  H10X 8219   1.057   6.453   4.099  0.0261  0.5304 -0.5558
   87SOPE  H10Y 8220   1.170   6.324   4.133  0.0058  0.3712  0.1896
   87SOPE  C311 8221   0.997   6.347   4.266  0.2297 -0.7323 -0.8952
   87SOPE  H11X 8222   1.003   6.247   4.313 -2.6642 -0.2321  0.7784
   87SOPE  H11Y 8223   0.890   6.379   4.263  0.3401 -0.3732 -2.6906
   87SOPE  C312 8224   1.077   6.428   4.370 -0.4176  0.2578 -0.4957
   87SOPE  H12X 8225   1.120   6.520   4.325  1.3514 -0.5425 -0.4976
   87SOPE  H12Y 8226   1.160   6.372   4.418  0.0150  1.7036  0.5165
   87SOPE  C313 8227   0.979   6.472   4.484 -0.2313 -0.0033  0.4047
   87SOPE  H13X 8228   0.925   6.380   4.516 -2.7384  0.5820 -1.7927
   87SOPE  H13Y 8229   0.906   6.536   4.431 -0.0673  1.6980  2.1220
   87SOPE  C314 8230   1.047   6.544   4.606  0.6298  0.4674  1.2380
   87SOPE  H14X 8231   1.084   6.641   4.564 -0.1535 -0.1434 -1.0289
   87SOPE  H14Y 8232   1.130   6.484   4.649  1.0709 -1.3576 -1.8413
   87SOPE  C315 8233   0.941   6.573   4.711  0.2337  0.2016  0.3502
   87SOPE  H15X 8234   0.906   6.479   4.758 -0.4940  0.7572  0.9694
   87SOPE  H15Y 8235   0.851   6.614   4.660  0.0502 -2.0776 -1.2904
   87SOPE  C316 8236   0.993   6.656   4.828 -0.8098 -0.3453 -0.3279
   87SOPE  H16X 8237   1.045   6.750   4.797 -2.3349  0.2677 -1.1389
   87SOPE  H16Y 8238   1.073   6.595   4.874 -1.1270 -2.2145 -2.1203
   87SOPE  C317 8239   0.889   6.680   4.946  0.2190  0.4436  0.4251
   87SOPE  H17X 8240   0.862   6.574   4.966 -0.8909 -0.1552 -3.4108
   87SOPE  H17Y 8241   0.796   6.728   4.908 -0.8459 -1.9268 -0.1302
   87SOPE  C318 8242   0.956   6.765   5.052 -0.6446  0.1526  1.1074
   87SOPE  H18X 8243   0.991   6.857   5.001  0.0702 -1.2204 -1.0620
   87SOPE  H18Y 8244   1.049   6.717   5.091 -0.2870 -3.0025 -2.9089
   87SOPE  H18Z 8245   0.893   6.783   5.142  0.3113 -1.2036  2.0919
   88SOPE     N 8246   3.366   5.712   2.138 -0.3245  0.2298  0.0422
   88SOPE   HN1 8247   3.451   5.729   2.080 -0.8594 -0.6824 -1.0570
   88SOPE   HN2 8248   3.310   5.630   2.108 -1.7914  0.4523  1.9731
   88SOPE   HN3 8249   3.304   5.795   2.142  0.5664  0.8772  1.4796
   88SOPE   C12 8250   3.391   5.667   2.286  0.3245 -0.5481  0.8335
   88SOPE  H12A 8251   3.293   5.662   2.337  0.3261 -1.0409  0.7897
   88SOPE  H12B 8252   3.463   5.735   2.336  0.8343 -0.4935  0.0521
   88SOPE   C11 8253   3.465   5.538   2.292  0.0320 -0.1990  0.5183
   88SOPE  H11A 8254   3.481   5.510   2.398 -0.5129  0.7319  0.8594
   88SOPE  H11B 8255   3.566   5.544   2.247 -0.7938  1.9856 -1.2100
   88SOPE     P 8256   3.387   5.287   2.285  0.3344 -0.0745 -0.0368
   88SOPE   O13 8257   3.467   5.208   2.201 -0.4265  0.4119  0.2915
   88SOPE   O14 8258   3.242   5.252   2.282 -0.0549  0.4792  0.4106
   88SOPE   O12 8259   3.396   5.433   2.238  0.0564  1.1427  0.4945
   88SOPE   O11 8260   3.444   5.291   2.429 -0.0600 -0.1285  0.2857
   88SOPE    C1 8261   3.475   5.183   2.508  0.4523 -0.4889  0.9773
   88SOPE    HA 8262   3.532   5.226   2.593  2.9115  1.7100 -1.5732
   88SOPE    HB 8263   3.538   5.113   2.449 -1.1391  0.1495 -1.6662
   88SOPE    C2 8264   3.350   5.099   2.552  0.5829  0.9140  0.6057
   88SOPE    HS 8265   3.298   5.066   2.460 -1.1564 -1.0260  2.1533
   88SOPE   O21 8266   3.264   5.186   2.630  0.7595 -0.1655  0.0567
   88SOPE   C21 8267   3.142   5.143   2.660 -0.4234  0.2459  1.4982
   88SOPE   O22 8268   3.097   5.033   2.636 -0.1607  0.6301 -0.1750
   88SOPE   C22 8269   3.065   5.252   2.742 -0.1263 -0.3113 -0.3904
   88SOPE   H2R 8270   2.972   5.277   2.685 -0.6668 -3.9976 -1.3806
   88SOPE   H2S 8271   3.120   5.348   2.751 -1.1494  0.2062  0.7546
   88SOPE    C3 8272   3.397   4.970   2.622 -0.2788  0.2992  0.5966
   88SOPE    HX 8273   3.450   4.916   2.542 -0.9481 -1.5664  1.3551
   88SOPE    HY 8274   3.308   4.905   2.638  0.3152 -1.0131 -1.1577
   88SOPE   O31 8275   3.473   5.000   2.739  0.6811 -0.1682 -0.0798
   88SOPE   C31 8276   3.599   4.981   2.736  1.1383 -0.1509  0.4764
   88SOPE   O32 8277   3.660   4.947   2.635  0.2440  0.3704  0.2518
   88SOPE   C32 8278   3.660   5.012   2.868 -0.5106  0.1237 -1.1972
   88SOPE   H2X 8279   3.716   4.923   2.903  0.9948  1.4179 -0.1212
   88SOPE   H2Y 8280   3.583   5.031   2.946  0.3255  1.2325 -0.6030
   88SOPE   C23 8281   3.016   5.199   2.884  0.4973  0.1424  0.4639
   88SOPE   H3R 8282   2.947   5.115   2.862 -0.1628  0.9663 -0.7380
   88SOPE   H3S 8283   2.950   5.282   2.920  1.5223  2.4096 -2.4951
   88SOPE   C24 8284   3.118   5.171   2.993  0.2113 -0.4653  0.2305
   88SOPE   H4R 8285   3.190   5.254   3.008 -0.4049 -0.2023  2.0258
   88SOPE   H4S 8286   3.064   5.158   3.089  0.5134 -3.8046  0.0464
   88SOPE   C25 8287   3.192   5.041   2.966  0.4057 -0.2021 -0.9517
   88SOPE   H5R 8288   3.127   4.960   2.928  0.6555  0.8122 -3.7771
   88SOPE   H5S 8289   3.274   5.061   2.894 -0.6039  2.1001 -1.5534
   88SOPE   C26 8290   3.262   4.987   3.096 -0.1146 -0.2151  0.2572
   88SOPE   H6R 8291   3.190   4.952   3.172  0.0734  0.5286  0.7847
   88SOPE   H6S 8292   3.328   4.903   3.064  0.1111 -0.5789  1.5943
   88SOPE   C27 8293   3.351   5.094   3.168 -0.8007 -0.0158 -0.3479
   88SOPE   H7R 8294   3.412   5.144   3.089  1.2935 -2.4737 -0.4342
   88SOPE   H7S 8295   3.297   5.177   3.218  0.7740  0.3672  0.8234
   88SOPE   C28 8296   3.454   5.053   3.280 -0.0694  0.2011 -0.2665
   88SOPE   H8R 8297   3.542   4.995   3.244  0.7732 -0.1996  2.2780
   88SOPE   H8S 8298   3.498   5.150   3.313 -0.2542 -0.5673  2.4749
   88SOPE   C29 8299   3.375   4.991   3.398  0.6516  0.3550 -0.7155
   88SOPE   H91 8300   3.312   4.904   3.376  1.2513 -0.3804  0.3900
   88SOPE  C210 8301   3.362   5.023   3.529  0.4807 -0.4817 -0.2488
   88SOPE  H101 8302   3.288   4.970   3.591  0.7676 -1.2935 -0.5834
   88SOPE  C211 8303   3.435   5.133   3.595 -0.3038 -0.3843  0.5939
   88SOPE  H11R 8304   3.505   5.179   3.521  1.1411 -0.0529  2.1045
   88SOPE  H11S 8305   3.498   5.103   3.681  1.6903  0.3922 -0.5170
   88SOPE  C212 8306   3.334   5.239   3.643 -0.6375  0.3732  0.3992
   88SOPE  H12R 8307   3.403   5.306   3.700  0.0411  0.3096 -0.3382
   88SOPE  H12S 8308   3.261   5.186   3.708  1.2014 -0.0132  2.2717
   88SOPE  C213 8309   3.261   5.311   3.519  0.0690 -0.4781 -0.0299
   88SOPE  H13R 8310   3.178   5.243   3.491  0.2828 -1.0844  0.7690
   88SOPE  H13S 8311   3.331   5.315   3.433 -1.3084  1.1644 -1.1512
   88SOPE  C214 8312   3.207   5.449   3.555 -0.0341 -0.6300  0.6163
   88SOPE  H14R 8313   3.289   5.522   3.567 -1.6135  1.3309  0.0481
   88SOPE  H14S 8314   3.145   5.455   3.647 -0.3414 -0.3148  0.3885
   88SOPE  C215 8315   3.119   5.499   3.442  0.2789 -0.5914 -0.1980
   88SOPE  H15R 8316   3.074   5.595   3.476  1.8861  0.7880 -1.7661
   88SOPE  H15S 8317   3.033   5.432   3.420 -1.1855  1.7629 -2.1554
   88SOPE  C216 8318   3.191   5.525   3.310 -0.2151  0.7420 -0.2520
   88SOPE  H16R 8319   3.247   5.434   3.279  1.6254  1.0909  1.7615
   88SOPE  H16S 8320   3.269   5.604   3.325  0.7719 -0.4484  1.2427
   88SOPE  C217 8321   3.089   5.566   3.208 -0.1351  0.9663 -0.4541
   88SOPE  H17R 8322   3.041   5.665   3.227  0.0170  1.2769 -1.6191
   88SOPE  H17S 8323   3.006   5.493   3.216  0.0746  0.6053 -1.5088
   88SOPE  C218 8324   3.141   5.570   3.063 -0.3518  0.2981 -0.1733
   88SOPE  H18R 8325   3.057   5.593   2.995 -0.3537 -0.9849 -0.6214
   88SOPE  H18S 8326   3.186   5.473   3.035 -0.7148  0.1907 -0.3851
   88SOPE  H18T 8327   3.222   5.646   3.052  1.3792 -1.1467  1.8505
   88SOPE   C33 8328   3.759   5.139   2.875  0.3966  0.4019  0.0157
   88SOPE   H3X 8329   3.694   5.229   2.879 -0.6481 -0.3576  2.4161
   88SOPE   H3Y 8330   3.824   5.146   2.785  0.1127  0.4243 -0.1889
   88SOPE   C34 8331   3.861   5.145   2.993  1.0762  0.1805 -0.8413
   88SOPE   H4X 8332   3.904   5.247   3.000  0.2883  0.4965 -0.4879
   88SOPE   H4Y 8333   3.949   5.078   2.979  1.1064 -0.0235  0.2446
   88SOPE   C35 8334   3.797   5.119   3.133  0.9689 -0.9724  0.1873
   88SOPE   H5X 8335   3.788   5.010   3.153  0.2833 -0.7211  1.2748
   88SOPE   H5Y 8336   3.696   5.165   3.129  0.6565 -1.7019 -0.9425
   88SOPE   C36 8337   3.873   5.193   3.253  0.4425  0.1166  0.5533
   88SOPE   H6X 8338   3.866   5.300   3.226 -1.0151 -0.5184 -1.8537
   88SOPE   H6Y 8339   3.978   5.157   3.255  0.6333  0.6104 -0.3286
   88SOPE   C37 8340   3.795   5.160   3.383  0.1780 -0.0521  0.3234
   88SOPE   H7X 8341   3.774   5.051   3.386 -0.4556 -0.0117 -1.6678
   88SOPE   H7Y 8342   3.703   5.220   3.372  1.2086  1.2883 -1.4002
   88SOPE   C38 8343   3.872   5.205   3.507  0.4288 -0.5863 -0.5219
   88SOPE   H8X 8344   3.879   5.315   3.513  2.0259 -0.6015 -1.5891
   88SOPE   H8Y 8345   3.972   5.158   3.498  0.4563 -0.6323  0.0016
   88SOPE   C39 8346   3.816   5.146   3.638  0.3329  0.4846  0.3605
   88SOPE   H9X 8347   3.830   5.036   3.627  1.0410  0.6679 -0.6497
   88SOPE   H9Y 8348   3.708   5.170   3.651  0.6398  1.2637  1.6118
   88SOPE  C310 8349   3.896   5.189   3.763  0.4889 -0.2862 -0.1282
   88SOPE  H10X 8350   3.899   5.300   3.775 -4.0803 -0.0005  0.0907
   88SOPE  H10Y 8351   3.999   5.147   3.758  0.1753 -1.0225 -0.5359
   88SOPE  C311 8352   3.829   5.138   3.892  0.1908 -0.3856  0.6914
   88SOPE  H11X 8353   3.814   5.028   3.894 -0.4273 -0.3231 -0.1447
   88SOPE  H11Y 8354   3.730   5.188   3.893  1.7465  3.0368  0.7503
   88SOPE  C312 8355   3.917   5.179   4.009 -0.0903  0.0174  0.2550
   88SOPE  H12X 8356   3.968   5.271   3.975  1.2001 -1.1783 -1.2455
   88SOPE  H12Y 8357   3.989   5.094   4.019  0.7276  0.6416 -0.1710
   88SOPE  C313 8358   3.841   5.196   4.136  0.1037  0.2649 -0.6087
   88SOPE  H13X 8359   3.769   5.113   4.151  0.0481  0.6544  1.6747
   88SOPE  H13Y 8360   3.774   5.284   4.125  0.2167  0.1581 -2.4513
   88SOPE  C314 8361   3.935   5.195   4.260  0.5158 -0.1836  0.0828
   88SOPE  H14X 8362   4.000   5.284   4.255 -0.3123  0.3921 -0.8101
   88SOPE  H14Y 8363   3.998   5.103   4.263  1.2328  0.3107  0.4079
   88SOPE  C315 8364   3.858   5.193   4.394  0.5688 -0.4082  0.2244
   88SOPE  H15X 8365   3.770   5.262   4.395  1.4014  0.6899 -0.1930
   88SOPE  H15Y 8366   3.925   5.222   4.478 -0.0511  1.1704  0.2163
   88SOPE  C316 8367   3.801   5.052   4.426 -0.3374 -0.0666 -0.6622
   88SOPE  H16X 8368   3.880   4.974   4.432 -1.7287 -1.4870  4.3160
   88SOPE  H16Y 8369   3.724   5.029   4.349  0.1208  1.3305 -1.5688
   88SOPE  C317 8370   3.736   5.056   4.569 -0.1106 -0.3151 -0.5131
   88SOPE  H17X 8371   3.672   4.967   4.581  1.6813 -2.0615 -2.9715
   88SOPE  H17Y 8372   3.674   5.146   4.586 -2.3541 -1.2868 -2.9096
   88SOPE  C318 8373   3.847   5.049   4.679  0.4844 -0.0881 -0.2658
   88SOPE  H18X 8374   3.791   5.059   4.775 -0.8827  0.1216 -1.0644
   88SOPE  H18Y 8375   3.920   5.132   4.675  0.2798  0.0317 -2.1127
   88SOPE  H18Z 8376   3.911   4.958   4.672  0.1732 -0.4168  0.9458
   89SAPC     N 8377   5.243   1.909   6.957  0.5581 -0.2638  0.5275
   89SAPC   C12 8378   5.297   1.931   6.822  0.7125 -0.8082 -1.0177
   89SAPC  H12A 8379   5.389   1.874   6.817  0.2504 -1.4483 -3.3501
   89SAPC  H12B 8380   5.334   2.032   6.809 -2.0819  0.2751 -1.1191
   89SAPC   C13 8381   5.329   1.968   7.067 -0.2314 -0.7118 -0.3225
   89SAPC  H13A 8382   5.354   2.068   7.035 -3.8935  0.1272 -0.9908
   89SAPC  H13B 8383   5.272   1.975   7.158 -0.8574  2.6401 -0.8653
   89SAPC  H13C 8384   5.415   1.905   7.086  0.6915  0.0877 -1.6801
   89SAPC   C14 8385   5.099   1.961   6.965 -0.6496  0.0421 -0.1506
   89SAPC  H14A 8386   5.091   2.069   6.958 -4.5076 -0.1552 -0.7027
   89SAPC  H14B 8387   5.044   1.932   6.877  0.3753  0.7127 -1.0488
   89SAPC  H14C 8388   5.057   1.929   7.059  1.3555  1.0140  1.1486
   89SAPC   C15 8389   5.237   1.772   7.001 -0.2367 -0.2692  0.1699
   89SAPC  H15A 8390   5.180   1.714   6.930  2.2940  0.2956 -2.4816
   89SAPC  H15B 8391   5.337   1.732   7.001 -0.3739 -0.6311  0.9250
   89SAPC  H15C 8392   5.197   1.764   7.101 -1.9695  0.2267 -0.4418
   89SAPC   C11 8393   5.214   1.907   6.695 -0.1036 -0.3229 -0.3390
   89SAPC  H11A 8394   5.188   1.800   6.680 -0.2811 -0.2181 -0.8182
   89SAPC  H11B 8395   5.278   1.925   6.607 -0.7744 -0.6740 -0.9143
   89SAPC     P 8396   5.087   2.122   6.604  0.3121 -0.2114 -0.0379
   89SAPC   O13 8397   4.971   2.191   6.659 -0.2129 -0.2720  0.7110
   89SAPC   O14 8398   5.218   2.191   6.614  0.1639  0.0641  0.6438
   89SAPC   O12 8399   5.096   1.993   6.690  0.1449  0.7565  0.5007
   89SAPC   O11 8400   5.066   2.084   6.451 -0.2868 -0.3489  0.1146
   89SAPC    C1 8401   5.002   1.961   6.423  1.0571  0.6842 -0.0717
   89SAPC    HA 8402   5.076   1.881   6.403  1.2353  0.5866  0.9320
   89SAPC    HB 8403   4.939   1.926   6.508  1.8463 -1.0298 -0.1492
   89SAPC    C2 8404   4.904   1.960   6.296  0.5060 -0.2450 -0.6900
   89SAPC    HS 8405   4.838   1.870   6.303  0.6477 -0.4352 -1.6703
   89SAPC   O21 8406   4.975   1.962   6.172  0.1352 -0.4979  0.4583
   89SAPC   C21 8407   5.031   1.848   6.141  0.0928  0.2510  0.2721
   89SAPC   O22 8408   5.019   1.745   6.208 -0.0315 -0.7794  0.3207
   89SAPC   C22 8409   5.108   1.868   6.008  0.7502  0.9350 -0.2126
   89SAPC   H2R 8410   5.034   1.870   5.925 -0.5838  1.8516  0.9709
   89SAPC   H2S 8411   5.162   1.965   6.010  1.0372  0.7797 -0.2786
   89SAPC    C3 8412   4.807   2.087   6.298 -0.0940  0.2244 -0.0517
   89SAPC    HX 8413   4.873   2.176   6.288  0.5252  0.0666  2.1223
   89SAPC    HY 8414   4.776   2.092   6.404  1.2900 -3.0619  0.6418
   89SAPC   O31 8415   4.695   2.074   6.204 -0.5159 -0.3732  0.2889
   89SAPC   C31 8416   4.591   2.020   6.264  0.9764 -0.0698  0.1805
   89SAPC   O32 8417   4.591   1.973   6.377  0.8049  0.0460  0.4440
   89SAPC   C32 8418   4.464   2.025   6.183 -0.3647 -0.0949  0.1131
   89SAPC   H2X 8419   4.389   1.980   6.250  1.6909 -0.9066  2.0087
   89SAPC   H2Y 8420   4.477   1.963   6.092 -1.3746 -2.6086  1.5986
   89SAPC   C23 8421   5.209   1.759   5.990 -0.9606 -0.5853 -0.2916
   89SAPC   H3R 8422   5.272   1.751   6.082  2.4256 -2.4247 -2.5133
   89SAPC   H3S 8423   5.272   1.794   5.905 -1.1421 -0.9228 -0.5678
   89SAPC   C24 8424   5.150   1.612   5.966  0.4080 -0.2847  0.2663
   89SAPC   H4R 8425   5.068   1.628   5.893  0.4579  1.9995  0.6292
   89SAPC   H4S 8426   5.106   1.577   6.062  0.4745  1.3346  0.9212
   89SAPC   C25 8427   5.264   1.523   5.926  0.3798  0.2336 -0.9688
   89SAPC   H5R 8428   5.315   1.476   6.011  0.3734  1.8435 -0.0173
   89SAPC   C26 8429   5.299   1.506   5.797 -0.0684 -0.4000 -0.2993
   89SAPC   H6R 8430   5.389   1.446   5.779 -0.0428 -0.1495 -1.0362
   89SAPC   C27 8431   5.241   1.569   5.672  0.0702  0.4602 -0.3911
   89SAPC   H7R 8432   5.132   1.583   5.688  0.3812  0.4040  2.3600
   89SAPC   H7S 8433   5.249   1.504   5.583  1.0842  1.0131 -0.7249
   89SAPC   C28 8434   5.310   1.696   5.632 -0.6235 -0.7377 -0.3456
   89SAPC   H8R 8435   5.267   1.794   5.657 -0.0873 -0.2718 -1.2046
   89SAPC   C29 8436   5.436   1.716   5.591  0.6312 -0.6727 -0.6703
   89SAPC   H9R 8437   5.459   1.812   5.542 -0.5854 -0.9819 -1.8912
   89SAPC  C210 8438   5.544   1.610   5.560 -0.1064  0.0813 -0.4126
   89SAPC  H10R 8439   5.508   1.506   5.579 -0.9327 -0.0685 -2.5003
   89SAPC  H10S 8440   5.624   1.621   5.636 -0.3857 -1.5767  0.1678
   89SAPC  C211 8441   5.611   1.622   5.428  0.0445 -0.4320 -0.1391
   89SAPC  H11R 8442   5.549   1.677   5.356  0.8845 -0.2591 -0.7389
   89SAPC  C212 8443   5.728   1.562   5.392 -0.2372 -0.2193  0.1712
   89SAPC  H12R 8444   5.770   1.566   5.290 -0.9922 -0.9731 -0.1806
   89SAPC  C213 8445   5.810   1.471   5.484 -0.0078 -0.8412 -0.6487
   89SAPC  H13R 8446   5.794   1.480   5.594  1.3669  1.9481 -0.6087
   89SAPC  H13S 8447   5.916   1.503   5.481  0.5113 -2.2137  0.9859
   89SAPC  C214 8448   5.825   1.328   5.432 -0.4621  0.2431  0.4132
   89SAPC  H14R 8449   5.850   1.312   5.326  0.1485 -0.3114  0.6350
   89SAPC  C215 8450   5.824   1.218   5.507  0.3854 -0.0829  0.9101
   89SAPC  H15R 8451   5.838   1.122   5.454  2.9553 -1.1881  3.3343
   89SAPC  C216 8452   5.796   1.212   5.653  0.6768 -0.3819 -0.2675
   89SAPC  H16R 8453   5.708   1.145   5.665  0.5362  0.0289  1.1759
   89SAPC  H16S 8454   5.783   1.304   5.714  2.5018  0.2139 -0.7240
   89SAPC  C217 8455   5.910   1.139   5.725 -0.2526 -0.1919  0.6133
   89SAPC  H17R 8456   6.005   1.193   5.702 -0.2006 -0.2142  0.7784
   89SAPC  H17S 8457   5.910   1.036   5.683  2.1812  0.0443 -0.1139
   89SAPC  C218 8458   5.903   1.129   5.875  0.3802  0.3706  0.1442
   89SAPC  H18R 8459   5.807   1.082   5.906  0.6043 -0.9903 -1.1186
   89SAPC  H18S 8460   5.920   1.224   5.931  0.5084  0.2305  0.3467
   89SAPC  C219 8461   6.013   1.032   5.921 -0.3113 -0.5499 -0.1006
   89SAPC  H19R 8462   6.101   1.091   5.889 -1.5477  2.2386  1.3218
   89SAPC  H19S 8463   6.017   0.935   5.866  0.6363  0.0297 -1.0977
   89SAPC  C220 8464   6.027   1.003   6.072  0.6244  0.3190  0.1280
   89SAPC  H20R 8465   6.131   0.974   6.100  1.4560  2.2179 -0.8289
   89SAPC  H20S 8466   5.956   0.927   6.111 -0.0609 -0.1446 -1.9135
   89SAPC  H20T 8467   6.003   1.099   6.121 -2.1268 -0.1888 -0.0654
   89SAPC   C33 8468   4.433   2.166   6.147 -0.1799 -0.3718  0.0174
   89SAPC   H3X 8469   4.513   2.202   6.078  1.8878 -0.8871  2.0120
   89SAPC   H3Y 8470   4.443   2.239   6.230  0.4382  0.3603 -0.6756
   89SAPC   C34 8471   4.287   2.180   6.093  0.2461  1.4940 -0.4280
   89SAPC   H4X 8472   4.271   2.290   6.085 -1.2919  1.4052  0.9264
   89SAPC   H4Y 8473   4.208   2.155   6.167 -0.2379 -0.8452 -1.6511
   89SAPC   C35 8474   4.275   2.104   5.964 -0.2643 -0.5076 -0.2571
   89SAPC   H5X 8475   4.317   2.002   5.977  1.9731  0.5828  1.9451
   89SAPC   H5Y 8476   4.331   2.172   5.896  1.6195  0.8626  2.4656
   89SAPC   C36 8477   4.134   2.094   5.910  0.4974  0.0575 -0.6292
   89SAPC   H6X 8478   4.086   2.185   5.951  0.9128 -0.4015  0.9519
   89SAPC   H6Y 8479   4.085   2.002   5.949 -0.9661  1.3720  0.7669
   89SAPC   C37 8480   4.131   2.102   5.763 -0.2135  0.3405  0.1198
   89SAPC   H7X 8481   4.120   2.201   5.713 -1.8663  1.1333  1.9014
   89SAPC   H7Y 8482   4.042   2.041   5.736  0.4332 -0.1303 -1.0062
   89SAPC   C38 8483   4.247   2.019   5.699  0.3868  0.2226 -0.3046
   89SAPC   H8X 8484   4.245   1.916   5.741 -1.3716  0.8343  1.2695
   89SAPC   H8Y 8485   4.345   2.065   5.726 -0.1492  1.0786  0.2277
   89SAPC   C39 8486   4.245   2.020   5.541 -0.4092  0.5425  0.1417
   89SAPC   H9X 8487   4.253   2.127   5.512  1.2208  0.3552 -0.2379
   89SAPC   H9Y 8488   4.155   1.975   5.495 -0.0828  0.2518 -0.2245
   89SAPC  C310 8489   4.366   1.960   5.486 -0.3246 -0.7725  0.3553
   89SAPC  H10X 8490   4.382   1.858   5.527 -1.4923 -0.3027  2.0782
   89SAPC  H10Y 8491   4.447   2.027   5.521 -1.1108  0.4534 -0.0745
   89SAPC  C311 8492   4.382   1.961   5.334  0.6942 -0.2015  0.7212
   89SAPC  H11X 8493   4.359   2.063   5.297 -2.5973 -1.2552 -0.4733
   89SAPC  H11Y 8494   4.309   1.886   5.298 -0.2651  2.2833 -3.1993
   89SAPC  C312 8495   4.527   1.919   5.295 -0.1989 -0.1153 -0.1860
   89SAPC  H12X 8496   4.550   1.844   5.373  0.7121  1.1877  0.8357
   89SAPC  H12Y 8497   4.580   2.017   5.292  2.1637 -1.3326 -1.4137
   89SAPC  C313 8498   4.556   1.850   5.163 -0.4285 -0.1203  0.5978
   89SAPC  H13X 8499   4.664   1.843   5.138 -0.8148 -1.0991 -0.8812
   89SAPC  H13Y 8500   4.518   1.923   5.089  0.8484  2.4111  2.2869
   89SAPC  C314 8501   4.475   1.723   5.148 -0.0626 -0.2919 -0.6240
   89SAPC  H14X 8502   4.382   1.731   5.208  0.7603 -0.7326  0.7563
   89SAPC  H14Y 8503   4.521   1.629   5.185 -0.6789  0.0049  0.9758
   89SAPC  C315 8504   4.441   1.684   5.000 -0.2475  0.1879  0.1825
   89SAPC  H15X 8505   4.534   1.667   4.942 -0.3296  2.0318 -0.5679
   89SAPC  H15Y 8506   4.383   1.768   4.956  1.7446  0.8691 -1.2593
   89SAPC  C316 8507   4.354   1.564   4.992  0.2818 -0.1131  0.3405
   89SAPC  H16X 8508   4.251   1.597   5.019  0.4558 -0.1764  1.1182
   89SAPC  H16Y 8509   4.387   1.487   5.065  2.0178 -0.1257 -0.3927
   89SAPC  C317 8510   4.361   1.496   4.854 -0.4959  0.2339  0.2056
   89SAPC  H17X 8511   4.269   1.436   4.837  1.1199 -2.1884 -0.6055
   89SAPC  H17Y 8512   4.446   1.424   4.854  0.3175  1.1609  1.1843
   89SAPC  C318 8513   4.379   1.590   4.737  0.2437  0.3997 -0.4142
   89SAPC  H18X 8514   4.302   1.670   4.735 -2.2765 -1.8706  0.1354
   89SAPC  H18Y 8515   4.370   1.531   4.643  2.7559 -0.8798  0.0629
   89SAPC  H18Z 8516   4.481   1.628   4.715  0.8025 -1.8413 -2.0965
   90SAPC     N 8517   4.243   3.369   7.133 -0.2668 -0.5462 -0.1567
   90SAPC   C12 8518   4.256   3.339   6.981  0.5421  0.0926  0.4997
   90SAPC  H12A 8519   4.313   3.248   6.967  0.2825 -0.0002  0.0217
   90SAPC  H12B 8520   4.322   3.413   6.937  2.5237  0.0017  3.0741
   90SAPC   C13 8521   4.165   3.256   7.187 -0.1121 -0.0324  0.2394
   90SAPC  H13A 8522   4.067   3.239   7.146 -0.4072 -1.1803  1.3296
   90SAPC  H13B 8523   4.226   3.168   7.169  1.5497  0.9726  0.7225
   90SAPC  H13C 8524   4.160   3.282   7.292 -1.7828  0.5881  0.0331
   90SAPC   C14 8525   4.383   3.372   7.196  0.2906  0.7509 -0.2854
   90SAPC  H14A 8526   4.445   3.290   7.165 -0.5272  0.3463 -0.9167
   90SAPC  H14B 8527   4.431   3.465   7.169  0.9847  0.3242 -0.5520
   90SAPC  H14C 8528   4.368   3.374   7.303 -0.1562 -0.3294 -0.3119
   90SAPC   C15 8529   4.178   3.499   7.159  0.4464 -0.1589  0.1627
   90SAPC  H15A 8530   4.156   3.525   7.261 -0.1695  0.9662 -0.2270
   90SAPC  H15B 8531   4.231   3.572   7.099  0.4518 -1.1161 -1.0376
   90SAPC  H15C 8532   4.076   3.503   7.122  0.2580 -0.6766  0.6260
   90SAPC   C11 8533   4.134   3.328   6.891 -0.7752 -0.1865 -0.2392
   90SAPC  H11A 8534   4.058   3.258   6.930  0.0994  0.3803  2.7120
   90SAPC  H11B 8535   4.156   3.288   6.790  1.8162 -0.7203  0.4673
   90SAPC     P 8536   4.106   3.564   6.782 -0.2440  0.1590 -0.5822
   90SAPC   O13 8537   4.079   3.525   6.644 -0.0478  0.1450 -0.1785
   90SAPC   O14 8538   4.051   3.694   6.828  0.5329  0.2799 -0.2460
   90SAPC   O12 8539   4.065   3.449   6.884 -0.4186 -0.0361  0.2416
   90SAPC   O11 8540   4.260   3.575   6.813  0.6187 -0.2922  0.1609
   90SAPC    C1 8541   4.356   3.546   6.706  0.3343 -0.3895 -0.6853
   90SAPC    HA 8542   4.437   3.488   6.756  2.7406  1.3546 -2.3163
   90SAPC    HB 8543   4.317   3.478   6.628 -0.5301  1.1178 -1.6178
   90SAPC    C2 8544   4.403   3.678   6.640  0.2081 -0.3109  0.4177
   90SAPC    HS 8545   4.313   3.743   6.646  1.8500  2.1495 -0.0948
   90SAPC   O21 8546   4.434   3.669   6.502 -0.0500 -0.0858 -0.1115
   90SAPC   C21 8547   4.541   3.595   6.464  0.4356  0.4677 -0.0665
   90SAPC   O22 8548   4.615   3.539   6.536 -0.4232 -0.2581  0.0476
   90SAPC   C22 8549   4.557   3.614   6.310 -0.5267  0.6369 -0.3196
   90SAPC   H2R 8550   4.463   3.569   6.271 -1.4195  1.6476  0.5963
   90SAPC   H2S 8551   4.559   3.724   6.296 -0.8379  0.4385 -2.0738
   90SAPC    C3 8552   4.522   3.754   6.717  0.2605 -0.3356  0.9928
   90SAPC    HX 8553   4.617   3.697   6.711  0.2265 -0.2575 -1.1378
   90SAPC    HY 8554   4.494   3.748   6.824  0.3737  0.9141  1.1076
   90SAPC   O31 8555   4.548   3.886   6.666  0.7166  0.2290 -0.8795
   90SAPC   C31 8556   4.460   3.974   6.703  0.4095  0.0455  0.6142
   90SAPC   O32 8557   4.368   3.952   6.784  0.3098  0.4754  0.2762
   90SAPC   C32 8558   4.495   4.109   6.631  0.9345 -0.0533 -0.3858
   90SAPC   H2X 8559   4.579   4.091   6.561 -0.1651 -1.1445 -1.4845
   90SAPC   H2Y 8560   4.522   4.183   6.710 -0.4776  1.9091 -1.6271
   90SAPC   C23 8561   4.683   3.543   6.266 -0.7083 -0.3478 -0.5404
   90SAPC   H3R 8562   4.666   3.434   6.281 -0.2810 -0.1683  1.4295
   90SAPC   H3S 8563   4.778   3.570   6.316 -0.6710 -1.1764 -0.1426
   90SAPC   C24 8564   4.716   3.564   6.113  0.7720 -0.4307 -0.5143
   90SAPC   H4R 8565   4.815   3.517   6.095  0.9531 -0.0898 -0.4199
   90SAPC   H4S 8566   4.735   3.671   6.088  0.2658 -0.5838 -1.6011
   90SAPC   C25 8567   4.620   3.494   6.021  0.6356  0.2295  0.3590
   90SAPC   H5R 8568   4.576   3.400   6.056 -0.4015  0.4079 -0.3964
   90SAPC   C26 8569   4.586   3.530   5.898  0.3499  0.7594  0.1045
   90SAPC   H6R 8570   4.520   3.461   5.843  0.6439  0.7745 -0.2773
   90SAPC   C27 8571   4.640   3.643   5.821  0.4484 -0.5769  0.6708
   90SAPC   H7R 8572   4.650   3.736   5.881 -1.0814 -0.0237  0.1240
   90SAPC   H7S 8573   4.566   3.682   5.748  2.4308  2.2394 -0.0571
   90SAPC   C28 8574   4.773   3.615   5.757 -0.8551 -0.5596  0.0371
   90SAPC   H8R 8575   4.860   3.596   5.822 -1.6823  0.8630  1.6274
   90SAPC   C29 8576   4.790   3.595   5.625 -0.6923  0.2794 -0.0956
   90SAPC   H9R 8577   4.887   3.552   5.595  0.2200  2.0981  0.0968
   90SAPC  C210 8578   4.684   3.609   5.514  0.2526 -0.4850 -0.4558
   90SAPC  H10R 8579   4.684   3.712   5.474  2.7244 -0.2059  0.1082
   90SAPC  H10S 8580   4.583   3.582   5.554 -0.1150 -0.5156 -1.3869
   90SAPC  C211 8581   4.704   3.506   5.403 -0.0397 -0.1348 -0.6825
   90SAPC  H11R 8582   4.720   3.404   5.440 -1.2787 -0.4942 -1.1028
   90SAPC  C212 8583   4.707   3.525   5.270  0.4270 -0.4328  0.1040
   90SAPC  H12R 8584   4.732   3.443   5.202  1.6998  0.5020 -0.6169
   90SAPC  C213 8585   4.695   3.659   5.198 -0.1581 -0.0909 -0.1672
   90SAPC  H13R 8586   4.741   3.746   5.250 -2.8617  2.0075 -1.0107
   90SAPC  H13S 8587   4.589   3.691   5.205 -1.0110 -1.9997 -2.6343
   90SAPC  C214 8588   4.745   3.665   5.053  0.5689 -0.2535  0.2680
   90SAPC  H14R 8589   4.765   3.567   5.007 -0.7012  0.6879 -2.5145
   90SAPC  C215 8590   4.763   3.776   4.979  0.2377 -1.0169  0.4815
   90SAPC  H15R 8591   4.814   3.764   4.882 -0.2878 -1.0703  0.2098
   90SAPC  C216 8592   4.745   3.917   5.030 -0.7805 -0.1118  0.5213
   90SAPC  H16R 8593   4.708   3.931   5.133  1.5380 -0.7195  1.4966
   90SAPC  H16S 8594   4.674   3.981   4.974  2.3479  3.6438  0.3929
   90SAPC  C217 8595   4.872   4.009   5.007 -0.2224 -0.1621 -0.3763
   90SAPC  H17R 8596   4.966   3.959   5.039 -0.0830 -0.1020 -0.6886
   90SAPC  H17S 8597   4.862   4.091   5.082  1.0303  1.5932 -2.0315
   90SAPC  C218 8598   4.891   4.070   4.874 -0.3244 -0.8358 -0.1814
   90SAPC  H18R 8599   4.796   4.116   4.838  0.7117  3.1532  1.6308
   90SAPC  H18S 8600   4.918   3.990   4.802  1.0711 -0.5824  0.0356
   90SAPC  C219 8601   4.997   4.180   4.870 -0.0773 -0.3415 -0.1432
   90SAPC  H19R 8602   4.948   4.256   4.934  0.7040 -0.7142  0.9204
   90SAPC  H19S 8603   4.995   4.228   4.769  0.0036 -1.9644 -0.9555
   90SAPC  C220 8604   5.140   4.150   4.905 -0.3650  0.3230 -0.1226
   90SAPC  H20R 8605   5.136   4.109   5.008 -0.5430  1.3656  0.2988
   90SAPC  H20S 8606   5.203   4.242   4.899 -0.5021  0.4176 -0.1238
   90SAPC  H20T 8607   5.176   4.068   4.840  1.3044  0.9507 -0.0287
   90SAPC   C33 8608   4.360   4.148   6.555  1.0053  0.4910 -0.3867
   90SAPC   H3X 8609   4.378   4.238   6.492 -2.2768 -0.2108 -2.5697
   90SAPC   H3Y 8610   4.293   4.195   6.631  0.4944 -0.9478  0.0885
   90SAPC   C34 8611   4.289   4.041   6.470  0.3341 -0.1764  0.6985
   90SAPC   H4X 8612   4.188   4.083   6.451  0.9155  0.3907 -1.3132
   90SAPC   H4Y 8613   4.270   3.957   6.541 -1.2788 -0.0462  0.4683
   90SAPC   C35 8614   4.366   3.999   6.345  0.5001 -0.3926  0.1432
   90SAPC   H5X 8615   4.394   3.893   6.364 -0.3502 -0.6189  0.1924
   90SAPC   H5Y 8616   4.461   4.056   6.335 -0.4526  1.0380 -1.1887
   90SAPC   C36 8617   4.277   4.018   6.224 -0.1911  0.6326  0.2224
   90SAPC   H6X 8618   4.263   4.128   6.213  1.3332  0.6861 -1.8618
   90SAPC   H6Y 8619   4.183   3.963   6.247 -0.4615  0.6046 -0.8873
   90SAPC   C37 8620   4.345   3.944   6.101  0.2877  0.1864 -0.3425
   90SAPC   H7X 8621   4.340   3.833   6.111  1.7734  0.1206 -0.1626
   90SAPC   H7Y 8622   4.453   3.967   6.109  0.4572 -0.7048  0.0980
   90SAPC   C38 8623   4.290   3.992   5.966 -0.1329  0.0978 -0.8855
   90SAPC   H8X 8624   4.288   4.103   5.964  0.4575  0.1398 -4.3291
   90SAPC   H8Y 8625   4.184   3.961   5.958 -0.1011 -0.6043  0.8835
   90SAPC   C39 8626   4.375   3.936   5.843  0.0755 -0.2720  0.7837
   90SAPC   H9X 8627   4.400   3.828   5.848  0.8766 -0.2161 -1.0405
   90SAPC   H9Y 8628   4.469   3.995   5.854  1.6352 -2.1083 -1.5494
   90SAPC  C310 8629   4.314   3.971   5.714  1.0683 -0.6507 -0.0460
   90SAPC  H10X 8630   4.308   4.082   5.708  0.5771 -0.6979 -0.4717
   90SAPC  H10Y 8631   4.210   3.940   5.693 -0.3031  1.0233  3.4500
   90SAPC  C311 8632   4.390   3.925   5.593 -0.0385 -0.0006  0.8033
   90SAPC  H11X 8633   4.398   3.814   5.584  1.9593  0.1672  0.0713
   90SAPC  H11Y 8634   4.497   3.954   5.585  1.4330 -4.5705  0.4180
   90SAPC  C312 8635   4.327   3.971   5.460 -0.2942  0.1472  0.6316
   90SAPC  H12X 8636   4.288   4.073   5.481 -1.0752  0.5049 -2.1502
   90SAPC  H12Y 8637   4.244   3.899   5.438  0.9467 -1.4003  0.8115
   90SAPC  C313 8638   4.420   3.964   5.344  0.0681 -0.3014  0.3939
   90SAPC  H13X 8639   4.443   3.858   5.320  3.3777  0.4029 -0.0190
   90SAPC  H13Y 8640   4.518   4.004   5.377 -0.5904  1.1737  0.6209
   90SAPC  C314 8641   4.366   4.044   5.228  1.0023 -0.3160 -0.1028
   90SAPC  H14X 8642   4.276   3.994   5.188  1.7016 -2.4152  0.7861
   90SAPC  H14Y 8643   4.439   4.036   5.145  2.6232  1.5746  1.0473
   90SAPC  C315 8644   4.341   4.199   5.257  0.4210 -0.3734  0.3621
   90SAPC  H15X 8645   4.431   4.229   5.315  0.3577  0.3327  0.0988
   90SAPC  H15Y 8646   4.250   4.215   5.319  1.4030  1.2288  1.4659
   90SAPC  C316 8647   4.347   4.288   5.133 -0.5128  0.2141 -0.4027
   90SAPC  H16X 8648   4.443   4.267   5.081 -1.1273  0.5221 -1.7203
   90SAPC  H16Y 8649   4.346   4.392   5.170 -0.3060  0.2100 -0.3831
   90SAPC  C317 8650   4.235   4.278   5.035 -0.2292  0.5884 -0.0810
   90SAPC  H17X 8651   4.227   4.368   4.971  3.2072  2.4609  1.8490
   90SAPC  H17Y 8652   4.138   4.274   5.090 -0.7930 -0.6320 -1.1027
   90SAPC  C318 8653   4.225   4.151   4.946  0.0622 -0.2179 -1.2348
   90SAPC  H18X 8654   4.145   4.162   4.870 -0.8642  3.7514  0.0690
   90SAPC  H18Y 8655   4.186   4.068   5.010  1.4320 -0.1901 -0.3222
   90SAPC  H18Z 8656   4.319   4.115   4.900 -0.2168 -1.1239 -1.1201
   91SAPC     N 8657   2.343   4.747   6.816 -0.9499 -0.6120 -0.0273
   91SAPC   C12 8658   2.332   4.889   6.891 -0.6856  0.1294 -0.0508
   91SAPC  H12A 8659   2.419   4.898   6.955 -0.5338  1.9246 -0.4773
   91SAPC  H12B 8660   2.247   4.887   6.957  0.1420 -0.2695  1.0366
   91SAPC   C13 8661   2.358   4.639   6.918 -0.2117 -0.8752  0.1503
   91SAPC  H13A 8662   2.353   4.542   6.871 -1.1979  0.4008 -2.5353
   91SAPC  H13B 8663   2.459   4.655   6.953  0.2779  0.1234 -1.6327
   91SAPC  H13C 8664   2.296   4.633   7.006  2.9323  0.3583  2.6874
   91SAPC   C14 8665   2.219   4.716   6.734 -0.2855  0.2980 -0.4424
   91SAPC  H14A 8666   2.236   4.637   6.662  0.8418  0.7720 -0.7195
   91SAPC  H14B 8667   2.132   4.703   6.797 -1.5331 -1.6010 -2.4298
   91SAPC  H14C 8668   2.199   4.805   6.675 -2.9094 -1.3393 -2.2631
   91SAPC   C15 8669   2.460   4.746   6.724  0.8438  0.0846  0.7046
   91SAPC  H15A 8670   2.446   4.814   6.642  1.8861 -0.3624  0.1376
   91SAPC  H15B 8671   2.553   4.776   6.770  0.4136  2.6467  0.0602
   91SAPC  H15C 8672   2.465   4.652   6.671  1.2639  1.5999 -2.1512
   91SAPC   C11 8673   2.314   5.009   6.806 -0.0800 -0.5462  0.4914
   91SAPC  H11A 8674   2.390   5.003   6.725 -1.7517  1.7146 -1.3832
   91SAPC  H11B 8675   2.346   5.089   6.876  1.8430 -2.5699  2.0609
   91SAPC     P 8676   2.139   5.093   6.628  0.5087  0.3166 -0.0849
   91SAPC   O13 8677   1.995   5.140   6.652 -1.0759 -0.1622  0.3511
   91SAPC   O14 8678   2.245   5.190   6.593  0.0401 -0.3491 -0.6195
   91SAPC   O12 8679   2.179   5.008   6.756  0.2216  0.2680  0.3570
   91SAPC   O11 8680   2.136   4.992   6.513  0.1879  0.3544  0.7203
   91SAPC    C1 8681   2.243   4.921   6.453 -0.1123 -0.6261 -0.5287
   91SAPC    HA 8682   2.339   4.966   6.486 -0.3431 -1.3240  1.2167
   91SAPC    HB 8683   2.246   4.815   6.485  0.1288 -0.4689 -0.0287
   91SAPC    C2 8684   2.241   4.917   6.298 -0.6837  0.0477 -0.2796
   91SAPC    HS 8685   2.270   5.015   6.255  1.4439 -1.4458 -2.5318
   91SAPC   O21 8686   2.124   4.844   6.259 -0.0616  0.2056  0.2041
   91SAPC   C21 8687   2.041   4.916   6.182 -0.4344 -0.4497  0.2877
   91SAPC   O22 8688   2.065   5.030   6.149 -0.0990 -0.6010 -0.1373
   91SAPC   C22 8689   1.907   4.844   6.165  0.6418  0.2828 -0.2275
   91SAPC   H2R 8690   1.937   4.738   6.159  0.7089  0.3612 -1.6253
   91SAPC   H2S 8691   1.854   4.873   6.258 -0.1373  0.2501 -0.6508
   91SAPC    C3 8692   2.360   4.824   6.251  0.1637 -0.8497 -0.6974
   91SAPC    HX 8693   2.351   4.718   6.282  0.8741 -1.1109 -1.3655
   91SAPC    HY 8694   2.457   4.862   6.290  0.2261 -0.4010 -1.2853
   91SAPC   O31 8695   2.362   4.832   6.106 -0.2788 -0.5434  0.0583
   91SAPC   C31 8696   2.431   4.929   6.054  0.8877  0.4582 -0.1456
   91SAPC   O32 8697   2.504   5.005   6.113 -0.3456  0.7514  0.2794
   91SAPC   C32 8698   2.409   4.926   5.902 -0.0754  0.5077  0.3836
   91SAPC   H2X 8699   2.302   4.901   5.886 -0.2245  1.8507 -1.0145
   91SAPC   H2Y 8700   2.474   4.848   5.858 -1.0660  0.4150 -0.9676
   91SAPC   C23 8701   1.820   4.885   6.042 -0.8037  0.0508  0.7663
   91SAPC   H3R 8702   1.850   4.815   5.961 -1.5511  0.1804  0.3735
   91SAPC   H3S 8703   1.861   4.983   6.012  2.4276 -1.6251 -0.8181
   91SAPC   C24 8704   1.674   4.881   6.076  0.0057  0.0588 -0.0112
   91SAPC   H4R 8705   1.616   4.936   5.999  0.3247  0.8310  0.2919
   91SAPC   H4S 8706   1.661   4.928   6.176 -0.8797 -1.1165  0.4425
   91SAPC   C25 8707   1.627   4.743   6.085  0.4353  0.6352  0.6909
   91SAPC   H5R 8708   1.629   4.695   6.185 -0.5118 -2.4208 -0.6142
   91SAPC   C26 8709   1.564   4.680   5.984  0.6325  0.5264  0.0151
   91SAPC   H6R 8710   1.535   4.576   6.006 -1.2105  0.8485 -0.6940
   91SAPC   C27 8711   1.539   4.747   5.845  0.2828  0.2957 -0.6209
   91SAPC   H7R 8712   1.626   4.809   5.813  0.6069  0.7519  1.0556
   91SAPC   H7S 8713   1.459   4.824   5.849  0.4190  0.3998  0.7153
   91SAPC   C28 8714   1.511   4.641   5.735 -0.0657  0.1275 -0.1061
   91SAPC   H8R 8715   1.512   4.534   5.760  0.3685  0.1591  0.0340
   91SAPC   C29 8716   1.492   4.680   5.607 -0.1301 -0.0256 -0.1153
   91SAPC   H9R 8717   1.443   4.609   5.537  0.1879  0.8729 -1.2868
   91SAPC  C210 8718   1.505   4.823   5.556 -0.1848  0.1344  0.5463
   91SAPC  H10R 8719   1.512   4.808   5.446  0.3123  1.5330  0.3733
   91SAPC  H10S 8720   1.609   4.857   5.576  0.2203 -1.4059  1.2240
   91SAPC  C211 8721   1.403   4.930   5.589 -0.2095  0.0731  0.2049
   91SAPC  H11R 8722   1.324   4.898   5.660 -1.0618 -1.1681 -1.2333
   91SAPC  C212 8723   1.411   5.054   5.552 -0.0311  0.1498  0.9313
   91SAPC  H12R 8724   1.328   5.123   5.573  0.5211  0.6877  1.3692
   91SAPC  C213 8725   1.510   5.119   5.457 -0.0479  0.1000 -0.0105
   91SAPC  H13R 8726   1.502   5.077   5.355  1.1909 -0.1595 -0.0177
   91SAPC  H13S 8727   1.612   5.087   5.487  1.5432  1.5621 -3.4110
   91SAPC  C214 8728   1.506   5.269   5.465  0.1599 -0.6620  0.1379
   91SAPC  H14R 8729   1.468   5.315   5.557  1.7119  0.0007  0.4707
   91SAPC  C215 8730   1.540   5.353   5.365 -0.6355  0.6754 -0.3202
   91SAPC  H15R 8731   1.522   5.461   5.379 -0.4342  0.2904  4.4691
   91SAPC  C216 8732   1.588   5.304   5.233  0.4381 -0.0927  1.2761
   91SAPC  H16R 8733   1.512   5.249   5.174  2.7860 -0.7387 -1.3512
   91SAPC  H16S 8734   1.675   5.235   5.237  0.9233  0.5370  1.7571
   91SAPC  C217 8735   1.635   5.430   5.159 -0.8981  0.3462 -0.1904
   91SAPC  H17R 8736   1.704   5.492   5.220  1.4637 -1.3084 -1.0503
   91SAPC  H17S 8737   1.544   5.492   5.144 -3.1448 -2.3953  1.1776
   91SAPC  C218 8738   1.684   5.390   5.025 -0.9026  0.7783 -0.8006
   91SAPC  H18R 8739   1.746   5.297   5.028 -0.5702  0.9760 -1.2556
   91SAPC  H18S 8740   1.751   5.473   4.992  1.9427 -0.2245  1.8958
   91SAPC  C219 8741   1.577   5.367   4.914  0.5028 -0.7561 -0.0324
   91SAPC  H19R 8742   1.505   5.447   4.940  1.1247  0.5273 -2.0016
   91SAPC  H19S 8743   1.526   5.270   4.931  0.3699 -0.9736 -1.5709
   91SAPC  C220 8744   1.625   5.394   4.772 -0.2749  0.2714 -0.0784
   91SAPC  H20R 8745   1.548   5.398   4.691 -2.8756 -0.5022  2.2211
   91SAPC  H20S 8746   1.707   5.324   4.744 -0.0919  0.4087  0.1098
   91SAPC  H20T 8747   1.679   5.490   4.758 -1.6074  0.9451 -0.7340
   91SAPC   C33 8748   2.432   5.071   5.850  0.2089 -0.1662 -0.7936
   91SAPC   H3X 8749   2.541   5.092   5.857  0.2873 -0.5573 -0.8152
   91SAPC   H3Y 8750   2.373   5.138   5.915  2.7842  0.4049  1.1454
   91SAPC   C34 8751   2.388   5.099   5.705 -0.6110 -0.3531  0.6189
   91SAPC   H4X 8752   2.402   5.209   5.689 -1.3488 -0.5430 -1.8520
   91SAPC   H4Y 8753   2.277   5.092   5.691 -0.7025  0.4394  0.8982
   91SAPC   C35 8754   2.448   5.013   5.602  0.5258  0.4521  0.0945
   91SAPC   H5X 8755   2.442   4.904   5.619  0.7822  0.7794  2.5902
   91SAPC   H5Y 8756   2.556   5.038   5.598  0.0525  2.9448  0.9410
   91SAPC   C36 8757   2.392   5.057   5.471 -0.2894  0.3485  0.0611
   91SAPC   H6X 8758   2.353   5.160   5.482  1.7986  1.0754  1.0576
   91SAPC   H6Y 8759   2.313   4.989   5.431 -1.3919  1.2981  0.5709
   91SAPC   C37 8760   2.497   5.045   5.360  0.0893  0.5688  0.3372
   91SAPC   H7X 8761   2.519   4.938   5.345 -1.5455  0.1867  0.5154
   91SAPC   H7Y 8762   2.588   5.097   5.399  1.0071  0.4792 -1.6090
   91SAPC   C38 8763   2.453   5.107   5.227 -0.6643  0.1059  0.0553
   91SAPC   H8X 8764   2.548   5.106   5.169  0.5815 -1.8081  2.0254
   91SAPC   H8Y 8765   2.422   5.214   5.227  0.3313  0.4204  1.5486
   91SAPC   C39 8766   2.353   5.020   5.148 -0.3781  0.0449  0.2777
   91SAPC   H9X 8767   2.328   5.074   5.054  0.3317 -1.3151 -0.7198
   91SAPC   H9Y 8768   2.269   4.998   5.218  1.0511  1.4551  2.5693
   91SAPC  C310 8769   2.418   4.885   5.105  0.0545  0.0152 -0.0025
   91SAPC  H10X 8770   2.438   4.822   5.195  1.0479  0.0385 -0.2042
   91SAPC  H10Y 8771   2.508   4.909   5.046  3.1084 -1.7646  3.4974
   91SAPC  C311 8772   2.333   4.799   5.022 -0.9896  0.3207 -0.4586
   91SAPC  H11X 8773   2.314   4.843   4.922 -0.6043 -0.4673 -0.8855
   91SAPC  H11Y 8774   2.234   4.801   5.071  0.3101 -0.8093  2.4764
   91SAPC  C312 8775   2.377   4.658   5.013 -0.5611 -0.0735  0.4912
   91SAPC  H12X 8776   2.487   4.664   5.019 -0.6627  1.8951  0.8065
   91SAPC  H12Y 8777   2.352   4.603   4.919  1.9102 -2.1347  0.9162
   91SAPC  C313 8778   2.323   4.571   5.127 -0.2976 -0.1356  0.1088
   91SAPC  H13X 8779   2.366   4.611   5.221 -0.9610 -2.4237  1.4772
   91SAPC  H13Y 8780   2.348   4.463   5.117  0.8718  0.2548 -1.7515
   91SAPC  C314 8781   2.169   4.572   5.133 -0.9240  0.1282 -0.3909
   91SAPC  H14X 8782   2.141   4.541   5.030  1.2516  1.4606 -1.4373
   91SAPC  H14Y 8783   2.122   4.668   5.164 -1.2198 -0.3755  0.8000
   91SAPC  C315 8784   2.111   4.462   5.232 -0.0443 -0.1324  0.4066
   91SAPC  H15X 8785   2.139   4.472   5.339 -0.5340  1.5486  0.4163
   91SAPC  H15Y 8786   2.147   4.363   5.197 -1.5523 -0.4047 -0.4838
   91SAPC  C316 8787   1.955   4.446   5.208 -0.0579  0.3823  0.5116
   91SAPC  H16X 8788   1.906   4.545   5.217  2.0299  1.7722 -1.9741
   91SAPC  H16Y 8789   1.914   4.381   5.288 -1.4087  0.9642  0.3310
   91SAPC  C317 8790   1.902   4.383   5.077 -0.8109 -1.1692  0.1489
   91SAPC  H17X 8791   1.933   4.278   5.057  2.2549 -0.0105 -1.9420
   91SAPC  H17Y 8792   1.941   4.444   4.992 -0.4985 -2.8827 -0.9893
   91SAPC  C318 8793   1.754   4.375   5.067  0.2865  0.3754 -0.0350
   91SAPC  H18X 8794   1.727   4.349   4.962 -0.9422 -0.9433  0.5681
   91SAPC  H18Y 8795   1.701   4.471   5.085 -0.3525 -0.1151  0.7474
   91SAPC  H18Z 8796   1.709   4.298   5.133  0.2872  0.7138  0.3657
   92SAPC     N 8797   6.583   4.836   6.910  0.5587 -0.2185  0.0927
   92SAPC   C12 8798   6.716   4.767   6.953 -0.5042 -0.2246 -0.5643
   92SAPC  H12A 8799   6.731   4.789   7.058  0.4016  0.6214 -0.8585
   92SAPC  H12B 8800   6.798   4.820   6.907 -1.3353 -0.6022 -2.5753
   92SAPC   C13 8801   6.458   4.790   6.978  0.1470  0.3216 -0.2142
   92SAPC  H13A 8802   6.456   4.818   7.082  0.3311 -2.5655  0.6312
   92SAPC  H13B 8803   6.370   4.843   6.946  0.3732 -0.1273 -1.6850
   92SAPC  H13C 8804   6.435   4.687   6.957  2.2201  0.2448 -2.5569
   92SAPC   C14 8805   6.586   4.984   6.941 -0.2730 -0.3846  0.3128
   92SAPC  H14A 8806   6.497   5.015   6.889 -1.3869 -1.6249  1.4139
   92SAPC  H14B 8807   6.571   4.996   7.047 -1.9073  0.8706 -0.0276
   92SAPC  H14C 8808   6.671   5.036   6.899 -1.2488 -0.0199 -1.3158
   92SAPC   C15 8809   6.564   4.817   6.762  0.5462  0.0405 -0.5290
   92SAPC  H15A 8810   6.540   4.712   6.749  0.6903  0.2510 -2.9764
   92SAPC  H15B 8811   6.476   4.873   6.735  0.4195  0.8481  1.4460
   92SAPC  H15C 8812   6.649   4.850   6.704  0.2497 -0.5753 -1.3363
   92SAPC   C11 8813   6.726   4.614   6.943  0.2770  0.0046  0.9447
   92SAPC  H11A 8814   6.639   4.573   6.998  0.9262 -1.7066  0.7440
   92SAPC  H11B 8815   6.824   4.589   6.987  1.1141  2.0460  0.3504
   92SAPC     P 8816   6.648   4.432   6.761 -0.0574 -0.8112  0.3109
   92SAPC   O13 8817   6.675   4.405   6.614 -0.0029 -0.6111 -0.8316
   92SAPC   O14 8818   6.674   4.328   6.861 -0.5394 -0.5339  0.5833
   92SAPC   O12 8819   6.714   4.574   6.804  0.2193 -0.5632  0.1251
   92SAPC   O11 8820   6.494   4.464   6.776 -0.4881  0.7444 -0.3211
   92SAPC    C1 8821   6.418   4.525   6.671  0.8916  0.0913 -0.4568
   92SAPC    HA 8822   6.363   4.614   6.709 -1.8828 -2.2090  1.4369
   92SAPC    HB 8823   6.480   4.560   6.586 -1.3513  1.3646 -1.6874
   92SAPC    C2 8824   6.308   4.430   6.612 -1.1209 -0.2230 -0.1682
   92SAPC    HS 8825   6.258   4.379   6.698 -0.9034  1.9568  1.3226
   92SAPC   O21 8826   6.383   4.345   6.527 -0.7165 -0.1876 -0.1783
   92SAPC   C21 8827   6.319   4.236   6.490 -0.8838 -0.0464 -0.3276
   92SAPC   O22 8828   6.228   4.185   6.556  0.4345 -0.1153  0.1723
   92SAPC   C22 8829   6.386   4.166   6.371 -0.1135 -0.2484  0.6854
   92SAPC   H2R 8830   6.414   4.246   6.299 -0.6908 -0.4900  0.1850
   92SAPC   H2S 8831   6.472   4.098   6.389 -0.0296 -0.9220 -1.8739
   92SAPC    C3 8832   6.204   4.500   6.530 -0.0400  0.0331  0.5265
   92SAPC    HX 8833   6.147   4.563   6.602 -0.4599 -0.7627  0.9035
   92SAPC    HY 8834   6.133   4.425   6.490 -1.0089  2.4682 -2.7796
   92SAPC   O31 8835   6.270   4.586   6.429  0.1925 -0.0452 -0.4234
   92SAPC   C31 8836   6.282   4.528   6.303 -0.2779  0.3509  0.6344
   92SAPC   O32 8837   6.241   4.415   6.281 -0.6838 -0.0984 -0.2495
   92SAPC   C32 8838   6.335   4.625   6.198  0.2078 -0.5794  0.3959
   92SAPC   H2X 8839   6.427   4.582   6.152  0.8937  0.2645  0.9269
   92SAPC   H2Y 8840   6.378   4.712   6.252  1.1538 -0.2893 -0.7829
   92SAPC   C23 8841   6.274   4.081   6.301  0.3995 -0.1231 -0.3617
   92SAPC   H3R 8842   6.190   4.142   6.263 -0.9928 -0.6999  1.6147
   92SAPC   H3S 8843   6.229   4.013   6.376 -0.8992 -1.0150 -1.9175
   92SAPC   C24 8844   6.331   3.989   6.193 -0.0928  0.7880 -0.2066
   92SAPC   H4R 8845   6.250   3.920   6.162 -2.4028  2.9968  0.5912
   92SAPC   H4S 8846   6.405   3.914   6.230  0.6104  1.8704  0.6168
   92SAPC   C25 8847   6.415   4.058   6.084  0.1461 -0.4582 -0.5297
   92SAPC   H5R 8848   6.508   4.102   6.123  1.0822 -0.6979 -2.3647
   92SAPC   C26 8849   6.369   4.086   5.966  0.0453  0.0478  0.7120
   92SAPC   H6R 8850   6.426   4.146   5.893  0.8412 -0.8428  0.5772
   92SAPC   C27 8851   6.237   4.038   5.914  0.4691  0.6071 -0.4835
   92SAPC   H7R 8852   6.184   3.992   5.999  0.9284 -1.6291 -1.3276
   92SAPC   H7S 8853   6.266   3.950   5.852  0.8068  0.1136  0.3646
   92SAPC   C28 8854   6.159   4.147   5.848 -0.0730  0.7919 -0.9582
   92SAPC   H8R 8855   6.081   4.199   5.906  0.4249  1.7887 -1.1626
   92SAPC   C29 8856   6.174   4.193   5.720  0.2317 -0.1361 -0.6546
   92SAPC   H9R 8857   6.105   4.267   5.676 -1.1757 -1.1118 -0.1442
   92SAPC  C210 8858   6.267   4.135   5.617 -0.2717  0.0051  0.1490
   92SAPC  H10R 8859   6.216   4.077   5.537  0.8482 -0.8982  0.0538
   92SAPC  H10S 8860   6.327   4.058   5.670 -1.9877 -0.0417  2.1428
   92SAPC  C211 8861   6.360   4.242   5.562 -0.2933 -0.4769  0.3813
   92SAPC  H11R 8862   6.402   4.317   5.630 -0.5043 -1.4541  1.6380
   92SAPC  C212 8863   6.403   4.245   5.432  0.4452  0.1914 -0.5831
   92SAPC  H12R 8864   6.473   4.321   5.392  0.8104 -1.2819 -2.9353
   92SAPC  C213 8865   6.355   4.156   5.318  0.1422 -0.1445 -0.6154
   92SAPC  H13R 8866   6.328   4.056   5.358  1.1408  0.1025  0.7386
   92SAPC  H13S 8867   6.439   4.134   5.249 -0.3412  2.3326 -2.1096
   92SAPC  C214 8868   6.240   4.211   5.236  0.1798  0.2366 -0.0413
   92SAPC  H14R 8869   6.184   4.291   5.286 -0.7703 -1.0302  1.0031
   92SAPC  C215 8870   6.208   4.167   5.109  0.2235  0.1132 -0.6106
   92SAPC  H15R 8871   6.123   4.213   5.056 -0.7034  1.0717  1.6092
   92SAPC  C216 8872   6.286   4.057   5.039  0.3500 -0.1496  0.4558
   92SAPC  H16R 8873   6.255   3.951   5.053 -0.5332 -0.0854 -0.8081
   92SAPC  H16S 8874   6.393   4.061   5.068  0.2862 -0.3894  0.7297
   92SAPC  C217 8875   6.286   4.081   4.883 -0.7575  0.2152 -0.0226
   92SAPC  H17R 8876   6.371   4.020   4.845 -1.7234 -0.3714 -1.3245
   92SAPC  H17S 8877   6.317   4.185   4.862  1.5520 -0.7667 -2.0228
   92SAPC  C218 8878   6.156   4.031   4.835  0.3392 -0.9566  0.6901
   92SAPC  H18R 8879   6.094   4.123   4.829 -0.8201 -1.8083 -0.8986
   92SAPC  H18S 8880   6.108   3.959   4.904 -1.0618  0.0537  0.8000
   92SAPC  C219 8881   6.178   3.982   4.691 -0.5047  0.6232 -0.1452
   92SAPC  H19R 8882   6.216   3.878   4.687  0.9231  1.1594 -1.6553
   92SAPC  H19S 8883   6.243   4.054   4.636  1.0595 -1.1222 -0.7011
   92SAPC  C220 8884   6.056   3.964   4.597 -0.2367  0.5723  0.5654
   92SAPC  H20R 8885   5.996   3.879   4.638  1.8741 -2.7439 -2.5686
   92SAPC  H20S 8886   6.090   3.936   4.495  1.0917  1.3341  0.7737
   92SAPC  H20T 8887   6.012   4.064   4.579  1.4223  1.0722 -1.0122
   92SAPC   C33 8888   6.242   4.653   6.080 -0.6637  0.2945  0.0074
   92SAPC   H3X 8889   6.275   4.745   6.027  1.4955  0.5439  1.6341
   92SAPC   H3Y 8890   6.136   4.670   6.108 -0.4542  4.5383 -1.0383
   92SAPC   C34 8891   6.251   4.545   5.974  0.0611  0.0900  0.8902
   92SAPC   H4X 8892   6.153   4.537   5.922  0.0984  1.3071  0.6138
   92SAPC   H4Y 8893   6.269   4.448   6.026 -0.5190 -1.1755 -1.1408
   92SAPC   C35 8894   6.369   4.552   5.870  0.3106 -0.5510  0.5465
   92SAPC   H5X 8895   6.396   4.451   5.833 -1.3424 -1.3359  1.3632
   92SAPC   H5Y 8896   6.463   4.577   5.925  0.6059  1.5583 -0.8212
   92SAPC   C36 8897   6.343   4.642   5.750 -0.8612 -0.0990  0.1887
   92SAPC   H6X 8898   6.281   4.727   5.784 -0.6351  0.6325 -1.1789
   92SAPC   H6Y 8899   6.274   4.584   5.684 -0.1114 -2.9966  1.7573
   92SAPC   C37 8900   6.468   4.694   5.685  0.4636  0.7452  0.1665
   92SAPC   H7X 8901   6.531   4.606   5.659  0.4712  0.5368  0.8520
   92SAPC   H7Y 8902   6.522   4.749   5.766  0.7868  2.4416 -1.1416
   92SAPC   C38 8903   6.428   4.775   5.559 -0.2528  0.5212  0.3240
   92SAPC   H8X 8904   6.519   4.824   5.518 -0.3951  1.5101  1.1659
   92SAPC   H8Y 8905   6.373   4.861   5.600  1.9803  1.3223  1.8079
   92SAPC   C39 8906   6.344   4.695   5.458 -0.2693 -0.0960 -0.6220
   92SAPC   H9X 8907   6.239   4.690   5.492 -0.1069 -0.1770 -0.1377
   92SAPC   H9Y 8908   6.380   4.590   5.454  1.0670  0.3716 -1.7466
   92SAPC  C310 8909   6.363   4.751   5.315 -0.4438 -0.4170  0.0608
   92SAPC  H10X 8910   6.322   4.669   5.253 -0.0632 -0.2561 -0.4129
   92SAPC  H10Y 8911   6.471   4.760   5.290 -0.4270  1.5432  0.6411
   92SAPC  C311 8912   6.321   4.894   5.280  0.0963  0.6513 -0.7508
   92SAPC  H11X 8913   6.381   4.965   5.340 -0.1709  1.1488 -1.0594
   92SAPC  H11Y 8914   6.215   4.916   5.307 -0.2375  1.4342 -2.5058
   92SAPC  C312 8915   6.334   4.928   5.125 -0.3885  0.0698 -0.4748
   92SAPC  H12X 8916   6.243   4.895   5.069 -1.8258  0.1915  1.6754
   92SAPC  H12Y 8917   6.425   4.881   5.081 -0.1634 -3.9094  3.5351
   92SAPC  C313 8918   6.351   5.088   5.109 -0.0466  0.4536 -0.0680
   92SAPC  H13X 8919   6.437   5.121   5.170  0.2971  0.9053 -0.7817
   92SAPC  H13Y 8920   6.259   5.139   5.146  0.6125  0.3854  1.7451
   92SAPC  C314 8921   6.373   5.131   4.964 -0.3108 -0.4650  0.3990
   92SAPC  H14X 8922   6.423   5.047   4.911  0.4937 -0.1241  0.5943
   92SAPC  H14Y 8923   6.436   5.222   4.954 -1.9030  0.4224 -2.7089
   92SAPC  C315 8924   6.241   5.171   4.891 -0.4951  0.8607 -0.5295
   92SAPC  H15X 8925   6.180   5.250   4.940 -2.9665 -0.5436 -1.1615
   92SAPC  H15Y 8926   6.184   5.076   4.897  1.2511 -0.2772 -1.1971
   92SAPC  C316 8927   6.266   5.207   4.742 -0.2622  0.2516  0.2196
   92SAPC  H16X 8928   6.376   5.207   4.731 -0.2535  1.1485  0.2433
   92SAPC  H16Y 8929   6.234   5.312   4.726  0.7711  0.6435  0.6479
   92SAPC  C317 8930   6.198   5.117   4.642 -0.1600  0.8670 -0.1903
   92SAPC  H17X 8931   6.176   5.171   4.547  0.0342  2.6499  0.7302
   92SAPC  H17Y 8932   6.105   5.073   4.682  0.1151  0.1243 -0.3440
   92SAPC  C318 8933   6.290   4.995   4.616 -0.3140 -0.1649  0.0704
   92SAPC  H18X 8934   6.304   4.937   4.710 -2.5048  1.4641  1.4912
   92SAPC  H18Y 8935   6.385   5.029   4.569 -1.8800  1.3728 -2.1963
   92SAPC  H18Z 8936   6.241   4.928   4.542  2.3559  0.1738 -2.1738
   93SAPC     N 8937   3.882   5.517   7.239 -0.3090  0.0317 -0.4038
   93SAPC   C12 8938   3.923   5.654   7.184 -0.3040 -0.5276  0.3710
   93SAPC  H12A 8939   4.029   5.671   7.195 -0.3238  1.3571 -1.5999
   93SAPC  H12B 8940   3.895   5.730   7.256  3.3152  0.5474  0.8367
   93SAPC   C13 8941   3.740   5.514   7.284  0.0809  0.4585  0.1178
   93SAPC  H13A 8942   3.703   5.421   7.324  2.9336 -0.2537  1.3302
   93SAPC  H13B 8943   3.729   5.589   7.361 -1.5598  2.6603 -2.0753
   93SAPC  H13C 8944   3.677   5.549   7.203  0.1156 -1.9355 -1.0330
   93SAPC   C14 8945   3.892   5.416   7.127  0.2156 -0.1233 -0.3939
   93SAPC  H14A 8946   3.994   5.408   7.092  0.3666  1.2567 -0.3318
   93SAPC  H14B 8947   3.847   5.324   7.161  1.1500 -0.6365 -0.5283
   93SAPC  H14C 8948   3.824   5.446   7.048  0.1328  0.7740  0.0010
   93SAPC   C15 8949   3.961   5.477   7.363  0.2411 -0.7319  0.7278
   93SAPC  H15A 8950   3.947   5.548   7.443 -0.1595 -0.7804  0.7014
   93SAPC  H15B 8951   3.937   5.376   7.392  1.1784 -0.3889  2.8655
   93SAPC  H15C 8952   4.067   5.467   7.345 -0.2967 -2.2234 -2.2503
   93SAPC   C11 8953   3.867   5.703   7.048  0.5141  0.2335  0.0963
   93SAPC  H11A 8954   3.907   5.636   6.969 -1.3056 -1.4057  0.4743
   93SAPC  H11B 8955   3.905   5.807   7.034  3.1475 -0.5006  1.3243
   93SAPC     P 8956   3.629   5.819   7.068 -0.6024 -0.3341 -0.1210
   93SAPC   O13 8957   3.488   5.776   7.079  0.1060  0.2939 -0.0273
   93SAPC   O14 8958   3.675   5.903   7.180 -0.4731 -0.1335 -0.2732
   93SAPC   O12 8959   3.725   5.690   7.051 -0.1096  0.4275  0.2444
   93SAPC   O11 8960   3.644   5.905   6.933  0.1919  0.2936  0.2315
   93SAPC    C1 8961   3.642   5.844   6.805  0.0002  0.5293 -0.5935
   93SAPC    HA 8962   3.612   5.738   6.799  1.0844  0.2537 -1.3163
   93SAPC    HB 8963   3.579   5.913   6.746  0.3584  0.6623 -0.8229
   93SAPC    C2 8964   3.781   5.863   6.744 -0.0234 -0.3537  0.0890
   93SAPC    HS 8965   3.842   5.790   6.801 -1.3028 -1.1126  0.5354
   93SAPC   O21 8966   3.826   5.998   6.751  0.5266  1.0474 -0.0040
   93SAPC   C21 8967   3.953   6.021   6.769 -0.4258 -0.2371 -0.2873
   93SAPC   O22 8968   4.046   5.943   6.795 -0.0180  0.1556 -0.2834
   93SAPC   C22 8969   3.972   6.173   6.740  0.2109  1.0515 -0.5430
   93SAPC   H2R 8970   3.875   6.224   6.757  0.0654 -0.1456  3.0068
   93SAPC   H2S 8971   4.026   6.222   6.823 -0.3082  0.3402  0.2233
   93SAPC    C3 8972   3.782   5.820   6.591 -0.1486 -0.6794 -0.1717
   93SAPC    HX 8973   3.729   5.904   6.541 -0.9072 -1.1188 -0.1289
   93SAPC    HY 8974   3.715   5.732   6.583 -0.5650 -0.2420 -2.2512
   93SAPC   O31 8975   3.916   5.794   6.544 -0.0637 -0.3082 -0.5026
   93SAPC   C31 8976   3.956   5.670   6.549  0.2200 -0.0962  0.1409
   93SAPC   O32 8977   3.903   5.577   6.607 -0.1598 -0.7315  0.2939
   93SAPC   C32 8978   4.090   5.659   6.459  0.0572  0.1693 -0.6001
   93SAPC   H2X 8979   4.177   5.658   6.529  1.4522  1.0535 -2.2471
   93SAPC   H2Y 8980   4.090   5.747   6.391 -1.2008  0.5406 -0.1480
   93SAPC   C23 8981   4.032   6.191   6.603 -0.0687 -0.3467 -0.4705
   93SAPC   H3R 8982   3.994   6.292   6.577  1.0734  0.1672 -0.1808
   93SAPC   H3S 8983   3.984   6.118   6.534 -2.3477 -0.6828  1.3357
   93SAPC   C24 8984   4.185   6.195   6.599  0.2915  0.4263  0.1765
   93SAPC   H4R 8985   4.233   6.098   6.624 -2.0139 -0.7081  0.5431
   93SAPC   H4S 8986   4.211   6.270   6.677 -0.0937 -0.4503  1.1690
   93SAPC   C25 8987   4.236   6.236   6.461 -0.6554 -0.1620 -0.3007
   93SAPC   H5R 8988   4.260   6.343   6.465 -1.4628  0.0027  0.6289
   93SAPC   C26 8989   4.245   6.169   6.343  0.1948  0.2143  0.4502
   93SAPC   H6R 8990   4.306   6.209   6.261  0.2558 -1.9594 -0.6470
   93SAPC   C27 8991   4.189   6.036   6.301  0.5635 -0.3355  0.3359
   93SAPC   H7R 8992   4.153   5.983   6.392  0.4423  1.5304  1.4068
   93SAPC   H7S 8993   4.271   5.972   6.261  0.1379 -1.5868  1.3984
   93SAPC   C28 8994   4.079   6.041   6.202 -0.3298  0.1234 -0.0215
   93SAPC   H8R 8995   3.979   6.032   6.247 -0.1599 -1.1905  0.1209
   93SAPC   C29 8996   4.088   6.041   6.063  0.0560 -0.0950  0.0137
   93SAPC   H9R 8997   3.996   6.053   6.003 -1.0720 -0.5122  1.6096
   93SAPC  C210 8998   4.214   6.054   5.988 -0.2978  0.0126 -0.2431
   93SAPC  H10R 8999   4.286   5.973   6.009 -1.2694 -0.7572  0.1729
   93SAPC  H10S 9000   4.259   6.153   6.012 -0.3539 -0.1374  0.4991
   93SAPC  C211 9001   4.172   6.052   5.842  0.0671  0.0427 -1.3707
   93SAPC  H11R 9002   4.101   6.123   5.798  0.4129 -0.8300 -3.4569
   93SAPC  C212 9003   4.225   5.957   5.761 -0.6350 -0.6851  0.3469
   93SAPC  H12R 9004   4.191   5.970   5.657 -0.6351  3.9882  0.7217
   93SAPC  C213 9005   4.324   5.848   5.783 -0.4032  0.0414  0.2598
   93SAPC  H13R 9006   4.315   5.756   5.722  0.8547 -0.7706  1.2588
   93SAPC  H13S 9007   4.326   5.811   5.888  1.2787  0.5119  0.4118
   93SAPC  C214 9008   4.464   5.907   5.757  0.6916  0.3757  0.1457
   93SAPC  H14R 9009   4.474   6.009   5.796  0.1971  0.7117 -0.5756
   93SAPC  C215 9010   4.561   5.855   5.684  0.8510 -0.0882  0.8298
   93SAPC  H15R 9011   4.652   5.917   5.676 -0.1092  1.2019 -0.8373
   93SAPC  C216 9012   4.568   5.729   5.601  0.0668 -0.2730 -0.2653
   93SAPC  H16R 9013   4.513   5.649   5.656 -1.2742  2.4679  2.6504
   93SAPC  H16S 9014   4.672   5.691   5.595  0.9622  1.9300  0.5842
   93SAPC  C217 9015   4.515   5.742   5.458  0.4599 -0.2145  0.2942
   93SAPC  H17R 9016   4.599   5.796   5.410  0.4784 -0.2969  0.2326
   93SAPC  H17S 9017   4.421   5.802   5.451  0.7046  0.2318  0.8210
   93SAPC  C218 9018   4.514   5.608   5.380 -0.0469  0.5866 -0.0547
   93SAPC  H18R 9019   4.614   5.559   5.383  0.5927  1.7445 -1.2582
   93SAPC  H18S 9020   4.485   5.620   5.274  0.1258  0.8762 -0.0733
   93SAPC  C219 9021   4.421   5.501   5.442 -0.2224 -0.4235 -0.3809
   93SAPC  H19R 9022   4.466   5.467   5.537 -2.4593  2.1233  1.7615
   93SAPC  H19S 9023   4.400   5.417   5.373 -1.9519 -0.5772  0.2967
   93SAPC  C220 9024   4.283   5.562   5.482 -0.0691 -0.0717 -0.2585
   93SAPC  H20R 9025   4.203   5.486   5.492  1.3233 -1.4916  0.5886
   93SAPC  H20S 9026   4.256   5.634   5.402 -2.2919 -1.1555 -0.5741
   93SAPC  H20T 9027   4.294   5.606   5.583  0.8444 -3.5087  1.2880
   93SAPC   C33 9028   4.092   5.528   6.374  0.1220  0.3584  0.0777
   93SAPC   H3X 9029   3.997   5.526   6.316 -0.5044  1.0655  1.0419
   93SAPC   H3Y 9030   4.088   5.439   6.439  1.6395 -1.9145 -2.7098
   93SAPC   C34 9031   4.214   5.517   6.288  0.6272  0.5151 -0.3282
   93SAPC   H4X 9032   4.219   5.424   6.228  2.7410 -0.5260  1.3117
   93SAPC   H4Y 9033   4.302   5.505   6.355  0.8874 -0.8339 -0.8822
   93SAPC   C35 9034   4.251   5.642   6.199  0.1298  0.5773  0.0441
   93SAPC   H5X 9035   4.344   5.610   6.147 -0.1026 -1.3428  0.7174
   93SAPC   H5Y 9036   4.283   5.728   6.263 -1.6309  0.9178  0.5116
   93SAPC   C36 9037   4.137   5.681   6.113 -0.6411 -0.5073  0.1585
   93SAPC   H6X 9038   4.156   5.779   6.064  1.0396 -1.4204 -1.0926
   93SAPC   H6Y 9039   4.043   5.691   6.171 -0.6262 -1.4858  0.3668
   93SAPC   C37 9040   4.102   5.577   6.007  0.1237  0.5899 -0.3844
   93SAPC   H7X 9041   4.076   5.491   6.072 -0.9146  1.5366  0.5044
   93SAPC   H7Y 9042   4.187   5.547   5.942 -0.1792 -0.2499 -0.4020
   93SAPC   C38 9043   3.985   5.626   5.926 -0.1393 -0.0728 -0.1300
   93SAPC   H8X 9044   4.029   5.700   5.856 -0.1664  0.6944  0.6508
   93SAPC   H8Y 9045   3.907   5.660   5.997 -3.4222 -2.3184 -2.3868
   93SAPC   C39 9046   3.930   5.513   5.840 -0.5690  0.3793  0.2108
   93SAPC   H9X 9047   3.892   5.429   5.902 -0.3634  2.1219  2.8329
   93SAPC   H9Y 9048   4.016   5.477   5.779 -1.2726  0.5731 -0.9240
   93SAPC  C310 9049   3.816   5.553   5.739 -0.3416 -0.2161 -0.4554
   93SAPC  H10X 9050   3.741   5.610   5.798  1.0809  1.4748 -0.1953
   93SAPC  H10Y 9051   3.781   5.461   5.689  0.5530 -1.6519  1.4394
   93SAPC  C311 9052   3.874   5.649   5.631 -0.5216 -0.3493  0.6747
   93SAPC  H11X 9053   3.965   5.608   5.581 -1.1986  1.2263 -2.0252
   93SAPC  H11Y 9054   3.907   5.743   5.681  1.9170 -0.6291 -0.2443
   93SAPC  C312 9055   3.771   5.693   5.521  0.2277  1.2774  0.4673
   93SAPC  H12X 9056   3.681   5.734   5.571 -1.5544 -1.0955 -0.5947
   93SAPC  H12Y 9057   3.740   5.604   5.463 -1.8161  2.6521 -0.6906
   93SAPC  C313 9058   3.827   5.798   5.420 -0.1331  0.1722 -0.4217
   93SAPC  H13X 9059   3.877   5.882   5.473  0.3995 -0.1095 -0.4676
   93SAPC  H13Y 9060   3.746   5.837   5.355 -1.9455  0.0159  1.6461
   93SAPC  C314 9061   3.918   5.728   5.322  0.1188 -0.3510 -0.3083
   93SAPC  H14X 9062   3.882   5.624   5.309 -2.3392  0.1468  1.5614
   93SAPC  H14Y 9063   4.021   5.722   5.361 -0.2769  3.6422  1.9484
   93SAPC  C315 9064   3.916   5.808   5.182 -0.5079  0.1260 -0.0436
   93SAPC  H15X 9065   3.815   5.824   5.140  0.0221 -0.1452 -1.4800
   93SAPC  H15Y 9066   3.961   5.752   5.098 -1.9527 -0.2042 -0.6217
   93SAPC  C316 9067   3.977   5.949   5.207 -0.6470 -0.2041 -0.4145
   93SAPC  H16X 9068   3.921   6.015   5.277 -0.5059 -1.6721  1.1372
   93SAPC  H16Y 9069   3.951   6.001   5.112  0.4517  3.1599  0.9585
   93SAPC  C317 9070   4.134   5.950   5.231  0.5613 -0.1687  0.0441
   93SAPC  H17X 9071   4.170   5.889   5.145 -0.3231 -0.7246  0.0522
   93SAPC  H17Y 9072   4.158   5.892   5.322 -2.3074 -0.3181  0.7972
   93SAPC  C318 9073   4.205   6.083   5.237  0.4426  0.1587 -0.2184
   93SAPC  H18X 9074   4.149   6.156   5.299 -1.3298 -0.2839 -1.1983
   93SAPC  H18Y 9075   4.207   6.121   5.132 -1.3903  0.1618 -0.2941
   93SAPC  H18Z 9076   4.310   6.062   5.267 -0.3963 -2.7570  1.0155
   94SAPC     N 9077   0.627   3.093   6.805 -0.1946  0.5313  0.5536
   94SAPC   C12 9078   0.715   3.214   6.835  0.4363 -0.2421  0.2045
   94SAPC  H12A 9079   0.791   3.222   6.759  1.5616 -1.2438  1.1834
   94SAPC  H12B 9080   0.763   3.201   6.931  1.3384  1.3795  0.0092
   94SAPC   C13 9081   0.517   3.088   6.900  0.1716  0.2820  0.2591
   94SAPC  H13A 9082   0.554   3.079   7.001 -0.6602  1.3942  0.6795
   94SAPC  H13B 9083   0.453   3.175   6.895 -2.3969 -1.5584 -2.4845
   94SAPC  H13C 9084   0.460   2.997   6.890 -0.6376  0.8684 -0.6627
   94SAPC   C14 9085   0.571   3.091   6.662  0.1012 -0.3848 -0.4830
   94SAPC  H14A 9086   0.491   3.020   6.647 -1.2989  1.1155 -0.3362
   94SAPC  H14B 9087   0.547   3.190   6.626  0.8653  0.3048  0.8100
   94SAPC  H14C 9088   0.649   3.054   6.598  0.9688 -1.1955  0.9784
   94SAPC   C15 9089   0.708   2.967   6.824 -0.2137 -0.2368 -0.0541
   94SAPC  H15A 9090   0.646   2.879   6.827  0.4131 -0.6680  0.4938
   94SAPC  H15B 9091   0.792   2.965   6.756 -0.5765  2.5057 -0.7332
   94SAPC  H15C 9092   0.754   2.978   6.921  0.1696  0.3841 -0.2942
   94SAPC   C11 9093   0.646   3.354   6.856  0.2340 -0.1704  0.0742
   94SAPC  H11A 9094   0.710   3.425   6.913 -1.2193 -0.3364  2.0017
   94SAPC  H11B 9095   0.559   3.350   6.925  0.0736 -0.7743 -0.1634
   94SAPC     P 9096   0.700   3.494   6.642 -0.1174 -0.2351 -0.1684
   94SAPC   O13 9097   0.725   3.626   6.705  0.1228  0.2840  0.2485
   94SAPC   O14 9098   0.821   3.410   6.616 -0.2096  0.4468 -0.2913
   94SAPC   O12 9099   0.595   3.404   6.728  0.4731 -0.1946 -0.4326
   94SAPC   O11 9100   0.634   3.531   6.499  0.6534 -0.1319 -0.9145
   94SAPC    C1 9101   0.506   3.596   6.502 -1.2420 -0.1292  0.2908
   94SAPC    HA 9102   0.437   3.519   6.545  2.0411 -1.9057  2.8859
   94SAPC    HB 9103   0.510   3.691   6.559  0.2260  0.0220 -0.0294
   94SAPC    C2 9104   0.460   3.622   6.355  0.3105 -0.2916  0.7997
   94SAPC    HS 9105   0.363   3.676   6.358  0.1227 -0.6206  0.7520
   94SAPC   O21 9106   0.449   3.496   6.282  0.4995  0.4955  0.0503
   94SAPC   C21 9107   0.344   3.430   6.319  0.5344  0.4174 -0.1557
   94SAPC   O22 9108   0.247   3.473   6.382 -0.0311 -0.2895  0.2464
   94SAPC   C22 9109   0.367   3.276   6.316 -0.1771 -0.4910 -0.3026
   94SAPC   H2R 9110   0.440   3.249   6.237 -3.2052 -0.3964 -3.3630
   94SAPC   H2S 9111   0.403   3.254   6.419  0.2776  2.1679  0.2034
   94SAPC    C3 9112   0.552   3.721   6.283  0.1132  0.2856  1.0311
   94SAPC    HX 9113   0.657   3.688   6.299 -0.5920 -1.9529  1.4057
   94SAPC    HY 9114   0.546   3.818   6.337  0.4949  0.0614  1.4904
   94SAPC   O31 9115   0.524   3.734   6.139 -0.5267  0.1081  0.2867
   94SAPC   C31 9116   0.582   3.645   6.063 -0.1694  0.1101  0.6853
   94SAPC   O32 9117   0.658   3.554   6.089  0.2826  0.7634 -0.1203
   94SAPC   C32 9118   0.545   3.662   5.915  0.5368 -0.0845 -0.5067
   94SAPC   H2X 9119   0.610   3.741   5.872  0.7491 -1.3698 -2.6946
   94SAPC   H2Y 9120   0.441   3.698   5.902  0.2906 -1.5060 -3.0039
   94SAPC   C23 9121   0.242   3.199   6.280 -0.2211  0.0864 -0.1323
   94SAPC   H3R 9122   0.164   3.191   6.360 -1.0210 -0.0805 -0.9190
   94SAPC   H3S 9123   0.272   3.094   6.264 -0.7889 -0.5359  2.4072
   94SAPC   C24 9124   0.186   3.246   6.142 -0.2552  0.3204 -0.5125
   94SAPC   H4R 9125   0.139   3.345   6.159  1.0328  0.8894 -0.1301
   94SAPC   H4S 9126   0.097   3.182   6.124  0.2657 -0.0245 -2.0286
   94SAPC   C25 9127   0.280   3.249   6.031 -0.2607  0.0574 -0.2179
   94SAPC   H5R 9128   0.378   3.295   6.049  0.7508 -1.6847 -1.0583
   94SAPC   C26 9129   0.267   3.183   5.920  0.1548 -0.3247 -0.4059
   94SAPC   H6R 9130   0.342   3.194   5.841 -1.4181  0.9218 -1.7896
   94SAPC   C27 9131   0.141   3.112   5.874  0.1587 -0.1592  0.0667
   94SAPC   H7R 9132   0.086   3.056   5.953 -2.0571 -0.3193 -1.4927
   94SAPC   H7S 9133   0.183   3.029   5.813 -0.2848  0.0921 -0.5965
   94SAPC   C28 9134   0.056   3.209   5.792 -0.2937 -0.2619  0.0017
   94SAPC   H8R 9135   0.003   3.288   5.846 -0.3222 -0.9368  0.9985
   94SAPC   C29 9136   0.035   3.203   5.657  0.6184  0.3452 -0.0007
   94SAPC   H9R 9137  -0.032   3.282   5.621 -1.2157 -0.9587  0.3856
   94SAPC  C210 9138   0.090   3.111   5.561  0.7837  0.3484 -0.0849
   94SAPC  H10R 9139   0.172   3.053   5.609  0.5058 -0.3682 -0.4662
   94SAPC  H10S 9140   0.152   3.165   5.486  0.2222 -0.0641 -0.8567
   94SAPC  C211 9141  -0.015   3.013   5.515 -0.8948 -0.0931  0.5084
   94SAPC  H11R 9142  -0.084   2.968   5.587  0.3757 -2.6564  0.2393
   94SAPC  C212 9143  -0.024   2.969   5.381 -0.1693 -0.0832  0.0588
   94SAPC  H12R 9144  -0.098   2.891   5.359  0.0832 -0.4963  0.6379
   94SAPC  C213 9145   0.070   3.021   5.268  0.0731  0.6527  0.1182
   94SAPC  H13R 9146   0.173   2.995   5.302 -0.3729 -1.2971  0.1328
   94SAPC  H13S 9147   0.070   3.132   5.267 -1.5875  0.8302  3.6849
   94SAPC  C214 9148   0.048   2.967   5.127  1.2648 -0.3165  0.1968
   94SAPC  H14R 9149   0.037   2.857   5.127  0.1273 -0.2460  2.0755
   94SAPC  C215 9150   0.007   3.042   5.019  0.0542  0.5573  0.0061
   94SAPC  H15R 9151  -0.005   2.995   4.921 -1.6258 -1.7410  1.2138
   94SAPC  C216 9152  -0.013   3.193   5.021 -0.0211 -0.1617  0.0955
   94SAPC  H16R 9153   0.075   3.250   4.987 -1.1992  0.5022 -2.0061
   94SAPC  H16S 9154  -0.033   3.221   5.127  0.6665  0.3218  0.1045
   94SAPC  C217 9155  -0.134   3.232   4.941  0.5010 -0.5903  0.1546
   94SAPC  H17R 9156  -0.157   3.338   4.964  0.2755 -0.4727 -0.5967
   94SAPC  H17S 9157  -0.217   3.174   4.986  0.8650  0.1420  1.8227
   94SAPC  C218 9158  -0.119   3.219   4.789  0.5867  0.1513  0.3939
   94SAPC  H18R 9159  -0.083   3.118   4.761 -1.4379 -0.1316 -1.4615
   94SAPC  H18S 9160  -0.042   3.288   4.747  0.6087  0.1387  0.4135
   94SAPC  C219 9161  -0.243   3.258   4.720 -0.3346 -0.2365 -0.1000
   94SAPC  H19R 9162  -0.249   3.367   4.738  1.4782 -0.2276  0.6190
   94SAPC  H19S 9163  -0.325   3.198   4.765  0.9836 -0.9449  1.4706
   94SAPC  C220 9164  -0.248   3.219   4.568  0.5859 -0.4160 -0.1529
   94SAPC  H20R 9165  -0.352   3.225   4.530  0.4033  0.1048  0.4125
   94SAPC  H20S 9166  -0.221   3.111   4.567 -1.4278 -1.0375  2.1485
   94SAPC  H20T 9167  -0.169   3.276   4.515  2.1092  0.2274  2.6184
   94SAPC   C33 9168   0.567   3.526   5.838 -0.4975  0.0937 -0.1940
   94SAPC   H3X 9169   0.518   3.438   5.886  0.4534 -0.5257 -0.3245
   94SAPC   H3Y 9170   0.676   3.507   5.830 -0.0623  1.6544  1.4831
   94SAPC   C34 9171   0.511   3.537   5.692  0.2831 -1.1870 -0.0633
   94SAPC   H4X 9172   0.556   3.617   5.629 -2.3405  0.5148  0.0705
   94SAPC   H4Y 9173   0.400   3.548   5.693  0.3758  0.4328  2.6806
   94SAPC   C35 9174   0.522   3.412   5.612 -0.2996  0.0908  0.0770
   94SAPC   H5X 9175   0.480   3.327   5.670  0.9595 -0.1492  0.6752
   94SAPC   H5Y 9176   0.626   3.379   5.590 -0.9930 -1.9761 -0.2457
   94SAPC   C36 9177   0.460   3.416   5.471  0.0854 -0.4856 -0.0286
   94SAPC   H6X 9178   0.463   3.314   5.427  1.4197 -1.0668  1.3330
   94SAPC   H6Y 9179   0.527   3.488   5.418  1.6248 -2.0829 -0.3568
   94SAPC   C37 9180   0.306   3.447   5.470 -0.0296 -0.0728 -0.1592
   94SAPC   H7X 9181   0.292   3.556   5.490  0.3509 -0.3098  1.5510
   94SAPC   H7Y 9182   0.256   3.392   5.552  1.5153  0.1171  0.9669
   94SAPC   C38 9183   0.245   3.419   5.334 -0.4752  0.3194  0.8605
   94SAPC   H8X 9184   0.141   3.454   5.324 -0.1468  1.2824  0.7349
   94SAPC   H8Y 9185   0.237   3.308   5.322 -1.2607  0.3021  1.5050
   94SAPC   C39 9186   0.323   3.477   5.223  0.1750 -0.3902  0.0455
   94SAPC   H9X 9187   0.407   3.406   5.206 -0.6934 -1.7766  1.3285
   94SAPC   H9Y 9188   0.353   3.579   5.254  0.3737 -0.7927  1.1987
   94SAPC  C310 9189   0.241   3.484   5.095  0.2304  0.2780  0.2931
   94SAPC  H10X 9190   0.156   3.555   5.109  1.3246  1.5698  0.6228
   94SAPC  H10Y 9191   0.191   3.388   5.069  1.5504 -0.5548  0.7156
   94SAPC  C311 9192   0.316   3.528   4.965  0.6799 -0.1572  0.1034
   94SAPC  H11X 9193   0.386   3.444   4.945 -1.0341 -1.7419  0.4881
   94SAPC  H11Y 9194   0.363   3.627   4.985 -1.5197  0.8278  0.6706
   94SAPC  C312 9195   0.225   3.555   4.853  0.0075 -0.0075 -0.5325
   94SAPC  H12X 9196   0.164   3.646   4.874 -1.3186 -0.7815 -0.8912
   94SAPC  H12Y 9197   0.141   3.485   4.831  0.3566 -0.0615 -1.7177
   94SAPC  C313 9198   0.309   3.588   4.727 -0.0211 -0.3801 -0.2306
   94SAPC  H13X 9199   0.374   3.501   4.702 -0.2995 -0.5877 -0.2343
   94SAPC  H13Y 9200   0.383   3.668   4.747  1.1250 -1.1723 -1.1468
   94SAPC  C314 9201   0.228   3.629   4.594 -0.0511  0.1764 -0.1423
   94SAPC  H14X 9202   0.212   3.739   4.599 -2.9359 -0.1624 -0.1186
   94SAPC  H14Y 9203   0.123   3.594   4.601 -0.1825  0.5787 -0.0917
   94SAPC  C315 9204   0.289   3.576   4.462 -0.7629 -1.6260  1.3213
   94SAPC  H15X 9205   0.390   3.620   4.456 -1.9814  1.2293 -1.4076
   94SAPC  H15Y 9206   0.233   3.618   4.375 -0.0576 -0.1373  1.5543
   94SAPC  C316 9207   0.303   3.425   4.452 -0.0001 -0.5245  0.8623
   94SAPC  H16X 9208   0.202   3.379   4.447  0.0325 -0.5363  0.1267
   94SAPC  H16Y 9209   0.342   3.383   4.547  1.1058 -0.3160  0.5092
   94SAPC  C317 9210   0.404   3.371   4.350 -0.2989  0.5808 -0.2184
   94SAPC  H17X 9211   0.509   3.406   4.363  0.4359 -2.1981  2.9788
   94SAPC  H17Y 9212   0.370   3.411   4.252 -1.8683  0.5239  0.2778
   94SAPC  C318 9213   0.419   3.219   4.358 -0.4685 -0.7023  0.8151
   94SAPC  H18X 9214   0.477   3.181   4.271  1.3594  0.0426  1.6733
   94SAPC  H18Y 9215   0.319   3.176   4.334 -0.5428  0.7499 -1.8244
   94SAPC  H18Z 9216   0.446   3.179   4.458 -1.4938 -0.6648  1.1251
   95SAPC     N 9217   3.765   6.362   2.357 -0.3896  0.0960  0.0686
   95SAPC   C12 9218   3.792   6.212   2.370  0.2135  0.5768 -0.5100
   95SAPC  H12A 9219   3.849   6.187   2.281  0.3741 -1.2424  0.0630
   95SAPC  H12B 9220   3.701   6.155   2.368  0.9125 -0.8347  2.3298
   95SAPC   C13 9221   3.899   6.429   2.380  0.5584  0.2560 -0.2849
   95SAPC  H13A 9222   3.889   6.535   2.360 -1.4840  0.5454  1.7492
   95SAPC  H13B 9223   3.942   6.413   2.477  2.1282  0.7792 -0.8620
   95SAPC  H13C 9224   3.964   6.394   2.301  0.3831 -1.0146  0.1233
   95SAPC   C14 9225   3.711   6.393   2.218 -0.0605 -0.8505  0.0976
   95SAPC  H14A 9226   3.776   6.354   2.141  0.8262 -0.4441  0.6197
   95SAPC  H14B 9227   3.616   6.341   2.212 -0.6637  0.1640  0.6906
   95SAPC  H14C 9228   3.708   6.500   2.211  0.8336 -0.8164  0.1898
   95SAPC   C15 9229   3.671   6.414   2.469  0.2709  0.0088  0.1979
   95SAPC  H15A 9230   3.711   6.428   2.568  0.4433  2.3144 -0.1370
   95SAPC  H15B 9231   3.638   6.512   2.438  0.9758 -0.2293 -1.4553
   95SAPC  H15C 9232   3.578   6.360   2.473 -0.9651  1.6372 -2.7575
   95SAPC   C11 9233   3.878   6.170   2.497 -0.0513  0.5671 -0.0447
   95SAPC  H11A 9234   3.845   6.067   2.522 -3.0790  0.8638 -2.2067
   95SAPC  H11B 9235   3.844   6.233   2.581 -0.6108  0.1907  0.0163
   95SAPC     P 9236   4.107   6.121   2.372 -0.3056 -0.1145  0.1406
   95SAPC   O13 9237   4.033   6.131   2.245  0.4302  0.1987  0.2046
   95SAPC   O14 9238   4.246   6.181   2.372  0.5492 -0.0850 -0.6228
   95SAPC   O12 9239   4.023   6.190   2.480  0.3064  0.3397  0.2505
   95SAPC   O11 9240   4.116   5.967   2.403  0.1650  0.3043  0.1133
   95SAPC    C1 9241   4.133   5.913   2.535  0.1420  0.5501  0.1985
   95SAPC    HA 9242   4.223   5.849   2.548 -1.7594 -2.2456  0.6607
   95SAPC    HB 9243   4.159   5.988   2.612 -0.1959  1.9643 -1.0211
   95SAPC    C2 9244   4.015   5.821   2.573  0.2899  0.1419  0.0259
   95SAPC    HS 9245   3.945   5.834   2.488  2.1013  0.7958 -1.4316
   95SAPC   O21 9246   3.975   5.866   2.699  0.7164 -0.0172  0.0037
   95SAPC   C21 9247   3.843   5.887   2.714 -0.5915 -0.2330  0.1623
   95SAPC   O22 9248   3.759   5.858   2.625  0.1047  0.1813 -0.1023
   95SAPC   C22 9249   3.821   5.948   2.855  0.0867 -0.3381 -0.4607
   95SAPC   H2R 9250   3.771   5.874   2.921 -1.3908  0.1552 -1.0010
   95SAPC   H2S 9251   3.925   5.977   2.885 -0.6913  1.1857  0.9466
   95SAPC    C3 9252   4.033   5.668   2.577  0.1945 -0.4907  0.4826
   95SAPC    HX 9253   4.069   5.631   2.479 -1.8252 -2.3149  0.3543
   95SAPC    HY 9254   3.930   5.630   2.587 -0.9976  2.2463 -0.5760
   95SAPC   O31 9255   4.125   5.627   2.677 -0.2914 -0.3119 -0.4901
   95SAPC   C31 9256   4.117   5.503   2.713 -0.6066  0.6811  0.6917
   95SAPC   O32 9257   4.056   5.416   2.650 -0.0788 -0.1168 -0.0378
   95SAPC   C32 9258   4.225   5.469   2.819  0.0869 -0.4360 -0.1038
   95SAPC   H2X 9259   4.291   5.557   2.833 -1.1465  0.4342  0.4974
   95SAPC   H2Y 9260   4.290   5.387   2.781  0.8234 -0.3050  0.8575
   95SAPC   C23 9261   3.726   6.067   2.871 -0.8096  0.3425 -0.2357
   95SAPC   H3R 9262   3.619   6.042   2.853 -0.6066 -0.3290 -0.5502
   95SAPC   H3S 9263   3.757   6.142   2.795 -1.3456  1.0572  0.2378
   95SAPC   C24 9264   3.728   6.143   3.003 -0.5938  0.4715  0.3441
   95SAPC   H4R 9265   3.677   6.084   3.082  0.7125  1.6305  2.1229
   95SAPC   H4S 9266   3.662   6.231   2.986  2.4604  2.4278 -2.5359
   95SAPC   C25 9267   3.871   6.185   3.047  0.4996 -0.4672 -0.3518
   95SAPC   H5R 9268   3.902   6.282   3.006  1.2432  0.5239  2.3147
   95SAPC   C26 9269   3.949   6.112   3.129  0.6291  0.1040  0.3154
   95SAPC   H6R 9270   4.047   6.155   3.153  0.8965  0.0854 -0.6732
   95SAPC   C27 9271   3.921   5.983   3.193 -0.2690  0.0477 -0.8496
   95SAPC   H7R 9272   3.829   5.951   3.138 -1.8627  2.3348  0.2827
   95SAPC   H7S 9273   3.894   5.991   3.300  0.0970 -0.5520 -0.7101
   95SAPC   C28 9274   4.042   5.897   3.172  0.5574  0.1548 -0.0909
   95SAPC   H8R 9275   4.022   5.829   3.088  2.3096 -0.2801 -0.1837
   95SAPC   C29 9276   4.154   5.906   3.246 -0.1542 -0.9969  1.0861
   95SAPC   H9R 9277   4.234   5.834   3.225  1.0811  0.4267  0.7546
   95SAPC  C210 9278   4.182   6.006   3.351  0.1671  0.3981  0.0256
   95SAPC  H10R 9279   4.107   6.088   3.356 -0.5905 -0.1225 -1.9495
   95SAPC  H10S 9280   4.276   6.057   3.323  1.2925 -2.0096 -0.8714
   95SAPC  C211 9281   4.192   5.931   3.479 -0.9992 -0.0310 -0.4034
   95SAPC  H11R 9282   4.212   5.823   3.470 -1.6314 -0.0793 -1.3028
   95SAPC  C212 9283   4.176   5.982   3.601 -0.4222 -0.2996  0.1224
   95SAPC  H12R 9284   4.187   5.919   3.691  1.3616 -0.2295 -0.0163
   95SAPC  C213 9285   4.143   6.122   3.641 -0.1831 -0.8376 -0.8567
   95SAPC  H13R 9286   4.143   6.199   3.561  1.6904 -0.7103 -0.7702
   95SAPC  H13S 9287   4.233   6.165   3.690 -2.1902  0.9026  1.5823
   95SAPC  C214 9288   4.025   6.144   3.744 -0.2536 -0.0457  0.5297
   95SAPC  H14R 9289   3.939   6.081   3.720  1.7864 -2.0780 -2.0645
   95SAPC  C215 9290   4.040   6.214   3.855  0.1912  0.1840 -0.3610
   95SAPC  H15R 9291   3.957   6.217   3.927 -0.5200 -1.4978 -1.0725
   95SAPC  C216 9292   4.158   6.300   3.902 -0.8234  0.2751  0.3792
   95SAPC  H16R 9293   4.156   6.395   3.846 -2.5435 -0.0405 -0.1696
   95SAPC  H16S 9294   4.260   6.262   3.882  0.0056  1.5900  1.9347
   95SAPC  C217 9295   4.153   6.342   4.047 -0.1499  0.2830  0.4110
   95SAPC  H17R 9296   4.175   6.247   4.100  1.2263 -1.0050 -2.2462
   95SAPC  H17S 9297   4.045   6.364   4.063 -1.4054 -3.6194 -1.3879
   95SAPC  C218 9298   4.245   6.455   4.101  0.3676  0.9290  0.5373
   95SAPC  H18R 9299   4.225   6.546   4.039 -1.3101  0.2049 -0.0374
   95SAPC  H18S 9300   4.351   6.440   4.071 -0.5674  1.0232 -3.4397
   95SAPC  C219 9301   4.218   6.490   4.249  0.2947  0.2206  0.3234
   95SAPC  H19R 9302   4.313   6.532   4.288  0.7423  0.0804 -0.5712
   95SAPC  H19S 9303   4.208   6.393   4.303 -1.9269  0.9274  1.2796
   95SAPC  C220 9304   4.098   6.581   4.265  0.1759 -0.1240 -0.3518
   95SAPC  H20R 9305   4.008   6.525   4.231 -0.3744  0.0445  0.7819
   95SAPC  H20S 9306   4.103   6.680   4.215  1.9180 -0.8210 -1.6695
   95SAPC  H20T 9307   4.080   6.610   4.371 -0.3397  1.6200 -0.8817
   95SAPC   C33 9308   4.148   5.435   2.945 -0.1801  0.2548  0.1309
   95SAPC   H3X 9309   4.206   5.365   3.009  0.4214  0.0674 -0.6023
   95SAPC   H3Y 9310   4.049   5.386   2.928  0.7168 -0.6962 -2.9521
   95SAPC   C34 9311   4.118   5.561   3.022  0.0834  0.2629 -0.1192
   95SAPC   H4X 9312   4.052   5.625   2.961 -0.2031 -0.1884 -0.2872
   95SAPC   H4Y 9313   4.216   5.608   3.043  0.6092 -1.3460  1.2248
   95SAPC   C35 9314   4.067   5.534   3.161 -0.6312  0.4125 -1.0275
   95SAPC   H5X 9315   4.016   5.435   3.162 -0.0341  0.0983 -0.6739
   95SAPC   H5Y 9316   3.994   5.612   3.190  1.0700  0.9686  2.2698
   95SAPC   C36 9317   4.184   5.530   3.265  0.1119 -0.1226  0.1035
   95SAPC   H6X 9318   4.224   5.633   3.268 -1.7919  0.7845 -2.6939
   95SAPC   H6Y 9319   4.267   5.462   3.236  0.9757 -0.0603  2.1909
   95SAPC   C37 9320   4.130   5.478   3.395  0.5795  0.0510 -0.0440
   95SAPC   H7X 9321   4.121   5.368   3.396 -2.7341  0.1805  2.5788
   95SAPC   H7Y 9322   4.032   5.524   3.423  1.6920  3.1857 -0.8539
   95SAPC   C38 9323   4.219   5.509   3.515  0.1399 -0.8942 -0.2640
   95SAPC   H8X 9324   4.230   5.619   3.514 -1.4497 -0.7071 -2.0874
   95SAPC   H8Y 9325   4.319   5.461   3.521  0.8963  0.6085 -0.5536
   95SAPC   C39 9326   4.149   5.480   3.654 -0.1744  0.6447  0.4790
   95SAPC   H9X 9327   4.106   5.378   3.646  1.2971  0.1121 -1.6476
   95SAPC   H9Y 9328   4.057   5.541   3.667 -1.2128 -0.8058  0.1598
   95SAPC  C310 9329   4.239   5.516   3.776  0.7420  0.0670  0.7021
   95SAPC  H10X 9330   4.255   5.626   3.783 -1.3615  0.3922  1.0754
   95SAPC  H10Y 9331   4.332   5.458   3.759 -0.7822 -2.4116  0.3324
   95SAPC  C311 9332   4.170   5.486   3.913  0.0957 -0.3115 -0.3762
   95SAPC  H11X 9333   4.159   5.376   3.909  1.6112 -0.6331  2.1297
   95SAPC  H11Y 9334   4.066   5.527   3.914  0.2266  0.1504 -2.2410
   95SAPC  C312 9335   4.242   5.532   4.035 -0.3333  0.8812 -0.1738
   95SAPC  H12X 9336   4.244   5.642   4.052 -2.6764  0.4939  3.4364
   95SAPC  H12Y 9337   4.347   5.495   4.025 -0.0080  1.9960 -1.1960
   95SAPC  C313 9338   4.184   5.471   4.165  0.2598 -0.0044 -0.1408
   95SAPC  H13X 9339   4.182   5.361   4.175 -0.3499  0.1313  1.6899
   95SAPC  H13Y 9340   4.079   5.503   4.184 -0.0936  0.3121 -2.3973
   95SAPC  C314 9341   4.273   5.519   4.280 -0.4185 -0.0259  0.1990
   95SAPC  H14X 9342   4.288   5.628   4.267  0.5733  0.0570  1.7670
   95SAPC  H14Y 9343   4.372   5.468   4.272 -1.3492 -1.6238 -2.5976
   95SAPC  C315 9344   4.218   5.479   4.415 -0.5660  0.1011  0.2509
   95SAPC  H15X 9345   4.112   5.508   4.425 -0.6058 -0.6328  2.4550
   95SAPC  H15Y 9346   4.271   5.546   4.486 -0.2071 -1.1997  1.2507
   95SAPC  C316 9347   4.248   5.329   4.452  0.2334  0.2997 -0.2399
   95SAPC  H16X 9348   4.359   5.324   4.454  0.2039 -0.1293  1.0949
   95SAPC  H16Y 9349   4.206   5.262   4.374 -1.2407  0.6496  0.2104
   95SAPC  C317 9350   4.192   5.285   4.587  0.8905 -0.4137 -1.2466
   95SAPC  H17X 9351   4.088   5.253   4.562  0.4977 -1.1620  1.1348
   95SAPC  H17Y 9352   4.188   5.369   4.660  1.4474  0.3410 -2.0610
   95SAPC  C318 9353   4.261   5.153   4.641 -0.2319 -0.6991 -0.9234
   95SAPC  H18X 9354   4.243   5.137   4.749 -1.8846 -0.8337 -1.1910
   95SAPC  H18Y 9355   4.370   5.171   4.629 -0.2196  0.0695  0.2003
   95SAPC  H18Z 9356   4.237   5.064   4.579 -0.3543 -0.4889 -1.1820
   96SAPC     N 9357   4.700   1.656   2.344  0.3839 -0.4073  0.2601
   96SAPC   C12 9358   4.595   1.544   2.331 -0.0418 -0.1749 -0.3654
   96SAPC  H12A 9359   4.579   1.507   2.232 -2.0477  0.7905 -0.4498
   96SAPC  H12B 9360   4.499   1.584   2.358  0.1758 -0.5214  1.0080
   96SAPC   C13 9361   4.650   1.759   2.247  0.4322 -0.9382  0.4594
   96SAPC  H13A 9362   4.722   1.840   2.242 -0.8976  0.2151 -0.7865
   96SAPC  H13B 9363   4.637   1.710   2.153 -3.4717 -1.7130  1.2336
   96SAPC  H13C 9364   4.556   1.807   2.271  0.5681  0.2538 -1.2328
   96SAPC   C14 9365   4.688   1.704   2.477 -0.0489  0.0152 -0.4699
   96SAPC  H14A 9366   4.778   1.760   2.493  0.7418  0.0316 -4.1115
   96SAPC  H14B 9367   4.597   1.760   2.494 -0.0602 -0.2928  0.5094
   96SAPC  H14C 9368   4.697   1.625   2.550  1.0984 -0.8553 -1.5100
   96SAPC   C15 9369   4.834   1.607   2.315 -0.5300 -0.9752  1.4151
   96SAPC  H15A 9370   4.914   1.678   2.324 -1.6296  0.4556  0.3918
   96SAPC  H15B 9371   4.857   1.515   2.367 -0.4259 -1.4306  0.5891
   96SAPC  H15C 9372   4.850   1.569   2.215  1.8339 -0.0478  1.3821
   96SAPC   C11 9373   4.611   1.421   2.421 -0.0852  0.2705 -0.6310
   96SAPC  H11A 9374   4.518   1.361   2.419  1.1063 -1.6534 -0.2712
   96SAPC  H11B 9375   4.620   1.458   2.526 -0.4779  0.5475 -0.6904
   96SAPC     P 9376   4.771   1.213   2.464 -0.0132  0.1839  0.3006
   96SAPC   O13 9377   4.770   1.089   2.375  0.0072 -0.3790 -0.1865
   96SAPC   O14 9378   4.897   1.244   2.539 -0.1140  0.1262  0.1855
   96SAPC   O12 9379   4.721   1.339   2.384  0.0559  0.6850 -0.3863
   96SAPC   O11 9380   4.651   1.209   2.565 -0.0849  0.1625  0.8063
   96SAPC    C1 9381   4.670   1.218   2.705 -0.7492  0.8753 -0.4187
   96SAPC    HA 9382   4.716   1.317   2.727  0.6738  0.7986 -2.7135
   96SAPC    HB 9383   4.571   1.223   2.755 -1.3574 -0.8819 -1.3282
   96SAPC    C2 9384   4.741   1.094   2.762  0.3192  0.0554 -0.4588
   96SAPC    HS 9385   4.850   1.110   2.745  0.2338 -1.4688 -2.9022
   96SAPC   O21 9386   4.688   0.979   2.689 -0.1683  0.6360 -0.2210
   96SAPC   C21 9387   4.785   0.886   2.673 -0.2445  0.2109  0.9529
   96SAPC   O22 9388   4.904   0.905   2.700  0.0286 -0.1164  0.1551
   96SAPC   C22 9389   4.728   0.756   2.623 -0.1765 -0.0641  0.4652
   96SAPC   H2R 9390   4.718   0.774   2.514  0.4725  0.8798  0.5497
   96SAPC   H2S 9391   4.804   0.676   2.639 -0.6539 -1.2367 -2.4357
   96SAPC    C3 9392   4.718   1.080   2.920  0.2049 -0.6050  0.5451
   96SAPC    HX 9393   4.607   1.072   2.922  0.0849  0.8787  0.4645
   96SAPC    HY 9394   4.760   1.166   2.976  1.0810 -1.8194  1.8337
   96SAPC   O31 9395   4.770   0.959   2.962  0.5957  0.5745  0.1492
   96SAPC   C31 9396   4.799   0.954   3.093 -0.2217 -1.0027  0.3389
   96SAPC   O32 9397   4.792   1.048   3.167 -0.1326 -0.3395  0.5286
   96SAPC   C32 9398   4.865   0.819   3.121 -0.3258  0.4578 -0.2520
   96SAPC   H2X 9399   4.883   0.761   3.029 -0.3265  0.5809 -0.3298
   96SAPC   H2Y 9400   4.777   0.769   3.168 -0.6471  0.2961 -1.0053
   96SAPC   C23 9401   4.595   0.714   2.688 -0.1092  0.0327  0.4425
   96SAPC   H3R 9402   4.539   0.647   2.620 -2.2014  1.7576  0.3437
   96SAPC   H3S 9403   4.527   0.801   2.703 -0.7186 -0.5248  0.9184
   96SAPC   C24 9404   4.619   0.651   2.826  0.0704 -0.6858 -0.0449
   96SAPC   H4R 9405   4.520   0.648   2.876  0.7059  0.4726  1.3605
   96SAPC   H4S 9406   4.687   0.715   2.886  0.6078 -1.0411 -0.2692
   96SAPC   C25 9407   4.665   0.507   2.819 -0.3577  0.7301 -0.1323
   96SAPC   H5R 9408   4.665   0.464   2.718  1.0032 -1.1692  0.6317
   96SAPC   C26 9409   4.726   0.432   2.918  0.1812  0.2245  0.0288
   96SAPC   H6R 9410   4.768   0.336   2.886 -0.7628  0.0658 -0.7926
   96SAPC   C27 9411   4.748   0.479   3.058 -0.7469 -0.2532  1.0847
   96SAPC   H7R 9412   4.665   0.548   3.084 -1.4447 -0.6870  0.0873
   96SAPC   H7S 9413   4.844   0.534   3.061 -0.9028  0.0151  1.1138
   96SAPC   C28 9414   4.745   0.367   3.159 -0.3492 -0.0605 -0.8345
   96SAPC   H8R 9415   4.773   0.268   3.120  0.9629  0.4704 -1.3344
   96SAPC   C29 9416   4.719   0.377   3.290  0.1498 -0.0394 -0.4367
   96SAPC   H9R 9417   4.718   0.284   3.348 -0.9338  0.3425  0.1784
   96SAPC  C210 9418   4.672   0.494   3.375 -0.7781 -0.3248  0.3977
   96SAPC  H10R 9419   4.744   0.578   3.363 -1.2156  0.2831  1.9295
   96SAPC  H10S 9420   4.680   0.467   3.482  1.4788 -0.5464  0.2223
   96SAPC  C211 9421   4.534   0.544   3.341  0.8888  0.3074 -0.1536
   96SAPC  H11R 9422   4.466   0.464   3.307  1.9095 -1.3343  1.4613
   96SAPC  C212 9423   4.485   0.668   3.368 -0.1889 -0.0603 -0.7477
   96SAPC  H12R 9424   4.385   0.694   3.329 -0.1845  0.1859 -0.5966
   96SAPC  C213 9425   4.569   0.772   3.438  0.8433  0.1533  0.1698
   96SAPC  H13R 9426   4.644   0.807   3.364  1.5255 -1.7999 -0.1101
   96SAPC  H13S 9427   4.633   0.734   3.521 -0.1069  1.8880  1.7854
   96SAPC  C214 9428   4.482   0.892   3.494 -0.2622 -0.7517 -0.3475
   96SAPC  H14R 9429   4.454   0.897   3.600  0.7673  1.4898 -0.1327
   96SAPC  C215 9430   4.446   0.998   3.422 -1.0453 -0.2613  0.0699
   96SAPC  H15R 9431   4.393   1.084   3.466  2.6451  1.5135  1.4774
   96SAPC  C216 9432   4.472   1.024   3.279 -0.0542  0.7547  0.4956
   96SAPC  H16R 9433   4.567   0.978   3.245 -1.3213 -0.8228 -1.0953
   96SAPC  H16S 9434   4.490   1.133   3.262  0.6482  0.4357 -0.9631
   96SAPC  C217 9435   4.360   0.972   3.195  0.3599  0.2449  0.2328
   96SAPC  H17R 9436   4.272   1.038   3.209 -0.5248 -0.8617  0.0363
   96SAPC  H17S 9437   4.332   0.865   3.206  0.5252  0.0362 -1.2559
   96SAPC  C218 9438   4.383   0.979   3.041  0.2922  0.2270 -0.2890
   96SAPC  H18R 9439   4.470   0.915   3.016  0.8652 -0.5332  3.1944
   96SAPC  H18S 9440   4.415   1.085   3.027 -0.4542  0.7542  1.5948
   96SAPC  C219 9441   4.261   0.947   2.948  0.1804 -0.3040 -0.0698
   96SAPC  H19R 9442   4.181   1.018   2.979  1.0145  0.3263  0.7104
   96SAPC  H19S 9443   4.225   0.844   2.967 -1.4195  0.2901  0.2769
   96SAPC  C220 9444   4.291   0.973   2.796 -0.4788  0.5654 -0.2408
   96SAPC  H20R 9445   4.195   0.955   2.744 -0.1562  0.9816 -0.9911
   96SAPC  H20S 9446   4.371   0.911   2.752  1.1446  2.5486 -0.2380
   96SAPC  H20T 9447   4.304   1.082   2.780 -1.3795  0.8714  0.9474
   96SAPC   C33 9448   4.994   0.816   3.214  0.5600 -0.3743  0.5155
   96SAPC   H3X 9449   5.015   0.707   3.212  1.0923 -0.3114 -2.8911
   96SAPC   H3Y 9450   4.984   0.855   3.318  0.4013 -0.1752  0.4261
   96SAPC   C34 9451   5.108   0.892   3.144  0.0275  0.5287  0.3610
   96SAPC   H4X 9452   5.077   0.998   3.127  1.4979  0.7794 -1.1155
   96SAPC   H4Y 9453   5.105   0.842   3.045  0.0460 -1.8177  1.4884
   96SAPC   C35 9454   5.244   0.875   3.211  0.1222  0.0560 -0.3335
   96SAPC   H5X 9455   5.321   0.877   3.131 -1.5137  0.4268 -1.9630
   96SAPC   H5Y 9456   5.242   0.768   3.243  0.2482 -0.3020 -1.4531
   96SAPC   C36 9457   5.284   0.964   3.332  0.1068  0.0665 -0.6681
   96SAPC   H6X 9458   5.273   1.070   3.301  2.9756 -0.0786 -2.5247
   96SAPC   H6Y 9459   5.391   0.951   3.354 -0.2858 -1.2605  0.5784
   96SAPC   C37 9460   5.208   0.928   3.459  0.8850  0.2324 -0.5838
   96SAPC   H7X 9461   5.200   0.817   3.468  1.9740  0.3300  2.6484
   96SAPC   H7Y 9462   5.110   0.976   3.437  0.9810  0.0090 -1.5432
   96SAPC   C38 9463   5.254   0.993   3.585 -0.0955 -0.1013  0.3703
   96SAPC   H8X 9464   5.265   1.102   3.567 -0.7033 -0.2322 -0.9593
   96SAPC   H8Y 9465   5.357   0.957   3.603  0.3189  1.2684  0.8566
   96SAPC   C39 9466   5.167   0.983   3.706  0.3006  0.5222 -0.1105
   96SAPC   H9X 9467   5.153   0.880   3.745  4.5392  0.2991  1.3484
   96SAPC   H9Y 9468   5.071   1.037   3.690 -0.3146 -0.7449 -0.8324
   96SAPC  C310 9469   5.235   1.045   3.833 -0.1974 -0.8587 -0.3976
   96SAPC  H10X 9470   5.269   1.148   3.809 -0.1231 -0.5044  1.1095
   96SAPC  H10Y 9471   5.335   1.004   3.855 -0.0792  0.0926  0.9909
   96SAPC  C311 9472   5.147   1.047   3.959  0.2330  0.3360  0.1176
   96SAPC  H11X 9473   5.134   0.944   3.998  2.9980 -0.6505 -1.2663
   96SAPC  H11Y 9474   5.050   1.090   3.928 -0.1091 -1.9986 -2.4553
   96SAPC  C312 9475   5.208   1.146   4.065 -0.0046  0.2530 -0.1473
   96SAPC  H12X 9476   5.213   1.249   4.024 -1.8503 -0.0078 -1.1248
   96SAPC  H12Y 9477   5.309   1.122   4.106 -0.2820  0.5800  0.7568
   96SAPC  C313 9478   5.130   1.157   4.206 -0.1558 -0.4487 -0.4261
   96SAPC  H13X 9479   5.118   1.063   4.264 -0.3958  0.7202  1.5122
   96SAPC  H13Y 9480   5.027   1.193   4.183 -0.4181 -2.3327 -2.4810
   96SAPC  C314 9481   5.197   1.249   4.306  0.0028  0.4215  0.2241
   96SAPC  H14X 9482   5.194   1.350   4.260  0.4424 -0.0233 -0.8246
   96SAPC  H14Y 9483   5.304   1.225   4.321  0.2806  0.5280 -1.3694
   96SAPC  C315 9484   5.129   1.246   4.444  0.1016 -0.1710  0.3216
   96SAPC  H15X 9485   5.107   1.142   4.475  0.1303 -1.3336 -3.1435
   96SAPC  H15Y 9486   5.028   1.290   4.428  0.0439 -0.4141 -0.0045
   96SAPC  C316 9487   5.215   1.310   4.553  0.9307 -0.1524 -0.0956
   96SAPC  H16X 9488   5.314   1.260   4.553 -0.1754 -2.5014 -0.9917
   96SAPC  H16Y 9489   5.158   1.289   4.646  1.1915 -0.8430 -0.0865
   96SAPC  C317 9490   5.239   1.457   4.528 -0.4092  0.3375  1.2178
   96SAPC  H17X 9491   5.270   1.472   4.423 -2.2865 -0.9639  0.4104
   96SAPC  H17Y 9492   5.323   1.498   4.588 -1.1120  0.3672  2.2000
   96SAPC  C318 9493   5.113   1.551   4.555  0.0793 -0.6913 -0.2338
   96SAPC  H18X 9494   5.093   1.540   4.664 -0.1590  0.0694 -0.1946
   96SAPC  H18Y 9495   5.018   1.525   4.504 -1.2094 -0.6746  1.9829
   96SAPC  H18Z 9496   5.129   1.661   4.547  0.6041 -0.7442  0.0574
   97SAPC     N 9497   3.899   0.304   2.168  0.0912 -0.5665  0.5715
   97SAPC   C12 9498   3.990   0.257   2.279 -1.3146 -0.0323 -1.1985
   97SAPC  H12A 9499   3.966   0.314   2.367  1.3716 -0.7415  0.0851
   97SAPC  H12B 9500   4.093   0.281   2.260 -0.0373 -1.5180  2.8855
   97SAPC   C13 9501   3.921   0.223   2.045  0.5600  0.8060  0.4190
   97SAPC  H13A 9502   3.890   0.122   2.068 -0.6780  0.7091 -1.4861
   97SAPC  H13B 9503   3.870   0.259   1.957  0.8555  2.4224  0.8727
   97SAPC  H13C 9504   4.022   0.212   2.008  0.1936 -0.1327 -0.3541
   97SAPC   C14 9505   3.754   0.305   2.201  0.2802 -1.2048  0.5336
   97SAPC  H14A 9506   3.726   0.213   2.249 -0.4557 -1.0986  0.3291
   97SAPC  H14B 9507   3.733   0.386   2.270 -2.0318 -0.2376 -1.1518
   97SAPC  H14C 9508   3.689   0.310   2.115 -0.3184 -0.8768  0.9956
   97SAPC   C15 9509   3.940   0.444   2.139  0.7377 -0.1743 -0.5418
   97SAPC  H15A 9510   3.900   0.507   2.217 -1.7284  1.0542 -2.6356
   97SAPC  H15B 9511   4.046   0.461   2.122  0.3779  3.2720 -0.0557
   97SAPC  H15C 9512   3.894   0.476   2.046 -0.6795  1.7958  0.7510
   97SAPC   C11 9513   3.978   0.103   2.313 -0.0480 -1.1451 -0.0885
   97SAPC  H11A 9514   4.049   0.089   2.397  1.0960  0.5126 -0.7169
   97SAPC  H11B 9515   4.010   0.042   2.226  2.9317  0.1836 -0.0533
   97SAPC     P 9516   3.793   0.112   2.497 -0.6041 -0.6173 -0.1193
   97SAPC   O13 9517   3.876   0.226   2.538 -0.2533  0.3245 -0.5513
   97SAPC   O14 9518   3.653   0.135   2.480  0.2342 -0.8643 -0.1966
   97SAPC   O12 9519   3.842   0.063   2.357 -0.3813 -0.8121  0.5897
   97SAPC   O11 9520   3.816  -0.017   2.593  0.6456 -0.1633 -0.5696
   97SAPC    C1 9521   3.945  -0.080   2.600  0.0386 -0.0757  0.3541
   97SAPC    HA 9522   3.956  -0.165   2.529  2.7061  0.5085 -0.0258
   97SAPC    HB 9523   4.024  -0.006   2.575  0.8636 -0.9660  0.2810
   97SAPC    C2 9524   3.974  -0.121   2.746  0.2568 -0.5098 -0.4968
   97SAPC    HS 9525   3.883  -0.177   2.775 -0.9388 -0.0396 -3.0562
   97SAPC   O21 9526   3.979   0.003   2.818 -0.4521 -0.2167 -0.2583
   97SAPC   C21 9527   3.965  -0.020   2.945 -0.3211  0.2134 -0.7426
   97SAPC   O22 9528   3.914  -0.120   2.997  0.4078  0.5416 -0.1689
   97SAPC   C22 9529   4.036   0.091   3.025 -0.0533  0.6625  0.0055
   97SAPC   H2R 9530   4.143   0.087   2.997  0.5337 -0.2623  2.2254
   97SAPC   H2S 9531   3.990   0.191   3.010 -0.4409  1.0244  3.0071
   97SAPC    C3 9532   4.107  -0.196   2.747  0.3945 -0.3462  0.3587
   97SAPC    HX 9533   4.181  -0.123   2.707 -0.1993  0.5506  0.8597
   97SAPC    HY 9534   4.109  -0.287   2.684 -1.6615 -0.5335  0.5112
   97SAPC   O31 9535   4.151  -0.218   2.878  0.6173 -0.0281  1.0089
   97SAPC   C31 9536   4.125  -0.340   2.922  0.4339  0.2778 -0.1321
   97SAPC   O32 9537   4.076  -0.430   2.858 -0.0339  0.0404 -0.4901
   97SAPC   C32 9538   4.176  -0.349   3.060  0.8931 -0.1278  0.2646
   97SAPC   H2X 9539   4.106  -0.288   3.121  2.3251  0.9146  0.9058
   97SAPC   H2Y 9540   4.276  -0.303   3.057  0.0433  1.7353 -0.5927
   97SAPC   C23 9541   4.041   0.061   3.184 -1.1112 -0.2327  0.1227
   97SAPC   H3R 9542   4.119   0.133   3.217 -1.2001  0.3258 -0.8472
   97SAPC   H3S 9543   4.071  -0.041   3.217  0.0161  0.2394  0.6315
   97SAPC   C24 9544   3.902   0.090   3.248 -0.3905  0.3094  0.0940
   97SAPC   H4R 9545   3.848  -0.006   3.236 -0.0581 -0.2082  2.2900
   97SAPC   H4S 9546   3.844   0.172   3.201  0.5535  0.0590 -1.5694
   97SAPC   C25 9547   3.927   0.116   3.391 -0.2351 -0.2905  0.0996
   97SAPC   H5R 9548   4.016   0.063   3.428 -0.6775 -0.6373  0.6858
   97SAPC   C26 9549   3.862   0.207   3.469 -0.4027  0.4517  0.1833
   97SAPC   H6R 9550   3.883   0.207   3.577 -0.9357  0.1196  0.2903
   97SAPC   C27 9551   3.741   0.288   3.418  0.4605 -0.2506 -0.1927
   97SAPC   H7R 9552   3.645   0.233   3.432  0.1095  0.1503 -0.9648
   97SAPC   H7S 9553   3.757   0.315   3.311  2.4707 -0.3740  0.0367
   97SAPC   C28 9554   3.724   0.413   3.505  0.4692  0.1665 -0.0075
   97SAPC   H8R 9555   3.770   0.407   3.605  1.9082  0.1146 -0.6461
   97SAPC   C29 9556   3.673   0.529   3.469 -0.0625  0.3565  0.8312
   97SAPC   H9R 9557   3.652   0.601   3.550 -2.3815  0.4814  0.2028
   97SAPC  C210 9558   3.602   0.573   3.347 -0.0817 -0.4326  0.0981
   97SAPC  H10R 9559   3.585   0.480   3.289 -1.4959  1.3698 -2.5613
   97SAPC  H10S 9560   3.668   0.630   3.278 -0.9011 -2.0501 -2.1143
   97SAPC  C211 9561   3.468   0.629   3.375  0.2802  0.3180 -0.3601
   97SAPC  H11R 9562   3.390   0.553   3.360  0.7392  0.0278 -1.3324
   97SAPC  C212 9563   3.444   0.748   3.448  0.6211  0.4113 -0.0455
   97SAPC  H12R 9564   3.342   0.767   3.484  1.6303  2.0379  2.1401
   97SAPC  C213 9565   3.541   0.852   3.487 -0.2534  0.1309 -0.0848
   97SAPC  H13R 9566   3.642   0.816   3.459 -0.4587  0.4247 -1.2700
   97SAPC  H13S 9567   3.524   0.863   3.596  0.4804  1.9704 -0.1186
   97SAPC  C214 9568   3.509   0.971   3.401  0.0826 -0.0292 -0.3302
   97SAPC  H14R 9569   3.562   0.967   3.305 -1.2475 -2.1657 -1.0549
   97SAPC  C215 9570   3.442   1.084   3.429  0.2564  0.6650  0.0820
   97SAPC  H15R 9571   3.449   1.163   3.353 -2.0146 -1.4027 -2.5028
   97SAPC  C216 9572   3.349   1.112   3.545 -0.1815  0.0316 -0.7051
   97SAPC  H16R 9573   3.322   1.027   3.612 -0.2576  0.2316 -0.4781
   97SAPC  H16S 9574   3.258   1.167   3.513  0.3988  0.7456 -1.1552
   97SAPC  C217 9575   3.413   1.213   3.645 -0.2219  0.4804 -0.5126
   97SAPC  H17R 9576   3.438   1.311   3.601  1.2979  0.1276 -0.4981
   97SAPC  H17S 9577   3.495   1.159   3.698 -0.1998  1.1686  0.1801
   97SAPC  C218 9578   3.314   1.245   3.759  0.3887  0.3705  0.5869
   97SAPC  H18R 9579   3.273   1.151   3.800 -0.4758  1.2917  1.8910
   97SAPC  H18S 9580   3.232   1.309   3.719  0.2982 -1.2619 -2.0953
   97SAPC  C219 9581   3.367   1.334   3.873  0.2347 -0.8652  0.0650
   97SAPC  H19R 9582   3.388   1.439   3.844 -0.6524 -0.5124  0.6478
   97SAPC  H19S 9583   3.462   1.292   3.910  1.4322  0.5655 -1.2109
   97SAPC  C220 9584   3.264   1.328   3.987 -0.2164  0.4235 -0.3117
   97SAPC  H20R 9585   3.246   1.228   4.033 -0.6889  1.0707  0.9646
   97SAPC  H20S 9586   3.169   1.372   3.950 -1.5681 -1.6864  0.4343
   97SAPC  H20T 9587   3.292   1.391   4.074  0.4154 -0.2640 -0.0004
   97SAPC   C33 9588   4.195  -0.491   3.131 -0.7692 -0.2442  0.1719
   97SAPC   H3X 9589   4.265  -0.554   3.071  0.1440 -0.5800  1.5481
   97SAPC   H3Y 9590   4.098  -0.539   3.151 -0.4989 -0.2599  1.5052
   97SAPC   C34 9591   4.268  -0.478   3.259  0.0041  0.1144  0.5300
   97SAPC   H4X 9592   4.371  -0.436   3.253  0.6311 -1.3021  1.0785
   97SAPC   H4Y 9593   4.285  -0.577   3.306  1.3089 -0.2678 -0.6819
   97SAPC   C35 9594   4.187  -0.398   3.363  0.2623 -0.9020 -0.2906
   97SAPC   H5X 9595   4.100  -0.455   3.402 -0.0284  0.2940  0.8903
   97SAPC   H5Y 9596   4.137  -0.307   3.324 -2.8073 -1.6999  1.4071
   97SAPC   C36 9597   4.282  -0.361   3.478  0.5591 -0.3383 -0.0319
   97SAPC   H6X 9598   4.369  -0.299   3.451 -0.3643  0.4569 -1.3264
   97SAPC   H6Y 9599   4.330  -0.452   3.520  1.6733 -0.3370 -1.2494
   97SAPC   C37 9600   4.209  -0.289   3.587 -0.2604 -0.1387  0.4996
   97SAPC   H7X 9601   4.117  -0.342   3.621 -1.3009  1.1949 -0.1706
   97SAPC   H7Y 9602   4.167  -0.200   3.537 -0.4040 -0.9311 -0.8365
   97SAPC   C38 9603   4.294  -0.269   3.715 -0.0685  0.7559 -0.3330
   97SAPC   H8X 9604   4.375  -0.202   3.679  0.9153 -0.2400 -0.0385
   97SAPC   H8Y 9605   4.349  -0.358   3.752  0.7593  0.9552 -1.0427
   97SAPC   C39 9606   4.205  -0.198   3.818 -0.5933 -0.4295  0.4185
   97SAPC   H9X 9607   4.274  -0.159   3.895 -0.8223  3.6353 -1.1832
   97SAPC   H9Y 9608   4.138  -0.277   3.858  0.7318 -2.8040 -1.8345
   97SAPC  C310 9609   4.116  -0.088   3.762  0.1763  0.7732  0.1340
   97SAPC  H10X 9610   4.052  -0.129   3.681  1.6281  2.4392 -1.9677
   97SAPC  H10Y 9611   4.179  -0.011   3.713 -0.2861  1.5175  0.6993
   97SAPC  C311 9612   4.050  -0.008   3.878  0.9651 -0.3691 -0.3117
   97SAPC  H11X 9613   4.127   0.063   3.916 -0.3952  0.5746  0.8049
   97SAPC  H11Y 9614   4.014  -0.085   3.949  1.0086  0.9805  1.2436
   97SAPC  C312 9615   3.927   0.075   3.829 -1.0180 -0.3191 -0.2310
   97SAPC  H12X 9616   3.850   0.013   3.778  0.8737 -0.3070 -3.3674
   97SAPC  H12Y 9617   3.955   0.157   3.759 -0.0953  1.0368  1.6309
   97SAPC  C313 9618   3.864   0.135   3.947 -0.5721  0.2860 -0.7465
   97SAPC  H13X 9619   3.930   0.208   3.999 -3.2189  1.9827  0.4556
   97SAPC  H13Y 9620   3.856   0.065   4.033  1.4735  1.0677  0.1450
   97SAPC  C314 9621   3.725   0.192   3.932  0.1653 -0.0558 -0.5523
   97SAPC  H14X 9622   3.665   0.110   3.889  1.5959 -1.3051 -0.2531
   97SAPC  H14Y 9623   3.720   0.275   3.858 -0.5063  1.4206  1.0814
   97SAPC  C315 9624   3.654   0.237   4.060  0.3589 -0.2521  0.1093
   97SAPC  H15X 9625   3.660   0.150   4.129  1.7654  0.6012  1.1078
   97SAPC  H15Y 9626   3.548   0.265   4.042  0.6265  0.6783 -0.0813
   97SAPC  C316 9627   3.739   0.351   4.134 -0.2110 -0.3313 -0.1789
   97SAPC  H16X 9628   3.740   0.434   4.061 -5.6855 -1.8467 -2.4737
   97SAPC  H16Y 9629   3.842   0.313   4.153 -0.6173 -0.3914  2.2064
   97SAPC  C317 9630   3.678   0.395   4.267  0.6463 -0.2052  0.0847
   97SAPC  H17X 9631   3.615   0.321   4.320 -0.8011  0.9294  0.0185
   97SAPC  H17Y 9632   3.614   0.480   4.235  2.2595  1.9014  2.1316
   97SAPC  C318 9633   3.770   0.463   4.365 -0.5206  0.5168 -0.3839
   97SAPC  H18X 9634   3.863   0.501   4.319  0.2477 -2.0890 -1.1917
   97SAPC  H18Y 9635   3.808   0.386   4.436 -0.8773  1.6075  1.0363
   97SAPC  H18Z 9636   3.713   0.546   4.412 -1.1975 -0.2908  0.2806
   98SAPC     N 9637   0.630   0.035   2.151  0.0814  0.4455 -0.2007
   98SAPC   C12 9638   0.760   0.114   2.157  0.2613  0.3252  1.2569
   98SAPC  H12A 9639   0.798   0.094   2.256  1.7126  0.3050  0.7142
   98SAPC  H12B 9640   0.737   0.219   2.155 -1.4341  0.0381  2.6802
   98SAPC   C13 9641   0.652  -0.115   2.146  0.2296 -0.7346 -0.2715
   98SAPC  H13A 9642   0.707  -0.157   2.229  0.7301 -0.9897 -0.7246
   98SAPC  H13B 9643   0.564  -0.176   2.153  0.1961 -0.7732 -0.9365
   98SAPC  H13C 9644   0.710  -0.139   2.058  1.0447 -0.5383  0.2002
   98SAPC   C14 9645   0.552   0.073   2.269 -0.7562 -0.0517  0.4181
   98SAPC  H14A 9646   0.457   0.021   2.263 -0.8988  0.0105  1.8193
   98SAPC  H14B 9647   0.604   0.043   2.359  0.6305  0.9906  0.0068
   98SAPC  H14C 9648   0.528   0.178   2.271  0.0370  0.1423  0.0384
   98SAPC   C15 9649   0.556   0.072   2.024  0.2135 -0.1444  0.0487
   98SAPC  H15A 9650   0.462   0.018   2.026  0.9651 -1.5772 -1.3450
   98SAPC  H15B 9651   0.541   0.179   2.017 -0.2478 -0.2287 -0.3440
   98SAPC  H15C 9652   0.610   0.044   1.934  1.9546  0.9273  0.7122
   98SAPC   C11 9653   0.868   0.082   2.049  0.2039  0.5706  0.6039
   98SAPC  H11A 9654   0.940   0.166   2.047  0.5069  0.3259 -2.0594
   98SAPC  H11B 9655   0.816   0.074   1.951  2.0862  0.6162 -0.4345
   98SAPC     P 9656   1.055  -0.057   2.175 -0.6180  0.3128  0.0046
   98SAPC   O13 9657   1.038  -0.189   2.233  0.4883  0.1944 -0.1247
   98SAPC   O14 9658   1.186  -0.030   2.117 -0.0083  0.6076  0.6192
   98SAPC   O12 9659   0.933  -0.042   2.071  0.0068 -0.0989 -0.2655
   98SAPC   O11 9660   1.017   0.055   2.285 -0.0456  0.6478 -0.1006
   98SAPC    C1 9661   1.125   0.156   2.304  0.3375  0.0603 -0.6849
   98SAPC    HA 9662   1.229   0.121   2.287  0.3777 -0.1059 -0.1041
   98SAPC    HB 9663   1.108   0.249   2.246  1.9818  1.2640  0.6646
   98SAPC    C2 9664   1.138   0.199   2.455 -0.2193  0.1496 -0.2356
   98SAPC    HS 9665   1.231   0.259   2.456  0.7636 -1.2989 -1.0141
   98SAPC   O21 9666   1.149   0.082   2.540 -0.7080  0.2876 -0.0793
   98SAPC   C21 9667   1.269   0.016   2.539  0.0867 -0.1365 -0.2434
   98SAPC   O22 9668   1.371   0.064   2.493 -0.0881 -0.7731  0.5113
   98SAPC   C22 9669   1.254  -0.100   2.636  0.0465 -0.1566  0.4105
   98SAPC   H2R 9670   1.209  -0.053   2.726  2.6562  1.4155  0.9945
   98SAPC   H2S 9671   1.184  -0.167   2.581 -0.1419  0.8772 -0.6654
   98SAPC    C3 9672   1.021   0.283   2.514 -0.3053 -0.2938  0.1547
   98SAPC    HX 9673   0.939   0.213   2.540 -0.4329 -0.5466 -0.8865
   98SAPC    HY 9674   0.985   0.353   2.435 -1.1153 -2.1068 -1.1532
   98SAPC   O31 9675   1.068   0.349   2.636  0.5984  0.8686  0.4736
   98SAPC   C31 9676   1.092   0.478   2.618  0.2897  0.4572 -0.0972
   98SAPC   O32 9677   1.112   0.531   2.509  0.0083  0.4077 -0.1482
   98SAPC   C32 9678   1.115   0.538   2.756 -0.4245  1.0571 -0.3433
   98SAPC   H2X 9679   1.177   0.476   2.824 -1.8916 -0.1204 -0.0206
   98SAPC   H2Y 9680   1.014   0.546   2.802 -2.1290  0.7392 -3.6712
   98SAPC   C23 9681   1.378  -0.178   2.684  0.3209  0.1446 -0.0997
   98SAPC   H3R 9682   1.443  -0.119   2.752 -0.1637  0.5833 -0.0113
   98SAPC   H3S 9683   1.423  -0.219   2.591 -1.0006 -2.9004  0.5060
   98SAPC   C24 9684   1.354  -0.309   2.753 -0.1794 -0.1531  0.4269
   98SAPC   H4R 9685   1.440  -0.380   2.754 -0.5655 -0.6286  0.0177
   98SAPC   H4S 9686   1.283  -0.368   2.691 -0.3647  1.0673 -0.5706
   98SAPC   C25 9687   1.310  -0.285   2.899  0.0230  0.3966 -0.1571
   98SAPC   H5R 9688   1.223  -0.221   2.925  0.4663  0.9830 -0.1030
   98SAPC   C26 9689   1.376  -0.326   3.004  0.5398 -0.7382  0.5226
   98SAPC   H6R 9690   1.339  -0.304   3.106 -1.3178 -2.6325  0.3047
   98SAPC   C27 9691   1.500  -0.408   3.009 -0.7048 -0.0897 -0.2700
   98SAPC   H7R 9692   1.537  -0.384   3.111 -0.6506  0.9680 -0.5243
   98SAPC   H7S 9693   1.578  -0.377   2.936 -1.4560 -1.4386 -1.7005
   98SAPC   C28 9694   1.472  -0.554   2.997 -0.1996 -0.7566  0.3699
   98SAPC   H8R 9695   1.488  -0.603   2.900 -1.4197 -0.8643  0.2075
   98SAPC   C29 9696   1.435  -0.641   3.093 -0.4146  0.1951 -0.7826
   98SAPC   H9R 9697   1.426  -0.749   3.070  2.1484  0.0729 -1.5493
   98SAPC  C210 9698   1.411  -0.614   3.238 -0.5264  0.0944 -0.8026
   98SAPC  H10R 9699   1.315  -0.661   3.269  0.3200  0.1500  2.1441
   98SAPC  H10S 9700   1.401  -0.505   3.257  0.5126 -0.0477  0.6800
   98SAPC  C211 9701   1.513  -0.655   3.337 -0.0394  0.4071  0.1832
   98SAPC  H11R 9702   1.602  -0.708   3.301 -0.3876 -0.1334  0.0958
   98SAPC  C212 9703   1.510  -0.623   3.470 -0.1796  0.4696 -0.1358
   98SAPC  H12R 9704   1.577  -0.676   3.539  0.1884  1.7498  0.5195
   98SAPC  C213 9705   1.395  -0.550   3.538 -1.0581  0.2687 -0.2698
   98SAPC  H13R 9706   1.373  -0.604   3.632 -0.3980  1.6091  0.6889
   98SAPC  H13S 9707   1.304  -0.565   3.476 -0.6050 -1.0535 -0.6552
   98SAPC  C214 9708   1.429  -0.409   3.568  0.3604 -1.5256 -0.2117
   98SAPC  H14R 9709   1.437  -0.352   3.474  1.9670 -1.8003 -0.2642
   98SAPC  C215 9710   1.463  -0.358   3.686  0.0841 -0.6349 -0.3353
   98SAPC  H15R 9711   1.502  -0.255   3.688  3.9914 -1.8451  3.4435
   98SAPC  C216 9712   1.459  -0.432   3.819 -0.2862 -0.2015 -0.0238
   98SAPC  H16R 9713   1.560  -0.426   3.865 -0.0593 -0.3258 -0.4969
   98SAPC  H16S 9714   1.465  -0.542   3.804  2.3822  0.1750 -2.8588
   98SAPC  C217 9715   1.354  -0.393   3.922  0.2599 -0.4674  0.2565
   98SAPC  H17R 9716   1.318  -0.481   3.980 -3.3121  0.3942 -0.3717
   98SAPC  H17S 9717   1.264  -0.344   3.878 -0.0681  0.3517  1.7945
   98SAPC  C218 9718   1.400  -0.288   4.029 -0.0180 -0.3691 -0.0880
   98SAPC  H18R 9719   1.408  -0.184   3.990 -1.8076 -0.4689 -0.8175
   98SAPC  H18S 9720   1.498  -0.308   4.077  1.2887  1.9086 -1.6026
   98SAPC  C219 9721   1.293  -0.274   4.142 -0.2628  0.1276  0.2064
   98SAPC  H19R 9722   1.276  -0.376   4.182 -0.2104 -0.7710 -1.9263
   98SAPC  H19S 9723   1.203  -0.245   4.083  0.0457  2.1514  0.6665
   98SAPC  C220 9724   1.324  -0.173   4.257 -0.1413 -0.1073 -0.1600
   98SAPC  H20R 9725   1.313  -0.065   4.233  1.4961  0.4625  1.4239
   98SAPC  H20S 9726   1.429  -0.191   4.289  1.4064  2.1665 -3.3914
   98SAPC  H20T 9727   1.253  -0.195   4.339  0.7436 -1.1207  0.3608
   98SAPC   C33 9728   1.161   0.687   2.745 -0.3471  0.6989  0.1601
   98SAPC   H3X 9729   1.099   0.738   2.668  1.8952 -0.3710 -2.5386
   98SAPC   H3Y 9730   1.269   0.696   2.718 -0.7767 -1.1497 -2.5570
   98SAPC   C34 9731   1.132   0.771   2.872 -0.2022 -0.2668  0.0363
   98SAPC   H4X 9732   1.022   0.774   2.889  0.1379  2.1896  2.4513
   98SAPC   H4Y 9733   1.166   0.874   2.845 -1.5435  0.8019  2.1719
   98SAPC   C35 9734   1.219   0.732   2.990  0.1447  0.0417 -0.6176
   98SAPC   H5X 9735   1.325   0.714   2.963 -0.1326 -3.6892  0.2169
   98SAPC   H5Y 9736   1.185   0.633   3.026  1.5498 -0.0691  0.5304
   98SAPC   C36 9737   1.224   0.830   3.106 -0.2623 -0.7569 -0.1215
   98SAPC   H6X 9738   1.262   0.929   3.071 -0.3131 -0.9165 -0.6352
   98SAPC   H6Y 9739   1.291   0.787   3.183 -2.3402 -0.2396  2.0796
   98SAPC   C37 9740   1.091   0.858   3.182 -0.7221 -0.0683  0.0795
   98SAPC   H7X 9741   1.020   0.772   3.189 -1.6666  0.7136  0.4497
   98SAPC   H7Y 9742   1.046   0.934   3.114 -1.4085 -0.9054 -0.4255
   98SAPC   C38 9743   1.105   0.938   3.313 -0.7155  0.1743 -0.3062
   98SAPC   H8X 9744   1.019   1.008   3.330  0.0330  0.9276  0.4663
   98SAPC   H8Y 9745   1.194   1.005   3.310 -0.8878  0.3838 -1.1333
   98SAPC   C39 9746   1.123   0.850   3.443 -0.0645  0.4787 -0.2387
   98SAPC   H9X 9747   1.181   0.910   3.517  2.6901 -0.4173 -1.5472
   98SAPC   H9Y 9748   1.187   0.766   3.408  0.1324  0.1764  0.8269
   98SAPC  C310 9749   0.992   0.798   3.490 -0.1512 -0.1989 -0.1905
   98SAPC  H10X 9750   1.019   0.750   3.587  0.7146 -1.8749 -1.2001
   98SAPC  H10Y 9751   0.963   0.715   3.422  0.7541 -0.7941  0.1238
   98SAPC  C311 9752   0.873   0.892   3.526 -0.5437 -0.1530  0.2958
   98SAPC  H11X 9753   0.798   0.833   3.583 -0.2886 -1.0792 -0.3132
   98SAPC  H11Y 9754   0.827   0.932   3.434 -1.7593 -0.4410  0.7689
   98SAPC  C312 9755   0.910   1.015   3.615 -0.5976  0.1154  0.2186
   98SAPC  H12X 9756   0.816   1.074   3.621  0.2269  1.8300 -2.2171
   98SAPC  H12Y 9757   0.982   1.069   3.549 -1.4733 -1.0095 -1.7628
   98SAPC  C313 9758   0.951   0.989   3.763 -0.6342 -0.1988  0.2416
   98SAPC  H13X 9759   0.989   1.088   3.794  0.9145 -0.5341 -0.4588
   98SAPC  H13Y 9760   1.044   0.927   3.766  1.2641  2.5017  0.7295
   98SAPC  C314 9761   0.842   0.938   3.847 -0.2179 -0.2798  0.1497
   98SAPC  H14X 9762   0.803   0.837   3.824 -1.6976  0.4957 -0.8685
   98SAPC  H14Y 9763   0.762   1.014   3.835 -0.0054 -0.3012 -1.6931
   98SAPC  C315 9764   0.881   0.943   3.999 -0.1373  0.5312  0.2746
   98SAPC  H15X 9765   0.794   0.933   4.067  0.5378  0.5434  1.1540
   98SAPC  H15Y 9766   0.944   1.031   4.021  0.8467  0.4071 -1.8171
   98SAPC  C316 9767   0.966   0.820   4.055 -0.1036 -0.2413 -0.0425
   98SAPC  H16X 9768   0.954   0.812   4.166  1.1343  2.0352  0.3213
   98SAPC  H16Y 9769   1.072   0.849   4.044 -0.0906 -0.5061 -0.5988
   98SAPC  C317 9770   0.925   0.677   4.003  0.3612 -0.0862  0.2417
   98SAPC  H17X 9771   0.816   0.656   4.001  0.4189 -0.5113  1.0552
   98SAPC  H17Y 9772   0.962   0.599   4.074  0.3353 -0.4615 -0.1570
   98SAPC  C318 9773   0.990   0.639   3.869  1.0336  0.7724 -0.1378
   98SAPC  H18X 9774   1.021   0.728   3.811 -0.5562  1.0742 -0.5805
   98SAPC  H18Y 9775   0.924   0.571   3.811  0.8244  1.6532 -0.9552
   98SAPC  H18Z 9776   1.084   0.583   3.888  0.7833  0.1248 -0.7542
   99SAPC     N 9777   3.858   3.605   1.648  0.2534  0.5356 -0.4347
   99SAPC   C12 9778   3.795   3.604   1.791 -0.1112  0.0837 -0.2630
   99SAPC  H12A 9779   3.757   3.698   1.828 -0.2793 -0.2032  0.3067
   99SAPC  H12B 9780   3.879   3.588   1.857 -0.6685 -0.6954  0.2717
   99SAPC   C13 9781   3.974   3.703   1.645  0.6990  0.2041 -0.0415
   99SAPC  H13A 9782   4.021   3.702   1.548  1.2836  1.1487  0.2123
   99SAPC  H13B 9783   3.941   3.805   1.660 -0.8179 -0.4294  1.2797
   99SAPC  H13C 9784   4.044   3.684   1.725 -0.5980  1.8404  1.5771
   99SAPC   C14 9785   3.909   3.470   1.609 -0.3311  0.6500  0.1462
   99SAPC  H14A 9786   3.847   3.384   1.632  1.6017 -0.8722 -0.0194
   99SAPC  H14B 9787   3.934   3.470   1.504  0.2933  0.2374  0.2853
   99SAPC  H14C 9788   4.003   3.450   1.659 -0.2906 -0.0189 -0.1785
   99SAPC   C15 9789   3.763   3.652   1.549  0.2657  0.1426 -0.3469
   99SAPC  H15A 9790   3.744   3.757   1.568 -2.3497 -0.3918  0.4285
   99SAPC  H15B 9791   3.807   3.653   1.451 -1.4050 -0.4587 -1.1427
   99SAPC  H15C 9792   3.668   3.600   1.547  0.2395  0.1840 -2.2584
   99SAPC   C11 9793   3.691   3.498   1.817 -0.0030  0.2853  0.1370
   99SAPC  H11A 9794   3.683   3.464   1.923  0.4492 -2.9822 -0.7560
   99SAPC  H11B 9795   3.713   3.402   1.766  0.4363  1.0113 -1.0684
   99SAPC     P 9796   3.425   3.482   1.800 -0.0996  0.2417 -0.6439
   99SAPC   O13 9797   3.320   3.568   1.734 -0.5262  0.9045  0.3667
   99SAPC   O14 9798   3.418   3.337   1.763  0.2495  0.3031  0.4394
   99SAPC   O12 9799   3.563   3.549   1.769 -0.3414 -0.3140 -0.3123
   99SAPC   O11 9800   3.422   3.505   1.958 -0.5278 -0.1388 -0.5579
   99SAPC    C1 9801   3.392   3.624   2.023 -0.1564  0.3360 -0.3215
   99SAPC    HA 9802   3.315   3.682   1.968  0.7311  0.5793 -1.3490
   99SAPC    HB 9803   3.345   3.606   2.122 -3.8647 -1.0318 -2.1087
   99SAPC    C2 9804   3.512   3.712   2.041 -0.2095  0.0826  0.7979
   99SAPC    HS 9805   3.545   3.734   1.937 -1.1913 -0.5940  0.3264
   99SAPC   O21 9806   3.616   3.653   2.113  0.2458  0.6920  0.2656
   99SAPC   C21 9807   3.721   3.727   2.122  0.1977  0.4141 -0.0784
   99SAPC   O22 9808   3.765   3.795   2.027  0.5146 -0.5118  0.0082
   99SAPC   C22 9809   3.785   3.714   2.264  0.0506 -0.9425  0.3628
   99SAPC   H2R 9810   3.884   3.764   2.277  0.1943 -0.8523 -0.8746
   99SAPC   H2S 9811   3.710   3.769   2.325 -0.6262  0.6946 -1.7852
   99SAPC    C3 9812   3.472   3.852   2.104 -0.4117  0.6540 -0.5815
   99SAPC    HX 9813   3.377   3.887   2.058 -1.0040 -0.2158 -0.0468
   99SAPC    HY 9814   3.554   3.925   2.086 -0.8107  1.4063  0.5373
   99SAPC   O31 9815   3.451   3.845   2.245 -0.3059  0.3784 -0.0385
   99SAPC   C31 9816   3.419   3.959   2.299  0.0591 -0.0317  0.1416
   99SAPC   O32 9817   3.426   4.068   2.247 -0.0387  0.2907 -0.6912
   99SAPC   C32 9818   3.376   3.940   2.449  0.1058  0.5881  0.7979
   99SAPC   H2X 9819   3.268   3.962   2.441 -0.7493 -3.3614 -1.4000
   99SAPC   H2Y 9820   3.423   4.022   2.507 -2.5311  1.0990  2.3461
   99SAPC   C23 9821   3.800   3.563   2.309  0.1316 -0.3996 -0.2304
   99SAPC   H3R 9822   3.895   3.511   2.282 -0.1262 -2.4823  2.4605
   99SAPC   H3S 9823   3.715   3.506   2.266 -0.3841 -0.0112  0.2728
   99SAPC   C24 9824   3.788   3.535   2.461  0.0599  0.5240  0.1910
   99SAPC   H4R 9825   3.741   3.434   2.463 -0.9358  0.9469 -0.6505
   99SAPC   H4S 9826   3.711   3.605   2.500 -1.1901 -0.8589  0.3300
   99SAPC   C25 9827   3.920   3.548   2.535  0.5325  0.2148 -0.2428
   99SAPC   H5R 9828   4.000   3.583   2.468  0.1984  0.8185 -0.3412
   99SAPC   C26 9829   3.938   3.518   2.668  0.4055  0.7440 -0.3595
   99SAPC   H6R 9830   4.040   3.535   2.705  0.5007  0.1928 -0.3600
   99SAPC   C27 9831   3.845   3.460   2.777 -0.6980 -0.7565 -0.0087
   99SAPC   H7R 9832   3.752   3.520   2.789  0.9555  1.7583  1.0278
   99SAPC   H7S 9833   3.900   3.474   2.873  1.4304 -1.9735 -0.9870
   99SAPC   C28 9834   3.815   3.314   2.761 -0.7989  0.2179 -0.2293
   99SAPC   H8R 9835   3.894   3.252   2.718 -0.5692  0.5930 -0.3487
   99SAPC   C29 9836   3.706   3.254   2.808 -0.4144 -0.1707  0.1485
   99SAPC   H9R 9837   3.685   3.153   2.769  0.2294 -0.6729  1.0753
   99SAPC  C210 9838   3.601   3.321   2.894 -0.0445  0.0854  0.1182
   99SAPC  H10R 9839   3.544   3.382   2.821 -1.7525 -0.7675  0.6802
   99SAPC  H10S 9840   3.649   3.392   2.965  2.1210 -0.1105 -1.0805
   99SAPC  C211 9841   3.505   3.231   2.975 -0.1891 -0.4588 -0.3388
   99SAPC  H11R 9842   3.445   3.155   2.922 -0.9795  0.3162 -0.5848
   99SAPC  C212 9843   3.490   3.246   3.107  0.2336 -0.0018 -0.2042
   99SAPC  H12R 9844   3.433   3.163   3.151  0.1314  0.2085  0.0557
   99SAPC  C213 9845   3.544   3.342   3.207 -1.0187 -0.2039 -0.5306
   99SAPC  H13R 9846   3.469   3.346   3.289  0.1242 -0.1752  0.5379
   99SAPC  H13S 9847   3.554   3.443   3.162 -0.7382  1.1730  2.4161
   99SAPC  C214 9848   3.680   3.297   3.249 -0.1669 -0.2593 -0.5092
   99SAPC  H14R 9849   3.753   3.259   3.175 -0.1806 -2.1763  0.3908
   99SAPC  C215 9850   3.725   3.305   3.376  0.3937  0.4179 -0.6841
   99SAPC  H15R 9851   3.824   3.265   3.401  0.0062  0.5077  1.2055
   99SAPC  C216 9852   3.658   3.355   3.508 -0.1777 -0.5573 -0.2465
   99SAPC  H16R 9853   3.605   3.451   3.487  1.9509  0.2970 -2.0451
   99SAPC  H16S 9854   3.734   3.362   3.589 -1.0651 -0.1319  0.5772
   99SAPC  C217 9855   3.538   3.280   3.571 -0.3490 -0.1959 -0.2290
   99SAPC  H17R 9856   3.451   3.270   3.503 -2.3610 -0.2195  2.2166
   99SAPC  H17S 9857   3.496   3.336   3.656 -1.1872 -2.3864  0.8884
   99SAPC  C218 9858   3.597   3.149   3.636  0.1665 -0.3218 -0.6687
   99SAPC  H18R 9859   3.654   3.173   3.728  0.4413 -0.3473 -0.8316
   99SAPC  H18S 9860   3.657   3.093   3.561  1.4451 -0.1799  0.2231
   99SAPC  C219 9861   3.485   3.058   3.683 -0.2814 -0.1401  0.0251
   99SAPC  H19R 9862   3.408   3.131   3.718 -0.3576 -0.4669  0.5505
   99SAPC  H19S 9863   3.511   2.992   3.769 -2.7214 -2.1737 -0.6714
   99SAPC  C220 9864   3.422   2.971   3.575  0.2611 -1.2250  0.1574
   99SAPC  H20R 9865   3.367   3.039   3.507  0.3047 -0.0905  1.2278
   99SAPC  H20S 9866   3.356   2.887   3.605 -0.3422 -0.3119  1.4796
   99SAPC  H20T 9867   3.501   2.921   3.515  0.2039  0.3275 -1.2691
   99SAPC   C33 9868   3.391   3.800   2.512  0.3096  0.3002  0.4748
   99SAPC   H3X 9869   3.492   3.763   2.485 -0.5472 -1.7185 -0.2379
   99SAPC   H3Y 9870   3.325   3.734   2.452  0.5521 -0.0417  0.5788
   99SAPC   C34 9871   3.367   3.812   2.663 -0.8756  0.3191 -0.0864
   99SAPC   H4X 9872   3.262   3.842   2.685 -1.3284  0.6867 -2.5067
   99SAPC   H4Y 9873   3.427   3.897   2.700  0.6192  0.1532 -1.9776
   99SAPC   C35 9874   3.417   3.684   2.737 -0.0914  0.0234  0.6596
   99SAPC   H5X 9875   3.512   3.637   2.704 -0.5302 -1.3976  1.3859
   99SAPC   H5Y 9876   3.337   3.608   2.724 -1.6631  1.8116 -0.7938
   99SAPC   C36 9877   3.426   3.714   2.882  0.2011 -0.0514  0.2420
   99SAPC   H6X 9878   3.471   3.811   2.912  1.0133 -1.0580  2.4840
   99SAPC   H6Y 9879   3.489   3.635   2.927 -0.1871 -1.3442 -1.3794
   99SAPC   C37 9880   3.288   3.712   2.955 -0.2192  1.4077 -0.1442
   99SAPC   H7X 9881   3.228   3.623   2.928  1.6814 -0.0181  0.1108
   99SAPC   H7Y 9882   3.230   3.799   2.918 -2.4020 -0.4868 -1.4459
   99SAPC   C38 9883   3.307   3.725   3.106  0.2818 -0.1849  0.0571
   99SAPC   H8X 9884   3.361   3.821   3.113 -0.2812  0.3278 -1.9713
   99SAPC   H8Y 9885   3.356   3.635   3.148 -2.3291 -0.3253  3.1228
   99SAPC   C39 9886   3.177   3.733   3.184 -0.0148 -0.3444 -0.4709
   99SAPC   H9X 9887   3.124   3.637   3.173 -0.6399  0.1543 -2.0562
   99SAPC   H9Y 9888   3.109   3.805   3.133  0.1170  0.3954  0.3728
   99SAPC  C310 9889   3.204   3.757   3.334  0.1952 -0.6414  0.1554
   99SAPC  H10X 9890   3.247   3.859   3.340 -1.7353  0.3207 -1.1227
   99SAPC  H10Y 9891   3.282   3.690   3.374  2.7715  2.4418  0.6641
   99SAPC  C311 9892   3.072   3.765   3.414 -0.8630 -0.0891 -1.3961
   99SAPC  H11X 9893   3.010   3.674   3.399  1.0917 -1.7337 -0.1467
   99SAPC  H11Y 9894   3.008   3.844   3.370  0.0807  0.6898 -1.3980
   99SAPC  C312 9895   3.098   3.791   3.557  0.0825 -1.1373  0.5931
   99SAPC  H12X 9896   3.150   3.888   3.572 -1.6494  0.4777 -2.6276
   99SAPC  H12Y 9897   3.167   3.715   3.600 -1.0447 -1.1115  2.5466
   99SAPC  C313 9898   2.968   3.779   3.646 -0.1736 -0.2412 -0.2233
   99SAPC  H13X 9899   2.917   3.685   3.615  1.0420 -1.0935  0.3007
   99SAPC  H13Y 9900   2.923   3.877   3.617  0.6651  0.2440  0.0741
   99SAPC  C314 9901   2.994   3.777   3.795  0.2563 -0.1224  0.1584
   99SAPC  H14X 9902   2.906   3.812   3.854 -0.3030 -2.1425  0.5773
   99SAPC  H14Y 9903   3.062   3.864   3.807  0.3846 -0.2902  0.6700
   99SAPC  C315 9904   3.047   3.638   3.845  0.2278 -1.3088  0.6016
   99SAPC  H15X 9905   3.133   3.613   3.778  0.3116  2.7839 -1.0880
   99SAPC  H15Y 9906   2.972   3.556   3.838 -1.7274  0.5173 -1.0074
   99SAPC  C316 9907   3.086   3.642   3.996  0.0045 -0.4569  0.3717
   99SAPC  H16X 9908   3.176   3.705   4.011  1.5709 -2.4395 -0.1823
   99SAPC  H16Y 9909   3.097   3.536   4.028  0.3236 -1.1685 -1.9080
   99SAPC  C317 9910   2.965   3.689   4.087 -0.3289  0.4759 -0.0236
   99SAPC  H17X 9911   2.882   3.618   4.065  1.8646 -1.6656 -2.0787
   99SAPC  H17Y 9912   2.925   3.785   4.050 -1.4731 -0.6373 -1.8250
   99SAPC  C318 9913   2.998   3.704   4.231  0.5563 -0.5433  0.1182
   99SAPC  H18X 9914   3.022   3.603   4.273  0.8316  0.5357  2.7473
   99SAPC  H18Y 9915   2.909   3.732   4.291  1.0399  1.7485 -0.1552
   99SAPC  H18Z 9916   3.081   3.777   4.240 -0.6545  0.6755  2.0894
  100SAPC     N 9917   1.324   3.430   2.270  0.6737 -0.1853 -0.7120
  100SAPC   C12 9918   1.376   3.410   2.133 -0.2067 -0.4528 -0.4714
  100SAPC  H12A 9919   1.448   3.486   2.107 -0.8949 -0.4614 -2.5278
  100SAPC  H12B 9920   1.301   3.437   2.060 -0.6452  0.7778  0.4003
  100SAPC   C13 9921   1.229   3.327   2.314 -0.2710 -0.2712  0.1769
  100SAPC  H13A 9922   1.154   3.311   2.238  1.2763 -1.4121 -1.1709
  100SAPC  H13B 9923   1.271   3.230   2.334 -2.1878 -1.3559 -0.7634
  100SAPC  H13C 9924   1.170   3.355   2.401 -1.6294 -0.6495 -0.5876
  100SAPC   C14 9925   1.442   3.439   2.367  0.5189  0.9043  0.1776
  100SAPC  H14A 9926   1.496   3.347   2.352  1.2677  1.1959  1.0019
  100SAPC  H14B 9927   1.508   3.520   2.338  1.8391  0.3070  1.3933
  100SAPC  H14C 9928   1.406   3.439   2.468  0.0806 -0.6571  0.0480
  100SAPC   C15 9929   1.249   3.558   2.281  0.0476 -0.5910 -0.2704
  100SAPC  H15A 9930   1.162   3.546   2.219 -0.6909 -3.4944  1.1562
  100SAPC  H15B 9931   1.227   3.570   2.387  3.6048  2.1939  0.3450
  100SAPC  H15C 9932   1.311   3.640   2.248 -1.2658  0.0812 -1.1665
  100SAPC   C11 9933   1.453   3.281   2.101 -0.0505 -0.0605  0.2275
  100SAPC  H11A 9934   1.474   3.286   1.992 -2.1160  0.4683 -0.1767
  100SAPC  H11B 9935   1.376   3.204   2.123  2.9507 -3.7274 -1.1338
  100SAPC     P 9936   1.714   3.218   2.144 -0.1016 -0.2706 -0.3581
  100SAPC   O13 9937   1.693   3.099   2.056 -0.5627  0.6669 -0.2448
  100SAPC   O14 9938   1.792   3.328   2.082  0.0071  0.0166 -0.1682
  100SAPC   O12 9939   1.573   3.266   2.182  0.7328  0.0848  0.3410
  100SAPC   O11 9940   1.781   3.183   2.283 -0.6841  0.0682 -0.4485
  100SAPC    C1 9941   1.793   3.270   2.391 -0.4260 -0.2575  0.3472
  100SAPC    HA 9942   1.899   3.286   2.419 -0.9639  3.1060  0.8653
  100SAPC    HB 9943   1.738   3.365   2.373 -0.5207 -0.0659  1.5904
  100SAPC    C2 9944   1.731   3.203   2.514  0.4635 -1.0959 -0.3484
  100SAPC    HS 9945   1.786   3.106   2.522  0.2071 -1.2610 -0.5706
  100SAPC   O21 9946   1.588   3.179   2.492  0.7104  0.3275 -0.1964
  100SAPC   C21 9947   1.544   3.081   2.565 -0.1040 -0.7877 -0.9528
  100SAPC   O22 9948   1.617   3.012   2.633 -0.2575 -0.1947 -0.1082
  100SAPC   C22 9949   1.392   3.076   2.566  0.1236  0.2780  0.3455
  100SAPC   H2R 9950   1.357   3.165   2.509  0.6498  0.7279  0.7078
  100SAPC   H2S 9951   1.358   2.983   2.516 -1.4506  0.5940  0.7601
  100SAPC    C3 9952   1.755   3.286   2.639  0.3540 -0.1197 -0.5627
  100SAPC    HX 9953   1.694   3.379   2.638  1.0162  0.3890  1.5999
  100SAPC    HY 9954   1.857   3.330   2.641 -0.2723  1.4080 -0.8939
  100SAPC   O31 9955   1.726   3.216   2.768  0.2771  0.4685  0.4867
  100SAPC   C31 9956   1.830   3.164   2.825 -0.4801  0.2301  1.0425
  100SAPC   O32 9957   1.943   3.144   2.774 -0.1391  0.0842 -0.6336
  100SAPC   C32 9958   1.795   3.126   2.964 -0.7056 -0.5269  1.1011
  100SAPC   H2X 9959   1.797   3.016   2.978  1.1737 -0.4549  1.7910
  100SAPC   H2Y 9960   1.693   3.155   2.996 -0.0857  0.1158  2.6266
  100SAPC   C23 9961   1.320   3.066   2.701  0.5390 -0.0380 -0.5299
  100SAPC   H3R 9962   1.359   2.980   2.759  0.8380  1.0101  0.8791
  100SAPC   H3S 9963   1.209   3.067   2.688  0.2383  0.7338  1.6913
  100SAPC   C24 9964   1.366   3.190   2.788  0.0380  0.5648 -0.4113
  100SAPC   H4R 9965   1.413   3.261   2.716  1.1285  0.0856 -0.1902
  100SAPC   H4S 9966   1.454   3.149   2.841 -1.1369 -0.4930  0.7839
  100SAPC   C25 9967   1.253   3.241   2.885 -0.5091  0.6853  0.0684
  100SAPC   H5R 9968   1.193   3.321   2.838 -0.8964  0.1977 -0.2897
  100SAPC   C26 9969   1.209   3.207   3.003 -0.4971  0.6662  0.1837
  100SAPC   H6R 9970   1.134   3.270   3.053  0.6646  2.4819 -0.2501
  100SAPC   C27 9971   1.273   3.102   3.081 -0.3149  0.0174 -0.3928
  100SAPC   H7R 9972   1.354   3.051   3.024  0.6351  0.1832  0.7673
  100SAPC   H7S 9973   1.196   3.027   3.107  0.8343 -0.7203  1.0193
  100SAPC   C28 9974   1.352   3.167   3.200 -0.1544 -0.2200  0.1116
  100SAPC   H8R 9975   1.454   3.196   3.171  0.7396  1.0942  3.9633
  100SAPC   C29 9976   1.314   3.172   3.332 -0.3851  0.2548 -0.1743
  100SAPC   H9R 9977   1.372   3.224   3.410  0.5332 -3.1280  1.6304
  100SAPC  C210 9978   1.179   3.126   3.385  0.0779 -0.2488 -0.0712
  100SAPC  H10R 9979   1.193   3.023   3.424 -0.3863  0.0624  0.9553
  100SAPC  H10S 9980   1.104   3.119   3.304  0.4011  3.1312 -0.8014
  100SAPC  C211 9981   1.118   3.215   3.492  0.0502  0.4153 -0.1025
  100SAPC  H11R 9982   1.099   3.320   3.467 -0.2856  0.3661 -0.0545
  100SAPC  C212 9983   1.082   3.179   3.612  0.5932  0.0743 -0.2041
  100SAPC  H12R 9984   1.048   3.252   3.687  2.9951  1.3774 -0.2651
  100SAPC  C213 9985   1.097   3.043   3.673  0.8360  0.3015 -0.0810
  100SAPC  H13R 9986   1.195   2.993   3.658  0.5580 -0.4050  0.4030
  100SAPC  H13S 9987   1.023   2.978   3.621 -0.9125  2.9852 -1.1664
  100SAPC  C214 9988   1.068   3.038   3.819 -0.0505  0.4535 -0.7237
  100SAPC  H14R 9989   0.968   3.000   3.847 -0.1189  0.4864 -0.9212
  100SAPC  C215 9990   1.143   3.086   3.925 -0.0111 -0.4663  1.1877
  100SAPC  H15R 9991   1.103   3.081   4.027 -0.7835 -0.7178  0.8762
  100SAPC  C216 9992   1.279   3.155   3.909  0.5443  0.5018  0.1260
  100SAPC  H16R 9993   1.269   3.214   3.815 -0.3052  0.6061  0.2759
  100SAPC  H16S 9994   1.358   3.080   3.884  1.9192  2.3101 -1.2655
  100SAPC  C217 9995   1.330   3.251   4.022  0.0004  0.8390  0.8784
  100SAPC  H17R 9996   1.424   3.303   3.993  0.4161 -0.2013  0.3032
  100SAPC  H17S 9997   1.353   3.186   4.109  1.3966 -1.2588 -0.9399
  100SAPC  C218 9998   1.217   3.355   4.050  0.2092  0.4112  0.2312
  100SAPC  H18R 9999   1.146   3.304   4.119  0.1528 -0.0093 -0.1357
  100SAPC  H18S10000   1.180   3.368   3.946 -0.9964 -1.1050  0.4402
  100SAPC  C21910001   1.274   3.482   4.114 -0.0779  0.4009  1.1546
  100SAPC  H19R10002   1.188   3.553   4.119 -1.1737 -0.7355 -0.4171
  100SAPC  H19S10003   1.338   3.523   4.033  2.1107 -2.1880  1.4446
  100SAPC  C22010004   1.347   3.453   4.244  0.0305  0.4955  0.3003
  100SAPC  H20R10005   1.435   3.389   4.223 -0.3499  0.1279 -0.2202
  100SAPC  H20S10006   1.277   3.412   4.320  0.8933 -2.2602 -0.3023
  100SAPC  H20T10007   1.392   3.545   4.286  0.8708  0.7412 -1.0740
  100SAPC   C3310008   1.887   3.196   3.069  0.5975  0.7760  0.4896
  100SAPC   H3X10009   1.901   3.303   3.044 -4.2642  1.9564  1.7767
  100SAPC   H3Y10010   1.988   3.148   3.071  0.3235 -0.1858 -2.7234
  100SAPC   C3410011   1.841   3.182   3.219  0.5366 -0.2284  0.0663
  100SAPC   H4X10012   1.730   3.188   3.227  0.5940  1.6818 -0.1748
  100SAPC   H4Y10013   1.869   3.271   3.280  0.0803 -0.3556  0.4686
  100SAPC   C3510014   1.889   3.054   3.289 -0.3987 -0.0421 -0.2639
  100SAPC   H5X10015   2.000   3.065   3.297 -0.4569  1.5035 -1.2991
  100SAPC   H5Y10016   1.862   2.971   3.221 -0.3999 -0.1631 -0.1170
  100SAPC   C3610017   1.833   3.040   3.432  1.4024  0.3862  0.2341
  100SAPC   H6X10018   1.723   3.025   3.429  1.5634 -0.7921 -2.0260
  100SAPC   H6Y10019   1.835   3.141   3.478 -2.1441  0.9444 -0.6123
  100SAPC   C3710020   1.904   2.935   3.511 -0.3448  0.3952 -0.4008
  100SAPC   H7X10021   2.014   2.952   3.514 -0.1544 -0.4943 -1.4372
  100SAPC   H7Y10022   1.895   2.847   3.444  3.1538  0.1946 -0.8266
  100SAPC   C3810023   1.846   2.892   3.651  0.4401 -0.3441 -0.2967
  100SAPC   H8X10024   1.914   2.818   3.698  2.3181  0.8403 -1.0320
  100SAPC   H8Y10025   1.744   2.851   3.638  0.1001  0.4374 -0.1593
  100SAPC   C3910026   1.810   3.009   3.740  0.2255 -0.9741 -0.0566
  100SAPC   H9X10027   1.751   3.069   3.667  0.3958 -0.0585  0.5420
  100SAPC   H9Y10028   1.906   3.061   3.757 -0.4546  0.6229 -0.8362
  100SAPC  C31010029   1.725   2.972   3.860 -0.3329 -0.2444  0.3885
  100SAPC  H10X10030   1.767   2.886   3.916  2.1313  0.9111  0.4592
  100SAPC  H10Y10031   1.623   2.944   3.826 -0.0355  0.4147 -1.1296
  100SAPC  C31110032   1.717   3.074   3.970 -0.5009 -1.0409  0.5048
  100SAPC  H11X10033   1.679   3.170   3.930 -0.6468 -0.7303  1.3717
  100SAPC  H11Y10034   1.820   3.088   4.011 -0.1588 -2.5107  0.2019
  100SAPC  C31210035   1.634   3.022   4.080 -0.2936 -0.3569  0.0755
  100SAPC  H12X10036   1.687   2.935   4.123  0.9964  0.6400  0.5695
  100SAPC  H12Y10037   1.527   3.012   4.053 -0.1077  1.7352 -1.6956
  100SAPC  C31310038   1.617   3.122   4.203 -0.3119 -0.7090 -0.6836
  100SAPC  H13X10039   1.578   3.223   4.177 -2.5898 -1.1621  0.6284
  100SAPC  H13Y10040   1.717   3.136   4.247 -0.8685  0.9554  0.1282
  100SAPC  C31410041   1.526   3.059   4.315  0.9065  0.8169  0.3231
  100SAPC  H14X10042   1.556   2.953   4.328  2.1862  1.0228 -0.6711
  100SAPC  H14Y10043   1.426   3.052   4.267  0.8299  1.0425  0.4482
  100SAPC  C31510044   1.527   3.136   4.447 -0.4296  1.1438  0.6707
  100SAPC  H15X10045   1.523   3.247   4.434 -1.1333  1.0618  0.1152
  100SAPC  H15Y10046   1.611   3.111   4.514 -0.4631 -0.6575  0.1012
  100SAPC  C31610047   1.401   3.090   4.531  0.3936  0.0107 -0.5844
  100SAPC  H16X10048   1.310   3.131   4.483  0.7917  1.4186 -0.1916
  100SAPC  H16Y10049   1.406   3.139   4.631 -0.1427 -0.0199 -0.5395
  100SAPC  C31710050   1.394   2.940   4.547 -0.1175 -0.0800 -0.3561
  100SAPC  H17X10051   1.484   2.912   4.606  0.0616  1.5027  0.1907
  100SAPC  H17Y10052   1.406   2.879   4.456  0.3335 -1.3622  0.5378
  100SAPC  C31810053   1.272   2.909   4.618  0.3029  0.4796  0.2437
  100SAPC  H18X10054   1.261   2.966   4.713  1.4623  0.0576  0.6506
  100SAPC  H18Y10055   1.278   2.802   4.648  4.2185  0.9460  1.7125
  100SAPC  H18Z10056   1.176   2.931   4.567 -0.3866 -2.9854 -0.1554
  101OSM      N10057   4.622   1.601   6.604 -0.0634  0.2990 -0.0611
  101OSM    C1510058   4.595   1.702   6.498  0.0844 -0.0497 -0.1692
  101OSM   H15A10059   4.498   1.746   6.512  1.0188  1.4093  2.7463
  101OSM   H15B10060   4.600   1.660   6.399 -0.0376 -1.7883  0.5384
  101OSM   H15C10061   4.655   1.792   6.505 -0.4410  0.2355  0.8504
  101OSM    C1410062   4.745   1.525   6.568 -0.4636  0.2345 -0.0977
  101OSM   H14A10063   4.767   1.443   6.635  1.5754 -1.1307 -2.2715
  101OSM   H14B10064   4.837   1.582   6.570  0.8742 -1.7642 -1.3508
  101OSM   H14C10065   4.744   1.479   6.470 -0.0288  0.7068 -0.3283
  101OSM    C1310066   4.629   1.656   6.745 -0.1193 -0.1448 -0.5869
  101OSM   H13A10067   4.709   1.727   6.760  0.2006 -0.8758  1.4225
  101OSM   H13B10068   4.656   1.576   6.812 -0.9536  0.9399  1.1196
  101OSM   H13C10069   4.535   1.692   6.784  0.2058  0.0744  0.0072
  101OSM    C1210070   4.494   1.509   6.596 -0.1763 -0.0631 -0.6807
  101OSM   H12A10071   4.529   1.409   6.619 -0.5362 -0.3169 -1.1886
  101OSM   H12B10072   4.470   1.506   6.490 -0.5999 -2.2599 -0.5690
  101OSM    C1110073   4.370   1.541   6.671  0.0811  0.2709 -1.1486
  101OSM   H11A10074   4.389   1.522   6.779 -1.5068  2.3060 -0.4435
  101OSM   H11B10075   4.303   1.456   6.643  0.0987  0.3999 -1.5801
  101OSM      P10076   4.227   1.694   6.512 -0.3714  0.0521 -0.3643
  101OSM    O1310077   4.092   1.647   6.537  0.4235 -0.3600  0.6409
  101OSM    O1410078   4.236   1.832   6.468 -0.0181 -0.1969  0.0744
  101OSM    O1110079   4.291   1.593   6.403  0.1743  0.0875  0.6329
  101OSM    O1210080   4.319   1.673   6.642  0.3783  0.2352  0.0886
  101OSM    C1S10081   4.289   1.641   6.266  0.1882 -0.0727 -0.4106
  101OSM    H1S10082   4.361   1.726   6.257 -0.4959  0.5699  0.1099
  101OSM    H1T10083   4.199   1.700   6.240  1.0891  1.6931  0.3613
  101OSM     NF10084   4.375   1.596   6.029  0.5519 -0.4624  0.6664
  101OSM    HNF10085   4.311   1.576   5.955 -2.1534  0.7953  2.4643
  101OSM    C2S10086   4.324   1.534   6.154  0.7141 -0.0269 -0.5970
  101OSM    H2S10087   4.410   1.482   6.201 -0.0389  0.1300  1.0100
  101OSM    C3S10088   4.200   1.436   6.138 -1.2400 -0.7137  0.6191
  101OSM    H3S10089   4.117   1.489   6.087 -0.4704 -1.4727 -1.5177
  101OSM     O310090   4.148   1.390   6.261 -0.3961  0.4931  0.8222
  101OSM    HO310091   4.184   1.455   6.321  0.6075  1.4276 -0.7312
  101OSM    C4S10092   4.235   1.316   6.059  0.4244  0.3120  0.6749
  101OSM    H4S10093   4.314   1.257   6.107  0.2073 -0.6895 -0.1568
  101OSM    C5S10094   4.194   1.284   5.929 -0.8058  0.5128 -0.5391
  101OSM    H5S10095   4.127   1.350   5.872 -0.6325  0.3527 -0.9308
  101OSM    C6S10096   4.252   1.164   5.862  0.2886  0.0426  0.2403
  101OSM    H6S10097   4.255   1.190   5.754  0.3595  2.6642  0.8080
  101OSM    H6T10098   4.184   1.076   5.867  0.2129  0.1641  1.3835
  101OSM    C7S10099   4.393   1.108   5.898  0.7318  0.4945  0.1368
  101OSM    H7S10100   4.413   1.102   6.007 -0.1871  1.8437  0.4008
  101OSM    H7T10101   4.465   1.182   5.858 -1.0766  1.6801 -1.0520
  101OSM    C8S10102   4.421   0.966   5.836 -0.5148 -0.3062 -0.7002
  101OSM    H8S10103   4.356   0.885   5.876 -0.9017 -0.2794 -1.2517
  101OSM    H8T10104   4.526   0.942   5.862  0.2081  0.7141 -2.5488
  101OSM    C9S10105   4.410   0.970   5.692  0.3071 -0.2973  0.3629
  101OSM    H9S10106   4.460   1.054   5.640 -1.0647 -0.7754 -1.8525
  101OSM    H9T10107   4.302   0.994   5.680  0.5819  0.5745 -0.4253
  101OSM   C10S10108   4.436   0.837   5.625 -0.4347  0.1027  0.5047
  101OSM   H10S10109   4.380   0.754   5.672  0.8592  0.2606  2.4554
  101OSM   H10T10110   4.545   0.817   5.636 -0.1402 -0.0316 -2.0189
  101OSM   C11S10111   4.417   0.834   5.475  0.8539  0.1788 -0.4189
  101OSM   H11S10112   4.469   0.921   5.429  1.9684  0.3572  1.0702
  101OSM   H11T10113   4.310   0.844   5.449  1.0817  0.6478 -1.1893
  101OSM   C12S10114   4.471   0.709   5.397 -0.5869  0.0348  0.0338
  101OSM   H12S10115   4.423   0.623   5.449  2.0085 -0.8887  1.0365
  101OSM   H12T10116   4.580   0.701   5.412 -0.6883  0.0943  0.8207
  101OSM   C13S10117   4.452   0.716   5.247  0.7516 -0.2885 -0.3256
  101OSM   H13S10118   4.488   0.816   5.215 -0.9866  0.7905  0.9288
  101OSM   H13T10119   4.343   0.725   5.227 -0.0505 -1.1694  2.9843
  101OSM   C14S10120   4.507   0.599   5.160  0.4666  0.3899  0.0130
  101OSM   H14S10121   4.470   0.500   5.194  0.3208  0.9915  1.7201
  101OSM   H14T10122   4.618   0.606   5.165  0.7873 -2.1111 -1.7131
  101OSM   C15S10123   4.460   0.602   5.020  0.5618 -0.5251 -0.5433
  101OSM   H15S10124   4.491   0.696   4.968  0.6312 -0.9045 -1.2007
  101OSM   H15T10125   4.349   0.601   5.021  0.3521  2.9493  2.7654
  101OSM   C16S10126   4.507   0.475   4.945  0.1920 -0.5879  0.1039
  101OSM   H16S10127   4.419   0.407   4.941 -2.5216  2.6534  0.6169
  101OSM   H16T10128   4.585   0.424   5.006  0.3723 -2.1125 -1.3327
  101OSM   C17S10129   4.549   0.510   4.799  0.0550  0.4177 -0.1986
  101OSM   H17S10130   4.571   0.415   4.744 -1.0218 -0.7265  1.2856
  101OSM   H17T10131   4.643   0.569   4.802  0.8928 -0.9033  0.8034
  101OSM   C18S10132   4.449   0.584   4.714  0.0978 -0.5249 -0.0586
  101OSM   H18S10133   4.357   0.525   4.699 -0.9869  0.7991  1.0947
  101OSM   H18T10134   4.494   0.608   4.615  0.6021  0.3480  0.3641
  101OSM   H18U10135   4.415   0.683   4.751  0.1617 -0.2923 -0.6002
  101OSM    C1F10136   4.488   1.661   6.012 -0.6769  0.3993 -0.7759
  101OSM     OF10137   4.559   1.698   6.106 -0.1863 -0.5432 -0.4572
  101OSM    C2F10138   4.551   1.662   5.872  0.2813  0.0732 -0.5310
  101OSM    H2F10139   4.509   1.583   5.805  0.1970  0.9641 -1.5554
  101OSM    H2G10140   4.654   1.628   5.894 -0.2629 -0.4663  1.3961
  101OSM    C3F10141   4.556   1.799   5.798  0.5474 -0.8420  0.0507
  101OSM    H3F10142   4.606   1.865   5.872  1.4833 -2.5603  1.0130
  101OSM    H3G10143   4.453   1.831   5.771  1.3784  2.0700  0.0224
  101OSM    C4F10144   4.645   1.797   5.673  0.4477 -0.3792  0.5387
  101OSM    H4F10145   4.656   1.899   5.631  1.1540  0.2644  2.1968
  101OSM    H4G10146   4.583   1.732   5.609 -1.8867  1.0636  1.2270
  101OSM    C5F10147   4.790   1.741   5.687  0.4140  0.3576 -0.3912
  101OSM    H5F10148   4.784   1.646   5.744 -3.5982  0.3643 -0.4837
  101OSM    H5G10149   4.831   1.814   5.760 -1.8433  0.5250  0.8094
  101OSM    C6F10150   4.872   1.720   5.566 -0.1402 -0.5701  0.4867
  101OSM    H6F10151   4.960   1.665   5.606  0.4073  0.3263  0.5308
  101OSM    H6G10152   4.902   1.815   5.516  0.6639 -0.1239  1.7616
  101OSM    C7F10153   4.804   1.635   5.460  0.4582 -0.4169  0.1968
  101OSM    H7F10154   4.717   1.695   5.426  0.5531 -0.8845 -0.9097
  101OSM    H7G10155   4.770   1.540   5.508  0.6357 -0.5031  0.1532
  101OSM    C8F10156   4.887   1.590   5.342  0.1509 -0.7714 -0.1412
  101OSM    H8F10157   4.963   1.515   5.372 -1.2442 -2.2037 -0.0519
  101OSM    H8G10158   4.937   1.683   5.307 -1.5030 -0.2315 -1.1577
  101OSM    C9F10159   4.795   1.537   5.242  0.1634 -0.2378  0.2383
  101OSM    H9F10160   4.699   1.589   5.230  0.6518  0.6338 -0.0153
  101OSM   C10F10161   4.828   1.463   5.133 -0.4296 -0.0695 -0.2619
  101OSM   H10F10162   4.737   1.433   5.078 -2.4756  2.1311  1.6953
  101OSM   C11F10163   4.959   1.392   5.103  0.3468 -0.3418 -0.4996
  101OSM   H11F10164   4.943   1.290   5.144 -0.4106 -0.9823 -2.3007
  101OSM   H11G10165   5.049   1.437   5.151  0.3637  0.6814 -1.4526
  101OSM   C12F10166   4.987   1.378   4.951  0.0017 -0.4778 -0.3376
  101OSM   H12F10167   5.087   1.338   4.923 -0.7563 -3.4383  0.8061
  101OSM   H12G10168   4.981   1.478   4.904 -2.0133 -0.8807 -1.0450
  101OSM   C13F10169   4.882   1.294   4.885  0.3833  0.6458 -0.1283
  101OSM   H13F10170   4.783   1.310   4.932  0.0320  2.3747 -1.3591
  101OSM   H13G10171   4.889   1.185   4.903 -2.4497  0.5014  0.5215
  101OSM   C14F10172   4.864   1.317   4.731 -0.9582  0.7590 -0.2553
  101OSM   H14F10173   4.950   1.270   4.679 -0.1305  0.9817  0.8864
  101OSM   H14G10174   4.869   1.426   4.710  3.6175  0.6392 -0.6465
  101OSM   C15F10175   4.731   1.246   4.681 -0.5903 -0.3813 -0.1245
  101OSM   H15F10176   4.646   1.307   4.716 -1.7752 -2.3299  0.5926
  101OSM   H15G10177   4.719   1.148   4.733  1.0135 -1.6939 -2.0702
  101OSM   C16F10178   4.725   1.237   4.521 -0.0523 -0.4654  0.5570
  101OSM   H16F10179   4.809   1.180   4.477  0.1958  1.0622 -1.0420
  101OSM   H16G10180   4.735   1.340   4.481  0.9835 -1.6640 -2.4757
  101OSM   C17F10181   4.586   1.188   4.468 -0.0189  0.6499 -0.0636
  101OSM   H17F10182   4.550   1.095   4.517 -1.0675  2.4298  2.8184
  101OSM   H17G10183   4.597   1.183   4.357  1.0545  1.0836  0.0164
  101OSM   C18F10184   4.476   1.298   4.498 -0.0797  0.1450 -0.2630
  101OSM   H18F10185   4.432   1.295   4.600 -0.1076  4.3201  0.0211
  101OSM   H18G10186   4.397   1.282   4.422 -1.1555  0.5250  0.7490
  101OSM   H18H10187   4.516   1.398   4.469 -1.5604  0.6133 -0.7682
  102OSM      N10188   5.825   1.256   7.003  0.2322 -0.2934 -0.0143
  102OSM    C1510189   5.951   1.192   6.959  0.8359  0.2128  0.3997
  102OSM   H15A10190   5.940   1.188   6.852 -1.1791  1.8610  0.4770
  102OSM   H15B10191   5.959   1.092   7.000 -1.8597 -0.0614  0.4498
  102OSM   H15C10192   6.035   1.257   6.975 -0.1315  2.6904 -3.2921
  102OSM    C1410193   5.807   1.241   7.153 -0.5408  0.0613  0.0549
  102OSM   H14A10194   5.788   1.135   7.163  0.2877 -0.1255 -0.2231
  102OSM   H14B10195   5.726   1.305   7.185  0.4414  1.2623  0.2317
  102OSM   H14C10196   5.897   1.254   7.211  0.5073 -2.2980 -0.8981
  102OSM    C1310197   5.856   1.399   6.985  0.7276  0.0146 -0.0574
  102OSM   H13A10198   5.954   1.415   7.028  0.3246 -1.1991  1.4009
  102OSM   H13B10199   5.779   1.450   7.041 -0.1069 -0.8339 -0.4067
  102OSM   H13C10200   5.851   1.433   6.883 -1.9186 -0.5956 -0.2078
  102OSM    C1210201   5.701   1.204   6.931 -0.0566 -0.1896  0.0908
  102OSM   H12A10202   5.624   1.263   6.980  1.0459  2.0900 -0.7479
  102OSM   H12B10203   5.672   1.107   6.968 -2.0246  0.7157  1.0700
  102OSM    C1110204   5.698   1.216   6.782  0.7935  0.6562  0.8718
  102OSM   H11A10205   5.727   1.316   6.742 -1.7179 -0.0452 -3.2108
  102OSM   H11B10206   5.596   1.203   6.742  1.6559  0.1536 -1.2683
  102OSM      P10207   5.765   0.965   6.713  0.0659  0.2204 -0.0657
  102OSM    O1310208   5.903   0.913   6.693 -0.9237 -0.4413  0.3262
  102OSM    O1410209   5.701   0.924   6.831  0.9391  0.2340 -0.2957
  102OSM    O1110210   5.657   0.932   6.605  0.5771  0.3627 -0.0352
  102OSM    O1210211   5.778   1.121   6.718  0.4469 -0.3322  0.0012
  102OSM    C1S10212   5.698   0.941   6.471  1.0289  0.0578  0.0074
  102OSM    H1S10213   5.744   0.843   6.445  2.1073  0.7025 -0.5722
  102OSM    H1T10214   5.774   1.019   6.451  2.0261 -0.3687  1.9521
  102OSM     NF10215   5.610   0.932   6.249  0.9572  0.1318 -0.4899
  102OSM    HNF10216   5.611   1.011   6.188  2.3493 -1.6176 -2.9051
  102OSM    C2S10217   5.571   0.960   6.384 -0.1029  0.1137 -0.3724
  102OSM    H2S10218   5.508   0.874   6.419  0.5381  0.3922  1.5959
  102OSM    C3S10219   5.499   1.092   6.407  0.7972 -0.4404  0.2150
  102OSM    H3S10220   5.571   1.173   6.381  1.5854 -1.6113 -1.3968
  102OSM     O310221   5.466   1.120   6.545 -0.0194 -0.7731 -0.0732
  102OSM    HO310222   5.516   1.052   6.590 -0.3567 -1.3313 -0.5301
  102OSM    C4S10223   5.376   1.106   6.331  0.3426  0.4017  0.3306
  102OSM    H4S10224   5.284   1.049   6.353  1.6793 -1.8596  0.4046
  102OSM    C5S10225   5.357   1.186   6.227 -0.0825 -0.7145 -1.2010
  102OSM    H5S10226   5.431   1.246   6.172 -0.6223  0.4292 -0.7262
  102OSM    C6S10227   5.233   1.203   6.153  0.6660  0.1302 -0.5336
  102OSM    H6S10228   5.186   1.297   6.188  1.0278 -0.1233  0.7023
  102OSM    H6T10229   5.158   1.130   6.192  0.0015  1.5759  1.0217
  102OSM    C7S10230   5.235   1.193   6.004 -0.3059 -0.0678  0.2530
  102OSM    H7S10231   5.311   1.267   5.970  0.7531 -2.1574 -2.2803
  102OSM    H7T10232   5.143   1.237   5.959  0.9063  3.3433  0.8368
  102OSM    C8S10233   5.285   1.056   5.962 -0.1076 -0.4472 -0.4297
  102OSM    H8S10234   5.214   0.980   6.003  1.4868 -1.8256 -0.1370
  102OSM    H8T10235   5.379   1.038   6.017 -1.1562  0.8159  1.9087
  102OSM    C9S10236   5.293   1.046   5.811  0.3144  0.3922  0.1217
  102OSM    H9S10237   5.187   1.060   5.780 -0.3350 -1.8789  1.0810
  102OSM    H9T10238   5.328   0.942   5.793  0.2678 -0.1873  2.9019
  102OSM   C10S10239   5.383   1.134   5.722 -0.1057  0.9345  0.7586
  102OSM   H10S10240   5.487   1.100   5.736 -0.7617 -0.8721  1.5681
  102OSM   H10T10241   5.371   1.240   5.753 -0.6872  1.4125 -0.9957
  102OSM   C11S10242   5.340   1.120   5.569 -0.3238  0.0616  0.0514
  102OSM   H11S10243   5.231   1.138   5.560 -0.4255 -0.1052  0.8723
  102OSM   H11T10244   5.364   1.025   5.518 -1.2328  0.3009 -0.8463
  102OSM   C12S10245   5.394   1.239   5.492 -0.2022  0.4187  0.1698
  102OSM   H12S10246   5.502   1.234   5.467 -0.2387 -0.1677  0.1241
  102OSM   H12T10247   5.380   1.329   5.556  0.3178  0.2428  0.5339
  102OSM   C13S10248   5.323   1.256   5.359 -0.0824 -0.7303 -0.5666
  102OSM   H13S10249   5.216   1.268   5.385  0.5908  0.0329  2.1241
  102OSM   H13T10250   5.340   1.166   5.295  0.5312 -0.5428 -0.6707
  102OSM   C14S10251   5.361   1.379   5.284  0.3064  0.4565  0.4615
  102OSM   H14S10252   5.468   1.410   5.286 -0.1741  2.2319 -0.1312
  102OSM   H14T10253   5.310   1.468   5.326 -1.0617  0.1093 -0.4174
  102OSM   C15S10254   5.319   1.383   5.134  0.7279  0.3542 -0.3575
  102OSM   H15S10255   5.278   1.482   5.105  0.4579  0.5024  0.4971
  102OSM   H15T10256   5.241   1.304   5.130 -0.5907  1.6121 -0.3017
  102OSM   C16S10257   5.432   1.350   5.037 -0.4056 -0.3343  0.6020
  102OSM   H16S10258   5.476   1.250   5.060  0.4620 -0.5104 -1.6132
  102OSM   H16T10259   5.513   1.425   5.051  0.1597 -0.6621 -0.7867
  102OSM   C17S10260   5.387   1.368   4.894  0.6937 -0.9442  0.3751
  102OSM   H17S10261   5.367   1.475   4.872  3.3779 -0.5145 -0.2674
  102OSM   H17T10262   5.299   1.303   4.876  0.8205 -0.9058 -0.4050
  102OSM   C18S10263   5.493   1.308   4.792 -0.5407  0.0880 -0.2042
  102OSM   H18S10264   5.505   1.199   4.808  0.1773  0.1778 -0.1233
  102OSM   H18T10265   5.592   1.353   4.811  0.5696 -2.6687  1.1055
  102OSM   H18U10266   5.474   1.333   4.685 -0.5322 -0.9695 -0.4676
  102OSM    C1F10267   5.646   0.812   6.194  0.2603  0.0150 -0.1556
  102OSM     OF10268   5.661   0.707   6.257  0.6452 -0.5390  0.2830
  102OSM    C2F10269   5.670   0.812   6.047 -0.3603 -0.3264 -0.3024
  102OSM    H2F10270   5.778   0.824   6.025 -0.0484  0.6231  1.5109
  102OSM    H2G10271   5.623   0.900   5.999  1.1123 -0.2321 -1.6571
  102OSM    C3F10272   5.614   0.679   5.996  0.5533 -0.2713 -0.2713
  102OSM    H3F10273   5.519   0.657   6.050 -0.2080  3.4088  0.1548
  102OSM    H3G10274   5.663   0.584   6.027 -2.1970 -1.7825 -0.1931
  102OSM    C4F10275   5.606   0.683   5.849 -0.3333 -0.5270 -0.0002
  102OSM    H4F10276   5.532   0.762   5.827 -0.1587 -0.5967 -0.8545
  102OSM    H4G10277   5.559   0.585   5.827 -4.0196  0.7758  1.3218
  102OSM    C5F10278   5.731   0.727   5.783 -0.2818  0.4799 -0.5161
  102OSM    H5F10279   5.812   0.664   5.826  0.0379  0.9192 -0.4757
  102OSM    H5G10280   5.761   0.832   5.800  4.8273 -0.4497 -2.0244
  102OSM    C6F10281   5.732   0.708   5.636 -0.2224  0.6609  0.6460
  102OSM    H6F10282   5.702   0.606   5.604 -0.2764  1.1268 -0.8744
  102OSM    H6G10283   5.838   0.719   5.603 -0.3512 -0.7498 -0.3308
  102OSM    C7F10284   5.649   0.813   5.563  0.2174 -0.0444  0.0307
  102OSM    H7F10285   5.681   0.912   5.602 -2.2430  0.3996  1.1359
  102OSM    H7G10286   5.544   0.798   5.596  0.7171  0.9661  2.3379
  102OSM    C8F10287   5.645   0.807   5.413 -0.1279 -0.2936 -0.0754
  102OSM    H8F10288   5.563   0.869   5.371 -1.2252 -0.9727  1.0068
  102OSM    H8G10289   5.618   0.702   5.387  1.2110 -0.2437 -1.8719
  102OSM    C9F10290   5.785   0.845   5.360 -1.2484 -0.0947 -0.0676
  102OSM    H9F10291   5.873   0.800   5.406 -1.6789  0.6690  1.5932
  102OSM   C10F10292   5.813   0.936   5.263 -0.1250 -0.3521  0.5050
  102OSM   H10F10293   5.918   0.960   5.241 -0.0657 -0.3012  0.8471
  102OSM   C11F10294   5.713   1.028   5.189 -0.8509 -0.1188 -0.0057
  102OSM   H11F10295   5.726   1.125   5.244 -0.5681  1.0971 -2.1149
  102OSM   H11G10296   5.606   0.998   5.187 -0.4786 -1.4922 -0.2074
  102OSM   C12F10297   5.759   1.050   5.042  0.0019  0.6887  0.2486
  102OSM   H12F10298   5.865   1.082   5.041  0.8284 -1.7827  1.0744
  102OSM   H12G10299   5.705   1.136   4.996 -3.0791 -1.9608 -1.4832
  102OSM   C13F10300   5.753   0.923   4.946  0.7918 -0.1429  0.2817
  102OSM   H13F10301   5.655   0.871   4.954  0.3762  0.5925  0.0917
  102OSM   H13G10302   5.839   0.860   4.977  0.4909 -0.4246  0.5515
  102OSM   C14F10303   5.768   0.962   4.796  0.4388  0.0212 -0.7512
  102OSM   H14F10304   5.682   1.028   4.772 -0.2062 -0.5780 -0.1477
  102OSM   H14G10305   5.756   0.869   4.737  0.4663 -0.7285  0.3878
  102OSM   C15F10306   5.908   1.022   4.772 -0.8918  0.3161  0.3581
  102OSM   H15F10307   5.985   0.959   4.823 -0.2581  0.4711 -0.3852
  102OSM   H15G10308   5.916   1.126   4.810  0.9419 -0.5360  2.6118
  102OSM   C16F10309   5.943   1.032   4.619  0.2965  0.3721 -0.6364
  102OSM   H16F10310   5.925   0.933   4.573 -0.9875  0.1032  0.3590
  102OSM   H16G10311   6.053   1.037   4.606  0.2442  0.4466 -1.0603
  102OSM   C17F10312   5.881   1.146   4.540  0.3126 -0.1956 -0.3139
  102OSM   H17F10313   5.904   1.243   4.589 -0.4264  1.0296 -2.3076
  102OSM   H17G10314   5.773   1.132   4.523  0.4693  0.1122 -1.6884
  102OSM   C18F10315   5.936   1.146   4.393 -0.2184  0.8946 -0.8415
  102OSM   H18F10316   5.890   1.055   4.347 -1.0556  1.4885 -1.2130
  102OSM   H18G10317   6.047   1.141   4.393 -0.1617  1.8797 -0.4916
  102OSM   H18H10318   5.902   1.234   4.334 -0.2607  1.3232 -0.1945
  103OSM      N10319   3.673   3.841   6.767  0.1191 -0.4025 -0.8263
  103OSM    C1510320   3.790   3.899   6.837  0.3551  0.7991 -0.6053
  103OSM   H15A10321   3.838   3.835   6.911  0.3444  0.9605 -0.4581
  103OSM   H15B10322   3.771   3.995   6.883 -1.7643 -0.4105  1.3114
  103OSM   H15C10323   3.874   3.927   6.776  2.3267 -1.5012  0.8313
  103OSM    C1410324   3.590   3.767   6.878 -0.3402  0.0751 -0.1784
  103OSM   H14A10325   3.567   3.836   6.958  0.1256 -1.3314  1.2149
  103OSM   H14B10326   3.658   3.695   6.922 -0.6539 -0.4455 -0.5391
  103OSM   H14C10327   3.495   3.728   6.846 -1.4183  1.4018  1.2344
  103OSM    C1310328   3.592   3.963   6.723  0.2739  0.8188 -0.0424
  103OSM   H13A10329   3.639   4.022   6.646 -0.4582  1.0656 -0.3044
  103OSM   H13B10330   3.566   4.021   6.811 -0.1183 -1.7429  1.6460
  103OSM   H13C10331   3.501   3.939   6.670 -0.4507  3.3755 -0.1161
  103OSM    C1210332   3.718   3.746   6.658  0.1337  0.6582  0.0754
  103OSM   H12A10333   3.782   3.669   6.698  4.5105  2.9115 -1.8661
  103OSM   H12B10334   3.788   3.798   6.595  1.3241 -0.1954  0.6530
  103OSM    C1110335   3.608   3.680   6.576  0.4607  0.0101  0.4982
  103OSM   H11A10336   3.641   3.648   6.475 -1.8443  1.2666 -0.7279
  103OSM   H11B10337   3.536   3.758   6.544  0.9211  1.0192  1.7840
  103OSM      P10338   3.579   3.440   6.650 -0.1954 -0.1929  0.1371
  103OSM    O1310339   3.719   3.442   6.700  0.1715 -0.3500  0.0933
  103OSM    O1410340   3.483   3.358   6.722 -0.6712 -0.4052 -0.6237
  103OSM    O1110341   3.593   3.392   6.501  0.0682 -0.0799  0.5650
  103OSM    O1210342   3.531   3.587   6.645  0.4485  0.3082 -0.5550
  103OSM    C1S10343   3.476   3.376   6.426  1.0024  0.3585 -0.3669
  103OSM    H1S10344   3.409   3.462   6.445 -0.2627 -0.7002  0.1443
  103OSM    H1T10345   3.420   3.290   6.471  2.5931  0.8673  2.9151
  103OSM     NF10346   3.385   3.362   6.191  0.1593 -0.0585 -0.5241
  103OSM    HNF10347   3.352   3.270   6.172 -1.2232  0.2670  0.1660
  103OSM    C2S10348   3.507   3.365   6.271 -0.3494  0.4561  0.2074
  103OSM    H2S10349   3.557   3.459   6.240 -0.6210 -0.1688 -2.2980
  103OSM    C3S10350   3.601   3.243   6.249 -0.7646 -0.1715 -0.4633
  103OSM    H3S10351   3.565   3.156   6.308 -0.6985 -0.1256 -0.3565
  103OSM     O310352   3.731   3.246   6.304 -0.6167 -0.1111  0.3776
  103OSM    HO310353   3.712   3.305   6.378  1.7505 -2.9676  3.6267
  103OSM    C4S10354   3.617   3.200   6.102  0.0118  0.2964 -0.1080
  103OSM    H4S10355   3.672   3.265   6.032  2.1393 -0.6993  0.5732
  103OSM    C5S10356   3.568   3.088   6.047  0.3836  0.3145 -0.6761
  103OSM    H5S10357   3.523   3.014   6.114  1.9709 -0.6131 -0.5807
  103OSM    C6S10358   3.567   3.063   5.902 -0.6130  0.0528 -0.5532
  103OSM    H6S10359   3.460   3.081   5.877 -0.7578  1.3542  0.8193
  103OSM    H6T10360   3.600   2.959   5.881  3.4129  0.7793  1.1893
  103OSM    C7S10361   3.648   3.160   5.810  0.2019 -0.0613  0.2288
  103OSM    H7S10362   3.751   3.134   5.842 -0.9645 -3.9592  1.3309
  103OSM    H7T10363   3.631   3.266   5.840 -1.0771 -0.7936  2.3901
  103OSM    C8S10364   3.630   3.143   5.656 -1.0914 -0.4533 -0.0480
  103OSM    H8S10365   3.539   3.195   5.620  0.0413  0.2077 -2.1466
  103OSM    H8T10366   3.627   3.034   5.640  1.0537 -0.9752  2.3025
  103OSM    C9S10367   3.736   3.201   5.567 -0.1576 -0.2096 -0.5954
  103OSM    H9S10368   3.825   3.136   5.581 -0.4360 -1.1632 -2.8670
  103OSM    H9T10369   3.764   3.303   5.601 -0.6172 -0.5522  0.9078
  103OSM   C10S10370   3.684   3.198   5.415 -0.0789 -0.2219  0.9945
  103OSM   H10S10371   3.578   3.230   5.408  0.2682  0.7325 -0.3133
  103OSM   H10T10372   3.689   3.093   5.380 -0.0237  0.3411 -0.7959
  103OSM   C11S10373   3.762   3.294   5.322  0.2132  0.4310 -0.0426
  103OSM   H11S10374   3.866   3.257   5.307  0.0351 -0.4550  0.8282
  103OSM   H11T10375   3.761   3.398   5.361  0.1428 -0.0330  1.2443
  103OSM   C12S10376   3.694   3.295   5.180 -0.5998 -0.2014 -0.1498
  103OSM   H12S10377   3.614   3.373   5.182 -0.1669  0.2556  2.3314
  103OSM   H12T10378   3.649   3.196   5.157 -1.6578  0.8755 -3.3656
  103OSM   C13S10379   3.797   3.327   5.069 -0.3937  0.3512  0.6504
  103OSM   H13S10380   3.867   3.242   5.066  1.2457  1.4358 -5.5265
  103OSM   H13T10381   3.856   3.420   5.085 -1.3591  1.7192 -2.7691
  103OSM   C14S10382   3.740   3.335   4.931 -0.6411  0.5688 -0.6985
  103OSM   H14S10383   3.655   3.407   4.926 -2.9717 -1.8166  1.5666
  103OSM   H14T10384   3.699   3.237   4.900 -2.0012  0.8484  0.1660
  103OSM   C15S10385   3.849   3.380   4.826  0.0434  0.7564  0.8354
  103OSM   H15S10386   3.930   3.306   4.841 -1.1993 -1.3538 -1.8864
  103OSM   H15T10387   3.888   3.478   4.859  0.1654  2.0910 -2.8347
  103OSM   C16S10388   3.798   3.376   4.678  0.5132 -0.3420 -0.6019
  103OSM   H16S10389   3.725   3.460   4.675 -0.1905 -0.9644 -3.2577
  103OSM   H16T10390   3.746   3.279   4.666 -1.3955  0.7164 -1.3155
  103OSM   C17S10391   3.914   3.380   4.577 -0.2092 -0.8933 -0.4272
  103OSM   H17S10392   3.992   3.316   4.623 -1.4499 -0.3294  2.7357
  103OSM   H17T10393   3.950   3.485   4.570  0.9727 -1.3011 -0.5559
  103OSM   C18S10394   3.875   3.314   4.444 -0.5222  0.6518  0.1804
  103OSM   H18S10395   3.822   3.221   4.472  0.3287  0.0534 -0.1522
  103OSM   H18T10396   3.958   3.299   4.372 -0.5248 -1.3801  0.5542
  103OSM   H18U10397   3.803   3.379   4.390 -1.2330 -1.6201 -1.7805
  103OSM    C1F10398   3.322   3.473   6.148 -0.7778  0.0041  0.0257
  103OSM     OF10399   3.361   3.583   6.192 -0.0592  0.7581  0.0053
  103OSM    C2F10400   3.228   3.457   6.035  0.4660 -0.4043  1.0436
  103OSM    H2F10401   3.176   3.553   6.019 -1.7213 -1.7647 -0.4553
  103OSM    H2G10402   3.154   3.382   6.069  0.7633 -1.4428 -0.5106
  103OSM    C3F10403   3.293   3.417   5.898 -0.2047  0.3076 -0.3122
  103OSM    H3F10404   3.209   3.406   5.827 -0.9174 -1.6579  0.7723
  103OSM    H3G10405   3.350   3.322   5.909 -0.6334 -0.1265 -1.6285
  103OSM    C4F10406   3.400   3.515   5.851  0.4225 -0.2158  0.9683
  103OSM    H4F10407   3.493   3.507   5.911  0.3431 -1.3656  0.9459
  103OSM    H4G10408   3.351   3.615   5.845 -0.1905 -0.5259  0.7188
  103OSM    C5F10409   3.440   3.483   5.700  0.6408 -0.0505 -0.1101
  103OSM    H5F10410   3.347   3.438   5.661  1.3849 -1.2093 -0.6148
  103OSM    H5G10411   3.512   3.398   5.689 -0.7129 -1.0369 -1.6783
  103OSM    C6F10412   3.483   3.606   5.620 -0.1196 -0.1900  0.5590
  103OSM    H6F10413   3.593   3.605   5.631 -0.0332  1.4110  0.1037
  103OSM    H6G10414   3.433   3.698   5.657 -1.8226 -0.5308 -0.7535
  103OSM    C7F10415   3.473   3.596   5.462 -0.1412  0.3918 -0.7086
  103OSM    H7F10416   3.365   3.586   5.441 -0.1500  0.3848 -0.6584
  103OSM    H7G10417   3.529   3.508   5.424  1.5653  1.8148 -1.6413
  103OSM    C8F10418   3.519   3.727   5.392  0.0653 -0.0411  0.2242
  103OSM    H8F10419   3.625   3.730   5.427 -0.9177  0.6565  3.5414
  103OSM    H8G10420   3.469   3.820   5.426  0.7488  0.8656 -1.1523
  103OSM    C9F10421   3.489   3.711   5.241 -0.4238  0.5796  0.8426
  103OSM    H9F10422   3.385   3.736   5.214 -0.7719  0.5332  2.0941
  103OSM   C10F10423   3.579   3.697   5.142  0.0274 -1.0132 -0.1680
  103OSM   H10F10424   3.551   3.695   5.036 -1.0107  1.0362  0.0169
  103OSM   C11F10425   3.729   3.686   5.165 -0.1980  1.0080 -0.0584
  103OSM   H11F10426   3.765   3.599   5.106  0.8596  0.9401  0.6718
  103OSM   H11G10427   3.754   3.655   5.268  2.9795 -1.7279 -1.4699
  103OSM   C12F10428   3.806   3.819   5.144  0.2746  0.8483 -0.1595
  103OSM   H12F10429   3.910   3.796   5.177  0.3651  0.6023 -0.6027
  103OSM   H12G10430   3.769   3.900   5.210 -0.3768 -1.0029  1.8598
  103OSM   C13F10431   3.813   3.868   4.998 -0.3859 -0.0782  0.3607
  103OSM   H13F10432   3.887   3.951   4.991 -0.3915 -0.0925  0.0988
  103OSM   H13G10433   3.717   3.903   4.955 -1.3407 -1.1786  1.5556
  103OSM   C14F10434   3.867   3.759   4.910  0.6876  0.0770 -0.0422
  103OSM   H14F10435   3.789   3.680   4.902  1.2125 -0.7536  2.4355
  103OSM   H14G10436   3.956   3.707   4.951  1.4888 -1.9345 -3.8197
  103OSM   C15F10437   3.901   3.808   4.762 -0.3247  0.1211 -0.1269
  103OSM   H15F10438   3.809   3.839   4.709 -1.1417  0.3954  1.3895
  103OSM   H15G10439   3.946   3.723   4.706  0.2315 -0.0362  0.5441
  103OSM   C16F10440   4.012   3.921   4.757 -0.3035 -0.6466  0.2126
  103OSM   H16F10441   4.100   3.874   4.807  0.0688 -0.4354 -0.2374
  103OSM   H16G10442   3.977   4.011   4.811  1.4581 -0.6653  1.4595
  103OSM   C17F10443   4.057   3.951   4.608  0.3674  1.1179 -0.3081
  103OSM   H17F10444   3.963   3.969   4.553 -0.0551  1.9480  0.6589
  103OSM   H17G10445   4.120   3.871   4.563  1.5733  0.7865  1.8075
  103OSM   C18F10446   4.131   4.084   4.587 -0.5058  0.3368  0.0610
  103OSM   H18F10447   4.229   4.075   4.640 -0.2732 -0.3979 -0.4759
  103OSM   H18G10448   4.067   4.166   4.624 -1.3938  0.0895 -0.8991
  103OSM   H18H10449   4.156   4.107   4.482 -0.8706 -3.6018 -1.0706
  104OSM      N10450   6.671   1.117   6.623 -0.8907  0.2554  0.3986
  104OSM    C1510451   6.779   1.204   6.570  0.8215  0.2590  0.4477
  104OSM   H15A10452   6.876   1.176   6.608  1.1188 -0.0955 -0.5653
  104OSM   H15B10453   6.773   1.309   6.597  4.3120  0.5504  0.5120
  104OSM   H15C10454   6.774   1.203   6.463  0.0145  3.5834  0.3542
  104OSM    C1410455   6.560   1.148   6.527 -0.0498  0.2106  0.3403
  104OSM   H14A10456   6.467   1.098   6.549  0.4477 -0.0731  1.9909
  104OSM   H14B10457   6.588   1.119   6.427  1.5194  0.0099  0.8048
  104OSM   H14C10458   6.542   1.254   6.526 -0.2308  0.1757 -0.3175
  104OSM    C1310459   6.712   0.977   6.617  0.1873  0.7338  0.1102
  104OSM   H13A10460   6.809   0.952   6.656 -0.8551 -2.9691  0.6820
  104OSM   H13B10461   6.699   0.944   6.515 -2.3049  2.5856 -0.2726
  104OSM   H13C10462   6.646   0.909   6.669  1.2853 -0.2974  0.1728
  104OSM    C1210463   6.641   1.167   6.768 -0.3007  0.0797  0.0485
  104OSM   H12A10464   6.720   1.154   6.840 -0.7067  2.3589  1.0031
  104OSM   H12B10465   6.569   1.092   6.798 -0.6658 -0.0396 -1.0896
  104OSM    C1110466   6.582   1.305   6.781 -0.2420  0.0928 -0.0894
  104OSM   H11A10467   6.545   1.317   6.885  0.1920 -0.9149  0.1914
  104OSM   H11B10468   6.493   1.314   6.716 -1.8304 -2.4319  1.5350
  104OSM      P10469   6.662   1.540   6.702  0.5795  0.3888  0.0940
  104OSM    O1310470   6.533   1.588   6.750  0.2151  0.1350 -0.0956
  104OSM    O1410471   6.779   1.622   6.717  0.4510 -0.0134  0.1804
  104OSM    O1110472   6.655   1.503   6.553  0.3623  0.7607  0.5924
  104OSM    O1210473   6.694   1.398   6.763  0.3408 -0.4209 -0.6038
  104OSM    C1S10474   6.539   1.528   6.472 -0.1385 -0.2698 -0.2773
  104OSM    H1S10475   6.490   1.626   6.488 -0.3612  0.0859 -2.7695
  104OSM    H1T10476   6.459   1.457   6.502 -1.3357  0.6529 -1.2060
  104OSM     NF10477   6.468   1.568   6.228  0.1718  0.2110 -0.2254
  104OSM    HNF10478   6.415   1.496   6.185  1.9335 -0.8688 -0.6920
  104OSM    C2S10479   6.576   1.527   6.311 -0.1398  0.0106 -0.0635
  104OSM    H2S10480   6.646   1.613   6.307 -0.3899  0.3063  1.2524
  104OSM    C3S10481   6.651   1.393   6.272 -0.2496  0.7963  0.5388
  104OSM    H3S10482   6.588   1.307   6.305 -0.4851 -0.2106 -2.2554
  104OSM     O310483   6.770   1.369   6.343  0.6878 -0.5648 -0.0425
  104OSM    HO310484   6.770   1.436   6.412  0.3817 -2.2701  1.7257
  104OSM    C4S10485   6.671   1.376   6.129 -0.8482 -0.0881  1.0644
  104OSM    H4S10486   6.590   1.320   6.081 -1.1689  0.2896  1.1586
  104OSM    C5S10487   6.784   1.403   6.061  0.0464 -0.0036  0.5435
  104OSM    H5S10488   6.876   1.441   6.108 -0.2975  0.7089  0.6616
  104OSM    C6S10489   6.811   1.390   5.909  0.5569  0.3525  0.4954
  104OSM    H6S10490   6.874   1.299   5.900  1.3066  0.9987 -1.0572
  104OSM    H6T10491   6.872   1.479   5.885 -0.5045  1.3340  1.3163
  104OSM    C7S10492   6.698   1.364   5.803 -0.1067 -0.5882 -0.2860
  104OSM    H7S10493   6.630   1.452   5.807 -1.5536 -1.7207  0.7094
  104OSM    H7T10494   6.633   1.283   5.841 -1.0688  0.3735  0.1737
  104OSM    C8S10495   6.746   1.351   5.666 -0.3027 -0.4972  0.7688
  104OSM    H8S10496   6.823   1.272   5.652 -0.8481 -0.6540 -1.7798
  104OSM    H8T10497   6.794   1.444   5.629 -0.5000 -0.7731 -0.2069
  104OSM    C9S10498   6.649   1.325   5.548  0.7977 -0.5176  1.2091
  104OSM    H9S10499   6.572   1.405   5.551  0.2771 -0.9457  0.0121
  104OSM    H9T10500   6.589   1.232   5.544 -0.7923  0.5078 -0.7323
  104OSM   C10S10501   6.713   1.328   5.408 -0.5995  0.2264 -0.4175
  104OSM   H10S10502   6.642   1.337   5.323  0.2938 -1.5449 -1.4313
  104OSM   H10T10503   6.758   1.229   5.386 -0.2577  0.5633 -1.2723
  104OSM   C11S10504   6.823   1.437   5.385  0.2363  0.2654 -0.2775
  104OSM   H11S10505   6.916   1.419   5.443  0.8061 -1.4664 -1.6475
  104OSM   H11T10506   6.783   1.537   5.413  0.9843  0.0503  1.8033
  104OSM   C12S10507   6.867   1.449   5.235 -0.9833 -0.4141 -0.0757
  104OSM   H12S10508   6.948   1.524   5.246 -1.7667  0.8060 -2.0646
  104OSM   H12T10509   6.780   1.489   5.178 -1.9080 -0.5318  1.2200
  104OSM   C13S10510   6.918   1.321   5.163  0.1125 -0.4536 -0.8216
  104OSM   H13S10511   6.836   1.254   5.129  0.3396 -0.5834 -1.1178
  104OSM   H13T10512   6.952   1.263   5.252  1.6141  1.8337  0.1767
  104OSM   C14S10513   7.026   1.334   5.063 -0.2808 -0.5818  0.2270
  104OSM   H14S10514   7.106   1.382   5.123 -0.9419  1.2201 -0.2688
  104OSM   H14T10515   6.994   1.394   4.975 -2.1614  0.2709  1.4264
  104OSM   C15S10516   7.084   1.201   5.010  0.1158  0.4444 -0.3637
  104OSM   H15S10517   6.995   1.147   4.971 -0.5928  1.2671  0.0884
  104OSM   H15T10518   7.116   1.129   5.088  0.6298 -1.4626 -2.2179
  104OSM   C16S10519   7.182   1.224   4.890  0.8419 -0.5665 -0.1497
  104OSM   H16S10520   7.285   1.241   4.928  1.0110 -0.3842 -0.6813
  104OSM   H16T10521   7.137   1.311   4.838 -0.3990 -1.4599 -0.6076
  104OSM   C17S10522   7.195   1.100   4.800 -0.3478  1.2254 -0.0629
  104OSM   H17S10523   7.090   1.079   4.772  0.0518 -1.0951  0.0475
  104OSM   H17T10524   7.224   1.021   4.872 -2.5513  1.6288  1.3655
  104OSM   C18S10525   7.288   1.101   4.679  0.8678 -0.5091  0.0821
  104OSM   H18S10526   7.303   0.999   4.638 -0.4003 -1.0090  0.8029
  104OSM   H18T10527   7.390   1.123   4.718  0.9035  1.2452 -0.9202
  104OSM   H18U10528   7.253   1.160   4.592 -0.7482 -2.5772 -0.7462
  104OSM    C1F10529   6.436   1.696   6.208 -0.9655  0.1208 -0.1060
  104OSM     OF10530   6.474   1.788   6.281  0.4507 -0.6742  0.1590
  104OSM    C2F10531   6.342   1.718   6.098 -0.5841 -0.2536  0.1231
  104OSM    H2F10532   6.258   1.771   6.147  0.4570 -1.2284  3.2142
  104OSM    H2G10533   6.309   1.621   6.057 -1.7781  0.5610 -0.9194
  104OSM    C3F10534   6.413   1.802   5.983 -0.4050  0.4658  0.2577
  104OSM    H3F10535   6.455   1.891   6.034  0.7535  0.5212 -0.7521
  104OSM    H3G10536   6.332   1.848   5.922 -1.4098  2.2706  2.7809
  104OSM    C4F10537   6.534   1.739   5.917  0.3420 -0.0065 -0.2100
  104OSM    H4F10538   6.498   1.653   5.856 -1.9324  0.3723  0.4944
  104OSM    H4G10539   6.595   1.687   5.994 -0.6073 -2.2650 -0.9056
  104OSM    C5F10540   6.613   1.837   5.828  0.3971 -0.1172  0.3594
  104OSM    H5F10541   6.678   1.902   5.890 -0.4083  0.5676  0.5173
  104OSM    H5G10542   6.550   1.912   5.776  2.3193  0.5503 -1.0779
  104OSM    C6F10543   6.692   1.756   5.717  0.5728 -0.2973  0.3602
  104OSM    H6F10544   6.618   1.703   5.654  1.1389 -0.6334 -0.0334
  104OSM    H6G10545   6.758   1.677   5.758 -0.3201 -2.4135 -2.0384
  104OSM    C7F10546   6.778   1.843   5.625 -0.4411 -0.1214 -0.1136
  104OSM    H7F10547   6.851   1.770   5.584  1.1886  0.3208  1.8384
  104OSM    H7G10548   6.837   1.910   5.692  0.2036 -1.3070  0.5337
  104OSM    C8F10549   6.703   1.930   5.522  0.0058 -0.2415 -0.1953
  104OSM    H8F10550   6.771   2.006   5.478 -0.0701 -0.5246 -0.8148
  104OSM    H8G10551   6.622   1.983   5.577  1.3579  0.1801  1.4852
  104OSM    C9F10552   6.653   1.848   5.409 -0.9191  0.3215  0.3775
  104OSM    H9F10553   6.716   1.762   5.384 -1.2319  0.8443 -2.6045
  104OSM   C10F10554   6.547   1.863   5.326  0.1974 -0.0885  0.4217
  104OSM   H10F10555   6.530   1.789   5.247 -0.2498  1.8373 -1.3660
  104OSM   C11F10556   6.430   1.962   5.336 -0.7290 -0.4144  0.0654
  104OSM   H11F10557   6.456   2.045   5.266 -0.4815 -0.7544 -0.2475
  104OSM   H11G10558   6.422   2.011   5.435 -0.3971 -1.2037  0.4837
  104OSM   C12F10559   6.301   1.903   5.284 -0.1684 -0.4885  0.2544
  104OSM   H12F10560   6.217   1.971   5.309 -0.6152 -1.4557  1.4757
  104OSM   H12G10561   6.275   1.809   5.337 -0.2483  0.0022  1.1012
  104OSM   C13F10562   6.293   1.894   5.132  0.4464 -0.2538  0.1229
  104OSM   H13F10563   6.368   1.829   5.081  0.4234  0.0288 -0.2674
  104OSM   H13G10564   6.313   1.995   5.093  0.7811 -0.5998 -0.6172
  104OSM   C14F10565   6.151   1.841   5.091 -1.0575 -0.2411 -0.7911
  104OSM   H14F10566   6.145   1.878   4.986 -1.0327 -0.3419 -0.8278
  104OSM   H14G10567   6.072   1.899   5.144  0.5581  0.0882  1.3613
  104OSM   C15F10568   6.121   1.687   5.101 -0.1590  0.0471 -0.0194
  104OSM   H15F10569   6.076   1.663   5.199  0.4165 -1.6373 -0.1389
  104OSM   H15G10570   6.212   1.624   5.100  1.5110  2.2104  2.7423
  104OSM   C16F10571   6.026   1.647   4.988  0.4592  0.4229 -0.2865
  104OSM   H16F10572   6.084   1.660   4.895  1.6151 -1.5789  0.1011
  104OSM   H16G10573   5.947   1.724   4.976  1.1030  0.7906 -2.5297
  104OSM   C17F10574   5.969   1.500   5.002 -0.0898  0.2383 -0.3029
  104OSM   H17F10575   5.932   1.491   5.106 -1.7359 -1.3943 -0.9778
  104OSM   H17G10576   6.052   1.426   5.002 -2.1152 -2.2698  2.4164
  104OSM   C18F10577   5.853   1.453   4.916 -0.3161 -1.4995 -0.5292
  104OSM   H18F10578   5.820   1.350   4.942  0.3802 -1.7260 -0.5462
  104OSM   H18G10579   5.874   1.451   4.807  1.4698  3.0891 -0.4690
  104OSM   H18H10580   5.760   1.512   4.934  1.1532  0.8571 -0.2774
  105OSM      N10581   6.692   2.708   6.860 -0.1277 -1.0332  0.7557
  105OSM    C1510582   6.557   2.650   6.845 -0.8209  0.7441 -0.0497
  105OSM   H15A10583   6.505   2.681   6.755  1.8182 -3.3685 -3.3987
  105OSM   H15B10584   6.501   2.666   6.936 -0.2955 -0.0903  0.4377
  105OSM   H15C10585   6.563   2.543   6.828  1.1046  1.2802 -3.8797
  105OSM    C1410586   6.769   2.616   6.950  0.2756  0.3587  0.0454
  105OSM   H14A10587   6.721   2.593   7.044  2.4501  0.4726  1.2505
  105OSM   H14B10588   6.867   2.655   6.974  0.2078  0.8018 -0.3992
  105OSM   H14C10589   6.783   2.523   6.898 -1.9862  0.0281 -0.0349
  105OSM    C1310590   6.747   2.710   6.724 -0.0547  0.2134  0.1309
  105OSM   H13A10591   6.775   2.613   6.685 -0.2472 -0.1892  0.9614
  105OSM   H13B10592   6.831   2.778   6.722 -1.0528  1.5308  1.3726
  105OSM   H13C10593   6.680   2.749   6.649 -1.5492 -0.5401  1.0183
  105OSM    C1210594   6.684   2.845   6.915 -0.2605  0.1347 -0.7520
  105OSM   H12A10595   6.641   2.846   7.015  1.4069 -0.8800  0.0234
  105OSM   H12B10596   6.608   2.892   6.855  0.3207 -1.9382 -3.3022
  105OSM    C1110597   6.807   2.938   6.919  0.0025 -0.0150 -0.3126
  105OSM   H11A10598   6.792   3.016   6.996 -1.0734 -3.0309  2.7517
  105OSM   H11B10599   6.820   2.980   6.817  1.1908 -0.9814 -0.5805
  105OSM      P10600   7.069   2.899   6.898  0.4640 -0.0165  0.2444
  105OSM    O1310601   7.093   3.043   6.898  0.0483  0.0875  0.1968
  105OSM    O1410602   7.159   2.813   6.983 -0.4432 -0.2586  0.3275
  105OSM    O1110603   7.071   2.846   6.746 -0.6715  0.1177  0.1618
  105OSM    O1210604   6.924   2.865   6.943 -0.3876 -0.7677 -0.0506
  105OSM    C1S10605   7.106   2.713   6.706  0.3825  0.0343  0.6542
  105OSM    H1S10606   7.040   2.639   6.756 -0.9363  1.4051  1.0033
  105OSM    H1T10607   7.213   2.694   6.730  0.9752  0.4029 -1.4700
  105OSM     NF10608   7.112   2.567   6.502 -0.0890  0.3483 -0.1193
  105OSM    HNF10609   7.202   2.540   6.470 -0.5457  0.7283 -1.8426
  105OSM    C2S10610   7.097   2.700   6.546 -0.1556 -1.4772  0.4644
  105OSM    H2S10611   6.998   2.739   6.515  0.5988 -0.0884 -0.3448
  105OSM    C3S10612   7.192   2.791   6.473  0.7213 -0.3527 -0.7461
  105OSM    H3S10613   7.293   2.752   6.497  1.7672  2.8709  0.6490
  105OSM     O310614   7.184   2.933   6.514  0.1927  0.0495 -0.4141
  105OSM    HO310615   7.149   2.932   6.603  1.6608  1.2995  0.2138
  105OSM    C4S10616   7.187   2.777   6.323 -0.5739 -0.2737 -0.2426
  105OSM    H4S10617   7.261   2.701   6.296 -2.7760 -2.9945  0.8697
  105OSM    C5S10618   7.107   2.834   6.230  0.0405 -1.0977 -0.1150
  105OSM    H5S10619   7.032   2.909   6.260  0.0434 -1.6803  1.4326
  105OSM    C6S10620   7.102   2.797   6.086 -0.5287  0.6160  0.1971
  105OSM    H6S10621   7.107   2.888   6.022  0.4648 -1.0945 -2.3369
  105OSM    H6T10622   7.003   2.750   6.066  0.3299 -0.9363 -0.5982
  105OSM    C7S10623   7.206   2.694   6.038 -0.1390  0.2914 -0.7564
  105OSM    H7S10624   7.175   2.593   6.071 -2.2673  0.4319 -2.1250
  105OSM    H7T10625   7.299   2.709   6.097 -1.7602  2.2184  1.4766
  105OSM    C8S10626   7.235   2.699   5.889  0.4952  0.0618  0.4562
  105OSM    H8S10627   7.318   2.628   5.869 -0.5311 -0.5364 -2.1469
  105OSM    H8T10628   7.268   2.800   5.855  3.1268 -1.3673 -1.6538
  105OSM    C9S10629   7.112   2.668   5.800 -0.0114  0.0011  0.1474
  105OSM    H9S10630   7.041   2.754   5.797 -0.7370 -0.6199 -1.5639
  105OSM    H9T10631   7.059   2.576   5.833 -0.6877  0.9458  1.8113
  105OSM   C10S10632   7.154   2.639   5.649  0.0691 -0.4635 -0.2048
  105OSM   H10S10633   7.069   2.592   5.595  1.0021 -4.9853  1.8167
  105OSM   H10T10634   7.238   2.568   5.641 -0.9339 -1.7477  0.2781
  105OSM   C11S10635   7.179   2.772   5.579 -0.1563  0.4475 -0.0446
  105OSM   H11S10636   7.257   2.828   5.635 -1.1411  1.6441  0.1777
  105OSM   H11T10637   7.089   2.836   5.588 -0.7418 -0.3251 -0.2968
  105OSM   C12S10638   7.234   2.762   5.438 -0.3414  0.7252  0.4545
  105OSM   H12S10639   7.329   2.707   5.448 -1.3403 -1.6339 -1.8045
  105OSM   H12T10640   7.255   2.864   5.400  0.2518  1.3627  2.3917
  105OSM   C13S10641   7.147   2.677   5.333 -0.3783 -0.7859  0.0699
  105OSM   H13S10642   7.051   2.731   5.323 -0.1154  0.2508  2.4409
  105OSM   H13T10643   7.143   2.576   5.379  2.9250  0.6476  4.1350
  105OSM   C14S10644   7.217   2.679   5.197  0.1518 -0.3686 -0.9712
  105OSM   H14S10645   7.324   2.689   5.226 -0.9560 -1.3194  4.5408
  105OSM   H14T10646   7.188   2.769   5.138  1.4384  2.6443  2.5566
  105OSM   C15S10647   7.207   2.534   5.130 -0.3744 -0.2503  0.2874
  105OSM   H15S10648   7.100   2.514   5.110 -0.5977  1.1920 -0.0062
  105OSM   H15T10649   7.246   2.457   5.201  1.8243 -0.4268 -0.9986
  105OSM   C16S10650   7.284   2.536   5.002 -0.0436 -0.8429 -0.1063
  105OSM   H16S10651   7.387   2.575   5.017  0.8008 -2.9455 -0.0414
  105OSM   H16T10652   7.231   2.609   4.937  1.3155 -0.5580 -0.9597
  105OSM   C17S10653   7.281   2.411   4.909  0.6926  0.3347  0.0844
  105OSM   H17S10654   7.323   2.326   4.966 -1.6238 -0.6813  0.3576
  105OSM   H17T10655   7.328   2.409   4.808 -0.7090  1.6478 -0.6321
  105OSM   C18S10656   7.134   2.368   4.879 -0.7047 -0.8941 -0.0728
  105OSM   H18S10657   7.134   2.274   4.821  0.0419 -1.1193  0.2730
  105OSM   H18T10658   7.094   2.457   4.827  0.1400  1.2452  2.6632
  105OSM   H18U10659   7.079   2.356   4.975  0.2978 -0.4255  0.5877
  105OSM    C1F10660   7.024   2.468   6.543 -0.4182  0.1952 -0.9737
  105OSM     OF10661   6.917   2.496   6.599  0.1535 -0.0983 -0.8024
  105OSM    C2F10662   7.078   2.326   6.532 -0.0628  0.1672 -0.3000
  105OSM    H2F10663   7.044   2.276   6.625 -1.8213 -2.4326 -2.2009
  105OSM    H2G10664   7.189   2.326   6.537 -0.0610  0.8095 -0.2525
  105OSM    C3F10665   7.023   2.245   6.410  0.7074  0.4740  0.3123
  105OSM    H3F10666   7.046   2.305   6.319  0.6644 -0.1498 -0.1171
  105OSM    H3G10667   6.912   2.238   6.411  0.7967 -1.8079  0.1237
  105OSM    C4F10668   7.064   2.094   6.391  0.0644 -0.0032 -1.7034
  105OSM    H4F10669   7.060   2.031   6.482  1.3849  1.2415 -0.7228
  105OSM    H4G10670   7.173   2.110   6.377  1.2370 -2.0733  3.2093
  105OSM    C5F10671   6.997   2.013   6.273 -0.5895  0.0885  0.3705
  105OSM    H5F10672   6.981   2.079   6.185 -5.1574  1.8447  2.2149
  105OSM    H5G10673   6.890   1.998   6.297 -0.8427  1.3993  0.1050
  105OSM    C6F10674   7.068   1.889   6.221 -0.0001 -0.1054 -0.6848
  105OSM    H6F10675   7.058   1.802   6.290  2.1850  1.5373  1.8942
  105OSM    H6G10676   7.173   1.925   6.216 -0.1654  0.2866 -1.3869
  105OSM    C7F10677   7.016   1.854   6.083  0.7585 -0.2920  0.0279
  105OSM    H7F10678   7.014   1.949   6.024  1.5128  0.1864  0.7510
  105OSM    H7G10679   6.908   1.831   6.090  0.1848  1.7220 -1.2183
  105OSM    C8F10680   7.085   1.737   6.005 -0.6461 -0.4209 -0.5461
  105OSM    H8F10681   7.028   1.731   5.910 -1.7434 -1.8103  0.1754
  105OSM    H8G10682   7.067   1.635   6.045  1.0005  0.2316  2.1142
  105OSM    C9F10683   7.235   1.773   5.975  0.2574 -0.5912 -0.0059
  105OSM    H9F10684   7.290   1.839   6.043  1.5175  0.9019 -2.3215
  105OSM   C10F10685   7.298   1.724   5.866  0.3435 -0.1813  0.2862
  105OSM   H10F10686   7.394   1.770   5.838  0.6212 -0.1326  1.2606
  105OSM   C11F10687   7.224   1.647   5.757  0.0351  0.0926 -0.5324
  105OSM   H11F10688   7.138   1.598   5.807 -0.6133  1.5495 -0.1599
  105OSM   H11G10689   7.277   1.564   5.706  1.5593 -1.5216  3.2813
  105OSM   C12F10690   7.163   1.751   5.661 -0.1224  0.1799  0.0736
  105OSM   H12F10691   7.243   1.825   5.641 -0.8205  0.3617 -2.4391
  105OSM   H12G10692   7.081   1.804   5.713 -0.0171  0.5791 -0.1689
  105OSM   C13F10693   7.121   1.696   5.529  0.2389  0.4434  0.0246
  105OSM   H13F10694   7.069   1.775   5.472  2.2584  0.6813 -1.6013
  105OSM   H13G10695   7.039   1.622   5.539  1.2626 -0.5236  2.0949
  105OSM   C14F10696   7.243   1.631   5.464 -0.1099 -0.6560 -0.3553
  105OSM   H14F10697   7.265   1.528   5.499 -0.7449 -0.5033  0.5148
  105OSM   H14G10698   7.326   1.698   5.494 -1.7460  1.1791  0.2505
  105OSM   C15F10699   7.232   1.638   5.313 -0.4576  0.3537  0.1117
  105OSM   H15F10700   7.205   1.738   5.274 -0.2339  0.4565  0.2221
  105OSM   H15G10701   7.147   1.575   5.279 -1.9997  0.4164  3.4203
  105OSM   C16F10702   7.369   1.602   5.249  0.3050 -0.3560 -0.7619
  105OSM   H16F10703   7.420   1.522   5.306 -1.1790  0.2031  1.4742
  105OSM   H16G10704   7.431   1.694   5.237  1.8021 -1.2849 -0.3133
  105OSM   C17F10705   7.357   1.547   5.105 -0.4086 -0.8954 -0.5446
  105OSM   H17F10706   7.285   1.463   5.097 -1.6467  0.1265 -0.4893
  105OSM   H17G10707   7.459   1.508   5.083  0.0430  1.0098 -2.1409
  105OSM   C18F10708   7.321   1.648   4.994 -0.2962  0.3882 -0.3577
  105OSM   H18F10709   7.389   1.736   4.994 -0.3359  0.4555 -2.0943
  105OSM   H18G10710   7.216   1.680   5.010 -0.6039 -0.0062 -1.5159
  105OSM   H18H10711   7.333   1.607   4.892 -1.1853  0.1713 -0.3869
  106OSM      N10712   6.222   0.292   6.847  0.1394 -0.5636  0.7305
  106OSM    C1510713   6.223   0.246   6.701  0.2723 -0.0812  0.6233
  106OSM   H15A10714   6.278   0.308   6.633 -1.8752  0.7982 -0.3936
  106OSM   H15B10715   6.125   0.229   6.661  1.0839 -2.3229 -0.6029
  106OSM   H15C10716   6.266   0.147   6.695 -1.6245 -1.1376  2.7466
  106OSM    C1410717   6.148   0.190   6.928 -0.0556 -0.2360 -0.3638
  106OSM   H14A10718   6.189   0.091   6.917  2.1739  0.4515  1.0827
  106OSM   H14B10719   6.042   0.198   6.909  0.0531  1.6889 -0.3146
  106OSM   H14C10720   6.161   0.222   7.030 -0.3627  1.3408 -0.7950
  106OSM    C1310721   6.368   0.310   6.892  0.5717  0.3652  0.8226
  106OSM   H13A10722   6.425   0.223   6.863  1.5941  1.1674  0.3541
  106OSM   H13B10723   6.377   0.336   6.996  1.1466  0.8754  0.6512
  106OSM   H13C10724   6.415   0.394   6.844 -2.1672  0.9560 -1.0284
  106OSM    C1210725   6.148   0.434   6.857  0.2864  0.2047  0.2696
  106OSM   H12A10726   6.139   0.462   6.961 -1.3080  1.2839 -0.1197
  106OSM   H12B10727   6.046   0.426   6.820  0.6710 -0.0303 -0.7822
  106OSM    C1110728   6.201   0.553   6.767  0.3782 -0.6129  0.0579
  106OSM   H11A10729   6.120   0.628   6.770  0.7525 -0.2319  1.3978
  106OSM   H11B10730   6.216   0.508   6.666  2.5147  1.5120 -0.6542
  106OSM      P10731   6.361   0.751   6.733  0.1217  0.0822  0.1756
  106OSM    O1310732   6.265   0.859   6.756 -0.9049  0.4397 -0.4639
  106OSM    O1410733   6.498   0.783   6.776 -0.2157 -0.4608  0.4039
  106OSM    O1110734   6.358   0.706   6.575  0.2484 -0.2321  0.2383
  106OSM    O1210735   6.317   0.624   6.822  0.2326  0.3098 -0.4092
  106OSM    C1S10736   6.434   0.590   6.526 -0.9918 -0.5076  0.5281
  106OSM    H1S10737   6.406   0.495   6.575 -0.3024 -0.2064  1.5485
  106OSM    H1T10738   6.540   0.604   6.554 -1.3798 -0.7737  2.3038
  106OSM     NF10739   6.477   0.446   6.325 -0.1054  0.4951 -0.0818
  106OSM    HNF10740   6.559   0.453   6.269 -0.6391  3.3963 -0.6854
  106OSM    C2S10741   6.425   0.575   6.374 -0.0184 -0.4451  0.5641
  106OSM    H2S10742   6.315   0.578   6.358 -0.1471 -1.3696  1.2171
  106OSM    C3S10743   6.488   0.698   6.302 -0.2042 -0.3194  0.1517
  106OSM    H3S10744   6.598   0.684   6.298  0.0104 -0.0032  2.8940
  106OSM     O310745   6.467   0.821   6.371  0.3299  0.4536  0.4075
  106OSM    HO310746   6.411   0.788   6.442  0.5143 -2.0306 -0.4943
  106OSM    C4S10747   6.451   0.719   6.154  0.5239  0.2625 -0.1106
  106OSM    H4S10748   6.527   0.692   6.079 -1.0674  0.9273 -2.0430
  106OSM    C5S10749   6.346   0.783   6.104  0.1717 -0.0940 -0.3696
  106OSM    H5S10750   6.273   0.829   6.172  0.2357 -0.2329 -0.2067
  106OSM    C6S10751   6.333   0.817   5.962  0.2575  0.5869 -0.7594
  106OSM    H6S10752   6.406   0.894   5.929  0.3768  1.8505  2.1174
  106OSM    H6T10753   6.243   0.880   5.953  0.6996  1.4506  0.5371
  106OSM    C7S10754   6.318   0.700   5.867 -0.2975 -0.4680  0.3646
  106OSM    H7S10755   6.239   0.637   5.914  0.3953 -0.9702  0.8756
  106OSM    H7T10756   6.411   0.638   5.868 -0.8932 -1.4357 -1.1372
  106OSM    C8S10757   6.258   0.743   5.734  0.4630  0.2924 -0.2069
  106OSM    H8S10758   6.322   0.827   5.699 -1.4149  0.6027 -3.3007
  106OSM    H8T10759   6.155   0.781   5.750  0.5321 -0.2731  1.9518
  106OSM    C9S10760   6.263   0.630   5.634  0.7658 -0.5248  1.0025
  106OSM    H9S10761   6.177   0.561   5.623  0.5687  0.0487 -2.1153
  106OSM    H9T10762   6.351   0.563   5.648  0.6152 -1.2081 -1.0127
  106OSM   C10S10763   6.270   0.696   5.491 -0.3685  0.1824 -0.5981
  106OSM   H10S10764   6.354   0.768   5.482 -1.2991  1.2376 -1.1121
  106OSM   H10T10765   6.177   0.756   5.481 -1.2694 -0.9960  0.4100
  106OSM   C11S10766   6.274   0.596   5.374  0.1250  0.7378  0.2321
  106OSM   H11S10767   6.223   0.644   5.288  4.4456  1.6955 -2.0810
  106OSM   H11T10768   6.220   0.504   5.406  2.7955 -0.7114  0.8015
  106OSM   C12S10769   6.415   0.553   5.332 -0.6464 -0.7361  0.4123
  106OSM   H12S10770   6.463   0.500   5.417  1.4173 -0.9978 -0.8441
  106OSM   H12T10771   6.470   0.645   5.303 -0.2698 -1.2713 -0.5982
  106OSM   C13S10772   6.415   0.452   5.210 -0.0128 -0.0655  0.1013
  106OSM   H13S10773   6.400   0.353   5.258 -1.8460  0.7130  1.2381
  106OSM   H13T10774   6.519   0.449   5.172  0.4666  1.8829  1.1142
  106OSM   C14S10775   6.317   0.488   5.092  0.5508 -0.3846  1.4987
  106OSM   H14S10776   6.216   0.466   5.132  0.4249  0.4284  1.6304
  106OSM   H14T10777   6.319   0.403   5.021  0.5895 -0.5937  1.7469
  106OSM   C15S10778   6.343   0.619   5.016 -0.1685  0.5204  0.3732
  106OSM   H15S10779   6.447   0.624   4.978 -1.0337  1.6598 -2.0454
  106OSM   H15T10780   6.347   0.709   5.082  4.1898 -0.0041  1.0988
  106OSM   C16S10781   6.268   0.641   4.886 -0.1607 -0.5200  0.4769
  106OSM   H16S10782   6.269   0.750   4.863  3.6310 -0.8486 -1.8503
  106OSM   H16T10783   6.162   0.613   4.902 -0.4412  0.0198 -0.3562
  106OSM   C17S10784   6.326   0.558   4.769  0.0446  0.3099  0.0185
  106OSM   H17S10785   6.336   0.449   4.788  0.7330  0.3505 -0.0718
  106OSM   H17T10786   6.425   0.603   4.748 -0.4149  1.1858 -0.3064
  106OSM   C18S10787   6.227   0.593   4.656 -0.6169  0.3522  0.4868
  106OSM   H18S10788   6.120   0.583   4.683 -0.3206 -0.0685  1.5872
  106OSM   H18T10789   6.235   0.513   4.580 -0.7596 -0.0361  0.8777
  106OSM   H18U10790   6.244   0.694   4.612 -3.6582  0.9283  0.4126
  106OSM    C1F10791   6.427   0.334   6.366  0.0873  0.2812  0.0077
  106OSM     OF10792   6.323   0.344   6.430 -0.3218 -0.1161  0.0955
  106OSM    C2F10793   6.505   0.207   6.332  0.8704 -0.1639 -0.8007
  106OSM    H2F10794   6.508   0.149   6.427 -1.2579  1.9780  0.6785
  106OSM    H2G10795   6.614   0.222   6.319  1.2610  2.6581  3.4572
  106OSM    C3F10796   6.422   0.117   6.235 -0.9651  0.5654  0.0702
  106OSM    H3F10797   6.320   0.094   6.272 -0.4742 -3.0054 -0.4492
  106OSM    H3G10798   6.476   0.021   6.247 -0.5687  0.4918 -1.9011
  106OSM    C4F10799   6.431   0.159   6.093  0.0025  0.0012  0.0317
  106OSM    H4F10800   6.538   0.150   6.065 -0.4545 -3.6838 -1.0920
  106OSM    H4G10801   6.400   0.265   6.098  1.6683  0.4775  0.9803
  106OSM    C5F10802   6.356   0.059   5.995  0.1786  0.0830  0.2467
  106OSM    H5F10803   6.246   0.056   6.010  0.5002  0.8847  3.6314
  106OSM    H5G10804   6.408  -0.038   6.010  0.5303 -0.2614 -2.6322
  106OSM    C6F10805   6.380   0.088   5.849  0.4142 -0.1147 -0.0040
  106OSM    H6F10806   6.490   0.081   5.833  0.0978 -1.0251 -2.2016
  106OSM    H6G10807   6.355   0.195   5.831  3.5563  0.4378 -1.8621
  106OSM    C7F10808   6.303  -0.008   5.763  0.1971  0.3239 -0.1142
  106OSM    H7F10809   6.197  -0.014   5.795 -0.8365 -1.1659 -3.3495
  106OSM    H7G10810   6.362  -0.101   5.777  1.4813  0.7338 -2.2838
  106OSM    C8F10811   6.308   0.033   5.613 -0.3117  0.0989  0.1469
  106OSM    H8F10812   6.415   0.046   5.587 -0.1536 -1.2550  0.0505
  106OSM    H8G10813   6.259   0.130   5.589 -2.7547 -1.3254 -1.1128
  106OSM    C9F10814   6.261  -0.080   5.526  0.4353  0.6221  0.2391
  106OSM    H9F10815   6.210  -0.164   5.577  2.9495  0.2595  2.3761
  106OSM   C10F10816   6.301  -0.110   5.402 -0.2651 -0.8707 -0.1855
  106OSM   H10F10817   6.262  -0.196   5.345 -1.6431  1.5816 -3.2844
  106OSM   C11F10818   6.387  -0.020   5.318  0.0368  0.3336  0.6471
  106OSM   H11F10819   6.481  -0.078   5.303 -1.0758 -1.1887 -0.7961
  106OSM   H11G10820   6.408   0.078   5.365  1.6516  0.1559  0.3470
  106OSM   C12F10821   6.309   0.012   5.190 -0.4944 -0.2487 -0.3627
  106OSM   H12F10822   6.219   0.075   5.206 -0.7511 -0.1122 -2.1356
  106OSM   H12G10823   6.268  -0.076   5.136 -2.3605 -0.7046  1.6533
  106OSM   C13F10824   6.402   0.085   5.088  0.0057  0.2950 -0.3369
  106OSM   H13F10825   6.505   0.045   5.091 -0.0413 -0.0586 -2.0535
  106OSM   H13G10826   6.398   0.193   5.113 -2.2766  0.7655 -2.3843
  106OSM   C14F10827   6.353   0.076   4.942  0.7825 -0.3344 -0.0023
  106OSM   H14F10828   6.423   0.140   4.884  1.0650 -0.8539 -0.2411
  106OSM   H14G10829   6.257   0.130   4.954  0.8842 -0.4317  1.3547
  106OSM   C15F10830   6.336  -0.064   4.876  0.5492 -0.4932 -0.6695
  106OSM   H15F10831   6.302  -0.050   4.772 -3.2979  1.7590  0.6835
  106OSM   H15G10832   6.236  -0.105   4.903 -0.1806  1.5276 -0.1123
  106OSM   C16F10833   6.453  -0.164   4.875  0.5542 -0.3095  0.2634
  106OSM   H16F10834   6.469  -0.218   4.971 -0.3279 -1.1910 -0.0644
  106OSM   H16G10835   6.551  -0.119   4.848  0.3918 -0.9604 -1.5260
  106OSM   C17F10836   6.416  -0.269   4.766 -0.2069  0.2852 -0.1448
  106OSM   H17F10837   6.421  -0.223   4.664  2.1063  0.9719  0.2192
  106OSM   H17G10838   6.311  -0.302   4.781 -0.0819 -0.2007 -0.3146
  106OSM   C18F10839   6.508  -0.393   4.771 -0.1685  0.3885  0.0945
  106OSM   H18F10840   6.461  -0.446   4.856 -1.1971  1.3313  0.1425
  106OSM   H18G10841   6.615  -0.369   4.789 -0.4756 -0.0708  3.0651
  106OSM   H18H10842   6.486  -0.449   4.677  0.4979  0.0577  0.1332
  107OSM      N10843   5.084   4.373   7.370 -0.6425  0.2858  0.3156
  107OSM    C1510844   4.988   4.264   7.387  0.5066 -0.3268  0.2146
  107OSM   H15A10845   4.896   4.304   7.428  0.4516  0.4403 -0.6308
  107OSM   H15B10846   5.013   4.187   7.458  0.0362 -0.4318  0.2707
  107OSM   H15C10847   4.962   4.209   7.298 -1.0498 -0.2189  0.5765
  107OSM    C1410848   5.023   4.488   7.294 -0.1440 -0.3367 -0.8749
  107OSM   H14A10849   4.984   4.466   7.195 -0.3484 -0.3430 -0.7936
  107OSM   H14B10850   5.072   4.584   7.289 -4.8064  2.2575 -2.7563
  107OSM   H14C10851   4.937   4.525   7.348  1.1294 -0.1195  1.0808
  107OSM    C1310852   5.133   4.423   7.501  0.2589  0.0950 -1.1975
  107OSM   H13A10853   5.214   4.494   7.497  0.4649 -0.0955 -0.6010
  107OSM   H13B10854   5.168   4.342   7.564 -0.3350  1.6304  1.2788
  107OSM   H13C10855   5.055   4.483   7.547  0.9229  1.3890 -1.7122
  107OSM    C1210856   5.207   4.326   7.294 -0.0741  0.0429  0.2750
  107OSM   H12A10857   5.282   4.402   7.280  1.2627 -0.9373  1.7137
  107OSM   H12B10858   5.174   4.288   7.199 -0.1519 -0.8243  0.6391
  107OSM    C1110859   5.284   4.211   7.364  0.0697 -0.1059  0.1658
  107OSM   H11A10860   5.309   4.239   7.468  2.0876  1.2680 -0.6195
  107OSM   H11B10861   5.377   4.201   7.304  1.4049  1.0561  1.9502
  107OSM      P10862   5.208   3.971   7.261  0.3214 -0.2522  0.2471
  107OSM    O1310863   5.313   3.876   7.286  0.2084  0.7393  0.0352
  107OSM    O1410864   5.068   3.917   7.262  0.5632 -0.1954  0.3379
  107OSM    O1110865   5.244   4.058   7.135  0.2946 -0.4154  0.5261
  107OSM    O1210866   5.215   4.084   7.369  0.0868 -0.3223 -0.1451
  107OSM    C1S10867   5.217   4.008   7.004 -0.5434 -0.1412 -0.2357
  107OSM    H1S10868   5.113   4.033   6.973  0.1401  0.6848 -1.9893
  107OSM    H1T10869   5.226   3.898   6.997 -1.1976 -0.1394 -1.5394
  107OSM     NF10870   5.273   4.006   6.768 -0.1918 -0.0380 -0.5347
  107OSM    HNF10871   5.321   3.923   6.740 -0.6271  0.6355 -3.6292
  107OSM    C2S10872   5.310   4.064   6.894 -0.3769 -0.0871 -1.3816
  107OSM    H2S10873   5.293   4.174   6.887  1.7319  0.3507 -0.4421
  107OSM    C3S10874   5.458   4.047   6.924  0.3512 -0.0222 -0.4468
  107OSM    H3S10875   5.473   3.937   6.922  0.8991 -0.1226  2.8390
  107OSM     O310876   5.476   4.101   7.060 -0.5924 -0.4477  0.9098
  107OSM    HO310877   5.386   4.112   7.093  0.0336  0.6429  2.4198
  107OSM    C4S10878   5.553   4.118   6.836  1.1095  0.1966  0.2802
  107OSM    H4S10879   5.606   4.047   6.772 -1.6386 -1.5872 -0.1800
  107OSM    C5S10880   5.588   4.248   6.844 -0.0634 -0.0841 -0.4306
  107OSM    H5S10881   5.537   4.315   6.915 -0.8587  2.7476 -3.4121
  107OSM    C6S10882   5.679   4.325   6.751  0.2435  0.7016 -0.1767
  107OSM    H6S10883   5.754   4.376   6.815 -0.7238  2.2463 -0.2252
  107OSM    H6T10884   5.634   4.403   6.686  1.4080  0.5668 -1.1806
  107OSM    C7S10885   5.753   4.241   6.644  0.1655  0.2780 -0.1648
  107OSM    H7S10886   5.673   4.210   6.573 -1.1082  2.8112  0.0334
  107OSM    H7T10887   5.800   4.149   6.685 -0.5107 -0.5750 -1.2288
  107OSM    C8S10888   5.855   4.325   6.576  0.1816  1.0920  0.5183
  107OSM    H8S10889   5.944   4.331   6.642  0.9065  1.7435 -0.4773
  107OSM    H8T10890   5.826   4.432   6.571  2.3441  1.7053  0.2131
  107OSM    C9S10891   5.901   4.259   6.443  0.0159  0.0114 -0.4843
  107OSM    H9S10892   5.883   4.150   6.456 -3.3132  0.4009 -0.9359
  107OSM    H9T10893   6.007   4.276   6.415  0.2271  1.5171  1.0789
  107OSM   C10S10894   5.820   4.298   6.319 -0.0972  0.4711 -0.8537
  107OSM   H10S10895   5.711   4.284   6.333 -0.0407 -1.2663 -1.8815
  107OSM   H10T10896   5.841   4.227   6.236  0.4093  2.2351 -2.3202
  107OSM   C11S10897   5.865   4.437   6.274  0.7812 -0.1226  0.4096
  107OSM   H11S10898   5.976   4.440   6.278  0.7470  0.1744  1.6121
  107OSM   H11T10899   5.821   4.518   6.336 -2.5113 -1.2291 -0.2733
  107OSM   C12S10900   5.820   4.469   6.129  0.3025 -0.1755  0.1782
  107OSM   H12S10901   5.850   4.573   6.102  1.4258 -0.9107 -1.5555
  107OSM   H12T10902   5.710   4.463   6.117  0.4249 -2.1377 -0.1974
  107OSM   C13S10903   5.876   4.375   6.022 -0.7998 -0.2319 -0.1729
  107OSM   H13S10904   5.876   4.267   6.048 -2.9982  0.1376  1.6932
  107OSM   H13T10905   5.983   4.403   6.011 -0.5060 -1.3421 -0.2959
  107OSM   C14S10906   5.796   4.385   5.890  0.0007 -0.1471  0.1378
  107OSM   H14S10907   5.686   4.378   5.893  0.1055 -2.5469  0.7243
  107OSM   H14T10908   5.835   4.304   5.825 -0.0820 -2.0790  2.3420
  107OSM   C15S10909   5.841   4.508   5.810  0.6342 -0.3138 -0.3225
  107OSM   H15S10910   5.952   4.503   5.819  0.4229 -2.9593  2.7165
  107OSM   H15T10911   5.805   4.599   5.863 -1.5063 -0.9201 -0.6364
  107OSM   C16S10912   5.786   4.519   5.669  0.4900  0.2555 -0.0562
  107OSM   H16S10913   5.797   4.626   5.641 -0.5865  0.7508  1.2707
  107OSM   H16T10914   5.677   4.501   5.666  0.0449  2.7834 -1.2315
  107OSM   C17S10915   5.859   4.432   5.566  0.0043 -0.0659 -0.0856
  107OSM   H17S10916   5.815   4.330   5.573  2.0331 -0.9455  0.5887
  107OSM   H17T10917   5.963   4.433   5.606 -0.0468 -3.1909  0.3639
  107OSM   C18S10918   5.857   4.500   5.422  0.5134 -0.0789 -0.1796
  107OSM   H18S10919   5.929   4.445   5.357  2.2317  2.7456 -0.7994
  107OSM   H18T10920   5.897   4.603   5.432 -1.0629  0.3636  3.0389
  107OSM   H18U10921   5.757   4.493   5.375 -0.0816  1.1868  0.8263
  107OSM    C1F10922   5.161   4.045   6.700 -0.0416  0.3573 -0.4719
  107OSM     OF10923   5.079   4.126   6.757 -0.1999  0.1708  0.6281
  107OSM    C2F10924   5.125   3.969   6.577 -0.8486 -0.4396 -0.6621
  107OSM    H2F10925   5.075   3.872   6.600 -1.9049  0.6079  1.7523
  107OSM    H2G10926   5.225   3.945   6.536  0.7580  0.4306  2.4339
  107OSM    C3F10927   5.035   4.040   6.480 -0.2403 -0.9841  0.6548
  107OSM    H3F10928   5.097   4.116   6.427 -1.2195 -0.3367  0.4119
  107OSM    H3G10929   4.950   4.099   6.520 -0.4174  0.2543 -1.4054
  107OSM    C4F10930   4.979   3.955   6.367  0.8286  0.0708  0.6924
  107OSM    H4F10931   4.908   3.875   6.397  2.3239 -0.8186  1.9727
  107OSM    H4G10932   5.049   3.891   6.311 -0.5085 -0.4257 -0.4692
  107OSM    C5F10933   4.920   4.044   6.260  0.1818 -0.6179  0.0136
  107OSM    H5F10934   4.995   4.120   6.229  0.8722 -0.7596  1.2394
  107OSM    H5G10935   4.834   4.094   6.310  1.3465 -1.1086  2.6830
  107OSM    C6F10936   4.869   3.965   6.142 -0.0077  0.4407  0.1368
  107OSM    H6F10937   4.806   3.884   6.184  1.6678 -0.3151  1.3070
  107OSM    H6G10938   4.951   3.923   6.079 -0.5114 -1.7508  0.8652
  107OSM    C7F10939   4.790   4.068   6.059 -0.3805  0.1331 -0.8512
  107OSM    H7F10940   4.851   4.160   6.047  0.8934 -0.2684  1.7587
  107OSM    H7G10941   4.700   4.091   6.120  1.2541 -1.9584  2.6638
  107OSM    C8F10942   4.739   4.023   5.920  0.3586 -0.3532  0.4258
  107OSM    H8F10943   4.685   4.113   5.884 -0.1953 -0.2410  1.5255
  107OSM    H8G10944   4.668   3.943   5.947  0.5929  0.0606  2.3625
  107OSM    C9F10945   4.836   3.970   5.815 -0.0537  0.2929  0.2445
  107OSM    H9F10946   4.897   3.885   5.847  0.6818  0.0715 -1.6539
  107OSM   C10F10947   4.828   4.012   5.682 -0.7670  0.6403 -0.5206
  107OSM   H10F10948   4.902   3.964   5.617 -0.4340  0.4536 -0.0176
  107OSM   C11F10949   4.737   4.106   5.619 -0.3475  0.0659  0.1116
  107OSM   H11F10950   4.644   4.108   5.679 -0.2143  1.1177  0.3089
  107OSM   H11G10951   4.710   4.065   5.519 -1.3962  1.6486 -0.2905
  107OSM   C12F10952   4.789   4.250   5.603 -0.3025 -0.6847  0.8634
  107OSM   H12F10953   4.853   4.256   5.513  0.0852  1.7951  1.2434
  107OSM   H12G10954   4.864   4.281   5.679  3.1506 -2.3919 -1.5567
  107OSM   C13F10955   4.687   4.364   5.597 -0.6388  0.6089 -0.7529
  107OSM   H13F10956   4.743   4.456   5.571  1.8568 -0.5342  0.2512
  107OSM   H13G10957   4.648   4.384   5.699  0.4946  1.0980 -0.3963
  107OSM   C14F10958   4.580   4.334   5.487  0.4350  0.1871  0.1297
  107OSM   H14F10959   4.509   4.260   5.529  0.5356 -0.7479 -1.3131
  107OSM   H14G10960   4.621   4.299   5.391  0.5132  0.7868 -0.0632
  107OSM   C15F10961   4.492   4.457   5.459 -0.5487 -0.0153 -0.2248
  107OSM   H15F10962   4.478   4.521   5.549  1.5359 -1.5272  1.2612
  107OSM   H15G10963   4.396   4.416   5.422  0.4435 -1.7825 -0.9973
  107OSM   C16F10964   4.545   4.541   5.344  1.1391  0.5622  0.7202
  107OSM   H16F10965   4.540   4.478   5.252 -3.4794  0.0203  1.1141
  107OSM   H16G10966   4.648   4.581   5.360  1.6510 -0.5876  0.4247
  107OSM   C17F10967   4.451   4.650   5.298  0.1908 -0.6497 -0.0152
  107OSM   H17F10968   4.432   4.716   5.386 -1.2725  1.0429 -1.5191
  107OSM   H17G10969   4.350   4.615   5.265 -0.6130  0.8722  0.7497
  107OSM   C18F10970   4.501   4.731   5.183  0.1752  0.1617 -0.8669
  107OSM   H18F10971   4.498   4.679   5.085 -0.0781  2.3080 -2.0760
  107OSM   H18G10972   4.608   4.759   5.197  1.0080 -0.3285 -4.9164
  107OSM   H18H10973   4.444   4.826   5.174  2.4614  1.5504 -1.8304
  108OSM      N10974   0.620   4.187   6.737  0.0497  0.0524  0.6172
  108OSM    C1510975   0.666   4.114   6.616  0.7035 -0.2273 -0.2673
  108OSM   H15A10976   0.601   4.145   6.535  0.7830  0.1557 -0.1897
  108OSM   H15B10977   0.666   4.007   6.622  0.7650 -0.3824 -2.2957
  108OSM   H15C10978   0.765   4.147   6.587  1.9690 -3.1940  0.3013
  108OSM    C1410979   0.713   4.147   6.852  0.4094 -0.1588  0.1085
  108OSM   H14A10980   0.682   4.206   6.938 -1.9797 -0.9748 -0.1043
  108OSM   H14B10981   0.813   4.168   6.818  0.1376  0.7691 -0.1421
  108OSM   H14C10982   0.714   4.042   6.877 -0.3101 -0.1780  0.0899
  108OSM    C1310983   0.638   4.335   6.724  0.2346  0.2765  0.1041
  108OSM   H13A10984   0.589   4.383   6.641  1.3727  1.7570  0.2396
  108OSM   H13B10985   0.740   4.370   6.735  0.3860 -0.1213 -0.0424
  108OSM   H13C10986   0.584   4.378   6.807 -0.3963  0.6834 -0.5070
  108OSM    C1210987   0.477   4.153   6.768  0.5970  0.9119 -0.2465
  108OSM   H12A10988   0.467   4.048   6.790  1.0802  1.2257  1.6916
  108OSM   H12B10989   0.422   4.174   6.677 -0.2860 -0.7382 -0.1312
  108OSM    C1110990   0.410   4.224   6.884  0.5084  0.4717 -0.3729
  108OSM   H11A10991   0.459   4.180   6.974  1.1772 -1.1763 -1.4865
  108OSM   H11B10992   0.304   4.189   6.884  0.2167  1.3137 -1.1483
  108OSM      P10993   0.322   4.456   6.800 -0.5957 -0.0521 -0.0322
  108OSM    O1310994   0.216   4.508   6.885 -0.3009  0.7720 -0.4668
  108OSM    O1410995   0.403   4.549   6.723  0.1767 -1.0113  0.0132
  108OSM    O1110996   0.259   4.357   6.691  0.0065 -0.0933  0.6111
  108OSM    O1210997   0.422   4.364   6.884 -0.2793 -0.0787 -0.1074
  108OSM    C1S10998   0.187   4.420   6.582 -0.4919  0.1563 -0.0197
  108OSM    H1S10999   0.184   4.531   6.586  0.6570  0.1759  0.4561
  108OSM    H1T11000   0.079   4.398   6.599 -0.9828  2.6037  0.4500
  108OSM     NF11001   0.166   4.468   6.330  0.0188 -0.1774 -0.1521
  108OSM    HNF11002   0.116   4.413   6.264  0.8302 -1.7160  0.4527
  108OSM    C2S11003   0.226   4.386   6.436 -0.3469  0.2280 -0.1694
  108OSM    H2S11004   0.336   4.404   6.435 -0.6873  2.7145  0.6478
  108OSM    C3S11005   0.210   4.228   6.416 -1.1433 -0.4688  0.0714
  108OSM    H3S11006   0.104   4.195   6.416 -0.9670 -1.0890  1.3026
  108OSM     O311007   0.274   4.153   6.522  0.7577 -0.1742 -0.1975
  108OSM    HO311008   0.261   4.221   6.588  0.3418  0.7269 -1.1734
  108OSM    C4S11009   0.267   4.188   6.285 -0.2584  0.4296  0.2917
  108OSM    H4S11010   0.192   4.167   6.207  0.4665  0.1789 -0.3496
  108OSM    C5S11011   0.396   4.168   6.254  0.7452  0.4021  0.9184
  108OSM    H5S11012   0.469   4.201   6.329 -1.0709  0.9927  2.5193
  108OSM    C6S11013   0.449   4.112   6.121  0.2896  0.3798  0.7377
  108OSM    H6S11014   0.507   4.020   6.143  0.5999 -0.0856 -1.6983
  108OSM    H6T11015   0.525   4.184   6.083 -1.8389  2.0492 -0.5802
  108OSM    C7S11016   0.357   4.099   6.001  0.1542 -0.5563  0.8328
  108OSM    H7S11017   0.313   4.196   5.971  2.7915  0.0389 -1.5449
  108OSM    H7T11018   0.263   4.040   6.015 -0.9660  0.3046 -2.3437
  108OSM    C8S11019   0.421   4.037   5.875 -0.3031 -0.6402 -0.0439
  108OSM    H8S11020   0.459   3.935   5.897  1.6084  0.0399  0.0270
  108OSM    H8T11021   0.512   4.096   5.850  0.2171  0.0988  3.1889
  108OSM    C9S11022   0.326   4.021   5.757  0.4457  0.1670 -0.4941
  108OSM    H9S11023   0.278   4.121   5.745 -1.2479 -0.2240  2.1991
  108OSM    H9T11024   0.244   3.949   5.773  1.4673 -0.7186  0.9372
  108OSM   C10S11025   0.408   3.958   5.646  0.8999  0.3497  0.0726
  108OSM   H10S11026   0.436   3.859   5.689  0.5004  1.0031  1.9113
  108OSM   H10T11027   0.498   4.020   5.627 -0.0331  1.0404 -2.5749
  108OSM   C11S11028   0.338   3.949   5.507 -0.2336 -0.4183 -0.1262
  108OSM   H11S11029   0.302   4.052   5.488 -2.0209 -1.2418 -1.4365
  108OSM   H11T11030   0.248   3.884   5.497  0.0431 -0.5490 -2.0379
  108OSM   C12S11031   0.437   3.901   5.411 -0.4762 -0.2040 -0.5454
  108OSM   H12S11032   0.468   3.797   5.438 -0.3146  0.0380  0.2059
  108OSM   H12T11033   0.528   3.963   5.422  0.4373 -1.1617 -2.2455
  108OSM   C13S11034   0.391   3.900   5.268  0.8022 -0.0534  0.3500
  108OSM   H13S11035   0.303   3.833   5.254  1.5366 -0.6365 -1.7683
  108OSM   H13T11036   0.468   3.847   5.209 -0.2453 -1.8962  0.5781
  108OSM   C14S11037   0.356   4.031   5.202  0.2494 -0.0558 -0.1112
  108OSM   H14S11038   0.431   4.107   5.233 -0.4365  1.0994 -1.1579
  108OSM   H14T11039   0.260   4.069   5.242 -0.0793  1.4918 -2.1725
  108OSM   C15S11040   0.330   4.016   5.048  0.1743  0.3841  0.1256
  108OSM   H15S11041   0.315   3.907   5.028  5.2561 -0.5759  0.2768
  108OSM   H15T11042   0.429   4.048   5.010  0.6565  0.1291  1.1322
  108OSM   C16S11043   0.216   4.104   4.999 -0.1349  0.0999 -0.8519
  108OSM   H16S11044   0.240   4.212   5.001 -2.0107  0.5630 -0.9928
  108OSM   H16T11045   0.132   4.093   5.071  1.6989 -0.8542  1.2644
  108OSM   C17S11046   0.176   4.064   4.853  1.1739  0.6432  0.3151
  108OSM   H17S11047   0.104   4.140   4.816 -0.5809 -1.0508  0.1051
  108OSM   H17T11048   0.130   3.963   4.857  0.7075  0.8382 -0.0711
  108OSM   C18S11049   0.294   4.061   4.755  0.4996 -0.0037 -0.6220
  108OSM   H18S11050   0.339   4.162   4.754  0.6850 -0.0861 -0.6203
  108OSM   H18T11051   0.259   4.034   4.653 -3.7579  1.3027  0.2986
  108OSM   H18U11052   0.370   3.989   4.792 -0.0093  0.7710  2.1443
  108OSM    C1F11053   0.188   4.596   6.319 -0.4000 -0.1558  0.0040
  108OSM     OF11054   0.286   4.641   6.378  0.4795  0.0582  0.3382
  108OSM    C2F11055   0.117   4.673   6.213  0.2876  0.2876  0.4500
  108OSM    H2F11056   0.007   4.661   6.218  0.2607  0.7910  1.1839
  108OSM    H2G11057   0.160   4.644   6.115  0.3622 -0.1607  0.6141
  108OSM    C3F11058   0.155   4.823   6.225 -0.5801  0.0090 -0.0346
  108OSM    H3F11059   0.265   4.834   6.224 -0.3884 -1.5445  0.3911
  108OSM    H3G11060   0.125   4.867   6.323 -2.7247 -0.9600 -0.1854
  108OSM    C4F11061   0.085   4.906   6.119  0.3234  0.0377  0.2074
  108OSM    H4F11062   0.096   5.014   6.144 -5.2904  0.8050  0.5888
  108OSM    H4G11063  -0.022   4.879   6.132  0.0862  1.2095  0.8457
  108OSM    C5F11064   0.130   4.884   5.977 -0.2598  0.0125  0.5972
  108OSM    H5F11065   0.128   4.779   5.941  1.5347  0.3991 -0.8028
  108OSM    H5G11066   0.235   4.918   5.980 -0.3446  0.3175  0.2464
  108OSM    C6F11067   0.050   4.970   5.871  0.3643  1.3802 -0.6877
  108OSM    H6F11068   0.071   5.079   5.883 -0.5244  1.5054 -0.1807
  108OSM    H6G11069  -0.057   4.952   5.894  0.3555  1.4068 -0.7066
  108OSM    C7F11070   0.081   4.940   5.721  0.3088  0.3721 -0.0703
  108OSM    H7F11071   0.055   4.836   5.694  0.1057  0.3196  0.3331
  108OSM    H7G11072   0.190   4.964   5.724  0.0380  1.6469  0.3350
  108OSM    C8F11073   0.015   5.039   5.624 -0.4028 -0.3149 -0.4135
  108OSM    H8F11074   0.087   5.066   5.544  0.8795 -3.1176 -0.3346
  108OSM    H8G11075  -0.016   5.129   5.681  0.0729 -0.6108  0.3294
  108OSM    C9F11076  -0.104   4.980   5.551  0.0024 -0.1233  0.2318
  108OSM    H9F11077  -0.160   4.912   5.617 -1.6050  0.8069 -0.1379
  108OSM   C10F11078  -0.134   4.987   5.419 -0.3265  0.2263  0.3014
  108OSM   H10F11079  -0.233   4.955   5.382  0.5504 -1.2826 -0.7952
  108OSM   C11F11080  -0.054   5.067   5.325  0.3273 -0.0948 -0.0623
  108OSM   H11F11081   0.041   5.020   5.292  1.3633  1.8837 -0.0733
  108OSM   H11G11082  -0.029   5.170   5.359 -0.8324  0.6999 -1.4768
  108OSM   C12F11083  -0.132   5.100   5.190 -0.3409  0.6363 -0.0745
  108OSM   H12F11084  -0.227   5.147   5.222 -1.4180 -1.8969  0.7676
  108OSM   H12G11085  -0.160   5.001   5.148  1.2275  0.2979 -0.3759
  108OSM   C13F11086  -0.063   5.194   5.090  0.1744  0.0019 -0.6822
  108OSM   H13F11087   0.001   5.129   5.026 -0.7795  1.6880 -3.5181
  108OSM   H13G11088  -0.010   5.273   5.146 -0.3987 -0.1674  0.1162
  108OSM   C14F11089  -0.158   5.267   4.994  0.4751  0.1227  0.1989
  108OSM   H14F11090  -0.244   5.306   5.052  0.6610  0.2154  0.4143
  108OSM   H14G11091  -0.198   5.195   4.919  2.9567  0.8601 -2.0211
  108OSM   C15F11092  -0.084   5.374   4.911 -0.0196 -0.2875  0.1112
  108OSM   H15F11093  -0.002   5.319   4.859 -0.1598 -0.7990  0.4178
  108OSM   H15G11094  -0.033   5.455   4.967  1.5925 -1.3170  0.2332
  108OSM   C16F11095  -0.173   5.424   4.796 -0.3013  0.2882 -0.0697
  108OSM   H16F11096  -0.261   5.458   4.854 -0.6748 -1.7244  0.6310
  108OSM   H16G11097  -0.195   5.337   4.730 -0.0346  0.0539  0.1474
  108OSM   C17F11098  -0.107   5.534   4.722 -0.4468 -0.2265 -0.0385
  108OSM   H17F11099  -0.162   5.539   4.626  1.7033  0.6841 -1.3081
  108OSM   H17G11100  -0.007   5.494   4.695 -1.2715 -1.7806 -0.8478
  108OSM   C18F11101  -0.107   5.669   4.797 -0.1588  0.4864 -0.2378
  108OSM   H18F11102  -0.032   5.653   4.878  0.5026 -1.7897 -1.2273
  108OSM   H18G11103  -0.212   5.695   4.820  0.1404  1.2691  0.3137
  108OSM   H18H11104  -0.060   5.753   4.742 -0.6642  1.2998  0.5379
  109OSM      N11105   4.339   6.336   7.141  0.1109 -0.0125  0.6314
  109OSM    C1511106   4.191   6.334   7.104  0.0159  0.3168  0.1627
  109OSM   H15A11107   4.132   6.340   7.194  1.2917 -1.1689  1.1391
  109OSM   H15B11108   4.166   6.239   7.060  1.0006 -0.3462  1.0230
  109OSM   H15C11109   4.164   6.417   7.039  0.8834  0.2291 -0.3173
  109OSM    C1411110   4.360   6.481   7.192 -0.4964 -0.5895  0.0494
  109OSM   H14A11111   4.273   6.516   7.247  0.2166 -0.3541  1.0499
  109OSM   H14B11112   4.362   6.545   7.106 -2.3641 -0.9611 -0.3303
  109OSM   H14C11113   4.440   6.503   7.261 -1.8546 -0.2527  1.5878
  109OSM    C1311114   4.352   6.230   7.248 -0.7434  0.1040  0.2717
  109OSM   H13A11115   4.289   6.246   7.334 -2.5110  0.9806 -1.1307
  109OSM   H13B11116   4.455   6.226   7.281 -0.6374 -2.7076 -0.1487
  109OSM   H13C11117   4.330   6.129   7.214 -0.5185  0.0190  0.3761
  109OSM    C1211118   4.433   6.301   7.022  0.1751  0.0570 -1.1297
  109OSM   H12A11119   4.415   6.196   7.006 -2.6377  0.1540  0.6651
  109OSM   H12B11120   4.528   6.310   7.072 -0.8182 -1.1374  1.1046
  109OSM    C1111121   4.431   6.401   6.902 -0.4256  1.1396  0.1170
  109OSM   H11A11122   4.330   6.403   6.855  0.2646 -1.9731 -1.8198
  109OSM   H11B11123   4.487   6.358   6.816 -1.5672  1.5916 -0.8814
  109OSM      P11124   4.635   6.574   6.916 -0.1275  0.0895  0.0727
  109OSM    O1311125   4.664   6.673   7.022 -0.8832  0.0019  0.9635
  109OSM    O1411126   4.710   6.448   6.902 -0.6378  0.4512 -0.6648
  109OSM    O1111127   4.625   6.644   6.780 -0.1606 -0.0449 -0.3382
  109OSM    O1211128   4.483   6.531   6.924 -0.0366  0.3976  0.3067
  109OSM    C1S11129   4.656   6.584   6.660  0.4445 -0.1800 -0.1190
  109OSM    H1S11130   4.587   6.500   6.636  0.3313  0.1949 -1.1574
  109OSM    H1T11131   4.759   6.544   6.660  0.1720 -0.9626  1.5491
  109OSM     NF11132   4.624   6.618   6.415  1.0311 -0.4872 -0.3604
  109OSM    HNF11133   4.703   6.619   6.354  1.2243 -0.8825 -0.1205
  109OSM    C2S11134   4.647   6.684   6.540  0.6319 -0.6663 -0.7673
  109OSM    H2S11135   4.555   6.743   6.563  0.9681 -1.0030  1.8010
  109OSM    C3S11136   4.761   6.786   6.555  0.0418 -0.2354 -0.0717
  109OSM    H3S11137   4.855   6.727   6.564 -0.7696 -1.8542 -1.5379
  109OSM     O311138   4.750   6.874   6.671  0.1518  0.0242  0.5867
  109OSM    HO311139   4.674   6.840   6.719  1.6646 -1.1098  2.3139
  109OSM    C4S11140   4.773   6.872   6.435 -0.5097 -0.8675  1.0348
  109OSM    H4S11141   4.687   6.936   6.410  1.0894  0.2528 -2.1806
  109OSM    C5S11142   4.893   6.889   6.373  0.1688 -0.2910 -0.3695
  109OSM    H5S11143   4.989   6.855   6.413  0.1267 -0.8078 -0.7027
  109OSM    C6S11144   4.910   6.995   6.265  0.4206 -0.2477  0.3880
  109OSM    H6S11145   4.977   7.079   6.293  0.0262  0.1300  0.2157
  109OSM    H6T11146   4.813   7.039   6.234 -0.3260 -1.8667  0.3180
  109OSM    C7S11147   4.971   6.935   6.143 -0.1619 -0.4550  0.6949
  109OSM    H7S11148   4.888   6.872   6.105 -2.0082  0.4008  3.1015
  109OSM    H7T11149   5.067   6.883   6.166 -0.9115 -0.8727  3.1967
  109OSM    C8S11150   4.998   7.049   6.036 -0.6029 -0.1292 -0.3411
  109OSM    H8S11151   5.028   7.138   6.096 -0.3379  0.7112 -1.6795
  109OSM    H8T11152   4.903   7.074   5.985 -1.8498 -1.7747  1.0631
  109OSM    C9S11153   5.115   7.036   5.939 -0.4371  0.7126 -0.1494
  109OSM    H9S11154   5.203   6.998   5.996 -0.2647 -0.8833 -1.3862
  109OSM    H9T11155   5.139   7.138   5.903 -0.4790  0.9260  0.4057
  109OSM   C10S11156   5.091   6.933   5.830 -0.3012 -0.1630 -0.7642
  109OSM   H10S11157   4.982   6.932   5.808 -0.4775 -1.5325  0.0638
  109OSM   H10T11158   5.119   6.843   5.889 -1.8961  0.0360  0.3615
  109OSM   C11S11159   5.177   6.954   5.702 -0.2459  0.0290  0.0478
  109OSM   H11S11160   5.280   6.914   5.700 -0.4148 -0.5077  1.1733
  109OSM   H11T11161   5.184   7.060   5.670  3.8705 -0.1826 -0.2177
  109OSM   C12S11162   5.118   6.876   5.593  0.7039  0.6493 -0.0212
  109OSM   H12S11163   5.018   6.920   5.573  0.3439 -0.2402 -0.2520
  109OSM   H12T11164   5.098   6.772   5.627 -1.4937  1.2605  0.7190
  109OSM   C13S11165   5.200   6.884   5.460  0.8311  0.1999 -1.1075
  109OSM   H13S11166   5.308   6.874   5.483  0.5373 -2.0769 -0.5428
  109OSM   H13T11167   5.179   6.983   5.414 -2.1560  0.6267  0.8914
  109OSM   C14S11168   5.163   6.773   5.360  0.1337 -0.1887  0.6869
  109OSM   H14S11169   5.053   6.778   5.346  0.2956  2.3014 -0.1846
  109OSM   H14T11170   5.185   6.672   5.402 -0.5432 -1.0542 -0.9493
  109OSM   C15S11171   5.238   6.795   5.223 -1.0430  0.1057  0.2688
  109OSM   H15S11172   5.349   6.794   5.217 -0.9800 -1.7317  0.8967
  109OSM   H15T11173   5.209   6.897   5.191  2.1532  0.6445 -1.2587
  109OSM   C16S11174   5.183   6.702   5.109 -0.5916  0.5523  0.0774
  109OSM   H16S11175   5.079   6.740   5.099 -1.5511 -2.2021 -1.6812
  109OSM   H16T11176   5.183   6.597   5.146 -2.4864  0.2949 -0.5385
  109OSM   C17S11177   5.267   6.705   4.982 -0.1768 -0.4027 -0.3843
  109OSM   H17S11178   5.372   6.690   5.013 -0.0173  1.1949 -0.0801
  109OSM   H17T11179   5.272   6.811   4.949  2.4243 -0.2533  0.2697
  109OSM   C18S11180   5.232   6.602   4.875 -0.4430  0.1250 -0.4215
  109OSM   H18S11181   5.237   6.497   4.908 -3.1143 -0.7444 -2.4089
  109OSM   H18T11182   5.302   6.602   4.789  0.2576 -0.4475  0.1420
  109OSM   H18U11183   5.123   6.619   4.860 -1.1625 -2.9227  0.7808
  109OSM    C1F11184   4.512   6.556   6.396  0.0930  0.5415  0.5244
  109OSM     OF11185   4.418   6.557   6.475 -0.0947 -0.6426 -0.0197
  109OSM    C2F11186   4.500   6.472   6.273 -0.1964 -0.1081  0.3881
  109OSM    H2F11187   4.502   6.364   6.298  1.3225 -0.4458 -1.0056
  109OSM    H2G11188   4.577   6.496   6.197  0.0605  0.2732  0.7648
  109OSM    C3F11189   4.361   6.480   6.190  0.4771 -0.4993 -0.1337
  109OSM    H3F11190   4.329   6.587   6.191 -1.1612 -0.9661  0.5533
  109OSM    H3G11191   4.284   6.428   6.251 -0.4531  1.8063  0.7897
  109OSM    C4F11192   4.366   6.428   6.055 -0.2490 -0.8304 -0.3913
  109OSM    H4F11193   4.403   6.324   6.058  0.3912 -0.5951  0.8461
  109OSM    H4G11194   4.437   6.489   5.995  0.6983 -0.8974  0.6175
  109OSM    C5F11195   4.228   6.447   5.995 -0.2828  0.1017  0.4520
  109OSM    H5F11196   4.180   6.541   6.029  0.6084  0.2873  1.2613
  109OSM    H5G11197   4.170   6.359   6.031 -0.3080 -1.0259 -2.1161
  109OSM    C6F11198   4.228   6.444   5.845  0.3182 -0.2081 -0.2872
  109OSM    H6F11199   4.124   6.435   5.810  0.7805 -1.4317 -1.4321
  109OSM    H6G11200   4.281   6.348   5.828 -2.6036 -1.8485 -0.7062
  109OSM    C7F11201   4.305   6.558   5.774  0.6161  0.3769 -0.2543
  109OSM    H7F11202   4.414   6.537   5.774  0.4829 -0.3218 -0.1244
  109OSM    H7G11203   4.271   6.652   5.824 -1.7273 -0.9304  0.7602
  109OSM    C8F11204   4.272   6.554   5.621  0.1836  0.2130  0.1122
  109OSM    H8F11205   4.300   6.653   5.579 -1.5646  0.9752  0.6276
  109OSM    H8G11206   4.162   6.544   5.610  0.1083 -0.1082  1.1061
  109OSM    C9F11207   4.324   6.431   5.548  0.1194 -0.0499 -0.2159
  109OSM    H9F11208   4.319   6.349   5.621  0.4885 -0.0424 -0.1827
  109OSM   C10F11209   4.349   6.411   5.420 -0.4287 -0.0698  0.4291
  109OSM   H10F11210   4.353   6.309   5.380 -0.0483  0.4330 -0.8616
  109OSM   C11F11211   4.344   6.517   5.309  0.1218 -0.7642  0.3587
  109OSM   H11F11212   4.444   6.537   5.264 -0.0025  0.8407  0.7674
  109OSM   H11G11213   4.303   6.615   5.341  3.1093  0.8191 -0.2966
  109OSM   C12F11214   4.255   6.467   5.189 -0.4431 -0.5136 -0.1460
  109OSM   H12F11215   4.148   6.487   5.212  0.0763  1.7435  0.5667
  109OSM   H12G11216   4.279   6.359   5.180  1.7438  0.0527 -1.9290
  109OSM   C13F11217   4.291   6.524   5.053  0.2240 -0.0099 -0.3741
  109OSM   H13F11218   4.392   6.505   5.010  0.8026  1.9227  0.0242
  109OSM   H13G11219   4.278   6.634   5.060  0.3908 -0.0729  1.2176
  109OSM   C14F11220   4.188   6.471   4.952 -0.4197 -0.4263 -0.0848
  109OSM   H14F11221   4.094   6.463   5.011  0.2072  2.3533  1.4751
  109OSM   H14G11222   4.213   6.363   4.940  0.4885 -0.2689  0.3122
  109OSM   C15F11223   4.195   6.549   4.817 -0.0537  0.1377 -0.5289
  109OSM   H15F11224   4.160   6.481   4.736  0.8449 -0.6572 -0.2665
  109OSM   H15G11225   4.296   6.589   4.797 -0.9823  2.5360 -0.7619
  109OSM   C16F11226   4.112   6.676   4.804  0.5943 -0.4681  0.9916
  109OSM   H16F11227   4.134   6.755   4.878 -0.2866  0.2819  0.4741
  109OSM   H16G11228   4.015   6.631   4.833  0.4693 -0.2933  0.8517
  109OSM   C17F11229   4.114   6.753   4.675  1.1170 -0.0870  0.0556
  109OSM   H17F11230   4.065   6.700   4.591 -4.0330  1.5472  1.6521
  109OSM   H17G11231   4.216   6.786   4.649  0.4620  0.9686 -1.2928
  109OSM   C18F11232   4.033   6.887   4.679  0.0929 -0.3641  0.1441
  109OSM   H18F11233   4.086   6.967   4.734  1.1932 -1.0002  0.0358
  109OSM   H18G11234   3.936   6.876   4.731 -0.6064  2.1154 -0.4953
  109OSM   H18H11235   4.027   6.925   4.575  1.0786 -2.2618 -0.6584
  110OSM      N11236   5.470   5.348   7.268 -1.0753  0.1248 -0.4384
  110OSM    C1511237   5.492   5.423   7.395  0.1003 -1.0041 -0.4152
  110OSM   H15A11238   5.420   5.503   7.403  2.9213  1.5042  2.9684
  110OSM   H15B11239   5.592   5.463   7.389 -0.3692  0.2776 -0.1002
  110OSM   H15C11240   5.481   5.367   7.487 -2.8811  0.9039  0.5525
  110OSM    C1411241   5.481   5.440   7.149  0.3651  0.1896 -0.1974
  110OSM   H14A11242   5.393   5.503   7.151 -0.0442 -0.3851  0.3519
  110OSM   H14B11243   5.477   5.380   7.059 -1.6670  0.4578 -0.3332
  110OSM   H14C11244   5.570   5.500   7.148 -1.6943  3.4660 -0.0053
  110OSM    C1311245   5.586   5.247   7.261  0.4791 -0.1700 -0.0245
  110OSM   H13A11246   5.590   5.186   7.350 -1.5825 -0.0799  0.1678
  110OSM   H13B11247   5.687   5.283   7.249  0.5770 -0.2166  0.6430
  110OSM   H13C11248   5.564   5.182   7.177  1.3561 -0.9453  0.3320
  110OSM    C1211249   5.340   5.282   7.273  0.7732 -0.0123  0.2549
  110OSM   H12A11250   5.283   5.372   7.289  0.3964 -0.0761 -0.6710
  110OSM   H12B11251   5.337   5.210   7.354  3.8727 -0.2428  0.3014
  110OSM    C1111252   5.299   5.190   7.158  0.6860 -0.3440 -0.7419
  110OSM   H11A11253   5.383   5.132   7.113  2.0648  0.6475  0.4541
  110OSM   H11B11254   5.255   5.249   7.075  0.5423 -2.3575 -2.1875
  110OSM      P11255   5.209   4.955   7.211  0.0269 -0.0039 -0.5552
  110OSM    O1311256   5.345   4.925   7.265 -0.3430 -0.6751 -0.3456
  110OSM    O1411257   5.096   4.892   7.283 -0.4911  0.5999  0.3205
  110OSM    O1111258   5.208   4.919   7.056 -0.4655 -0.0514 -0.5236
  110OSM    O1211259   5.194   5.112   7.217 -0.4746  0.4361 -0.7236
  110OSM    C1S11260   5.119   4.988   6.966  0.0481 -0.5714  0.2590
  110OSM    H1S11261   5.176   5.076   6.928  0.6329 -1.5980 -1.3295
  110OSM    H1T11262   5.025   5.030   7.008 -0.1810  0.5685 -1.2881
  110OSM     NF11263   5.006   5.007   6.751  0.0174  0.5715 -0.2533
  110OSM    HNF11264   4.913   5.030   6.778  0.7144 -0.1849  3.2288
  110OSM    C2S11265   5.075   4.909   6.840  0.3221 -0.2319 -0.2232
  110OSM    H2S11266   5.153   4.864   6.776 -1.1194 -0.0023 -2.2520
  110OSM    C3S11267   4.985   4.791   6.887 -0.0549 -0.8742 -0.6405
  110OSM    H3S11268   4.910   4.830   6.960  0.3780  0.0163 -0.6573
  110OSM     O311269   5.053   4.699   6.971  0.1889  0.4942 -0.1264
  110OSM    HO311270   5.111   4.755   7.023 -0.0576  0.1879  0.4842
  110OSM    C4S11271   4.906   4.726   6.778 -0.2482 -0.5283  0.3103
  110OSM    H4S11272   4.809   4.773   6.755 -0.2543 -1.0657 -0.8168
  110OSM    C5S11273   4.941   4.628   6.698 -0.1265  0.2206  0.3938
  110OSM    H5S11274   5.041   4.582   6.702  0.2117  0.5996 -2.1479
  110OSM    C6S11275   4.870   4.558   6.589  0.2684  0.1131  0.3205
  110OSM    H6S11276   4.920   4.573   6.490 -2.2862 -1.3976 -1.3090
  110OSM    H6T11277   4.775   4.611   6.567 -0.4285 -0.3341  2.0868
  110OSM    C7S11278   4.819   4.409   6.601 -0.6657  0.2728  1.1261
  110OSM    H7S11279   4.730   4.413   6.668 -1.0142  1.7976  0.6331
  110OSM    H7T11280   4.898   4.351   6.652 -1.1160  0.0023  1.5173
  110OSM    C8S11281   4.790   4.349   6.462  0.9658  0.0624  0.2684
  110OSM    H8S11282   4.788   4.237   6.463 -1.8349  0.0237 -0.7265
  110OSM    H8T11283   4.864   4.392   6.392 -0.0409  1.2259 -0.1143
  110OSM    C9S11284   4.653   4.396   6.414  0.2403  0.7708  0.8834
  110OSM    H9S11285   4.657   4.507   6.410  5.7582  0.8351 -1.2255
  110OSM    H9T11286   4.575   4.374   6.490 -1.4703  2.4262 -0.2954
  110OSM   C10S11287   4.617   4.337   6.273  0.4400 -0.4290 -0.8519
  110OSM   H10S11288   4.604   4.230   6.299  2.8765 -0.1563  1.9429
  110OSM   H10T11289   4.703   4.354   6.205  2.1612 -0.1243  1.2905
  110OSM   C11S11290   4.501   4.413   6.205  1.1209  0.3590  0.2831
  110OSM   H11S11291   4.538   4.516   6.184  0.9757  0.4862  0.6557
  110OSM   H11T11292   4.420   4.424   6.280  0.1224 -0.5477 -0.6262
  110OSM   C12S11293   4.444   4.350   6.075  0.5013  0.2385  0.2328
  110OSM   H12S11294   4.429   4.241   6.091 -2.0506  0.8692  3.1228
  110OSM   H12T11295   4.531   4.366   6.008  1.7145 -2.3340  1.0538
  110OSM   C13S11296   4.317   4.407   6.018  0.5832 -0.1027  0.8662
  110OSM   H13S11297   4.302   4.514   6.046 -0.5001  0.2607 -0.9324
  110OSM   H13T11298   4.236   4.362   6.079 -0.7576  1.1007  0.0420
  110OSM   C14S11299   4.304   4.392   5.864  0.3672 -0.0828 -0.2437
  110OSM   H14S11300   4.280   4.290   5.827 -0.4702 -0.0158  0.0937
  110OSM   H14T11301   4.406   4.415   5.827 -0.1022  1.2096 -0.8004
  110OSM   C15S11302   4.199   4.489   5.815 -0.2356  0.3012 -0.0726
  110OSM   H15S11303   4.211   4.588   5.865 -0.1642  1.2797 -1.9180
  110OSM   H15T11304   4.097   4.452   5.838 -0.3017  0.8167  0.5025
  110OSM   C16S11305   4.199   4.522   5.667 -0.0031 -0.2760  0.2056
  110OSM   H16S11306   4.214   4.426   5.614 -0.2344 -0.1898 -0.0231
  110OSM   H16T11307   4.295   4.578   5.660  0.4633 -1.0494  0.3562
  110OSM   C17S11308   4.081   4.607   5.619 -0.3550 -0.3708  0.4968
  110OSM   H17S11309   4.079   4.692   5.691  1.3016  0.1540 -0.0419
  110OSM   H17T11310   3.989   4.546   5.630 -0.1307 -0.8983 -0.4897
  110OSM   C18S11311   4.095   4.666   5.473 -0.0064 -0.2971 -0.0466
  110OSM   H18S11312   4.008   4.733   5.454  1.3238  1.6234  0.3223
  110OSM   H18T11313   4.083   4.588   5.394 -0.0360 -0.4231  0.0818
  110OSM   H18U11314   4.193   4.716   5.456  0.8904 -0.2696  4.0559
  110OSM    C1F11315   5.074   5.082   6.669  0.0536 -0.2039 -0.4927
  110OSM     OF11316   5.196   5.072   6.661  0.1943 -0.5539 -0.1653
  110OSM    C2F11317   5.008   5.199   6.590  0.0909  0.4464  0.6675
  110OSM    H2F11318   4.969   5.272   6.665  2.7629  0.8638  1.7654
  110OSM    H2G11319   4.926   5.160   6.526 -0.9206 -0.5147  2.4963
  110OSM    C3F11320   5.120   5.266   6.502  0.2307  0.1288  0.0074
  110OSM    H3F11321   5.168   5.177   6.456  1.8353  0.4833  0.9236
  110OSM    H3G11322   5.207   5.303   6.560  0.4544 -0.1713 -0.1308
  110OSM    C4F11323   5.059   5.357   6.403  0.1436 -0.2876  0.0445
  110OSM    H4F11324   4.962   5.316   6.368  0.8394 -0.4331 -1.8224
  110OSM    H4G11325   5.127   5.348   6.316 -1.0000 -0.7693 -0.8300
  110OSM    C5F11326   5.052   5.510   6.444  0.6240  0.2876 -0.5356
  110OSM    H5F11327   5.143   5.549   6.494  0.6706  0.2642 -0.6026
  110OSM    H5G11328   4.968   5.527   6.515  0.4161 -0.2547 -0.6477
  110OSM    C6F11329   5.037   5.597   6.322 -0.4767  0.4217 -0.3129
  110OSM    H6F11330   4.939   5.569   6.279 -0.0244  0.0829 -1.1335
  110OSM    H6G11331   5.117   5.571   6.249  2.0492 -2.5816  3.1142
  110OSM    C7F11332   5.026   5.746   6.359 -0.4996 -0.0092 -0.2786
  110OSM    H7F11333   5.118   5.784   6.407 -1.5342  1.6205  0.5263
  110OSM    H7G11334   4.941   5.766   6.429 -0.3566  1.6150 -0.5362
  110OSM    C8F11335   4.996   5.821   6.230  0.0463 -0.7007  0.2797
  110OSM    H8F11336   5.073   5.774   6.165 -0.0233 -2.4797  1.4084
  110OSM    H8G11337   5.000   5.931   6.241  0.3568 -0.6337 -0.3993
  110OSM    C9F11338   4.853   5.795   6.199  0.1751 -0.7205  0.1311
  110OSM    H9F11339   4.779   5.781   6.279 -2.4334  1.8248 -1.6460
  110OSM   C10F11340   4.811   5.783   6.070 -0.1870  0.4528  0.6019
  110OSM   H10F11341   4.708   5.762   6.038  0.3277 -0.2766 -0.6311
  110OSM   C11F11342   4.897   5.792   5.942 -0.0552  0.3646 -0.2695
  110OSM   H11F11343   4.999   5.827   5.972 -1.0821  1.6144  2.0430
  110OSM   H11G11344   4.857   5.879   5.885  1.6778  0.5854 -1.2409
  110OSM   C12F11345   4.896   5.664   5.865 -0.3885  0.8920 -0.4246
  110OSM   H12F11346   4.929   5.680   5.760  0.9587 -0.7264 -0.2895
  110OSM   H12G11347   4.798   5.612   5.855 -0.2528  0.8730 -1.9011
  110OSM   C13F11348   4.980   5.550   5.935 -0.6256 -0.3393  0.0812
  110OSM   H13F11349   4.925   5.494   6.013 -1.9515  0.7590 -0.0170
  110OSM   H13G11350   5.070   5.600   5.976  1.4272 -1.3220 -2.8707
  110OSM   C14F11351   5.048   5.444   5.851 -0.3139  0.2713  0.0872
  110OSM   H14F11352   5.129   5.395   5.909 -0.4818 -1.1129 -0.8034
  110OSM   H14G11353   5.087   5.478   5.753 -1.0864  2.1495  0.3949
  110OSM   C15F11354   4.948   5.330   5.816 -0.2615 -0.2642 -0.2283
  110OSM   H15F11355   4.860   5.376   5.765 -0.6299  0.9124  1.3933
  110OSM   H15G11356   4.907   5.288   5.910 -1.4295 -0.4412 -0.7919
  110OSM   C16F11357   4.996   5.216   5.722 -0.1317  0.2856 -1.0012
  110OSM   H16F11358   5.048   5.261   5.634  1.3556  0.4212 -0.0820
  110OSM   H16G11359   4.909   5.150   5.699 -1.3232  1.1339  0.8014
  110OSM   C17F11360   5.104   5.125   5.790  0.2669  0.0491 -0.9240
  110OSM   H17F11361   5.071   5.101   5.893  2.0956 -2.8219 -0.8844
  110OSM   H17G11362   5.199   5.182   5.797  0.0209  0.4284 -0.6385
  110OSM   C18F11363   5.123   4.995   5.714 -0.3616  0.3848 -0.1534
  110OSM   H18F11364   5.195   4.927   5.764 -0.4665 -0.3793 -1.0231
  110OSM   H18G11365   5.159   5.017   5.612  0.0380 -1.2009 -0.3830
  110OSM   H18H11366   5.031   4.934   5.701  1.0391 -1.5986 -1.1175
  111OSM      N11367   1.490   4.132   7.103  0.1924 -0.1202  0.4755
  111OSM    C1511368   1.574   4.250   7.127 -0.3779 -0.6439  0.4558
  111OSM   H15A11369   1.539   4.345   7.091 -0.3114  0.0009  1.9909
  111OSM   H15B11370   1.679   4.235   7.106  0.2023  1.0018  1.9029
  111OSM   H15C11371   1.570   4.270   7.233  1.0064  0.2677  0.3605
  111OSM    C1411372   1.350   4.160   7.128  0.3704 -0.9099 -0.1066
  111OSM   H14A11373   1.309   4.149   7.227  1.0704 -2.7886  0.0232
  111OSM   H14B11374   1.284   4.090   7.078 -0.5495  0.6661 -1.1954
  111OSM   H14C11375   1.310   4.251   7.086  0.6463 -0.7573 -0.0410
  111OSM    C1311376   1.499   4.125   6.951  0.2562 -0.0363  0.2734
  111OSM   H13A11377   1.490   4.222   6.903 -0.8954 -0.1530  0.2284
  111OSM   H13B11378   1.425   4.057   6.910 -1.2595  1.5021  0.3528
  111OSM   H13C11379   1.589   4.078   6.914 -0.0710 -1.0231  0.7025
  111OSM    C1211380   1.546   4.007   7.175  0.3165  0.3005 -0.4449
  111OSM   H12A11381   1.480   3.926   7.148 -0.1020  0.7614 -0.8142
  111OSM   H12B11382   1.541   4.034   7.280  1.4878  1.9287 -0.7553
  111OSM    C1111383   1.695   3.962   7.152  0.1031  0.6646  0.2647
  111OSM   H11A11384   1.718   3.862   7.195 -1.6219 -0.6422 -1.6485
  111OSM   H11B11385   1.758   4.033   7.208 -0.3554  0.0982  1.5504
  111OSM      P11386   1.864   4.009   6.959  0.3028  0.4337  0.1361
  111OSM    O1311387   1.836   4.157   6.949 -0.0379 -0.0355  0.7312
  111OSM    O1411388   1.983   3.962   7.026 -0.5324  0.1461  0.2507
  111OSM    O1111389   1.868   3.962   6.814 -0.0775  0.0312  0.7977
  111OSM    O1211390   1.728   3.944   7.009 -0.1930 -0.5811 -0.0662
  111OSM    C1S11391   1.745   3.945   6.735 -0.1969  0.6780  0.5670
  111OSM    H1S11392   1.659   4.006   6.767  0.1549  0.5357  1.8245
  111OSM    H1T11393   1.713   3.839   6.744 -1.9254  1.1669  0.4977
  111OSM     NF11394   1.649   3.957   6.510 -0.4205  0.6079  0.1859
  111OSM    HNF11395   1.607   3.877   6.466  0.6355  0.7050 -1.0648
  111OSM    C2S11396   1.772   3.948   6.583  0.2399  0.1816  0.0404
  111OSM    H2S11397   1.816   4.050   6.570 -0.0195  0.3813  0.6652
  111OSM    C3S11398   1.880   3.841   6.534  0.0251 -0.2856  0.4421
  111OSM    H3S11399   1.852   3.734   6.545 -0.5473 -0.2451 -0.5000
  111OSM     O311400   2.003   3.849   6.602  0.0293 -0.0203  0.5445
  111OSM    HO311401   1.981   3.918   6.665 -0.8334  0.3634 -0.1505
  111OSM    C4S11402   1.899   3.871   6.384 -0.2001 -0.0952 -0.1173
  111OSM    H4S11403   1.966   3.956   6.365  0.4216 -0.8095 -1.1972
  111OSM    C5S11404   1.836   3.802   6.288 -0.2764  0.2866 -0.2806
  111OSM    H5S11405   1.773   3.714   6.310  1.5888 -1.5105 -1.7462
  111OSM    C6S11406   1.856   3.819   6.134 -1.0021 -0.7944  0.0990
  111OSM    H6S11407   1.951   3.875   6.115 -0.9869 -0.3263  1.4198
  111OSM    H6T11408   1.776   3.886   6.096 -0.7150  0.6057  1.7920
  111OSM    C7S11409   1.849   3.686   6.057 -0.1830 -0.3506 -0.6285
  111OSM    H7S11410   1.746   3.646   6.051  0.1582 -1.2555 -0.6677
  111OSM    H7T11411   1.908   3.616   6.120  0.7249  2.0785  1.3950
  111OSM    C8S11412   1.910   3.705   5.911 -0.4720 -0.0545  0.4845
  111OSM    H8S11413   2.015   3.743   5.916 -0.3461 -0.2951 -0.2014
  111OSM    H8T11414   1.840   3.779   5.869  0.3345  0.7855  0.5830
  111OSM    C9S11415   1.896   3.580   5.827  0.1465 -0.2681  0.2309
  111OSM    H9S11416   1.794   3.542   5.845 -1.1613  2.4027 -1.0331
  111OSM    H9T11417   1.959   3.492   5.852  2.4868  1.0487 -0.6480
  111OSM   C10S11418   1.916   3.600   5.671 -0.0297  1.0473 -0.4970
  111OSM   H10S11419   1.894   3.500   5.627 -0.4261  0.8467  0.1433
  111OSM   H10T11420   2.019   3.626   5.638  1.0667 -0.7738  1.3000
  111OSM   C11S11421   1.822   3.708   5.609 -0.1487 -0.3035  0.6349
  111OSM   H11S11422   1.840   3.806   5.658 -0.9946  0.8405 -1.2242
  111OSM   H11T11423   1.717   3.681   5.634  0.0618 -0.8480  0.9453
  111OSM   C12S11424   1.834   3.737   5.464  0.7464 -0.0163  0.2184
  111OSM   H12S11425   1.932   3.783   5.437 -0.3836  1.9671 -0.7855
  111OSM   H12T11426   1.761   3.816   5.435 -0.3893 -0.6540  1.2799
  111OSM   C13S11427   1.811   3.617   5.361  0.4457  0.0796  0.3330
  111OSM   H13S11428   1.710   3.573   5.378  0.1197  1.1809  1.4176
  111OSM   H13T11429   1.880   3.532   5.380 -1.3631 -1.1393  1.7813
  111OSM   C14S11430   1.826   3.654   5.209  0.1026 -0.0437  0.1018
  111OSM   H14S11431   1.932   3.672   5.181  0.2052 -1.6771 -0.6764
  111OSM   H14T11432   1.781   3.754   5.187  0.2535 -0.4094 -2.1255
  111OSM   C15S11433   1.778   3.540   5.127 -0.2723  0.1044  0.2469
  111OSM   H15S11434   1.688   3.496   5.173  0.1337  1.3927  2.4089
  111OSM   H15T11435   1.856   3.461   5.118 -0.3362 -0.4541  3.5222
  111OSM   C16S11436   1.753   3.583   4.981 -0.9636 -0.2710 -0.6702
  111OSM   H16S11437   1.850   3.609   4.933 -1.0353  1.4110  0.0223
  111OSM   H16T11438   1.695   3.678   4.988  0.5027  0.5150  1.9590
  111OSM   C17S11439   1.675   3.477   4.907 -0.0408  0.0059  0.7636
  111OSM   H17S11440   1.578   3.460   4.958 -0.8606  2.2683  0.0909
  111OSM   H17T11441   1.733   3.382   4.899 -2.1944 -1.4148  1.2481
  111OSM   C18S11442   1.648   3.523   4.759 -0.4598 -0.7282 -0.8099
  111OSM   H18S11443   1.744   3.539   4.706 -1.3775  1.3254 -1.9446
  111OSM   H18T11444   1.594   3.619   4.774  0.2316 -0.4053 -0.3311
  111OSM   H18U11445   1.592   3.449   4.697  1.1193 -3.6408  0.9993
  111OSM    C1F11446   1.575   4.067   6.513 -0.3162  0.4366 -0.7980
  111OSM     OF11447   1.610   4.167   6.578  0.3692 -0.4233 -0.3884
  111OSM    C2F11448   1.441   4.057   6.454  0.1020 -0.2105 -0.7661
  111OSM    H2F11449   1.361   4.096   6.520  1.7098  2.0868 -0.0588
  111OSM    H2G11450   1.416   3.949   6.444 -1.3073 -0.0550  0.7698
  111OSM    C3F11451   1.434   4.133   6.315 -0.1005 -0.0837 -0.1873
  111OSM    H3F11452   1.467   4.239   6.326 -0.3037  0.0795 -1.0507
  111OSM    H3G11453   1.326   4.147   6.295 -0.6780  0.6231  2.9039
  111OSM    C4F11454   1.506   4.066   6.199 -0.9778  0.3051  0.1545
  111OSM    H4F11455   1.614   4.050   6.217 -1.3581 -1.6476  0.9813
  111OSM    H4G11456   1.498   4.132   6.110  0.2575  0.8798  0.4460
  111OSM    C5F11457   1.438   3.933   6.152  0.0747 -0.8548 -1.1075
  111OSM    H5F11458   1.328   3.948   6.138 -0.2929 -0.4270  1.6036
  111OSM    H5G11459   1.460   3.855   6.228 -0.2665 -0.1043 -0.2065
  111OSM    C6F11460   1.484   3.896   6.015 -0.0410  0.0545 -0.1492
  111OSM    H6F11461   1.594   3.886   6.006  0.1677  0.7935  1.2673
  111OSM    H6G11462   1.462   3.979   5.945  0.5074 -2.2030 -3.1596
  111OSM    C7F11463   1.423   3.771   5.968 -0.1456 -0.2623 -0.4756
  111OSM    H7F11464   1.312   3.774   5.974 -0.0825  0.5369  0.6787
  111OSM    H7G11465   1.456   3.682   6.025  2.0880 -0.3103 -1.7286
  111OSM    C8F11466   1.426   3.739   5.818 -0.2643  0.5722  0.7447
  111OSM    H8F11467   1.380   3.638   5.804  0.3369  0.3409  0.4338
  111OSM    H8G11468   1.529   3.737   5.777  0.0177 -0.0813  1.4648
  111OSM    C9F11469   1.348   3.838   5.729 -1.0436 -0.1122 -0.0949
  111OSM    H9F11470   1.310   3.931   5.773 -0.8841 -0.1815  0.1968
  111OSM   C10F11471   1.318   3.806   5.601  0.2002  0.1595 -0.5615
  111OSM   H10F11472   1.261   3.886   5.551 -1.1239 -0.2464  0.2301
  111OSM   C11F11473   1.342   3.686   5.515 -0.3294  0.1288 -0.5434
  111OSM   H11F11474   1.242   3.642   5.493 -0.4315  0.4084 -0.6423
  111OSM   H11G11475   1.411   3.612   5.560 -3.4454 -1.2937  2.2941
  111OSM   C12F11476   1.397   3.732   5.376 -0.3861  0.4669 -0.8457
  111OSM   H12F11477   1.485   3.798   5.395  1.6387 -1.9284 -1.4627
  111OSM   H12G11478   1.322   3.782   5.312 -0.5712 -0.9061 -1.7311
  111OSM   C13F11479   1.451   3.616   5.291  0.0248 -0.0619 -0.0199
  111OSM   H13F11480   1.513   3.556   5.361 -0.8444  0.3899  1.1694
  111OSM   H13G11481   1.518   3.653   5.211  0.6154  1.8136  1.2730
  111OSM   C14F11482   1.345   3.512   5.237  0.2972 -0.2500  0.3367
  111OSM   H14F11483   1.312   3.447   5.321 -0.1617  0.4402  0.7038
  111OSM   H14G11484   1.391   3.447   5.160  1.4412  2.1004 -1.0739
  111OSM   C15F11485   1.225   3.579   5.162  0.2135  0.2159  0.9353
  111OSM   H15F11486   1.175   3.655   5.225  1.1782  1.1947  0.5574
  111OSM   H15G11487   1.156   3.498   5.128 -0.4875  0.9412  0.5957
  111OSM   C16F11488   1.263   3.667   5.041 -0.2926 -0.8798  0.1102
  111OSM   H16F11489   1.315   3.604   4.965 -3.1443 -2.0333 -1.0255
  111OSM   H16G11490   1.343   3.740   5.067 -1.7427  0.9165 -0.2362
  111OSM   C17F11491   1.160   3.751   4.967  0.9613  0.0180 -0.2725
  111OSM   H17F11492   1.201   3.831   4.903 -1.5122  1.0997 -0.5847
  111OSM   H17G11493   1.103   3.803   5.047  0.9981 -0.2656 -0.0583
  111OSM   C18F11494   1.068   3.671   4.879 -0.1842  0.5517 -0.0377
  111OSM   H18F11495   0.990   3.745   4.850 -0.5918  0.4760  0.8120
  111OSM   H18G11496   1.017   3.586   4.928  0.5245 -1.1060 -2.0643
  111OSM   H18H11497   1.129   3.632   4.795 -2.4102  1.0843 -2.0074
  112OSM      N11498   5.354   0.137   6.902 -0.0907 -0.2264 -0.4485
  112OSM    C1511499   5.466   0.053   6.850 -0.6862  0.1610 -0.1631
  112OSM   H15A11500   5.552   0.110   6.818  0.8092 -1.2764  1.1106
  112OSM   H15B11501   5.436  -0.011   6.769  0.6477 -0.8246  0.0918
  112OSM   H15C11502   5.511  -0.012   6.924 -0.2517 -1.1949 -1.5655
  112OSM    C1411503   5.235   0.050   6.940  0.7168  0.2932 -0.1440
  112OSM   H14A11504   5.160   0.104   6.995 -0.7991 -0.5407 -1.3347
  112OSM   H14B11505   5.280  -0.030   6.997  0.1344  0.8097  1.0605
  112OSM   H14C11506   5.198   0.008   6.848 -0.1171  2.6462 -0.9458
  112OSM    C1311507   5.396   0.182   7.039 -0.5625 -0.6285  0.7172
  112OSM   H13A11508   5.322   0.254   7.073 -0.6938  0.8077 -2.3148
  112OSM   H13B11509   5.490   0.234   7.046 -0.5651 -0.3853 -0.8551
  112OSM   H13C11510   5.413   0.100   7.107  0.2258 -0.8506  0.2628
  112OSM    C1211511   5.321   0.261   6.814 -0.5631  0.2410 -0.3311
  112OSM   H12A11512   5.291   0.239   6.713  0.4057 -0.6981 -0.4381
  112OSM   H12B11513   5.418   0.307   6.799  0.0420 -1.0782 -0.6591
  112OSM    C1111514   5.221   0.363   6.872 -0.0985 -0.1818 -0.4055
  112OSM   H11A11515   5.148   0.294   6.919  2.6945 -1.4044  2.5386
  112OSM   H11B11516   5.154   0.430   6.814 -0.8308  0.2185  0.8486
  112OSM      P11517   5.386   0.557   6.937 -0.1653 -0.4763  0.3663
  112OSM    O1311518   5.334   0.690   6.977 -0.3020  0.6053  0.2620
  112OSM    O1411519   5.513   0.518   6.998 -0.0644 -0.3823 -0.2712
  112OSM    O1111520   5.407   0.554   6.779 -0.2012  0.1041  0.3170
  112OSM    O1211521   5.283   0.442   6.983 -0.3659 -0.4403  0.5482
  112OSM    C1S11522   5.517   0.621   6.710 -0.1598 -0.2395 -0.6273
  112OSM    H1S11523   5.605   0.622   6.778 -1.2717  2.2472  0.9297
  112OSM    H1T11524   5.488   0.727   6.699  0.8810  0.1618  0.2378
  112OSM     NF11525   5.688   0.604   6.526 -0.4937  0.1427  0.2810
  112OSM    HNF11526   5.687   0.655   6.440  1.4077  0.7811  0.6032
  112OSM    C2S11527   5.552   0.560   6.567 -0.9196  0.6728  0.4931
  112OSM    H2S11528   5.564   0.450   6.576 -1.1212  0.6127  0.0417
  112OSM    C3S11529   5.431   0.585   6.471  0.0437 -0.4385  0.5267
  112OSM    H3S11530   5.430   0.687   6.428 -0.3320 -1.1381 -1.2326
  112OSM     O311531   5.305   0.569   6.537  0.5241 -0.2200 -0.3469
  112OSM    HO311532   5.328   0.576   6.630 -2.5221  0.6857  0.4537
  112OSM    C4S11533   5.438   0.494   6.346 -0.4970  0.1294 -0.1594
  112OSM    H4S11534   5.478   0.554   6.263  0.0903 -0.0189  0.0110
  112OSM    C5S11535   5.410   0.365   6.326  0.5366 -0.1116 -0.0723
  112OSM    H5S11536   5.369   0.315   6.415  2.8950 -1.5322  0.2849
  112OSM    C6S11537   5.432   0.273   6.212  0.1733 -0.1942  0.5565
  112OSM    H6S11538   5.339   0.222   6.179  1.3806 -1.7986 -0.5466
  112OSM    H6T11539   5.506   0.195   6.239 -1.0534 -0.4525  3.5223
  112OSM    C7S11540   5.478   0.345   6.077  0.0711  0.2048  0.2783
  112OSM    H7S11541   5.574   0.397   6.101  0.8996 -1.9421  2.0997
  112OSM    H7T11542   5.394   0.410   6.047  0.7795  1.1040  0.1843
  112OSM    C8S11543   5.510   0.237   5.975  0.7111  0.4622  0.0520
  112OSM    H8S11544   5.433   0.159   5.965  2.0788 -0.8373 -0.7941
  112OSM    H8T11545   5.603   0.182   6.001  0.5738 -1.0372 -2.2985
  112OSM    C9S11546   5.525   0.295   5.832  0.4502 -0.2624  0.2148
  112OSM    H9S11547   5.617   0.356   5.825  1.7245 -2.2566 -1.7660
  112OSM    H9T11548   5.435   0.355   5.807  1.0796 -0.1362 -2.0226
  112OSM   C10S11549   5.554   0.184   5.722  1.1648  0.0249  0.4890
  112OSM   H10S11550   5.500   0.090   5.746  1.1375 -0.3099 -0.8134
  112OSM   H10T11551   5.656   0.142   5.732 -0.6223 -5.1970  0.0397
  112OSM   C11S11552   5.504   0.228   5.582 -0.6469 -0.0956 -0.0699
  112OSM   H11S11553   5.526   0.336   5.568  0.8256 -0.3984 -0.1804
  112OSM   H11T11554   5.393   0.217   5.577 -0.8192  0.1191  2.3406
  112OSM   C12S11555   5.561   0.142   5.468  0.1226 -0.0427 -0.2115
  112OSM   H12S11556   5.528   0.035   5.467  1.4414 -0.4795  0.4204
  112OSM   H12T11557   5.672   0.148   5.471  0.0902  2.0990 -1.6976
  112OSM   C13S11558   5.521   0.205   5.336 -0.0566  0.1352  0.5521
  112OSM   H13S11559   5.550   0.312   5.332  1.0018 -0.1435  0.1527
  112OSM   H13T11560   5.411   0.214   5.330  0.1775  4.5325 -3.1719
  112OSM   C14S11561   5.566   0.131   5.210  0.3088  0.5315  0.1900
  112OSM   H14S11562   5.526   0.028   5.212 -0.7222  0.9318  1.2334
  112OSM   H14T11563   5.676   0.141   5.222  0.2545  1.4521  0.0459
  112OSM   C15S11564   5.520   0.196   5.074  0.7032 -0.2503  0.4768
  112OSM   H15S11565   5.581   0.289   5.070 -0.2428  0.3477 -0.3802
  112OSM   H15T11566   5.413   0.220   5.087  0.3325 -1.6559  0.1864
  112OSM   C16S11567   5.543   0.105   4.950  0.9158  0.1045 -0.5994
  112OSM   H16S11568   5.527   0.160   4.855  2.4499 -0.5217 -1.2618
  112OSM   H16T11569   5.467   0.024   4.949 -0.4779  1.3865 -0.7675
  112OSM   C17S11570   5.681   0.036   4.948  0.0353 -0.5329 -0.3778
  112OSM   H17S11571   5.687  -0.031   5.037  0.1076  0.6411  0.5249
  112OSM   H17T11572   5.758   0.115   4.946  1.6232 -2.0014  0.0772
  112OSM   C18S11573   5.691  -0.044   4.822 -0.2410 -0.7058 -0.2976
  112OSM   H18S11574   5.687   0.021   4.732  1.8774  1.7563  1.2368
  112OSM   H18T11575   5.603  -0.111   4.811 -1.2651  0.5372  0.0548
  112OSM   H18U11576   5.779  -0.110   4.809 -0.2265 -0.5567 -0.9893
  112OSM    C1F11577   5.808   0.581   6.593  0.2745 -0.1020  0.6624
  112OSM     OF11578   5.802   0.512   6.691 -0.2311 -0.3311 -0.3112
  112OSM    C2F11579   5.928   0.651   6.542 -0.1264  0.0390  0.4717
  112OSM    H2F11580   5.977   0.679   6.638 -0.3047 -0.9248  0.8537
  112OSM    H2G11581   5.909   0.741   6.480 -1.7299  0.0367  0.9214
  112OSM    C3F11582   6.018   0.559   6.453  0.0905  0.2873 -0.0066
  112OSM    H3F11583   6.024   0.459   6.501 -1.6855 -0.1053 -0.5357
  112OSM    H3G11584   6.119   0.604   6.451 -0.1050  0.7915  0.9245
  112OSM    C4F11585   5.961   0.544   6.309  0.2984  0.3097 -0.1760
  112OSM    H4F11586   5.960   0.642   6.256 -0.9578  0.1762 -0.4244
  112OSM    H4G11587   5.857   0.509   6.321 -0.1452  1.4890 -0.5118
  112OSM    C5F11588   6.039   0.442   6.234 -0.0312 -0.7063  0.7520
  112OSM    H5F11589   6.023   0.342   6.279 -3.6702 -0.8569 -0.6139
  112OSM    H5G11590   6.148   0.466   6.229 -0.4833  1.3189 -1.5481
  112OSM    C6F11591   5.985   0.443   6.084  0.1886 -0.6350 -0.1066
  112OSM    H6F11592   6.007   0.545   6.047  0.1831 -0.7192 -0.3422
  112OSM    H6G11593   5.875   0.432   6.079  0.2218 -1.4023  0.6494
  112OSM    C7F11594   6.030   0.328   5.995 -0.5362 -0.9078 -0.4114
  112OSM    H7F11595   5.989   0.235   6.042 -1.3810  0.1644  1.0569
  112OSM    H7G11596   6.140   0.325   6.005 -0.5396  0.4641  0.2573
  112OSM    C8F11597   5.987   0.347   5.852  0.5557 -0.4702 -0.6415
  112OSM    H8F11598   6.046   0.430   5.809 -1.3403  0.0978 -2.3199
  112OSM    H8G11599   5.879   0.372   5.853  1.0014  1.6737  0.7562
  112OSM    C9F11600   5.990   0.224   5.759 -0.2410  0.5194 -0.3642
  112OSM    H9F11601   6.020   0.130   5.809  1.0490  0.7876 -0.6049
  112OSM   C10F11602   5.967   0.225   5.624  0.4231  0.2731  0.0596
  112OSM   H10F11603   5.976   0.133   5.565  1.3170 -0.0848  0.7233
  112OSM   C11F11604   5.938   0.356   5.557 -0.6504  0.1476 -0.8588
  112OSM   H11F11605   6.024   0.425   5.567  0.6730 -1.4532 -0.6307
  112OSM   H11G11606   5.852   0.405   5.608 -1.2327 -0.1356 -1.5498
  112OSM   C12F11607   5.899   0.350   5.414 -0.2409  0.2146  0.4771
  112OSM   H12F11608   5.859   0.449   5.382 -0.2280 -0.3739 -1.4699
  112OSM   H12G11609   5.822   0.272   5.396 -0.4979  0.7257 -0.7287
  112OSM   C13F11610   6.006   0.316   5.319 -0.7170 -0.4260 -0.4692
  112OSM   H13F11611   6.067   0.230   5.354  0.2220  0.4830  0.1865
  112OSM   H13G11612   6.081   0.398   5.319 -1.4049  0.2718  1.7421
  112OSM   C14F11613   5.963   0.306   5.171 -0.1659  0.2198 -0.3489
  112OSM   H14F11614   5.920   0.205   5.154 -1.2725  0.0439  2.9559
  112OSM   H14G11615   6.052   0.307   5.104  0.0752  0.6499 -0.0235
  112OSM   C15F11616   5.858   0.415   5.124  0.1296  0.6096 -0.0674
  112OSM   H15F11617   5.885   0.520   5.148  0.9591  0.2242  0.7432
  112OSM   H15G11618   5.761   0.390   5.172  1.3518 -1.4210  1.5583
  112OSM   C16F11619   5.851   0.408   4.967  0.2553  0.5827 -0.4679
  112OSM   H16F11620   5.791   0.321   4.933  0.5601 -0.2031  0.9109
  112OSM   H16G11621   5.951   0.415   4.920  1.7059  1.1174  2.4737
  112OSM   C17F11622   5.775   0.534   4.920 -0.8591 -0.3064  0.6587
  112OSM   H17F11623   5.825   0.618   4.973 -0.5494 -0.0365 -0.0488
  112OSM   H17G11624   5.672   0.533   4.962  0.3407  1.5338  3.9948
  112OSM   C18F11625   5.784   0.541   4.765 -0.5743 -0.0095  1.0502
  112OSM   H18F11626   5.734   0.450   4.724 -0.9224  0.7060 -0.1562
  112OSM   H18G11627   5.893   0.533   4.750 -0.5637 -2.0869  1.9434
  112OSM   H18H11628   5.745   0.638   4.727 -0.2754 -0.4457 -0.4487
  113OSM      N11629   1.758   5.680   6.518 -0.8069 -0.2981  0.2750
  113OSM    C1511630   1.784   5.533   6.529 -0.3484  0.1240  0.5605
  113OSM   H15A11631   1.825   5.503   6.624  1.1050  0.3983  0.0399
  113OSM   H15B11632   1.865   5.504   6.463 -0.4507  0.7845  0.1312
  113OSM   H15C11633   1.695   5.476   6.507 -0.4523  0.4647  0.0478
  113OSM    C1411634   1.670   5.708   6.628 -0.0496  0.1751  0.4425
  113OSM   H14A11635   1.661   5.813   6.651 -0.6579  0.4709 -1.0529
  113OSM   H14B11636   1.696   5.659   6.721 -1.9256 -1.1377  0.3305
  113OSM   H14C11637   1.569   5.676   6.604  0.4110 -0.4765 -0.7080
  113OSM    C1311638   1.875   5.768   6.525  0.2043 -0.3364  0.0068
  113OSM   H13A11639   1.932   5.750   6.615  0.4318  1.0148  0.1532
  113OSM   H13B11640   1.857   5.874   6.513  1.0940 -0.2230 -0.4904
  113OSM   H13C11641   1.942   5.761   6.440  2.2455  1.6754  1.3024
  113OSM    C1211642   1.686   5.704   6.383  0.2887  0.2195 -0.2911
  113OSM   H12A11643   1.773   5.706   6.319  0.5842 -4.3630 -0.3548
  113OSM   H12B11644   1.653   5.807   6.384  3.7933  1.5200 -2.3746
  113OSM    C1111645   1.584   5.600   6.332 -0.6354 -0.0930 -0.1542
  113OSM   H11A11646   1.631   5.500   6.321  1.9651  1.1639 -1.5884
  113OSM   H11B11647   1.561   5.634   6.228 -0.0091  2.3162  0.4272
  113OSM      P11648   1.340   5.669   6.388 -0.2044  0.2888  0.1061
  113OSM    O1311649   1.231   5.604   6.472 -0.1792  0.5089  0.2460
  113OSM    O1411650   1.367   5.812   6.402  0.1619 -0.7819 -0.3739
  113OSM    O1111651   1.311   5.650   6.235  0.4902  0.4968 -0.3117
  113OSM    O1211652   1.470   5.584   6.408 -0.0144  0.2780  0.0547
  113OSM    C1S11653   1.312   5.521   6.172 -0.5048  0.8935 -0.1605
  113OSM    H1S11654   1.242   5.457   6.229 -1.0192 -1.4354 -3.1279
  113OSM    H1T11655   1.414   5.476   6.174 -2.1413 -3.2880 -0.2693
  113OSM     NF11656   1.254   5.384   5.972  0.2593 -0.2981 -0.3764
  113OSM    HNF11657   1.333   5.357   5.917 -1.0667 -2.2542 -1.4553
  113OSM    C2S11658   1.268   5.523   6.026 -0.1680  0.9485  0.1041
  113OSM    H2S11659   1.167   5.567   6.010 -0.5266 -0.5641 -2.1914
  113OSM    C3S11660   1.371   5.610   5.953  0.0992 -1.0032 -0.4445
  113OSM    H3S11661   1.473   5.567   5.950  0.5861 -0.0214  0.8488
  113OSM     O311662   1.386   5.746   5.998  0.2638 -0.3377 -0.1867
  113OSM    HO311663   1.356   5.734   6.089 -1.5214 -0.7660 -0.7984
  113OSM    C4S11664   1.324   5.624   5.809 -0.1729 -0.2031 -0.1581
  113OSM    H4S11665   1.244   5.695   5.783 -0.5289 -0.9683 -1.2305
  113OSM    C5S11666   1.385   5.562   5.709 -0.5395 -0.5777 -0.0312
  113OSM    H5S11667   1.467   5.497   5.740  0.6566  1.4432  1.2470
  113OSM    C6S11668   1.370   5.580   5.555 -0.6862 -0.2415  0.1864
  113OSM    H6S11669   1.329   5.485   5.516 -0.5822 -0.0910 -0.3114
  113OSM    H6T11670   1.470   5.604   5.512 -0.2149 -0.7003  1.0188
  113OSM    C7S11671   1.283   5.699   5.507  0.1205 -0.4339  0.3793
  113OSM    H7S11672   1.319   5.797   5.544 -2.5747  0.1254  1.7729
  113OSM    H7T11673   1.179   5.686   5.544 -0.4793 -3.7539 -1.9084
  113OSM    C8S11674   1.266   5.710   5.350 -0.2390 -0.0785 -0.0388
  113OSM    H8S11675   1.185   5.782   5.328  0.5131  0.9489  0.4032
  113OSM    H8T11676   1.234   5.616   5.301  0.3514  0.4250 -1.4498
  113OSM    C9S11677   1.403   5.754   5.286 -0.2605 -0.0316  0.1692
  113OSM    H9S11678   1.469   5.665   5.274  1.1237  1.0117 -0.0591
  113OSM    H9T11679   1.454   5.835   5.342  1.2449 -2.0048  1.8305
  113OSM   C10S11680   1.371   5.802   5.140 -0.2826  0.2416  0.1483
  113OSM   H10S11681   1.333   5.906   5.148 -1.0218 -0.1515  2.5773
  113OSM   H10T11682   1.287   5.737   5.106  1.1089 -1.1583 -0.7638
  113OSM   C11S11683   1.487   5.784   5.043  0.3683 -0.1112 -0.6362
  113OSM   H11S11684   1.516   5.677   5.032  0.0863 -0.0982 -1.5633
  113OSM   H11T11685   1.577   5.837   5.080 -0.4647  1.0315 -0.1841
  113OSM   C12S11686   1.450   5.832   4.905  0.1379  0.2860  0.2276
  113OSM   H12S11687   1.435   5.942   4.909 -0.3879  0.3664 -2.4023
  113OSM   H12T11688   1.352   5.787   4.877 -0.2877  1.4335 -0.1548
  113OSM   C13S11689   1.559   5.804   4.803 -0.3672 -0.4608 -0.5414
  113OSM   H13S11690   1.546   5.699   4.769 -0.4678 -0.3329 -0.8932
  113OSM   H13T11691   1.653   5.827   4.857 -0.1722 -0.1500 -1.0087
  113OSM   C14S11692   1.538   5.905   4.691 -0.9576  0.2585  0.1659
  113OSM   H14S11693   1.578   6.004   4.720  0.3963 -0.2324  0.0206
  113OSM   H14T11694   1.428   5.901   4.675 -1.1638  0.6443  1.3429
  113OSM   C15S11695   1.610   5.868   4.558 -0.7357  0.2361  0.0663
  113OSM   H15S11696   1.535   5.904   4.485 -0.0998 -0.1316 -0.7845
  113OSM   H15T11697   1.621   5.757   4.563  1.0986  0.4184  0.7895
  113OSM   C16S11698   1.753   5.926   4.543 -0.7411 -1.0661  0.2086
  113OSM   H16S11699   1.814   5.907   4.633  0.4267  2.0041  0.1672
  113OSM   H16T11700   1.745   6.037   4.540 -1.1194 -1.0469  1.3684
  113OSM   C17S11701   1.821   5.851   4.425 -0.0591  0.2263  0.0010
  113OSM   H17S11702   1.759   5.878   4.337  0.6322  1.2287 -0.2022
  113OSM   H17T11703   1.825   5.742   4.445  0.8150 -0.3470 -2.7947
  113OSM   C18S11704   1.956   5.909   4.412  0.2714  0.2983  0.2485
  113OSM   H18S11705   1.948   6.019   4.393 -1.4120  0.6061  2.3999
  113OSM   H18T11706   1.999   5.873   4.316  0.0430  0.9030 -0.0857
  113OSM   H18U11707   2.019   5.891   4.502  0.6386 -1.5884 -0.3402
  113OSM    C1F11708   1.152   5.304   6.001  0.3660  0.3897 -0.0358
  113OSM     OF11709   1.054   5.351   6.066  0.2349  0.1490  0.2586
  113OSM    C2F11710   1.164   5.154   5.973 -0.2114 -0.2180 -0.1086
  113OSM    H2F11711   1.113   5.115   6.064 -0.5721 -1.5482 -0.8508
  113OSM    H2G11712   1.267   5.118   5.955 -0.7443 -1.1276 -1.4631
  113OSM    C3F11713   1.072   5.124   5.856 -0.1464  0.1933 -0.0716
  113OSM    H3F11714   1.113   5.169   5.763 -0.5737 -0.6952 -0.6990
  113OSM    H3G11715   0.974   5.174   5.872  0.5841  1.2860  1.2777
  113OSM    C4F11716   1.036   4.974   5.830  0.6006  0.3098  0.1192
  113OSM    H4F11717   0.966   4.931   5.904 -0.5698 -1.0457 -1.6777
  113OSM    H4G11718   1.126   4.911   5.840 -0.5591 -1.4360 -0.0516
  113OSM    C5F11719   0.975   4.948   5.690  0.4266 -0.2236  0.6260
  113OSM    H5F11720   1.042   4.978   5.606  1.4234  0.1545  1.5298
  113OSM    H5G11721   0.880   5.003   5.672  0.1851  0.1865  2.8563
  113OSM    C6F11722   0.952   4.800   5.670 -0.2103 -0.4784  0.3261
  113OSM    H6F11723   0.914   4.756   5.765  0.4262 -0.3116  0.6638
  113OSM    H6G11724   1.051   4.754   5.648  0.0653 -0.1982  0.9517
  113OSM    C7F11725   0.848   4.768   5.559 -1.0110  0.6255 -0.2449
  113OSM    H7F11726   0.758   4.824   5.593 -1.1195 -0.1394  0.7756
  113OSM    H7G11727   0.814   4.662   5.566  1.4424 -0.1384  1.9531
  113OSM    C8F11728   0.888   4.804   5.415  0.3854  0.6746  0.6676
  113OSM    H8F11729   0.987   4.764   5.384  0.2821  0.2689  0.8580
  113OSM    H8G11730   0.902   4.914   5.411  1.2398  0.6154  1.5828
  113OSM    C9F11731   0.786   4.754   5.310  0.0579  0.3580 -0.0247
  113OSM    H9F11732   0.784   4.644   5.305  1.1732  0.2618  1.0684
  113OSM   C10F11733   0.701   4.834   5.239  0.1792 -0.5988 -0.3668
  113OSM   H10F11734   0.629   4.790   5.169 -1.1482  0.5397  0.2481
  113OSM   C11F11735   0.708   4.993   5.217 -0.2447  1.1952 -0.6153
  113OSM   H11F11736   0.763   5.036   5.303  0.9742  0.1255 -0.8277
  113OSM   H11G11737   0.606   5.037   5.223 -0.8862 -0.2156 -0.7489
  113OSM   C12F11738   0.782   5.055   5.097 -0.4771  0.7012  0.1961
  113OSM   H12F11739   0.720   5.028   5.009  0.0457 -0.0471  0.0455
  113OSM   H12G11740   0.884   5.012   5.099 -1.5897 -2.2733 -1.0852
  113OSM   C13F11741   0.783   5.205   5.097  0.8510 -0.3388  0.7549
  113OSM   H13F11742   0.821   5.258   5.188  2.9707  1.5012 -1.0740
  113OSM   H13G11743   0.677   5.237   5.090 -0.0269 -2.7430  1.9660
  113OSM   C14F11744   0.855   5.261   4.977 -0.9106  0.3579  0.3923
  113OSM   H14F11745   0.962   5.236   4.989 -0.9108 -0.2735 -0.8308
  113OSM   H14G11746   0.840   5.370   4.993 -0.3742  0.0210  4.3735
  113OSM   C15F11747   0.811   5.208   4.839  0.2504  0.2734  0.1620
  113OSM   H15F11748   0.701   5.192   4.833 -0.0036 -0.2863  3.9908
  113OSM   H15G11749   0.859   5.108   4.841 -2.4841 -1.2016  3.9041
  113OSM   C16F11750   0.854   5.297   4.719  0.2995 -0.0147  0.1620
  113OSM   H16F11751   0.866   5.233   4.629  2.1211  0.9111 -0.2964
  113OSM   H16G11752   0.953   5.339   4.745 -1.0915  2.3080  2.2424
  113OSM   C17F11753   0.750   5.399   4.673  0.3943 -0.0427 -0.4678
  113OSM   H17F11754   0.745   5.470   4.758  2.1111  0.4831 -0.7662
  113OSM   H17G11755   0.655   5.345   4.652  1.3392 -1.1711 -2.0934
  113OSM   C18F11756   0.786   5.477   4.548  0.3762  0.5905  0.0374
  113OSM   H18F11757   0.709   5.556   4.532  2.0239  2.0003 -1.3304
  113OSM   H18G11758   0.786   5.402   4.467  0.1178  0.0830  0.5035
  113OSM   H18H11759   0.886   5.523   4.556  0.7553  0.1298 -1.7655
  114OSM      N11760   6.666   5.846   6.900 -0.2577  0.0672 -0.9018
  114OSM    C1511761   6.737   5.720   6.922  0.1629 -0.0924  0.5346
  114OSM   H15A11762   6.672   5.639   6.953  1.3302 -1.8731 -1.3378
  114OSM   H15B11763   6.813   5.730   6.998  0.6566  2.0567 -0.1815
  114OSM   H15C11764   6.775   5.688   6.826  0.6564  0.7993  0.4265
  114OSM    C1411765   6.538   5.804   6.830  0.3060 -0.0428  1.0602
  114OSM   H14A11766   6.475   5.730   6.877 -0.3838 -0.0122  0.2195
  114OSM   H14B11767   6.562   5.763   6.733  0.4960 -0.6594  1.3619
  114OSM   H14C11768   6.471   5.885   6.807 -0.9676 -0.4544  3.1252
  114OSM    C1311769   6.626   5.908   7.037 -0.5351 -0.9649  0.1383
  114OSM   H13A11770   6.571   5.831   7.088 -1.6004 -0.8003 -0.7289
  114OSM   H13B11771   6.576   6.004   7.034  2.6064  0.7943  0.2717
  114OSM   H13C11772   6.718   5.920   7.093  1.1090 -2.1156 -2.1674
  114OSM    C1211773   6.742   5.947   6.818 -0.4597  0.7933 -0.8421
  114OSM   H12A11774   6.668   6.011   6.773 -1.4941 -1.4424 -2.5306
  114OSM   H12B11775   6.794   5.907   6.732  0.9891 -0.8984  0.7345
  114OSM    C1111776   6.859   6.023   6.885 -0.8816  0.1335 -0.0986
  114OSM   H11A11777   6.822   6.064   6.981  0.3354  1.1248 -0.0263
  114OSM   H11B11778   6.894   6.109   6.823  1.4960  0.6050  1.7755
  114OSM      P11779   7.065   5.882   6.795 -0.0645 -0.1036 -0.0905
  114OSM    O1311780   7.195   5.956   6.789 -0.1424  0.0024  0.0606
  114OSM    O1411781   7.076   5.736   6.808 -0.8873 -0.4709 -0.2522
  114OSM    O1111782   6.987   5.912   6.664 -0.1029 -0.2744 -0.0789
  114OSM    O1211783   6.964   5.934   6.912 -0.4845 -0.2083  0.3423
  114OSM    C1S11784   7.050   5.883   6.539  0.4213  0.9141  0.4789
  114OSM    H1S11785   7.161   5.880   6.544  0.5238  0.6367 -1.3381
  114OSM    H1T11786   7.023   5.960   6.464  0.9061  1.6156  1.0197
  114OSM     NF11787   7.069   5.729   6.358  0.1047  0.0667 -0.2592
  114OSM    HNF11788   7.017   5.755   6.277 -0.5303 -1.6704 -0.4438
  114OSM    C2S11789   7.009   5.738   6.482 -0.2866  0.0990 -0.3804
  114OSM    H2S11790   7.053   5.667   6.555 -0.8634  0.0871 -0.0327
  114OSM    C3S11791   6.854   5.706   6.477  0.0900  0.0585 -0.1319
  114OSM    H3S11792   6.801   5.768   6.402 -1.7211 -0.2420  0.8592
  114OSM     O311793   6.793   5.710   6.606 -0.2798 -0.0505  0.2445
  114OSM    HO311794   6.861   5.730   6.670 -0.4409 -0.3603  0.5135
  114OSM    C4S11795   6.845   5.563   6.427 -0.2960 -0.1304  0.1123
  114OSM    H4S11796   6.880   5.494   6.506  1.3738 -0.3634 -0.8029
  114OSM    C5S11797   6.815   5.521   6.306 -0.0061  0.2496  0.0252
  114OSM    H5S11798   6.793   5.593   6.226 -1.7975 -1.4332 -1.1104
  114OSM    C6S11799   6.808   5.383   6.256 -0.0740 -0.1162  0.8708
  114OSM    H6S11800   6.701   5.360   6.238  0.1598  0.8873 -2.5170
  114OSM    H6T11801   6.846   5.310   6.331 -1.0238 -0.6784  0.8186
  114OSM    C7S11802   6.881   5.349   6.119  0.1671  0.1199  0.1409
  114OSM    H7S11803   6.863   5.242   6.095  2.3433 -0.1333 -0.5389
  114OSM    H7T11804   6.989   5.361   6.143  1.1728  2.2046 -4.5096
  114OSM    C8S11805   6.829   5.434   6.006  0.2016 -0.3412 -0.0870
  114OSM    H8S11806   6.824   5.544   6.019 -0.1280 -0.2083 -1.2307
  114OSM    H8T11807   6.729   5.396   5.975 -0.0329 -2.4782  2.8129
  114OSM    C9S11808   6.903   5.406   5.872 -0.8614  0.4602 -0.6225
  114OSM    H9S11809   6.924   5.298   5.856  3.2587  1.1935 -1.3878
  114OSM    H9T11810   7.002   5.455   5.886  0.3085 -2.1042  0.8614
  114OSM   C10S11811   6.844   5.474   5.756 -0.6290 -0.4546  0.1231
  114OSM   H10S11812   6.814   5.576   5.788  3.0514  0.5256  0.9070
  114OSM   H10T11813   6.762   5.410   5.714  0.9988 -1.4891 -1.6501
  114OSM   C11S11814   6.946   5.489   5.638 -0.6124  0.3404  0.6036
  114OSM   H11S11815   6.992   5.389   5.619  1.1909  1.0454  1.0998
  114OSM   H11T11816   7.032   5.556   5.657 -0.1354  0.3015 -1.2378
  114OSM   C12S11817   6.895   5.521   5.492 -0.3862 -0.2168  0.4822
  114OSM   H12S11818   6.971   5.491   5.417 -0.8507  0.6565 -0.3586
  114OSM   H12T11819   6.886   5.632   5.487 -1.7196 -0.3740 -2.0873
  114OSM   C13S11820   6.755   5.470   5.455 -0.5568  0.1573 -0.1355
  114OSM   H13S11821   6.682   5.489   5.537 -0.6066  0.1091 -0.1687
  114OSM   H13T11822   6.776   5.361   5.453  1.0150  0.4437 -0.7251
  114OSM   C14S11823   6.707   5.514   5.320  0.1909 -0.4713  0.3212
  114OSM   H14S11824   6.660   5.427   5.269  0.4447  0.0999 -0.9248
  114OSM   H14T11825   6.790   5.554   5.259  0.2176  0.1706  0.7666
  114OSM   C15S11826   6.595   5.619   5.329  0.0292 -0.2039 -0.8004
  114OSM   H15S11827   6.641   5.718   5.349 -1.7864  0.8916 -1.7877
  114OSM   H15T11828   6.512   5.587   5.395 -0.5870  0.9446 -1.0144
  114OSM   C16S11829   6.522   5.624   5.192  0.2421  0.7120 -0.4017
  114OSM   H16S11830   6.468   5.528   5.178  0.5550  0.4840 -0.0637
  114OSM   H16T11831   6.596   5.643   5.110  0.5050  0.2683 -0.2674
  114OSM   C17S11832   6.418   5.741   5.185 -0.6109  0.5961 -0.4428
  114OSM   H17S11833   6.362   5.729   5.280 -2.8958 -0.7645 -1.8728
  114OSM   H17T11834   6.354   5.718   5.097 -1.5344 -4.6145  1.2480
  114OSM   C18S11835   6.484   5.878   5.186  0.5775 -0.2905  0.3418
  114OSM   H18S11836   6.538   5.899   5.280  1.5822 -0.7794 -0.1003
  114OSM   H18T11837   6.412   5.957   5.158  2.0556  0.4899 -1.5054
  114OSM   H18U11838   6.566   5.876   5.110 -1.9150 -0.4737 -2.5628
  114OSM    C1F11839   7.200   5.712   6.334 -0.0593 -0.1986 -1.4020
  114OSM     OF11840   7.272   5.666   6.425 -0.4603 -0.2594  0.3715
  114OSM    C2F11841   7.254   5.753   6.202 -0.0514  0.0568  0.2105
  114OSM    H2F11842   7.293   5.856   6.213 -1.5806  0.5984  0.8441
  114OSM    H2G11843   7.171   5.760   6.129 -1.3324  1.8119  1.7481
  114OSM    C3F11844   7.347   5.654   6.139 -0.5239  1.4382 -0.5295
  114OSM    H3F11845   7.440   5.646   6.200  0.3210  1.9806 -1.7117
  114OSM    H3G11846   7.382   5.686   6.039  0.0543  3.7191  0.3170
  114OSM    C4F11847   7.279   5.510   6.113 -0.3370 -0.1242  0.0722
  114OSM    H4F11848   7.221   5.524   6.019 -1.1157  0.7844  0.6644
  114OSM    H4G11849   7.210   5.487   6.197 -0.4416 -0.6388 -0.1511
  114OSM    C5F11850   7.386   5.400   6.098  0.3127  0.6317 -1.2028
  114OSM    H5F11851   7.425   5.383   6.201 -3.7582 -0.4347  0.3662
  114OSM    H5G11852   7.472   5.431   6.034  1.4505  0.3939  0.1549
  114OSM    C6F11853   7.330   5.260   6.068 -0.4163  0.9452  0.2520
  114OSM    H6F11854   7.246   5.230   6.134 -0.5156  1.5523  0.4045
  114OSM    H6G11855   7.410   5.188   6.094 -2.3872 -1.3644  0.3336
  114OSM    C7F11856   7.291   5.229   5.928  0.5519 -0.5775  0.2164
  114OSM    H7F11857   7.192   5.276   5.908 -0.0562 -2.1339 -0.5655
  114OSM    H7G11858   7.257   5.124   5.913 -1.1563 -0.0465  0.0821
  114OSM    C8F11859   7.398   5.264   5.824  0.3321  0.1201  0.0169
  114OSM    H8F11860   7.445   5.358   5.859  0.6913 -1.0563  3.0192
  114OSM    H8G11861   7.339   5.289   5.734  0.0450  0.3225  0.2572
  114OSM    C9F11862   7.505   5.169   5.793  0.2771  0.2053 -0.2495
  114OSM    H9F11863   7.593   5.200   5.850 -1.0356  2.4191  0.7372
  114OSM   C10F11864   7.484   5.047   5.739 -0.2112 -0.2379  0.4036
  114OSM   H10F11865   7.570   4.981   5.727 -0.0285  0.0017  0.3921
  114OSM   C11F11866   7.345   5.000   5.682 -0.6438  0.2658  0.4912
  114OSM   H11F11867   7.273   5.082   5.664 -3.1660 -2.1515 -1.2776
  114OSM   H11G11868   7.299   4.927   5.752 -0.2253 -0.4005  0.0774
  114OSM   C12F11869   7.362   4.941   5.536  0.5232 -0.6901  0.4670
  114OSM   H12F11870   7.437   4.859   5.541  0.6705 -0.6675 -0.8906
  114OSM   H12G11871   7.387   5.021   5.463 -2.5297  0.4912  0.5719
  114OSM   C13F11872   7.218   4.906   5.489  0.2929 -0.5373 -0.9198
  114OSM   H13F11873   7.145   4.989   5.500  0.2824 -0.4146 -1.8402
  114OSM   H13G11874   7.202   4.819   5.556  0.7655  0.2545  0.2597
  114OSM   C14F11875   7.204   4.864   5.337  0.0359 -0.0768  0.2093
  114OSM   H14F11876   7.115   4.801   5.316 -0.4831  0.1272  1.6578
  114OSM   H14G11877   7.294   4.800   5.322  0.6069  0.9177 -0.7357
  114OSM   C15F11878   7.208   4.985   5.239  0.1663 -0.0723  0.0307
  114OSM   H15F11879   7.289   5.049   5.280  1.8529 -1.6734 -0.6510
  114OSM   H15G11880   7.109   5.032   5.222 -0.5525 -1.4817  0.1726
  114OSM   C16F11881   7.252   4.938   5.095 -0.0612  0.3134 -0.5472
  114OSM   H16F11882   7.304   4.840   5.098  0.3865  0.5190 -1.4835
  114OSM   H16G11883   7.328   5.005   5.051  0.7643 -1.2205 -1.5623
  114OSM   C17F11884   7.137   4.936   4.990  0.3968 -0.2982  0.4039
  114OSM   H17F11885   7.098   5.038   4.971  0.6342  0.0377  1.6540
  114OSM   H17G11886   7.057   4.883   5.047 -0.0249  1.6421  1.7255
  114OSM   C18F11887   7.168   4.867   4.856  0.1421 -0.2053  0.1792
  114OSM   H18F11888   7.223   4.771   4.866  0.5939  0.1416  1.2073
  114OSM   H18G11889   7.221   4.938   4.789 -0.2954 -1.7555 -1.9273
  114OSM   H18H11890   7.069   4.859   4.805 -1.2091  1.7486  2.3146
  115OSM      N11891   1.315   1.440   6.700 -0.5463  0.6840 -0.1314
  115OSM    C1511892   1.191   1.357   6.685  0.3825 -0.1579  0.2702
  115OSM   H15A11893   1.202   1.250   6.691  0.9863 -0.1661 -0.7978
  115OSM   H15B11894   1.146   1.369   6.588  1.0428 -0.9474 -0.1454
  115OSM   H15C11895   1.118   1.396   6.755  0.3755  3.6576 -1.6280
  115OSM    C1411896   1.285   1.570   6.644 -0.4870  0.1161  0.2776
  115OSM   H14A11897   1.261   1.564   6.539 -2.2364  1.2053  0.5799
  115OSM   H14B11898   1.374   1.630   6.653  1.3339 -2.4706  0.6533
  115OSM   H14C11899   1.198   1.620   6.685 -0.1300  1.7118 -0.7871
  115OSM    C1311900   1.363   1.452   6.841 -0.8856 -0.5548  0.0632
  115OSM   H13A11901   1.387   1.359   6.892 -1.1444 -0.1038  1.0245
  115OSM   H13B11902   1.286   1.493   6.905  0.7580  3.5141 -0.3051
  115OSM   H13C11903   1.443   1.523   6.852 -0.3859 -0.9242 -0.9876
  115OSM    C1211904   1.429   1.365   6.634 -0.4388  0.0814  0.0896
  115OSM   H12A11905   1.451   1.269   6.677  1.2606  1.0896  1.5966
  115OSM   H12B11906   1.516   1.422   6.665  0.0432 -1.3361  1.4410
  115OSM    C1111907   1.427   1.346   6.474  0.1120 -0.2624 -0.3732
  115OSM   H11A11908   1.519   1.298   6.435  2.0609  1.2643  2.0406
  115OSM   H11B11909   1.427   1.452   6.439 -0.3942 -0.5484 -1.2733
  115OSM      P11910   1.328   1.119   6.431  0.3622  0.1500 -0.0430
  115OSM    O1311911   1.395   1.085   6.559  0.1130  0.4717  0.1733
  115OSM    O1411912   1.200   1.053   6.401  0.6129 -0.1588 -0.0135
  115OSM    O1111913   1.432   1.096   6.311 -0.3645  0.2673 -0.0163
  115OSM    O1211914   1.310   1.278   6.436  0.1956 -0.5367  0.4840
  115OSM    C1S11915   1.402   1.044   6.182  0.0494 -0.0993  0.7098
  115OSM    H1S11916   1.355   0.943   6.187  0.7863 -0.4791  0.1336
  115OSM    H1T11917   1.485   1.016   6.114 -0.5522  0.8325 -0.4594
  115OSM     NF11918   1.272   1.066   5.973  0.2978  0.0807 -0.3274
  115OSM    HNF11919   1.332   1.030   5.902  0.5951 -1.4890  0.6839
  115OSM    C2S11920   1.336   1.140   6.078  0.1819 -0.5089  0.2699
  115OSM    H2S11921   1.258   1.202   6.127 -0.2379 -0.4729 -0.4296
  115OSM    C3S11922   1.441   1.246   6.022 -0.1808  0.4720  0.4030
  115OSM    H3S11923   1.490   1.190   5.940  3.0475  0.9793  1.8400
  115OSM     O311924   1.546   1.278   6.118 -0.0075  0.0665  0.1660
  115OSM    HO311925   1.529   1.217   6.191  0.5280  0.1175  0.3370
  115OSM    C4S11926   1.384   1.370   5.956  0.6343  0.1252 -0.1599
  115OSM    H4S11927   1.350   1.359   5.852  3.9227  0.3148 -1.3749
  115OSM    C5S11928   1.379   1.495   6.017 -0.0987 -0.3485  0.2262
  115OSM    H5S11929   1.428   1.503   6.115  0.2148 -1.6773  0.2054
  115OSM    C6S11930   1.341   1.622   5.939 -0.7831  0.5534  0.3424
  115OSM    H6S11931   1.429   1.679   5.903 -2.2972  2.0556 -1.1694
  115OSM    H6T11932   1.284   1.698   5.997 -1.8741 -1.5311  2.1593
  115OSM    C7S11933   1.246   1.584   5.824  0.1199 -0.0832  0.2004
  115OSM    H7S11934   1.172   1.510   5.863 -0.4198 -1.9459 -3.8262
  115OSM    H7T11935   1.298   1.533   5.740  0.2563  0.6084 -0.1330
  115OSM    C8S11936   1.184   1.709   5.768 -0.1982 -0.3650  0.2007
  115OSM    H8S11937   1.140   1.773   5.848 -2.6303 -2.5877  0.7585
  115OSM    H8T11938   1.098   1.682   5.703  0.9790  0.3108 -1.7306
  115OSM    C9S11939   1.268   1.774   5.659  0.3032  0.1491  0.7077
  115OSM    H9S11940   1.295   1.694   5.587 -3.6201 -0.0795 -0.7438
  115OSM    H9T11941   1.355   1.824   5.707  1.7939 -0.1917 -1.4903
  115OSM   C10S11942   1.195   1.885   5.584  0.8912  0.3808  0.2918
  115OSM   H10S11943   1.156   1.956   5.659  0.5922 -1.5678  2.0708
  115OSM   H10T11944   1.104   1.843   5.536  0.2698  1.9440  0.0226
  115OSM   C11S11945   1.292   1.959   5.489  0.6655  0.3841  0.0084
  115OSM   H11S11946   1.281   1.919   5.386 -1.2207  1.2587 -0.1681
  115OSM   H11T11947   1.396   1.952   5.525  0.0105  0.5589  2.0738
  115OSM   C12S11948   1.259   2.107   5.475  0.5955  1.2549  0.2620
  115OSM   H12S11949   1.286   2.156   5.571  1.4996 -1.0609  1.2497
  115OSM   H12T11950   1.150   2.120   5.458 -0.0526 -1.1386  2.0469
  115OSM   C13S11951   1.335   2.180   5.365 -0.4635  0.4408 -0.9046
  115OSM   H13S11952   1.443   2.160   5.381 -0.7380 -0.0305  0.5395
  115OSM   H13T11953   1.308   2.285   5.388 -0.5910  0.3236 -0.5021
  115OSM   C14S11954   1.305   2.145   5.220  0.2694  0.0396  0.3313
  115OSM   H14S11955   1.202   2.181   5.198  0.3747  0.6890  0.8480
  115OSM   H14T11956   1.321   2.038   5.197  1.5896 -0.2266  2.2266
  115OSM   C15S11957   1.396   2.229   5.124  0.3348  0.3497 -0.0767
  115OSM   H15S11958   1.500   2.195   5.141  0.3131  0.1520 -0.3406
  115OSM   H15T11959   1.390   2.335   5.156  0.1089  0.5360 -0.7302
  115OSM   C16S11960   1.343   2.221   4.976  0.0007  0.3559  0.2900
  115OSM   H16S11961   1.235   2.247   4.975 -0.5535 -1.7810 -0.3806
  115OSM   H16T11962   1.354   2.111   4.960 -1.1050 -0.1099  2.3275
  115OSM   C17S11963   1.424   2.297   4.867  0.3473  0.2970  0.4010
  115OSM   H17S11964   1.409   2.249   4.768  2.8825 -0.1305  0.1680
  115OSM   H17T11965   1.532   2.279   4.883  0.5896 -0.5535 -1.8045
  115OSM   C18S11966   1.377   2.440   4.866  0.0236  0.3466  0.5549
  115OSM   H18S11967   1.270   2.454   4.839 -0.6406 -1.6400  1.8930
  115OSM   H18T11968   1.428   2.496   4.785 -1.2697 -1.2835 -1.5088
  115OSM   H18U11969   1.397   2.491   4.963  2.6417  0.0526  0.2354
  115OSM    C1F11970   1.163   0.989   5.993 -0.5489  0.5227  0.3031
  115OSM     OF11971   1.115   0.985   6.106 -0.2582 -0.2650  0.7424
  115OSM    C2F11972   1.121   0.897   5.877  0.1985 -0.2932 -0.5454
  115OSM    H2F11973   1.209   0.837   5.843  0.5153 -0.0498 -0.1693
  115OSM    H2G11974   1.100   0.968   5.794  1.8939  0.1668 -0.6293
  115OSM    C3F11975   1.009   0.801   5.924 -0.1425  0.0961  0.1910
  115OSM    H3F11976   0.921   0.859   5.957  0.0995 -0.4698  1.9032
  115OSM    H3G11977   1.034   0.731   6.006 -3.1289  2.4951  3.4130
  115OSM    C4F11978   0.976   0.709   5.806 -0.2539  0.0118  0.0599
  115OSM    H4F11979   0.917   0.625   5.848 -0.8255  0.8140  0.8784
  115OSM    H4G11980   1.067   0.664   5.761 -0.8576 -0.3778 -0.8241
  115OSM    C5F11981   0.889   0.782   5.701  0.5336  0.0365  0.2364
  115OSM    H5F11982   0.945   0.875   5.677 -1.0294  0.9099 -0.1235
  115OSM    H5G11983   0.791   0.805   5.746 -0.8952  0.3064 -2.7743
  115OSM    C6F11984   0.881   0.695   5.574 -0.4955  0.5477 -0.4089
  115OSM    H6F11985   0.846   0.594   5.604  1.6960 -0.4110 -0.9291
  115OSM    H6G11986   0.981   0.684   5.529 -1.3970  1.2281 -2.7139
  115OSM    C7F11987   0.786   0.740   5.457  0.2277  0.5859  0.1913
  115OSM    H7F11988   0.809   0.838   5.412 -0.2830  0.3386 -0.6495
  115OSM    H7G11989   0.687   0.758   5.505 -0.1593  0.1608 -0.4189
  115OSM    C8F11990   0.767   0.634   5.352  0.1519 -0.2331 -0.5831
  115OSM    H8F11991   0.681   0.667   5.290  0.9317  1.1670 -0.9715
  115OSM    H8G11992   0.728   0.541   5.399 -1.7778  1.6405  1.8129
  115OSM    C9F11993   0.895   0.609   5.278  0.2062  0.1019  0.2629
  115OSM    H9F11994   0.969   0.572   5.351 -0.5159 -1.1824  0.3730
  115OSM   C10F11995   0.911   0.611   5.143 -0.1658 -0.0367 -0.3115
  115OSM   H10F11996   1.013   0.607   5.101 -1.1206 -0.8149 -2.7070
  115OSM   C11F11997   0.803   0.650   5.049 -0.0267  0.2473  0.7038
  115OSM   H11F11998   0.803   0.761   5.043 -0.1299  0.2381  0.5388
  115OSM   H11G11999   0.701   0.629   5.088  1.1090 -2.3811  2.6002
  115OSM   C12F12000   0.824   0.598   4.911  0.2978 -0.5210  1.0647
  115OSM   H12F12001   0.923   0.640   4.884 -0.1084  0.3019  0.8377
  115OSM   H12G12002   0.741   0.632   4.845 -0.1190 -0.8635  1.4024
  115OSM   C13F12003   0.820   0.447   4.890  0.1179 -0.1791 -0.0503
  115OSM   H13F12004   0.718   0.404   4.899 -0.5940  1.2885 -0.6875
  115OSM   H13G12005   0.886   0.393   4.960  0.7810 -1.7088 -1.7692
  115OSM   C14F12006   0.867   0.424   4.748 -0.5671  0.2770 -0.6415
  115OSM   H14F12007   0.967   0.468   4.727 -0.1313 -0.3323  0.1010
  115OSM   H14G12008   0.801   0.470   4.671 -1.4415  0.9596  0.4929
  115OSM   C15F12009   0.874   0.274   4.717  0.1628  0.0384  0.2955
  115OSM   H15F12010   0.770   0.237   4.709  0.9818 -2.1516 -1.1320
  115OSM   H15G12011   0.929   0.214   4.793  2.6204 -0.5792 -1.8385
  115OSM   C16F12012   0.947   0.246   4.585  0.3535 -0.3178 -0.1996
  115OSM   H16F12013   1.032   0.315   4.561 -0.8943  1.4809  0.3886
  115OSM   H16G12014   0.867   0.253   4.508 -0.5473 -2.8774  0.4136
  115OSM   C17F12015   0.981   0.099   4.571 -0.8763  0.8130  0.3031
  115OSM   H17F12016   0.886   0.042   4.577 -0.2985 -0.5077 -2.1183
  115OSM   H17G12017   1.046   0.068   4.656  0.9795 -0.6138 -1.5501
  115OSM   C18F12018   1.043   0.062   4.433 -0.8474 -0.8050 -0.4396
  115OSM   H18F12019   0.981   0.090   4.346 -0.6914  0.1638 -0.2497
  115OSM   H18G12020   1.083  -0.042   4.440  0.3378 -0.2934  1.0943
  115OSM   H18H12021   1.127   0.133   4.416 -2.0067  1.5733  2.7432
  116OSM      N12022   1.838   0.019   6.524  0.2485 -0.7960 -0.2496
  116OSM    C1512023   1.768  -0.038   6.645  0.8400 -0.0576 -0.4545
  116OSM   H15A12024   1.708   0.042   6.687  3.2689  0.3467  2.6476
  116OSM   H15B12025   1.831  -0.075   6.725 -1.0347  0.7085  1.4775
  116OSM   H15C12026   1.706  -0.119   6.610 -1.4931  0.9380  1.1011
  116OSM    C1412027   1.730   0.055   6.425 -0.7532 -0.5118  0.2281
  116OSM   H14A12028   1.781   0.082   6.334  0.1559  0.0909  0.8899
  116OSM   H14B12029   1.668   0.137   6.457 -0.3569  0.4205 -1.2980
  116OSM   H14C12030   1.659  -0.021   6.395 -3.1631  1.6834  0.0437
  116OSM    C1312031   1.911   0.141   6.569  1.3274  0.5892 -0.2417
  116OSM   H13A12032   1.986   0.166   6.495  0.3372 -1.9745 -2.2913
  116OSM   H13B12033   1.963   0.127   6.662  0.4471  1.7047  0.4480
  116OSM   H13C12034   1.849   0.229   6.579  0.4702  0.0042 -0.3552
  116OSM    C1212035   1.937  -0.075   6.466 -0.7187  0.0355  0.3237
  116OSM   H12A12036   2.022  -0.095   6.531  0.9183 -2.9071 -2.4029
  116OSM   H12B12037   1.988  -0.023   6.386 -0.4443 -0.1104  0.4003
  116OSM    C1112038   1.876  -0.213   6.421  0.0120 -0.3010  0.1770
  116OSM   H11A12039   1.952  -0.264   6.357 -0.0378  0.5252 -0.5545
  116OSM   H11B12040   1.796  -0.202   6.344 -0.1317 -1.3067  0.1708
  116OSM      P12041   1.755  -0.421   6.533 -0.1739 -0.3089 -0.2709
  116OSM    O1312042   1.852  -0.532   6.516  0.4631 -0.8138 -0.9922
  116OSM    O1412043   1.665  -0.426   6.653 -0.0260 -0.3142 -0.1285
  116OSM    O1112044   1.663  -0.419   6.400 -0.5055 -0.4756 -0.5020
  116OSM    O1212045   1.839  -0.288   6.536  0.2299  0.0186 -0.6146
  116OSM    C1S12046   1.609  -0.544   6.355 -0.5571 -0.4148  0.5165
  116OSM    H1S12047   1.524  -0.574   6.419 -2.2004 -1.3815 -1.9673
  116OSM    H1T12048   1.684  -0.625   6.368  0.8805  0.3315 -2.3188
  116OSM     NF12049   1.476  -0.661   6.169 -0.5993  0.3423 -0.1202
  116OSM    HNF12050   1.496  -0.731   6.100 -0.2359 -1.2127  1.4762
  116OSM    C2S12051   1.566  -0.551   6.205 -0.9667  0.1891  0.4813
  116OSM    H2S12052   1.517  -0.457   6.172 -0.4540  0.0802 -0.6427
  116OSM    C3S12053   1.706  -0.544   6.126 -0.6689  0.7260  0.3645
  116OSM    H3S12054   1.758  -0.639   6.149  1.6218  2.2298  1.8419
  116OSM     O312055   1.795  -0.447   6.159  0.3975  0.1359  0.0394
  116OSM    HO312056   1.772  -0.407   6.243  1.0173  1.4778 -0.4070
  116OSM    C4S12057   1.674  -0.541   5.980 -0.0111  0.4203  0.6521
  116OSM    H4S12058   1.681  -0.638   5.929  2.0453  1.2205 -0.7168
  116OSM    C5S12059   1.668  -0.430   5.899  0.2033  0.3305 -0.2254
  116OSM    H5S12060   1.695  -0.335   5.947 -2.2826  1.1975 -0.4148
  116OSM    C6S12061   1.641  -0.432   5.759  0.0458  0.1317  1.2209
  116OSM    H6S12062   1.574  -0.345   5.743 -0.3108 -0.5664 -1.7353
  116OSM    H6T12063   1.581  -0.517   5.721 -1.9755  2.1453 -0.3511
  116OSM    C7S12064   1.757  -0.409   5.660 -0.5979  0.4564 -0.1252
  116OSM    H7S12065   1.718  -0.407   5.556  1.0834  1.1537 -0.7801
  116OSM    H7T12066   1.840  -0.481   5.678 -2.1912 -1.2599  0.6555
  116OSM    C8S12067   1.828  -0.271   5.681  0.5891  0.4041  0.4839
  116OSM    H8S12068   1.882  -0.252   5.776 -0.0522  1.2549  0.6896
  116OSM    H8T12069   1.760  -0.184   5.673 -0.2595 -0.3065 -0.1266
  116OSM    C9S12070   1.929  -0.256   5.564 -0.8333 -0.4521  1.0079
  116OSM    H9S12071   1.983  -0.350   5.541  1.4386  1.2610 -1.0598
  116OSM    H9T12072   2.006  -0.181   5.593 -0.2077 -1.0625  0.9478
  116OSM   C10S12073   1.871  -0.222   5.428 -0.0348 -0.4791 -0.1351
  116OSM   H10S12074   1.829  -0.119   5.435 -0.9792 -0.7610 -1.2290
  116OSM   H10T12075   1.785  -0.284   5.396 -0.2486  0.2793 -1.0943
  116OSM   C11S12076   1.968  -0.229   5.311 -0.4004 -0.7781  0.3515
  116OSM   H11S12077   1.993  -0.333   5.281  1.8141 -0.3837  0.6103
  116OSM   H11T12078   2.058  -0.166   5.326 -0.8162  0.1098 -0.7401
  116OSM   C12S12079   1.921  -0.162   5.171  0.6656  0.2683 -0.9133
  116OSM   H12S12080   1.960  -0.059   5.175 -0.2966  0.6256 -0.2522
  116OSM   H12T12081   1.810  -0.161   5.167  0.5890  1.3575  0.6103
  116OSM   C13S12082   1.982  -0.218   5.041  0.5398 -0.1275  0.2848
  116OSM   H13S12083   1.968  -0.328   5.036  0.2427 -0.0865  0.1662
  116OSM   H13T12084   2.093  -0.223   5.033  0.4918 -3.6767  0.6654
  116OSM   C14S12085   1.929  -0.146   4.920  0.3478 -0.2670  0.3002
  116OSM   H14S12086   1.948  -0.038   4.933 -1.0219  0.0063  0.2520
  116OSM   H14T12087   1.819  -0.161   4.911  0.6320 -1.8719 -1.0998
  116OSM   C15S12088   1.997  -0.179   4.792  0.6166 -0.5431 -0.0355
  116OSM   H15S12089   1.987  -0.288   4.769 -0.0247 -0.2920 -0.9932
  116OSM   H15T12090   2.106  -0.157   4.792  0.2788  1.2553 -0.9278
  116OSM   C16S12091   1.926  -0.116   4.669  0.2042 -0.0676  0.1644
  116OSM   H16S12092   1.950  -0.007   4.676 -0.4709  0.1778 -1.1018
  116OSM   H16T12093   1.815  -0.119   4.668  0.0687  0.6858  3.0707
  116OSM   C17S12094   1.989  -0.170   4.539 -0.6519  0.1385  0.3608
  116OSM   H17S12095   1.943  -0.270   4.528 -1.1079  0.0813  2.3599
  116OSM   H17T12096   2.098  -0.187   4.551 -0.8710 -0.9956  0.8822
  116OSM   C18S12097   1.971  -0.094   4.404 -0.3195 -0.5691 -0.7437
  116OSM   H18S12098   1.861  -0.075   4.400 -0.0634  0.7254 -3.2354
  116OSM   H18T12099   2.020  -0.148   4.320 -0.6381 -0.5253 -0.9597
  116OSM   H18U12100   2.027   0.001   4.415 -0.6275 -0.5837  1.3466
  116OSM    C1F12101   1.355  -0.678   6.217 -0.0257  0.4434 -0.1777
  116OSM     OF12102   1.317  -0.594   6.294 -0.2078 -0.4547 -0.1776
  116OSM    C2F12103   1.265  -0.795   6.168 -0.7687  0.0844  0.4435
  116OSM    H2F12104   1.221  -0.853   6.251 -2.0892 -0.5548 -0.6581
  116OSM    H2G12105   1.328  -0.866   6.110 -1.4778 -1.9016  2.0137
  116OSM    C3F12106   1.150  -0.735   6.083 -0.4455  0.2987  0.6404
  116OSM    H3F12107   1.091  -0.672   6.153  1.1255 -0.2168  2.5202
  116OSM    H3G12108   1.086  -0.823   6.061 -0.5004 -0.0985  2.2523
  116OSM    C4F12109   1.186  -0.649   5.961  0.1303  0.6743  0.0430
  116OSM    H4F12110   1.239  -0.557   5.994 -1.4458  1.2757  0.9916
  116OSM    H4G12111   1.091  -0.600   5.933  0.5144  1.3812 -0.0432
  116OSM    C5F12112   1.269  -0.719   5.854 -0.2676 -0.6031  0.1360
  116OSM    H5F12113   1.227  -0.821   5.845 -0.8898 -0.3358 -0.0262
  116OSM    H5G12114   1.372  -0.731   5.894 -0.2349  0.6941  0.4875
  116OSM    C6F12115   1.248  -0.650   5.716 -0.0365 -0.3430 -0.8602
  116OSM    H6F12116   1.279  -0.543   5.727  1.8079 -0.7609 -1.6808
  116OSM    H6G12117   1.141  -0.645   5.685 -0.1834 -1.1161 -0.4831
  116OSM    C7F12118   1.326  -0.723   5.616  0.2321 -0.9437 -0.1484
  116OSM    H7F12119   1.297  -0.830   5.615 -0.9308 -0.6603  1.2461
  116OSM    H7G12120   1.431  -0.722   5.653 -0.0749  0.4366  0.7197
  116OSM    C8F12121   1.315  -0.672   5.471 -0.1295  0.3594 -0.0996
  116OSM    H8F12122   1.365  -0.573   5.468  0.4938  0.0787  0.7896
  116OSM    H8G12123   1.208  -0.660   5.440 -0.9884 -2.3883  1.4907
  116OSM    C9F12124   1.378  -0.762   5.370 -0.1568 -0.3454 -0.0883
  116OSM    H9F12125   1.340  -0.865   5.371  0.2731 -0.5186 -0.7525
  116OSM   C10F12126   1.491  -0.744   5.293  0.2699 -0.3406  0.0077
  116OSM   H10F12127   1.504  -0.823   5.217 -0.9539  0.4952 -1.1128
  116OSM   C11F12128   1.575  -0.624   5.287 -0.5537 -0.6198 -0.0035
  116OSM   H11F12129   1.662  -0.636   5.355  0.2825  0.7129 -0.7908
  116OSM   H11G12130   1.514  -0.538   5.323 -0.6940 -0.0397 -1.5181
  116OSM   C12F12131   1.612  -0.596   5.138 -0.4420  0.2926 -0.4561
  116OSM   H12F12132   1.680  -0.508   5.127 -1.7757  1.2190 -1.5966
  116OSM   H12G12133   1.521  -0.572   5.080 -0.2291  2.3360 -0.0285
  116OSM   C13F12134   1.694  -0.722   5.082  0.3960  0.1019 -1.0590
  116OSM   H13F12135   1.616  -0.801   5.073 -1.8500  2.3867 -2.9728
  116OSM   H13G12136   1.770  -0.748   5.159 -1.0844 -0.7582  0.1712
  116OSM   C14F12137   1.742  -0.703   4.934 -0.3817 -0.5241  0.2386
  116OSM   H14F12138   1.668  -0.641   4.879  0.8288  1.7427  1.0203
  116OSM   H14G12139   1.758  -0.803   4.889 -0.0530 -0.2316 -0.3159
  116OSM   C15F12140   1.880  -0.636   4.914  0.3212  0.8466  0.0681
  116OSM   H15F12141   1.938  -0.655   5.007 -0.3008 -0.6122  0.1823
  116OSM   H15G12142   1.862  -0.527   4.902  0.8160  0.6500 -3.7616
  116OSM   C16F12143   1.976  -0.698   4.817  0.0216 -0.1634  1.0172
  116OSM   H16F12144   1.992  -0.807   4.835  1.1725 -0.0444  0.7716
  116OSM   H16G12145   2.071  -0.646   4.840 -0.9840  1.4830  1.5852
  116OSM   C17F12146   1.944  -0.685   4.667 -0.0259  0.1305 -0.3755
  116OSM   H17F12147   1.848  -0.730   4.634  0.2340 -1.8620  1.3639
  116OSM   H17G12148   2.012  -0.759   4.619 -0.9507 -0.4458 -0.8192
  116OSM   C18F12149   1.967  -0.545   4.613  0.0064  0.5066 -0.2290
  116OSM   H18F12150   1.971  -0.544   4.502 -1.1618  0.6715 -0.2822
  116OSM   H18G12151   2.063  -0.500   4.648 -0.8557  1.3923  1.0804
  116OSM   H18H12152   1.875  -0.490   4.642 -2.0168 -3.0348  0.6326
  117OSM      N12153   1.731   2.946   7.027 -0.1582  0.2847 -0.4071
  117OSM    C1512154   1.862   2.927   7.087 -0.3900  0.0878  0.5872
  117OSM   H15A12155   1.950   2.940   7.025  0.8539 -3.2304  1.4572
  117OSM   H15B12156   1.883   2.825   7.115  0.2891  0.0272 -0.1131
  117OSM   H15C12157   1.872   2.992   7.173 -0.1537  1.2700 -0.2999
  117OSM    C1412158   1.714   2.836   6.923  0.6128  0.2985  0.3030
  117OSM   H14A12159   1.631   2.866   6.860  0.2346 -0.4357  0.4384
  117OSM   H14B12160   1.669   2.745   6.961  1.7003  0.0301  1.0104
  117OSM   H14C12161   1.797   2.836   6.854 -0.0044 -0.1299 -0.4640
  117OSM    C1312162   1.625   2.929   7.131  0.6494 -0.0964  0.3653
  117OSM   H13A12163   1.633   2.995   7.217 -1.0005  0.6658 -0.0330
  117OSM   H13B12164   1.630   2.826   7.164 -2.6160 -0.7632 -0.8449
  117OSM   H13C12165   1.528   2.934   7.085  1.4126 -0.6054 -1.3666
  117OSM    C1212166   1.714   3.086   6.971  0.9122 -0.2004 -0.3238
  117OSM   H12A12167   1.795   3.110   6.903  0.9602  0.4690 -0.0262
  117OSM   H12B12168   1.725   3.156   7.052 -1.1568  2.0724 -1.8513
  117OSM    C1112169   1.577   3.115   6.899 -0.3217  0.5531  0.3890
  117OSM   H11A12170   1.566   3.224   6.878  2.0193  0.9108  0.6608
  117OSM   H11B12171   1.496   3.100   6.974 -0.3374 -0.1294  0.2402
  117OSM      P12172   1.632   3.080   6.648 -0.1734  0.0255  0.0586
  117OSM    O1312173   1.698   3.211   6.665  0.0797 -0.0614 -0.2056
  117OSM    O1412174   1.732   2.971   6.615  0.0970  0.0926  0.2367
  117OSM    O1112175   1.519   3.093   6.545 -0.5274 -0.1475 -0.6334
  117OSM    O1212176   1.558   3.030   6.782  0.2602 -0.5150  0.4244
  117OSM    C1S12177   1.401   3.172   6.550 -0.5061 -0.3907  0.6919
  117OSM    H1S12178   1.428   3.277   6.573 -1.5759  0.6431 -2.4222
  117OSM    H1T12179   1.325   3.123   6.616 -2.6219 -1.3925 -2.3010
  117OSM     NF12180   1.211   3.254   6.423 -0.4268  0.0401 -0.6518
  117OSM    HNF12181   1.124   3.209   6.404 -1.3457  1.0219  1.0087
  117OSM    C2S12182   1.330   3.164   6.417 -0.0247 -0.0679 -0.5357
  117OSM    H2S12183   1.400   3.208   6.342  0.9956 -1.3836 -0.3686
  117OSM    C3S12184   1.292   3.022   6.376 -0.3667 -0.8742 -0.3443
  117OSM    H3S12185   1.216   2.993   6.451 -1.0305  1.0288 -0.2111
  117OSM     O312186   1.405   2.933   6.384  0.2535  0.7593  0.4531
  117OSM    HO312187   1.470   2.977   6.440 -0.5832  1.5725  0.8198
  117OSM    C4S12188   1.223   3.015   6.240  0.0230 -0.3510 -0.2301
  117OSM    H4S12189   1.127   3.069   6.239  1.9516  3.4918 -1.9861
  117OSM    C5S12190   1.270   2.963   6.124 -0.2821 -0.4381  1.0428
  117OSM    H5S12191   1.369   2.915   6.122 -1.2379 -2.9015 -4.0307
  117OSM    C6S12192   1.196   2.964   5.992  0.2900  0.0234  0.2773
  117OSM    H6S12193   1.087   2.960   6.011  0.0696  0.3181 -0.8946
  117OSM    H6T12194   1.224   2.874   5.933  2.2252  0.6480  0.1620
  117OSM    C7S12195   1.211   3.095   5.908  0.2526 -0.8277 -0.0026
  117OSM    H7S12196   1.316   3.105   5.873  0.0508  2.6109  0.0422
  117OSM    H7T12197   1.186   3.188   5.962 -4.0081 -0.7502 -1.7282
  117OSM    C8S12198   1.123   3.099   5.780 -0.5621 -0.3096 -0.7404
  117OSM    H8S12199   1.152   3.191   5.724 -1.8894 -0.1196 -1.1673
  117OSM    H8T12200   1.021   3.120   5.818  0.6831  1.1321  2.1027
  117OSM    C9S12201   1.131   2.983   5.680 -0.1181  0.0357 -0.3289
  117OSM    H9S12202   1.084   2.902   5.740  1.3295 -0.8218 -0.3154
  117OSM    H9T12203   1.240   2.969   5.666  0.4297 -2.9116  4.5342
  117OSM   C10S12204   1.060   2.999   5.546 -0.1586  0.4698  0.0808
  117OSM   H10S12205   0.975   3.069   5.564  1.2164  1.6769  2.2846
  117OSM   H10T12206   1.034   2.899   5.505  2.3845  0.4005 -1.5742
  117OSM   C11S12207   1.134   3.060   5.433 -0.6667 -0.5151  0.3214
  117OSM   H11S12208   1.219   2.993   5.406  0.5167  0.2935  1.8253
  117OSM   H11T12209   1.184   3.158   5.455 -0.9776  0.0111 -1.2142
  117OSM   C12S12210   1.046   3.082   5.316 -0.7125 -0.0369  0.2653
  117OSM   H12S12211   0.959   3.146   5.345 -1.4646 -1.0110  0.1984
  117OSM   H12T12212   0.996   2.997   5.265  1.2230 -0.6079 -0.7659
  117OSM   C13S12213   1.128   3.136   5.202 -0.0164 -0.5986  0.4894
  117OSM   H13S12214   1.199   3.058   5.167 -1.1296 -1.3022 -0.2828
  117OSM   H13T12215   1.187   3.224   5.233 -0.3126  0.1889 -1.0972
  117OSM   C14S12216   1.036   3.196   5.086 -0.2637  0.2230  0.2857
  117OSM   H14S12217   1.003   3.292   5.130 -0.5284  0.1632  0.2182
  117OSM   H14T12218   0.949   3.132   5.062 -0.3996  0.1792  0.8878
  117OSM   C15S12219   1.123   3.216   4.961 -0.3085 -0.6641 -0.9813
  117OSM   H15S12220   1.138   3.115   4.918 -0.6362 -1.1030 -0.0804
  117OSM   H15T12221   1.211   3.280   4.982 -2.4288  1.5219  2.0493
  117OSM   C16S12222   1.044   3.287   4.851 -0.1870  0.2197  0.1400
  117OSM   H16S12223   1.028   3.392   4.886  0.5097 -0.2267  1.9099
  117OSM   H16T12224   0.948   3.234   4.832  0.8799 -3.0632  2.8610
  117OSM   C17S12225   1.126   3.284   4.720 -0.3081 -0.0359 -0.4950
  117OSM   H17S12226   1.147   3.179   4.689 -1.6269  0.3817 -3.0719
  117OSM   H17T12227   1.227   3.324   4.742  0.0853 -0.6083 -1.1941
  117OSM   C18S12228   1.068   3.364   4.606 -0.0077  0.0705  0.4828
  117OSM   H18S12229   1.150   3.362   4.531 -1.6102 -3.6100 -1.4253
  117OSM   H18T12230   1.043   3.468   4.638 -0.4296  0.7799 -1.9523
  117OSM   H18U12231   0.973   3.319   4.569  0.4652 -0.0887 -0.5817
  117OSM    C1F12232   1.218   3.394   6.430  0.0471  0.6035  0.0924
  117OSM     OF12233   1.319   3.454   6.463  0.3552 -0.3639 -0.1020
  117OSM    C2F12234   1.093   3.464   6.398  0.3989 -0.1436  0.4447
  117OSM    H2F12235   1.041   3.490   6.492  0.8974  2.7703 -0.0001
  117OSM    H2G12236   1.037   3.390   6.337 -0.6877  0.8637  0.1885
  117OSM    C3F12237   1.109   3.600   6.329  0.0131 -0.4026  0.9602
  117OSM    H3F12238   1.191   3.655   6.381 -1.6574  1.9315  1.2743
  117OSM    H3G12239   1.021   3.667   6.341  0.0831 -0.1768  0.2278
  117OSM    C4F12240   1.159   3.590   6.186 -0.3448 -0.0131 -0.7029
  117OSM    H4F12241   1.257   3.539   6.192 -1.1677 -1.6920 -0.8523
  117OSM    H4G12242   1.171   3.694   6.148 -1.7085  0.1871 -0.6390
  117OSM    C5F12243   1.073   3.517   6.086  0.3571 -0.2433 -0.2973
  117OSM    H5F12244   0.972   3.564   6.086  0.0110 -0.7524 -3.5673
  117OSM    H5G12245   1.048   3.415   6.121 -1.9528  1.2341  2.8983
  117OSM    C6F12246   1.111   3.535   5.939  0.5053 -0.6391  0.0889
  117OSM    H6F12247   1.213   3.499   5.919  1.0767  0.9512 -0.0521
  117OSM    H6G12248   1.104   3.645   5.920 -1.7532 -0.7114  0.2062
  117OSM    C7F12249   1.014   3.463   5.840 -0.1843  0.1985  0.0040
  117OSM    H7F12250   0.914   3.510   5.848  0.6687  2.0611  0.3190
  117OSM    H7G12251   0.995   3.362   5.882  0.2884 -1.2255 -3.0010
  117OSM    C8F12252   1.058   3.482   5.700 -0.2665  0.6705 -0.5624
  117OSM    H8F12253   1.165   3.453   5.691  0.2420  1.8198  1.2848
  117OSM    H8G12254   1.052   3.591   5.681  1.7735  1.1789  1.2566
  117OSM    C9F12255   0.974   3.399   5.607  0.2475 -0.2801 -0.3173
  117OSM    H9F12256   0.994   3.294   5.634  0.3691  0.8487  4.9488
  117OSM   C10F12257   0.895   3.429   5.505 -0.8215 -0.0318 -1.1549
  117OSM   H10F12258   0.857   3.342   5.449  1.4179 -2.2701  0.5890
  117OSM   C11F12259   0.866   3.564   5.443 -0.2057  0.6170 -0.7459
  117OSM   H11F12260   0.959   3.622   5.424  0.5650  0.5569  2.3274
  117OSM   H11G12261   0.803   3.619   5.515  2.8924 -0.1747  2.8808
  117OSM   C12F12262   0.812   3.536   5.312  0.2659  0.5399  0.3804
  117OSM   H12F12263   0.724   3.470   5.321  0.1035  0.3906 -1.7420
  117OSM   H12G12264   0.889   3.485   5.249  1.1723  0.8607  1.2080
  117OSM   C13F12265   0.761   3.661   5.238  0.2758 -0.2371 -0.3075
  117OSM   H13F12266   0.853   3.715   5.205  0.1491  1.5066  1.9722
  117OSM   H13G12267   0.698   3.725   5.303 -0.1138  2.4010 -3.0126
  117OSM   C14F12268   0.672   3.633   5.113 -0.3765  0.2890 -0.0252
  117OSM   H14F12269   0.627   3.728   5.078  0.7273  0.3009 -1.4739
  117OSM   H14G12270   0.589   3.565   5.144  1.6293 -2.5947 -0.6065
  117OSM   C15F12271   0.748   3.575   4.997 -1.3517  0.2541  0.5751
  117OSM   H15F12272   0.803   3.483   5.029 -0.9187  0.6155  0.8936
  117OSM   H15G12273   0.820   3.657   4.977 -0.1749  0.2743  4.1534
  117OSM   C16F12274   0.667   3.538   4.868 -0.1538  0.0225  0.3682
  117OSM   H16F12275   0.655   3.629   4.805  2.8492  1.4034  1.6254
  117OSM   H16G12276   0.574   3.501   4.918  0.7344 -0.2524  1.8907
  117OSM   C17F12277   0.725   3.428   4.776 -0.9347  0.2325  0.2843
  117OSM   H17F12278   0.760   3.346   4.842 -2.8728 -0.3618  0.6242
  117OSM   H17G12279   0.813   3.473   4.724 -1.9412  2.1984  0.1721
  117OSM   C18F12280   0.636   3.355   4.679  0.7597 -0.2013  0.7587
  117OSM   H18F12281   0.693   3.279   4.621 -0.5971 -1.3518  0.8872
  117OSM   H18G12282   0.592   3.429   4.609  1.8473  0.9594  1.2625
  117OSM   H18H12283   0.552   3.306   4.733 -0.9087 -1.2155 -2.4998
  118OSM      N12284   1.932   2.212   6.728 -0.1843 -0.5946 -0.0225
  118OSM    C1512285   2.022   2.213   6.617 -0.1819  0.1937  0.1201
  118OSM   H15A12286   2.108   2.149   6.627  0.4901  1.4063  2.9093
  118OSM   H15B12287   2.067   2.309   6.599  0.2534 -0.0002  0.1819
  118OSM   H15C12288   1.981   2.177   6.523 -1.4131 -1.6954  1.2870
  118OSM    C1412289   2.005   2.251   6.851  0.1987  0.4054 -0.0233
  118OSM   H14A12290   2.089   2.185   6.868 -1.5707 -1.7615  0.7559
  118OSM   H14B12291   1.939   2.248   6.937 -0.8256 -0.2961 -0.8061
  118OSM   H14C12292   2.052   2.348   6.847  0.5744  0.3563  1.9510
  118OSM    C1312293   1.822   2.310   6.700 -0.5450 -0.3633  0.7551
  118OSM   H13A12294   1.762   2.322   6.789 -0.1346 -1.0070  1.1303
  118OSM   H13B12295   1.760   2.275   6.619  0.1892 -1.0760  0.4857
  118OSM   H13C12296   1.865   2.402   6.664  0.4418 -1.7525 -1.8713
  118OSM    C1212297   1.876   2.066   6.744 -0.1075 -0.4479  0.4060
  118OSM   H12A12298   1.815   2.064   6.833  0.6394 -1.2649  0.9236
  118OSM   H12B12299   1.955   1.997   6.770 -0.9576 -0.4265  3.3563
  118OSM    C1112300   1.787   2.008   6.626 -0.8242  0.0543  0.3029
  118OSM   H11A12301   1.777   1.899   6.644  1.2100 -0.2885 -0.4067
  118OSM   H11B12302   1.845   2.016   6.531 -1.9610 -0.3654 -0.4533
  118OSM      P12303   1.552   2.068   6.725  0.0896  0.1909  0.2852
  118OSM    O1312304   1.611   2.029   6.853 -0.1634 -0.4005  0.0272
  118OSM    O1412305   1.472   2.192   6.720 -0.2943 -0.3760 -0.1450
  118OSM    O1112306   1.462   1.952   6.679  0.0552 -0.3737 -0.3138
  118OSM    O1212307   1.663   2.077   6.613  0.2864 -0.6593 -0.6560
  118OSM    C1S12308   1.364   1.962   6.576  0.4753  0.0468 -0.8047
  118OSM    H1S12309   1.327   2.066   6.564  2.8020  0.8617 -1.3867
  118OSM    H1T12310   1.279   1.895   6.601  1.4487 -0.5175  1.2262
  118OSM     NF12311   1.320   1.961   6.335 -0.5823 -0.2686  0.4106
  118OSM    HNF12312   1.273   1.884   6.293 -0.9044  0.4514 -0.5780
  118OSM    C2S12313   1.423   1.938   6.438 -0.5539  0.2564 -0.3340
  118OSM    H2S12314   1.506   2.011   6.426 -0.0783 -0.2766 -0.2983
  118OSM    C3S12315   1.488   1.796   6.415 -0.8202 -0.4559  0.8714
  118OSM    H3S12316   1.400   1.728   6.414 -1.5777  0.4230  2.9964
  118OSM     O312317   1.541   1.740   6.533 -0.7753  0.1704 -0.6261
  118OSM    HO312318   1.513   1.795   6.607 -1.7652 -1.5747  0.3623
  118OSM    C4S12319   1.566   1.779   6.285 -0.1636 -0.5759 -0.8389
  118OSM    H4S12320   1.494   1.749   6.207  0.1693  2.4222 -2.4370
  118OSM    C5S12321   1.696   1.779   6.257  0.4669  0.0587 -0.7531
  118OSM    H5S12322   1.771   1.781   6.339  0.0878  0.7379 -0.4111
  118OSM    C6S12323   1.747   1.757   6.118  0.0031  0.3929  0.5602
  118OSM    H6S12324   1.674   1.784   6.039 -0.4533 -1.1696  0.4148
  118OSM    H6T12325   1.768   1.650   6.097 -1.1891  0.4767 -1.2689
  118OSM    C7S12326   1.871   1.839   6.102 -0.7625  0.0142 -0.3628
  118OSM    H7S12327   1.949   1.789   6.164  0.7146  1.8814 -0.6354
  118OSM    H7T12328   1.854   1.938   6.149 -0.5938 -0.2029  0.1617
  118OSM    C8S12329   1.910   1.856   5.959 -0.0023  0.3576 -0.3055
  118OSM    H8S12330   1.984   1.938   5.943  0.8092 -0.3070 -0.0559
  118OSM    H8T12331   1.823   1.885   5.896 -0.1456 -0.3400 -0.4363
  118OSM    C9S12332   1.979   1.727   5.906 -0.4775 -0.6404  0.7301
  118OSM    H9S12333   1.911   1.641   5.889  0.4970 -1.7885  2.4330
  118OSM    H9T12334   2.064   1.701   5.972 -0.7110  0.5644  1.5499
  118OSM   C10S12335   2.043   1.747   5.765 -0.6982 -0.5823 -0.0790
  118OSM   H10S12336   2.112   1.835   5.766 -1.0010 -0.2790 -1.9930
  118OSM   H10T12337   1.964   1.773   5.691  1.1372  2.0476 -1.2825
  118OSM   C11S12338   2.125   1.628   5.716 -0.4130  0.6381  0.4867
  118OSM   H11S12339   2.064   1.535   5.724 -0.7328  0.3385 -3.5522
  118OSM   H11T12340   2.213   1.618   5.784 -0.1929 -1.6161 -0.0232
  118OSM   C12S12341   2.171   1.629   5.562 -0.1784  0.2052 -0.1551
  118OSM   H12S12342   2.083   1.612   5.495  0.6718 -3.3292 -0.6109
  118OSM   H12T12343   2.225   1.532   5.559  1.4625  1.0992 -0.4384
  118OSM   C13S12344   2.276   1.738   5.536 -0.0596  0.7104  0.2028
  118OSM   H13S12345   2.357   1.730   5.612  0.0491  2.5234  0.3219
  118OSM   H13T12346   2.229   1.837   5.556 -0.0323  0.5648  1.0170
  118OSM   C14S12347   2.344   1.718   5.398 -0.3069 -0.3607  0.8754
  118OSM   H14S12348   2.380   1.613   5.392 -0.0084 -0.3338  2.0902
  118OSM   H14T12349   2.435   1.782   5.391  1.3272 -2.0798  4.2265
  118OSM   C15S12350   2.256   1.751   5.271  0.7609 -0.2444  0.3510
  118OSM   H15S12351   2.229   1.858   5.280 -2.0013 -0.9768  1.8169
  118OSM   H15T12352   2.175   1.678   5.292  2.2390 -1.3326  2.7655
  118OSM   C16S12353   2.312   1.718   5.132  0.6309  0.7680 -0.3533
  118OSM   H16S12354   2.342   1.612   5.142  1.4302  1.1595  1.8677
  118OSM   H16T12355   2.405   1.778   5.122  0.7727  1.0942  2.2505
  118OSM   C17S12356   2.226   1.755   5.014 -0.0127 -0.1069 -0.2322
  118OSM   H17S12357   2.236   1.865   5.003  0.9980 -0.2101 -0.4313
  118OSM   H17T12358   2.121   1.736   5.045 -0.3154 -0.9692 -1.6896
  118OSM   C18S12359   2.255   1.670   4.889 -0.4082 -0.3180  0.0929
  118OSM   H18S12360   2.358   1.693   4.854  0.0982 -0.4372  1.4553
  118OSM   H18T12361   2.178   1.694   4.812 -0.5438 -0.0762  0.3039
  118OSM   H18U12362   2.246   1.562   4.913 -0.7974  0.0969  1.9608
  118OSM    C1F12363   1.260   2.073   6.305  0.1909  0.1012 -0.2430
  118OSM     OF12364   1.280   2.180   6.361 -0.0119  0.1606 -0.2316
  118OSM    C2F12365   1.153   2.067   6.200  0.6542  0.1607  0.0121
  118OSM    H2F12366   1.054   2.080   6.249 -1.4249  0.0671 -3.7771
  118OSM    H2G12367   1.143   1.973   6.141  0.8990  0.9668 -1.3270
  118OSM    C3F12368   1.165   2.182   6.108 -0.2446 -0.0911 -0.4295
  118OSM    H3F12369   1.148   2.274   6.168 -1.0147  0.4974 -1.5099
  118OSM    H3G12370   1.079   2.181   6.037 -0.1420 -2.1403 -0.5629
  118OSM    C4F12371   1.298   2.192   6.026 -0.3664  0.6446 -0.0539
  118OSM    H4F12372   1.390   2.195   6.088  0.9052  0.0945 -1.8050
  118OSM    H4G12373   1.298   2.291   5.976  0.9050 -0.5313 -2.5599
  118OSM    C5F12374   1.322   2.078   5.918  0.0984 -1.2947  0.5969
  118OSM    H5F12375   1.225   2.053   5.869  1.4033 -2.2314 -1.7182
  118OSM    H5G12376   1.365   1.983   5.957 -1.0045 -1.5296  1.2747
  118OSM    C6F12377   1.405   2.136   5.801  0.1706 -0.9262 -0.1381
  118OSM    H6F12378   1.355   2.235   5.790 -2.4428 -1.8623  2.2123
  118OSM    H6G12379   1.383   2.065   5.719  0.5277  0.0439 -1.1011
  118OSM    C7F12380   1.560   2.143   5.827 -0.3856 -0.1074 -0.0350
  118OSM    H7F12381   1.590   2.076   5.910 -1.3581  1.2935  1.5264
  118OSM    H7G12382   1.576   2.249   5.858 -0.3996 -0.6967  2.1309
  118OSM    C8F12383   1.642   2.114   5.699 -0.2302  0.4104 -0.2176
  118OSM    H8F12384   1.747   2.143   5.724 -0.7528  1.3871  0.9275
  118OSM    H8G12385   1.609   2.189   5.624 -0.1249  0.8175  0.1396
  118OSM    C9F12386   1.651   1.975   5.637  0.2325  0.2613 -0.1343
  118OSM    H9F12387   1.637   1.887   5.703  0.7608  0.1161 -0.2094
  118OSM   C10F12388   1.693   1.949   5.517 -0.0076  0.0046  1.3355
  118OSM   H10F12389   1.712   1.846   5.484 -1.5017  0.4997 -1.4693
  118OSM   C11F12390   1.737   2.050   5.420  0.5419  0.0233  0.5240
  118OSM   H11F12391   1.816   2.120   5.454 -0.1297  1.5177 -0.8136
  118OSM   H11G12392   1.654   2.118   5.391  1.0119  0.3141 -0.1556
  118OSM   C12F12393   1.788   1.979   5.291  0.3814  0.3451 -0.1223
  118OSM   H12F12394   1.710   1.911   5.252 -0.2850  0.8168  0.3593
  118OSM   H12G12395   1.888   1.931   5.296  0.7973  0.9448 -2.0966
  118OSM   C13F12396   1.803   2.080   5.174  0.1807  0.3938  0.7925
  118OSM   H13F12397   1.861   2.167   5.211  3.3279 -2.1064  2.2096
  118OSM   H13G12398   1.707   2.120   5.134 -0.5232  0.4648  2.4617
  118OSM   C14F12399   1.884   2.016   5.055  0.3654  0.7732  0.1038
  118OSM   H14F12400   1.810   1.937   5.028  1.0538 -0.0236  0.5218
  118OSM   H14G12401   1.983   1.974   5.082  0.6672  1.6384  0.3789
  118OSM   C15F12402   1.904   2.121   4.949  0.0628 -0.1822  0.5865
  118OSM   H15F12403   1.923   2.221   4.993  1.9002  1.0631 -2.7038
  118OSM   H15G12404   1.809   2.138   4.894  0.2923  1.9071  0.7393
  118OSM   C16F12405   2.026   2.083   4.852 -0.0719 -0.2517  0.2478
  118OSM   H16F12406   2.119   2.071   4.911 -1.9180 -1.0940  3.2030
  118OSM   H16G12407   2.032   2.161   4.774 -2.0228 -0.1688  0.1173
  118OSM   C17F12408   1.987   1.950   4.782 -0.0290 -0.4469 -0.1042
  118OSM   H17F12409   1.883   1.962   4.745  0.7656  2.3906 -1.7301
  118OSM   H17G12410   2.001   1.862   4.849  0.3383  0.9964  1.8165
  118OSM   C18F12411   2.074   1.927   4.658  0.9673 -0.4777  0.3564
  118OSM   H18F12412   2.182   1.916   4.679  0.5857 -0.4413  2.5195
  118OSM   H18G12413   2.058   2.000   4.576  0.0224  1.2859  2.0426
  118OSM   H18H12414   2.044   1.830   4.612 -0.1973 -0.9873  2.0867
  119OSM      N12415   2.760   0.186   6.236  0.4684 -0.4517  0.1941
  119OSM    C1512416   2.733   0.215   6.090  0.1027  0.6814 -0.0148
  119OSM   H15A12417   2.751   0.126   6.031 -1.1689  1.2920 -1.4027
  119OSM   H15B12418   2.798   0.292   6.053  1.5244 -0.0305  0.9130
  119OSM   H15C12419   2.630   0.247   6.084 -0.1753 -0.0418  0.6963
  119OSM    C1412420   2.724   0.304   6.317  0.0817  0.0453  0.4323
  119OSM   H14A12421   2.750   0.398   6.273  1.1091 -0.7075 -0.6358
  119OSM   H14B12422   2.768   0.297   6.416  0.4750 -1.0295  0.1973
  119OSM   H14C12423   2.619   0.313   6.339 -0.8276 -1.8593 -2.5640
  119OSM    C1312424   2.687   0.064   6.271  0.3772 -0.9151 -0.3052
  119OSM   H13A12425   2.716  -0.025   6.217  0.1671 -0.7055 -0.7695
  119OSM   H13B12426   2.581   0.081   6.271 -0.0929 -3.0893  2.4055
  119OSM   H13C12427   2.702   0.044   6.376  1.1970 -0.8234 -0.3940
  119OSM    C1212428   2.907   0.172   6.251 -0.5476  0.0539  0.6434
  119OSM   H12A12429   2.935   0.081   6.200  0.2037 -0.6495  2.2429
  119OSM   H12B12430   2.936   0.143   6.351 -1.6836 -1.4483  0.5740
  119OSM    C1112431   3.003   0.282   6.193  0.3620  0.1111 -0.0741
  119OSM   H11A12432   3.003   0.276   6.082  0.7595 -1.3217 -0.0159
  119OSM   H11B12433   3.107   0.262   6.224  1.2108  0.5784 -2.4361
  119OSM      P12434   3.046   0.489   6.339  0.4810  0.1026 -0.7038
  119OSM    O1312435   2.967   0.587   6.414  0.0283  0.5198  0.1516
  119OSM    O1412436   3.118   0.388   6.421  0.1387  0.1436  0.1294
  119OSM    O1112437   3.140   0.588   6.260  0.4499 -0.0337  0.1997
  119OSM    O1212438   2.963   0.416   6.229  0.3535  0.0282  0.2453
  119OSM    C1S12439   3.257   0.544   6.188 -0.7103  0.5435  0.3679
  119OSM    H1S12440   3.293   0.446   6.226 -0.9829  0.5863  0.7334
  119OSM    H1T12441   3.340   0.617   6.196  0.2650 -0.5783  0.7908
  119OSM     NF12442   3.340   0.472   5.965 -0.2285  0.3652  0.5641
  119OSM    HNF12443   3.407   0.531   5.921  1.8967 -2.0728  0.2822
  119OSM    C2S12444   3.227   0.542   6.035 -0.2230 -0.6272 -0.2920
  119OSM    H2S12445   3.134   0.481   6.036  0.1675 -1.2439 -0.7230
  119OSM    C3S12446   3.179   0.686   5.978 -0.7882  2.2248  0.2735
  119OSM    H3S12447   3.265   0.757   5.982 -0.4766  1.8174  1.9139
  119OSM     O312448   3.081   0.759   6.042  0.3347 -0.6230 -0.5039
  119OSM    HO312449   3.069   0.699   6.116 -1.7564 -0.8947 -1.0121
  119OSM    C4S12450   3.142   0.657   5.829 -0.1108 -0.2292 -0.6789
  119OSM    H4S12451   3.227   0.622   5.768 -0.1157 -2.3502  0.4052
  119OSM    C5S12452   3.018   0.670   5.775 -0.2113 -0.4170 -0.4782
  119OSM    H5S12453   2.937   0.721   5.828  0.6368  0.2728  0.1735
  119OSM    C6S12454   2.977   0.636   5.633  0.0665 -0.2241  0.2901
  119OSM    H6S12455   2.891   0.568   5.619 -0.4495  0.6073 -0.6711
  119OSM    H6T12456   3.060   0.587   5.578  1.0263  0.5530  0.9781
  119OSM    C7S12457   2.964   0.772   5.563  0.2920  0.0805  0.3012
  119OSM    H7S12458   3.051   0.840   5.570  0.4193 -0.0437 -0.0435
  119OSM    H7T12459   2.882   0.830   5.611 -0.7041 -1.2083  0.2261
  119OSM    C8S12460   2.928   0.756   5.409 -0.2072  0.2384 -0.1857
  119OSM    H8S12461   3.019   0.716   5.360  0.1052  0.7623 -0.0398
  119OSM    H8T12462   2.908   0.861   5.379  1.1928  0.8959  1.0298
  119OSM    C9S12463   2.812   0.667   5.380  0.4855  0.6433  0.0781
  119OSM    H9S12464   2.730   0.688   5.451 -0.1699  0.9762 -0.7544
  119OSM    H9T12465   2.844   0.562   5.391 -2.4304 -0.4258 -0.7044
  119OSM   C10S12466   2.746   0.680   5.240 -0.2015 -0.1505  0.2095
  119OSM   H10S12467   2.727   0.789   5.241  0.2741 -0.0235 -1.6389
  119OSM   H10T12468   2.650   0.624   5.253  0.0930 -0.2396  2.3299
  119OSM   C11S12469   2.826   0.649   5.110 -0.3420 -0.0001 -0.1823
  119OSM   H11S12470   2.836   0.538   5.106  0.9835  0.1078 -0.2912
  119OSM   H11T12471   2.932   0.683   5.116 -0.7808  1.3861 -0.1039
  119OSM   C12S12472   2.756   0.699   4.988 -0.1938 -0.0519  0.0510
  119OSM   H12S12473   2.742   0.809   4.991  0.8115  0.1536 -1.6459
  119OSM   H12T12474   2.648   0.672   4.993 -0.0713 -0.6553 -0.4326
  119OSM   C13S12475   2.825   0.659   4.854  0.1090  0.6766 -0.2834
  119OSM   H13S12476   2.823   0.548   4.851 -0.5934  0.6867 -0.2827
  119OSM   H13T12477   2.932   0.688   4.865 -0.3888  2.0091  1.6749
  119OSM   C14S12478   2.757   0.715   4.725  0.7803  0.2894  0.6526
  119OSM   H14S12479   2.738   0.825   4.731  0.3563  0.2407  0.2363
  119OSM   H14T12480   2.661   0.659   4.719 -1.2973  3.4965  1.0587
  119OSM   C15S12481   2.830   0.675   4.601 -0.2109  0.3237 -0.0064
  119OSM   H15S12482   2.849   0.565   4.591 -0.2057  0.4409 -1.5425
  119OSM   H15T12483   2.927   0.729   4.603  0.0840 -0.2044  0.4013
  119OSM   C16S12484   2.763   0.716   4.467 -0.4090 -0.4469  0.2228
  119OSM   H16S12485   2.749   0.825   4.485 -0.5693 -0.7724  2.3178
  119OSM   H16T12486   2.666   0.661   4.461  0.6325 -2.2028 -2.7245
  119OSM   C17S12487   2.838   0.687   4.333 -0.0820  0.2525  0.7081
  119OSM   H17S12488   2.855   0.578   4.317  4.3674  0.8699 -0.1998
  119OSM   H17T12489   2.945   0.718   4.338 -0.1566  0.9238 -0.9263
  119OSM   C18S12490   2.781   0.761   4.213 -0.5958  0.0297 -0.6344
  119OSM   H18S12491   2.766   0.868   4.239  1.9215  0.4104 -0.4880
  119OSM   H18T12492   2.682   0.718   4.187 -1.2287 -0.2208  1.9225
  119OSM   H18U12493   2.861   0.749   4.136 -0.3307 -0.6761 -0.2570
  119OSM    C1F12494   3.373   0.345   5.990 -0.1138  0.2508  0.0682
  119OSM     OF12495   3.306   0.285   6.076  0.6395 -0.0410 -0.3684
  119OSM    C2F12496   3.489   0.272   5.917 -0.0906 -0.9568 -0.0102
  119OSM    H2F12497   3.435   0.192   5.864 -0.7742 -0.0960 -0.6340
  119OSM    H2G12498   3.563   0.233   5.991 -1.5927 -1.9863  1.0171
  119OSM    C3F12499   3.567   0.340   5.810 -0.2713  0.4788 -0.6161
  119OSM    H3F12500   3.604   0.439   5.843  0.1880  0.1316 -0.0796
  119OSM    H3G12501   3.498   0.355   5.723  1.3989  2.5308 -1.6682
  119OSM    C4F12502   3.686   0.261   5.770 -0.8575 -0.3771 -0.6364
  119OSM    H4F12503   3.654   0.159   5.741  0.6987 -0.8807 -0.6904
  119OSM    H4G12504   3.752   0.246   5.858 -3.2882 -0.0095  1.3410
  119OSM    C5F12505   3.769   0.335   5.667 -0.3122 -0.4340 -0.4111
  119OSM    H5F12506   3.793   0.437   5.703  3.0043 -0.8419 -1.1663
  119OSM    H5G12507   3.716   0.350   5.570 -0.2613 -1.0803 -0.5402
  119OSM    C6F12508   3.902   0.259   5.624  0.6170 -0.3076 -0.4236
  119OSM    H6F12509   3.980   0.274   5.702  0.9102 -0.1978 -0.7378
  119OSM    H6G12510   3.925   0.291   5.520 -1.3523 -1.2911 -1.2158
  119OSM    C7F12511   3.884   0.105   5.617 -0.0991 -0.0639 -0.6339
  119OSM    H7F12512   3.786   0.088   5.569 -0.3398  1.1940 -0.6215
  119OSM    H7G12513   3.891   0.067   5.721  1.4037 -0.2785 -0.7822
  119OSM    C8F12514   4.002   0.043   5.537  0.2235 -0.1211 -0.4244
  119OSM    H8F12515   4.087   0.071   5.603  1.4263  1.7550 -2.6539
  119OSM    H8G12516   4.010   0.095   5.440  0.5997 -0.6200 -0.6612
  119OSM    C9F12517   3.998  -0.109   5.503 -0.2220 -0.4409  0.2414
  119OSM    H9F12518   4.011  -0.173   5.592  0.6267 -0.2241  0.2781
  119OSM   C10F12519   4.007  -0.154   5.377  0.6441  0.0624  0.0880
  119OSM   H10F12520   3.995  -0.264   5.369 -1.5531  0.3050 -0.4859
  119OSM   C11F12521   4.014  -0.080   5.243  0.1470  0.5046  0.4427
  119OSM   H11F12522   4.118  -0.075   5.205  0.9023 -0.2507  2.3023
  119OSM   H11G12523   3.976   0.024   5.260 -1.5202 -0.1960  1.2782
  119OSM   C12F12524   3.930  -0.161   5.145  0.5736  0.4829  0.7438
  119OSM   H12F12525   3.964  -0.266   5.143 -0.8452 -0.1082 -4.0625
  119OSM   H12G12526   3.950  -0.126   5.042  0.1322  1.4833  0.9764
  119OSM   C13F12527   3.783  -0.135   5.175  0.1576  0.3745 -0.1775
  119OSM   H13F12528   3.765  -0.027   5.191 -0.5858 -0.0396  2.2357
  119OSM   H13G12529   3.765  -0.180   5.275  1.0951 -0.3551 -0.3216
  119OSM   C14F12530   3.684  -0.205   5.080 -0.7502 -0.5405  0.0223
  119OSM   H14F12531   3.710  -0.313   5.075  1.1149 -0.1171 -0.3502
  119OSM   H14G12532   3.707  -0.158   4.981  0.8889 -1.5303 -0.1070
  119OSM   C15F12533   3.542  -0.172   5.126  1.1444  0.8788 -0.2571
  119OSM   H15F12534   3.518  -0.064   5.116  1.9176  1.1358  0.5639
  119OSM   H15G12535   3.515  -0.202   5.229  0.5545 -1.5101 -1.0475
  119OSM   C16F12536   3.438  -0.240   5.035 -0.3978 -0.4004 -0.5294
  119OSM   H16F12537   3.468  -0.345   5.021  2.3800  0.1889  0.4572
  119OSM   H16G12538   3.439  -0.188   4.936 -0.1882 -2.0552 -1.4215
  119OSM   C17F12539   3.293  -0.231   5.087  0.2274 -0.3902  0.2408
  119OSM   H17F12540   3.314  -0.248   5.195  0.0172  1.1230  0.5460
  119OSM   H17G12541   3.233  -0.316   5.047 -0.1914  0.3189 -0.6785
  119OSM   C18F12542   3.228  -0.086   5.079 -0.8239 -0.1097  0.1443
  119OSM   H18F12543   3.132  -0.085   5.136  0.2830  0.6861  2.0801
  119OSM   H18G12544   3.207  -0.065   4.972 -2.5681 -1.7477  0.1185
  119OSM   H18H12545   3.299  -0.018   5.131  0.3416 -0.6358 -0.7367
  120OSM      N12546   6.166   3.492   7.326 -0.1013 -0.4377 -0.1523
  120OSM    C1512547   6.019   3.521   7.332 -0.7986 -0.1971 -1.1105
  120OSM   H15A12548   5.961   3.457   7.268  1.4669 -0.5776 -2.9235
  120OSM   H15B12549   5.996   3.625   7.319 -0.6952  0.1261  0.9342
  120OSM   H15C12550   5.985   3.494   7.431  0.1292  0.1023 -0.7015
  120OSM    C1412551   6.247   3.581   7.421  0.3989  0.1675 -0.8215
  120OSM   H14A12552   6.214   3.584   7.524 -0.4595  1.5421 -1.1148
  120OSM   H14B12553   6.236   3.685   7.397  0.7625  1.0087  2.2240
  120OSM   H14C12554   6.354   3.567   7.415  0.3060 -0.4097 -1.2435
  120OSM    C1312555   6.177   3.344   7.353 -0.3807 -0.3901 -0.0850
  120OSM   H13A12556   6.172   3.319   7.458 -2.3079  1.8141  0.4400
  120OSM   H13B12557   6.274   3.308   7.323 -0.7939 -0.7667 -0.9967
  120OSM   H13C12558   6.118   3.274   7.295  1.1431  0.1827 -2.4611
  120OSM    C1212559   6.211   3.519   7.183 -0.6916 -0.6096 -0.4646
  120OSM   H12A12560   6.176   3.621   7.176  0.9209  0.2191  2.0357
  120OSM   H12B12561   6.157   3.449   7.121 -0.5622 -0.6116 -0.5742
  120OSM    C1112562   6.359   3.503   7.153 -0.2438  0.1498 -1.0411
  120OSM   H11A12563   6.405   3.570   7.228  1.5787 -1.5772 -0.5079
  120OSM   H11B12564   6.382   3.535   7.049  1.7781 -0.0266 -0.6888
  120OSM      P12565   6.452   3.278   7.043 -0.4632 -0.0014  0.1196
  120OSM    O1312566   6.491   3.148   7.104  0.1361  0.1743  0.2831
  120OSM    O1412567   6.349   3.283   6.940  0.0530  0.4577 -0.1833
  120OSM    O1112568   6.580   3.357   6.990 -0.1019  0.0950  0.1780
  120OSM    O1212569   6.409   3.366   7.171  0.0429  0.2172  0.8515
  120OSM    C1S12570   6.666   3.306   6.885  0.0259 -0.1708 -0.2874
  120OSM    H1S12571   6.692   3.199   6.904  1.7210 -0.2659 -2.7523
  120OSM    H1T12572   6.758   3.368   6.889 -0.9385  1.3087  2.9541
  120OSM     NF12573   6.697   3.253   6.656 -0.0255 -0.4834  0.4603
  120OSM    HNF12574   6.774   3.308   6.623 -1.9139  1.5976 -0.8015
  120OSM    C2S12575   6.604   3.324   6.746  0.1171 -0.5487  0.0115
  120OSM    H2S12576   6.510   3.266   6.746 -0.1182 -0.1693 -0.3795
  120OSM    C3S12577   6.579   3.469   6.710 -0.3935 -0.3861  0.1572
  120OSM    H3S12578   6.673   3.525   6.730  0.0655 -1.0327 -0.1299
  120OSM     O312579   6.478   3.534   6.788  0.2695 -0.2143 -0.5493
  120OSM    HO312580   6.449   3.471   6.854  1.9426  0.0869  0.5562
  120OSM    C4S12581   6.537   3.468   6.559 -0.7840 -0.5589 -0.1967
  120OSM    H4S12582   6.452   3.405   6.530 -2.6955  2.0741 -0.6769
  120OSM    C5S12583   6.582   3.561   6.465 -0.1140  0.1951  0.9094
  120OSM    H5S12584   6.659   3.634   6.494  0.3015 -0.3673  1.2552
  120OSM    C6S12585   6.538   3.565   6.317 -0.0038 -0.5271  0.2257
  120OSM    H6S12586   6.585   3.484   6.257 -0.5902 -1.1135  0.5554
  120OSM    H6T12587   6.555   3.663   6.266 -3.7719 -0.3073 -0.8702
  120OSM    C7S12588   6.385   3.544   6.296 -0.1356 -0.5880  0.5416
  120OSM    H7S12589   6.332   3.619   6.360  0.6849 -0.1228  0.6994
  120OSM    H7T12590   6.347   3.443   6.322  0.5655 -1.3947 -1.3987
  120OSM    C8S12591   6.341   3.564   6.146 -0.2512  0.4872  0.0433
  120OSM    H8S12592   6.406   3.505   6.079  0.7031  0.6703  0.7832
  120OSM    H8T12593   6.352   3.671   6.120 -0.1489  0.4136 -0.2113
  120OSM    C9S12594   6.193   3.533   6.124 -0.5629 -0.2936 -0.9239
  120OSM    H9S12595   6.148   3.519   6.224  0.8477  0.3493 -0.1614
  120OSM    H9T12596   6.188   3.435   6.072 -0.3177 -0.2184 -1.0944
  120OSM   C10S12597   6.115   3.638   6.045 -0.2999 -0.3927 -0.0770
  120OSM   H10S12598   6.136   3.740   6.083 -0.6130  0.4899 -2.1411
  120OSM   H10T12599   6.008   3.611   6.061 -0.1554 -0.7552  0.3167
  120OSM   C11S12600   6.154   3.629   5.898 -0.5356 -0.0807 -0.9235
  120OSM   H11S12601   6.147   3.524   5.864 -0.3321 -0.8249  1.2105
  120OSM   H11T12602   6.260   3.664   5.892 -0.0874 -1.3105 -0.4814
  120OSM   C12S12603   6.080   3.716   5.803 -0.2385 -0.8659  0.0926
  120OSM   H12S12604   6.084   3.821   5.840  1.5164 -0.3801 -1.3236
  120OSM   H12T12605   5.970   3.702   5.789 -0.8065  2.8601 -0.1424
  120OSM   C13S12606   6.125   3.702   5.655  0.5255  0.5180 -1.0464
  120OSM   H13S12607   6.236   3.708   5.651  0.5072  1.9722 -0.0748
  120OSM   H13T12608   6.080   3.777   5.587 -0.2739  1.1242  0.1095
  120OSM   C14S12609   6.076   3.561   5.610 -0.2648  0.1219 -0.3201
  120OSM   H14S12610   5.966   3.550   5.624 -0.2145  0.2943  0.2303
  120OSM   H14T12611   6.124   3.478   5.666 -0.4836  0.4969  0.4466
  120OSM   C15S12612   6.109   3.534   5.466 -1.9688 -0.0646  0.0947
  120OSM   H15S12613   6.077   3.612   5.394  1.5606  0.7159 -0.8336
  120OSM   H15T12614   6.057   3.443   5.430 -1.3747  0.1339 -1.3250
  120OSM   C16S12615   6.260   3.512   5.445 -0.2643  0.4237  0.3306
  120OSM   H16S12616   6.279   3.423   5.508 -1.8127 -1.5024 -1.7706
  120OSM   H16T12617   6.324   3.591   5.491 -0.0404  0.5669 -0.2182
  120OSM   C17S12618   6.293   3.474   5.296  0.0564  0.2455 -0.0155
  120OSM   H17S12619   6.213   3.402   5.268  0.8368 -0.8652  0.5404
  120OSM   H17T12620   6.384   3.412   5.286 -1.2361 -1.5748 -0.9944
  120OSM   C18S12621   6.286   3.594   5.207 -0.7229  0.0823 -0.5791
  120OSM   H18S12622   6.188   3.644   5.216 -1.0887 -0.6368 -0.4654
  120OSM   H18T12623   6.300   3.564   5.100 -1.3789 -1.0680 -0.3541
  120OSM   H18U12624   6.365   3.670   5.225  0.9611 -1.7466  0.1506
  120OSM    C1F12625   6.692   3.120   6.626 -0.4703 -0.8370 -0.1799
  120OSM     OF12626   6.624   3.050   6.694  0.2115  0.3055  0.8006
  120OSM    C2F12627   6.778   3.063   6.514  0.4243  0.1334 -0.3795
  120OSM    H2F12628   6.805   2.961   6.548 -0.2670 -0.3708 -1.2853
  120OSM    H2G12629   6.875   3.110   6.492  1.0692 -0.6515  0.6735
  120OSM    C3F12630   6.706   3.050   6.379 -0.3079 -0.3561 -1.1042
  120OSM    H3F12631   6.599   3.020   6.389 -0.8142  1.6828  0.2693
  120OSM    H3G12632   6.761   2.974   6.319  0.5778 -0.8306  0.2636
  120OSM    C4F12633   6.706   3.180   6.294  0.1688  0.1825 -0.4231
  120OSM    H4F12634   6.805   3.203   6.249  0.6181 -3.2040 -1.4793
  120OSM    H4G12635   6.672   3.271   6.347 -2.9141 -1.1916  0.1874
  120OSM    C5F12636   6.610   3.164   6.179 -0.2169  0.2352  0.6139
  120OSM    H5F12637   6.506   3.176   6.216 -0.9632 -2.1824 -0.5037
  120OSM    H5G12638   6.609   3.057   6.149  1.4289  0.1813  0.6607
  120OSM    C6F12639   6.636   3.259   6.061  0.5161  0.3134 -1.0597
  120OSM    H6F12640   6.733   3.225   6.020  1.1446 -0.2693  0.8082
  120OSM    H6G12641   6.644   3.366   6.090 -1.6010  0.1417  0.3909
  120OSM    C7F12642   6.525   3.236   5.959 -0.0306  1.1523 -0.6178
  120OSM    H7F12643   6.429   3.253   6.013 -0.2266 -3.4642  0.9293
  120OSM    H7G12644   6.536   3.129   5.933  1.9955  0.7218  1.7635
  120OSM    C8F12645   6.539   3.327   5.836  0.8153 -0.0665 -0.6542
  120OSM    H8F12646   6.635   3.307   5.785  0.2389  2.4254 -2.9458
  120OSM    H8G12647   6.541   3.431   5.877 -1.6476 -0.1700 -0.1209
  120OSM    C9F12648   6.423   3.311   5.747  0.2326 -0.1054 -0.1215
  120OSM    H9F12649   6.329   3.355   5.785 -0.0187 -0.6638 -0.0910
  120OSM   C10F12650   6.413   3.215   5.653 -0.0201  0.4035  0.7174
  120OSM   H10F12651   6.328   3.233   5.586 -0.7971  3.9087  2.4285
  120OSM   C11F12652   6.534   3.133   5.605 -0.3876  0.5948  0.1173
  120OSM   H11F12653   6.597   3.108   5.693  0.6317 -1.3768 -1.0978
  120OSM   H11G12654   6.595   3.197   5.538  0.0756  1.1068  0.9966
  120OSM   C12F12655   6.489   3.007   5.543 -0.4841 -0.1573 -0.7421
  120OSM   H12F12656   6.420   2.955   5.613 -0.5989 -0.8196 -1.3312
  120OSM   H12G12657   6.579   2.943   5.536 -0.3167 -0.2351  1.5340
  120OSM   C13F12658   6.422   3.028   5.407 -0.5286  0.0092 -0.1789
  120OSM   H13F12659   6.490   3.094   5.348 -1.0983  0.4771 -0.3192
  120OSM   H13G12660   6.323   3.073   5.431  0.6403  1.8134  1.5841
  120OSM   C14F12661   6.402   2.898   5.331  0.3106 -0.2321 -0.0980
  120OSM   H14F12662   6.329   2.840   5.392 -0.3414 -1.2339 -1.7784
  120OSM   H14G12663   6.488   2.827   5.326 -0.0788 -0.6779 -0.5941
  120OSM   C15F12664   6.350   2.925   5.193  0.6484 -0.4061  0.6614
  120OSM   H15F12665   6.333   3.035   5.193 -0.4769 -0.5717  0.3189
  120OSM   H15G12666   6.252   2.874   5.183 -0.4085  1.7792 -1.1652
  120OSM   C16F12667   6.459   2.895   5.090  0.4603 -0.0731 -1.1675
  120OSM   H16F12668   6.478   2.787   5.074  0.1370 -0.0168 -2.0144
  120OSM   H16G12669   6.548   2.952   5.125  2.6010 -2.2913 -2.6921
  120OSM   C17F12670   6.439   2.967   4.957  0.4523 -0.0721 -0.0510
  120OSM   H17F12671   6.533   2.982   4.898 -1.6635  3.0233 -3.0276
  120OSM   H17G12672   6.403   3.072   4.970 -1.5712 -0.4795 -1.9130
  120OSM   C18F12673   6.334   2.904   4.865  0.2667  0.4863  0.5964
  120OSM   H18F12674   6.300   2.983   4.794 -1.8180 -0.8573  0.0211
  120OSM   H18G12675   6.247   2.879   4.929  1.4705  0.0477  2.1158
  120OSM   H18H12676   6.379   2.818   4.810  0.2703  1.1917 -0.5495
  121OSM      N12677   0.730   0.054   7.212 -0.6613 -0.3127  0.1103
  121OSM    C1512678   0.761  -0.068   7.299  0.1949  0.0048  0.3882
  121OSM   H15A12679   0.672  -0.128   7.310  1.2665 -1.1539  4.2160
  121OSM   H15B12680   0.806  -0.064   7.397  2.2355 -0.4465 -0.4574
  121OSM   H15C12681   0.833  -0.132   7.249  0.1402 -1.7614  2.4288
  121OSM    C1412682   0.630   0.135   7.292 -0.0301  0.1041  0.2403
  121OSM   H14A12683   0.676   0.152   7.388  0.1591  1.4026 -0.0692
  121OSM   H14B12684   0.546   0.070   7.313 -0.5751  0.1190 -1.6830
  121OSM   H14C12685   0.596   0.228   7.249  1.4352 -1.5500 -5.2857
  121OSM    C1312686   0.857   0.135   7.205  0.0146  0.0016 -0.0679
  121OSM   H13A12687   0.934   0.074   7.160 -0.8449 -0.3430 -1.1408
  121OSM   H13B12688   0.897   0.161   7.302  2.4203 -0.0340 -1.0036
  121OSM   H13C12689   0.847   0.227   7.150 -1.9673 -0.5846 -0.8011
  121OSM    C1212690   0.678   0.009   7.077 -0.9510 -0.2047  0.3915
  121OSM   H12A12691   0.759  -0.035   7.021 -1.0231  1.8050 -1.4414
  121OSM   H12B12692   0.666   0.099   7.019 -1.1849  0.2128  1.0731
  121OSM    C1112693   0.560  -0.087   7.068  0.3477  0.6603  0.0843
  121OSM   H11A12694   0.471  -0.029   7.100  0.0311 -0.6042  1.6532
  121OSM   H11B12695   0.572  -0.177   7.133 -1.2647 -0.8819 -1.6214
  121OSM      P12696   0.486  -0.263   6.896 -0.4227  0.1939 -0.0528
  121OSM    O1312697   0.577  -0.372   6.942 -0.5551 -0.0658  0.1486
  121OSM    O1412698   0.345  -0.279   6.932  0.0121  0.7860 -0.1169
  121OSM    O1112699   0.492  -0.265   6.739 -0.3856 -0.3596  0.0184
  121OSM    O1212700   0.539  -0.127   6.934 -0.4717 -0.2518 -0.0936
  121OSM    C1S12701   0.579  -0.167   6.671  0.0384  0.2672 -0.9719
  121OSM    H1S12702   0.677  -0.162   6.723  0.4431  0.2601 -1.7196
  121OSM    H1T12703   0.523  -0.071   6.675  1.3055  1.0014 -0.2023
  121OSM     NF12704   0.711  -0.131   6.466  0.4029 -0.1407  0.4500
  121OSM    HNF12705   0.670  -0.067   6.402 -1.7036  0.3808  2.2308
  121OSM    C2S12706   0.600  -0.204   6.521 -0.1640  0.2651  0.0173
  121OSM    H2S12707   0.633  -0.310   6.517 -0.2865  0.2445 -0.5611
  121OSM    C3S12708   0.474  -0.202   6.431 -0.3068 -0.2394  0.2469
  121OSM    H3S12709   0.444  -0.096   6.413  0.1810 -0.4097 -1.8236
  121OSM     O312710   0.361  -0.259   6.491  0.4665 -0.4107 -0.3157
  121OSM    HO312711   0.376  -0.261   6.586 -1.5929 -0.5966  0.0502
  121OSM    C4S12712   0.501  -0.273   6.298 -0.1349  0.1348 -0.5010
  121OSM    H4S12713   0.514  -0.382   6.308  2.7042  0.2348 -2.0431
  121OSM    C5S12714   0.506  -0.220   6.173 -0.2692  0.6827 -0.2217
  121OSM    H5S12715   0.482  -0.113   6.169 -0.5254  0.6613  0.5782
  121OSM    C6S12716   0.509  -0.298   6.051 -0.2205 -0.0710 -0.0045
  121OSM    H6S12717   0.435  -0.379   6.066  0.1141 -0.5139 -0.7050
  121OSM    H6T12718   0.606  -0.338   6.015 -0.9039  0.1540 -2.2500
  121OSM    C7S12719   0.454  -0.214   5.930 -0.0817  0.4985  0.8137
  121OSM    H7S12720   0.526  -0.132   5.910 -2.4765  2.6211  0.3710
  121OSM    H7T12721   0.356  -0.165   5.951 -0.7929 -1.1075  1.3997
  121OSM    C8S12722   0.423  -0.293   5.799 -0.7130 -0.0077 -0.9326
  121OSM    H8S12723   0.513  -0.350   5.766 -1.3718 -1.5368 -0.1570
  121OSM    H8T12724   0.403  -0.204   5.736 -1.1134  0.7328  0.2058
  121OSM    C9S12725   0.290  -0.375   5.787 -0.5023 -0.4038  0.9027
  121OSM    H9S12726   0.254  -0.355   5.683  3.7434  0.3604 -0.6396
  121OSM    H9T12727   0.212  -0.340   5.857 -1.9883 -0.9634 -0.4046
  121OSM   C10S12728   0.306  -0.519   5.832  0.1439 -1.0136 -0.0386
  121OSM   H10S12729   0.335  -0.522   5.939  2.6169  1.3125 -0.5371
  121OSM   H10T12730   0.384  -0.567   5.769  0.9144  0.2422 -0.0709
  121OSM   C11S12731   0.177  -0.611   5.810  0.8031  0.0781 -0.0840
  121OSM   H11S12732   0.105  -0.562   5.880  1.4056  1.2287 -0.2457
  121OSM   H11T12733   0.180  -0.718   5.839  2.2789 -0.3510 -1.6742
  121OSM   C12S12734   0.105  -0.610   5.671 -0.3183  0.0814 -0.1091
  121OSM   H12S12735   0.102  -0.501   5.647 -1.5860  0.0488 -0.1544
  121OSM   H12T12736   0.001  -0.648   5.669 -0.2117 -0.2290 -2.0800
  121OSM   C13S12737   0.184  -0.680   5.560  0.3651  0.1074 -0.2492
  121OSM   H13S12738   0.207  -0.787   5.578  0.1281  0.1280  0.1917
  121OSM   H13T12739   0.286  -0.636   5.561  0.7714 -0.7851 -0.7934
  121OSM   C14S12740   0.132  -0.659   5.422  0.9910 -0.1713  0.0803
  121OSM   H14S12741   0.128  -0.550   5.405  1.6670 -0.0673  0.5652
  121OSM   H14T12742   0.025  -0.686   5.411  0.7365  0.4191  1.0334
  121OSM   C15S12743   0.212  -0.718   5.307  0.7881 -0.0262 -0.0885
  121OSM   H15S12744   0.317  -0.700   5.336  0.7666 -1.1635  0.7650
  121OSM   H15T12745   0.183  -0.654   5.221  1.7250  0.3598 -0.1286
  121OSM   C16S12746   0.178  -0.867   5.275 -0.3329 -0.2143 -0.5525
  121OSM   H16S12747   0.150  -0.925   5.366  1.6166 -0.4285 -0.0463
  121OSM   H16T12748   0.278  -0.912   5.256  0.5455  0.8499  1.2195
  121OSM   C17S12749   0.075  -0.877   5.166  0.9812 -0.4203  0.8605
  121OSM   H17S12750   0.116  -0.839   5.070 -1.8387 -2.5590 -1.4007
  121OSM   H17T12751  -0.018  -0.822   5.193  1.2318  1.5604 -1.8069
  121OSM   C18S12752   0.028  -1.025   5.138 -0.4742 -0.5697 -0.5053
  121OSM   H18S12753   0.116  -1.082   5.101  1.4413  0.5905  1.9675
  121OSM   H18T12754  -0.049  -1.027   5.058  0.2928 -0.4260 -1.2710
  121OSM   H18U12755  -0.014  -1.066   5.232  2.3714 -1.2836  0.5429
  121OSM    C1F12756   0.843  -0.134   6.505  0.0118  0.2420 -0.1657
  121OSM     OF12757   0.877  -0.194   6.606  0.5167 -0.2838  0.0782
  121OSM    C2F12758   0.934  -0.054   6.422 -0.1686  0.0070  0.4740
  121OSM    H2F12759   0.984   0.027   6.481  0.1195 -0.3504  0.7260
  121OSM    H2G12760   0.872  -0.012   6.340 -1.4913 -3.5526 -0.4922
  121OSM    C3F12761   1.039  -0.146   6.353 -0.1484 -0.0186 -0.7301
  121OSM    H3F12762   1.105  -0.201   6.424 -1.0959 -0.7034 -0.3551
  121OSM    H3G12763   1.110  -0.078   6.302 -2.0138  0.3795 -2.9672
  121OSM    C4F12764   0.991  -0.245   6.251  0.2525 -0.1379  0.0725
  121OSM    H4F12765   0.907  -0.308   6.285 -1.1425  0.5225 -1.9441
  121OSM    H4G12766   1.085  -0.298   6.223  0.2532 -0.2547  0.2935
  121OSM    C5F12767   0.913  -0.178   6.138 -0.0655 -0.4737 -0.3790
  121OSM    H5F12768   0.966  -0.084   6.112  2.1282 -1.7061 -0.5625
  121OSM    H5G12769   0.817  -0.138   6.178  0.8517  0.7062  0.7115
  121OSM    C6F12770   0.902  -0.268   6.013  0.0092 -0.8485  0.0942
  121OSM    H6F12771   0.840  -0.351   6.055  1.8327 -1.0262  2.6711
  121OSM    H6G12772   1.000  -0.315   5.989  0.6149  0.1985  0.4526
  121OSM    C7F12773   0.872  -0.181   5.891 -1.0188 -0.1975  0.3344
  121OSM    H7F12774   0.968  -0.135   5.857 -1.0152 -0.5926 -0.2113
  121OSM    H7G12775   0.808  -0.096   5.922  1.5518  2.0162 -0.0569
  121OSM    C8F12776   0.809  -0.265   5.782  0.3613  0.3267 -0.1181
  121OSM    H8F12777   0.719  -0.314   5.824 -0.5098  0.1573 -2.0852
  121OSM    H8G12778   0.870  -0.353   5.753 -0.8371 -0.7510  0.5487
  121OSM    C9F12779   0.759  -0.183   5.663  0.1985 -0.6326  0.1218
  121OSM    H9F12780   0.651  -0.166   5.672  0.2145 -0.9239  0.9425
  121OSM   C10F12781   0.803  -0.178   5.534  0.1478 -0.5900  0.5826
  121OSM   H10F12782   0.744  -0.121   5.461 -0.7663  1.1831  2.5922
  121OSM   C11F12783   0.940  -0.217   5.485 -0.5608 -0.1627  0.5674
  121OSM   H11F12784   1.010  -0.239   5.569 -1.3972  1.3297  1.7031
  121OSM   H11G12785   0.992  -0.133   5.435  0.5329 -0.5375  1.0377
  121OSM   C12F12786   0.930  -0.338   5.387 -0.0023 -0.0634 -0.0764
  121OSM   H12F12787   0.864  -0.305   5.304 -0.2094 -0.6472 -0.1494
  121OSM   H12G12788   0.883  -0.424   5.438 -0.3543  0.6011  0.7463
  121OSM   C13F12789   1.069  -0.378   5.327 -1.1645 -0.4969 -0.6142
  121OSM   H13F12790   1.125  -0.443   5.398 -0.3690 -1.2619 -1.9070
  121OSM   H13G12791   1.128  -0.290   5.295 -2.8084  0.2243 -1.8045
  121OSM   C14F12792   1.035  -0.465   5.204  0.8573  0.4877 -0.2664
  121OSM   H14F12793   0.954  -0.417   5.146  0.3163 -0.3393 -0.2158
  121OSM   H14G12794   1.000  -0.565   5.240  1.5684 -0.7590 -2.7905
  121OSM   C15F12795   1.159  -0.481   5.118  0.3269  0.0070 -0.0855
  121OSM   H15F12796   1.231  -0.542   5.177 -0.9048 -0.0187  1.4876
  121OSM   H15G12797   1.205  -0.384   5.091 -1.8891  1.6129  1.5196
  121OSM   C16F12798   1.127  -0.570   4.989 -0.1428 -0.0242 -0.3057
  121OSM   H16F12799   1.040  -0.528   4.934 -0.1175 -0.5636 -0.7603
  121OSM   H16G12800   1.106  -0.675   5.018  1.4857 -0.5076 -0.7781
  121OSM   C17F12801   1.243  -0.586   4.891  0.0800 -0.4205  0.3615
  121OSM   H17F12802   1.327  -0.650   4.925 -0.5657 -1.3719  0.1977
  121OSM   H17G12803   1.278  -0.490   4.846 -0.0480 -0.2399  0.6424
  121OSM   C18F12804   1.187  -0.653   4.769  0.0290 -0.1424  0.3464
  121OSM   H18F12805   1.148  -0.755   4.787  1.0889 -0.5282  0.5139
  121OSM   H18G12806   1.264  -0.658   4.688 -0.1662  2.4515 -0.0759
  121OSM   H18H12807   1.106  -0.587   4.733  1.7143  1.0856 -1.3730
  122OSM      N12808   0.565   2.240   6.985  0.1087  0.0153 -0.1160
  122OSM    C1512809   0.713   2.250   6.977  0.0675 -0.3639 -0.2376
  122OSM   H15A12810   0.766   2.304   7.055  1.5589 -1.9483 -0.0645
  122OSM   H15B12811   0.753   2.290   6.886  0.1594 -0.8431 -0.4123
  122OSM   H15C12812   0.753   2.151   6.995 -0.4978 -0.9409 -2.0066
  122OSM    C1412813   0.521   2.142   6.884  0.0524  0.5271  0.0739
  122OSM   H14A12814   0.548   2.163   6.782 -2.5459  0.7765 -0.6431
  122OSM   H14B12815   0.413   2.145   6.875 -0.0670 -0.8630  0.7266
  122OSM   H14C12816   0.549   2.038   6.898 -1.3461  0.0275 -0.6583
  122OSM    C1312817   0.522   2.194   7.118  0.7271 -0.4222  0.4735
  122OSM   H13A12818   0.518   2.275   7.190 -1.0855 -0.3905  0.3893
  122OSM   H13B12819   0.586   2.113   7.151 -0.5219 -0.6868  2.3709
  122OSM   H13C12820   0.423   2.153   7.123 -0.1927  1.7143  1.1175
  122OSM    C1212821   0.500   2.374   6.951  0.6388 -0.5554 -0.4084
  122OSM   H12A12822   0.524   2.444   7.029  1.0850 -0.2206 -0.8440
  122OSM   H12B12823   0.395   2.358   6.972  1.1633 -1.2517  2.0430
  122OSM    C1112824   0.512   2.438   6.815  0.5197  0.6809  0.0327
  122OSM   H11A12825   0.451   2.531   6.821 -0.7827 -0.0536 -1.2161
  122OSM   H11B12826   0.457   2.385   6.735 -0.2020 -0.2080  1.0806
  122OSM      P12827   0.706   2.596   6.794 -0.6652 -0.2122  0.0588
  122OSM    O1312828   0.617   2.668   6.885  0.0570 -0.2171 -0.0662
  122OSM    O1412829   0.847   2.593   6.831 -0.2692  0.1301  0.1210
  122OSM    O1112830   0.701   2.674   6.656  0.3196  0.2258  0.0103
  122OSM    O1212831   0.654   2.449   6.783  0.4652  0.0661 -0.1738
  122OSM    C1S12832   0.696   2.586   6.543 -0.1957  0.9735 -0.1509
  122OSM    H1S12833   0.621   2.504   6.545  1.1388 -0.4539 -2.9584
  122OSM    H1T12834   0.797   2.540   6.535 -0.5951  0.3265 -1.8701
  122OSM     NF12835   0.654   2.560   6.299 -0.1777 -0.2348 -0.3512
  122OSM    HNF12836   0.720   2.572   6.226 -0.7256 -0.5325 -0.9002
  122OSM    C2S12837   0.670   2.654   6.404  0.3091 -0.2569 -0.1045
  122OSM    H2S12838   0.573   2.707   6.407  0.3899 -0.0729 -0.5583
  122OSM    C3S12839   0.768   2.773   6.372 -0.1101 -0.4138 -0.9349
  122OSM    H3S12840   0.869   2.731   6.351  0.0165  0.2927 -1.7898
  122OSM     O312841   0.789   2.865   6.481 -0.0929  0.1317  0.2466
  122OSM    HO312842   0.751   2.811   6.551 -1.5151 -2.4904 -2.3325
  122OSM    C4S12843   0.727   2.844   6.242 -0.4993 -0.4640 -0.1008
  122OSM    H4S12844   0.770   2.801   6.150 -0.7301 -0.3121 -0.2818
  122OSM    C5S12845   0.672   2.967   6.224  0.2984 -0.1602  0.1056
  122OSM    H5S12846   0.661   3.025   6.316 -0.3430  0.3780 -0.2998
  122OSM    C6S12847   0.640   3.031   6.088 -0.0996 -0.5612 -0.6760
  122OSM    H6S12848   0.666   3.139   6.094 -1.5626 -0.2447  0.4629
  122OSM    H6T12849   0.531   3.031   6.069 -0.2167  0.1850 -0.0778
  122OSM    C7S12850   0.701   2.966   5.962  0.5025 -0.5093  0.2351
  122OSM    H7S12851   0.654   2.866   5.955 -0.8000  0.1362 -0.6947
  122OSM    H7T12852   0.812   2.961   5.966  0.9331  4.0167 -0.3343
  122OSM    C8S12853   0.660   3.049   5.838  0.0772 -0.2222  0.0176
  122OSM    H8S12854   0.714   3.146   5.846 -0.3994 -0.0672  1.8326
  122OSM    H8T12855   0.550   3.063   5.842 -0.0702 -1.5131  1.7789
  122OSM    C9S12856   0.709   2.997   5.701 -0.2009  0.0691 -0.5375
  122OSM    H9S12857   0.706   2.886   5.711  2.0189  0.1176  1.4664
  122OSM    H9T12858   0.816   3.021   5.685 -0.0290 -0.1951  0.1780
  122OSM   C10S12859   0.642   3.056   5.580  0.5177  0.1864  0.1285
  122OSM   H10S12860   0.667   3.164   5.572  1.2123 -0.0589 -1.2499
  122OSM   H10T12861   0.532   3.047   5.598  0.5197  0.9959  0.6391
  122OSM   C11S12862   0.687   2.989   5.443  0.5665 -0.0965 -0.2816
  122OSM   H11S12863   0.618   2.903   5.428 -0.1599  0.4148  0.0664
  122OSM   H11T12864   0.787   2.942   5.455  0.0313 -1.1906 -0.0260
  122OSM   C12S12865   0.665   3.071   5.314  0.9190 -0.3589  0.1742
  122OSM   H12S12866   0.738   3.152   5.289 -0.5780  0.7645 -0.6815
  122OSM   H12T12867   0.567   3.124   5.316  0.1880 -1.6999  1.0428
  122OSM   C13S12868   0.655   2.968   5.198 -0.3694  0.8706 -0.4516
  122OSM   H13S12869   0.570   2.898   5.215  0.9434 -0.9276 -0.9926
  122OSM   H13T12870   0.745   2.904   5.211 -1.8324 -0.7046  3.5546
  122OSM   C14S12871   0.657   3.019   5.058  0.2683 -0.2922 -0.5534
  122OSM   H14S12872   0.646   2.928   4.995  0.9695  0.2879 -1.5361
  122OSM   H14T12873   0.756   3.067   5.045  0.0455  0.3895  0.1934
  122OSM   C15S12874   0.557   3.122   5.018  0.6331  0.3799  0.1597
  122OSM   H15S12875   0.574   3.147   4.911 -1.7163  0.2224 -0.3150
  122OSM   H15T12876   0.555   3.217   5.075 -1.4079 -0.1142  1.0166
  122OSM   C16S12877   0.404   3.086   5.020  0.4758 -0.2374 -0.1143
  122OSM   H16S12878   0.331   3.163   4.988 -1.9682 -1.9815  0.9301
  122OSM   H16T12879   0.384   3.076   5.129  0.0342  0.0189 -0.1678
  122OSM   C17S12880   0.368   2.962   4.941 -0.0235 -0.9947  0.5003
  122OSM   H17S12881   0.277   2.918   4.987  0.1341 -0.9311  0.8847
  122OSM   H17T12882   0.454   2.891   4.946  0.4738 -0.4157  0.3266
  122OSM   C18S12883   0.346   2.989   4.795  0.4244 -0.4210  0.5110
  122OSM   H18S12884   0.326   2.897   4.736  0.2656 -0.2352  0.2701
  122OSM   H18T12885   0.437   3.039   4.756 -0.2885  0.3343 -0.2514
  122OSM   H18U12886   0.267   3.066   4.778  0.8749  0.5397  2.4483
  122OSM    C1F12887   0.554   2.480   6.290  0.3356  0.5697  0.1535
  122OSM     OF12888   0.465   2.477   6.372 -0.9299  0.4527 -0.4696
  122OSM    C2F12889   0.557   2.386   6.164 -0.3334  0.1223 -1.0953
  122OSM    H2F12890   0.658   2.374   6.121 -0.6206  2.0049 -2.4422
  122OSM    H2G12891   0.505   2.443   6.084  0.2910  1.9338 -0.2814
  122OSM    C3F12892   0.494   2.250   6.196 -0.3805  1.4175 -0.2991
  122OSM    H3F12893   0.394   2.268   6.242 -0.7123  1.3081 -0.9722
  122OSM    H3G12894   0.566   2.194   6.259 -0.6582 -1.2436 -2.1731
  122OSM    C4F12895   0.472   2.167   6.065 -0.3027  0.3581  0.6496
  122OSM    H4F12896   0.402   2.084   6.089  1.5044 -1.3789  0.1906
  122OSM    H4G12897   0.571   2.129   6.034  0.8057  1.1588  2.9518
  122OSM    C5F12898   0.397   2.245   5.952 -0.5944  0.2250 -0.3345
  122OSM    H5F12899   0.468   2.323   5.917  0.8218 -0.7708  0.2373
  122OSM    H5G12900   0.308   2.294   5.997  0.1595  0.2783  1.1496
  122OSM    C6F12901   0.354   2.157   5.836  0.5775 -0.1751  1.0065
  122OSM    H6F12902   0.259   2.105   5.861  0.7660  0.4544  3.2280
  122OSM    H6G12903   0.418   2.066   5.844 -2.0969 -2.0109  4.3161
  122OSM    C7F12904   0.350   2.232   5.705  0.3303 -0.0547 -0.7680
  122OSM    H7F12905   0.442   2.287   5.676  1.4138 -0.7140  1.2047
  122OSM    H7G12906   0.271   2.308   5.725  0.1165 -0.8404  1.6627
  122OSM    C8F12907   0.311   2.150   5.578 -0.7052 -0.0565  0.4981
  122OSM    H8F12908   0.217   2.096   5.603 -0.9798 -1.6897 -3.4667
  122OSM    H8G12909   0.400   2.084   5.567 -0.0513  0.8126  0.4711
  122OSM    C9F12910   0.288   2.223   5.457 -0.2282 -0.0720  0.6200
  122OSM    H9F12911   0.261   2.329   5.466  1.7471  0.7779 -2.1880
  122OSM   C10F12912   0.277   2.176   5.330  0.1545  0.1013  0.4409
  122OSM   H10F12913   0.258   2.247   5.248  0.2146 -0.7321 -0.3115
  122OSM   C11F12914   0.269   2.033   5.277 -0.0728 -0.1394  0.4086
  122OSM   H11F12915   0.309   1.969   5.359  1.8883 -0.4642 -0.7368
  122OSM   H11G12916   0.336   2.045   5.190 -0.6650  1.4680  0.1488
  122OSM   C12F12917   0.131   1.971   5.252  0.2393  0.0937 -0.0497
  122OSM   H12F12918   0.057   2.025   5.315  0.4130  0.8215 -0.4614
  122OSM   H12G12919   0.124   1.865   5.284  1.3874  0.1617  0.4585
  122OSM   C13F12920   0.079   1.971   5.109 -0.0166 -0.5162  0.7800
  122OSM   H13F12921   0.094   1.867   5.075  2.1056 -0.2528  0.7288
  122OSM   H13G12922   0.153   2.022   5.043 -2.1138  1.5591 -0.1163
  122OSM   C14F12923  -0.055   2.033   5.092  0.0798 -0.0089  0.5994
  122OSM   H14F12924  -0.047   2.137   5.131 -2.0782 -0.1384  1.5533
  122OSM   H14G12925  -0.124   1.984   5.165 -1.7263  1.5394  0.0166
  122OSM   C15F12926  -0.113   2.031   4.949 -0.5311  0.5253  0.1214
  122OSM   H15F12927  -0.113   1.926   4.916 -0.9652 -0.0337  1.7964
  122OSM   H15G12928  -0.045   2.091   4.884  0.2318 -1.0569 -0.5891
  122OSM   C16F12929  -0.246   2.099   4.943  0.2150  0.1578 -0.6001
  122OSM   H16F12930  -0.236   2.201   4.986 -0.8309 -0.5519  1.4937
  122OSM   H16G12931  -0.311   2.034   5.006  0.8100  0.2509  0.1216
  122OSM   C17F12932  -0.302   2.103   4.798  0.1487 -0.7390  0.1401
  122OSM   H17F12933  -0.231   2.169   4.744 -0.6665  0.4928  0.5105
  122OSM   H17G12934  -0.398   2.159   4.799  1.0394  0.8519  0.5376
  122OSM   C18F12935  -0.327   1.974   4.723  0.0549  0.4992 -0.0897
  122OSM   H18F12936  -0.227   1.932   4.699  0.0950  1.4459 -1.7120
  122OSM   H18G12937  -0.388   1.984   4.630 -2.5052  0.2042  1.4783
  122OSM   H18H12938  -0.374   1.902   4.793  1.9562  0.4382  1.1897
  123OSM      N12939   3.531   0.975   1.838  0.3815  0.1574 -0.4962
  123OSM    C1512940   3.439   0.893   1.750  0.2800  0.4672 -0.5402
  123OSM   H15A12941   3.459   0.904   1.644 -1.2552 -1.5718 -1.1203
  123OSM   H15B12942   3.337   0.928   1.756 -0.7271 -2.0658 -1.3748
  123OSM   H15C12943   3.446   0.786   1.769  0.6314  0.2700 -1.7090
  123OSM    C1412944   3.674   0.933   1.822 -0.4903 -0.2869  0.1563
  123OSM   H14A12945   3.700   0.974   1.725 -1.4084 -1.6008 -0.6693
  123OSM   H14B12946   3.681   0.826   1.811  0.0046 -0.1573 -1.0230
  123OSM   H14C12947   3.740   0.957   1.904 -0.9618 -1.1477  0.7965
  123OSM    C1312948   3.513   1.118   1.793  0.2922  0.6908 -0.0610
  123OSM   H13A12949   3.416   1.158   1.820 -0.5516 -1.1659 -0.2179
  123OSM   H13B12950   3.518   1.117   1.685 -0.6282 -1.8492 -0.1469
  123OSM   H13C12951   3.594   1.174   1.836  2.4178 -1.1238 -1.5116
  123OSM    C1212952   3.497   0.964   1.991 -0.0632 -0.4640 -0.5898
  123OSM   H12A12953   3.526   0.862   2.013  0.9002 -0.2212 -0.7347
  123OSM   H12B12954   3.389   0.973   1.996  0.1229  1.8070  1.5614
  123OSM    C1112955   3.572   1.062   2.094  0.3079 -0.4396 -0.5768
  123OSM   H11A12956   3.531   1.033   2.193  1.4258  1.5974  0.5381
  123OSM   H11B12957   3.546   1.170   2.081  1.0923 -0.1415  0.2483
  123OSM      P12958   3.813   1.166   2.082 -0.5720  0.0685  0.1329
  123OSM    O1312959   3.955   1.127   2.071 -0.9106 -0.0066 -0.4095
  123OSM    O1412960   3.763   1.264   1.982 -0.1202  0.5301  0.3107
  123OSM    O1112961   3.797   1.226   2.224  0.4827  0.8622 -0.6405
  123OSM    O1212962   3.717   1.042   2.090  0.1780  0.7960  0.3038
  123OSM    C1S12963   3.829   1.163   2.348  0.3272  0.3681  0.0302
  123OSM    H1S12964   3.938   1.146   2.336  0.3489  1.1325 -1.0210
  123OSM    H1T12965   3.772   1.068   2.355  0.4206  0.3680  0.8613
  123OSM     NF12966   3.790   1.152   2.589 -0.9209  0.8220  0.1542
  123OSM    HNF12967   3.701   1.114   2.614 -0.2729  0.7930  2.6818
  123OSM    C2S12968   3.795   1.242   2.472  0.2824  0.1671 -0.1470
  123OSM    H2S12969   3.873   1.322   2.481  1.0046 -0.2958 -1.7897
  123OSM    C3S12970   3.669   1.331   2.456 -0.0162 -0.3301  0.3635
  123OSM    H3S12971   3.581   1.265   2.439  0.4481 -1.2314  1.3451
  123OSM     O312972   3.669   1.416   2.349  0.4414 -0.4655  0.3824
  123OSM    HO312973   3.724   1.375   2.282  1.0249 -1.5077  1.4603
  123OSM    C4S12974   3.652   1.413   2.577 -0.2862  0.1922 -0.4070
  123OSM    H4S12975   3.735   1.480   2.604  1.3336 -1.8714 -0.0170
  123OSM    C5S12976   3.545   1.412   2.655 -0.1026  0.2725 -0.4854
  123OSM    H5S12977   3.456   1.358   2.622 -0.2581  0.1138  0.1797
  123OSM    C6S12978   3.528   1.486   2.788  0.0273  0.7453 -0.4943
  123OSM    H6S12979   3.460   1.570   2.765 -0.3672  0.1338 -1.6053
  123OSM    H6T12980   3.623   1.537   2.818  0.7420 -0.3712 -0.7977
  123OSM    C7S12981   3.471   1.395   2.903 -0.7000 -0.6316 -0.3714
  123OSM    H7S12982   3.556   1.327   2.921  1.3001  2.1899  1.7300
  123OSM    H7T12983   3.379   1.344   2.866  0.2960 -0.1471 -3.8560
  123OSM    C8S12984   3.447   1.476   3.032  0.8616  0.2436  0.6271
  123OSM    H8S12985   3.375   1.559   3.017 -0.0186 -0.1484  2.4004
  123OSM    H8T12986   3.543   1.520   3.068 -0.2685  1.1774  2.6555
  123OSM    C9S12987   3.408   1.388   3.150 -0.3012  1.1293 -0.3064
  123OSM    H9S12988   3.493   1.317   3.165 -0.8615  0.4867 -0.1615
  123OSM    H9T12989   3.321   1.327   3.118 -0.5036  0.3633  1.5879
  123OSM   C10S12990   3.366   1.466   3.276 -0.2732  0.5264 -0.5492
  123OSM   H10S12991   3.336   1.390   3.352  2.2737  0.1576  0.1683
  123OSM   H10T12992   3.282   1.533   3.250  0.5194  2.9917  2.6103
  123OSM   C11S12993   3.473   1.545   3.347  0.2686 -0.7216 -0.1706
  123OSM   H11S12994   3.505   1.625   3.276  0.0739 -0.2265  0.2954
  123OSM   H11T12995   3.552   1.468   3.360 -0.0232 -1.2295 -1.3092
  123OSM   C12S12996   3.443   1.614   3.475  0.5357 -0.0448  0.2525
  123OSM   H12S12997   3.376   1.556   3.541 -0.6195  0.3714 -0.5217
  123OSM   H12T12998   3.377   1.700   3.448  0.8760  0.5065  1.1179
  123OSM   C13S12999   3.575   1.663   3.551 -0.3615 -0.0420 -0.1017
  123OSM   H13S13000   3.544   1.718   3.642  3.2031 -1.3031  2.0577
  123OSM   H13T13001   3.631   1.738   3.492  0.3254 -0.1169  0.4471
  123OSM   C14S13002   3.660   1.549   3.604  0.0174 -0.3146 -0.3730
  123OSM   H14S13003   3.718   1.527   3.512 -0.1791 -1.7376 -0.1750
  123OSM   H14T13004   3.597   1.467   3.644 -0.3772  0.0026 -0.3373
  123OSM   C15S13005   3.770   1.576   3.711  0.6410  0.2268  0.0476
  123OSM   H15S13006   3.721   1.610   3.804 -1.3752  0.6546 -1.1034
  123OSM   H15T13007   3.842   1.647   3.665 -1.4433  1.0311 -2.2218
  123OSM   C16S13008   3.849   1.440   3.730 -0.0316  0.4689 -0.1221
  123OSM   H16S13009   3.777   1.357   3.745 -1.9661  1.8110 -1.5786
  123OSM   H16T13010   3.907   1.449   3.825 -1.4450  0.7163  0.7452
  123OSM   C17S13011   3.945   1.407   3.611  0.4177 -0.8256  0.5159
  123OSM   H17S13012   4.006   1.500   3.607 -0.6658 -0.1138 -2.2489
  123OSM   H17T13013   3.895   1.396   3.512  0.2471  1.4334  0.2836
  123OSM   C18S13014   4.038   1.298   3.657  0.1294  0.6624 -0.0233
  123OSM   H18S13015   4.127   1.283   3.591 -1.1789 -1.6479 -1.3886
  123OSM   H18T13016   3.970   1.211   3.653  0.2242  0.6392 -1.4650
  123OSM   H18U13017   4.075   1.318   3.760  3.4558 -0.6328 -0.8139
  123OSM    C1F13018   3.905   1.104   2.645  0.1784  0.0020 -0.2898
  123OSM     OF13019   4.017   1.124   2.602  0.2704 -0.1769 -0.1785
  123OSM    C2F13020   3.874   1.001   2.747  0.2508 -0.3210  0.0160
  123OSM    H2F13021   3.940   0.913   2.731  0.7941 -0.3734  2.2303
  123OSM    H2G13022   3.773   0.959   2.729 -0.3235  1.3053 -0.6618
  123OSM    C3F13023   3.891   1.049   2.890 -0.4329 -0.2534 -1.2021
  123OSM    H3F13024   3.808   1.121   2.901 -0.9417 -1.0082  0.0747
  123OSM    H3G13025   3.994   1.085   2.913 -1.1815  1.2562 -0.0952
  123OSM    C4F13026   3.857   0.939   2.994 -0.3391 -0.4466 -0.0239
  123OSM    H4F13027   3.942   0.868   2.997  1.4889  1.5431 -1.1676
  123OSM    H4G13028   3.770   0.879   2.963  0.8191 -2.5973  0.6866
  123OSM    C5F13029   3.839   1.002   3.132  0.0006 -0.1404  0.0565
  123OSM    H5F13030   3.804   0.921   3.199 -1.4524  1.2246  1.0327
  123OSM    H5G13031   3.762   1.080   3.151 -2.9201 -3.1944  1.8169
  123OSM    C6F13032   3.981   1.041   3.185  0.6980 -0.0877 -0.1188
  123OSM    H6F13033   4.025   1.129   3.134 -0.4025  1.2678  1.1534
  123OSM    H6G13034   4.048   0.953   3.174 -1.4269 -1.9728  1.0448
  123OSM    C7F13035   3.986   1.084   3.333  0.1476 -0.0547  0.4902
  123OSM    H7F13036   3.916   1.166   3.356 -1.4637 -0.6334 -2.0022
  123OSM    H7G13037   4.085   1.135   3.339 -0.8263  1.7326  2.0445
  123OSM    C8F13038   3.959   0.967   3.433 -0.0315 -0.2514  0.9124
  123OSM    H8F13039   3.860   0.927   3.402 -0.0969  0.2873  0.4140
  123OSM    H8G13040   3.946   1.026   3.526  1.0783 -0.8176  1.4422
  123OSM    C9F13041   4.069   0.863   3.454 -0.4219  0.6880 -0.1117
  123OSM    H9F13042   4.135   0.844   3.368  0.0082  0.8910  0.1675
  123OSM   C10F13043   4.095   0.794   3.568  0.0762  0.4693  0.2402
  123OSM   H10F13044   4.185   0.731   3.574 -0.5232 -0.3122  1.4033
  123OSM   C11F13045   4.015   0.818   3.695  0.7052  0.4980  0.1521
  123OSM   H11F13046   3.965   0.917   3.696 -0.1475  0.2097 -3.0075
  123OSM   H11G13047   4.081   0.807   3.784 -0.7167  0.1184  1.2000
  123OSM   C12F13048   3.904   0.711   3.720 -0.2970 -0.1756  0.5417
  123OSM   H12F13049   3.950   0.616   3.688 -1.6327 -0.5062 -0.4713
  123OSM   H12G13050   3.819   0.735   3.653  1.0585 -0.3052 -1.3099
  123OSM   C13F13051   3.868   0.708   3.873 -0.0967  1.1163  0.0385
  123OSM   H13F13052   3.959   0.686   3.933  2.2137  1.6151 -3.0828
  123OSM   H13G13053   3.801   0.619   3.875  0.6888  0.4926 -0.6047
  123OSM   C14F13054   3.809   0.835   3.926  0.3688 -0.4043 -0.0242
  123OSM   H14F13055   3.716   0.874   3.882 -0.5720  2.8141  4.1327
  123OSM   H14G13056   3.894   0.905   3.912  1.2278 -1.6070 -1.0391
  123OSM   C15F13057   3.775   0.822   4.075 -0.7745  0.0856  0.1029
  123OSM   H15F13058   3.843   0.745   4.117  0.2536  1.6267  1.3968
  123OSM   H15G13059   3.669   0.787   4.075 -0.8313  0.2342 -0.8390
  123OSM   C16F13060   3.798   0.954   4.153  0.1877  0.3714  0.5581
  123OSM   H16F13061   3.722   1.030   4.125 -1.8256 -1.0922  1.7943
  123OSM   H16G13062   3.900   0.998   4.148 -0.1475  1.1949  0.8138
  123OSM   C17F13063   3.768   0.922   4.304  0.1447  0.3471 -0.4125
  123OSM   H17F13064   3.818   0.823   4.307  0.9811  0.7687 -0.3913
  123OSM   H17G13065   3.661   0.914   4.335  1.0640  0.2868  3.1234
  123OSM   C18F13066   3.833   1.016   4.415 -0.1869  0.3081 -0.0119
  123OSM   H18F13067   3.802   1.122   4.406 -0.6335  0.2542  0.8353
  123OSM   H18G13068   3.944   1.007   4.416 -0.2235 -1.2840 -2.2508
  123OSM   H18H13069   3.803   0.987   4.518  1.2908  0.0703  0.3782
  124OSM      N13070   3.042   2.760   1.802 -0.0632 -0.7918  0.1226
  124OSM    C1513071   3.007   2.813   1.938 -0.2320 -0.0417  0.3852
  124OSM   H15A13072   2.914   2.868   1.943 -0.9365 -0.7002 -3.0190
  124OSM   H15B13073   3.082   2.886   1.966  0.2256 -0.1463 -0.5243
  124OSM   H15C13074   2.998   2.735   2.012  0.8485 -1.4787 -0.9403
  124OSM    C1413075   3.048   2.875   1.703  0.8923 -0.2807  0.4546
  124OSM   H14A13076   3.132   2.935   1.734  0.9428  0.8687 -1.7137
  124OSM   H14B13077   2.957   2.933   1.705 -0.4079 -2.2465  1.1916
  124OSM   H14C13078   3.066   2.845   1.601  1.3450 -1.1578  0.7793
  124OSM    C1313079   3.176   2.698   1.810 -0.2337 -0.7608 -0.1897
  124OSM   H13A13080   3.224   2.672   1.717  0.8056  0.4781 -0.0260
  124OSM   H13B13081   3.180   2.612   1.876  2.5889 -0.9719 -0.5039
  124OSM   H13C13082   3.248   2.769   1.847  3.1976 -3.9791 -0.0968
  124OSM    C1213083   2.938   2.651   1.754 -0.2546 -0.7163 -0.2484
  124OSM   H12A13084   2.956   2.631   1.650  0.6004 -3.2739  0.3022
  124OSM   H12B13085   2.838   2.690   1.764 -0.2694 -0.7239 -0.3706
  124OSM    C1113086   2.933   2.512   1.830 -0.5176 -0.1137  0.6234
  124OSM   H11A13087   3.035   2.470   1.817  0.0981  1.6640 -0.6445
  124OSM   H11B13088   2.858   2.454   1.771 -1.0626  1.1709  0.0213
  124OSM      P13089   2.740   2.557   1.996 -0.0395 -0.2416  0.1363
  124OSM    O1313090   2.737   2.674   2.095  0.0864 -0.9301  0.1822
  124OSM    O1413091   2.662   2.578   1.869 -0.1035  0.2052  0.6023
  124OSM    O1113092   2.677   2.435   2.078  0.0123 -0.4169 -0.2537
  124OSM    O1213093   2.891   2.515   1.967  0.3629 -0.1502 -0.1358
  124OSM    C1S13094   2.733   2.365   2.186  0.0400  0.9834 -0.4666
  124OSM    H1S13095   2.843   2.379   2.199  0.6431 -3.1810  0.4507
  124OSM    H1T13096   2.708   2.259   2.161 -0.0429  1.1684 -1.1849
  124OSM     NF13097   2.745   2.353   2.429  0.7074 -0.3254 -0.7989
  124OSM    HNF13098   2.730   2.263   2.468 -0.6492  0.2019 -0.0137
  124OSM    C2S13099   2.664   2.391   2.317 -0.1716  0.1640  0.9318
  124OSM    H2S13100   2.649   2.502   2.320  0.3060  0.3572 -1.7516
  124OSM    C3S13101   2.528   2.325   2.316  0.1706 -0.5908 -0.0555
  124OSM    H3S13102   2.541   2.217   2.294 -1.3319 -0.7988 -0.0169
  124OSM     O313103   2.435   2.377   2.219  0.0027 -0.1283  0.2433
  124OSM    HO313104   2.486   2.423   2.152  0.4064 -1.0852 -0.1300
  124OSM    C4S13105   2.461   2.319   2.453 -0.2158 -0.1890 -1.4172
  124OSM    H4S13106   2.462   2.421   2.493 -1.6786 -0.7178  0.1345
  124OSM    C5S13107   2.402   2.214   2.514 -0.1643 -0.0148  0.2204
  124OSM    H5S13108   2.390   2.123   2.454 -1.0520  0.6731 -0.6947
  124OSM    C6S13109   2.333   2.237   2.645 -1.3016  0.2425  0.2931
  124OSM    H6S13110   2.367   2.158   2.716  0.8890  2.6150  2.0745
  124OSM    H6T13111   2.224   2.220   2.632 -1.4254  0.9625  0.3475
  124OSM    C7S13112   2.351   2.377   2.718  0.1727  0.4587 -0.7566
  124OSM    H7S13113   2.326   2.464   2.653  0.0559 -0.6235 -2.2193
  124OSM    H7T13114   2.458   2.386   2.748 -0.4028 -1.7535  2.4981
  124OSM    C8S13115   2.279   2.389   2.858  0.0335  0.0013 -0.3141
  124OSM    H8S13116   2.169   2.399   2.842  0.1341  0.2317 -0.8744
  124OSM    H8T13117   2.325   2.475   2.909  2.3047 -0.1294 -1.9948
  124OSM    C9S13118   2.306   2.267   2.947  0.3855  0.7740 -0.0680
  124OSM    H9S13119   2.415   2.250   2.958 -0.1945 -2.3073  2.3863
  124OSM    H9T13120   2.262   2.172   2.909 -1.9530  3.3282 -4.6203
  124OSM   C10S13121   2.264   2.287   3.096  0.3522  0.1663  0.2927
  124OSM   H10S13122   2.157   2.318   3.098  0.0130 -0.9969  0.5995
  124OSM   H10T13123   2.316   2.378   3.134  0.9515  0.1738 -0.5184
  124OSM   C11S13124   2.299   2.167   3.193  0.5642  0.1114 -0.0062
  124OSM   H11S13125   2.407   2.145   3.178  0.6505  1.5387 -1.8248
  124OSM   H11T13126   2.241   2.076   3.163  0.2002  0.5048 -0.5150
  124OSM   C12S13127   2.253   2.211   3.328 -0.0955 -0.2040  0.0612
  124OSM   H12S13128   2.166   2.280   3.320 -1.3988 -1.7937 -0.1119
  124OSM   H12T13129   2.336   2.260   3.383 -0.4349 -0.8487  1.1806
  124OSM   C13S13130   2.209   2.094   3.419 -0.1437  0.4914 -0.2115
  124OSM   H13S13131   2.300   2.033   3.433 -1.0641 -1.2820 -1.5255
  124OSM   H13T13132   2.132   2.030   3.370 -0.5982 -0.0082  1.1086
  124OSM   C14S13133   2.145   2.135   3.556 -0.9226 -0.2807 -0.4218
  124OSM   H14S13134   2.107   2.038   3.594 -0.1952 -0.0371  1.0129
  124OSM   H14T13135   2.062   2.206   3.536 -0.9795  0.1123  1.0730
  124OSM   C15S13136   2.255   2.189   3.650 -0.7309 -0.2554  0.3078
  124OSM   H15S13137   2.284   2.287   3.606  0.1761 -0.1366  1.1436
  124OSM   H15T13138   2.341   2.119   3.642 -1.4979 -1.2639  0.7265
  124OSM   C16S13139   2.218   2.224   3.796 -0.2250 -0.5903 -0.0869
  124OSM   H16S13140   2.146   2.307   3.781 -0.4229 -0.6452  0.5475
  124OSM   H16T13141   2.305   2.262   3.854 -0.8140  1.1083 -0.2888
  124OSM   C17S13142   2.154   2.110   3.873  0.1440 -1.3745 -0.8771
  124OSM   H17S13143   2.068   2.068   3.817  0.5080 -2.5495 -0.5921
  124OSM   H17T13144   2.108   2.144   3.968 -1.2580 -1.3934 -1.5312
  124OSM   C18S13145   2.259   2.000   3.906  0.6479 -0.1515  0.4534
  124OSM   H18S13146   2.278   1.935   3.818  2.1361  1.6219 -0.6118
  124OSM   H18T13147   2.210   1.940   3.986 -0.2972  1.3926  1.0748
  124OSM   H18U13148   2.355   2.043   3.940  1.4398 -1.1645 -0.4424
  124OSM    C1F13149   2.846   2.436   2.468  0.7025  0.0982  0.4511
  124OSM     OF13150   2.842   2.554   2.444  0.1665 -0.3997  0.5283
  124OSM    C2F13151   2.952   2.381   2.559  0.1868 -0.4596  0.1180
  124OSM    H2F13152   2.984   2.280   2.526  1.3415 -1.4260  3.6884
  124OSM    H2G13153   2.902   2.377   2.658 -4.0838 -0.1671 -1.8263
  124OSM    C3F13154   3.080   2.475   2.563 -0.5693  0.2011  0.3244
  124OSM    H3F13155   3.064   2.585   2.574 -1.8325 -0.1872  3.0361
  124OSM    H3G13156   3.146   2.477   2.474 -0.5349  1.7212  0.3564
  124OSM    C4F13157   3.180   2.435   2.679  0.2792  0.0965 -0.3230
  124OSM    H4F13158   3.275   2.487   2.659  0.3868 -0.3087 -0.8723
  124OSM    H4G13159   3.203   2.327   2.667 -1.0919  0.0987 -4.3182
  124OSM    C5F13160   3.128   2.472   2.818 -0.4663 -0.0990 -0.3138
  124OSM    H5F13161   3.034   2.414   2.828 -1.1368  1.0031 -0.0340
  124OSM    H5G13162   3.087   2.575   2.807  0.4353  0.0848 -2.6017
  124OSM    C6F13163   3.219   2.439   2.934  0.0358  0.1101  0.5999
  124OSM    H6F13164   3.299   2.515   2.947 -0.4379  0.3846  2.1166
  124OSM    H6G13165   3.276   2.348   2.907 -0.0900  0.3804 -0.6072
  124OSM    C7F13166   3.145   2.435   3.069 -0.7180  0.2835 -0.2516
  124OSM    H7F13167   3.227   2.401   3.136  1.4680  3.9976 -0.7309
  124OSM    H7G13168   3.070   2.354   3.064  0.5669 -0.9750  0.2515
  124OSM    C8F13169   3.084   2.573   3.107  0.5351 -0.1394 -0.2051
  124OSM    H8F13170   3.019   2.558   3.196  1.0765  0.4189  0.2941
  124OSM    H8G13171   3.021   2.608   3.022  1.3381 -0.9405 -1.1555
  124OSM    C9F13172   3.178   2.682   3.153 -0.9308  0.2715  0.4267
  124OSM    H9F13173   3.214   2.766   3.091 -4.2766  0.5891 -1.3045
  124OSM   C10F13174   3.263   2.661   3.255  0.9173  0.3023  0.5043
  124OSM   H10F13175   3.329   2.745   3.280 -1.6958  3.2270 -1.6391
  124OSM   C11F13176   3.250   2.564   3.370  0.5489 -0.3571 -0.1392
  124OSM   H11F13177   3.320   2.479   3.356  1.2072 -0.4014  2.7905
  124OSM   H11G13178   3.150   2.516   3.372  0.2321  0.0030 -2.8040
  124OSM   C12F13179   3.292   2.620   3.504 -0.0789  0.1981  0.0706
  124OSM   H12F13180   3.267   2.540   3.577 -1.0965  1.1753  0.7999
  124OSM   H12G13181   3.237   2.710   3.535  0.3352 -0.4295  2.8663
  124OSM   C13F13182   3.451   2.645   3.510  0.2283  0.1430  0.2480
  124OSM   H13F13183   3.466   2.698   3.607 -3.6702 -0.4166  1.3421
  124OSM   H13G13184   3.484   2.717   3.434 -0.2825 -0.2179 -0.3265
  124OSM   C14F13185   3.548   2.524   3.502  0.1199  0.0820 -0.2829
  124OSM   H14F13186   3.518   2.475   3.406 -3.0930 -1.5718  1.4079
  124OSM   H14G13187   3.515   2.449   3.577 -2.1335  0.9080 -0.3725
  124OSM   C15F13188   3.687   2.572   3.525  0.6502  0.5315  0.2675
  124OSM   H15F13189   3.721   2.640   3.444  1.4743  0.3540  0.4476
  124OSM   H15G13190   3.746   2.481   3.500  2.6563  1.6459  0.6874
  124OSM   C16F13191   3.721   2.626   3.660  0.3755  0.0625 -0.4496
  124OSM   H16F13192   3.681   2.556   3.736 -0.1011 -0.4509 -1.1555
  124OSM   H16G13193   3.680   2.726   3.685  1.2254  0.3628 -0.2450
  124OSM   C17F13194   3.875   2.625   3.688  0.4203  0.1437 -0.7684
  124OSM   H17F13195   3.926   2.718   3.656 -0.1847  1.3847  1.6555
  124OSM   H17G13196   3.917   2.542   3.627 -0.0688  0.6138 -1.7689
  124OSM   C18F13197   3.920   2.596   3.834  0.4490 -0.3374  0.6573
  124OSM   H18F13198   3.888   2.682   3.897  0.9776  0.7549 -0.5415
  124OSM   H18G13199   4.031   2.592   3.834  0.4503 -3.5462 -1.0375
  124OSM   H18H13200   3.883   2.497   3.870  0.4988 -1.4548 -2.1534
  125OSM      N13201   4.661   5.590   2.217 -0.1399 -1.1227 -0.5286
  125OSM    C1513202   4.673   5.737   2.208 -0.6425 -0.5032 -1.0867
  125OSM   H15A13203   4.766   5.764   2.256  0.5110 -0.5883 -3.1356
  125OSM   H15B13204   4.592   5.790   2.254 -1.1173 -1.2456 -1.0512
  125OSM   H15C13205   4.683   5.780   2.109 -1.2362 -0.2333 -1.0311
  125OSM    C1413206   4.533   5.555   2.152  0.2036 -0.2573  0.1734
  125OSM   H14A13207   4.451   5.612   2.193 -0.8992 -1.8951  0.3200
  125OSM   H14B13208   4.508   5.451   2.162 -1.2326  0.1621  1.2757
  125OSM   H14C13209   4.537   5.580   2.047  0.3836  0.8207  0.4218
  125OSM    C1313210   4.778   5.525   2.158  0.0886 -0.5162 -0.1021
  125OSM   H13A13211   4.869   5.537   2.214 -0.0879 -0.7135  0.2340
  125OSM   H13B13212   4.799   5.570   2.063  1.7710  2.0160  1.3582
  125OSM   H13C13213   4.746   5.422   2.144 -2.9007  0.2996  0.0367
  125OSM    C1213214   4.653   5.552   2.365 -0.1903 -0.0086 -0.2803
  125OSM   H12A13215   4.608   5.454   2.373 -2.3434  1.0376  1.1978
  125OSM   H12B13216   4.578   5.617   2.406 -1.1284  0.2545 -2.2897
  125OSM    C1113217   4.783   5.560   2.450 -0.2310  0.4229 -0.2602
  125OSM   H11A13218   4.764   5.570   2.559  0.3819 -2.5799  0.1990
  125OSM   H11B13219   4.841   5.650   2.421 -0.2384  0.6362  0.3781
  125OSM      P13220   4.821   5.296   2.443  0.0107 -0.4924 -0.0016
  125OSM    O1313221   4.674   5.285   2.433  0.2676  0.1321 -0.3023
  125OSM    O1413222   4.893   5.191   2.368 -1.0247 -0.1198 -0.4661
  125OSM    O1113223   4.853   5.277   2.593 -0.2725 -0.0649  0.9262
  125OSM    O1213224   4.864   5.445   2.414  0.0273  0.8108  0.0630
  125OSM    C1S13225   4.907   5.148   2.635  0.0249  0.9796  0.2492
  125OSM    H1S13226   5.003   5.123   2.585  0.6116  1.5373  1.0703
  125OSM    H1T13227   4.837   5.068   2.604  0.6993  0.7833 -0.8164
  125OSM     NF13228   5.003   5.010   2.822  0.8872  0.4748  0.7397
  125OSM    HNF13229   4.940   4.951   2.874 -0.2179 -0.4221 -1.4922
  125OSM    C2S13230   4.937   5.128   2.790 -0.0130 -0.1915  0.3193
  125OSM    H2S13231   5.020   5.198   2.816 -0.1803  0.0647  0.1565
  125OSM    C3S13232   4.810   5.161   2.884 -0.5641 -0.0824  0.3389
  125OSM    H3S13233   4.752   5.066   2.881 -0.2602 -0.2551 -0.3946
  125OSM     O313234   4.720   5.257   2.830  0.4092 -0.5227 -0.7536
  125OSM    HO313235   4.761   5.275   2.745  1.4886  1.1237  0.0473
  125OSM    C4S13236   4.853   5.185   3.026  0.1009 -0.5951 -0.1613
  125OSM    H4S13237   4.875   5.289   3.054 -0.0518 -1.5166  3.9411
  125OSM    C5S13238   4.848   5.092   3.125  0.2839  0.6589 -0.1848
  125OSM    H5S13239   4.832   4.986   3.097 -1.1131  1.1598 -1.4336
  125OSM    C6S13240   4.872   5.103   3.272 -0.6435 -0.3637  0.2760
  125OSM    H6S13241   4.882   5.211   3.296 -1.1753 -0.3273  0.3532
  125OSM    H6T13242   4.967   5.055   3.305  1.0997  3.1942  0.8996
  125OSM    C7S13243   4.755   5.051   3.348  0.7992 -0.2011 -0.4418
  125OSM    H7S13244   4.734   4.950   3.308 -0.6230  0.3538 -1.1436
  125OSM    H7T13245   4.667   5.114   3.327  2.0346  1.4092 -1.0073
  125OSM    C8S13246   4.763   5.039   3.501 -0.1704  0.6200 -0.4141
  125OSM    H8S13247   4.818   5.129   3.538  0.8715 -0.2833  0.2840
  125OSM    H8T13248   4.835   4.958   3.524 -0.6269  0.8927  2.3286
  125OSM    C9S13249   4.632   5.011   3.578 -0.9962 -0.1571  0.5916
  125OSM    H9S13250   4.600   4.906   3.559 -0.9947 -0.6500  3.0060
  125OSM    H9T13251   4.544   5.069   3.542 -0.1555  0.2034 -0.9335
  125OSM   C10S13252   4.656   5.012   3.725 -0.4518 -0.3435 -0.2275
  125OSM   H10S13253   4.561   4.979   3.771  0.3921 -1.3896  0.8279
  125OSM   H10T13254   4.687   5.114   3.758  1.5408 -0.9819  0.0548
  125OSM   C11S13255   4.769   4.925   3.768 -0.9135  0.0294  0.2476
  125OSM   H11S13256   4.870   4.968   3.753 -0.4034 -0.9846  0.6873
  125OSM   H11T13257   4.767   4.821   3.730 -0.9740 -0.6918  2.1031
  125OSM   C12S13258   4.771   4.891   3.923 -0.4013  0.0805  0.2736
  125OSM   H12S13259   4.867   4.840   3.946  0.0857 -0.4857 -2.5769
  125OSM   H12T13260   4.686   4.820   3.930 -0.0689 -0.3383  0.1290
  125OSM   C13S13261   4.739   5.006   4.016  0.2838  0.2510 -0.1375
  125OSM   H13S13262   4.737   4.956   4.115  0.1647 -1.3752 -0.9249
  125OSM   H13T13263   4.635   5.038   3.991  0.8540  0.5400 -2.3566
  125OSM   C14S13264   4.835   5.124   4.017  0.4710 -0.3662 -0.0534
  125OSM   H14S13265   4.816   5.191   3.931  0.1682  0.8196  0.9162
  125OSM   H14T13266   4.944   5.103   4.025  0.6899  0.4163 -0.8855
  125OSM   C15S13267   4.795   5.210   4.141 -0.6568 -0.1134  0.8691
  125OSM   H15S13268   4.766   5.153   4.232 -1.3468  0.5620  1.0780
  125OSM   H15T13269   4.704   5.270   4.120 -1.3533 -1.1899  0.6910
  125OSM   C16S13270   4.906   5.312   4.182  0.2519 -0.4265  0.4080
  125OSM   H16S13271   4.916   5.386   4.101  2.2148  0.4490  1.3867
  125OSM   H16T13272   4.997   5.255   4.212  1.0391  0.5076 -0.1551
  125OSM   C17S13273   4.863   5.381   4.314  0.4673  0.4605 -0.2434
  125OSM   H17S13274   4.938   5.451   4.358 -0.7370  1.6426 -0.0216
  125OSM   H17T13275   4.840   5.310   4.396 -1.9808  3.6265  2.0836
  125OSM   C18S13276   4.733   5.460   4.304 -0.1662  0.4832 -0.2630
  125OSM   H18S13277   4.749   5.544   4.233  1.1973 -0.0648 -0.6325
  125OSM   H18T13278   4.697   5.487   4.405  1.6120 -3.0951  1.4865
  125OSM   H18U13279   4.650   5.398   4.265  0.0569 -0.0867  0.1709
  125OSM    C1F13280   5.125   4.968   2.781 -0.1753 -0.6406 -0.3755
  125OSM     OF13281   5.188   5.039   2.698  0.0631 -0.3301 -0.3062
  125OSM    C2F13282   5.178   4.844   2.844  0.1972 -0.2898 -0.0697
  125OSM    H2F13283   5.150   4.749   2.793 -2.9722  1.8111 -2.6900
  125OSM    H2G13284   5.136   4.839   2.946 -1.1829  2.0821 -0.4650
  125OSM    C3F13285   5.330   4.856   2.867  0.9814 -0.3807 -0.0111
  125OSM    H3F13286   5.368   4.958   2.844 -2.0485  0.4365 -1.8729
  125OSM    H3G13287   5.389   4.784   2.807 -0.5226 -0.0657 -1.9462
  125OSM    C4F13288   5.371   4.824   3.010  0.9327 -0.4704 -0.2142
  125OSM    H4F13289   5.481   4.811   3.004  1.2423  0.1686  2.6365
  125OSM    H4G13290   5.329   4.726   3.042  2.2647 -1.8969 -2.5188
  125OSM    C5F13291   5.353   4.938   3.114  0.3630  0.1744  0.0096
  125OSM    H5F13292   5.244   4.961   3.112  0.7610  2.4261  0.7239
  125OSM    H5G13293   5.401   5.036   3.091  1.6860 -0.0218  1.6703
  125OSM    C6F13294   5.380   4.900   3.264 -0.4230 -0.1486  0.1778
  125OSM    H6F13295   5.489   4.890   3.285  0.3804 -0.6368 -3.5288
  125OSM    H6G13296   5.332   4.805   3.295  1.9840 -0.8849  1.9745
  125OSM    C7F13297   5.329   5.011   3.362 -0.2411 -0.2778 -0.5196
  125OSM    H7F13298   5.221   5.032   3.345 -0.3285  0.6491  1.0044
  125OSM    H7G13299   5.379   5.107   3.335 -0.7479 -0.7588 -3.6155
  125OSM    C8F13300   5.323   4.967   3.516 -0.0467  0.1283 -0.0363
  125OSM    H8F13301   5.277   4.866   3.520  1.7603 -0.7620 -0.6835
  125OSM    H8G13302   5.244   5.031   3.561  0.7202 -0.0138  1.5793
  125OSM    C9F13303   5.457   4.973   3.581 -0.0204 -0.8274  0.0039
  125OSM    H9F13304   5.538   4.919   3.530  1.5339  0.5585  0.9205
  125OSM   C10F13305   5.475   5.040   3.697 -0.3744 -0.7859 -0.1670
  125OSM   H10F13306   5.580   5.045   3.730 -0.4719 -0.4137  0.0960
  125OSM   C11F13307   5.374   5.123   3.776  0.3614  0.9373  0.0805
  125OSM   H11F13308   5.318   5.187   3.703  0.9796  0.5154 -0.7716
  125OSM   H11G13309   5.423   5.192   3.848 -0.6977  1.3281  0.4564
  125OSM   C12F13310   5.273   5.030   3.850  0.3687 -0.5949  0.4477
  125OSM   H12F13311   5.207   4.978   3.777 -1.9581  1.8987  0.6052
  125OSM   H12G13312   5.208   5.095   3.912 -1.6175 -0.5902 -1.5055
  125OSM   C13F13313   5.329   4.931   3.939  0.8889 -0.1570 -0.2020
  125OSM   H13F13314   5.408   4.984   3.995  0.6771 -1.0895  1.0380
  125OSM   H13G13315   5.376   4.850   3.879  3.5964  2.1464 -1.3852
  125OSM   C14F13316   5.219   4.860   4.027  0.0864  0.8497  0.2315
  125OSM   H14F13317   5.247   4.755   4.050 -1.2265 -0.1005 -2.1299
  125OSM   H14G13318   5.140   4.827   3.957  1.1303  0.2646 -0.7014
  125OSM   C15F13319   5.175   4.937   4.150 -0.3155 -0.1918  0.6637
  125OSM   H15F13320   5.116   5.025   4.115 -2.6022 -1.4388  1.2062
  125OSM   H15G13321   5.266   4.954   4.211 -0.7105 -1.4637  1.6419
  125OSM   C16F13322   5.079   4.865   4.243 -0.0053  0.0771  0.4774
  125OSM   H16F13323   5.116   4.761   4.259  1.2138  0.4767  0.3997
  125OSM   H16G13324   4.977   4.861   4.200  0.1908 -4.2258 -0.0840
  125OSM   C17F13325   5.060   4.933   4.375 -0.1561  0.1580  0.5671
  125OSM   H17F13326   5.037   5.040   4.355 -1.8173  0.0540  1.7213
  125OSM   H17G13327   5.143   4.928   4.448  0.5279 -2.1028 -0.2923
  125OSM   C18F13328   4.931   4.883   4.445  0.0518  0.1573  0.2313
  125OSM   H18F13329   4.946   4.773   4.452 -1.6329 -0.2664 -1.9275
  125OSM   H18G13330   4.842   4.893   4.381 -1.2857  1.1303  2.1327
  125OSM   H18H13331   4.919   4.940   4.540  2.3519  0.5559  0.3379
  126OSM      N13332   5.392   0.014   2.107  0.6500 -0.4763  0.1068
  126OSM    C1513333   5.375   0.153   2.046 -0.2539  0.1632 -0.3147
  126OSM   H15A13334   5.411   0.226   2.117 -1.3589  0.5082 -0.0844
  126OSM   H15B13335   5.274   0.171   2.012 -0.0986 -1.4816 -1.7917
  126OSM   H15C13336   5.446   0.171   1.967  0.0633  0.4795  0.0422
  126OSM    C1413337   5.317  -0.078   2.014 -0.6077  0.2038 -0.3696
  126OSM   H14A13338   5.352  -0.060   1.913  2.2457 -2.0291  0.0711
  126OSM   H14B13339   5.213  -0.052   2.023 -0.2852  1.6572 -0.5858
  126OSM   H14C13340   5.334  -0.181   2.044 -0.3017  0.2490 -0.3815
  126OSM    C1313341   5.536  -0.020   2.113 -0.8522  0.4180  0.0885
  126OSM   H13A13342   5.581   0.043   2.188 -0.9678  0.8609 -0.2124
  126OSM   H13B13343   5.580   0.000   2.017 -2.1563 -0.6855 -0.7778
  126OSM   H13C13344   5.552  -0.118   2.157  1.2278  0.4734 -0.4527
  126OSM    C1213345   5.328   0.020   2.246 -0.6943  0.3751  0.1567
  126OSM   H12A13346   5.356   0.111   2.298 -0.2970 -0.5610  1.6497
  126OSM   H12B13347   5.359  -0.069   2.299 -1.5610 -0.9261 -1.4538
  126OSM    C1113348   5.176   0.023   2.246  1.0539  0.3465 -0.0204
  126OSM   H11A13349   5.151   0.102   2.173 -3.1054 -1.3096 -0.6790
  126OSM   H11B13350   5.135   0.049   2.346 -0.2535  0.3874 -0.5438
  126OSM      P13351   5.132  -0.221   2.293  0.0569 -0.6217 -0.5398
  126OSM    O1313352   5.024  -0.318   2.260 -0.4710 -0.0708 -0.3193
  126OSM    O1413353   5.275  -0.264   2.303 -0.0248  0.3581 -0.3050
  126OSM    O1113354   5.093  -0.163   2.433 -0.0120  0.0681 -0.1055
  126OSM    O1213355   5.120  -0.097   2.197 -0.5865 -0.3052 -0.3428
  126OSM    C1S13356   5.068  -0.248   2.542 -0.1668  0.3810  0.8031
  126OSM    H1S13357   5.162  -0.291   2.582  0.0111 -0.0074 -0.0149
  126OSM    H1T13358   5.012  -0.342   2.519 -0.1134  1.0535 -2.6917
  126OSM     NF13359   4.993  -0.246   2.761  1.0560  0.1096  0.2068
  126OSM    HNF13360   4.921  -0.315   2.760 -0.5538  1.7220 -0.4142
  126OSM    C2S13361   5.010  -0.162   2.648  0.2317 -0.3495  0.6236
  126OSM    H2S13362   5.072  -0.075   2.679 -1.6744  1.7413 -1.0987
  126OSM    C3S13363   4.873  -0.108   2.589 -0.2841 -0.2610  0.4873
  126OSM    H3S13364   4.822  -0.185   2.528  0.6030 -0.3130 -0.2036
  126OSM     O313365   4.887   0.010   2.511 -0.0556  0.2788  0.1876
  126OSM    HO313366   4.973  -0.002   2.471 -0.1652  2.8990 -1.0048
  126OSM    C4S13367   4.780  -0.069   2.695  0.3998 -0.5181 -0.5362
  126OSM    H4S13368   4.821   0.005   2.766  0.7529 -0.7407 -0.5046
  126OSM    C5S13369   4.655  -0.119   2.703  0.2170 -0.8481  1.2804
  126OSM    H5S13370   4.619  -0.170   2.613 -0.3538  1.8371 -0.1307
  126OSM    C6S13371   4.554  -0.082   2.805  0.9069  0.1210  0.2086
  126OSM    H6S13372   4.471  -0.150   2.776  0.7161  0.5931 -0.3762
  126OSM    H6T13373   4.515   0.022   2.798 -0.2995 -0.4275 -2.4055
  126OSM    C7S13374   4.608  -0.111   2.950  0.7769  0.6373  0.2772
  126OSM    H7S13375   4.706  -0.060   2.963  0.9694  0.1997  0.5450
  126OSM    H7T13376   4.613  -0.220   2.968 -0.0751  0.9480  2.8584
  126OSM    C8S13377   4.511  -0.052   3.058  0.0844 -0.1783 -0.6770
  126OSM    H8S13378   4.417  -0.104   3.028  1.3272 -0.7677 -4.0707
  126OSM    H8T13379   4.500   0.058   3.044  0.0908 -0.2159 -0.9905
  126OSM    C9S13380   4.569  -0.070   3.199 -0.0642 -0.1120  0.6793
  126OSM    H9S13381   4.657  -0.007   3.224  0.9522 -0.4862 -1.6818
  126OSM    H9T13382   4.603  -0.175   3.199 -4.5178 -1.7748  0.1540
  126OSM   C10S13383   4.462  -0.038   3.304  1.2896 -0.0436 -0.1374
  126OSM   H10S13384   4.489  -0.071   3.406 -0.5394 -1.4109 -0.0445
  126OSM   H10T13385   4.363  -0.080   3.276  0.4355  2.4879 -1.2038
  126OSM   C11S13386   4.437   0.111   3.323 -0.1232 -0.1393  0.3885
  126OSM   H11S13387   4.410   0.162   3.228  3.5505 -0.7586 -1.1302
  126OSM   H11T13388   4.534   0.156   3.353 -1.0481  2.2330  0.0779
  126OSM   C12S13389   4.340   0.131   3.438 -0.3730  0.9306  0.1905
  126OSM   H12S13390   4.377   0.069   3.523 -1.2953 -0.5250 -0.4307
  126OSM   H12T13391   4.240   0.095   3.406  0.3062  0.7489 -1.8591
  126OSM   C13S13392   4.320   0.276   3.481 -0.0782 -0.7970 -0.5549
  126OSM   H13S13393   4.275   0.332   3.396 -3.7716 -3.8010 -0.8549
  126OSM   H13T13394   4.414   0.319   3.524 -0.8914 -0.4668  0.9815
  126OSM   C14S13395   4.216   0.287   3.590 -0.6670 -0.3409 -0.4325
  126OSM   H14S13396   4.144   0.203   3.578 -0.2287 -0.5258 -1.9486
  126OSM   H14T13397   4.170   0.385   3.568 -1.1011 -0.1966  0.9803
  126OSM   C15S13398   4.272   0.292   3.735  0.1100  0.3149  0.5059
  126OSM   H15S13399   4.369   0.237   3.733 -0.6029 -0.9758  0.0500
  126OSM   H15T13400   4.211   0.225   3.800  0.3442 -2.5197 -1.9370
  126OSM   C16S13401   4.286   0.428   3.799  0.1781 -0.2695  0.6969
  126OSM   H16S13402   4.306   0.416   3.907  3.0854 -0.8747  0.1683
  126OSM   H16T13403   4.191   0.484   3.787  0.2748 -0.4275 -1.0484
  126OSM   C17S13404   4.409   0.502   3.741 -0.5336 -0.0022 -0.0734
  126OSM   H17S13405   4.402   0.515   3.631 -2.5993  1.7173  0.2053
  126OSM   H17T13406   4.502   0.452   3.774 -1.3521 -0.7807  1.1209
  126OSM   C18S13407   4.417   0.643   3.801  0.4655 -0.5167  0.3987
  126OSM   H18S13408   4.522   0.679   3.815 -0.2731  0.7427  3.5805
  126OSM   H18T13409   4.379   0.648   3.905  0.5242  1.6259  0.3690
  126OSM   H18U13410   4.363   0.716   3.738 -1.4927 -1.7702  0.5572
  126OSM    C1F13411   5.091  -0.260   2.851  0.2735  0.2229 -0.2566
  126OSM     OF13412   5.187  -0.185   2.860  0.0916  0.0040  0.3568
  126OSM    C2F13413   5.074  -0.381   2.941 -0.5541 -0.4574 -0.4229
  126OSM    H2F13414   5.126  -0.472   2.904 -0.2999 -0.8606  0.8734
  126OSM    H2G13415   4.967  -0.408   2.943 -0.4393 -0.9400 -0.6351
  126OSM    C3F13416   5.109  -0.345   3.093  0.0810 -0.0686  0.3342
  126OSM    H3F13417   5.219  -0.345   3.106  0.3288  0.8007 -1.5200
  126OSM    H3G13418   5.083  -0.435   3.154  1.3446 -0.2972  0.5500
  126OSM    C4F13419   5.023  -0.226   3.141 -0.4219  0.5866 -0.0723
  126OSM    H4F13420   4.916  -0.246   3.119 -0.5444  0.5458  0.5448
  126OSM    H4G13421   5.058  -0.134   3.090 -2.4545  1.6609  0.3724
  126OSM    C5F13422   5.036  -0.201   3.295  0.1216 -0.1405 -0.7628
  126OSM    H5F13423   5.144  -0.179   3.308  0.6812 -2.4145 -0.9716
  126OSM    H5G13424   5.013  -0.296   3.348 -2.7604  1.6425  1.4884
  126OSM    C6F13425   4.948  -0.085   3.335 -0.0120  0.6448 -0.1458
  126OSM    H6F13426   4.838  -0.101   3.325 -0.1013  1.3801 -0.4365
  126OSM    H6G13427   4.970  -0.002   3.265  2.6437  1.9082  1.9856
  126OSM    C7F13428   4.984  -0.026   3.471  0.0189 -0.1132  0.0278
  126OSM    H7F13429   5.085   0.019   3.459  0.8457 -0.9051  3.2200
  126OSM    H7G13430   4.984  -0.100   3.553 -3.6398 -0.0701  0.2202
  126OSM    C8F13431   4.906   0.099   3.514 -0.7906 -0.0293  0.4875
  126OSM    H8F13432   4.916   0.174   3.434 -0.1246  0.5071  1.0639
  126OSM    H8G13433   4.961   0.136   3.603  0.4985 -0.8303  0.0645
  126OSM    C9F13434   4.763   0.053   3.540 -0.3035 -0.0684  0.4050
  126OSM    H9F13435   4.735  -0.033   3.478  0.1751  1.1714 -1.6095
  126OSM   C10F13436   4.684   0.103   3.635 -0.3040 -0.3187 -0.3479
  126OSM   H10F13437   4.580   0.068   3.646 -0.1181 -1.2879 -1.4935
  126OSM   C11F13438   4.726   0.211   3.723  0.1341 -0.0104 -0.8125
  126OSM   H11F13439   4.651   0.292   3.715 -0.4402 -0.6194 -1.6639
  126OSM   H11G13440   4.827   0.250   3.697  0.3643 -1.3690 -2.0479
  126OSM   C12F13441   4.706   0.171   3.869  0.5938  0.0736  0.2518
  126OSM   H12F13442   4.769   0.081   3.885  0.2862  0.1364  2.0946
  126OSM   H12G13443   4.600   0.145   3.888 -0.2272  2.0859 -1.1967
  126OSM   C13F13444   4.745   0.292   3.957 -0.8027 -0.5007  0.4839
  126OSM   H13F13445   4.665   0.369   3.955 -1.0848 -0.8073 -1.0077
  126OSM   H13G13446   4.841   0.332   3.916 -0.3439 -2.7021 -0.7439
  126OSM   C14F13447   4.772   0.258   4.102 -0.6346  0.0141  0.0328
  126OSM   H14F13448   4.850   0.180   4.098  0.3717  1.0315 -0.5872
  126OSM   H14G13449   4.678   0.214   4.143  1.0775 -1.2833  2.8937
  126OSM   C15F13450   4.832   0.363   4.193  0.0913 -0.0769 -0.2922
  126OSM   H15F13451   4.930   0.392   4.150  0.3321 -0.8051 -0.2623
  126OSM   H15G13452   4.848   0.327   4.297  0.7015  3.0003  0.7761
  126OSM   C16F13453   4.744   0.489   4.197  0.4921  0.1995 -0.2367
  126OSM   H16F13454   4.717   0.537   4.100 -1.3527 -0.2883 -0.0037
  126OSM   H16G13455   4.806   0.557   4.258  0.1187  1.1290 -0.8645
  126OSM   C17F13456   4.611   0.456   4.276 -0.9375 -0.1812 -0.0016
  126OSM   H17F13457   4.553   0.376   4.224  0.1952  0.2774 -2.0827
  126OSM   H17G13458   4.552   0.549   4.275  0.8795  1.0752 -2.6128
  126OSM   C18F13459   4.639   0.426   4.421  0.2135 -0.3294  0.1003
  126OSM   H18F13460   4.676   0.515   4.476 -1.2805  0.4691 -0.1365
  126OSM   H18G13461   4.710   0.341   4.431  3.6301  1.9155 -2.8986
  126OSM   H18H13462   4.555   0.387   4.482 -0.0555 -0.4097 -0.3191
  127OSM      N13463   3.329   1.802   2.050 -0.4804  0.2681  0.3578
  127OSM    C1513464   3.371   1.883   2.168 -0.1379  0.2558 -0.8357
  127OSM   H15A13465   3.398   1.820   2.252  1.6570  0.2553 -1.3766
  127OSM   H15B13466   3.295   1.952   2.202  0.0711 -1.0033  2.5716
  127OSM   H15C13467   3.454   1.946   2.139 -1.4683  1.6671 -1.7347
  127OSM    C1413468   3.264   1.891   1.945  0.4354  0.6308  0.0389
  127OSM   H14A13469   3.163   1.926   1.959  0.7184  1.3416  0.3367
  127OSM   H14B13470   3.254   1.834   1.853 -0.6751 -1.0865  1.1659
  127OSM   H14C13471   3.326   1.975   1.919  1.2512 -0.3656 -1.4357
  127OSM    C1313472   3.464   1.737   1.994  0.1298 -0.1767  0.4253
  127OSM   H13A13473   3.499   1.658   2.059 -1.7265 -0.0485  1.6781
  127OSM   H13B13474   3.536   1.815   1.981  1.8231 -1.6959  0.3294
  127OSM   H13C13475   3.436   1.711   1.893  1.8368  2.1077 -0.7327
  127OSM    C1213476   3.244   1.679   2.079  0.0984  0.3811  0.4989
  127OSM   H12A13477   3.296   1.620   2.154  0.9956 -0.5017 -0.7884
  127OSM   H12B13478   3.229   1.617   1.992 -3.7069  0.3758  0.9885
  127OSM    C1113479   3.110   1.710   2.140 -0.6158 -0.5598  0.2896
  127OSM   H11A13480   3.076   1.796   2.077 -0.5167 -1.3135 -0.8247
  127OSM   H11B13481   3.125   1.743   2.245  0.4926  0.1101 -0.0677
  127OSM      P13482   2.881   1.602   2.114 -0.0363  0.2268 -0.3127
  127OSM    O1313483   2.840   1.718   2.031 -0.2229  0.6376 -0.0799
  127OSM    O1413484   2.838   1.471   2.069  0.4388 -0.1020 -0.0810
  127OSM    O1113485   2.818   1.621   2.260 -0.4204  0.2867 -0.1508
  127OSM    O1213486   3.038   1.591   2.135  0.2922 -0.6370  0.2607
  127OSM    C1S13487   2.880   1.561   2.379  0.4794 -0.2198  0.2999
  127OSM    H1S13488   2.980   1.604   2.401 -0.3045  2.2308 -0.5694
  127OSM    H1T13489   2.887   1.452   2.359 -1.0045 -0.0810 -1.2289
  127OSM     NF13490   2.867   1.515   2.618  0.7201 -0.4914 -0.6044
  127OSM    HNF13491   2.824   1.434   2.657 -3.6281  1.4658 -0.6588
  127OSM    C2S13492   2.793   1.574   2.509  0.4415  0.0130  0.1904
  127OSM    H2S13493   2.787   1.683   2.526  0.3539  0.2059 -0.9998
  127OSM    C3S13494   2.644   1.523   2.498 -0.1255 -0.2361 -0.0634
  127OSM    H3S13495   2.660   1.413   2.501  2.0952  0.0602  0.5326
  127OSM     O313496   2.580   1.565   2.382 -0.0330 -0.1916 -0.1313
  127OSM    HO313497   2.649   1.580   2.316  0.3490 -1.9371 -0.1828
  127OSM    C4S13498   2.569   1.552   2.625 -0.2535 -0.2696  0.2400
  127OSM    H4S13499   2.562   1.659   2.652  0.2704 -0.0381 -0.5237
  127OSM    C5S13500   2.514   1.463   2.711 -0.7511  0.9855  0.7438
  127OSM    H5S13501   2.532   1.357   2.692  1.4898  1.0698  2.0798
  127OSM    C6S13502   2.437   1.492   2.837 -0.1056  0.3457 -0.1719
  127OSM    H6S13503   2.343   1.434   2.840  0.5864 -0.9011 -1.5020
  127OSM    H6T13504   2.406   1.596   2.863  0.4312  0.2443  0.9664
  127OSM    C7S13505   2.544   1.452   2.949  0.2084  0.0929 -0.4469
  127OSM    H7S13506   2.610   1.541   2.960  0.9506 -0.6214  1.3084
  127OSM    H7T13507   2.602   1.359   2.934  2.3912  1.3371 -0.1031
  127OSM    C8S13508   2.463   1.431   3.078  0.0771  0.2771 -0.4244
  127OSM    H8S13509   2.392   1.345   3.073  1.3679 -0.9759  1.4068
  127OSM    H8T13510   2.397   1.519   3.089  0.5434  0.5301  0.4112
  127OSM    C9S13511   2.556   1.407   3.204 -1.0092  0.4762  0.4128
  127OSM    H9S13512   2.622   1.488   3.241 -0.5023  1.4058 -2.2993
  127OSM    H9T13513   2.629   1.335   3.161  1.3021  3.3039 -0.6843
  127OSM   C10S13514   2.487   1.357   3.326 -0.1496  0.1842  0.0979
  127OSM   H10S13515   2.423   1.272   3.292  1.1419 -1.2374  1.0673
  127OSM   H10T13516   2.416   1.438   3.354 -0.7947  0.0719 -1.1462
  127OSM   C11S13517   2.589   1.329   3.438  0.8471 -1.2249  0.6234
  127OSM   H11S13518   2.665   1.404   3.468  1.0759 -0.9719 -0.5182
  127OSM   H11T13519   2.649   1.245   3.395  2.2855  1.0534 -2.2420
  127OSM   C12S13520   2.511   1.272   3.557  0.0086  0.0591  0.5819
  127OSM   H12S13521   2.586   1.230   3.628  1.1101  1.7786  0.4953
  127OSM   H12T13522   2.453   1.185   3.520  0.8928 -1.8075  3.2602
  127OSM   C13S13523   2.416   1.373   3.630  0.2144 -0.5739 -0.3355
  127OSM   H13S13524   2.335   1.396   3.558 -0.9994  0.4000  1.2912
  127OSM   H13T13525   2.478   1.464   3.643  1.3450 -1.4022  0.3594
  127OSM   C14S13526   2.350   1.306   3.756  0.5474 -0.0854 -0.3410
  127OSM   H14S13527   2.427   1.279   3.832  0.1323  0.2679  0.2115
  127OSM   H14T13528   2.311   1.206   3.727 -0.8221 -0.7416  3.2887
  127OSM   C15S13529   2.248   1.391   3.827  0.8832  0.5138 -0.4381
  127OSM   H15S13530   2.158   1.402   3.763  0.7864  0.7735 -0.2591
  127OSM   H15T13531   2.291   1.493   3.839  0.8399  0.3088  1.8100
  127OSM   C16S13532   2.221   1.320   3.964 -0.4831  0.2181  0.2981
  127OSM   H16S13533   2.322   1.315   4.011 -0.7112  0.3674  0.8154
  127OSM   H16T13534   2.180   1.218   3.954  1.8126 -0.6559 -1.3064
  127OSM   C17S13535   2.128   1.408   4.063  0.4151 -0.1892 -0.1189
  127OSM   H17S13536   2.029   1.404   4.013  0.6656 -0.3749 -0.6114
  127OSM   H17T13537   2.149   1.517   4.055 -2.6217  0.4887  0.0032
  127OSM   C18S13538   2.139   1.380   4.212 -0.2101  0.0465 -0.0316
  127OSM   H18S13539   2.049   1.411   4.269  0.7795 -0.3981  1.8502
  127OSM   H18T13540   2.221   1.442   4.255 -2.5816  2.9249  0.6243
  127OSM   H18U13541   2.154   1.273   4.238 -1.7147 -0.0115  0.7058
  127OSM    C1F13542   2.986   1.558   2.662 -0.0047 -0.4247 -0.8783
  127OSM     OF13543   3.044   1.657   2.616 -0.1018  0.7764 -0.4002
  127OSM    C2F13544   3.051   1.479   2.769 -0.0334  0.0722 -0.7991
  127OSM    H2F13545   3.141   1.540   2.792  0.3108  0.0323 -1.9852
  127OSM    H2G13546   3.087   1.383   2.725 -1.3838 -0.6296 -0.4467
  127OSM    C3F13547   2.958   1.446   2.881  0.0484 -0.2470  0.3687
  127OSM    H3F13548   2.864   1.391   2.862 -0.9876  0.8453  2.0838
  127OSM    H3G13549   2.914   1.545   2.906  1.2795  0.3326  0.3124
  127OSM    C4F13550   3.023   1.401   3.012 -0.3454 -0.7952 -0.2514
  127OSM    H4F13551   3.075   1.488   3.055  0.6980 -0.5565 -1.9179
  127OSM    H4G13552   3.102   1.328   2.985  0.1034 -0.5933  0.5057
  127OSM    C5F13553   2.919   1.349   3.120 -0.1109  0.3564 -0.6401
  127OSM    H5F13554   2.879   1.254   3.079 -1.6549  2.4168 -4.4049
  127OSM    H5G13555   2.846   1.432   3.131 -0.0679  0.1805  1.3185
  127OSM    C6F13556   2.981   1.327   3.256  0.2470 -0.3206  0.1466
  127OSM    H6F13557   3.075   1.268   3.258  1.1442  1.0769  1.2512
  127OSM    H6G13558   2.893   1.277   3.302 -2.1402  2.1243 -1.4618
  127OSM    C7F13559   3.000   1.454   3.343  0.2880  0.1912 -0.3899
  127OSM    H7F13560   2.903   1.509   3.353  0.0838  0.0118 -1.3436
  127OSM    H7G13561   3.071   1.522   3.292  1.2306 -0.8872 -0.5386
  127OSM    C8F13562   3.054   1.437   3.489 -0.3389 -0.8793 -0.5557
  127OSM    H8F13563   3.111   1.527   3.519 -1.5561 -0.2054 -0.2254
  127OSM    H8G13564   3.111   1.342   3.479 -1.0822 -1.2472 -1.4555
  127OSM    C9F13565   2.948   1.416   3.591  0.2521  0.6603  0.7327
  127OSM    H9F13566   2.884   1.326   3.587 -1.1405  1.3615  4.2319
  127OSM   C10F13567   2.914   1.502   3.689 -0.0471 -0.5768 -0.3605
  127OSM   H10F13568   2.834   1.479   3.762  1.0618  1.5909  1.6837
  127OSM   C11F13569   2.982   1.640   3.722 -0.1185 -0.5591  0.3029
  127OSM   H11F13570   2.913   1.704   3.781  2.0043  2.2169 -0.0164
  127OSM   H11G13571   3.005   1.694   3.628  1.4989  1.9191  2.0089
  127OSM   C12F13572   3.117   1.622   3.806  0.2278 -0.1973  0.6947
  127OSM   H12F13573   3.197   1.584   3.739 -0.7041 -1.2003  0.0987
  127OSM   H12G13574   3.093   1.544   3.882 -0.1917 -0.8017 -0.0383
  127OSM   C13F13575   3.162   1.755   3.874 -0.6635  1.0162 -0.0106
  127OSM   H13F13576   3.083   1.796   3.941  1.3462  2.0041  1.9022
  127OSM   H13G13577   3.176   1.832   3.795  0.7760 -0.4552 -1.2640
  127OSM   C14F13578   3.285   1.750   3.965 -0.1196  0.4508  0.0021
  127OSM   H14F13579   3.322   1.646   3.953  0.5839  0.6421  0.4837
  127OSM   H14G13580   3.254   1.770   4.070 -4.4491 -2.3491 -0.4700
  127OSM   C15F13581   3.406   1.839   3.929 -0.5725 -0.2661 -0.1775
  127OSM   H15F13582   3.397   1.942   3.969  1.7872  0.2260 -0.7844
  127OSM   H15G13583   3.420   1.855   3.820 -0.9029  0.2761 -0.1443
  127OSM   C16F13584   3.527   1.777   4.001  0.8644  0.1758  0.0190
  127OSM   H16F13585   3.550   1.675   3.963  1.5136  0.3673 -0.1121
  127OSM   H16G13586   3.508   1.778   4.111  0.0065  1.4743 -0.1260
  127OSM   C17F13587   3.649   1.868   3.980 -0.4435 -1.1276  0.6956
  127OSM   H17F13588   3.620   1.975   3.986  0.6899 -0.8648  2.3512
  127OSM   H17G13589   3.691   1.847   3.879  1.0631 -1.3541  1.3382
  127OSM   C18F13590   3.755   1.854   4.089 -0.4317  0.4467 -0.3292
  127OSM   H18F13591   3.804   1.755   4.079 -0.7583  0.0817  1.4027
  127OSM   H18G13592   3.719   1.857   4.194 -1.0099 -0.8178 -0.4811
  127OSM   H18H13593   3.836   1.931   4.088  0.9583 -0.9664  0.4608
  128OSM      N13594   2.676   5.545   1.778  0.0426 -0.2513  0.5680
  128OSM    C1513595   2.590   5.609   1.675 -0.9193  0.7311 -0.4351
  128OSM   H15A13596   2.596   5.717   1.682 -1.7454  0.8176 -0.9695
  128OSM   H15B13597   2.485   5.582   1.680 -0.1418 -2.5656  1.2187
  128OSM   H15C13598   2.622   5.578   1.577  1.1413  1.9895 -0.2242
  128OSM    C1413599   2.654   5.395   1.773  0.3627 -0.2250  0.0304
  128OSM   H14A13600   2.722   5.357   1.848 -0.0840  1.7993  1.5473
  128OSM   H14B13601   2.675   5.351   1.676  2.5093 -1.7888  1.1165
  128OSM   H14C13602   2.551   5.375   1.800  0.2547  2.5581  2.1484
  128OSM    C1313603   2.824   5.566   1.748  0.0638 -0.1561 -0.7604
  128OSM   H13A13604   2.838   5.673   1.738 -1.3768  0.0614 -0.7222
  128OSM   H13B13605   2.855   5.516   1.658  0.0138 -1.1932 -0.2143
  128OSM   H13C13606   2.884   5.528   1.830 -3.0691 -1.1261  1.2664
  128OSM    C1213607   2.646   5.609   1.914 -0.0799  0.0169  1.0677
  128OSM   H12A13608   2.548   5.579   1.950 -0.7474  0.4688 -0.2984
  128OSM   H12B13609   2.651   5.717   1.906  1.8788 -0.1211 -0.3708
  128OSM    C1113610   2.729   5.559   2.037  0.2371 -0.5584  0.1434
  128OSM   H11A13611   2.690   5.622   2.119  1.2683 -0.1940  0.3726
  128OSM   H11B13612   2.837   5.587   2.038  0.3971 -1.1534  0.2976
  128OSM      P13613   2.839   5.319   2.070  0.6185 -0.3008  0.2605
  128OSM    O1313614   2.816   5.203   1.980  0.2959 -0.3138  0.3608
  128OSM    O1413615   2.957   5.406   2.044 -0.8153  0.0970 -0.2896
  128OSM    O1113616   2.839   5.276   2.218 -0.1705  0.1035 -0.3804
  128OSM    O1213617   2.713   5.418   2.059 -0.2472  0.0015 -0.5516
  128OSM    C1S13618   2.722   5.233   2.291 -0.7534 -0.0723  0.6030
  128OSM    H1S13619   2.721   5.123   2.298  0.0352 -0.0716  0.8716
  128OSM    H1T13620   2.627   5.253   2.238 -1.4753 -0.9901  1.5200
  128OSM     NF13621   2.620   5.207   2.513 -0.3155 -0.1410 -0.2364
  128OSM    HNF13622   2.532   5.247   2.539  1.3300  3.2161  0.6933
  128OSM    C2S13623   2.705   5.292   2.433 -0.2447 -0.0865  0.8793
  128OSM    H2S13624   2.810   5.290   2.469  0.6150 -1.9415 -1.4526
  128OSM    C3S13625   2.666   5.442   2.436 -0.9722 -0.1381 -1.0077
  128OSM    H3S13626   2.560   5.454   2.405 -1.3366  2.9492  1.0343
  128OSM     O313627   2.738   5.533   2.356 -0.0732 -0.2508  0.1336
  128OSM    HO313628   2.807   5.474   2.323 -1.2185 -1.6140  0.0894
  128OSM    C4S13629   2.653   5.502   2.573  0.2189 -0.1048 -0.4837
  128OSM    H4S13630   2.546   5.519   2.593 -0.1259 -1.1909 -1.2817
  128OSM    C5S13631   2.752   5.545   2.655 -0.1946 -0.5740  0.5507
  128OSM    H5S13632   2.849   5.547   2.604 -0.4207 -0.8449  0.1051
  128OSM    C6S13633   2.738   5.619   2.784  0.2485 -0.0292 -0.3432
  128OSM    H6S13634   2.638   5.666   2.795  0.6031  0.6331  0.2037
  128OSM    H6T13635   2.811   5.703   2.778  0.5635 -0.1732  1.0686
  128OSM    C7S13636   2.785   5.540   2.907  0.1995 -0.4928 -0.4543
  128OSM    H7S13637   2.777   5.619   2.985  0.3451 -0.5955 -0.3333
  128OSM    H7T13638   2.895   5.524   2.901  0.2013 -0.4308 -0.5853
  128OSM    C8S13639   2.702   5.419   2.947  0.3992  0.1921  0.8430
  128OSM    H8S13640   2.744   5.337   2.885 -3.0208  0.8556 -2.7496
  128OSM    H8T13641   2.597   5.424   2.910  0.1318 -0.0375  1.5455
  128OSM    C9S13642   2.689   5.383   3.096 -0.1810  0.2340  0.5581
  128OSM    H9S13643   2.790   5.369   3.140  0.2853  0.0223 -0.5520
  128OSM    H9T13644   2.637   5.286   3.097 -0.1810  0.1883 -0.8471
  128OSM   C10S13645   2.621   5.485   3.191 -0.7419  0.3930  0.1876
  128OSM   H10S13646   2.536   5.535   3.139 -0.1625  1.6987  0.4419
  128OSM   H10T13647   2.692   5.565   3.221 -0.9368  0.4864  0.4079
  128OSM   C11S13648   2.574   5.414   3.317 -0.0277  0.0902  1.0600
  128OSM   H11S13649   2.571   5.493   3.395 -2.8809  1.1175  0.0322
  128OSM   H11T13650   2.640   5.328   3.339 -1.0466 -0.7050  1.0635
  128OSM   C12S13651   2.430   5.361   3.329  0.7235  0.3341  0.6057
  128OSM   H12S13652   2.418   5.284   3.250 -0.0036 -1.6631  2.5741
  128OSM   H12T13653   2.357   5.442   3.309  1.4042  0.6635 -0.7349
  128OSM   C13S13654   2.400   5.285   3.456  0.5652  0.1457  0.2029
  128OSM   H13S13655   2.449   5.186   3.445 -1.0410 -0.6342 -0.2596
  128OSM   H13T13656   2.292   5.262   3.465  0.1115  1.6486 -0.9392
  128OSM   C14S13657   2.452   5.352   3.581 -0.5469  0.0792 -0.1820
  128OSM   H14S13658   2.441   5.463   3.581 -1.7673 -0.0260  0.3832
  128OSM   H14T13659   2.558   5.319   3.589 -0.9605 -0.8330  2.2221
  128OSM   C15S13660   2.385   5.306   3.706 -0.0784 -0.1591 -0.5370
  128OSM   H15S13661   2.397   5.196   3.717  0.2065  0.0746  2.2510
  128OSM   H15T13662   2.281   5.342   3.693 -0.2079 -0.9768 -1.9919
  128OSM   C16S13663   2.443   5.362   3.839  0.7033  0.2138 -0.5302
  128OSM   H16S13664   2.358   5.349   3.909  1.9890 -0.2578  1.0243
  128OSM   H16T13665   2.475   5.468   3.849  0.4836  0.2124  0.2543
  128OSM   C17S13666   2.556   5.271   3.884  0.5705 -1.1995 -0.1550
  128OSM   H17S13667   2.650   5.302   3.834 -0.1676  1.5995  0.0449
  128OSM   H17T13668   2.526   5.164   3.876 -1.7712 -0.4754 -2.0262
  128OSM   C18S13669   2.595   5.301   4.029 -0.0001  0.1397 -0.2548
  128OSM   H18S13670   2.506   5.323   4.091  0.0876 -1.2076  0.3808
  128OSM   H18T13671   2.659   5.391   4.043 -0.0834  0.0465  0.8774
  128OSM   H18U13672   2.648   5.213   4.072  0.4090  0.5066  0.0027
  128OSM    C1F13673   2.650   5.084   2.554  0.6465  0.2802  0.1742
  128OSM     OF13674   2.767   5.043   2.545  0.2879 -0.0552  0.1249
  128OSM    C2F13675   2.536   5.002   2.613 -0.8382  0.6688 -0.0189
  128OSM    H2F13676   2.578   4.899   2.623 -2.2291 -0.2151 -2.5119
  128OSM    H2G13677   2.451   4.999   2.542 -0.1509 -0.7310 -0.8309
  128OSM    C3F13678   2.490   5.058   2.745  0.8686 -0.3473 -0.3924
  128OSM    H3F13679   2.401   5.000   2.779 -2.0592  2.7725 -2.0436
  128OSM    H3G13680   2.452   5.162   2.734  0.0758 -0.8181 -2.7552
  128OSM    C4F13681   2.592   5.063   2.858 -0.3179  0.7664  0.0963
  128OSM    H4F13682   2.569   5.142   2.932 -0.1004  0.0172  0.9791
  128OSM    H4G13683   2.692   5.084   2.815  0.6658  0.1833  1.9947
  128OSM    C5F13684   2.593   4.928   2.934  0.5424  0.3171  0.1008
  128OSM    H5F13685   2.603   4.844   2.862  0.3660  1.6143 -1.4901
  128OSM    H5G13686   2.494   4.919   2.983 -1.2327  1.4665 -2.9861
  128OSM    C6F13687   2.700   4.914   3.040 -0.3939 -0.0896 -0.1452
  128OSM    H6F13688   2.796   4.924   2.984 -1.1692  0.3280 -1.4458
  128OSM    H6G13689   2.697   4.811   3.081 -3.7483  0.1901  0.5813
  128OSM    C7F13690   2.670   5.009   3.157 -0.1793  0.3155  0.0196
  128OSM    H7F13691   2.560   5.018   3.165 -0.1546  0.0177  0.6772
  128OSM    H7G13692   2.722   5.106   3.139 -2.6624  1.2510 -2.9647
  128OSM    C8F13693   2.734   4.952   3.289 -0.5129  0.0078  0.4849
  128OSM    H8F13694   2.692   4.852   3.313 -0.0079  0.0160  1.4893
  128OSM    H8G13695   2.694   5.012   3.375 -2.5700  0.2678 -0.5825
  128OSM    C9F13696   2.881   4.936   3.293 -0.3146 -0.3335 -0.4054
  128OSM    H9F13697   2.926   4.842   3.256  1.5207  0.8665 -1.3545
  128OSM   C10F13698   2.963   5.031   3.337  0.0805 -0.0140 -0.2394
  128OSM   H10F13699   3.073   5.029   3.331  0.1009  1.7518 -1.0264
  128OSM   C11F13700   2.919   5.161   3.410  0.3072 -0.2520  1.0542
  128OSM   H11F13701   2.812   5.186   3.394  0.7408  1.2689  0.3529
  128OSM   H11G13702   2.965   5.249   3.361  1.0010 -1.1963 -0.0401
  128OSM   C12F13703   2.946   5.141   3.555 -0.0195  0.0253  0.4402
  128OSM   H12F13704   3.054   5.127   3.578  0.2360 -1.5550 -1.4410
  128OSM   H12G13705   2.897   5.045   3.583 -0.6399  0.6486  1.5710
  128OSM   C13F13706   2.887   5.249   3.649 -0.6307  0.4705 -0.4405
  128OSM   H13F13707   2.777   5.257   3.630 -0.2481  0.9026 -2.8113
  128OSM   H13G13708   2.944   5.338   3.615  0.5047 -0.8467 -2.1659
  128OSM   C14F13709   2.924   5.232   3.796 -1.0939 -0.3569 -0.3982
  128OSM   H14F13710   2.881   5.324   3.842  1.0144  0.3209  0.3507
  128OSM   H14G13711   3.034   5.243   3.810 -1.2203 -0.2566  0.6640
  128OSM   C15F13712   2.873   5.103   3.860  0.0176  0.4756  0.9126
  128OSM   H15F13713   2.915   5.011   3.813 -0.6241  0.6624 -0.0421
  128OSM   H15G13714   2.764   5.099   3.840  0.1121  1.5068  0.0914
  128OSM   C16F13715   2.905   5.099   4.011 -0.1847  0.6283 -0.2443
  128OSM   H16F13716   2.890   5.197   4.063 -0.5143 -0.2325  1.3614
  128OSM   H16G13717   3.012   5.080   4.034 -0.5400 -0.9417  0.1953
  128OSM   C17F13718   2.828   4.995   4.090  0.1066  0.1282 -0.4251
  128OSM   H17F13719   2.844   4.896   4.043 -1.4891 -1.4427  2.0996
  128OSM   H17G13720   2.718   5.010   4.086 -0.4370 -0.7753  4.7294
  128OSM   C18F13721   2.870   4.988   4.241 -0.4538  0.0520  0.3435
  128OSM   H18F13722   2.848   5.090   4.280 -2.3407  0.3442 -1.3151
  128OSM   H18G13723   2.978   4.964   4.238 -0.2426  0.3570  2.9539
  128OSM   H18H13724   2.823   4.906   4.299 -1.1934 -0.1290 -0.4866
  129OSM      N13725   4.698   4.958   2.224  0.0585 -0.3003  0.1684
  129OSM    C1513726   4.848   4.928   2.230 -0.9956  0.4221  0.6971
  129OSM   H15A13727   4.892   4.885   2.141  1.9992 -0.1973  2.3127
  129OSM   H15B13728   4.868   4.847   2.299 -1.2929  1.0119  1.5030
  129OSM   H15C13729   4.905   5.016   2.256 -1.3587  1.0299 -0.5231
  129OSM    C1413730   4.682   5.073   2.128 -0.4272  0.7361  0.2316
  129OSM   H14A13731   4.706   5.047   2.026 -0.8379  0.3316  0.2399
  129OSM   H14B13732   4.750   5.154   2.152  1.3557 -0.4785 -0.4825
  129OSM   H14C13733   4.583   5.116   2.130  0.1851  2.2466 -0.4524
  129OSM    C1313734   4.623   4.846   2.161  0.6933  0.1654 -0.7708
  129OSM   H13A13735   4.523   4.867   2.126  0.0444 -1.0218  0.2754
  129OSM   H13B13736   4.622   4.771   2.238 -0.1648 -0.8512 -1.7416
  129OSM   H13C13737   4.670   4.803   2.074 -0.3635 -1.0141 -0.7793
  129OSM    C1213738   4.642   4.998   2.357 -0.1048  0.2409  0.1723
  129OSM   H12A13739   4.538   5.018   2.338 -0.2961 -0.8822 -0.0710
  129OSM   H12B13740   4.692   5.087   2.394  0.1076 -1.2039  3.8263
  129OSM    C1113741   4.654   4.901   2.473 -0.0950  0.0227 -0.2981
  129OSM   H11A13742   4.636   4.939   2.576  1.1890 -1.2887  0.4534
  129OSM   H11B13743   4.760   4.867   2.482  0.7581  2.4745 -0.1569
  129OSM      P13744   4.419   4.787   2.479 -0.2255 -0.0966  0.0698
  129OSM    O1313745   4.355   4.901   2.412  0.3110  0.2305  1.2021
  129OSM    O1413746   4.346   4.658   2.470  0.0510 -0.0211  0.0109
  129OSM    O1113747   4.424   4.832   2.632  0.2859 -0.3510  0.7695
  129OSM    O1213748   4.573   4.783   2.435  0.6588  0.5215  0.1849
  129OSM    C1S13749   4.490   4.748   2.731 -0.6448 -0.2551  0.4164
  129OSM    H1S13750   4.594   4.726   2.699 -0.7971 -0.3768 -0.0118
  129OSM    H1T13751   4.430   4.655   2.736 -0.2600 -0.5868 -0.7522
  129OSM     NF13752   4.562   4.725   2.967  0.7126  0.5283  0.0640
  129OSM    HNF13753   4.506   4.660   3.018  2.4503 -0.4338  0.8370
  129OSM    C2S13754   4.489   4.811   2.871  0.7234 -0.3360  0.0825
  129OSM    H2S13755   4.546   4.906   2.860 -0.2344 -0.0187 -3.0589
  129OSM    C3S13756   4.351   4.865   2.913 -0.0246 -0.2202  0.1947
  129OSM    H3S13757   4.279   4.781   2.922 -0.2290  0.0662  1.4599
  129OSM     O313758   4.279   4.944   2.820  0.2788 -0.2383  1.1864
  129OSM    HO313759   4.335   4.937   2.743  1.9437 -1.4549  2.4177
  129OSM    C4S13760   4.344   4.937   3.049  0.0383  0.4664  0.9623
  129OSM    H4S13761   4.338   4.868   3.134 -1.8300 -0.9934 -0.2650
  129OSM    C5S13762   4.342   5.067   3.067 -0.3712 -0.0072 -0.3111
  129OSM    H5S13763   4.358   5.140   2.986 -0.3283  1.0219  0.5988
  129OSM    C6S13764   4.338   5.116   3.211 -0.2447  0.6655 -0.1974
  129OSM    H6S13765   4.256   5.191   3.218 -1.7947 -1.0724  1.0193
  129OSM    H6T13766   4.434   5.167   3.233 -0.1317  1.9951 -3.2309
  129OSM    C7S13767   4.295   5.037   3.335 -0.8731 -0.0037  0.1748
  129OSM    H7S13768   4.376   4.963   3.358  0.3238  0.9713 -0.7710
  129OSM    H7T13769   4.201   4.982   3.314  0.3139 -1.8995 -0.5128
  129OSM    C8S13770   4.298   5.129   3.462  0.3156  0.3276  0.5666
  129OSM    H8S13771   4.225   5.211   3.444  0.1082 -0.3141 -1.8191
  129OSM    H8T13772   4.397   5.177   3.477  0.2561 -0.0477  2.4573
  129OSM    C9S13773   4.266   5.052   3.590 -0.3714 -0.7566 -0.1710
  129OSM    H9S13774   4.337   4.967   3.577 -1.7738 -1.7903 -1.4852
  129OSM    H9T13775   4.166   5.003   3.587  0.0754 -2.0435  2.6397
  129OSM   C10S13776   4.282   5.122   3.726  0.3448 -0.0599  0.7488
  129OSM   H10S13777   4.210   5.206   3.733 -1.6189 -1.5118 -1.0753
  129OSM   H10T13778   4.381   5.174   3.726 -0.4937  1.6298 -0.0879
  129OSM   C11S13779   4.281   5.036   3.851 -0.1576 -0.1721 -0.0488
  129OSM   H11S13780   4.351   4.951   3.834 -1.4931 -1.2605 -0.2876
  129OSM   H11T13781   4.181   4.993   3.874  0.5364 -2.2786 -0.7524
  129OSM   C12S13782   4.328   5.121   3.981  0.3907 -0.1931 -0.1329
  129OSM   H12S13783   4.245   5.191   4.008 -0.1390 -0.2111 -1.5879
  129OSM   H12T13784   4.418   5.184   3.963 -1.1592  2.4307  0.7013
  129OSM   C13S13785   4.349   5.024   4.104 -0.0444  0.2253  0.2247
  129OSM   H13S13786   4.403   4.933   4.071 -2.2561 -0.4392 -1.8852
  129OSM   H13T13787   4.246   4.992   4.131  0.2257 -2.1420 -1.3315
  129OSM   C14S13788   4.426   5.086   4.226 -0.1196  0.2178  0.3534
  129OSM   H14S13789   4.389   5.184   4.262  1.3205 -0.1421  3.0880
  129OSM   H14T13790   4.529   5.103   4.191  0.2067 -1.3821  0.4647
  129OSM   C15S13791   4.423   5.000   4.357  0.3669  0.8160 -0.2743
  129OSM   H15S13792   4.396   4.902   4.313 -2.4574  0.4039  2.0729
  129OSM   H15T13793   4.344   5.048   4.418  0.9378  1.5683 -0.1047
  129OSM   C16S13794   4.545   4.985   4.438 -0.2712  0.3385  0.1749
  129OSM   H16S13795   4.572   5.089   4.463 -2.5628  1.5610 -2.0255
  129OSM   H16T13796   4.628   4.955   4.370 -0.5793  1.0929 -0.5558
  129OSM   C17S13797   4.523   4.881   4.551 -0.6493 -0.2041 -0.6871
  129OSM   H17S13798   4.508   4.778   4.510  0.3231 -0.2963 -0.8385
  129OSM   H17T13799   4.441   4.919   4.614 -0.0824 -0.4884  0.2404
  129OSM   C18S13800   4.635   4.867   4.655  0.1371  0.2402 -0.5972
  129OSM   H18S13801   4.717   4.801   4.618  0.1675  0.2780 -0.5970
  129OSM   H18T13802   4.591   4.818   4.744  1.4889 -3.0559 -1.5718
  129OSM   H18U13803   4.669   4.970   4.682 -0.6701  0.1420  0.8858
  129OSM    C1F13804   4.701   4.714   2.969  0.2706  0.0597  1.0394
  129OSM     OF13805   4.780   4.792   2.917 -0.2269  0.4595  0.4776
  129OSM    C2F13806   4.740   4.588   3.048 -0.3539 -0.3999  0.5635
  129OSM    H2F13807   4.750   4.503   2.978  0.0670 -1.0420  1.3807
  129OSM    H2G13808   4.667   4.553   3.124  1.2853 -3.4642  0.8921
  129OSM    C3F13809   4.869   4.591   3.120 -0.2393  0.1178 -0.3815
  129OSM    H3F13810   4.879   4.672   3.195  0.9763 -0.4250  0.0568
  129OSM    H3G13811   4.946   4.614   3.043 -0.7644  1.0030 -0.6591
  129OSM    C4F13812   4.905   4.449   3.171  0.1555 -0.4164  0.5139
  129OSM    H4F13813   4.914   4.377   3.087 -0.5214 -1.0037  0.9364
  129OSM    H4G13814   4.830   4.411   3.243  1.3595 -1.4525  1.2650
  129OSM    C5F13815   5.045   4.431   3.237  0.1861 -0.5138 -0.1773
  129OSM    H5F13816   5.119   4.460   3.159  1.2887  4.5813  2.3457
  129OSM    H5G13817   5.059   4.326   3.269  1.2289 -0.5495 -0.7080
  129OSM    C6F13818   5.077   4.525   3.352  0.0029 -0.6664  0.0625
  129OSM    H6F13819   5.096   4.625   3.308  0.7027 -1.6172 -1.9332
  129OSM    H6G13820   5.165   4.488   3.409 -0.8841 -2.5432  0.2866
  129OSM    C7F13821   4.963   4.552   3.452  0.7781  0.3692 -0.3045
  129OSM    H7F13822   4.943   4.456   3.504 -1.4459  0.8072 -0.2432
  129OSM    H7G13823   4.863   4.559   3.405  0.4583 -0.8212  0.1686
  129OSM    C8F13824   4.981   4.671   3.543  0.4833  0.1003 -0.1531
  129OSM    H8F13825   4.890   4.671   3.607  0.3702  1.8864 -0.2749
  129OSM    H8G13826   4.975   4.766   3.485  0.0962 -0.0993 -0.4445
  129OSM    C9F13827   5.097   4.660   3.632 -0.1441 -0.2634  0.1007
  129OSM    H9F13828   5.181   4.728   3.611  2.1213 -2.6884  0.7392
  129OSM   C10F13829   5.104   4.584   3.747  0.3833 -1.3914  0.2854
  129OSM   H10F13830   5.199   4.572   3.800  0.2847 -1.0277  0.5470
  129OSM   C11F13831   4.994   4.495   3.805  0.3582 -0.2563 -0.0098
  129OSM   H11F13832   4.915   4.485   3.727 -2.7779  2.3475  2.5248
  129OSM   H11G13833   4.948   4.537   3.897  1.8729  3.7137 -0.8328
  129OSM   C12F13834   5.043   4.357   3.829 -0.4293  0.9478  0.2752
  129OSM   H12F13835   5.109   4.330   3.744 -0.8955  2.5917 -0.6609
  129OSM   H12G13836   4.949   4.298   3.822  0.3424 -0.1362 -1.4756
  129OSM   C13F13837   5.118   4.336   3.962  0.1100  0.6859 -0.8595
  129OSM   H13F13838   5.219   4.381   3.955  0.0009  0.6736 -3.6526
  129OSM   H13G13839   5.140   4.227   3.969 -0.1350  0.6825  0.0352
  129OSM   C14F13840   5.051   4.384   4.092 -0.0251 -0.1606  0.2771
  129OSM   H14F13841   4.946   4.349   4.088 -0.7141  1.3226  3.1581
  129OSM   H14G13842   5.053   4.494   4.081  0.3528  0.1107  2.5673
  129OSM   C15F13843   5.128   4.337   4.210  0.6335  0.2994 -0.0021
  129OSM   H15F13844   5.237   4.351   4.196  0.8141  1.2496  2.0141
  129OSM   H15G13845   5.109   4.228   4.223  3.7310 -0.3288  0.0460
  129OSM   C16F13846   5.107   4.415   4.333 -0.0369 -0.1668 -0.3287
  129OSM   H16F13847   5.006   4.454   4.359  0.5548  0.6119  0.8770
  129OSM   H16G13848   5.155   4.513   4.312 -0.4701 -0.3247 -2.2369
  129OSM   C17F13849   5.167   4.347   4.456  1.0301  0.2670  0.5743
  129OSM   H17F13850   5.277   4.358   4.452  0.9618  0.7324 -0.1970
  129OSM   H17G13851   5.136   4.240   4.462  2.6048 -0.1588  1.6142
  129OSM   C18F13852   5.115   4.413   4.587 -0.4624  0.1924 -0.0839
  129OSM   H18F13853   5.005   4.402   4.599 -0.4029  1.1263  1.8400
  129OSM   H18G13854   5.144   4.520   4.598 -1.6436  0.4292  0.9876
  129OSM   H18H13855   5.173   4.354   4.662  2.2540  0.4280 -1.8392
  130OSM      N13856   4.280   2.237   1.672 -0.6056  0.1914 -0.7032
  130OSM    C1513857   4.349   2.110   1.717  0.8360  0.3847 -0.7717
  130OSM   H15A13858   4.283   2.056   1.783  2.3029  0.7319  1.0861
  130OSM   H15B13859   4.442   2.132   1.767  1.0592  1.8476 -1.7745
  130OSM   H15C13860   4.374   2.040   1.638  1.5833 -1.3982  0.9577
  130OSM    C1413861   4.329   2.287   1.550 -0.7219 -0.3128 -0.0075
  130OSM   H14A13862   4.429   2.328   1.557 -1.1152  0.3975  1.8236
  130OSM   H14B13863   4.274   2.373   1.516  1.0554  1.0232  0.3185
  130OSM   H14C13864   4.329   2.215   1.469 -1.9069 -0.1664 -0.1573
  130OSM    C1313865   4.142   2.197   1.651  0.8322 -0.5295  0.4769
  130OSM   H13A13866   4.076   2.283   1.643 -0.0394 -1.0362  1.9027
  130OSM   H13B13867   4.101   2.148   1.737  2.5302  0.8266  2.1491
  130OSM   H13C13868   4.126   2.137   1.563  1.0720  0.4021 -0.2204
  130OSM    C1213869   4.289   2.339   1.787  0.4228  0.2213 -0.1630
  130OSM   H12A13870   4.393   2.359   1.808  0.0318  3.9126 -1.0590
  130OSM   H12B13871   4.249   2.305   1.882  1.2544  2.8746  1.2237
  130OSM    C1113872   4.230   2.478   1.760 -0.1270 -0.3022 -0.3089
  130OSM   H11A13873   4.271   2.521   1.666 -2.2105 -1.5789 -1.8900
  130OSM   H11B13874   4.260   2.543   1.845 -0.3328  1.8975 -1.8620
  130OSM      P13875   3.976   2.523   1.830 -0.4181  0.3092  0.3280
  130OSM    O1313876   3.961   2.669   1.804  0.3060  0.0378 -0.2004
  130OSM    O1413877   3.867   2.437   1.796  0.2265 -0.8517  0.0265
  130OSM    O1113878   4.006   2.503   1.988 -0.0163  0.0122  0.2980
  130OSM    O1213879   4.093   2.463   1.742  0.0312  0.1859 -0.0341
  130OSM    C1S13880   3.945   2.579   2.086 -0.0541 -0.1356 -0.2874
  130OSM    H1S13881   3.853   2.522   2.110 -0.8950  0.7500 -1.2958
  130OSM    H1T13882   3.910   2.679   2.054 -0.7028 -0.3765 -0.3516
  130OSM     NF13883   3.947   2.624   2.318  0.7574  0.2151 -0.3869
  130OSM    HNF13884   3.962   2.716   2.354  1.0209 -0.0972  0.3079
  130OSM    C2S13885   4.030   2.587   2.218  0.8569  0.0340  0.5105
  130OSM    H2S13886   4.075   2.487   2.236 -1.8128 -1.4126 -0.2711
  130OSM    C3S13887   4.160   2.676   2.194 -0.2171 -0.9512  0.1710
  130OSM    H3S13888   4.122   2.779   2.202  0.3510 -0.7755  0.6908
  130OSM     O313889   4.221   2.666   2.064 -0.4078 -0.2023 -0.0185
  130OSM    HO313890   4.172   2.604   2.008  1.7170  0.1329 -2.4433
  130OSM    C4S13891   4.267   2.657   2.298  0.2526 -0.4061 -0.0867
  130OSM    H4S13892   4.288   2.550   2.316  2.0739  0.3004  2.5378
  130OSM    C5S13893   4.345   2.748   2.361 -0.1533 -0.5756  0.0582
  130OSM    H5S13894   4.331   2.854   2.336 -0.4557 -0.8184 -0.8440
  130OSM    C6S13895   4.451   2.710   2.467  0.4801  0.4653  0.0081
  130OSM    H6S13896   4.555   2.704   2.431  1.0690  1.2812  1.4599
  130OSM    H6T13897   4.436   2.606   2.503  0.5575  0.7765  0.9941
  130OSM    C7S13898   4.436   2.802   2.586 -0.0354  0.2184  0.1888
  130OSM    H7S13899   4.329   2.809   2.617  0.1568  1.5131  0.6108
  130OSM    H7T13900   4.460   2.902   2.545 -2.7832  0.8757 -0.0417
  130OSM    C8S13901   4.529   2.767   2.702  0.6076 -0.5426  0.5486
  130OSM    H8S13902   4.635   2.792   2.685  0.7894 -2.2753 -1.2510
  130OSM    H8T13903   4.545   2.658   2.716  1.2077 -0.4398  0.6544
  130OSM    C9S13904   4.472   2.842   2.824 -0.3778 -0.1756  0.2093
  130OSM    H9S13905   4.374   2.799   2.854 -0.0794  0.0118  1.5019
  130OSM    H9T13906   4.455   2.951   2.806  0.6657 -0.0042  0.2018
  130OSM   C10S13907   4.571   2.824   2.943 -0.2194 -0.0029  0.0131
  130OSM   H10S13908   4.526   2.881   3.027  1.2449  2.5650 -0.8373
  130OSM   H10T13909   4.673   2.863   2.919 -0.1766  0.4632  0.9162
  130OSM   C11S13910   4.591   2.686   2.994  0.4463 -0.0488 -0.0545
  130OSM   H11S13911   4.668   2.632   2.936 -0.0546 -1.1289  0.2750
  130OSM   H11T13912   4.500   2.622   2.984  1.9852 -2.1305 -1.6016
  130OSM   C12S13913   4.630   2.688   3.138  0.2605 -0.6938  0.1886
  130OSM   H12S13914   4.565   2.755   3.198  0.5997 -1.4436  1.4099
  130OSM   H12T13915   4.735   2.721   3.152  0.6847 -1.4006 -1.1384
  130OSM   C13S13916   4.627   2.554   3.201 -0.2317  0.7852 -0.1452
  130OSM   H13S13917   4.675   2.480   3.134 -2.2522 -0.2975 -0.5046
  130OSM   H13T13918   4.517   2.536   3.206 -0.3414  1.3895 -0.2870
  130OSM   C14S13919   4.681   2.551   3.349  0.2104 -0.1231  0.5062
  130OSM   H14S13920   4.791   2.566   3.349  0.3670 -0.9693 -1.5962
  130OSM   H14T13921   4.673   2.457   3.408 -2.3096 -0.2170  0.1085
  130OSM   C15S13922   4.625   2.663   3.431 -0.7532 -0.0235  0.1312
  130OSM   H15S13923   4.517   2.665   3.407 -0.9526 -0.7285  0.9236
  130OSM   H15T13924   4.674   2.759   3.403  1.9933 -1.4957 -0.5095
  130OSM   C16S13925   4.649   2.660   3.586  0.5639  0.1734 -0.1905
  130OSM   H16S13926   4.753   2.623   3.598 -0.0795 -1.4841  0.5847
  130OSM   H16T13927   4.583   2.583   3.631  2.1775  0.5943  3.2641
  130OSM   C17S13928   4.631   2.798   3.646  0.1686 -0.0297  0.4628
  130OSM   H17S13929   4.721   2.860   3.628  0.6038  0.1162  2.7687
  130OSM   H17T13930   4.626   2.784   3.756  0.4608 -1.1460  0.3556
  130OSM   C18S13931   4.498   2.868   3.610  0.5696 -0.3773  0.0139
  130OSM   H18S13932   4.487   2.877   3.500  1.9162  2.9842  0.0263
  130OSM   H18T13933   4.501   2.971   3.653  4.0495 -0.8721  1.2906
  130OSM   H18U13934   4.408   2.818   3.650 -0.1156 -0.3687 -1.4660
  130OSM    C1F13935   3.864   2.538   2.378  0.4994 -0.4272 -0.3553
  130OSM     OF13936   3.851   2.424   2.344 -0.4987  0.5606  0.4406
  130OSM    C2F13937   3.788   2.584   2.503 -0.3419 -0.3697 -0.6227
  130OSM    H2F13938   3.819   2.688   2.528 -0.3842 -0.7937  1.3607
  130OSM    H2G13939   3.809   2.519   2.591 -3.2959  0.4333  0.8072
  130OSM    C3F13940   3.638   2.575   2.491 -0.5040  0.2160 -0.4814
  130OSM    H3F13941   3.597   2.473   2.471 -0.4438  0.3499 -1.2877
  130OSM    H3G13942   3.601   2.639   2.409  0.5338  4.3237  1.9628
  130OSM    C4F13943   3.553   2.626   2.613  0.7124  0.1599 -0.6604
  130OSM    H4F13944   3.613   2.619   2.706  0.2972  0.9119 -0.3307
  130OSM    H4G13945   3.462   2.563   2.623  0.0757  1.4385  3.8335
  130OSM    C5F13946   3.505   2.769   2.585 -0.6020 -0.0164  0.2815
  130OSM    H5F13947   3.466   2.772   2.481  0.9766 -2.9109 -0.4961
  130OSM    H5G13948   3.603   2.822   2.581  0.1088 -1.3433 -0.7161
  130OSM    C6F13949   3.404   2.831   2.686  0.1334  0.1158 -0.0283
  130OSM    H6F13950   3.431   2.816   2.793  0.1845 -0.9273 -0.1731
  130OSM    H6G13951   3.301   2.797   2.663 -0.1450  1.8215 -1.5157
  130OSM    C7F13952   3.390   2.987   2.673  0.2977 -0.4369 -0.2985
  130OSM    H7F13953   3.358   3.023   2.573 -2.0042 -1.1850  0.1153
  130OSM    H7G13954   3.481   3.038   2.712 -0.6146 -1.4362  3.5517
  130OSM    C8F13955   3.268   3.029   2.760 -0.1911 -0.4864  0.7259
  130OSM    H8F13956   3.274   3.001   2.868  1.3384 -0.6405  0.6213
  130OSM    H8G13957   3.177   2.983   2.718 -0.9902  1.5899  0.0763
  130OSM    C9F13958   3.237   3.181   2.746 -0.1088 -0.2888 -0.0622
  130OSM    H9F13959   3.282   3.234   2.662  0.2970 -0.8585 -0.2098
  130OSM   C10F13960   3.167   3.254   2.836 -0.0855 -0.7392  0.5838
  130OSM   H10F13961   3.164   3.364   2.829  0.3976 -0.8246 -1.9369
  130OSM   C11F13962   3.093   3.216   2.957  0.8275  0.3640  0.1596
  130OSM   H11F13963   3.042   3.117   2.955 -0.0595  0.8156  0.0441
  130OSM   H11G13964   2.998   3.273   2.951 -0.3822 -1.6280 -0.5023
  130OSM   C12F13965   3.136   3.224   3.104 -0.0968  0.4879 -0.4113
  130OSM   H12F13966   3.211   3.306   3.115  0.5640  0.1034 -1.8607
  130OSM   H12G13967   3.203   3.137   3.120  0.2653  1.0750  1.6107
  130OSM   C13F13968   3.025   3.248   3.212 -0.3502  0.1466  0.0688
  130OSM   H13F13969   2.941   3.178   3.195 -0.5896 -0.2330  2.4141
  130OSM   H13G13970   2.979   3.350   3.207  0.5651  0.6451  1.3359
  130OSM   C14F13971   3.080   3.230   3.352 -0.1204 -0.1423  0.1585
  130OSM   H14F13972   3.170   3.295   3.355 -0.7945  0.8132  0.1268
  130OSM   H14G13973   3.098   3.121   3.363 -2.5389 -0.6639 -0.5908
  130OSM   C15F13974   2.997   3.276   3.472  0.2652  0.0388  0.2909
  130OSM   H15F13975   2.900   3.224   3.462  0.3039 -0.2033  1.0847
  130OSM   H15G13976   2.962   3.381   3.464 -2.8435 -0.8250  1.0863
  130OSM   C16F13977   3.057   3.242   3.610  0.5716 -0.1679  0.3334
  130OSM   H16F13978   3.006   3.304   3.687  1.3759  0.7532  0.1436
  130OSM   H16G13979   3.165   3.269   3.604  0.8236 -1.0499  0.6075
  130OSM   C17F13980   3.043   3.095   3.654  0.0075 -0.5038  0.1242
  130OSM   H17F13981   3.113   3.029   3.599 -2.0933 -0.6254 -2.6102
  130OSM   H17G13982   2.940   3.065   3.629  0.4888 -0.7945 -1.6874
  130OSM   C18F13983   3.068   3.075   3.802  0.3738  0.6846 -0.1875
  130OSM   H18F13984   3.164   3.113   3.843 -0.4143  1.4003  1.0633
  130OSM   H18G13985   3.056   2.969   3.831 -0.9122  0.7161 -0.5768
  130OSM   H18H13986   2.990   3.123   3.865 -1.9162 -3.9444  0.9111
  131OSM      N13987   2.134   5.619   2.110 -0.1873 -0.5374  0.7018
  131OSM    C1513988   2.057   5.502   2.151 -0.2390  0.4727  0.3103
  131OSM   H15A13989   2.001   5.466   2.066  0.0313  2.7521 -0.9225
  131OSM   H15B13990   1.984   5.533   2.224 -1.1176 -1.8004  0.4780
  131OSM   H15C13991   2.122   5.423   2.185  0.4521  0.3939 -1.1244
  131OSM    C1413992   2.214   5.576   1.992 -0.0620  0.3424 -0.1781
  131OSM   H14A13993   2.154   5.553   1.906  0.7953 -1.2017 -0.4076
  131OSM   H14B13994   2.272   5.487   2.014 -1.3565 -0.9829 -1.8361
  131OSM   H14C13995   2.289   5.650   1.968  0.1450  0.1439 -0.1547
  131OSM    C1313996   2.053   5.735   2.052 -0.3941 -0.7345  0.0339
  131OSM   H13A13997   1.993   5.778   2.132  0.8216 -0.3621  0.7785
  131OSM   H13B13998   1.989   5.714   1.968 -0.8017 -0.2693  0.2188
  131OSM   H13C13999   2.119   5.817   2.031  0.1915 -0.6944  1.8250
  131OSM    C1214000   2.225   5.663   2.227 -0.7033  0.0277  0.3446
  131OSM   H12A14001   2.224   5.595   2.310  0.5763  1.9307  2.0153
  131OSM   H12B14002   2.173   5.749   2.268 -1.0643  0.6542 -1.3300
  131OSM    C1114003   2.375   5.701   2.202  0.7345  0.3000 -0.2492
  131OSM   H11A14004   2.429   5.619   2.150 -0.2950 -0.8358  0.4037
  131OSM   H11B14005   2.429   5.712   2.298 -1.6482  0.8508  1.1191
  131OSM      P14006   2.375   5.960   2.169  0.2281 -0.0763  0.0399
  131OSM    O1314007   2.496   6.037   2.121 -0.1124 -0.0210 -0.0506
  131OSM    O1414008   2.243   6.012   2.116 -0.5122 -0.3911  0.6072
  131OSM    O1114009   2.376   5.961   2.326 -0.1295 -0.8443  0.2807
  131OSM    O1214010   2.388   5.815   2.126 -0.3811  0.6497  0.3911
  131OSM    C1S14011   2.452   6.062   2.391  0.1306  0.3794  0.4493
  131OSM    H1S14012   2.422   6.164   2.359  1.5696  0.8866  0.6319
  131OSM    H1T14013   2.562   6.051   2.377 -0.0139 -1.7240  0.6054
  131OSM     NF14014   2.459   6.195   2.597  0.6474  0.1437  0.3471
  131OSM    HNF14015   2.554   6.211   2.623  1.4444 -3.3943  0.1435
  131OSM    C2S14016   2.430   6.056   2.544  0.2050 -0.4450 -1.0701
  131OSM    H2S14017   2.323   6.037   2.569  0.5801  0.7973  1.8384
  131OSM    C3S14018   2.508   5.955   2.615 -0.3767 -0.3017 -0.4108
  131OSM    H3S14019   2.616   5.979   2.608 -0.8389  2.5172  0.8042
  131OSM     O314020   2.491   5.825   2.560  0.0252  0.2761 -0.2887
  131OSM    HO314021   2.434   5.834   2.483 -2.0662  0.8050  1.2158
  131OSM    C4S14022   2.488   5.958   2.764 -0.1279  0.4043 -0.0928
  131OSM    H4S14023   2.541   6.041   2.812  2.6057 -0.2130 -1.8027
  131OSM    C5S14024   2.437   5.862   2.838  0.7560  0.0841 -0.4797
  131OSM    H5S14025   2.417   5.771   2.780  3.6824 -0.4152 -0.8665
  131OSM    C6S14026   2.427   5.856   2.987 -0.0661 -0.5836 -0.3580
  131OSM    H6S14027   2.439   5.956   3.035 -0.7876 -1.0656  0.8914
  131OSM    H6T14028   2.509   5.793   3.027 -0.2566 -0.4482  0.2568
  131OSM    C7S14029   2.302   5.787   3.028 -0.1293  0.4279 -0.4828
  131OSM    H7S14030   2.317   5.679   3.010 -0.8768  0.3418 -0.6237
  131OSM    H7T14031   2.215   5.813   2.965 -1.5462 -2.4422  0.1625
  131OSM    C8S14032   2.270   5.797   3.181  0.1525 -0.3595 -0.0089
  131OSM    H8S14033   2.229   5.897   3.209 -0.5442 -1.6349  4.3090
  131OSM    H8T14034   2.359   5.780   3.245 -0.4999 -0.5242  0.8724
  131OSM    C9S14035   2.165   5.693   3.220  0.3680  0.1348 -0.5216
  131OSM    H9S14036   2.211   5.592   3.209  1.3757  0.3278  1.5496
  131OSM    H9T14037   2.069   5.695   3.163  0.4264 -1.7688 -0.7434
  131OSM   C10S14038   2.116   5.705   3.364  0.1353 -0.3466 -1.2956
  131OSM   H10S14039   2.040   5.632   3.398  0.6981  0.6032  2.5612
  131OSM   H10T14040   2.060   5.801   3.376  0.2202 -0.5640  1.5792
  131OSM   C11S14041   2.209   5.694   3.479 -0.1900  0.5323  1.2110
  131OSM   H11S14042   2.281   5.777   3.462  1.8361 -1.3959 -0.1744
  131OSM   H11T14043   2.275   5.605   3.467 -1.2228 -0.5905  3.2554
  131OSM   C12S14044   2.144   5.693   3.620  0.2638  0.2667 -0.0247
  131OSM   H12S14045   2.078   5.603   3.621 -0.0874  0.5205  0.8883
  131OSM   H12T14046   2.076   5.781   3.629 -1.7313 -1.2576  0.4675
  131OSM   C13S14047   2.245   5.685   3.737  0.3668 -0.0976 -1.0310
  131OSM   H13S14048   2.315   5.770   3.726  0.8511 -0.0978  1.4430
  131OSM   H13T14049   2.296   5.587   3.729 -0.6005 -0.7385  0.2175
  131OSM   C14S14050   2.173   5.707   3.868 -0.0484  0.0760 -0.1046
  131OSM   H14S14051   2.127   5.609   3.894  0.5987 -0.1007  0.4048
  131OSM   H14T14052   2.100   5.790   3.855  1.0800  1.0253 -0.5541
  131OSM   C15S14053   2.268   5.745   3.987  0.5022 -0.7624 -0.0171
  131OSM   H15S14054   2.304   5.849   3.972 -1.1217 -0.1805  0.0046
  131OSM   H15T14055   2.347   5.667   4.001 -1.2648 -2.8987 -1.2694
  131OSM   C16S14056   2.190   5.746   4.119  0.1779 -0.5871  0.0644
  131OSM   H16S14057   2.122   5.834   4.126 -1.3702 -1.7897  0.5601
  131OSM   H16T14058   2.269   5.761   4.195  2.9106 -3.2556 -1.9865
  131OSM   C17S14059   2.125   5.614   4.161  0.1017 -0.1565  0.5097
  131OSM   H17S14060   2.026   5.608   4.110  0.6432 -0.4005 -0.5519
  131OSM   H17T14061   2.092   5.625   4.266 -2.3862  0.9322 -0.3072
  131OSM   C18S14062   2.211   5.488   4.147  0.2069  0.5087 -0.1028
  131OSM   H18S14063   2.154   5.400   4.184  2.1272 -0.2566  1.2036
  131OSM   H18T14064   2.301   5.496   4.212 -0.7892 -0.7068  1.5006
  131OSM   H18U14065   2.237   5.458   4.043 -0.4030 -2.1184  0.4192
  131OSM    C1F14066   2.367   6.289   2.582  0.1391 -0.3120  0.2375
  131OSM     OF14067   2.255   6.263   2.536  0.5678  0.3948 -0.0800
  131OSM    C2F14068   2.408   6.426   2.612 -0.9964  0.4861 -0.8245
  131OSM    H2F14069   2.389   6.498   2.530 -1.5815  1.3819  0.0786
  131OSM    H2G14070   2.518   6.432   2.623 -0.7775 -2.3657 -0.6526
  131OSM    C3F14071   2.343   6.486   2.743 -0.2420 -0.1247  0.0366
  131OSM    H3F14072   2.235   6.491   2.716  0.0246  1.0897 -0.9020
  131OSM    H3G14073   2.386   6.586   2.765 -1.6791  0.2218  1.4795
  131OSM    C4F14074   2.353   6.397   2.864 -0.0297 -0.0685  0.0073
  131OSM    H4F14075   2.310   6.295   2.848  0.2539 -0.2359  0.3053
  131OSM    H4G14076   2.293   6.433   2.950  0.9170  0.0306  0.6326
  131OSM    C5F14077   2.499   6.388   2.918  0.0496 -0.2460 -0.6108
  131OSM    H5F14078   2.551   6.486   2.907  0.7283 -0.7140 -1.8076
  131OSM    H5G14079   2.562   6.312   2.866  1.0711  0.7835 -0.9155
  131OSM    C6F14080   2.502   6.368   3.073  0.2318 -0.1372 -0.6997
  131OSM    H6F14081   2.458   6.458   3.120  0.5514 -0.3573  0.0436
  131OSM    H6G14082   2.604   6.349   3.114  0.2488 -0.4928 -0.8966
  131OSM    C7F14083   2.414   6.252   3.116 -0.3952 -0.4766 -0.7918
  131OSM    H7F14084   2.430   6.165   3.050 -0.5871 -1.3907  0.3382
  131OSM    H7G14085   2.305   6.276   3.118 -0.1915  0.4987  1.3143
  131OSM    C8F14086   2.442   6.208   3.259 -0.5595 -0.3717 -0.0730
  131OSM    H8F14087   2.546   6.171   3.274 -1.0657 -1.0633  2.0389
  131OSM    H8G14088   2.377   6.118   3.269 -0.4926 -0.6992 -2.0828
  131OSM    C9F14089   2.416   6.307   3.371 -0.3364 -0.4203 -0.2551
  131OSM    H9F14090   2.419   6.415   3.352 -2.2230 -0.3447 -0.3237
  131OSM   C10F14091   2.406   6.268   3.498  0.6598 -0.0309 -0.2219
  131OSM   H10F14092   2.384   6.346   3.572  1.0487 -0.4160  0.3088
  131OSM   C11F14093   2.413   6.125   3.554  0.2883 -0.2591  0.6419
  131OSM   H11F14094   2.516   6.083   3.541  1.3045  2.8353 -3.5093
  131OSM   H11G14095   2.341   6.061   3.500  0.6596 -0.5674  0.5055
  131OSM   C12F14096   2.380   6.104   3.703  0.3988 -0.1257  0.0898
  131OSM   H12F14097   2.402   5.999   3.733  0.3448  0.1278  1.0460
  131OSM   H12G14098   2.272   6.121   3.722 -0.2724 -2.2458 -1.3691
  131OSM   C13F14099   2.466   6.194   3.794  0.4065  0.7485 -0.9187
  131OSM   H13F14100   2.453   6.160   3.899 -0.6617  1.4467 -0.8065
  131OSM   H13G14101   2.418   6.294   3.786 -0.3587  0.8915  3.3711
  131OSM   C14F14102   2.620   6.190   3.771  0.0698  0.8325 -0.0741
  131OSM   H14F14103   2.657   6.264   3.696  1.1434 -1.1936 -1.6424
  131OSM   H14G14104   2.640   6.089   3.729 -1.6121  0.5121 -0.1710
  131OSM   C15F14105   2.697   6.214   3.894  0.6663  0.4555  0.2689
  131OSM   H15F14106   2.683   6.136   3.971  1.0073 -0.2137 -0.3390
  131OSM   H15G14107   2.652   6.311   3.924  0.0304 -0.3979  2.2071
  131OSM   C16F14108   2.849   6.224   3.858  0.7138  0.1544  0.4020
  131OSM   H16F14109   2.886   6.132   3.808  3.5941 -0.2954  3.0118
  131OSM   H16G14110   2.908   6.228   3.953  2.7158  0.8634 -0.7987
  131OSM   C17F14111   2.876   6.341   3.760 -0.7881 -0.0966 -0.2548
  131OSM   H17F14112   2.812   6.430   3.777  1.2659  1.4283 -0.1719
  131OSM   H17G14113   2.866   6.291   3.661  1.9132 -0.2039 -0.5367
  131OSM   C18F14114   3.024   6.381   3.767  0.2813 -0.0557 -0.0670
  131OSM   H18F14115   3.047   6.437   3.860  0.2799  0.0002 -0.1000
  131OSM   H18G14116   3.042   6.450   3.681 -1.6085 -0.8136 -1.1499
  131OSM   H18H14117   3.092   6.294   3.763  2.8166  1.6362  2.4178
  132OSM      N14118   0.531   5.177   1.911  0.0808  0.1421 -0.5252
  132OSM    C1514119   0.607   5.046   1.888 -0.4963  0.0250  0.3934
  132OSM   H15A14120   0.585   5.008   1.789  0.5635  0.1034  0.1109
  132OSM   H15B14121   0.593   4.971   1.963 -1.4614 -1.6596 -1.3858
  132OSM   H15C14122   0.711   5.075   1.878 -0.3075 -0.7664 -0.0079
  132OSM    C1414123   0.564   5.267   1.787 -0.3149 -0.8918  0.2929
  132OSM   H14A14124   0.529   5.369   1.792  0.5168 -0.4319 -1.9002
  132OSM   H14B14125   0.517   5.227   1.698 -0.4951 -0.8443  0.3657
  132OSM   H14C14126   0.670   5.254   1.773 -0.4869 -2.2419  0.1174
  132OSM    C1314127   0.384   5.151   1.892 -0.0928 -0.8924 -0.4405
  132OSM   H13A14128   0.372   5.085   1.807  1.5351 -0.2237 -1.2286
  132OSM   H13B14129   0.326   5.241   1.878  0.1885 -0.8038 -1.0914
  132OSM   H13C14130   0.340   5.096   1.974 -0.3358 -1.1370 -0.7313
  132OSM    C1214131   0.570   5.257   2.032 -0.5039 -0.0356 -0.3235
  132OSM   H12A14132   0.678   5.263   2.028 -0.5885  1.3396 -1.7192
  132OSM   H12B14133   0.555   5.197   2.120 -0.0261 -0.1248 -0.2974
  132OSM    C1114134   0.521   5.402   2.054  0.4168  0.8130  0.1145
  132OSM   H11A14135   0.561   5.459   1.968  0.3750 -1.7083 -1.6997
  132OSM   H11B14136   0.562   5.438   2.151  0.8952  0.6824 -0.0360
  132OSM      P14137   0.306   5.383   2.187 -0.0077 -0.0244 -0.3250
  132OSM    O1314138   0.155   5.388   2.175  0.1655 -0.2269  0.4780
  132OSM    O1414139   0.355   5.254   2.250  0.2798 -0.3105  0.6517
  132OSM    O1114140   0.361   5.506   2.274  0.1119 -0.4602  0.4735
  132OSM    O1214141   0.377   5.406   2.047 -0.2567 -0.2394  0.0365
  132OSM    C1S14142   0.304   5.559   2.388  0.7986  0.3965  0.0455
  132OSM    H1S14143   0.193   5.553   2.381  0.7495  2.4315 -3.7818
  132OSM    H1T14144   0.323   5.667   2.405  0.8804  0.2882  0.6520
  132OSM     NF14145   0.285   5.548   2.627  0.3733 -0.4858 -0.7820
  132OSM    HNF14146   0.330   5.622   2.676  0.0341 -1.0424  0.4041
  132OSM    C2S14147   0.368   5.507   2.515  0.2244  0.1777  0.3873
  132OSM    H2S14148   0.365   5.396   2.514 -0.5769  0.1665 -1.5578
  132OSM    C3S14149   0.516   5.552   2.525 -0.4760  0.0206 -0.1140
  132OSM    H3S14150   0.510   5.662   2.538 -1.7145 -0.2099  1.6909
  132OSM     O314151   0.606   5.512   2.417  0.4595  0.0615 -0.3529
  132OSM    HO314152   0.542   5.520   2.346 -0.1755 -2.3768 -0.1521
  132OSM    C4S14153   0.578   5.512   2.659 -0.8110 -0.1023 -0.5860
  132OSM    H4S14154   0.596   5.600   2.723 -1.4246  1.0097 -1.8999
  132OSM    C5S14155   0.614   5.388   2.694  0.2311  0.4247 -1.1191
  132OSM    H5S14156   0.582   5.312   2.621 -1.6492 -0.9686  1.0391
  132OSM    C6S14157   0.666   5.334   2.832 -0.2979 -0.1237  0.1594
  132OSM    H6S14158   0.776   5.321   2.820 -0.7289 -2.7046 -1.8861
  132OSM    H6T14159   0.635   5.229   2.850  1.1136 -0.5084  0.5044
  132OSM    C7S14160   0.630   5.423   2.949 -0.0354 -0.7396 -0.6634
  132OSM    H7S14161   0.520   5.437   2.942  0.2217  0.5666 -2.9097
  132OSM    H7T14162   0.680   5.522   2.958 -0.6775 -0.4692  0.0777
  132OSM    C8S14163   0.658   5.362   3.082  0.4112 -0.3645  0.0311
  132OSM    H8S14164   0.743   5.425   3.116  0.0262  0.3843 -0.3541
  132OSM    H8T14165   0.685   5.255   3.075  1.9526 -0.1337  1.5039
  132OSM    C9S14166   0.534   5.386   3.174 -0.2579  0.2459  0.5256
  132OSM    H9S14167   0.458   5.312   3.142  1.3170 -1.0027 -0.5059
  132OSM    H9T14168   0.497   5.491   3.162 -0.5876 -0.0799 -1.9331
  132OSM   C10S14169   0.559   5.352   3.327  0.1577  0.2660  0.1269
  132OSM   H10S14170   0.571   5.242   3.340 -0.6527  0.0532 -0.8046
  132OSM   H10T14171   0.463   5.379   3.376  0.8380  1.7725  0.6703
  132OSM   C11S14172   0.676   5.428   3.381 -0.4156 -1.0010  1.1092
  132OSM   H11S14173   0.669   5.533   3.346 -0.5969 -1.6963 -1.0531
  132OSM   H11T14174   0.774   5.391   3.344  0.7251  1.2248  1.7152
  132OSM   C12S14175   0.705   5.429   3.526 -0.0784  0.1598 -0.1151
  132OSM   H12S14176   0.806   5.472   3.542  0.9968 -2.3810  0.4292
  132OSM   H12T14177   0.717   5.322   3.553  0.5426  0.3495  0.3890
  132OSM   C13S14178   0.595   5.482   3.617 -0.3062  0.2184 -0.0577
  132OSM   H13S14179   0.494   5.455   3.581  0.0039  2.1381 -2.6618
  132OSM   H13T14180   0.579   5.592   3.621 -1.8817  0.1069 -1.8382
  132OSM   C14S14181   0.619   5.430   3.762 -0.5070 -0.2407 -0.2300
  132OSM   H14S14182   0.716   5.455   3.810 -0.5656  0.4093 -0.4447
  132OSM   H14T14183   0.620   5.319   3.761 -1.4511 -0.2622 -0.0608
  132OSM   C15S14184   0.501   5.468   3.857  1.1471 -0.2816  0.0478
  132OSM   H15S14185   0.411   5.418   3.816  1.3990 -1.4492  0.8818
  132OSM   H15T14186   0.502   5.579   3.870 -1.7025 -0.1953  0.0133
  132OSM   C16S14187   0.506   5.400   3.993 -0.0875  0.0498 -0.3454
  132OSM   H16S14188   0.538   5.295   3.980  0.7065 -0.0458  2.0085
  132OSM   H16T14189   0.401   5.401   4.028 -0.7462 -0.4400 -2.1773
  132OSM   C17S14190   0.593   5.471   4.096 -0.9104  0.1918  0.5314
  132OSM   H17S14191   0.566   5.577   4.115 -0.3680  0.0402  2.2923
  132OSM   H17T14192   0.691   5.479   4.044 -1.4247  1.9563 -0.2545
  132OSM   C18S14193   0.606   5.375   4.215  0.2269 -0.0887  0.3482
  132OSM   H18S14194   0.655   5.434   4.295  2.5996 -0.1053 -0.9954
  132OSM   H18T14195   0.661   5.282   4.191  3.1983  1.3986  0.9637
  132OSM   H18U14196   0.507   5.343   4.253  0.3858 -2.4114 -1.0007
  132OSM    C1F14197   0.159   5.507   2.652  0.2771 -0.3353 -0.2348
  132OSM     OF14198   0.089   5.451   2.567 -0.1847  0.2724  0.1485
  132OSM    C2F14199   0.099   5.551   2.785  0.0945  0.1637  0.7878
  132OSM    H2F14200  -0.010   5.529   2.793 -0.6786  3.4563  0.5996
  132OSM    H2G14201   0.121   5.658   2.804 -0.4432  0.1007  1.8732
  132OSM    C3F14202   0.171   5.480   2.906  1.1297 -0.1856 -0.3229
  132OSM    H3F14203   0.281   5.494   2.900  1.0940  1.0002  1.1829
  132OSM    H3G14204   0.141   5.372   2.908 -0.9904  0.3324 -1.0185
  132OSM    C4F14205   0.104   5.532   3.036  0.0946  0.1346 -0.8116
  132OSM    H4F14206   0.003   5.486   3.038 -0.0476  0.3065  3.2893
  132OSM    H4G14207   0.076   5.639   3.044 -1.3720 -0.2825 -0.0407
  132OSM    C5F14208   0.195   5.502   3.160  0.2700  0.7387  0.2090
  132OSM    H5F14209   0.295   5.549   3.145 -0.3268  1.9611 -0.0693
  132OSM    H5G14210   0.206   5.392   3.156  0.6260  0.7511  0.6525
  132OSM    C6F14211   0.137   5.546   3.293  0.3051  0.2825 -1.0748
  132OSM    H6F14212   0.040   5.492   3.306  0.6429 -0.8521 -2.8903
  132OSM    H6G14213   0.101   5.651   3.286 -0.7329 -0.1221 -2.2033
  132OSM    C7F14214   0.223   5.531   3.420  0.0681 -0.0795  0.0972
  132OSM    H7F14215   0.317   5.587   3.402 -0.6124  1.8421  2.0712
  132OSM    H7G14216   0.247   5.423   3.428 -0.0640  0.0033  2.1908
  132OSM    C8F14217   0.153   5.572   3.548 -0.4167  0.4039  0.6288
  132OSM    H8F14218   0.202   5.528   3.638  1.4300 -0.0963 -0.5504
  132OSM    H8G14219   0.051   5.531   3.533  0.3005 -0.6523 -2.0152
  132OSM    C9F14220   0.165   5.724   3.548  0.7262  0.9000 -0.0202
  132OSM    H9F14221   0.091   5.781   3.489  0.6850  0.6703 -0.1887
  132OSM   C10F14222   0.223   5.800   3.643 -1.1470 -0.5796  0.5232
  132OSM   H10F14223   0.225   5.909   3.628 -0.7738 -0.8458 -1.7302
  132OSM   C11F14224   0.305   5.741   3.759 -0.2588  0.6243 -0.4841
  132OSM   H11F14225   0.387   5.812   3.783  2.5683 -2.2368 -0.8632
  132OSM   H11G14226   0.364   5.653   3.725 -0.8645  0.3973 -0.9656
  132OSM   C12F14227   0.226   5.719   3.885  0.2381  0.4021 -0.2348
  132OSM   H12F14228   0.269   5.629   3.935 -1.1647 -0.3911 -0.4182
  132OSM   H12G14229   0.125   5.684   3.855 -0.2156 -0.8988  2.4631
  132OSM   C13F14230   0.216   5.843   3.979  0.4423  0.2016 -0.0429
  132OSM   H13F14231   0.191   5.933   3.918 -0.5995  0.0037  0.0750
  132OSM   H13G14232   0.319   5.869   4.013  0.4025  1.3957 -0.7399
  132OSM   C14F14233   0.122   5.825   4.097  0.3429 -0.0681 -0.0358
  132OSM   H14F14234   0.160   5.737   4.154  0.1898  0.9702  1.7263
  132OSM   H14G14235   0.012   5.816   4.081  0.5441  1.9000 -3.4002
  132OSM   C15F14236   0.150   5.942   4.199 -0.1128  0.1771 -0.6304
  132OSM   H15F14237   0.106   6.038   4.163 -2.2922 -0.4349  0.2783
  132OSM   H15G14238   0.261   5.945   4.195 -0.0801 -1.1926 -1.2330
  132OSM   C16F14239   0.100   5.910   4.348  0.0428  0.0091  0.2836
  132OSM   H16F14240   0.144   5.985   4.417 -2.0138  1.8065 -0.2507
  132OSM   H16G14241   0.142   5.812   4.381 -2.6302 -1.5490 -0.6106
  132OSM   C17F14242  -0.048   5.915   4.366  0.0748 -0.4456  0.0786
  132OSM   H17F14243  -0.107   5.846   4.301  0.4797  0.0720 -0.8557
  132OSM   H17G14244  -0.095   6.015   4.357 -0.0746 -0.4611  0.6381
  132OSM   C18F14245  -0.084   5.881   4.511  0.4891 -0.1583 -0.0287
  132OSM   H18F14246  -0.049   5.781   4.543  2.4666  0.8875  1.3214
  132OSM   H18G14247  -0.193   5.891   4.530  0.2396  2.8050 -2.1632
  132OSM   H18H14248  -0.027   5.949   4.578  1.5232  1.3219 -2.2747
  133OSM      N14249   5.444   0.914   2.007 -0.1833  0.0918  0.2236
  133OSM    C1514250   5.391   0.832   1.899  0.0520  0.3396  0.8993
  133OSM   H15A14251   5.330   0.886   1.829  0.8049  0.3677  0.2504
  133OSM   H15B14252   5.326   0.752   1.931 -1.2193  1.1415  0.3578
  133OSM   H15C14253   5.468   0.790   1.835 -0.2564 -3.0550  2.5324
  133OSM    C1414254   5.535   1.015   1.950 -0.0664  0.6941 -0.1427
  133OSM   H14A14255   5.621   0.970   1.902 -0.7572  1.4948 -2.2474
  133OSM   H14B14256   5.570   1.077   2.031  0.5954 -0.7551  0.7209
  133OSM   H14C14257   5.486   1.083   1.883  0.1283 -0.0970 -1.1082
  133OSM    C1314258   5.323   0.986   2.063 -0.1349 -0.6576 -1.0068
  133OSM   H13A14259   5.253   0.912   2.099 -0.7804  0.7103  0.7359
  133OSM   H13B14260   5.270   1.055   2.000  1.0671  0.5989 -0.6865
  133OSM   H13C14261   5.349   1.046   2.149  0.0179 -0.3667 -1.2539
  133OSM    C1214262   5.510   0.834   2.115  0.2348 -0.2688  0.1304
  133OSM   H12A14263   5.600   0.782   2.086 -0.0495 -1.3387  1.1320
  133OSM   H12B14264   5.447   0.752   2.144  0.8967 -0.1324  2.0570
  133OSM    C1114265   5.556   0.914   2.246  0.3628 -0.2163  0.0242
  133OSM   H11A14266   5.588   0.837   2.320  0.0590 -0.1285  0.2498
  133OSM   H11B14267   5.472   0.971   2.290  0.3656 -0.8523  0.8835
  133OSM      P14268   5.812   0.949   2.228  0.1491 -0.1430 -0.5137
  133OSM    O1314269   5.833   0.825   2.143  0.4697 -0.0473 -1.1247
  133OSM    O1414270   5.890   1.073   2.196  0.1904  0.0967  0.2038
  133OSM    O1114271   5.838   0.915   2.378  0.3730  0.6885 -0.3931
  133OSM    O1214272   5.662   0.996   2.218 -0.4415  0.0025  0.2196
  133OSM    C1S14273   5.867   1.006   2.485 -0.2907  0.5569 -0.3461
  133OSM    H1S14274   5.775   1.032   2.541 -0.2358 -1.8814  1.0152
  133OSM    H1T14275   5.918   1.099   2.452  1.1777  0.6107  1.8875
  133OSM     NF14276   5.978   1.017   2.715  0.2391 -0.4549 -0.2909
  133OSM    HNF14277   6.050   1.080   2.743 -0.0616 -0.8568  1.5279
  133OSM    C2S14278   5.977   0.951   2.585  0.2392 -0.2729  0.3409
  133OSM    H2S14279   5.956   0.844   2.607  1.3089 -0.7523 -0.8772
  133OSM    C3S14280   6.121   0.949   2.526 -0.3312 -0.2656  0.4671
  133OSM    H3S14281   6.145   1.051   2.491 -0.4475 -0.3401  0.1646
  133OSM     O314282   6.114   0.869   2.409 -0.0690  0.3913  0.5171
  133OSM    HO314283   6.023   0.865   2.378 -0.3077 -2.8409  1.3181
  133OSM    C4S14284   6.218   0.900   2.627 -0.7459  0.4915  0.2460
  133OSM    H4S14285   6.270   0.981   2.679  1.2689  0.1369 -1.1143
  133OSM    C5S14286   6.240   0.769   2.661  0.5773  0.4945  0.1241
  133OSM    H5S14287   6.189   0.693   2.600 -0.0581 -1.2346  2.6403
  133OSM    C6S14288   6.333   0.716   2.771  0.5431  0.6427  0.1543
  133OSM    H6S14289   6.402   0.791   2.817  2.6310 -0.8090 -0.4345
  133OSM    H6T14290   6.396   0.651   2.706 -2.3071 -3.6244  1.2649
  133OSM    C7S14291   6.258   0.643   2.886 -0.6730 -0.7270  0.9414
  133OSM    H7S14292   6.331   0.571   2.930 -0.2111 -0.4561  0.6273
  133OSM    H7T14293   6.173   0.588   2.840 -2.5919 -0.3794  3.8119
  133OSM    C8S14294   6.210   0.741   2.995 -0.1949  0.1638  0.6314
  133OSM    H8S14295   6.127   0.801   2.952  0.7679  0.2532 -1.2103
  133OSM    H8T14296   6.286   0.820   3.013 -0.1953  0.4408 -0.5020
  133OSM    C9S14297   6.174   0.666   3.129  0.1727  0.0355 -0.4562
  133OSM    H9S14298   6.268   0.636   3.181 -0.0464 -0.4238 -0.3197
  133OSM    H9T14299   6.113   0.576   3.108 -0.7108  0.6145 -0.4244
  133OSM   C10S14300   6.099   0.762   3.216 -0.2946  0.4002  0.4712
  133OSM   H10S14301   5.997   0.779   3.175 -0.5182  0.7425  1.1538
  133OSM   H10T14302   6.159   0.855   3.212  1.3527 -0.6516 -0.9874
  133OSM   C11S14303   6.098   0.715   3.359  0.4777 -0.0270  0.0993
  133OSM   H11S14304   6.193   0.673   3.399 -0.2384 -1.6814  0.1052
  133OSM   H11T14305   6.031   0.627   3.363 -2.2330  1.8740 -0.6419
  133OSM   C12S14306   6.031   0.817   3.457 -0.5178  0.5159  0.5019
  133OSM   H12S14307   5.946   0.871   3.410  0.0170  1.6300  0.7914
  133OSM   H12T14308   6.113   0.889   3.475 -0.7921  1.9231 -2.9996
  133OSM   C13S14309   5.999   0.761   3.598  1.3445  0.2838 -0.3218
  133OSM   H13S14310   6.092   0.721   3.643  1.8170  1.4249 -0.2622
  133OSM   H13T14311   5.922   0.681   3.587 -0.4944  1.7685  1.1583
  133OSM   C14S14312   5.939   0.867   3.691 -0.6298  0.2012 -0.5914
  133OSM   H14S14313   5.841   0.898   3.648  0.0905  2.0115 -1.0080
  133OSM   H14T14314   6.003   0.957   3.701 -0.6055  0.0223  1.1437
  133OSM   C15S14315   5.916   0.814   3.833  0.1628 -0.7567 -0.2068
  133OSM   H15S14316   5.994   0.739   3.860  0.1289 -0.9098 -0.5251
  133OSM   H15T14317   5.822   0.756   3.829  0.0630 -0.5498 -1.3052
  133OSM   C16S14318   5.903   0.927   3.938  0.2086 -0.2981  0.5004
  133OSM   H16S14319   5.984   1.001   3.918  0.2108 -0.6563 -0.9727
  133OSM   H16T14320   5.922   0.887   4.040  0.4091 -2.4035 -0.3095
  133OSM   C17S14321   5.762   0.991   3.935  0.3587 -0.1838 -0.1060
  133OSM   H17S14322   5.692   0.909   3.962  0.1739  0.4014  1.2644
  133OSM   H17T14323   5.737   1.031   3.834  0.4899 -1.0909 -0.5096
  133OSM   C18S14324   5.740   1.113   4.021  0.1207  0.6839  0.5968
  133OSM   H18S14325   5.744   1.073   4.124 -1.4540 -0.6587  0.1813
  133OSM   H18T14326   5.642   1.160   4.000  1.2859  2.1308 -2.1077
  133OSM   H18U14327   5.817   1.190   4.001  0.4271  0.3628  0.5149
  133OSM    C1F14328   5.879   0.996   2.805 -0.6059  0.5082 -0.1687
  133OSM     OF14329   5.782   0.926   2.776  0.0210 -0.0274 -0.1209
  133OSM    C2F14330   5.900   1.051   2.940 -0.1117 -0.6061  0.0471
  133OSM    H2F14331   5.907   1.161   2.922  1.3543 -0.8607 -1.1642
  133OSM    H2G14332   5.994   1.012   2.985  0.9805  1.7390 -0.0123
  133OSM    C3F14333   5.782   1.026   3.043  0.8027 -0.0087  0.5681
  133OSM    H3F14334   5.757   0.923   3.075 -0.5034  0.5159  1.3067
  133OSM    H3G14335   5.696   1.078   2.996 -0.2384 -0.4940  1.8719
  133OSM    C4F14336   5.804   1.095   3.174 -0.3932  0.7029  0.1382
  133OSM    H4F14337   5.807   1.202   3.143  2.2501  0.0069 -2.5484
  133OSM    H4G14338   5.908   1.079   3.210 -0.0435  0.7960 -0.7854
  133OSM    C5F14339   5.696   1.055   3.280 -0.3442  0.7493  0.5354
  133OSM    H5F14340   5.719   0.957   3.328 -2.4855 -0.2690 -0.3961
  133OSM    H5G14341   5.596   1.061   3.232  0.4817  3.1450 -1.0798
  133OSM    C6F14342   5.711   1.161   3.393 -0.3541  0.0261  0.3390
  133OSM    H6F14343   5.705   1.263   3.349  0.3478 -0.2208 -0.3415
  133OSM    H6G14344   5.810   1.136   3.436  0.2128 -0.0186 -0.9576
  133OSM    C7F14345   5.604   1.153   3.503  0.6611 -0.8194 -0.0637
  133OSM    H7F14346   5.600   1.047   3.535  2.9635 -1.1656 -0.7699
  133OSM    H7G14347   5.505   1.173   3.458  0.9025 -0.6867 -0.5351
  133OSM    C8F14348   5.637   1.239   3.621  0.4005 -1.2781 -0.2887
  133OSM    H8F14349   5.737   1.210   3.658  0.7226 -0.4005 -0.4668
  133OSM    H8G14350   5.564   1.203   3.698  1.9371 -0.4811  1.6150
  133OSM    C9F14351   5.624   1.393   3.588  0.2035  0.4510  0.0217
  133OSM    H9F14352   5.682   1.423   3.499  0.5925  0.8027  0.3905
  133OSM   C10F14353   5.574   1.496   3.657 -0.7719  0.2145 -0.4055
  133OSM   H10F14354   5.572   1.596   3.609 -2.2046 -1.3169 -3.9184
  133OSM   C11F14355   5.498   1.495   3.787  0.2978 -0.2505  0.1035
  133OSM   H11F14356   5.425   1.412   3.793 -0.4912  0.4638  0.6936
  133OSM   H11G14357   5.445   1.593   3.787  0.6798  0.0928  3.6054
  133OSM   C12F14358   5.578   1.508   3.914  0.9312 -0.4637 -0.4996
  133OSM   H12F14359   5.643   1.598   3.910  0.1601  0.2176  1.2296
  133OSM   H12G14360   5.652   1.427   3.933  0.4517 -0.4498  1.6756
  133OSM   C13F14361   5.503   1.515   4.044  0.1500 -0.3523 -0.1920
  133OSM   H13F14362   5.564   1.504   4.136  0.1244 -0.4570 -0.1882
  133OSM   H13G14363   5.430   1.432   4.052 -1.1337  0.8529  1.5034
  133OSM   C14F14364   5.433   1.651   4.052  0.9779 -1.1302 -0.3823
  133OSM   H14F14365   5.350   1.647   3.978  1.6700 -0.6358 -1.2059
  133OSM   H14G14366   5.501   1.737   4.039 -1.5672  1.4268  1.7096
  133OSM   C15F14367   5.367   1.667   4.195 -0.4078 -0.3315 -0.0520
  133OSM   H15F14368   5.446   1.637   4.266  1.0583 -2.6350 -2.4705
  133OSM   H15G14369   5.283   1.594   4.190  1.4372 -2.6330  0.6557
  133OSM   C16F14370   5.326   1.815   4.217  0.1929  0.2007 -1.0645
  133OSM   H16F14371   5.269   1.862   4.134 -0.3361 -0.2681 -0.9766
  133OSM   H16G14372   5.420   1.870   4.238  0.8706 -0.3082 -2.5632
  133OSM   C17F14373   5.239   1.834   4.334 -0.1044 -0.0240 -0.7765
  133OSM   H17F14374   5.280   1.779   4.421  0.1977  1.2246 -0.1035
  133OSM   H17G14375   5.134   1.799   4.320  0.3800 -0.8617 -2.5984
  133OSM   C18F14376   5.230   1.981   4.377  0.1113  0.7090  0.0864
  133OSM   H18F14377   5.166   1.975   4.468 -0.7824 -0.7531 -0.5975
  133OSM   H18G14378   5.184   2.037   4.293  1.3207 -0.6247 -1.5429
  133OSM   H18H14379   5.330   2.005   4.419  0.4772 -0.9735  0.2764
  134OSM      N14380   5.732   2.677   1.812  0.1140  0.3108 -0.5737
  134OSM    C1514381   5.824   2.779   1.750 -0.3740 -0.0724  0.2585
  134OSM   H15A14382   5.770   2.869   1.726  0.7734  0.4462 -0.4737
  134OSM   H15B14383   5.856   2.741   1.654 -1.9048 -0.2621 -0.1931
  134OSM   H15C14384   5.905   2.800   1.818  0.2239 -1.6912  0.1105
  134OSM    C1414385   5.653   2.614   1.699 -0.1022 -0.8525 -0.4024
  134OSM   H14A14386   5.719   2.583   1.620  0.6582 -2.0350  0.6675
  134OSM   H14B14387   5.576   2.683   1.666  0.7001  0.0681 -0.4012
  134OSM   H14C14388   5.597   2.527   1.731 -0.1222 -0.8779 -0.5054
  134OSM    C1314389   5.813   2.575   1.881  0.0799  0.5797  0.7524
  134OSM   H13A14390   5.868   2.514   1.812 -1.0259 -1.4507  1.5674
  134OSM   H13B14391   5.745   2.505   1.928 -1.4880  0.5393 -1.4382
  134OSM   H13C14392   5.879   2.611   1.958  2.8101  3.0039 -2.4405
  134OSM    C1214393   5.633   2.741   1.912 -0.3346  1.0180  0.1020
  134OSM   H12A14394   5.691   2.764   2.000  2.0283 -1.9756 -0.5294
  134OSM   H12B14395   5.562   2.666   1.946 -0.3324  1.6209  1.5174
  134OSM    C1114396   5.549   2.862   1.867 -0.0463 -0.3388 -0.5384
  134OSM   H11A14397   5.463   2.887   1.933 -0.7644  0.2997 -1.6839
  134OSM   H11B14398   5.506   2.828   1.770  1.8845 -1.7690 -0.9437
  134OSM      P14399   5.664   3.068   1.956  0.4356 -0.1163 -0.1417
  134OSM    O1314400   5.783   3.144   1.918  0.2249  0.1942  0.3162
  134OSM    O1414401   5.539   3.138   1.999  0.1915  0.3084  0.1610
  134OSM    O1114402   5.697   2.966   2.076 -0.0182  0.1249 -0.1127
  134OSM    O1214403   5.624   2.975   1.834 -0.9120 -0.2791 -0.4352
  134OSM    C1S14404   5.701   3.035   2.206  0.7117 -0.3094 -0.3324
  134OSM    H1S14405   5.599   3.050   2.246 -0.2033  1.5637 -2.9967
  134OSM    H1T14406   5.777   3.116   2.207  1.8958 -1.3907  0.4174
  134OSM     NF14407   5.720   2.994   2.451  0.1439 -0.1784 -0.6034
  134OSM    HNF14408   5.775   3.068   2.489 -0.7785  0.8011 -1.0953
  134OSM    C2S14409   5.753   2.942   2.320  0.3861 -0.7227 -0.0017
  134OSM    H2S14410   5.697   2.850   2.297 -0.1872 -0.0787 -1.2893
  134OSM    C3S14411   5.909   2.918   2.293  0.5661  0.0183 -0.1907
  134OSM    H3S14412   5.954   3.020   2.291  0.1808  0.2105  0.6187
  134OSM     O314413   5.949   2.857   2.171 -0.0769  0.2358  0.2801
  134OSM    HO314414   5.874   2.875   2.114  0.3148  1.2800  0.0750
  134OSM    C4S14415   5.961   2.837   2.404  0.0276  0.5157 -1.0645
  134OSM    H4S14416   5.897   2.752   2.431 -0.4376  1.2176  0.1097
  134OSM    C5S14417   6.075   2.853   2.477 -0.4972  0.1440  0.6475
  134OSM    H5S14418   6.140   2.935   2.444 -1.2796 -0.2969 -2.2260
  134OSM    C6S14419   6.126   2.766   2.581 -0.6836 -0.3500  0.4135
  134OSM    H6S14420   6.233   2.785   2.603 -0.7392 -0.5435  0.8635
  134OSM    H6T14421   6.130   2.660   2.548 -0.7991 -0.0206 -0.7265
  134OSM    C7S14422   6.034   2.766   2.707 -0.8848  0.6571  0.2761
  134OSM    H7S14423   6.074   2.686   2.773 -2.3909 -0.1798  0.2197
  134OSM    H7T14424   5.934   2.735   2.670 -1.4904  2.4498  0.2817
  134OSM    C8S14425   6.011   2.902   2.774 -0.0416 -0.6049 -0.1879
  134OSM    H8S14426   5.969   2.956   2.687  1.7548 -0.9055 -1.3108
  134OSM    H8T14427   6.108   2.949   2.802  0.4352 -0.5217 -1.8465
  134OSM    C9S14428   5.905   2.904   2.886 -0.0353 -0.2841 -0.3181
  134OSM    H9S14429   5.941   2.858   2.981 -0.9961  0.1821  0.2840
  134OSM    H9T14430   5.817   2.850   2.846  1.2067 -1.5287 -1.4879
  134OSM   C10S14431   5.861   3.045   2.920  0.2468  0.0998 -0.1559
  134OSM   H10S14432   5.776   3.023   2.989 -1.5333  1.2320 -1.8542
  134OSM   H10T14433   5.815   3.104   2.837 -0.9248 -1.2253 -0.4874
  134OSM   C11S14434   5.959   3.138   3.002  0.2929  0.2280  0.2721
  134OSM   H11S14435   5.964   3.237   2.953  0.2340 -0.6855 -1.6735
  134OSM   H11T14436   6.062   3.097   2.995 -0.5479 -1.7694 -1.4342
  134OSM   C12S14437   5.916   3.149   3.149  0.1766  0.0333  0.9383
  134OSM   H12S14438   5.819   3.203   3.162 -1.0217 -1.2442 -1.8825
  134OSM   H12T14439   5.996   3.218   3.184  0.9449  1.1707 -2.6067
  134OSM   C13S14440   5.917   3.017   3.222 -0.4170 -0.0100 -0.0121
  134OSM   H13S14441   5.997   2.949   3.185  1.6869  1.7002  1.1404
  134OSM   H13T14442   5.813   2.981   3.212 -1.2330  1.9741  0.9482
  134OSM   C14S14443   5.945   3.026   3.372 -0.1757 -0.1851  0.3152
  134OSM   H14S14444   5.922   2.924   3.408 -0.6183 -0.5657 -0.9941
  134OSM   H14T14445   5.870   3.092   3.422 -1.3424  0.1627 -1.7587
  134OSM   C15S14446   6.095   3.062   3.405  0.3177  0.7099  0.0217
  134OSM   H15S14447   6.099   3.172   3.388 -1.7271  1.0797  1.5969
  134OSM   H15T14448   6.165   3.012   3.335 -0.0672  0.4136 -0.1494
  134OSM   C16S14449   6.139   3.026   3.550 -0.3879 -0.7028  0.5683
  134OSM   H16S14450   6.249   3.023   3.557 -0.3319 -0.7574 -0.3231
  134OSM   H16T14451   6.101   2.924   3.577 -1.1745 -0.0491  2.0852
  134OSM   C17S14452   6.070   3.122   3.654 -0.4373  0.3830 -0.0397
  134OSM   H17S14453   5.970   3.155   3.619 -1.0498  0.0046  1.2674
  134OSM   H17T14454   6.137   3.210   3.659  0.9979 -0.6954  0.6977
  134OSM   C18S14455   6.048   3.051   3.789  0.4277  0.0909 -0.0933
  134OSM   H18S14456   5.997   2.953   3.787  1.7156 -0.6231  0.7935
  134OSM   H18T14457   5.991   3.127   3.846 -0.8299  1.6075 -3.1487
  134OSM   H18U14458   6.150   3.036   3.831  0.1979 -1.2553  0.0317
  134OSM    C1F14459   5.595   2.984   2.494 -0.2809  0.0566 -0.2990
  134OSM     OF14460   5.520   2.904   2.437  1.2049 -0.0379 -0.1792
  134OSM    C2F14461   5.566   3.051   2.628  0.3294  0.3176 -0.6450
  134OSM    H2F14462   5.589   3.160   2.615  2.0463 -0.1028 -1.5217
  134OSM    H2G14463   5.628   3.016   2.713 -0.4944 -0.5228 -0.3836
  134OSM    C3F14464   5.418   3.045   2.661  0.0150  0.0061  0.0354
  134OSM    H3F14465   5.391   2.941   2.689 -0.1128 -0.1230 -0.5665
  134OSM    H3G14466   5.354   3.063   2.572 -0.3309  1.3082  0.5160
  134OSM    C4F14467   5.363   3.131   2.774 -0.5784  0.0234  0.2397
  134OSM    H4F14468   5.257   3.107   2.797 -0.0639 -0.6436  2.0824
  134OSM    H4G14469   5.388   3.238   2.758  0.1938 -0.0203  1.0523
  134OSM    C5F14470   5.432   3.085   2.905 -0.4165 -0.0616  0.7367
  134OSM    H5F14471   5.542   3.080   2.896 -0.5496  0.6048 -5.1222
  134OSM    H5G14472   5.403   2.979   2.922  0.1965 -0.7262 -1.9148
  134OSM    C6F14473   5.411   3.174   3.024  0.1030  0.2519 -0.1902
  134OSM    H6F14474   5.301   3.172   3.036 -0.1561 -0.1999 -2.1273
  134OSM    H6G14475   5.452   3.275   3.002 -1.1546  1.1465  1.3681
  134OSM    C7F14476   5.497   3.117   3.143  0.3785  0.5950  0.2155
  134OSM    H7F14477   5.599   3.148   3.111  0.0452 -0.3647 -2.0249
  134OSM    H7G14478   5.490   3.006   3.142 -1.1908  0.6150  2.4330
  134OSM    C8F14479   5.466   3.171   3.284  0.0283  0.9417  0.6385
  134OSM    H8F14480   5.362   3.132   3.293  0.3264 -0.7902 -2.0313
  134OSM    H8G14481   5.462   3.280   3.266 -1.5521  0.6034 -1.5930
  134OSM    C9F14482   5.547   3.118   3.398  0.5061 -0.6965 -0.2984
  134OSM    H9F14483   5.651   3.152   3.389 -0.2347  1.7267 -0.2900
  134OSM   C10F14484   5.519   3.064   3.521 -0.4879 -0.4772  0.6978
  134OSM   H10F14485   5.612   3.027   3.568 -0.2163 -1.2709 -0.4082
  134OSM   C11F14486   5.392   3.034   3.594 -0.4236 -0.2781 -0.0506
  134OSM   H11F14487   5.395   2.928   3.627  1.2322 -0.2776 -0.0954
  134OSM   H11G14488   5.305   3.046   3.526 -1.5068  0.7058  1.4426
  134OSM   C12F14489   5.371   3.103   3.726  0.0595  0.0637 -0.8888
  134OSM   H12F14490   5.465   3.100   3.785  0.8545 -1.2843 -2.1674
  134OSM   H12G14491   5.296   3.044   3.783  1.1748  0.2449  0.8741
  134OSM   C13F14492   5.307   3.236   3.727  0.2791  0.1293  0.2891
  134OSM   H13F14493   5.218   3.231   3.661  0.2800 -1.2102  0.3528
  134OSM   H13G14494   5.379   3.298   3.670  2.0649 -0.6285  1.6121
  134OSM   C14F14495   5.266   3.295   3.859 -0.5668  0.5834  0.0646
  134OSM   H14F14496   5.158   3.278   3.880 -0.2583 -2.6383 -0.4504
  134OSM   H14G14497   5.270   3.406   3.849  0.9603  0.5249 -0.1749
  134OSM   C15F14498   5.357   3.263   3.980 -0.0609  0.1004 -0.2521
  134OSM   H15F14499   5.465   3.283   3.967 -0.1219 -0.5081 -1.9124
  134OSM   H15G14500   5.354   3.154   4.002  0.8691  0.2779  0.8461
  134OSM   C16F14501   5.309   3.322   4.107 -0.1257 -0.1749 -0.0045
  134OSM   H16F14502   5.198   3.314   4.112 -0.0050 -1.4626  1.1632
  134OSM   H16G14503   5.331   3.431   4.099  0.5244 -0.2924  0.1328
  134OSM   C17F14504   5.368   3.259   4.229 -0.1899  0.2920 -0.0515
  134OSM   H17F14505   5.479   3.251   4.227 -0.1728  0.0499  1.2084
  134OSM   H17G14506   5.331   3.154   4.232  0.8061 -0.0789 -0.3953
  134OSM   C18F14507   5.317   3.333   4.344  0.3544 -0.3461 -0.2237
  134OSM   H18F14508   5.306   3.442   4.324  0.9679 -0.1558  0.4351
  134OSM   H18G14509   5.392   3.330   4.426 -1.1640 -2.3250  1.2026
  134OSM   H18H14510   5.226   3.278   4.377 -0.5777  0.4315 -1.4247
  135OSM      N14511   1.243   0.840   1.899  0.3044 -0.3597  0.4705
  135OSM    C1514512   1.196   0.951   1.990 -1.3451  0.0937 -0.2170
  135OSM   H15A14513   1.093   0.932   2.018 -1.0011 -0.8815  0.4749
  135OSM   H15B14514   1.206   1.048   1.944  2.0785 -0.9748 -2.0843
  135OSM   H15C14515   1.258   0.945   2.079  0.0799  1.7487 -1.0447
  135OSM    C1414516   1.201   0.711   1.969  0.2387  0.4609  0.4083
  135OSM   H14A14517   1.207   0.637   1.891 -0.2507  0.2733  0.5472
  135OSM   H14B14518   1.099   0.710   2.004 -0.0477  1.5326 -0.3373
  135OSM   H14C14519   1.263   0.680   2.052 -0.9562 -2.4145  0.3065
  135OSM    C1314520   1.161   0.850   1.775  0.3977 -0.9352 -0.6295
  135OSM   H13A14521   1.179   0.941   1.720  0.0478 -0.1867  0.4605
  135OSM   H13B14522   1.056   0.854   1.800  0.0270 -1.2288 -2.0532
  135OSM   H13C14523   1.180   0.760   1.720 -0.8051 -1.7251  0.2115
  135OSM    C1214524   1.392   0.847   1.861  0.3866  0.4638 -0.2195
  135OSM   H12A14525   1.407   0.933   1.797 -0.0818  0.5987 -0.1542
  135OSM   H12B14526   1.425   0.766   1.798  0.9062  0.1130  0.4846
  135OSM    C1114527   1.499   0.858   1.980  0.2033 -0.1030  0.2835
  135OSM   H11A14528   1.464   0.944   2.040  0.5296  0.0633  0.2398
  135OSM   H11B14529   1.605   0.881   1.953  0.1253 -1.6157 -1.5295
  135OSM      P14530   1.556   0.605   1.993 -0.2099  0.2762 -0.5179
  135OSM    O1314531   1.467   0.485   1.997 -0.4294 -0.4505 -0.2169
  135OSM    O1414532   1.613   0.627   1.856  0.7639  0.4419  0.6371
  135OSM    O1114533   1.688   0.574   2.083  0.8105  0.5853 -0.4322
  135OSM    O1214534   1.490   0.740   2.056 -0.3920 -0.3795 -0.2879
  135OSM    C1S14535   1.693   0.594   2.225  0.4300 -0.0719 -0.3255
  135OSM    H1S14536   1.621   0.532   2.283  0.0891  1.8884  1.4576
  135OSM    H1T14537   1.659   0.694   2.257  0.9278  0.6801 -2.0512
  135OSM     NF14538   1.828   0.628   2.421  0.8587  0.4299 -0.0525
  135OSM    HNF14539   1.865   0.715   2.455  0.0442  0.6049  0.4111
  135OSM    C2S14540   1.840   0.582   2.285 -0.2249  1.3007 -0.6968
  135OSM    H2S14541   1.873   0.476   2.286  0.5208  1.5336  0.2943
  135OSM    C3S14542   1.943   0.666   2.208 -0.0091 -0.2606 -0.0197
  135OSM    H3S14543   1.907   0.768   2.235 -2.4160 -1.0622  0.0539
  135OSM     O314544   1.944   0.664   2.065  0.8160 -0.2516  0.0726
  135OSM    HO314545   1.851   0.643   2.052  1.1950 -1.8409 -0.3749
  135OSM    C4S14546   2.085   0.644   2.268 -0.1521  0.2068  0.2422
  135OSM    H4S14547   2.099   0.542   2.304 -1.2424  0.6641  2.0774
  135OSM    C5S14548   2.182   0.733   2.284 -0.8465 -0.1859  0.3037
  135OSM    H5S14549   2.171   0.837   2.248 -0.0567 -1.1401 -3.0607
  135OSM    C6S14550   2.317   0.687   2.333  0.0954  0.2182  0.7738
  135OSM    H6S14551   2.380   0.779   2.325 -1.1210  0.8995 -2.6194
  135OSM    H6T14552   2.360   0.606   2.270 -2.2088 -0.3993 -0.1085
  135OSM    C7S14553   2.320   0.620   2.474  0.3916 -0.3918  0.5267
  135OSM    H7S14554   2.283   0.515   2.474  0.4180 -0.4252 -1.3067
  135OSM    H7T14555   2.250   0.681   2.535  0.1290  0.5980 -0.7343
  135OSM    C8S14556   2.455   0.623   2.546 -0.6515  0.5370  0.8788
  135OSM    H8S14557   2.507   0.718   2.521 -1.3820  0.4643 -1.1626
  135OSM    H8T14558   2.521   0.545   2.501 -1.6715  0.5958 -0.8436
  135OSM    C9S14559   2.449   0.593   2.697  0.3403 -0.2736  0.1941
  135OSM    H9S14560   2.428   0.487   2.722 -2.7505 -0.1154 -1.3334
  135OSM    H9T14561   2.364   0.657   2.730  2.4564  2.2000  1.2564
  135OSM   C10S14562   2.574   0.636   2.770  0.3623 -0.3612 -0.0222
  135OSM   H10S14563   2.540   0.718   2.836  2.2364  0.5824 -0.1681
  135OSM   H10T14564   2.659   0.655   2.701 -0.5437  1.4459 -0.6761
  135OSM   C11S14565   2.633   0.538   2.873 -0.3862  0.3488  0.2058
  135OSM   H11S14566   2.727   0.490   2.837 -0.5638  0.5199 -0.5054
  135OSM   H11T14567   2.547   0.468   2.887 -1.5909  1.5760 -0.7283
  135OSM   C12S14568   2.660   0.593   3.013 -0.0959  0.4355  0.0432
  135OSM   H12S14569   2.561   0.618   3.058 -0.4857 -1.6302  0.4560
  135OSM   H12T14570   2.722   0.684   3.026  1.0940 -0.5150  1.4617
  135OSM   C13S14571   2.718   0.495   3.116  0.6699  0.2495 -0.4121
  135OSM   H13S14572   2.825   0.466   3.109  0.7116  0.5864 -1.1931
  135OSM   H13T14573   2.661   0.400   3.109 -1.9482  1.4105  2.6306
  135OSM   C14S14574   2.699   0.532   3.263  0.3547  0.0639 -0.9403
  135OSM   H14S14575   2.592   0.559   3.276  1.1465  2.0568  2.4695
  135OSM   H14T14576   2.751   0.627   3.286 -3.3867  2.5079 -1.6058
  135OSM   C15S14577   2.716   0.416   3.366 -0.3057 -0.9286  0.5293
  135OSM   H15S14578   2.827   0.409   3.371 -0.1950  0.6871  0.7473
  135OSM   H15T14579   2.684   0.313   3.339  0.7101 -1.2756  0.5931
  135OSM   C16S14580   2.669   0.444   3.513 -0.5166  0.0077  0.5592
  135OSM   H16S14581   2.561   0.473   3.510 -0.1424  1.5537  1.3314
  135OSM   H16T14582   2.729   0.530   3.547  1.1631 -0.3542 -1.3332
  135OSM   C17S14583   2.700   0.320   3.591  0.3636 -0.2189 -0.7332
  135OSM   H17S14584   2.811   0.321   3.596  0.3030  0.2883  1.3454
  135OSM   H17T14585   2.663   0.225   3.545 -0.5923 -1.8599  3.0269
  135OSM   C18S14586   2.649   0.320   3.731 -0.3659  0.1591 -0.3656
  135OSM   H18S14587   2.688   0.399   3.797  1.9379 -0.3913 -0.9628
  135OSM   H18T14588   2.682   0.225   3.778  0.6486 -0.1884 -1.6975
  135OSM   H18U14589   2.538   0.325   3.731 -0.3520  0.4722  0.1332
  135OSM    C1F14590   1.779   0.550   2.513 -0.0652  1.0423 -0.5320
  135OSM     OF14591   1.750   0.434   2.478  0.3725  0.0714  0.6812
  135OSM    C2F14592   1.751   0.609   2.644  0.2380  1.0583  0.2966
  135OSM    H2F14593   1.698   0.705   2.626 -2.5681 -0.2773  0.8672
  135OSM    H2G14594   1.850   0.639   2.684  1.1745 -3.3356  1.9002
  135OSM    C3F14595   1.673   0.526   2.748 -0.3178 -0.2877 -0.4246
  135OSM    H3F14596   1.735   0.436   2.764  2.0818  0.8068 -2.7395
  135OSM    H3G14597   1.576   0.485   2.714  0.2672 -2.9356  0.8760
  135OSM    C4F14598   1.645   0.617   2.868  0.4061  0.0792  0.1360
  135OSM    H4F14599   1.578   0.701   2.839 -0.4236 -0.6834 -0.1662
  135OSM    H4G14600   1.740   0.658   2.910  1.5014 -1.5297 -0.6688
  135OSM    C5F14601   1.580   0.548   2.980 -0.8744 -0.0417 -0.3540
  135OSM    H5F14602   1.634   0.456   3.010 -0.7696 -0.3333 -1.4107
  135OSM    H5G14603   1.484   0.511   2.938 -1.0710  0.1004 -0.0353
  135OSM    C6F14604   1.580   0.623   3.109 -0.4081  0.3279 -0.2454
  135OSM    H6F14605   1.510   0.710   3.112  0.5931  1.1423 -0.0014
  135OSM    H6G14606   1.671   0.678   3.139  0.5058  0.0211 -2.3157
  135OSM    C7F14607   1.529   0.545   3.230  0.0701  0.0406 -0.1268
  135OSM    H7F14608   1.430   0.498   3.216  0.1646 -0.0457 -0.5306
  135OSM    H7G14609   1.521   0.616   3.315 -1.7700 -0.9607  0.5930
  135OSM    C8F14610   1.617   0.426   3.276  0.6099  0.6494 -0.2733
  135OSM    H8F14611   1.646   0.363   3.189 -1.3616  0.8913 -1.1634
  135OSM    H8G14612   1.549   0.363   3.338 -0.2854  0.7102 -1.1582
  135OSM    C9F14613   1.748   0.468   3.337  0.1137 -0.0094  0.1736
  135OSM    H9F14614   1.798   0.545   3.277 -0.4943  0.2290 -0.0339
  135OSM   C10F14615   1.796   0.440   3.464 -0.4126 -0.0801 -0.2524
  135OSM   H10F14616   1.900   0.471   3.485 -0.2253 -1.3724  0.9057
  135OSM   C11F14617   1.732   0.356   3.571  0.6923  0.2351  0.1893
  135OSM   H11F14618   1.624   0.382   3.576  0.1324 -0.8422 -3.3078
  135OSM   H11G14619   1.772   0.384   3.671 -1.3574  1.0856  0.8172
  135OSM   C12F14620   1.727   0.195   3.539 -0.7603 -0.3121  0.0136
  135OSM   H12F14621   1.829   0.151   3.536 -1.3895 -2.1186  2.4216
  135OSM   H12G14622   1.695   0.193   3.433  2.0522  1.4228 -0.9972
  135OSM   C13F14623   1.639   0.125   3.639  0.4571  0.8469 -0.4887
  135OSM   H13F14624   1.616   0.020   3.614 -1.2164  1.3304 -1.1117
  135OSM   H13G14625   1.538   0.171   3.630  0.0642  0.1858  0.4322
  135OSM   C14F14626   1.691   0.137   3.785  0.2929 -0.8015 -0.1245
  135OSM   H14F14627   1.676   0.239   3.827 -0.6505 -1.2181  0.6065
  135OSM   H14G14628   1.801   0.124   3.793  0.4617  1.1827  1.4857
  135OSM   C15F14629   1.618   0.030   3.868  0.6215 -0.3581  0.2546
  135OSM   H15F14630   1.635  -0.073   3.832 -2.3340 -1.2147  1.0167
  135OSM   H15G14631   1.509   0.050   3.860  1.2633  3.9830 -0.0936
  135OSM   C16F14632   1.667   0.036   4.011 -0.3487 -0.3522 -0.3839
  135OSM   H16F14633   1.776   0.048   4.027 -0.6043  0.2371  1.0304
  135OSM   H16G14634   1.638  -0.053   4.070  0.6038  0.3524  1.2046
  135OSM   C17F14635   1.595   0.155   4.090  0.1183 -0.3896  0.1996
  135OSM   H17F14636   1.486   0.144   4.069  0.6166 -2.1622 -1.8123
  135OSM   H17G14637   1.618   0.256   4.048 -0.6723 -0.5833 -0.7452
  135OSM   C18F14638   1.618   0.143   4.239 -0.4604 -0.5401 -0.9466
  135OSM   H18F14639   1.576   0.049   4.280  1.2379 -0.7947  0.3133
  135OSM   H18G14640   1.568   0.230   4.286  2.1080  0.6525 -0.2407
  135OSM   H18H14641   1.726   0.150   4.264 -0.7209  0.2647  0.0580
  136OSM      N14642   2.227   3.084   1.821 -0.0362  0.0850 -0.3016
  136OSM    C1514643   2.307   2.998   1.740  0.0692  0.3574  0.0544
  136OSM   H15A14644   2.281   2.894   1.750 -1.9201  0.9432  1.5635
  136OSM   H15B14645   2.413   3.004   1.761 -0.1915 -1.5229  2.2603
  136OSM   H15C14646   2.303   3.026   1.636 -3.7797  2.3508  0.5818
  136OSM    C1414647   2.285   3.220   1.819  0.1996  0.7436  0.0750
  136OSM   H14A14648   2.234   3.286   1.888  1.0822  0.6639  0.8214
  136OSM   H14B14649   2.275   3.255   1.718  0.9228 -1.8921 -0.9968
  136OSM   H14C14650   2.390   3.208   1.841  0.2142 -1.4927 -0.9478
  136OSM    C1314651   2.094   3.100   1.753 -0.1870 -0.2870  0.2295
  136OSM   H13A14652   2.103   3.156   1.661 -2.4032  0.9424  0.6866
  136OSM   H13B14653   2.021   3.150   1.815 -1.1210  0.9488 -1.7843
  136OSM   H13C14654   2.058   2.999   1.748 -0.1551 -0.5103  3.0694
  136OSM    C1214655   2.206   3.034   1.966  0.1243  0.2799  0.3905
  136OSM   H12A14656   2.301   3.039   2.015  0.9512 -0.9743 -1.0119
  136OSM   H12B14657   2.168   2.933   1.964 -0.0215  0.3279 -1.3130
  136OSM    C1114658   2.119   3.123   2.060 -0.1118  0.3037  0.0929
  136OSM   H11A14659   2.096   3.070   2.155  0.7033  0.7734  0.5648
  136OSM   H11B14660   2.022   3.141   2.009  0.9329  3.5321 -0.9710
  136OSM      P14661   2.337   3.261   2.154  0.3847  0.1946  0.0278
  136OSM    O1314662   2.417   3.142   2.156 -0.2197 -0.3497  0.4095
  136OSM    O1414663   2.390   3.381   2.083 -0.1504 -0.3225 -0.0464
  136OSM    O1114664   2.307   3.293   2.305  0.4649 -0.1722 -0.1992
  136OSM    O1214665   2.189   3.239   2.091  0.6267  0.1109  0.2880
  136OSM    C1S14666   2.229   3.202   2.382 -0.0014  0.4911 -0.1257
  136OSM    H1S14667   2.261   3.097   2.365  4.3525  1.8679 -1.9008
  136OSM    H1T14668   2.120   3.212   2.364 -0.4720 -1.0948  1.5178
  136OSM     NF14669   2.208   3.124   2.618  0.5809 -0.2560  0.0972
  136OSM    HNF14670   2.113   3.130   2.649  1.2366  1.6594  1.9446
  136OSM    C2S14671   2.245   3.240   2.531 -0.3118 -0.3418  0.5243
  136OSM    H2S14672   2.350   3.267   2.557  0.4974 -1.3562 -1.4704
  136OSM    C3S14673   2.180   3.382   2.558  0.0019 -0.5962  0.6748
  136OSM    H3S14674   2.071   3.369   2.542  0.2368 -1.2060 -0.5294
  136OSM     O314675   2.225   3.491   2.465  0.0429  0.4540  0.2241
  136OSM    HO314676   2.276   3.437   2.404  1.7236  0.5224  1.5129
  136OSM    C4S14677   2.176   3.424   2.706 -0.1319 -0.4533  0.3704
  136OSM    H4S14678   2.080   3.405   2.756  0.2973  0.3279  1.5207
  136OSM    C5S14679   2.277   3.486   2.765 -0.3269 -0.2973 -0.6514
  136OSM    H5S14680   2.350   3.515   2.688  1.1279 -0.0996  0.7456
  136OSM    C6S14681   2.295   3.521   2.907 -0.2688 -0.4901 -0.8653
  136OSM    H6S14682   2.248   3.619   2.932 -0.4393 -0.5750 -0.8480
  136OSM    H6T14683   2.405   3.530   2.922 -0.1222  1.1776 -2.5919
  136OSM    C7S14684   2.244   3.412   3.010  0.2268  0.5851  0.1141
  136OSM    H7S14685   2.275   3.306   2.995  0.8576  0.5801  1.3423
  136OSM    H7T14686   2.133   3.414   3.006  0.1768  1.0692  1.4305
  136OSM    C8S14687   2.288   3.438   3.150 -0.7501  0.7314 -0.1171
  136OSM    H8S14688   2.269   3.546   3.171  3.6670  1.5872  0.4523
  136OSM    H8T14689   2.398   3.429   3.159 -0.5688  0.0443 -2.5232
  136OSM    C9S14690   2.216   3.350   3.249  0.2632 -0.3063 -0.3805
  136OSM    H9S14691   2.236   3.242   3.232  1.1852 -0.0309 -1.1577
  136OSM    H9T14692   2.108   3.366   3.226  0.5149  0.3409 -1.1973
  136OSM   C10S14693   2.249   3.396   3.382 -0.2569  0.0589  0.4144
  136OSM   H10S14694   2.235   3.506   3.398  1.2389  0.0980  1.6662
  136OSM   H10T14695   2.356   3.377   3.404  0.5405  2.6205 -0.8024
  136OSM   C11S14696   2.165   3.325   3.481  0.4260 -0.1255  0.5929
  136OSM   H11S14697   2.163   3.216   3.460 -1.1464  0.4439 -2.8342
  136OSM   H11T14698   2.062   3.357   3.451  1.3572  0.8812 -1.7397
  136OSM   C12S14699   2.193   3.366   3.625 -0.0682 -0.2448 -0.0508
  136OSM   H12S14700   2.215   3.474   3.623 -0.5925 -0.0794 -3.2932
  136OSM   H12T14701   2.288   3.320   3.660  0.6625  1.1962 -0.1093
  136OSM   C13S14702   2.082   3.332   3.716  0.9161 -0.3642 -0.2830
  136OSM   H13S14703   2.048   3.229   3.694  0.0679 -0.6893  2.1662
  136OSM   H13T14704   1.994   3.393   3.687  1.4532  1.1487  1.0920
  136OSM   C14S14705   2.114   3.365   3.865 -0.4619  0.3880  1.1103
  136OSM   H14S14706   2.135   3.473   3.871  0.8317  0.2843 -0.6590
  136OSM   H14T14707   2.204   3.313   3.903  0.1541  1.0660  0.6094
  136OSM   C15S14708   1.988   3.332   3.944 -0.2384 -0.3501 -0.2361
  136OSM   H15S14709   1.993   3.223   3.965 -0.1211 -0.1373  0.8951
  136OSM   H15T14710   1.891   3.367   3.905  0.5300  2.1499 -0.0767
  136OSM   C16S14711   1.999   3.397   4.079  0.2701 -0.3049 -0.0516
  136OSM   H16S14712   1.996   3.507   4.067 -2.0922 -0.6105 -4.1690
  136OSM   H16T14713   2.093   3.367   4.130  1.3915 -1.1290 -2.4590
  136OSM   C17S14714   1.881   3.358   4.167 -0.8626  0.9008  0.1344
  136OSM   H17S14715   1.895   3.255   4.207 -0.3510  0.9635  0.1221
  136OSM   H17T14716   1.788   3.359   4.107 -1.5530  0.9325  1.1695
  136OSM   C18S14717   1.872   3.440   4.293 -0.4594 -0.4224  0.0239
  136OSM   H18S14718   1.774   3.412   4.336 -0.2744  1.1792  1.6233
  136OSM   H18T14719   1.866   3.546   4.261 -3.0913 -0.7780 -0.8921
  136OSM   H18U14720   1.963   3.432   4.356  1.0995  1.7736 -1.7578
  136OSM    C1F14721   2.293   3.023   2.637  0.0345 -0.3532  0.3584
  136OSM     OF14722   2.392   3.001   2.566 -0.1065 -0.2172 -0.4275
  136OSM    C2F14723   2.254   2.921   2.739  1.4233  0.2837  0.6765
  136OSM    H2F14724   2.341   2.852   2.732  2.2431  1.3617 -0.0610
  136OSM    H2G14725   2.162   2.864   2.716  1.8454 -0.0960 -0.1304
  136OSM    C3F14726   2.258   2.973   2.886  0.3130  0.3801  0.4692
  136OSM    H3F14727   2.192   3.062   2.890 -0.5407 -0.2656  1.2810
  136OSM    H3G14728   2.359   3.018   2.896  0.5800 -0.2812  0.8520
  136OSM    C4F14729   2.225   2.870   2.993  0.1907 -0.5813 -0.3178
  136OSM    H4F14730   2.241   2.930   3.086 -1.4858  0.3357 -0.5923
  136OSM    H4G14731   2.303   2.791   2.995  0.4915 -0.3120  2.7505
  136OSM    C5F14732   2.077   2.819   2.985  0.4513  0.2580 -0.4074
  136OSM    H5F14733   2.028   2.804   2.886  1.7679 -3.5169 -0.6737
  136OSM    H5G14734   2.006   2.886   3.038  2.4371  0.9777  1.5164
  136OSM    C6F14735   2.079   2.689   3.061  0.0406 -0.1303  0.2129
  136OSM    H6F14736   2.146   2.614   3.012 -1.0443 -0.3490 -0.9944
  136OSM    H6G14737   1.973   2.658   3.059  0.4981 -1.8443 -1.3943
  136OSM    C7F14738   2.119   2.702   3.213 -0.2813  0.1009  0.1211
  136OSM    H7F14739   2.076   2.795   3.256  0.7797  2.0109 -2.6983
  136OSM    H7G14740   2.230   2.707   3.215 -0.2584 -0.4930  0.7657
  136OSM    C8F14741   2.084   2.576   3.289 -0.2437  0.5253  0.8030
  136OSM    H8F14742   2.087   2.489   3.220  0.4123 -0.2240  1.7387
  136OSM    H8G14743   1.976   2.582   3.310 -0.4472  0.6173 -0.2386
  136OSM    C9F14744   2.169   2.565   3.413  0.1746  0.5190 -0.1549
  136OSM    H9F14745   2.277   2.568   3.394  0.7135 -0.7073  2.3706
  136OSM   C10F14746   2.116   2.560   3.536  0.6183  0.4778 -0.0801
  136OSM   H10F14747   2.170   2.568   3.631 -0.2964  1.1202  0.4051
  136OSM   C11F14748   1.966   2.552   3.576  0.2116 -0.3468  0.1373
  136OSM   H11F14749   1.913   2.494   3.498 -1.6010 -1.2383  1.9365
  136OSM   H11G14750   1.923   2.655   3.571 -2.0093 -1.2432 -0.6146
  136OSM   C12F14751   1.933   2.483   3.710  0.3521  0.2294  1.0795
  136OSM   H12F14752   1.979   2.382   3.702  0.9699  0.5461  0.5670
  136OSM   H12G14753   1.823   2.472   3.715  0.2943 -0.4792 -0.9525
  136OSM   C13F14754   1.981   2.544   3.842 -0.5349  0.5733 -0.0435
  136OSM   H13F14755   1.927   2.641   3.853 -0.8824  0.3978 -0.1876
  136OSM   H13G14756   2.091   2.558   3.831 -0.3234 -0.4237  0.6497
  136OSM   C14F14757   1.945   2.469   3.975 -0.2135  0.2278  0.9556
  136OSM   H14F14758   1.974   2.362   3.974 -0.0855  0.2363 -1.2231
  136OSM   H14G14759   1.834   2.459   3.967 -0.0934 -0.4289 -0.1226
  136OSM   C15F14760   1.988   2.555   4.096  0.0792 -0.2468 -0.0291
  136OSM   H15F14761   1.923   2.645   4.101 -0.2068 -0.4801  0.4080
  136OSM   H15G14762   2.093   2.594   4.091 -0.3532  1.0313  0.2993
  136OSM   C16F14763   1.974   2.482   4.234 -0.1951 -0.8211  0.5987
  136OSM   H16F14764   1.878   2.427   4.230 -1.5304  1.3878  0.5346
  136OSM   H16G14765   1.972   2.551   4.321  1.6446 -1.0424  0.8465
  136OSM   C17F14766   2.082   2.374   4.260 -0.0258  0.2188  0.0732
  136OSM   H17F14767   2.184   2.415   4.263 -0.3419  0.9933  3.3325
  136OSM   H17G14768   2.077   2.298   4.178 -2.0123 -1.1911  1.3945
  136OSM   C18F14769   2.058   2.315   4.403 -0.3667 -0.2203  0.8662
  136OSM   H18F14770   2.106   2.215   4.406 -0.3401 -0.1833  1.7209
  136OSM   H18G14771   1.950   2.322   4.429 -0.8472  2.6051 -1.3731
  136OSM   H18H14772   2.104   2.376   4.483  1.2304 -0.2679  0.0099
  137OSM      N14773   2.350   1.747   1.931  0.5892 -0.0321 -0.6315
  137OSM    C1514774   2.493   1.765   1.917 -0.5103  0.0602  0.1732
  137OSM   H15A14775   2.520   1.869   1.912 -0.0460 -0.0509  0.3533
  137OSM   H15B14776   2.530   1.713   1.830 -0.1832  0.2655  0.1912
  137OSM   H15C14777   2.556   1.716   1.990  1.5104  1.2050 -0.7447
  137OSM    C1414778   2.277   1.879   1.932 -0.1189  0.1670  0.1999
  137OSM   H14A14779   2.278   1.935   2.024 -0.5010 -0.6360  0.7038
  137OSM   H14B14780   2.171   1.874   1.910 -0.5362  3.0871  1.0434
  137OSM   H14C14781   2.316   1.952   1.863 -0.4823  0.3670  0.2007
  137OSM    C1314782   2.287   1.673   1.820 -0.1753  0.4756 -0.3356
  137OSM   H13A14783   2.321   1.571   1.825  1.5982  1.0426 -0.1331
  137OSM   H13B14784   2.307   1.727   1.729 -1.8778  3.1296  0.7343
  137OSM   H13C14785   2.180   1.677   1.829 -0.3486 -2.4129 -0.2355
  137OSM    C1214786   2.315   1.689   2.074 -0.2714 -0.0200  0.3466
  137OSM   H12A14787   2.367   1.752   2.145  2.6069 -1.1526 -0.6088
  137OSM   H12B14788   2.363   1.592   2.072 -2.0576 -0.9470 -2.7410
  137OSM    C1114789   2.170   1.675   2.112  0.1492  0.2635  0.6162
  137OSM   H11A14790   2.117   1.772   2.123 -1.2069 -0.3018 -0.5260
  137OSM   H11B14791   2.161   1.624   2.210 -1.4567 -0.1573  0.2764
  137OSM      P14792   1.945   1.605   2.007 -0.1353 -0.1386  0.4696
  137OSM    O1314793   1.914   1.728   1.930 -0.2090  0.5052  0.0531
  137OSM    O1414794   1.891   1.478   1.955 -0.4688 -0.0619  0.9546
  137OSM    O1114795   1.896   1.631   2.147  0.4942 -0.4018  0.2187
  137OSM    O1214796   2.101   1.595   2.011  0.3072  0.3364 -0.0821
  137OSM    C1S14797   1.908   1.524   2.247  0.7740  0.3894 -0.4145
  137OSM    H1S14798   2.004   1.469   2.252 -0.4175 -1.8596 -1.1804
  137OSM    H1T14799   1.827   1.450   2.229 -0.5266  1.3013  1.3285
  137OSM     NF14800   1.879   1.438   2.468  0.2125 -1.0091 -0.4797
  137OSM    HNF14801   1.788   1.409   2.498  0.2468  1.4088  2.3993
  137OSM    C2S14802   1.884   1.566   2.397  0.0714 -0.3392 -0.2926
  137OSM    H2S14803   1.964   1.632   2.436  0.0127 -0.0938 -0.5868
  137OSM    C3S14804   1.746   1.649   2.396 -0.4318  0.4560  0.3023
  137OSM    H3S14805   1.660   1.599   2.348  0.2080 -1.1017  0.7419
  137OSM     O314806   1.744   1.770   2.319  0.1597 -0.1504 -0.2360
  137OSM    HO314807   1.817   1.751   2.259  0.1246 -1.7317  0.1950
  137OSM    C4S14808   1.703   1.689   2.547 -1.0021  1.0691  0.7510
  137OSM    H4S14809   1.618   1.629   2.583  0.8669 -3.3284 -1.4241
  137OSM    C5S14810   1.742   1.796   2.622  0.2168 -0.1501 -0.0963
  137OSM    H5S14811   1.817   1.865   2.582 -0.6494  0.7442 -0.2140
  137OSM    C6S14812   1.682   1.835   2.754 -0.1077 -0.4570  0.7177
  137OSM    H6S14813   1.590   1.897   2.754 -0.4640 -0.9732 -0.3393
  137OSM    H6T14814   1.762   1.892   2.807  2.0013  0.6053 -3.2717
  137OSM    C7S14815   1.642   1.718   2.837 -0.5299 -0.4420  0.0034
  137OSM    H7S14816   1.716   1.635   2.831 -1.9749 -1.7477 -0.3107
  137OSM    H7T14817   1.553   1.663   2.801  0.0527 -1.3713 -0.0585
  137OSM    C8S14818   1.610   1.764   2.981  0.2905 -0.2453 -0.1121
  137OSM    H8S14819   1.528   1.840   2.987  0.0724 -0.4882  0.0069
  137OSM    H8T14820   1.695   1.830   3.006 -0.0920  0.4245 -0.5411
  137OSM    C9S14821   1.586   1.658   3.083 -0.2974 -0.1021  0.0986
  137OSM    H9S14822   1.667   1.583   3.095 -0.1060  0.1838  0.6716
  137OSM    H9T14823   1.513   1.585   3.044  0.8519 -0.6125 -1.1750
  137OSM   C10S14824   1.560   1.716   3.227  0.3399 -0.5128  0.1591
  137OSM   H10S14825   1.454   1.750   3.224 -0.4020 -2.7591 -2.0430
  137OSM   H10T14826   1.633   1.798   3.247 -0.2187 -0.0288  0.2636
  137OSM   C11S14827   1.567   1.610   3.338 -0.2104  0.5276  0.2799
  137OSM   H11S14828   1.672   1.576   3.332 -0.6084 -0.4837 -1.9730
  137OSM   H11T14829   1.492   1.528   3.325 -1.8196  2.0411 -0.4624
  137OSM   C12S14830   1.524   1.675   3.468 -0.3573  0.1350  0.1511
  137OSM   H12S14831   1.422   1.713   3.447 -0.3127 -0.0904 -0.4870
  137OSM   H12T14832   1.594   1.758   3.494  0.3094 -0.6081  0.7998
  137OSM   C13S14833   1.514   1.580   3.593 -0.3615  0.2893  0.2372
  137OSM   H13S14834   1.612   1.536   3.620 -1.4256 -2.1337  0.3394
  137OSM   H13T14835   1.456   1.488   3.571 -0.0268 -0.0732  0.8595
  137OSM   C14S14836   1.450   1.654   3.711  0.0877 -0.2816 -0.0186
  137OSM   H14S14837   1.368   1.723   3.683  0.9153  0.7945  0.1761
  137OSM   H14T14838   1.534   1.712   3.756  0.5001 -1.0541  0.2412
  137OSM   C15S14839   1.395   1.557   3.818 -0.3761  0.4188  0.2095
  137OSM   H15S14840   1.456   1.465   3.812 -0.5079 -0.0320  3.8808
  137OSM   H15T14841   1.289   1.532   3.796 -0.4714 -0.7650  1.8454
  137OSM   C16S14842   1.396   1.628   3.955  0.2906  0.4422 -0.0696
  137OSM   H16S14843   1.337   1.722   3.957 -1.9676 -0.9025  0.9563
  137OSM   H16T14844   1.501   1.652   3.983  0.8799 -0.8762 -1.0242
  137OSM   C17S14845   1.336   1.524   4.049 -0.0043 -0.1950 -0.4165
  137OSM   H17S14846   1.392   1.429   4.033  1.8890  0.4659  1.7498
  137OSM   H17T14847   1.228   1.510   4.027 -0.1905  0.4411  0.0747
  137OSM   C18S14848   1.354   1.565   4.198 -0.2360  0.3776 -0.2849
  137OSM   H18S14849   1.450   1.612   4.229 -0.2673  0.2554 -0.0012
  137OSM   H18T14850   1.328   1.480   4.265  2.7086  0.4571  1.1181
  137OSM   H18U14851   1.279   1.645   4.207 -1.6064 -0.8307 -0.5763
  137OSM    C1F14852   1.978   1.360   2.501 -0.2674  0.5071  0.1243
  137OSM     OF14853   2.089   1.361   2.448 -0.4388 -0.1935  0.9268
  137OSM    C2F14854   1.943   1.257   2.596  0.6706  0.3548  0.0611
  137OSM    H2F14855   2.001   1.167   2.566  0.7525 -0.2283  1.8148
  137OSM    H2G14856   1.834   1.240   2.587  0.9185 -0.6073 -1.4241
  137OSM    C3F14857   1.990   1.279   2.739  0.0364 -0.0533  0.7590
  137OSM    H3F14858   2.100   1.292   2.740 -0.0544  1.6922 -1.8207
  137OSM    H3G14859   1.980   1.194   2.810 -2.1775 -0.4736  0.0188
  137OSM    C4F14860   1.937   1.402   2.814 -0.4328  0.0267 -0.2714
  137OSM    H4F14861   1.826   1.405   2.806 -0.6820 -0.2661  2.2790
  137OSM    H4G14862   1.979   1.493   2.766  1.0810 -0.9366 -0.8642
  137OSM    C5F14863   1.995   1.417   2.958  0.0926  0.5429  0.2627
  137OSM    H5F14864   1.972   1.518   2.997 -0.7711 -0.2485  1.9477
  137OSM    H5G14865   2.100   1.382   2.960  0.2805  1.0474 -0.5985
  137OSM    C6F14866   1.921   1.328   3.057  0.1362 -0.4959  0.6807
  137OSM    H6F14867   1.927   1.218   3.041 -1.5658 -0.8279  1.9850
  137OSM    H6G14868   1.814   1.356   3.039  0.9292  1.8668 -0.8401
  137OSM    C7F14869   1.961   1.356   3.199  0.2287  0.0558 -0.4029
  137OSM    H7F14870   1.966   1.466   3.209  0.6498  0.1651 -1.6652
  137OSM    H7G14871   2.068   1.327   3.206  0.0502 -0.5254 -0.0090
  137OSM    C8F14872   1.870   1.294   3.307 -0.0857 -0.3057  0.2713
  137OSM    H8F14873   1.871   1.185   3.285 -0.0342 -0.5153  1.2748
  137OSM    H8G14874   1.765   1.324   3.293 -0.6137 -2.1037  0.0983
  137OSM    C9F14875   1.921   1.325   3.447 -0.2663 -0.5401 -0.1484
  137OSM    H9F14876   1.861   1.402   3.497  2.4983  1.1273  0.8838
  137OSM   C10F14877   2.019   1.255   3.505  0.0509  0.3853 -0.5450
  137OSM   H10F14878   2.055   1.290   3.603  0.4383  1.7696 -1.1524
  137OSM   C11F14879   2.097   1.141   3.461 -0.2778  0.3521  0.0760
  137OSM   H11F14880   2.201   1.179   3.467  0.6392 -2.0176  0.2711
  137OSM   H11G14881   2.089   1.124   3.352  0.2568 -1.9871  0.3401
  137OSM   C12F14882   2.073   1.007   3.530 -0.5701 -0.5920 -0.5343
  137OSM   H12F14883   2.093   1.024   3.637  0.7115  0.1649 -0.8811
  137OSM   H12G14884   2.150   0.937   3.491  1.6588  0.2098  2.1688
  137OSM   C13F14885   1.926   0.967   3.530  0.3809  0.6429  0.5623
  137OSM   H13F14886   1.887   0.963   3.426  1.6464  1.5587  0.0239
  137OSM   H13G14887   1.856   1.033   3.584 -0.4829 -0.3460  0.6804
  137OSM   C14F14888   1.907   0.814   3.576  0.5000  0.2205  0.3383
  137OSM   H14F14889   1.985   0.749   3.530 -0.9340 -1.3795  0.0262
  137OSM   H14G14890   1.812   0.783   3.527  0.2575 -1.6622  1.8955
  137OSM   C15F14891   1.925   0.802   3.732  0.1235  0.3949  0.7319
  137OSM   H15F14892   1.863   0.875   3.789 -0.3879 -1.1002  2.1417
  137OSM   H15G14893   2.033   0.818   3.750  0.6660 -1.5585 -0.4779
  137OSM   C16F14894   1.887   0.665   3.784  0.0195  1.2278 -0.5199
  137OSM   H16F14895   1.972   0.604   3.746 -0.9556 -0.2498 -0.4324
  137OSM   H16G14896   1.800   0.631   3.723 -0.4539  0.5765  0.4857
  137OSM   C17F14897   1.867   0.646   3.931 -0.5425 -0.4485 -0.2761
  137OSM   H17F14898   1.833   0.540   3.938  1.2780 -1.0373  0.2107
  137OSM   H17G14899   1.781   0.704   3.971 -0.1075  0.7664 -1.0743
  137OSM   C18F14900   1.990   0.667   4.020  0.0487  0.4106 -0.0300
  137OSM   H18F14901   2.081   0.629   3.970  0.8569  2.7765 -0.4743
  137OSM   H18G14902   1.976   0.639   4.127  3.1252  1.2850  0.7161
  137OSM   H18H14903   2.009   0.776   4.032  1.0503  0.3288 -0.7988
  138OSM      N14904   0.144   6.337   2.376  0.1070  0.5647 -0.1732
  138OSM    C1514905   0.130   6.414   2.255 -0.6310 -1.1418  0.0417
  138OSM   H15A14906   0.163   6.516   2.268  3.6410 -2.2106 -1.0491
  138OSM   H15B14907   0.029   6.414   2.217 -0.4451  0.3821 -0.5153
  138OSM   H15C14908   0.195   6.382   2.176 -0.1514  0.7145 -0.3675
  138OSM    C1414909   0.290   6.306   2.389 -0.6050  0.0182 -0.1326
  138OSM   H14A14910   0.307   6.257   2.484 -2.2161  2.6177  1.6201
  138OSM   H14B14911   0.337   6.402   2.374 -2.1034  0.4126 -3.2769
  138OSM   H14C14912   0.321   6.240   2.308 -2.4486 -1.7331  0.4837
  138OSM    C1314913   0.090   6.426   2.489  0.3449  0.0771 -0.0532
  138OSM   H13A14914  -0.014   6.442   2.466 -0.1268 -1.3263  0.9379
  138OSM   H13B14915   0.132   6.525   2.486 -0.8802  0.5919 -1.1036
  138OSM   H13C14916   0.100   6.374   2.583 -0.4078  0.0935  0.0369
  138OSM    C1214917   0.061   6.207   2.376 -0.1579  0.5851 -0.2645
  138OSM   H12A14918   0.111   6.127   2.324 -1.2411 -0.0376 -0.3708
  138OSM   H12B14919  -0.034   6.234   2.332 -1.1095 -2.8090 -0.5727
  138OSM    C1114920   0.034   6.140   2.519  0.2777 -0.2236  0.7514
  138OSM   H11A14921  -0.056   6.075   2.516 -0.8703  1.3509 -0.1240
  138OSM   H11B14922  -0.008   6.217   2.587 -1.4839  0.1578 -0.6926
  138OSM      P14923   0.199   5.933   2.533  0.0345  0.0576 -0.0311
  138OSM    O1314924   0.116   5.826   2.592 -0.7438 -0.3305 -0.1938
  138OSM    O1414925   0.219   5.939   2.389  0.1438 -0.6031  0.1476
  138OSM    O1114926   0.342   5.924   2.591 -0.2872  0.6713 -0.1605
  138OSM    O1214927   0.145   6.079   2.579 -0.2052  0.3659 -0.0973
  138OSM    C1S14928   0.416   6.025   2.648 -0.4935  0.1058 -0.0083
  138OSM    H1S14929   0.378   6.128   2.626 -0.1093  0.5232  1.1963
  138OSM    H1T14930   0.519   6.017   2.609 -0.4239  0.9352 -0.0133
  138OSM     NF14931   0.501   6.131   2.850 -0.6724  0.2856 -1.1055
  138OSM    HNF14932   0.579   6.107   2.908 -0.5830  1.7249 -0.5882
  138OSM    C2S14933   0.424   6.023   2.802  0.2256  0.9844  0.2162
  138OSM    H2S14934   0.320   6.018   2.839 -0.3899 -2.1488 -1.5819
  138OSM    C3S14935   0.486   5.886   2.850  0.2866  0.2601 -0.2826
  138OSM    H3S14936   0.586   5.880   2.802  1.1391  2.7959  1.0192
  138OSM     O314937   0.413   5.773   2.804  0.5888 -0.2202 -0.0184
  138OSM    HO314938   0.366   5.795   2.722 -2.2410  1.1322  1.7902
  138OSM    C4S14939   0.501   5.884   3.005  0.0301 -0.0935 -0.2822
  138OSM    H4S14940   0.595   5.933   3.037 -0.0031 -0.9112  1.1735
  138OSM    C5S14941   0.410   5.842   3.093  0.4493  0.4468  0.7561
  138OSM    H5S14942   0.317   5.804   3.046 -0.1655  2.3170  0.3849
  138OSM    C6S14943   0.413   5.854   3.242  0.8595 -0.0224 -0.2675
  138OSM    H6S14944   0.371   5.766   3.296 -1.3206  1.6197  0.8705
  138OSM    H6T14945   0.347   5.935   3.280  1.1686  0.8627 -1.5592
  138OSM    C7S14946   0.552   5.864   3.302  0.1608 -0.6247 -0.5506
  138OSM    H7S14947   0.597   5.960   3.269 -1.0220  0.7588  1.5525
  138OSM    H7T14948   0.625   5.783   3.284  1.2859 -0.1548  1.5352
  138OSM    C8S14949   0.542   5.879   3.459 -0.6040 -0.0426 -0.2715
  138OSM    H8S14950   0.499   5.785   3.499  0.9497 -0.4632  0.5146
  138OSM    H8T14951   0.462   5.951   3.486  1.3243  2.0009  0.2858
  138OSM    C9S14952   0.674   5.894   3.528 -0.0334 -0.1081  0.3537
  138OSM    H9S14953   0.722   5.994   3.522 -3.9041  1.9660  1.0138
  138OSM    H9T14954   0.742   5.813   3.493 -2.7009 -1.7898 -1.2027
  138OSM   C10S14955   0.661   5.862   3.680 -0.5470  0.3775 -0.2605
  138OSM   H10S14956   0.600   5.769   3.687 -0.8293  0.5707 -0.1436
  138OSM   H10T14957   0.606   5.949   3.723 -0.7785  0.1185 -0.0293
  138OSM   C11S14958   0.805   5.842   3.751  0.3328  0.4040 -0.3424
  138OSM   H11S14959   0.850   5.943   3.756 -4.4546  2.7514  1.2628
  138OSM   H11T14960   0.877   5.782   3.692  0.4361  0.2451 -0.0562
  138OSM   C12S14961   0.787   5.792   3.892  0.2329  0.1029 -0.4586
  138OSM   H12S14962   0.793   5.681   3.896  2.6855  0.2006  2.6493
  138OSM   H12T14963   0.681   5.814   3.913  0.1188 -1.5334  0.8529
  138OSM   C13S14964   0.867   5.848   4.009  0.3426  0.2339 -0.1824
  138OSM   H13S14965   0.879   5.959   4.009  0.9013  0.2283  2.6484
  138OSM   H13T14966   0.971   5.810   4.008 -0.1352 -1.3137  2.2732
  138OSM   C14S14967   0.785   5.822   4.135 -0.0727 -0.8450 -0.2330
  138OSM   H14S14968   0.777   5.712   4.148  1.3300 -0.8104  1.1460
  138OSM   H14T14969   0.686   5.872   4.126 -0.1584 -0.3058  2.7819
  138OSM   C15S14970   0.864   5.869   4.256 -0.3015  0.1451  0.1490
  138OSM   H15S14971   0.904   5.971   4.240  2.2148 -0.5457  1.3636
  138OSM   H15T14972   0.950   5.799   4.265 -0.2367 -0.1158 -2.0169
  138OSM   C16S14973   0.783   5.875   4.386  0.5381  0.1485 -0.8365
  138OSM   H16S14974   0.729   5.778   4.396  0.8925 -0.0898 -1.2322
  138OSM   H16T14975   0.702   5.950   4.380  0.2212 -0.3107 -4.4150
  138OSM   C17S14976   0.863   5.924   4.508 -0.0220  0.2230  0.2271
  138OSM   H17S14977   0.903   6.027   4.497 -0.5986  0.4605  0.3502
  138OSM   H17T14978   0.954   5.862   4.490 -0.5940 -0.6403  0.2533
  138OSM   C18S14979   0.804   5.894   4.645 -0.0713  0.1555  0.3757
  138OSM   H18S14980   0.882   5.889   4.724  2.1741 -2.1747 -1.8081
  138OSM   H18T14981   0.768   5.790   4.641 -0.6605  0.3963 -1.6445
  138OSM   H18U14982   0.717   5.956   4.674 -0.5998 -1.3844  2.2548
  138OSM    C1F14983   0.472   6.260   2.841  0.1703 -0.4626 -0.6432
  138OSM     OF14984   0.405   6.301   2.749  0.0878  0.1546 -0.3184
  138OSM    C2F14985   0.526   6.368   2.940  0.2228 -0.0387  0.0450
  138OSM    H2F14986   0.473   6.465   2.926 -0.8072 -0.2170  2.1996
  138OSM    H2G14987   0.630   6.376   2.904  0.3894 -0.7508  0.3520
  138OSM    C3F14988   0.512   6.324   3.083 -0.3785  0.4771 -0.4788
  138OSM    H3F14989   0.565   6.406   3.136 -0.8072  1.0534 -0.9264
  138OSM    H3G14990   0.554   6.225   3.111 -0.3885 -0.1024 -2.3748
  138OSM    C4F14991   0.368   6.307   3.137 -0.4665 -0.2514  0.2470
  138OSM    H4F14992   0.328   6.207   3.113 -1.3088 -0.2796  1.6313
  138OSM    H4G14993   0.308   6.383   3.081  0.3061  1.8178  2.0676
  138OSM    C5F14994   0.335   6.335   3.287 -0.3070 -0.7036 -0.4082
  138OSM    H5F14995   0.231   6.343   3.327  0.0132 -0.5922  0.4254
  138OSM    H5G14996   0.376   6.438   3.292 -0.1040 -0.6901 -1.8934
  138OSM    C6F14997   0.410   6.229   3.367 -1.0410  0.9112 -0.5811
  138OSM    H6F14998   0.500   6.198   3.309 -1.0994 -0.5961  0.1045
  138OSM    H6G14999   0.330   6.153   3.375 -0.5735  0.4021 -0.6919
  138OSM    C7F15000   0.455   6.274   3.512  0.0353 -0.2495  0.4053
  138OSM    H7F15001   0.467   6.385   3.512 -1.6750 -0.0225 -0.6923
  138OSM    H7G15002   0.556   6.234   3.536 -0.1552 -1.3190 -0.4874
  138OSM    C8F15003   0.357   6.237   3.619  0.4600 -0.3094  0.3176
  138OSM    H8F15004   0.374   6.130   3.640 -1.3996 -0.8060 -0.4661
  138OSM    H8G15005   0.251   6.241   3.585  0.7619 -1.8162 -0.9232
  138OSM    C9F15006   0.377   6.315   3.744 -1.0484 -0.4746 -0.7716
  138OSM    H9F15007   0.392   6.422   3.723  1.0863 -0.3807  0.8603
  138OSM   C10F15008   0.399   6.282   3.876  0.1276  0.7333  0.3493
  138OSM   H10F15009   0.417   6.359   3.952  0.3042  0.7663  0.2762
  138OSM   C11F15010   0.387   6.142   3.941  0.0843  0.9984 -0.0307
  138OSM   H11F15011   0.342   6.070   3.870  2.6709  1.4827 -2.3217
  138OSM   H11G15012   0.320   6.143   4.029  0.6327 -1.0652  0.4510
  138OSM   C12F15013   0.524   6.091   3.997  0.1231  0.3833  0.0005
  138OSM   H12F15014   0.604   6.087   3.919  0.2349  0.9400  0.0793
  138OSM   H12G15015   0.523   5.985   4.029  0.4434 -0.1083 -1.5482
  138OSM   C13F15016   0.577   6.176   4.112 -0.4414 -0.3273  0.1187
  138OSM   H13F15017   0.622   6.269   4.069  1.0616 -0.7109  0.7931
  138OSM   H13G15018   0.674   6.136   4.150 -0.2194 -0.4069 -0.5020
  138OSM   C14F15019   0.486   6.191   4.232 -0.0124  0.4390  0.0307
  138OSM   H14F15020   0.484   6.088   4.274 -0.7227 -0.0694 -1.2069
  138OSM   H14G15021   0.378   6.210   4.213 -0.1476 -0.6770 -0.3800
  138OSM   C15F15022   0.539   6.296   4.326  0.0563 -0.0577  0.9772
  138OSM   H15F15023   0.522   6.395   4.280 -0.6974 -0.3499  0.6147
  138OSM   H15G15024   0.649   6.289   4.340  0.3468 -1.3748 -1.5280
  138OSM   C16F15025   0.455   6.290   4.452  0.5897 -0.4400  0.2516
  138OSM   H16F15026   0.441   6.184   4.482  0.7796  0.3817  3.6930
  138OSM   H16G15027   0.355   6.336   4.434 -0.3400 -1.1714  3.0705
  138OSM   C17F15028   0.517   6.363   4.575 -0.2301  0.0784  0.4804
  138OSM   H17F15029   0.451   6.361   4.665 -0.1049 -1.0372  0.5531
  138OSM   H17G15030   0.524   6.472   4.552  0.7534 -0.0412  0.1961
  138OSM   C18F15031   0.657   6.304   4.624 -0.0941 -0.4925 -0.7662
  138OSM   H18F15032   0.653   6.213   4.687  0.1544 -0.1950 -0.3199
  138OSM   H18G15033   0.712   6.380   4.684 -0.7119 -0.2958 -0.4388
  138OSM   H18H15034   0.734   6.278   4.549 -0.4202 -0.4036 -1.1338
  139OSM      N15035   2.244   0.300   1.677 -0.1997  0.7040  0.3692
  139OSM    C1515036   2.307   0.424   1.624  0.2110 -0.2350  0.1369
  139OSM   H15A15037   2.232   0.496   1.594  1.9895  1.1119 -1.3167
  139OSM   H15B15038   2.365   0.404   1.535  2.0085 -2.1048  1.6263
  139OSM   H15C15039   2.369   0.470   1.699 -1.5903 -1.1149  2.2529
  139OSM    C1415040   2.131   0.258   1.587  0.1385 -0.2544  0.0871
  139OSM   H14A15041   2.098   0.157   1.607 -1.4096 -0.0358 -1.1930
  139OSM   H14B15042   2.159   0.270   1.483 -1.3721  1.8604 -0.1379
  139OSM   H14C15043   2.048   0.327   1.587  0.9662  0.7915 -0.8867
  139OSM    C1315044   2.358   0.197   1.668 -0.2163  0.1334 -0.5374
  139OSM   H13A15045   2.317   0.101   1.696 -0.5054  0.3248 -0.3014
  139OSM   H13B15046   2.432   0.230   1.739 -1.0674  1.8434 -0.3868
  139OSM   H13C15047   2.412   0.194   1.574  2.8621  3.1534  0.9353
  139OSM    C1215048   2.196   0.310   1.818 -0.1598  0.4417 -0.1390
  139OSM   H12A15049   2.129   0.394   1.825  0.0400  0.7947 -1.9950
  139OSM   H12B15050   2.281   0.334   1.881 -1.9343  1.7270  1.8838
  139OSM    C1115051   2.130   0.187   1.885 -0.8760 -0.2484 -0.2571
  139OSM   H11A15052   2.033   0.172   1.833 -0.7142 -0.8997 -0.3814
  139OSM   H11B15053   2.099   0.219   1.987 -1.2527 -0.6269 -0.2482
  139OSM      P15054   2.330   0.064   1.989  0.0070 -0.0337  0.3462
  139OSM    O1315055   2.385  -0.070   2.013 -0.4599  0.2116  0.2338
  139OSM    O1415056   2.434   0.163   1.961 -0.4109  0.2248 -0.0791
  139OSM    O1115057   2.260   0.112   2.120 -0.4596 -0.6796 -0.0821
  139OSM    O1215058   2.217   0.077   1.888 -0.4447 -0.4372 -0.0296
  139OSM    C1S15059   2.155   0.026   2.172  0.1199  0.3347  0.3525
  139OSM    H1S15060   2.182  -0.082   2.169 -2.8528 -0.4992 -0.2752
  139OSM    H1T15061   2.063   0.021   2.110 -0.2732  0.1522  0.9365
  139OSM     NF15062   2.015  -0.022   2.371  0.0361  1.6457 -0.1169
  139OSM    HNF15063   1.920   0.010   2.369 -0.4919  0.3076  1.6643
  139OSM    C2S15064   2.111   0.074   2.313 -0.1498  0.8687 -0.1714
  139OSM    H2S15065   2.195   0.070   2.386 -1.1541  1.6838  1.0769
  139OSM    C3S15066   2.065   0.224   2.313  0.9162 -0.2768  0.4086
  139OSM    H3S15067   1.965   0.224   2.265  1.4723 -0.8615 -0.7882
  139OSM     O315068   2.129   0.315   2.223 -0.4137  0.2456 -0.4592
  139OSM    HO315069   2.179   0.256   2.167  1.1014  1.0217  0.0266
  139OSM    C4S15070   2.042   0.286   2.452  0.7853  0.0293 -1.0564
  139OSM    H4S15071   1.938   0.308   2.480  1.3498  0.1913  1.0742
  139OSM    C5S15072   2.126   0.312   2.551  0.0121 -0.6193 -0.0311
  139OSM    H5S15073   2.229   0.280   2.532 -1.0834 -4.8254 -0.0484
  139OSM    C6S15074   2.101   0.376   2.687  0.7988  0.0733  0.6078
  139OSM    H6S15075   1.994   0.402   2.703  0.4651 -0.6582 -0.3302
  139OSM    H6T15076   2.151   0.475   2.696 -0.0014  0.5855 -0.3781
  139OSM    C7S15077   2.159   0.278   2.790  0.4044  0.0828  0.5472
  139OSM    H7S15078   2.264   0.257   2.762  0.4596 -1.1359  1.5786
  139OSM    H7T15079   2.103   0.182   2.795  0.4482  0.0471  0.3774
  139OSM    C8S15080   2.160   0.332   2.938  0.7533  0.0838  0.1410
  139OSM    H8S15081   2.052   0.351   2.956  1.0339  1.1153  0.8329
  139OSM    H8T15082   2.212   0.428   2.960  1.7604 -0.7294  1.5159
  139OSM    C9S15083   2.211   0.232   3.044  0.1138 -0.1388 -0.6579
  139OSM    H9S15084   2.145   0.143   3.057 -0.2573  0.4131  1.4583
  139OSM    H9T15085   2.205   0.299   3.132  1.8345  1.6976 -1.8569
  139OSM   C10S15086   2.363   0.194   3.026  0.1293  0.2292 -0.3243
  139OSM   H10S15087   2.428   0.281   3.002  0.4804 -0.1545 -0.8029
  139OSM   H10T15088   2.367   0.122   2.941 -3.0441 -0.2813 -0.1454
  139OSM   C11S15089   2.415   0.116   3.143 -0.0016  0.0086 -0.4579
  139OSM   H11S15090   2.335   0.044   3.174 -0.2808  0.6557  0.3781
  139OSM   H11T15091   2.443   0.185   3.225 -0.3105 -1.0134  0.5397
  139OSM   C12S15092   2.551   0.051   3.110 -0.0344  0.4261 -0.2793
  139OSM   H12S15093   2.622   0.136   3.104  1.8828 -1.0245  0.8567
  139OSM   H12T15094   2.541  -0.002   3.014  1.2618  2.1703 -1.4527
  139OSM   C13S15095   2.579  -0.050   3.214 -0.3461  0.6571 -0.0139
  139OSM   H13S15096   2.661  -0.113   3.173 -0.9420 -0.7041  0.8370
  139OSM   H13T15097   2.494  -0.117   3.239  1.4058 -1.1510  1.4435
  139OSM   C14S15098   2.628   0.011   3.347  1.1143  0.0613 -0.0444
  139OSM   H14S15099   2.533   0.058   3.382  0.8095  1.6092 -2.7265
  139OSM   H14T15100   2.706   0.088   3.326 -1.2310  2.8110  0.7116
  139OSM   C15S15101   2.671  -0.102   3.441 -0.3407  1.0053 -0.1088
  139OSM   H15S15102   2.768  -0.144   3.408  1.1480  2.9247  1.5522
  139OSM   H15T15103   2.590  -0.178   3.447 -1.5174  2.0732 -1.6103
  139OSM   C16S15104   2.692  -0.052   3.584  0.5073  0.0250 -0.0158
  139OSM   H16S15105   2.595  -0.005   3.611  0.0142 -0.6048 -0.6605
  139OSM   H16T15106   2.780   0.016   3.584  1.9781 -1.7960 -1.3142
  139OSM   C17S15107   2.728  -0.158   3.687  0.0963 -0.4112 -0.1851
  139OSM   H17S15108   2.825  -0.203   3.657 -0.5313 -0.8386 -1.6933
  139OSM   H17T15109   2.654  -0.240   3.681 -2.5389  1.9264 -2.4767
  139OSM   C18S15110   2.726  -0.098   3.833 -0.2260  0.9531  0.1312
  139OSM   H18S15111   2.824  -0.048   3.846 -1.5136  3.6267  0.2054
  139OSM   H18T15112   2.727  -0.179   3.909 -1.2398  2.7246  2.1306
  139OSM   H18U15113   2.635  -0.037   3.850 -1.9616 -1.3563 -0.3896
  139OSM    C1F15114   2.041  -0.138   2.424 -0.2772 -0.0212  0.2691
  139OSM     OF15115   2.153  -0.193   2.426  0.0482 -0.0643 -0.3043
  139OSM    C2F15116   1.922  -0.214   2.474 -0.6442 -0.0771 -0.2299
  139OSM    H2F15117   1.895  -0.287   2.395 -0.6210  1.2119 -1.4635
  139OSM    H2G15118   1.845  -0.142   2.508 -1.7932 -1.2424 -0.2796
  139OSM    C3F15119   1.956  -0.295   2.604 -0.3125 -0.2551  0.3051
  139OSM    H3F15120   2.036  -0.367   2.577 -0.1009 -0.2614  0.9386
  139OSM    H3G15121   1.859  -0.343   2.629 -0.6853 -0.0459 -0.6867
  139OSM    C4F15122   2.018  -0.223   2.726  0.9429  0.6002  0.6252
  139OSM    H4F15123   2.112  -0.185   2.681 -0.0111 -2.6712 -5.1969
  139OSM    H4G15124   2.042  -0.293   2.808  0.0727  0.3387  0.6711
  139OSM    C5F15125   1.939  -0.104   2.784  0.0130  0.5802  0.6807
  139OSM    H5F15126   1.914  -0.035   2.702 -2.8168  0.5052  1.3838
  139OSM    H5G15127   2.017  -0.068   2.855  1.6560 -0.2513 -0.6364
  139OSM    C6F15128   1.814  -0.136   2.857  0.5200 -0.1579  0.5035
  139OSM    H6F15129   1.831  -0.228   2.916 -0.4140 -0.5876  0.1245
  139OSM    H6G15130   1.729  -0.141   2.785 -0.0222  2.4633  0.8571
  139OSM    C7F15131   1.774  -0.026   2.956 -0.1565  0.2405  0.2776
  139OSM    H7F15132   1.865  -0.017   3.019 -0.2401  2.7749  0.1572
  139OSM    H7G15133   1.685  -0.051   3.017  0.6535 -0.9071  1.0164
  139OSM    C8F15134   1.759   0.111   2.882  0.4229 -0.1376 -0.2740
  139OSM    H8F15135   1.863   0.127   2.846 -0.1379 -1.0567 -2.4531
  139OSM    H8G15136   1.739   0.190   2.957 -0.5040 -0.4553 -0.1778
  139OSM    C9F15137   1.663   0.117   2.769  0.3678  0.1383  0.2478
  139OSM    H9F15138   1.699   0.067   2.677 -1.0181 -1.3642  0.4796
  139OSM   C10F15139   1.541   0.174   2.776 -0.9066  0.2389  0.1500
  139OSM   H10F15140   1.481   0.167   2.684  0.7648  3.7581 -1.4001
  139OSM   C11F15141   1.481   0.249   2.891  0.0852 -0.4952 -0.6122
  139OSM   H11F15142   1.437   0.342   2.848  2.8896  0.5158 -1.5334
  139OSM   H11G15143   1.550   0.276   2.974 -0.9044  2.9230 -0.7372
  139OSM   C12F15144   1.367   0.174   2.971  0.0942 -0.5601 -0.2276
  139OSM   H12F15145   1.289   0.125   2.909 -0.4829 -0.9580  0.7872
  139OSM   H12G15146   1.311   0.250   3.029  0.0182 -1.2053  0.5550
  139OSM   C13F15147   1.422   0.073   3.068 -0.2007 -0.2520  0.4613
  139OSM   H13F15148   1.507   0.119   3.122  1.0893 -2.8653  0.8355
  139OSM   H13G15149   1.455  -0.017   3.013 -1.3023  0.4915 -1.5266
  139OSM   C14F15150   1.324   0.045   3.179 -0.4855  0.6128 -0.9047
  139OSM   H14F15151   1.235  -0.009   3.140 -1.7039  1.1198  1.0434
  139OSM   H14G15152   1.289   0.147   3.206  1.3715  0.5603  2.1198
  139OSM   C15F15153   1.383  -0.009   3.307 -0.5015  1.0247 -0.5627
  139OSM   H15F15154   1.453   0.073   3.335  0.2716  0.4067 -0.6540
  139OSM   H15G15155   1.444  -0.102   3.299 -1.8379  0.0967 -0.3451
  139OSM   C16F15156   1.283  -0.041   3.419 -0.4546  0.0802 -0.2599
  139OSM   H16F15157   1.231   0.053   3.447 -1.6374 -1.6276  4.1169
  139OSM   H16G15158   1.349  -0.066   3.504 -1.3262 -1.9872 -0.1213
  139OSM   C17F15159   1.183  -0.157   3.407  0.1854  0.0780  0.0961
  139OSM   H17F15160   1.252  -0.243   3.394  2.3726  1.9419 -1.5069
  139OSM   H17G15161   1.123  -0.156   3.313 -0.9946 -0.9222  0.8091
  139OSM   C18F15162   1.082  -0.175   3.525 -0.1428  0.0836 -0.2289
  139OSM   H18F15163   1.014  -0.088   3.528 -1.5990 -1.0166 -0.1395
  139OSM   H18G15164   1.137  -0.185   3.621  0.1962 -1.3198 -0.5454
  139OSM   H18H15165   1.020  -0.265   3.506  0.5163 -0.3098 -0.5826
  140OSM      N15166   6.133   5.866   2.027  0.6838  0.4639 -0.2294
  140OSM    C1515167   6.148   5.714   2.039 -0.2672  0.1850  0.7743
  140OSM   H15A15168   6.063   5.672   2.091 -1.5432  1.9658  0.2443
  140OSM   H15B15169   6.236   5.686   2.095  0.1785  2.4236  1.2878
  140OSM   H15C15170   6.159   5.678   1.938  0.1246 -0.2046  0.9536
  140OSM    C1415171   6.251   5.926   1.963  0.3168  0.2717 -0.3435
  140OSM   H14A15172   6.246   6.034   1.958 -2.5246  0.1594 -1.7186
  140OSM   H14B15173   6.253   5.900   1.858 -1.2204  2.2374 -0.9100
  140OSM   H14C15174   6.344   5.915   2.016  0.1792  3.7603  0.8722
  140OSM    C1315175   6.006   5.896   1.945 -0.3262  0.4709 -0.1438
  140OSM   H13A15176   5.999   6.002   1.923 -1.4283  0.2890 -0.7269
  140OSM   H13B15177   5.919   5.862   1.998  1.3287 -2.1956  1.0895
  140OSM   H13C15178   6.001   5.846   1.849  0.6426 -1.7170  0.8852
  140OSM    C1215179   6.116   5.912   2.170  0.4379 -0.0464 -0.8990
  140OSM   H12A15180   6.096   6.018   2.165 -0.2468 -0.1290  0.0167
  140OSM   H12B15181   6.204   5.896   2.231 -1.3811  0.3058  1.9911
  140OSM    C1115182   6.007   5.848   2.255  0.2952 -0.0414  0.1611
  140OSM   H11A15183   6.025   5.867   2.363  0.0751  0.5034  0.1045
  140OSM   H11B15184   6.016   5.737   2.257 -0.8299 -0.1384  1.8792
  140OSM      P15185   5.825   6.030   2.252  0.0339 -0.1496 -0.3532
  140OSM    O1315186   5.884   6.134   2.163  0.3632 -0.4461 -0.4618
  140OSM    O1415187   5.675   6.021   2.252 -0.1010 -0.6064  0.4532
  140OSM    O1115188   5.876   6.053   2.403  0.1902  0.6037  0.9670
  140OSM    O1215189   5.876   5.891   2.213 -0.5957 -0.1106 -0.2193
  140OSM    C1S15190   5.833   6.157   2.483  0.3289 -0.7851  0.0475
  140OSM    H1S15191   5.722   6.167   2.476  0.1350 -2.6178 -0.0901
  140OSM    H1T15192   5.875   6.256   2.455  1.1937 -0.0908  3.4397
  140OSM     NF15193   5.811   6.226   2.725 -0.1813  0.0631 -0.0132
  140OSM    HNF15194   5.865   6.291   2.778  2.0854 -2.3652  0.8576
  140OSM    C2S15195   5.873   6.130   2.632 -0.2034  0.2322 -0.1986
  140OSM    H2S15196   5.842   6.028   2.663  1.5415  0.5067  2.9131
  140OSM    C3S15197   6.031   6.127   2.644  0.8977  0.2027  0.7428
  140OSM    H3S15198   6.068   6.230   2.624 -1.3072  1.6163  3.3089
  140OSM     O315199   6.100   6.038   2.556 -0.1126  0.1184  0.5247
  140OSM    HO315200   6.030   6.022   2.492 -1.2327 -0.5914  1.8573
  140OSM    C4S15201   6.060   6.092   2.785  0.7872 -0.4321  0.0310
  140OSM    H4S15202   6.026   5.989   2.804 -0.5301 -0.0210  0.0005
  140OSM    C5S15203   6.105   6.174   2.876 -0.3291  0.2302 -0.7716
  140OSM    H5S15204   6.139   6.275   2.853 -0.8509  0.6829  0.3622
  140OSM    C6S15205   6.107   6.136   3.022  0.3274 -0.1934 -0.3346
  140OSM    H6S15206   6.034   6.054   3.037 -1.8756  2.2212  3.7498
  140OSM    H6T15207   6.067   6.222   3.079  0.3461  1.0330 -2.0739
  140OSM    C7S15208   6.247   6.113   3.082 -0.4141 -0.3703  0.3051
  140OSM    H7S15209   6.298   6.211   3.089  0.9882 -0.9784 -0.7811
  140OSM    H7T15210   6.307   6.056   3.007 -0.2717  0.0459  0.1038
  140OSM    C8S15211   6.227   6.023   3.211 -0.0938  0.0787  0.2539
  140OSM    H8S15212   6.191   5.929   3.165  0.2562  0.8174 -1.6317
  140OSM    H8T15213   6.142   6.057   3.274 -0.4718 -1.0083  0.3574
  140OSM    C9S15214   6.346   5.993   3.299 -0.4124 -0.2266  0.1718
  140OSM    H9S15215   6.434   5.985   3.232 -0.5023 -1.4031  0.1718
  140OSM    H9T15216   6.342   5.895   3.351  0.4155 -0.8618 -0.9189
  140OSM   C10S15217   6.364   6.103   3.410  0.6710  0.2309  0.0498
  140OSM   H10S15218   6.306   6.194   3.385  0.4606  0.4154  1.1655
  140OSM   H10T15219   6.471   6.133   3.413  0.0214  2.9280 -1.0352
  140OSM   C11S15220   6.331   6.051   3.548  0.4469  0.2277  0.3686
  140OSM   H11S15221   6.400   5.968   3.573  0.2074  0.0826  0.5532
  140OSM   H11T15222   6.228   6.009   3.551  0.9463 -1.0192  0.5984
  140OSM   C12S15223   6.360   6.147   3.662  1.2702 -0.4970 -0.2798
  140OSM   H12S15224   6.287   6.230   3.658  0.1599 -1.4054  0.3006
  140OSM   H12T15225   6.456   6.200   3.648  0.3227  1.9856  1.7671
  140OSM   C13S15226   6.364   6.083   3.798  0.0207 -0.1306 -0.1103
  140OSM   H13S15227   6.452   6.015   3.810 -0.9363 -1.6412 -1.2434
  140OSM   H13T15228   6.281   6.013   3.820  0.0781  0.2742  1.4705
  140OSM   C14S15229   6.347   6.190   3.909 -0.1592  0.3539 -0.6294
  140OSM   H14S15230   6.247   6.237   3.920  0.5781  1.9680 -0.5130
  140OSM   H14T15231   6.422   6.272   3.906  1.5219 -1.0249  1.4623
  140OSM   C15S15232   6.368   6.129   4.050 -0.1706 -0.1453 -0.5163
  140OSM   H15S15233   6.455   6.060   4.050  1.0525  1.2475  1.8488
  140OSM   H15T15234   6.286   6.055   4.064  1.7418 -2.1057  0.9902
  140OSM   C16S15235   6.364   6.235   4.158  0.5832  0.4071 -0.3791
  140OSM   H16S15236   6.277   6.303   4.147  0.0058 -0.1982  0.3170
  140OSM   H16T15237   6.448   6.305   4.138 -0.4895  2.2783  1.2207
  140OSM   C17S15238   6.359   6.184   4.306 -0.4607 -0.2642  0.1448
  140OSM   H17S15239   6.287   6.102   4.324  2.9872 -3.4650  0.5911
  140OSM   H17T15240   6.333   6.267   4.375 -0.6222 -1.8101  2.0263
  140OSM   C18S15241   6.490   6.117   4.345 -0.7260 -0.5401  0.6612
  140OSM   H18S15242   6.500   6.109   4.456  0.7282  0.5392  0.6371
  140OSM   H18T15243   6.583   6.172   4.321 -1.8581  1.6688  1.0569
  140OSM   H18U15244   6.502   6.020   4.291  1.8017  0.6442 -1.1051
  140OSM    C1F15245   5.678   6.230   2.750 -0.0589  0.2676 -0.5206
  140OSM     OF15246   5.599   6.160   2.693 -0.9460  0.2049  0.2700
  140OSM    C2F15247   5.633   6.325   2.862  0.2575 -0.0297 -0.4823
  140OSM    H2F15248   5.638   6.426   2.817  3.2681 -0.4249 -1.2723
  140OSM    H2G15249   5.708   6.302   2.940 -0.4649  0.6205  0.4228
  140OSM    C3F15250   5.492   6.299   2.914 -0.0242  0.1615  0.2526
  140OSM    H3F15251   5.483   6.189   2.928  2.7598 -0.3560 -1.3014
  140OSM    H3G15252   5.410   6.326   2.843 -0.7843  0.1560  1.1169
  140OSM    C4F15253   5.458   6.371   3.047  0.3758 -0.2279  0.2649
  140OSM    H4F15254   5.350   6.354   3.064  0.0616  1.5247  0.2479
  140OSM    H4G15255   5.471   6.480   3.026 -2.5350  0.1926  0.2312
  140OSM    C5F15256   5.528   6.320   3.164 -0.5395  0.6551  0.4337
  140OSM    H5F15257   5.634   6.351   3.159 -0.6022  0.9479  0.8726
  140OSM    H5G15258   5.526   6.209   3.175  0.4740  0.3746 -1.7018
  140OSM    C6F15259   5.473   6.390   3.293  0.8124  1.0190  1.1612
  140OSM    H6F15260   5.552   6.354   3.362  1.3100 -0.5886 -0.1896
  140OSM    H6G15261   5.376   6.355   3.333  1.2638  1.7135  2.9345
  140OSM    C7F15262   5.482   6.547   3.294  0.4089  0.1145 -0.1781
  140OSM    H7F15263   5.404   6.570   3.218  1.5179 -2.0540 -2.0889
  140OSM    H7G15264   5.578   6.582   3.251  0.2417  2.5265  1.1998
  140OSM    C8F15265   5.447   6.613   3.425 -0.9810 -0.2415 -0.2488
  140OSM    H8F15266   5.404   6.713   3.402  0.1655  0.3960  0.2778
  140OSM    H8G15267   5.546   6.627   3.473  0.5910 -0.2080 -3.2708
  140OSM    C9F15268   5.345   6.539   3.512 -0.2149  0.4285 -0.1069
  140OSM    H9F15269   5.238   6.539   3.488  0.1025 -0.9185 -1.7220
  140OSM   C10F15270   5.379   6.483   3.630  0.7416  0.7220  0.6434
  140OSM   H10F15271   5.302   6.426   3.684 -0.0683  1.9584  0.8513
  140OSM   C11F15272   5.511   6.498   3.702  0.2978  0.4201  0.3673
  140OSM   H11F15273   5.550   6.602   3.698  1.8914 -0.1846 -3.5284
  140OSM   H11G15274   5.594   6.439   3.659 -1.1982 -1.5831  0.0673
  140OSM   C12F15275   5.501   6.462   3.848  0.4103  0.2505  0.6271
  140OSM   H12F15276   5.606   6.448   3.881  0.7912 -0.3013 -0.7799
  140OSM   H12G15277   5.467   6.357   3.856  1.7771 -0.1419  1.7705
  140OSM   C13F15278   5.419   6.566   3.934 -0.2801  0.1443 -0.7329
  140OSM   H13F15279   5.368   6.513   4.018 -0.5481  2.0963  0.4218
  140OSM   H13G15280   5.349   6.622   3.868 -0.3567  0.8848 -0.0537
  140OSM   C14F15281   5.510   6.662   4.015 -0.6483 -0.8045  0.6181
  140OSM   H14F15282   5.437   6.715   4.078  0.4351  1.0511  0.3853
  140OSM   H14G15283   5.543   6.744   3.947 -1.6750 -0.0643  0.9917
  140OSM   C15F15284   5.617   6.608   4.104 -0.0291  0.7044  0.5396
  140OSM   H15F15285   5.690   6.563   4.033 -1.3574  0.2958 -0.6231
  140OSM   H15G15286   5.577   6.524   4.165 -0.1512 -0.0141 -0.4926
  140OSM   C16F15287   5.686   6.714   4.192  0.1993  0.7161  0.7218
  140OSM   H16F15288   5.625   6.736   4.283 -1.3898 -1.4583  0.2624
  140OSM   H16G15289   5.720   6.808   4.144  3.8623 -0.5078  0.6508
  140OSM   C17F15290   5.814   6.659   4.246  0.1021  0.4037 -0.0610
  140OSM   H17F15291   5.879   6.638   4.158 -1.9841 -0.8821 -1.4111
  140OSM   H17G15292   5.807   6.560   4.297 -1.1218  0.4924 -0.0153
  140OSM   C18F15293   5.886   6.761   4.349  1.2139  0.9520  1.0095
  140OSM   H18F15294   5.848   6.736   4.450 -0.7231 -0.9747 -0.1005
  140OSM   H18G15295   5.868   6.867   4.322 -0.3355  0.6865  0.8871
  140OSM   H18H15296   5.995   6.743   4.356  1.1973  1.6131  4.5139
  141OSM      N15297   1.511   2.492   2.378 -0.8665  0.5792 -0.0497
  141OSM    C1515298   1.431   2.586   2.453  0.1554 -0.2859 -0.0140
  141OSM   H15A15299   1.352   2.527   2.496  0.4659 -0.8772 -0.2462
  141OSM   H15B15300   1.387   2.663   2.392 -1.2270 -1.0440 -0.0145
  141OSM   H15C15301   1.492   2.635   2.527  2.0428 -2.5789  0.0689
  141OSM    C1415302   1.636   2.562   2.323  0.3855  0.2347  0.9430
  141OSM   H14A15303   1.700   2.595   2.404  0.7904 -1.7436  1.4988
  141OSM   H14B15304   1.609   2.639   2.253 -1.1348 -1.7014 -0.6994
  141OSM   H14C15305   1.695   2.494   2.264  1.0722  1.1159  0.5914
  141OSM    C1315306   1.555   2.382   2.478  0.1924  0.0356 -0.3208
  141OSM   H13A15307   1.605   2.418   2.567  2.1675  2.1066 -2.1506
  141OSM   H13B15308   1.626   2.315   2.433 -0.3346 -0.2258 -0.7783
  141OSM   H13C15309   1.473   2.315   2.502  1.6694 -0.8593  2.7902
  141OSM    C1215310   1.445   2.422   2.266  0.2490 -0.7395 -0.0992
  141OSM   H12A15311   1.378   2.350   2.310 -0.6687 -0.7246 -1.4461
  141OSM   H12B15312   1.525   2.371   2.214  1.0043  0.0535  0.2470
  141OSM    C1115313   1.353   2.501   2.178 -0.1323 -0.0759 -0.2278
  141OSM   H11A15314   1.335   2.434   2.092  1.0032 -1.5246  0.6228
  141OSM   H11B15315   1.407   2.587   2.132  0.1772 -1.5742 -2.8153
  141OSM      P15316   1.121   2.455   2.282 -0.4395  0.2262 -0.2800
  141OSM    O1315317   1.022   2.460   2.173 -0.0650 -0.6634 -0.4112
  141OSM    O1415318   1.181   2.320   2.295 -0.2681  0.0408 -0.0927
  141OSM    O1115319   1.064   2.496   2.421  0.3094 -0.6922  0.5386
  141OSM    O1215320   1.236   2.558   2.248 -0.4855  0.7823  0.0257
  141OSM    C1S15321   0.978   2.612   2.424  1.0176  0.1922  0.9352
  141OSM    H1S15322   0.880   2.590   2.376  0.5878  0.8054  1.4996
  141OSM    H1T15323   1.017   2.699   2.367 -1.2365  0.3931 -0.4402
  141OSM     NF15324   0.853   2.765   2.569 -0.1623  0.4105 -0.3055
  141OSM    HNF15325   0.888   2.852   2.601  0.2362 -0.4234  1.6765
  141OSM    C2S15326   0.953   2.660   2.568  0.2604 -0.0565 -0.3741
  141OSM    H2S15327   0.898   2.578   2.619  0.9644  0.6850  1.6821
  141OSM    C3S15328   1.075   2.694   2.650  0.0535 -0.1228  0.6875
  141OSM    H3S15329   1.121   2.784   2.603 -0.8795 -0.1638 -0.3319
  141OSM     O315330   1.174   2.597   2.650  0.2302  0.4839 -0.1748
  141OSM    HO315331   1.149   2.534   2.582 -2.1184  1.0866  0.0563
  141OSM    C4S15332   1.038   2.715   2.794 -0.3471  0.0697  0.4921
  141OSM    H4S15333   1.037   2.618   2.847 -0.1945 -0.4669 -0.4605
  141OSM    C5S15334   1.029   2.836   2.851 -0.5578  0.0759  0.2129
  141OSM    H5S15335   1.050   2.920   2.784 -0.1765  0.7955  1.2062
  141OSM    C6S15336   1.012   2.861   3.000  0.4353  0.2576 -0.1920
  141OSM    H6S15337   0.987   2.970   2.995 -0.4617  0.1255  0.9365
  141OSM    H6T15338   1.102   2.841   3.063 -0.2845  0.1286  0.8169
  141OSM    C7S15339   0.896   2.786   3.063 -0.2841  0.7245  0.2064
  141OSM    H7S15340   0.913   2.678   3.040 -0.2687  1.1705 -2.0659
  141OSM    H7T15341   0.799   2.814   3.018  0.7399  1.8326 -1.4196
  141OSM    C8S15342   0.894   2.814   3.220  0.0924  0.7161  0.0326
  141OSM    H8S15343   0.876   2.923   3.235 -0.7663  0.5744  0.0983
  141OSM    H8T15344   0.998   2.790   3.251 -0.3610 -0.8419  0.4257
  141OSM    C9S15345   0.778   2.729   3.288  0.3164  0.2268 -0.0345
  141OSM    H9S15346   0.789   2.620   3.268 -3.6235 -0.7442  1.9447
  141OSM    H9T15347   0.675   2.749   3.252  0.4997  1.7541  0.2193
  141OSM   C10S15348   0.787   2.751   3.441 -1.1904 -0.6113 -0.5948
  141OSM   H10S15349   0.765   2.856   3.469  0.2917 -0.3292 -0.4476
  141OSM   H10T15350   0.894   2.741   3.469 -1.3224 -1.5143 -0.3601
  141OSM   C11S15351   0.706   2.651   3.534 -0.7327 -0.5949  0.5542
  141OSM   H11S15352   0.737   2.545   3.524 -0.4055 -0.4355 -0.2553
  141OSM   H11T15353   0.600   2.645   3.501 -0.5320 -2.0949  0.1077
  141OSM   C12S15354   0.702   2.693   3.678  0.0197  0.7206  0.1091
  141OSM   H12S15355   0.616   2.646   3.729 -0.3152  0.9488 -0.2330
  141OSM   H12T15356   0.679   2.802   3.682 -1.1049  0.4736  0.7348
  141OSM   C13S15357   0.839   2.656   3.744 -0.0319 -0.1387 -0.3114
  141OSM   H13S15358   0.921   2.668   3.670  3.1653 -0.6108  2.8485
  141OSM   H13T15359   0.845   2.552   3.781 -0.7051 -0.1818 -0.3116
  141OSM   C14S15360   0.864   2.740   3.865 -0.4299 -0.4760 -0.0944
  141OSM   H14S15361   0.839   2.843   3.831  0.4166  0.2021  1.2556
  141OSM   H14T15362   0.970   2.736   3.897 -0.8394 -1.5759  1.2173
  141OSM   C15S15363   0.780   2.694   3.986 -0.3160 -0.2223  0.3512
  141OSM   H15S15364   0.818   2.606   4.044 -1.5455 -1.4226 -0.6025
  141OSM   H15T15365   0.686   2.657   3.941  0.4651 -0.1157 -1.4206
  141OSM   C16S15366   0.758   2.812   4.079  0.7477 -1.0053 -0.7956
  141OSM   H16S15367   0.724   2.898   4.018 -1.0440 -0.5847  0.7235
  141OSM   H16T15368   0.836   2.840   4.153  0.4072 -1.5650 -0.2173
  141OSM   C17S15369   0.638   2.790   4.173 -0.3896  0.3062 -1.0712
  141OSM   H17S15370   0.670   2.714   4.248 -3.1347 -0.8308 -0.9277
  141OSM   H17T15371   0.551   2.744   4.120  0.2908  0.7619 -2.6454
  141OSM   C18S15372   0.599   2.915   4.242  0.3579 -0.4928 -0.5167
  141OSM   H18S15373   0.571   2.996   4.172  0.0222 -0.3383 -0.2004
  141OSM   H18T15374   0.675   2.953   4.314  0.3557  0.6295 -1.0789
  141OSM   H18U15375   0.512   2.896   4.307  1.1465  2.0731  1.4350
  141OSM    C1F15376   0.730   2.755   2.513  1.2700 -0.1960  0.2051
  141OSM     OF15377   0.670   2.651   2.487  0.0926  0.8574 -0.3094
  141OSM    C2F15378   0.650   2.890   2.492 -0.1604  0.3993 -0.8355
  141OSM    H2F15379   0.665   2.929   2.389 -0.1623  0.6382 -0.7459
  141OSM    H2G15380   0.697   2.960   2.564 -0.3648  0.6289 -0.9223
  141OSM    C3F15381   0.499   2.883   2.539 -0.9060 -0.1158  0.4864
  141OSM    H3F15382   0.445   2.799   2.490  0.3042 -0.9924  0.6144
  141OSM    H3G15383   0.448   2.979   2.514  0.3567  0.4916  0.2016
  141OSM    C4F15384   0.465   2.878   2.688 -0.6632 -0.4636 -0.1140
  141OSM    H4F15385   0.524   2.966   2.722 -1.5637 -0.2492  0.9514
  141OSM    H4G15386   0.517   2.797   2.742  2.2237  0.4449 -1.3281
  141OSM    C5F15387   0.320   2.882   2.727  0.3115 -0.0791 -0.3126
  141OSM    H5F15388   0.277   2.802   2.664  0.4683 -0.7481  0.4240
  141OSM    H5G15389   0.276   2.982   2.703 -0.0060 -0.2521 -0.4537
  141OSM    C6F15390   0.289   2.827   2.861  0.3135 -0.4880 -0.3678
  141OSM    H6F15391   0.312   2.718   2.860  0.6765 -0.5061 -3.7723
  141OSM    H6G15392   0.179   2.832   2.876  0.2899 -1.9790  0.1333
  141OSM    C7F15393   0.360   2.898   2.979 -0.3657 -0.4085  0.3432
  141OSM    H7F15394   0.381   2.998   2.936  1.8820 -1.4732 -1.3269
  141OSM    H7G15395   0.459   2.850   2.997  0.1118  0.7617  0.8953
  141OSM    C8F15396   0.275   2.912   3.106  0.5001 -0.6067 -0.0184
  141OSM    H8F15397   0.168   2.940   3.091  0.3923 -0.9755  0.0480
  141OSM    H8G15398   0.323   2.996   3.161  1.6349 -0.8047 -0.6749
  141OSM    C9F15399   0.284   2.780   3.182  0.5844 -0.2387 -0.6569
  141OSM    H9F15400   0.252   2.689   3.130  1.5826 -0.5071 -0.8183
  141OSM   C10F15401   0.330   2.758   3.309  0.0602  0.2259 -0.5772
  141OSM   H10F15402   0.311   2.660   3.355  0.7465 -1.1712 -3.1121
  141OSM   C11F15403   0.365   2.869   3.406  0.2746  0.3677 -0.1864
  141OSM   H11F15404   0.445   2.936   3.368 -1.5456  4.0606  1.8313
  141OSM   H11G15405   0.393   2.834   3.507  2.4082  0.2841 -0.7669
  141OSM   C12F15406   0.241   2.954   3.436 -0.5351 -0.0892  0.1691
  141OSM   H12F15407   0.161   2.885   3.469  1.0441 -1.3625  1.5678
  141OSM   H12G15408   0.208   3.000   3.341  0.0606 -1.2468 -0.6216
  141OSM   C13F15409   0.262   3.062   3.545 -0.5629  0.1453  0.5867
  141OSM   H13F15410   0.341   3.134   3.515  0.8887 -1.8118 -0.4693
  141OSM   H13G15411   0.311   3.012   3.631 -0.2931  0.5047  0.6429
  141OSM   C14F15412   0.143   3.135   3.606 -0.8438 -0.2074 -0.1410
  141OSM   H14F15413   0.067   3.056   3.625 -0.0076 -0.2753  3.9230
  141OSM   H14G15414   0.097   3.208   3.537 -1.4501 -1.0308 -0.6271
  141OSM   C15F15415   0.182   3.206   3.732  0.4164 -0.0249 -0.1903
  141OSM   H15F15416   0.274   3.265   3.714  1.1027 -0.7176  0.8982
  141OSM   H15G15417   0.203   3.123   3.803  2.5827  0.3608 -0.3178
  141OSM   C16F15418   0.071   3.307   3.786 -0.1894  0.4313 -0.3499
  141OSM   H16F15419  -0.012   3.244   3.821  1.3208  0.7630  4.4841
  141OSM   H16G15420   0.047   3.373   3.699  0.2095 -0.3326 -1.0532
  141OSM   C17F15421   0.115   3.398   3.897  0.5054  0.2948  1.2190
  141OSM   H17F15422   0.036   3.474   3.909 -0.1748  0.0717 -1.2019
  141OSM   H17G15423   0.205   3.443   3.851 -0.6082 -0.0302 -1.4965
  141OSM   C18F15424   0.137   3.324   4.029 -0.8465  0.0652 -0.5102
  141OSM   H18F15425   0.044   3.303   4.086  0.1543 -1.4973  0.6272
  141OSM   H18G15426   0.205   3.378   4.098 -1.2578 -0.6108  0.4498
  141OSM   H18H15427   0.174   3.219   4.017 -0.9453  0.0058 -0.2956
  142OSM      N15428   3.123   4.904   1.986  0.2975 -0.1603  0.0261
  142OSM    C1515429   3.138   4.753   1.969  0.5867 -0.3891  0.2851
  142OSM   H15A15430   3.103   4.696   2.054 -1.9505 -2.6275 -2.0681
  142OSM   H15B15431   3.240   4.726   1.945  0.8431 -2.7800  3.4747
  142OSM   H15C15432   3.082   4.717   1.884  0.4176 -0.2851  0.3533
  142OSM    C1415433   3.200   4.944   2.108  0.2827  0.6312 -0.1179
  142OSM   H14A15434   3.189   5.046   2.143 -0.0278 -0.0454  1.8983
  142OSM   H14B15435   3.304   4.929   2.084  0.7981 -0.2157  2.3005
  142OSM   H14C15436   3.178   4.874   2.187 -0.2134  0.9792  0.0525
  142OSM    C1315437   3.185   4.968   1.869  0.0417  0.1714 -0.1897
  142OSM   H13A15438   3.291   4.950   1.869  0.1354  0.7020 -0.7368
  142OSM   H13B15439   3.160   5.072   1.878 -0.1787  0.1189 -0.1869
  142OSM   H13C15440   3.147   4.923   1.778  2.2496 -2.3416  0.0001
  142OSM    C1215441   2.980   4.948   1.995 -0.2606 -0.4792  0.1894
  142OSM   H12A15442   2.934   4.931   1.898 -3.6127 -1.0890  1.7354
  142OSM   H12B15443   2.976   5.055   2.008 -1.1613 -0.7393  2.3391
  142OSM    C1115444   2.892   4.898   2.112 -0.4542  0.7571 -0.6458
  142OSM   H11A15445   2.787   4.935   2.105 -0.5871  0.4881 -0.1570
  142OSM   H11B15446   2.942   4.933   2.204  2.7750 -1.3097 -1.4422
  142OSM      P15447   2.766   4.671   2.048 -0.2097  0.3075 -0.0884
  142OSM    O1315448   2.706   4.740   1.936 -0.0145 -0.2594  0.4536
  142OSM    O1415449   2.817   4.533   2.028  0.4600  0.1640 -0.0087
  142OSM    O1115450   2.649   4.686   2.169 -0.2380  0.1881 -0.5798
  142OSM    O1215451   2.893   4.752   2.116 -0.1829  0.0944  0.5359
  142OSM    C1S15452   2.691   4.641   2.303 -0.2299  0.1705 -0.1642
  142OSM    H1S15453   2.791   4.683   2.326  0.1368  0.0146 -1.3943
  142OSM    H1T15454   2.700   4.531   2.302 -0.0820  0.1840 -0.9951
  142OSM     NF15455   2.639   4.641   2.543 -0.2832  0.3447  0.0757
  142OSM    HNF15456   2.578   4.578   2.592  0.7140 -0.1556  0.7136
  142OSM    C2S15457   2.595   4.686   2.411 -1.0658 -0.7361  0.2693
  142OSM    H2S15458   2.608   4.796   2.415 -2.2006 -0.6201  1.1495
  142OSM    C3S15459   2.446   4.647   2.382 -0.4520  0.5470 -0.0824
  142OSM    H3S15460   2.453   4.536   2.378  1.8724  0.6979 -2.1180
  142OSM     O315461   2.395   4.677   2.255 -0.3269 -0.3452  0.2564
  142OSM    HO315462   2.461   4.727   2.207 -0.5300 -0.3965 -0.0834
  142OSM    C4S15463   2.347   4.670   2.499  0.1631  0.1432 -0.2760
  142OSM    H4S15464   2.355   4.589   2.573  0.6343  0.7989  0.4004
  142OSM    C5S15465   2.264   4.770   2.509  0.6303  0.0826  0.7283
  142OSM    H5S15466   2.265   4.847   2.430 -1.6512 -1.5340 -1.0034
  142OSM    C6S15467   2.173   4.798   2.627  0.1670  0.6163  0.4755
  142OSM    H6S15468   2.069   4.790   2.589  1.5043 -3.4121 -3.1525
  142OSM    H6T15469   2.204   4.902   2.652 -0.5965  0.9802 -0.0432
  142OSM    C7S15470   2.168   4.714   2.761  0.3851  0.0815  0.6199
  142OSM    H7S15471   2.136   4.770   2.852 -1.2976 -2.3381  1.6124
  142OSM    H7T15472   2.270   4.684   2.794  0.9121  1.6244  0.4737
  142OSM    C8S15473   2.065   4.600   2.758 -0.0505  0.3995  0.8450
  142OSM    H8S15474   2.076   4.527   2.675 -0.1521  1.1277  0.1838
  142OSM    H8T15475   1.970   4.654   2.737  1.1133  1.9136 -0.8359
  142OSM    C9S15476   2.053   4.520   2.892 -0.2041  0.1017  0.3941
  142OSM    H9S15477   2.146   4.463   2.916 -1.9329 -1.7462  3.4535
  142OSM    H9T15478   1.975   4.446   2.866  2.5346 -2.5975 -0.7391
  142OSM   C10S15479   2.011   4.598   3.020 -0.0781  0.6642  0.5562
  142OSM   H10S15480   1.923   4.657   2.988  0.0673 -0.5130 -2.2689
  142OSM   H10T15481   2.096   4.664   3.046  0.0693  1.1596 -1.0930
  142OSM   C11S15482   1.981   4.508   3.141 -0.0184 -0.1423 -0.2616
  142OSM   H11S15483   2.072   4.469   3.193 -0.6061 -0.0320  0.8663
  142OSM   H11T15484   1.922   4.419   3.112  1.8556 -1.0923 -1.3568
  142OSM   C12S15485   1.901   4.589   3.242  0.1361 -0.5382  0.9332
  142OSM   H12S15486   1.794   4.603   3.215  0.0022 -2.2275  0.4305
  142OSM   H12T15487   1.948   4.689   3.254 -0.0761 -0.5852  2.3548
  142OSM   C13S15488   1.911   4.530   3.387  0.1776  0.3958 -0.2296
  142OSM   H13S15489   2.018   4.508   3.406 -0.1425 -1.5352 -0.4028
  142OSM   H13T15490   1.852   4.436   3.372  0.1929 -0.1992  2.8320
  142OSM   C14S15491   1.847   4.601   3.495  0.3959 -0.2718  0.0182
  142OSM   H14S15492   1.742   4.631   3.474  0.7836  0.6710 -0.6305
  142OSM   H14T15493   1.895   4.697   3.524  0.9670 -0.8230  0.9192
  142OSM   C15S15494   1.830   4.514   3.618  0.7580 -0.7196  0.2455
  142OSM   H15S15495   1.925   4.467   3.650  0.7547 -0.9001 -0.0162
  142OSM   H15T15496   1.763   4.431   3.589  1.5644 -0.9751 -0.9618
  142OSM   C16S15497   1.766   4.591   3.736  0.4374 -0.2267  0.2604
  142OSM   H16S15498   1.664   4.620   3.704  0.7788 -0.4222 -1.0494
  142OSM   H16T15499   1.825   4.679   3.769  0.0728 -0.3646  1.2991
  142OSM   C17S15500   1.762   4.518   3.869  0.0466 -0.2218 -0.4553
  142OSM   H17S15501   1.704   4.580   3.941  0.0159 -1.6916  0.8276
  142OSM   H17T15502   1.860   4.504   3.918  0.0651  1.3275 -0.0048
  142OSM   C18S15503   1.706   4.371   3.864  0.1698  0.5168 -0.0607
  142OSM   H18S15504   1.599   4.366   3.836  0.2045 -3.5087 -0.0339
  142OSM   H18T15505   1.718   4.315   3.959 -1.2393 -0.9956 -0.7277
  142OSM   H18U15506   1.763   4.316   3.786  0.2659 -0.7388  0.8627
  142OSM    C1F15507   2.754   4.672   2.600 -0.2886 -0.0775  0.4407
  142OSM     OF15508   2.821   4.761   2.558 -0.5078 -0.6345  0.8025
  142OSM    C2F15509   2.793   4.583   2.719  0.8241 -0.1545 -0.0769
  142OSM    H2F15510   2.789   4.475   2.690 -0.6326 -0.7908  2.2363
  142OSM    H2G15511   2.723   4.610   2.801  1.6570 -0.0186  0.5926
  142OSM    C3F15512   2.931   4.617   2.763  0.4574  0.7357  0.0563
  142OSM    H3F15513   2.943   4.725   2.786  0.2922  0.5940  0.8149
  142OSM    H3G15514   3.010   4.609   2.685 -0.2889 -2.9007 -0.5221
  142OSM    C4F15515   2.983   4.537   2.882 -0.5579 -0.2051  0.1981
  142OSM    H4F15516   3.079   4.581   2.915  0.4908 -1.7526 -0.6788
  142OSM    H4G15517   3.008   4.431   2.857 -0.4145  0.0192 -0.6257
  142OSM    C5F15518   2.886   4.554   3.000  0.6485  0.7901 -0.3039
  142OSM    H5F15519   2.789   4.502   2.987  1.5353 -1.1512  0.4687
  142OSM    H5G15520   2.855   4.660   3.011 -2.6404 -0.1333  0.3735
  142OSM    C6F15521   2.943   4.509   3.134 -0.3947  0.6377  0.3085
  142OSM    H6F15522   3.045   4.551   3.150 -0.5525  0.8605  0.7651
  142OSM    H6G15523   2.952   4.398   3.137  0.0418  0.6611 -0.0389
  142OSM    C7F15524   2.853   4.542   3.252 -0.2366  0.8752 -0.2111
  142OSM    H7F15525   2.762   4.483   3.230  1.6727 -1.4290 -2.6169
  142OSM    H7G15526   2.825   4.649   3.268 -2.2065  0.0522  2.5087
  142OSM    C8F15527   2.902   4.493   3.387 -0.7566  1.0021 -0.2333
  142OSM    H8F15528   2.997   4.542   3.416 -0.7885  2.0268 -1.7581
  142OSM    H8G15529   2.931   4.386   3.375 -1.3196  1.0467 -2.2768
  142OSM    C9F15530   2.811   4.503   3.500 -0.2891  0.0068  0.6505
  142OSM    H9F15531   2.740   4.419   3.512  0.3693 -0.6322  0.2068
  142OSM   C10F15532   2.824   4.578   3.603  1.0382 -0.1367 -0.2162
  142OSM   H10F15533   2.746   4.560   3.679  1.5530  0.0606  0.3660
  142OSM   C11F15534   2.915   4.694   3.634 -0.3318 -0.2664 -0.4740
  142OSM   H11F15535   2.863   4.785   3.669 -0.2281  0.6653 -2.5950
  142OSM   H11G15536   2.970   4.724   3.542 -2.1355  0.0755 -1.4724
  142OSM   C12F15537   3.020   4.652   3.742 -0.3935  0.9333 -0.0838
  142OSM   H12F15538   3.089   4.737   3.764  0.5881 -0.3974  2.3832
  142OSM   H12G15539   3.090   4.576   3.701 -1.5677  0.4264 -1.2147
  142OSM   C13F15540   2.958   4.612   3.880 -0.3393  0.5189 -0.2405
  142OSM   H13F15541   2.942   4.502   3.874 -0.5035  0.4665  0.9324
  142OSM   H13G15542   2.866   4.663   3.915  0.5685  1.2329  1.1810
  142OSM   C14F15543   3.062   4.638   3.998  0.1483 -0.1029  0.1177
  142OSM   H14F15544   3.071   4.748   4.003 -0.2182 -0.0618 -0.0907
  142OSM   H14G15545   3.155   4.589   3.963 -0.1651  0.7590 -2.1315
  142OSM   C15F15546   3.029   4.597   4.145 -0.5653 -1.1282 -0.1086
  142OSM   H15F15547   3.032   4.486   4.157  0.1491 -0.8752  2.7812
  142OSM   H15G15548   2.921   4.611   4.165 -0.3306 -0.6114  0.8375
  142OSM   C16F15549   3.106   4.663   4.257 -0.0743  0.9578  0.0828
  142OSM   H16F15550   3.073   4.614   4.350  1.0261 -1.2159 -0.5937
  142OSM   H16G15551   3.086   4.771   4.269  0.3996  1.0596 -0.0199
  142OSM   C17F15552   3.256   4.637   4.225 -0.0648  0.4601 -0.1304
  142OSM   H17F15553   3.284   4.708   4.145 -2.8467 -0.4187 -2.0416
  142OSM   H17G15554   3.256   4.532   4.187 -1.1089  0.0639  0.8759
  142OSM   C18F15555   3.351   4.652   4.346 -0.6136 -1.3783  0.5003
  142OSM   H18F15556   3.454   4.676   4.314 -0.8914 -0.2249  0.4325
  142OSM   H18G15557   3.353   4.561   4.411  0.6884 -1.0762  0.9168
  142OSM   H18H15558   3.322   4.735   4.415  1.6898  0.3321 -0.4873
  143OSM      N15559   0.505   3.712   2.039  0.2782 -0.2338 -0.2228
  143OSM    C1515560   0.460   3.571   2.030 -0.2801 -0.4252 -0.6150
  143OSM   H15A15561   0.392   3.549   2.112 -0.8612 -0.4051 -1.0825
  143OSM   H15B15562   0.549   3.511   2.033 -0.0645 -0.2340 -2.4141
  143OSM   H15C15563   0.414   3.553   1.934  0.6912  1.2643 -1.4401
  143OSM    C1415564   0.626   3.724   1.942  0.3759 -0.1058 -0.4878
  143OSM   H14A15565   0.696   3.644   1.955  3.1410  2.5162  2.4695
  143OSM   H14B15566   0.677   3.818   1.959  0.8574 -0.4388 -0.0814
  143OSM   H14C15567   0.592   3.718   1.839 -0.6006 -2.3275 -0.0947
  143OSM    C1315568   0.393   3.805   1.991 -0.5356 -0.2221 -0.1543
  143OSM   H13A15569   0.302   3.785   2.046  0.5612 -0.0171  1.8416
  143OSM   H13B15570   0.362   3.787   1.889  0.5319  0.4329 -0.6152
  143OSM   H13C15571   0.418   3.909   2.006  0.0968 -0.5401  1.1325
  143OSM    C1215572   0.555   3.746   2.179 -0.4382  0.5403  0.5678
  143OSM   H12A15573   0.483   3.715   2.252  0.3052 -0.1261  1.0337
  143OSM   H12B15574   0.568   3.853   2.168 -0.1963  0.5109  0.5518
  143OSM    C1115575   0.686   3.682   2.235 -0.1894  0.1024  0.0173
  143OSM   H11A15576   0.693   3.572   2.223  0.7721 -0.0660  1.7413
  143OSM   H11B15577   0.676   3.704   2.344  1.4771  1.0174  0.0078
  143OSM      P15578   0.928   3.704   2.182 -0.3627  0.0755 -0.5493
  143OSM    O1315579   0.935   3.589   2.089  0.4969 -0.5007 -0.0942
  143OSM    O1415580   1.034   3.810   2.177 -0.1475 -0.4273 -0.4054
  143OSM    O1115581   0.928   3.637   2.334  0.3949  0.0288  0.1958
  143OSM    O1215582   0.789   3.761   2.171 -0.0270  0.5523 -0.2964
  143OSM    C1S15583   0.926   3.705   2.455 -0.1660 -0.8772  0.1262
  143OSM    H1S15584   0.863   3.795   2.440 -3.0664 -2.4177  2.0945
  143OSM    H1T15585   1.028   3.739   2.482 -0.9016  2.8434 -1.1827
  143OSM     NF15586   0.820   3.693   2.671  0.1636  1.0080 -0.2731
  143OSM    HNF15587   0.889   3.680   2.741  0.3839 -0.8981 -0.7825
  143OSM    C2S15588   0.860   3.609   2.560 -0.5234 -0.4530 -0.0284
  143OSM    H2S15589   0.763   3.566   2.527 -1.2279  0.4007  0.8834
  143OSM    C3S15590   0.953   3.489   2.595  0.3535 -0.6559 -0.2758
  143OSM    H3S15591   1.036   3.540   2.648  0.8331 -1.4183 -0.2828
  143OSM     O315592   0.992   3.419   2.480 -0.2579 -0.1122 -0.0428
  143OSM    HO315593   0.980   3.492   2.419  1.5589  0.0811 -0.2389
  143OSM    C4S15594   0.892   3.401   2.706 -0.3395  0.0867 -0.0817
  143OSM    H4S15595   0.942   3.426   2.800  2.4798  2.4328 -2.0229
  143OSM    C5S15596   0.802   3.300   2.713 -0.0344  0.2652 -0.0774
  143OSM    H5S15597   0.755   3.277   2.616  1.0405 -1.4688 -0.2423
  143OSM    C6S15598   0.749   3.224   2.829 -0.0044  0.8852 -0.1331
  143OSM    H6S15599   0.782   3.118   2.825  0.6423  0.9595  1.8925
  143OSM    H6T15600   0.638   3.219   2.838 -0.1738  1.9186 -1.3693
  143OSM    C7S15601   0.813   3.261   2.968 -0.1907  0.9620  0.0114
  143OSM    H7S15602   0.786   3.368   2.977 -1.8310  0.5852 -0.1913
  143OSM    H7T15603   0.923   3.242   2.966 -0.4862 -0.9058 -0.1245
  143OSM    C8S15604   0.745   3.174   3.080 -0.3660 -0.0117  0.1522
  143OSM    H8S15605   0.788   3.072   3.084 -1.9098 -0.6609  0.9889
  143OSM    H8T15606   0.635   3.166   3.075 -0.2912 -0.7984 -0.3600
  143OSM    C9S15607   0.771   3.242   3.216  0.2063  0.5196  0.9334
  143OSM    H9S15608   0.760   3.352   3.212 -1.3437  0.3448 -0.1728
  143OSM    H9T15609   0.877   3.208   3.224 -0.7010 -2.4497  1.5842
  143OSM   C10S15610   0.692   3.179   3.324 -0.2064  0.3113 -0.6903
  143OSM   H10S15611   0.711   3.069   3.318 -3.8233 -0.5072  0.5821
  143OSM   H10T15612   0.581   3.180   3.317 -0.4175  0.9324  1.8957
  143OSM   C11S15613   0.727   3.231   3.463 -0.6473 -1.2195 -0.2029
  143OSM   H11S15614   0.700   3.339   3.457  1.0320 -0.6211  1.7424
  143OSM   H11T15615   0.836   3.228   3.484 -0.3679 -0.4399 -1.4374
  143OSM   C12S15616   0.650   3.162   3.579 -0.5644 -0.1254 -0.4578
  143OSM   H12S15617   0.693   3.062   3.598  0.9602  0.5556 -0.2115
  143OSM   H12T15618   0.540   3.151   3.568 -0.5487 -0.5166 -0.2336
  143OSM   C13S15619   0.680   3.237   3.711  0.1912  0.2642  0.9905
  143OSM   H13S15620   0.629   3.335   3.702  1.1785  0.9174  2.1653
  143OSM   H13T15621   0.790   3.247   3.721  0.4225 -1.6352  0.5739
  143OSM   C14S15622   0.628   3.161   3.835 -0.0604  0.2535 -0.2044
  143OSM   H14S15623   0.659   3.056   3.852 -1.8931 -0.5106 -1.3053
  143OSM   H14T15624   0.517   3.159   3.827 -0.0992 -0.0664  0.3861
  143OSM   C15S15625   0.657   3.228   3.973 -0.0717 -0.1132  0.2235
  143OSM   H15S15626   0.606   3.172   4.054 -1.5431 -1.1318 -1.3378
  143OSM   H15T15627   0.606   3.325   3.952  0.5541  0.5597  1.7049
  143OSM   C16S15628   0.810   3.233   4.005 -0.4268  0.3767  0.1422
  143OSM   H16S15629   0.875   3.282   3.930  2.3580  0.0157  2.1716
  143OSM   H16T15630   0.838   3.126   4.018 -0.0338  0.4962  0.2740
  143OSM   C17S15631   0.850   3.293   4.137 -0.1617 -0.4871 -0.7161
  143OSM   H17S15632   0.825   3.401   4.147 -1.3780 -0.8023 -0.1065
  143OSM   H17T15633   0.961   3.295   4.135 -0.1539  2.2640 -1.2979
  143OSM   C18S15634   0.790   3.229   4.262 -0.0690  0.3575  0.0795
  143OSM   H18S15635   0.828   3.125   4.262 -0.0089  0.3465 -1.6097
  143OSM   H18T15636   0.679   3.229   4.273 -0.1886  1.6505 -0.8366
  143OSM   H18U15637   0.840   3.271   4.351  1.2942  0.6642 -0.8018
  143OSM    C1F15638   0.737   3.793   2.669  0.4485  0.3427 -0.4048
  143OSM     OF15639   0.668   3.813   2.568 -0.1345 -0.9092  0.2614
  143OSM    C2F15640   0.736   3.886   2.788  0.3158  0.1178 -0.3534
  143OSM    H2F15641   0.824   3.953   2.796 -0.2000  1.0353 -1.9630
  143OSM    H2G15642   0.748   3.816   2.874  0.0758 -1.5844 -1.6622
  143OSM    C3F15643   0.605   3.970   2.796  0.0582 -0.0156  0.4336
  143OSM    H3F15644   0.521   3.914   2.749  0.6072 -0.3860 -0.1114
  143OSM    H3G15645   0.617   4.067   2.742 -0.5969 -1.5966 -2.8061
  143OSM    C4F15646   0.571   3.990   2.949 -0.2482 -0.1332  0.2814
  143OSM    H4F15647   0.647   4.059   2.992  1.7281 -2.2743  0.4258
  143OSM    H4G15648   0.576   3.890   2.997 -2.8310 -0.7088 -0.5028
  143OSM    C5F15649   0.439   4.056   2.986  0.3757 -0.0913 -0.3848
  143OSM    H5F15650   0.348   3.997   2.961 -0.7985  1.2494  0.5092
  143OSM    H5G15651   0.421   4.148   2.926  0.5714  0.6247  0.6302
  143OSM    C6F15652   0.431   4.091   3.139  0.4526 -0.3697  0.0769
  143OSM    H6F15653   0.498   4.168   3.182  0.9251 -1.0505  0.5949
  143OSM    H6G15654   0.461   4.000   3.197  0.8531 -0.4936 -0.3170
  143OSM    C7F15655   0.287   4.107   3.183  0.6389  0.0388  0.1735
  143OSM    H7F15656   0.232   4.014   3.156  2.5797 -1.2483  0.4607
  143OSM    H7G15657   0.240   4.195   3.133  2.2171  1.3334  0.8827
  143OSM    C8F15658   0.274   4.142   3.334  0.2287 -0.3666 -0.8696
  143OSM    H8F15659   0.164   4.158   3.344  0.0480 -1.6924 -0.6118
  143OSM    H8G15660   0.320   4.243   3.348  2.5126 -0.8678 -3.7977
  143OSM    C9F15661   0.335   4.058   3.443  0.1457 -0.2012  0.4301
  143OSM    H9F15662   0.412   3.990   3.404 -0.1038 -0.9119  1.1407
  143OSM   C10F15663   0.291   4.051   3.571 -0.6736 -0.0626 -0.2238
  143OSM   H10F15664   0.350   3.986   3.636  1.4765  1.2119 -0.8014
  143OSM   C11F15665   0.178   4.138   3.627 -0.1572 -0.2507 -0.0453
  143OSM   H11F15666   0.094   4.075   3.663 -0.1610 -1.1549 -1.5285
  143OSM   H11G15667   0.134   4.214   3.559 -0.4495 -0.0967  0.3163
  143OSM   C12F15668   0.242   4.216   3.747 -0.0048  0.7875 -0.5727
  143OSM   H12F15669   0.172   4.292   3.789 -0.9107 -0.1003 -0.4098
  143OSM   H12G15670   0.336   4.269   3.723  0.4415  0.0662 -0.4449
  143OSM   C13F15671   0.258   4.120   3.874 -0.9602 -0.0103 -0.9716
  143OSM   H13F15672   0.363   4.089   3.852  0.0668  2.0565  0.6434
  143OSM   H13G15673   0.184   4.038   3.881 -0.8346 -0.0876 -0.5199
  143OSM   C14F15674   0.241   4.200   4.002 -0.1437  0.8014 -0.1151
  143OSM   H14F15675   0.135   4.232   3.993 -0.8760 -1.3073  0.4395
  143OSM   H14G15676   0.307   4.289   3.999 -0.9675  1.4059 -0.6823
  143OSM   C15F15677   0.271   4.123   4.132 -0.2575  0.8573  0.0491
  143OSM   H15F15678   0.381   4.118   4.148 -0.0399  0.3355 -1.5022
  143OSM   H15G15679   0.252   4.014   4.122  0.1139  0.7698  0.2896
  143OSM   C16F15680   0.201   4.185   4.257 -0.0108  1.1607  0.4523
  143OSM   H16F15681   0.091   4.182   4.243 -0.1388 -1.3061  1.3645
  143OSM   H16G15682   0.240   4.289   4.257  0.0608  1.1824 -1.7561
  143OSM   C17F15683   0.228   4.098   4.385  0.3651  0.2121 -0.4147
  143OSM   H17F15684   0.152   4.122   4.463 -0.3704 -0.9027 -0.7690
  143OSM   H17G15685   0.331   4.122   4.419 -0.0792 -0.4740  1.5788
  143OSM   C18F15686   0.227   3.942   4.374 -0.6979  0.3431 -0.5771
  143OSM   H18F15687   0.126   3.905   4.344 -0.3421  0.9422 -2.7151
  143OSM   H18G15688   0.251   3.899   4.473  0.2045  0.3498 -0.7870
  143OSM   H18H15689   0.314   3.910   4.312 -0.3657 -0.3198  0.2126
  144OSM      N15690   1.841   4.040   2.351 -1.2888 -0.1868  0.2826
  144OSM    C1515691   1.960   4.128   2.359 -0.2790  0.0374  0.0061
  144OSM   H15A15692   1.955   4.192   2.446  4.7210 -1.6856  1.9036
  144OSM   H15B15693   1.965   4.192   2.272  1.3679 -0.7523 -0.5253
  144OSM   H15C15694   2.059   4.089   2.377  0.1051  1.4358  1.1105
  144OSM    C1415695   1.862   3.954   2.226  0.0925  0.2773  0.3552
  144OSM   H14A15696   1.788   3.876   2.222 -1.0356  1.2395  1.3206
  144OSM   H14B15697   1.965   3.920   2.233  0.3442  1.2333  1.7703
  144OSM   H14C15698   1.859   4.016   2.138  0.2266 -1.6273 -1.0399
  144OSM    C1315699   1.835   3.951   2.469 -0.7128  0.1430  0.7283
  144OSM   H13A15700   1.853   4.014   2.555 -0.6749  1.2309 -0.0494
  144OSM   H13B15701   1.907   3.872   2.481 -1.1476  0.0546  3.7027
  144OSM   H13C15702   1.740   3.908   2.498 -1.2977  2.1301  2.0368
  144OSM    C1215703   1.720   4.127   2.322  0.4335  0.1397 -0.1417
  144OSM   H12A15704   1.635   4.068   2.294  0.3980  0.1573 -0.0714
  144OSM   H12B15705   1.749   4.198   2.246  2.4666 -0.7661 -0.2837
  144OSM    C1115706   1.660   4.205   2.443 -1.1792  0.3585 -0.1484
  144OSM   H11A15707   1.643   4.130   2.524 -0.3995  0.9360  0.5701
  144OSM   H11B15708   1.560   4.245   2.417 -0.1509  1.3219 -2.9268
  144OSM      P15709   1.730   4.450   2.418  0.1044  0.0597  0.1734
  144OSM    O1315710   1.841   4.532   2.469 -0.3995  0.4471  0.8604
  144OSM    O1415711   1.709   4.441   2.271  0.4838  0.5225  0.1764
  144OSM    O1115712   1.596   4.500   2.492  0.1733 -0.0111 -0.3484
  144OSM    O1215713   1.753   4.306   2.479  0.1442 -0.4349 -0.3217
  144OSM    C1S15714   1.573   4.467   2.633 -0.6452 -0.3752  0.2002
  144OSM    H1S15715   1.603   4.360   2.642  1.2798 -0.0705 -1.8547
  144OSM    H1T15716   1.467   4.476   2.667  0.2595  3.0575  2.6023
  144OSM     NF15717   1.613   4.512   2.868 -0.4823  0.3107 -0.5787
  144OSM    HNF15718   1.544   4.564   2.917 -1.8984 -1.0609 -1.0499
  144OSM    C2S15719   1.656   4.554   2.735 -0.1726 -0.5629  0.0854
  144OSM    H2S15720   1.763   4.528   2.723  1.2127  3.4321  2.0806
  144OSM    C3S15721   1.648   4.705   2.701  0.0995  1.1767 -0.2312
  144OSM    H3S15722   1.543   4.726   2.669 -1.1518  0.0975  2.8386
  144OSM     O315723   1.723   4.744   2.592 -0.3894 -0.0541 -0.0274
  144OSM    HO315724   1.762   4.662   2.561 -1.1872  0.2010 -1.8307
  144OSM    C4S15725   1.662   4.785   2.826  0.0360  0.4325 -0.2489
  144OSM    H4S15726   1.575   4.775   2.892 -0.6780 -1.1294 -1.3740
  144OSM    C5S15727   1.759   4.868   2.864  0.6399 -0.2369  0.8447
  144OSM    H5S15728   1.842   4.878   2.793  0.9463  2.0016  1.4631
  144OSM    C6S15729   1.776   4.929   2.999  0.1958  0.1963  0.2128
  144OSM    H6S15730   1.777   5.040   2.995  2.9109  0.3612  2.3322
  144OSM    H6T15731   1.878   4.899   3.030  0.0571  0.3886  0.8653
  144OSM    C7S15732   1.675   4.886   3.107 -0.4112 -0.3767 -0.1264
  144OSM    H7S15733   1.697   4.780   3.131  1.7805  0.0055 -0.2242
  144OSM    H7T15734   1.571   4.896   3.068 -0.5309 -1.5585 -0.1640
  144OSM    C8S15735   1.691   4.963   3.235 -0.6297  0.0735 -0.2542
  144OSM    H8S15736   1.685   5.073   3.217  0.3614  0.0051 -1.0749
  144OSM    H8T15737   1.793   4.952   3.277 -1.1995  0.6001  1.3548
  144OSM    C9S15738   1.601   4.915   3.353 -0.7341  0.0996 -0.1630
  144OSM    H9S15739   1.616   4.807   3.373  4.8839  0.6647  0.0527
  144OSM    H9T15740   1.495   4.943   3.333 -0.7008  0.8819  0.6757
  144OSM   C10S15741   1.652   4.992   3.482  0.5316 -0.1117 -0.9482
  144OSM   H10S15742   1.640   5.101   3.462 -2.1652 -0.2533 -0.5496
  144OSM   H10T15743   1.763   4.988   3.477  0.5251 -1.6920 -0.2924
  144OSM   C11S15744   1.589   4.945   3.614 -0.0215  0.1968  0.5017
  144OSM   H11S15745   1.604   4.835   3.617 -0.8319 -0.0037 -1.4268
  144OSM   H11T15746   1.480   4.955   3.596 -0.3814  0.2520  2.5102
  144OSM   C12S15747   1.629   5.031   3.732 -0.5408 -0.2883 -0.4694
  144OSM   H12S15748   1.619   5.139   3.710 -1.7251 -0.7524 -2.4810
  144OSM   H12T15749   1.738   5.013   3.748 -0.7342 -0.5121  0.7509
  144OSM   C13S15750   1.570   5.001   3.872  0.4492  0.4122 -0.7514
  144OSM   H13S15751   1.459   5.001   3.869  0.4277  0.3033 -0.1743
  144OSM   H13T15752   1.609   5.076   3.945 -0.5490 -0.7942  1.1152
  144OSM   C14S15753   1.608   4.862   3.926 -0.1511 -0.4845 -0.1619
  144OSM   H14S15754   1.719   4.862   3.932 -0.0099  3.9466  1.0333
  144OSM   H14T15755   1.580   4.778   3.859 -1.6593  1.3317 -1.9544
  144OSM   C15S15756   1.543   4.822   4.058 -0.6181  0.3340  0.1604
  144OSM   H15S15757   1.563   4.720   4.097 -1.1900  0.4321  0.7368
  144OSM   H15T15758   1.435   4.815   4.034 -0.3483 -2.5125 -0.5759
  144OSM   C16S15759   1.567   4.928   4.166 -0.4724  0.0087 -0.4528
  144OSM   H16S15760   1.504   5.015   4.139 -0.5454 -0.8845 -3.5557
  144OSM   H16T15761   1.674   4.958   4.166 -0.4273 -0.1338 -1.1523
  144OSM   C17S15762   1.537   4.882   4.315 -0.1193 -1.1077  0.6400
  144OSM   H17S15763   1.633   4.845   4.358 -0.2493 -0.3181  1.6468
  144OSM   H17T15764   1.464   4.799   4.312 -1.3625 -0.0284  0.4970
  144OSM   C18S15765   1.476   4.993   4.399  0.4371  0.2178 -0.1651
  144OSM   H18S15766   1.409   5.044   4.327  0.1468 -0.4886 -0.4080
  144OSM   H18T15767   1.542   5.071   4.443  0.1697  0.8733 -0.8994
  144OSM   H18U15768   1.425   4.956   4.491  0.6269 -0.0757 -0.1781
  144OSM    C1F15769   1.649   4.390   2.922  0.9125 -0.1067 -0.5643
  144OSM     OF15770   1.749   4.329   2.890 -0.6808 -0.4669  0.0626
  144OSM    C2F15771   1.562   4.335   3.024  0.4378 -0.5316  0.2952
  144OSM    H2F15772   1.514   4.239   2.995  0.2510 -0.0170 -1.1827
  144OSM    H2G15773   1.476   4.401   3.045 -0.0892 -1.3187  0.6507
  144OSM    C3F15774   1.631   4.311   3.155 -0.5549 -0.4385  0.2490
  144OSM    H3F15775   1.687   4.401   3.190 -0.3105  0.0893 -1.4044
  144OSM    H3G15776   1.693   4.220   3.151 -2.9057 -2.1124 -0.0231
  144OSM    C4F15777   1.534   4.268   3.271  0.0333 -0.4656  0.9153
  144OSM    H4F15778   1.480   4.175   3.243 -0.8942 -0.4231  2.4324
  144OSM    H4G15779   1.456   4.346   3.287  0.1549 -0.5527  2.0019
  144OSM    C5F15780   1.606   4.251   3.407  0.2030  1.3455 -0.6436
  144OSM    H5F15781   1.675   4.337   3.421  0.5446  1.1640 -1.1621
  144OSM    H5G15782   1.677   4.170   3.380  0.4382  2.0435 -2.2221
  144OSM    C6F15783   1.519   4.219   3.528 -0.4600  0.4570  0.3343
  144OSM    H6F15784   1.579   4.185   3.615  0.5434  2.4457  0.4795
  144OSM    H6G15785   1.454   4.134   3.497 -1.1044  1.5910 -1.5674
  144OSM    C7F15786   1.434   4.333   3.577  0.5781 -0.4417 -0.5148
  144OSM    H7F15787   1.386   4.384   3.491 -0.3997  0.4922  0.5544
  144OSM    H7G15788   1.504   4.407   3.622  2.3400 -2.1908 -0.2734
  144OSM    C8F15789   1.329   4.289   3.677 -0.3188 -0.5382 -0.4312
  144OSM    H8F15790   1.272   4.214   3.617 -0.3063 -1.1159  0.2555
  144OSM    H8G15791   1.263   4.376   3.694 -0.8683 -0.8127 -1.1089
  144OSM    C9F15792   1.382   4.226   3.801  0.8804 -0.0055  0.3950
  144OSM    H9F15793   1.455   4.147   3.779  0.9741  0.6221 -1.8030
  144OSM   C10F15794   1.316   4.227   3.918 -0.5352 -0.3689  0.0523
  144OSM   H10F15795   1.350   4.166   4.003  0.1679 -0.1322 -0.0588
  144OSM   C11F15796   1.202   4.315   3.957 -0.5134 -0.0246  0.0793
  144OSM   H11F15797   1.135   4.342   3.872 -0.3692 -1.6131 -0.5844
  144OSM   H11G15798   1.249   4.409   3.994  0.9775 -0.7483  0.0804
  144OSM   C12F15799   1.096   4.243   4.053 -0.1960 -0.4290  1.2995
  144OSM   H12F15800   1.039   4.167   3.995  0.6554 -0.5537  0.6018
  144OSM   H12G15801   1.024   4.308   4.107 -0.6676 -0.3386  0.5791
  144OSM   C13F15802   1.163   4.171   4.166  0.2891 -0.0177 -0.0588
  144OSM   H13F15803   1.249   4.229   4.204 -0.5310  0.3131  1.3622
  144OSM   H13G15804   1.207   4.072   4.141 -0.9804 -0.5101 -0.4232
  144OSM   C14F15805   1.077   4.155   4.292  0.5236  0.4371 -0.4678
  144OSM   H14F15806   1.009   4.072   4.263  2.0430 -1.3933  0.9445
  144OSM   H14G15807   1.015   4.245   4.312  0.0314 -0.4510  2.4884
  144OSM   C15F15808   1.152   4.114   4.408  0.4287 -0.0124  0.1944
  144OSM   H15F15809   1.101   4.145   4.502  0.0656  1.2923 -0.4169
  144OSM   H15G15810   1.252   4.164   4.411  0.6945 -0.4854 -0.5966
  144OSM   C16F15811   1.166   3.962   4.411  0.4120 -0.0903  0.1277
  144OSM   H16F15812   1.222   3.929   4.322 -1.4721  0.9891 -1.5394
  144OSM   H16G15813   1.063   3.922   4.398  0.4016 -0.2529  0.6606
  144OSM   C17F15814   1.231   3.916   4.546  0.1408  0.0098  0.6899
  144OSM   H17F15815   1.182   3.965   4.633  0.9182 -0.4750  1.4205
  144OSM   H17G15816   1.329   3.968   4.544 -1.1605  2.5430 -0.2086
  144OSM   C18F15817   1.264   3.768   4.561  0.3144  0.2439 -0.8770
  144OSM   H18F15818   1.308   3.733   4.465  1.1181  0.2009 -0.5050
  144OSM   H18G15819   1.166   3.720   4.584 -0.8382  2.8173 -0.1120
  144OSM   H18H15820   1.322   3.746   4.653 -1.7551  1.4722  0.8192
  145SAPE     N15821   2.863   6.228   6.447 -0.5544 -0.2190  0.3954
  145SAPE   HN115822   2.946   6.276   6.407 -0.7845  0.7321  1.0098
  145SAPE   HN215823   2.814   6.297   6.508 -0.1480  0.6158 -0.1915
  145SAPE   HN315824   2.907   6.152   6.504  0.6974 -0.4455 -0.8082
  145SAPE   C1215825   2.788   6.178   6.327 -0.3161  1.1031 -0.2297
  145SAPE  H12A15826   2.852   6.207   6.241 -0.8408  0.9471 -0.6697
  145SAPE  H12B15827   2.685   6.219   6.326 -2.8906 -4.5098  0.5295
  145SAPE   C1115828   2.779   6.024   6.338 -1.1073 -0.1152  0.1068
  145SAPE  H11A15829   2.884   5.987   6.348 -1.2727 -1.2404 -1.6657
  145SAPE  H11B15830   2.745   5.980   6.241 -5.6052 -0.4900  1.6322
  145SAPE     P15831   2.549   5.988   6.449 -0.1178 -0.2530 -0.0569
  145SAPE   O1315832   2.495   5.895   6.553  0.1875 -0.0755 -0.1555
  145SAPE   O1415833   2.509   6.128   6.454  0.2851 -0.2231  0.0078
  145SAPE   O1215834   2.710   5.966   6.450  0.2879  0.7111 -0.2993
  145SAPE   O1115835   2.507   5.936   6.303  0.5245 -0.2032  0.5257
  145SAPE    C115836   2.391   5.867   6.283 -0.3944  0.3360  0.1447
  145SAPE    HA15837   2.413   5.758   6.273  0.5471  0.2927  2.1853
  145SAPE    HB15838   2.314   5.882   6.362  1.1102 -2.1960  2.2779
  145SAPE    C215839   2.325   5.922   6.146  0.1027  0.0027  0.1427
  145SAPE    HS15840   2.244   5.856   6.108  1.4652 -1.0217 -1.1113
  145SAPE   O2115841   2.413   5.945   6.041 -0.5732  0.7368 -0.7871
  145SAPE   C2115842   2.495   5.850   6.005 -0.4037  0.1435  0.8353
  145SAPE   O2215843   2.498   5.738   6.054  0.2546  0.0868  0.1609
  145SAPE   C2215844   2.583   5.896   5.884 -1.0350  0.6040 -0.4100
  145SAPE   H2R15845   2.623   5.997   5.907  1.4834 -0.3189 -0.3754
  145SAPE   H2S15846   2.665   5.822   5.876 -1.8405 -0.2249 -1.2050
  145SAPE    C315847   2.266   6.062   6.184  0.3251 -0.5612 -0.1419
  145SAPE    HX15848   2.337   6.118   6.249 -1.1794  1.1749  0.0863
  145SAPE    HY15849   2.178   6.044   6.249 -0.4615 -2.7958 -1.6924
  145SAPE   O3115850   2.228   6.135   6.062  0.8433 -0.2581  0.6154
  145SAPE   C3115851   2.109   6.109   6.027 -0.4759  0.6929 -0.2031
  145SAPE   O3215852   2.037   6.019   6.067 -0.4457 -0.2935  0.7284
  145SAPE   C3215853   2.075   6.199   5.908  0.2827 -0.3101  0.0317
  145SAPE   H2X15854   2.087   6.304   5.943  1.6465  0.4520 -2.4553
  145SAPE   H2Y15855   1.968   6.180   5.887  0.7883 -1.0007 -2.2416
  145SAPE   C2315856   2.499   5.910   5.759 -0.4389  0.4142 -0.0069
  145SAPE   H3R15857   2.405   5.955   5.797 -0.3983  0.3513  0.1696
  145SAPE   H3S15858   2.465   5.819   5.707  0.2187  0.1646 -0.0123
  145SAPE   C2415859   2.571   6.010   5.657  0.5721 -0.2236 -0.5190
  145SAPE   H4R15860   2.619   6.094   5.712  0.7909 -1.7679  1.7925
  145SAPE   H4S15861   2.498   6.057   5.588  0.3042 -0.4071 -0.3635
  145SAPE   C2515862   2.684   5.952   5.575  0.2379 -0.7305  0.0491
  145SAPE   H5R15863   2.778   5.984   5.623 -1.3461  2.1253  1.5350
  145SAPE   C2615864   2.679   5.901   5.454 -0.4023 -0.5585  0.0478
  145SAPE   H6R15865   2.777   5.890   5.405 -0.0012  0.0817  0.6820
  145SAPE   C2715866   2.555   5.857   5.372 -0.3711  0.0655  0.8322
  145SAPE   H7R15867   2.479   5.825   5.446  0.6403  0.8805  2.2866
  145SAPE   H7S15868   2.580   5.768   5.311  1.4027  0.3582  1.0840
  145SAPE   C2815869   2.507   5.973   5.286 -0.1061 -0.3175 -0.4641
  145SAPE   H8R15870   2.430   6.032   5.339 -3.1654 -3.6327 -0.8138
  145SAPE   C2915871   2.551   6.004   5.163 -0.2406  0.1359 -0.8838
  145SAPE   H9R15872   2.507   6.089   5.110 -1.3796  0.5046  0.5916
  145SAPE  C21015873   2.652   5.919   5.089  0.0564  0.1845  0.8361
  145SAPE  H10R15874   2.702   5.844   5.154 -1.6041 -0.6442  1.1809
  145SAPE  H10S15875   2.727   5.984   5.038 -1.2042 -0.9525 -2.7683
  145SAPE  C21115876   2.588   5.831   4.984 -0.7157 -0.1302  0.9851
  145SAPE  H11R15877   2.490   5.790   5.013 -0.8040  0.8101  2.0903
  145SAPE  C21215878   2.641   5.793   4.870  0.8502  0.5765 -0.4128
  145SAPE  H12R15879   2.590   5.740   4.788  2.4812  1.7039 -2.2297
  145SAPE  C21315880   2.781   5.819   4.812 -0.1523 -1.0995 -0.3331
  145SAPE  H13R15881   2.782   5.930   4.804 -1.9311 -1.0138  0.2263
  145SAPE  H13S15882   2.790   5.785   4.706  2.8335 -0.6062 -0.3338
  145SAPE  C21415883   2.896   5.780   4.899  0.6766  0.9156 -0.3819
  145SAPE  H14R15884   2.920   5.849   4.981 -0.1445 -0.1115  0.7734
  145SAPE  C21515885   2.978   5.673   4.883  0.5218  0.3033  0.6325
  145SAPE  H15R15886   3.060   5.652   4.954  0.0492 -1.7308  0.6450
  145SAPE  C21615887   2.965   5.568   4.773  0.5023 -0.2169  0.0257
  145SAPE  H16R15888   2.858   5.543   4.756  0.4875  0.2971 -0.6666
  145SAPE  H16S15889   3.011   5.474   4.811  1.1752  0.1974  0.2610
  145SAPE  C21715890   3.029   5.592   4.635  0.3796  0.2713  0.2553
  145SAPE  H17R15891   3.140   5.587   4.639  0.3168 -2.1865  0.2095
  145SAPE  H17S15892   2.994   5.692   4.601 -1.6366 -0.7196 -0.7407
  145SAPE  C21815893   2.976   5.504   4.517 -0.2985 -1.6851 -0.4105
  145SAPE  H18R15894   2.868   5.520   4.497  0.4653  0.9627 -3.4419
  145SAPE  H18S15895   2.993   5.399   4.549 -0.4417 -1.2839  1.0230
  145SAPE  C21915896   3.051   5.533   4.384 -0.5220 -0.6528 -0.1327
  145SAPE  H19R15897   3.149   5.481   4.381 -0.4150 -0.4323 -0.5944
  145SAPE  H19S15898   3.076   5.641   4.376  3.5522 -1.4471 -0.5381
  145SAPE  C22015899   2.967   5.487   4.264 -0.6210  0.5084 -0.1441
  145SAPE  H20R15900   3.028   5.493   4.171 -1.4345 -0.8575 -0.7911
  145SAPE  H20S15901   2.878   5.553   4.259  0.7226  2.8049  3.1208
  145SAPE  H20T15902   2.933   5.383   4.282 -0.8613  1.1432  3.8809
  145SAPE   C3315903   2.154   6.174   5.783  0.8156  0.1135 -0.0653
  145SAPE   H3X15904   2.126   6.076   5.739 -2.4843  1.3330 -0.9754
  145SAPE   H3Y15905   2.260   6.174   5.818  0.7109  0.1773  0.2602
  145SAPE   C3415906   2.130   6.280   5.678 -0.1445 -0.5015 -0.1166
  145SAPE   H4X15907   2.150   6.386   5.704 -1.9133 -0.1507 -0.0496
  145SAPE   H4Y15908   2.025   6.278   5.640 -0.9585 -0.2485  1.9912
  145SAPE   C3515909   2.216   6.252   5.543 -0.0668  0.1008  0.2464
  145SAPE   H5X15910   2.192   6.148   5.511 -1.2431  0.2522  0.5851
  145SAPE   H5Y15911   2.324   6.273   5.560 -0.4035  2.2869 -0.0423
  145SAPE   C3615912   2.190   6.344   5.428 -0.1113  0.3492  0.6886
  145SAPE   H6X15913   2.210   6.444   5.470 -1.8903  1.1993 -0.3581
  145SAPE   H6Y15914   2.084   6.345   5.395  0.3231 -1.6717 -0.9534
  145SAPE   C3715915   2.283   6.313   5.308  0.8407  0.3874  0.0790
  145SAPE   H7X15916   2.253   6.214   5.268  2.0023  0.0797 -0.0649
  145SAPE   H7Y15917   2.390   6.291   5.328  0.3594 -3.2466 -0.6302
  145SAPE   C3815918   2.263   6.417   5.194 -0.7177 -0.2369 -0.4420
  145SAPE   H8X15919   2.286   6.516   5.240 -1.7714 -0.2693  0.1933
  145SAPE   H8Y15920   2.155   6.424   5.168 -0.5475  2.3151 -0.7883
  145SAPE   C3915921   2.348   6.392   5.067 -0.1845  1.0314  0.8076
  145SAPE   H9X15922   2.366   6.284   5.046  0.0968  0.5102  3.3727
  145SAPE   H9Y15923   2.451   6.432   5.080 -0.3131  1.1015  1.6728
  145SAPE  C31015924   2.294   6.437   4.930 -0.2650  0.0267  0.5971
  145SAPE  H10X15925   2.279   6.546   4.920 -1.9353 -0.0643  1.7109
  145SAPE  H10Y15926   2.193   6.395   4.912 -1.1492  2.9594 -2.0091
  145SAPE  C31115927   2.382   6.383   4.813  0.0478  0.4158 -0.3825
  145SAPE  H11X15928   2.371   6.274   4.793  0.7092  0.5312 -1.4293
  145SAPE  H11Y15929   2.490   6.398   4.835 -0.1942 -1.1262  2.4164
  145SAPE  C31215930   2.347   6.456   4.679  0.5816  0.2907  0.2352
  145SAPE  H12X15931   2.360   6.565   4.696  0.8198  0.0235  1.9937
  145SAPE  H12Y15932   2.241   6.443   4.648  0.5060  1.8574 -0.2799
  145SAPE  C31315933   2.441   6.413   4.572  0.2659 -0.5767 -0.3849
  145SAPE  H13X15934   2.435   6.302   4.563  0.6935 -0.7162  0.8755
  145SAPE  H13Y15935   2.542   6.433   4.613  0.2077  0.9025 -0.9294
  145SAPE  C31415936   2.420   6.486   4.441  0.0742 -0.3457  0.2602
  145SAPE  H14X15937   2.448   6.592   4.461 -1.2101 -0.0973  0.8333
  145SAPE  H14Y15938   2.313   6.477   4.414 -0.1355 -2.7511  1.6112
  145SAPE  C31515939   2.500   6.436   4.319 -1.2325 -0.1420  0.1361
  145SAPE  H15X15940   2.454   6.482   4.228 -1.2983 -0.2126  0.1336
  145SAPE  H15Y15941   2.502   6.326   4.301  0.8283  0.1938 -2.2240
  145SAPE  C31615942   2.648   6.479   4.323  0.4894  0.4598 -0.3363
  145SAPE  H16X15943   2.706   6.442   4.411 -1.7308  0.5736  1.2461
  145SAPE  H16Y15944   2.642   6.588   4.343 -1.5307  0.0629  1.5454
  145SAPE  C31715945   2.736   6.433   4.200 -0.5451  0.2394  0.9650
  145SAPE  H17X15946   2.716   6.506   4.119 -1.0405 -1.2320 -0.2869
  145SAPE  H17Y15947   2.688   6.335   4.182 -0.6877  0.4730  0.0131
  145SAPE  C31815948   2.889   6.448   4.228  0.1431 -0.0814 -0.1719
  145SAPE  H18X15949   2.908   6.552   4.261 -0.4923  0.0920 -0.3354
  145SAPE  H18Y15950   2.957   6.428   4.143  0.5088  1.5495 -0.2795
  145SAPE  H18Z15951   2.922   6.381   4.310  0.0662  1.5371  1.2324
  146SAPE     N15952   6.132   6.376   7.515  0.0213  0.2558 -0.5056
  146SAPE   HN115953   6.224   6.331   7.530 -0.8334 -1.2575  0.5570
  146SAPE   HN215954   6.123   6.474   7.550  1.1344  0.9638 -2.1203
  146SAPE   HN315955   6.062   6.323   7.572  0.0633 -1.3681 -1.8977
  146SAPE   C1215956   6.093   6.386   7.370  0.5753  0.1684  0.2614
  146SAPE  H12A15957   6.167   6.452   7.319  1.3354 -1.4809 -0.8299
  146SAPE  H12B15958   5.992   6.433   7.364  0.2517 -0.2433  1.9124
  146SAPE   C1115959   6.083   6.256   7.290  0.4700 -0.4929 -0.6023
  146SAPE  H11A15960   6.018   6.192   7.353  1.1175 -2.3642 -1.7734
  146SAPE  H11B15961   6.176   6.195   7.283  0.5917 -0.2829 -0.8272
  146SAPE     P15962   6.114   6.335   7.039 -0.0118 -0.1528  0.2384
  146SAPE   O1315963   6.097   6.480   7.041 -0.2851 -0.2251 -0.1701
  146SAPE   O1415964   6.250   6.279   7.046  0.0256 -0.2460  0.3151
  146SAPE   O1215965   6.022   6.275   7.156  0.3146 -0.3642 -0.1397
  146SAPE   O1115966   6.044   6.273   6.910  0.2464  0.3043 -0.3058
  146SAPE    C115967   5.996   6.141   6.905  0.3485  0.1112  0.1014
  146SAPE    HA15968   6.068   6.060   6.931 -0.4785 -0.3510  1.0215
  146SAPE    HB15969   5.905   6.131   6.968  1.1407 -0.5925  1.1519
  146SAPE    C215970   5.960   6.122   6.752 -0.5625  0.2062 -0.1134
  146SAPE    HS15971   5.927   6.018   6.730  1.8356 -0.8937  1.1579
  146SAPE   O2115972   6.070   6.151   6.665 -0.3695  0.3727 -0.4411
  146SAPE   C2115973   6.185   6.095   6.695  0.4157 -0.7020 -0.3461
  146SAPE   O2215974   6.208   5.986   6.741  0.2675  0.1150 -0.6505
  146SAPE   C2215975   6.293   6.191   6.634 -0.3897  0.4946 -0.0568
  146SAPE   H2R15976   6.291   6.287   6.689  1.2826 -0.5267  1.9544
  146SAPE   H2S15977   6.382   6.135   6.671 -0.2308  0.9847  0.3235
  146SAPE    C315978   5.854   6.227   6.720  0.2335 -0.2625 -0.3912
  146SAPE    HX15979   5.893   6.329   6.739  0.4242 -0.5518  0.8336
  146SAPE    HY15980   5.766   6.200   6.783  0.8109 -0.6039  0.2790
  146SAPE   O3115981   5.803   6.211   6.585 -0.4726 -0.0872 -0.6503
  146SAPE   C3115982   5.826   6.300   6.493 -0.3604 -0.4667  1.3197
  146SAPE   O3215983   5.907   6.395   6.502  0.3978 -0.4752  0.7141
  146SAPE   C3215984   5.738   6.279   6.370  0.0478 -0.0023 -0.7194
  146SAPE   H2X15985   5.666   6.363   6.361 -1.2814 -0.9414  0.7255
  146SAPE   H2Y15986   5.674   6.191   6.388  0.4128  0.1912  1.7899
  146SAPE   C2315987   6.289   6.197   6.477 -0.1511  0.3353  0.7878
  146SAPE   H3R15988   6.362   6.275   6.444  0.1370 -1.1023 -2.3323
  146SAPE   H3S15989   6.195   6.237   6.433  0.7031  0.2901 -1.1755
  146SAPE   C2415990   6.326   6.064   6.412 -0.0252  0.2092  0.1587
  146SAPE   H4R15991   6.335   6.082   6.303 -2.0132 -2.8308 -0.6445
  146SAPE   H4S15992   6.248   5.987   6.431 -0.4392  0.5811 -0.0182
  146SAPE   C2515993   6.462   6.012   6.462  0.1721  0.2318  0.3449
  146SAPE   H5R15994   6.536   6.089   6.488  0.6664 -0.0209 -0.2887
  146SAPE   C2615995   6.493   5.883   6.497 -0.0392 -0.1957  0.2697
  146SAPE   H6R15996   6.593   5.860   6.538  0.7160  0.5603 -1.0790
  146SAPE   C2715997   6.398   5.774   6.471 -0.0992  0.0584 -0.6144
  146SAPE   H7R15998   6.325   5.800   6.391 -0.6308  1.3726  0.2806
  146SAPE   H7S15999   6.333   5.759   6.559  1.0800 -1.5358  0.0462
  146SAPE   C2816000   6.455   5.639   6.443  0.0002  0.0045 -0.1688
  146SAPE   H8R16001   6.469   5.569   6.526 -0.4936 -0.0187 -0.1059
  146SAPE   C2916002   6.458   5.573   6.325 -0.6967 -0.2676  0.5139
  146SAPE   H9R16003   6.512   5.477   6.318 -0.9750 -0.5021  1.5370
  146SAPE  C21016004   6.395   5.624   6.202 -0.1949 -0.0561 -0.0736
  146SAPE  H10R16005   6.295   5.660   6.233 -0.8751 -1.8442 -0.0774
  146SAPE  H10S16006   6.382   5.537   6.135 -1.5128 -0.5795  0.8177
  146SAPE  C21116007   6.477   5.728   6.128 -0.0912 -0.3627  0.5006
  146SAPE  H11R16008   6.545   5.784   6.194  0.6310 -0.2002 -0.3692
  146SAPE  C21216009   6.485   5.753   5.992  0.0106  0.3275 -0.0482
  146SAPE  H12R16010   6.539   5.844   5.961  1.7633 -0.6852 -0.0899
  146SAPE  C21316011   6.394   5.694   5.884 -1.0512 -0.2813 -0.1288
  146SAPE  H13R16012   6.321   5.773   5.860 -2.5349 -1.6308 -0.2632
  146SAPE  H13S16013   6.338   5.607   5.926 -1.1389 -0.4018 -0.4890
  146SAPE  C21416014   6.487   5.646   5.764  0.4818 -0.8883  0.1596
  146SAPE  H14R16015   6.517   5.541   5.776 -0.4425 -1.3814 -1.5970
  146SAPE  C21516016   6.525   5.724   5.661  0.3545 -0.0414  0.3325
  146SAPE  H15R16017   6.584   5.677   5.581  1.5968  2.4270 -0.3255
  146SAPE  C21616018   6.512   5.878   5.637  0.0273  1.0022  0.7356
  146SAPE  H16R16019   6.433   5.922   5.701  0.2483  0.0674  1.6694
  146SAPE  H16S16020   6.492   5.894   5.529 -1.3789 -1.2151  0.6103
  146SAPE  C21716021   6.642   5.954   5.676 -0.2752  0.2269 -0.6303
  146SAPE  H17R16022   6.729   5.914   5.619  0.0057 -0.0137 -0.0441
  146SAPE  H17S16023   6.652   5.929   5.784  0.8505  0.0161 -0.7682
  146SAPE  C21816024   6.623   6.099   5.663  0.4336 -0.4317  0.5324
  146SAPE  H18R16025   6.705   6.153   5.715  0.9448  0.3109 -0.9989
  146SAPE  H18S16026   6.531   6.123   5.720  0.6576 -2.9631  2.1048
  146SAPE  C21916027   6.609   6.146   5.517  0.8002 -0.2155 -0.5518
  146SAPE  H19R16028   6.513   6.110   5.475  0.0116 -2.5059  2.7322
  146SAPE  H19S16029   6.687   6.093   5.458  1.0317 -0.5635  0.0565
  146SAPE  C22016030   6.621   6.296   5.495  0.4101 -0.8887 -0.1638
  146SAPE  H20R16031   6.724   6.337   5.482 -0.6034  1.7060 -0.6775
  146SAPE  H20S16032   6.572   6.359   5.572 -4.0227 -1.8191 -1.9546
  146SAPE  H20T16033   6.569   6.318   5.399  0.6586  0.2123 -0.0674
  146SAPE   C3316034   5.815   6.262   6.233  0.3504  0.2914  0.9331
  146SAPE   H3X16035   5.905   6.198   6.234  3.0133  3.6803 -1.0048
  146SAPE   H3Y16036   5.859   6.362   6.215 -0.7514  0.6183 -0.0883
  146SAPE   C3416037   5.722   6.224   6.111  0.3987 -0.2972 -0.2698
  146SAPE   H4X16038   5.644   6.304   6.108  0.1554 -0.5347 -0.3562
  146SAPE   H4Y16039   5.671   6.130   6.141  0.6093  0.7698  4.1883
  146SAPE   C3516040   5.787   6.215   5.966  0.2282 -0.7021 -0.1932
  146SAPE   H5X16041   5.862   6.134   5.961 -0.8009 -1.6246 -0.9806
  146SAPE   H5Y16042   5.830   6.316   5.949 -0.5392 -0.2614  0.3739
  146SAPE   C3616043   5.674   6.217   5.862 -0.2260 -0.2750 -0.9368
  146SAPE   H6X16044   5.597   6.284   5.904 -0.2125 -1.2395  0.7298
  146SAPE   H6Y16045   5.634   6.114   5.874 -1.4536  0.1736 -1.0554
  146SAPE   C3716046   5.721   6.250   5.727 -0.5800 -0.5345 -0.0415
  146SAPE   H7X16047   5.828   6.227   5.711  0.4497  3.1471  0.6722
  146SAPE   H7Y16048   5.718   6.359   5.707 -2.3410 -0.4558  0.4554
  146SAPE   C3816049   5.636   6.188   5.615 -0.2282  0.3295  0.4057
  146SAPE   H8X16050   5.537   6.234   5.633 -0.9058 -0.3976 -1.1981
  146SAPE   H8Y16051   5.645   6.078   5.630  1.0213 -0.2186 -3.2416
  146SAPE   C3916052   5.706   6.200   5.481  0.1010 -0.0336 -0.0127
  146SAPE   H9X16053   5.805   6.151   5.493  0.6188  1.2336  1.1042
  146SAPE   H9Y16054   5.722   6.305   5.447  0.5171 -0.3092 -0.7067
  146SAPE  C31016055   5.632   6.134   5.366  0.4503  0.2271  0.6005
  146SAPE  H10X16056   5.540   6.187   5.334 -1.2135 -2.0243  1.3284
  146SAPE  H10Y16057   5.599   6.030   5.390  1.1284 -0.9463 -2.9154
  146SAPE  C31116058   5.718   6.117   5.242  0.1069 -0.0457  0.0303
  146SAPE  H11X16059   5.783   6.027   5.239  0.5418  0.2872 -2.0735
  146SAPE  H11Y16060   5.797   6.192   5.219 -0.0974 -0.5384 -2.6036
  146SAPE  C31216061   5.635   6.133   5.108  0.2058  0.7177  0.1962
  146SAPE  H12X16062   5.582   6.229   5.092 -1.1277  0.0252  0.2747
  146SAPE  H12Y16063   5.567   6.046   5.095  1.3030 -0.3253  1.2248
  146SAPE  C31316064   5.726   6.112   4.987 -0.2867  0.3208 -0.2679
  146SAPE  H13X16065   5.744   6.003   4.976  0.7349  0.6070 -1.8325
  146SAPE  H13Y16066   5.823   6.162   5.006  0.3496 -1.4278  1.3992
  146SAPE  C31416067   5.669   6.159   4.855  0.2174 -0.9669 -0.1991
  146SAPE  H14X16068   5.739   6.152   4.769 -1.0233 -0.8354 -1.2548
  146SAPE  H14Y16069   5.650   6.267   4.871  1.5028 -0.6277 -0.8544
  146SAPE  C31516070   5.539   6.091   4.801 -0.1159 -0.1784 -0.6850
  146SAPE  H15X16071   5.452   6.082   4.870 -0.8951  0.3221 -1.5760
  146SAPE  H15Y16072   5.570   5.986   4.782 -0.5532 -0.4802  0.2132
  146SAPE  C31616073   5.501   6.147   4.666 -0.5143  0.2047  0.1255
  146SAPE  H16X16074   5.528   6.255   4.666 -0.3523  0.1672 -0.2262
  146SAPE  H16Y16075   5.391   6.139   4.655 -0.3570 -2.1322 -0.2779
  146SAPE  C31716076   5.571   6.076   4.549 -0.9969 -0.1416  0.1103
  146SAPE  H17X16077   5.553   5.968   4.569  0.5086 -0.2622  0.9210
  146SAPE  H17Y16078   5.681   6.088   4.561 -0.8957 -0.6901 -0.2127
  146SAPE  C31816079   5.519   6.102   4.416 -0.3564  0.1430 -0.2118
  146SAPE  H18X16080   5.582   6.057   4.337  0.6930  1.9279 -0.4438
  146SAPE  H18Y16081   5.496   6.209   4.399  2.0702  1.0071  1.5412
  146SAPE  H18Z16082   5.418   6.055   4.408 -1.6208  2.9074 -2.2546
  147SAPE     N16083   5.458   3.434   7.164  0.7074  0.0655  0.8928
  147SAPE   HN116084   5.504   3.410   7.254 -0.5431 -2.4844  0.9340
  147SAPE   HN216085   5.362   3.397   7.175  0.5854  0.7308  2.2283
  147SAPE   HN316086   5.495   3.375   7.087 -1.1515 -0.5898  0.4584
  147SAPE   C1216087   5.447   3.584   7.126 -0.1395 -0.6806  0.7490
  147SAPE  H12A16088   5.549   3.629   7.123 -0.6031  0.3773 -0.6064
  147SAPE  H12B16089   5.382   3.640   7.196  0.9314  1.7184 -0.0589
  147SAPE   C1116090   5.393   3.597   6.981  0.1516  0.6178  0.4569
  147SAPE  H11A16091   5.476   3.573   6.911  0.2606  1.5565  0.2604
  147SAPE  H11B16092   5.372   3.705   6.969  0.5324  0.5904 -0.5064
  147SAPE     P16093   5.170   3.544   6.859 -0.4365  0.1030  0.6752
  147SAPE   O1316094   5.082   3.430   6.856 -0.2688  0.0981 -0.1819
  147SAPE   O1416095   5.118   3.676   6.889 -0.5108 -0.0020 -0.4957
  147SAPE   O1216096   5.284   3.503   6.963  0.3521  0.1938  0.2134
  147SAPE   O1116097   5.251   3.552   6.721  0.4763 -0.4693  0.4349
  147SAPE    C116098   5.350   3.461   6.676 -0.2556  0.0654  0.0070
  147SAPE    HA16099   5.446   3.516   6.687 -0.2660 -0.1789  1.5408
  147SAPE    HB16100   5.353   3.378   6.749  0.8105  0.8776  0.9203
  147SAPE    C216101   5.333   3.397   6.538 -0.3176 -0.3485 -0.3340
  147SAPE    HS16102   5.411   3.322   6.512 -0.5724 -0.3744 -1.0619
  147SAPE   O2116103   5.320   3.508   6.443 -0.2027  0.2622  0.4815
  147SAPE   C2116104   5.427   3.567   6.411 -0.1919  0.2041 -0.8308
  147SAPE   O2216105   5.539   3.532   6.434  0.1606 -0.3622 -0.0992
  147SAPE   C2216106   5.394   3.704   6.352  0.1135  0.6332 -0.2651
  147SAPE   H2R16107   5.288   3.721   6.380  0.5742 -0.5703  2.5435
  147SAPE   H2S16108   5.470   3.778   6.384  1.8363  0.1680 -2.9856
  147SAPE    C316109   5.203   3.303   6.539 -0.0198 -0.1029  0.7063
  147SAPE    HX16110   5.114   3.359   6.575 -0.2579 -0.3868  0.5603
  147SAPE    HY16111   5.227   3.236   6.624 -1.9591  0.0403  1.3997
  147SAPE   O3116112   5.183   3.246   6.411 -0.0266  0.0334  0.5411
  147SAPE   C3116113   5.102   3.301   6.327  0.7129  0.4481  0.0319
  147SAPE   O3216114   5.036   3.409   6.346  0.5760  0.9096 -0.0289
  147SAPE   C3216115   5.092   3.211   6.205  0.1090  0.0263 -0.7221
  147SAPE   H2X16116   5.029   3.124   6.233  0.8545 -0.0913  0.7111
  147SAPE   H2Y16117   5.195   3.175   6.184  0.2836  0.0853  0.0031
  147SAPE   C2316118   5.410   3.695   6.200 -0.4831 -0.8157 -0.2818
  147SAPE   H3R16119   5.514   3.669   6.170 -0.1646  0.3760 -0.2546
  147SAPE   H3S16120   5.402   3.803   6.174  1.0635  0.0694  2.5611
  147SAPE   C2416121   5.309   3.614   6.118  0.4204 -0.4782  0.4034
  147SAPE   H4R16122   5.209   3.663   6.121  0.5108 -0.2373 -0.2653
  147SAPE   H4S16123   5.283   3.522   6.174 -1.1569 -0.4364 -0.2035
  147SAPE   C2516124   5.354   3.594   5.975  0.1120 -0.7250 -0.0684
  147SAPE   H5R16125   5.455   3.551   5.959 -0.4235 -0.9303 -3.7858
  147SAPE   C2616126   5.298   3.635   5.861  0.5604 -0.1255  0.7158
  147SAPE   H6R16127   5.336   3.612   5.761 -2.5849  1.7481 -1.0849
  147SAPE   C2716128   5.168   3.711   5.854 -0.2655  0.0529 -0.2600
  147SAPE   H7R16129   5.135   3.749   5.953  0.4054  1.1326 -0.4204
  147SAPE   H7S16130   5.087   3.643   5.820 -0.4007 -0.9324  1.8664
  147SAPE   C2816131   5.192   3.831   5.766  0.3299 -0.0911  0.5212
  147SAPE   H8R16132   5.218   3.928   5.812 -0.5393 -0.1136  1.0998
  147SAPE   C2916133   5.169   3.832   5.634 -0.5561  0.3103  0.6043
  147SAPE   H9R16134   5.184   3.925   5.578 -0.7691  0.1935  0.3506
  147SAPE  C21016135   5.133   3.719   5.537  0.4551  0.4800 -0.7364
  147SAPE  H10R16136   5.085   3.631   5.584  0.7436  0.9186  0.4025
  147SAPE  H10S16137   5.231   3.680   5.501  1.0557  1.2331  0.0615
  147SAPE  C21116138   5.042   3.767   5.429 -0.8600  0.2174  0.0181
  147SAPE  H11R16139   4.958   3.831   5.460 -2.5941 -1.5789 -0.7125
  147SAPE  C21216140   5.051   3.733   5.297 -0.8409 -0.5867  0.3901
  147SAPE  H12R16141   4.969   3.774   5.237 -1.9555 -0.7374  1.7615
  147SAPE  C21316142   5.137   3.626   5.231 -0.1734 -0.5196  0.0750
  147SAPE  H13R16143   5.095   3.606   5.131 -1.3864 -1.4454  0.7346
  147SAPE  H13S16144   5.137   3.531   5.289 -0.9320 -1.5869 -1.6160
  147SAPE  C21416145   5.285   3.664   5.231  0.6299 -0.2086 -0.3266
  147SAPE  H14R16146   5.334   3.617   5.318  1.0743  0.7735 -0.0173
  147SAPE  C21516147   5.352   3.741   5.141  0.3408 -0.5530 -0.4318
  147SAPE  H15R16148   5.460   3.748   5.157  0.2257  0.8804 -0.0891
  147SAPE  C21616149   5.295   3.827   5.026 -0.2947 -0.4865 -0.3766
  147SAPE  H16R16150   5.291   3.932   5.063  1.3906 -0.8916  1.1334
  147SAPE  H16S16151   5.193   3.800   4.990 -0.5087 -1.1829  0.7036
  147SAPE  C21716152   5.390   3.828   4.902  0.0717 -0.4348 -0.2844
  147SAPE  H17R16153   5.330   3.842   4.810  1.5464  1.9992 -0.9882
  147SAPE  H17S16154   5.419   3.721   4.900 -2.2570 -1.1501  0.8515
  147SAPE  C21816155   5.515   3.911   4.898 -0.0499  1.0371  0.1815
  147SAPE  H18R16156   5.574   3.908   4.992  0.5969 -0.5341 -0.2506
  147SAPE  H18S16157   5.483   4.017   4.881  0.1522  1.5624  2.6519
  147SAPE  C21916158   5.611   3.868   4.784 -0.5020 -0.5712 -0.6485
  147SAPE  H19R16159   5.641   3.761   4.793 -0.7111 -0.7455 -1.8998
  147SAPE  H19S16160   5.697   3.938   4.788 -2.5095  2.0140 -0.5866
  147SAPE  C22016161   5.544   3.885   4.645  0.4631 -0.9077 -0.8302
  147SAPE  H20R16162   5.496   3.985   4.641  1.4898 -0.4204 -1.3287
  147SAPE  H20S16163   5.458   3.816   4.631 -2.1896  2.0644 -0.3448
  147SAPE  H20T16164   5.610   3.877   4.556 -1.2602  0.1292 -2.2663
  147SAPE   C3316165   5.030   3.297   6.085 -0.1509  0.1815  0.0879
  147SAPE   H3X16166   5.085   3.394   6.083 -1.2508  0.8169  0.0330
  147SAPE   H3Y16167   4.925   3.323   6.111 -1.2690 -2.4417 -1.4887
  147SAPE   C3416168   5.022   3.221   5.953 -0.9028  0.1957 -0.8482
  147SAPE   H4X16169   4.956   3.132   5.951  1.1639 -1.4146 -0.5117
  147SAPE   H4Y16170   5.119   3.167   5.951  1.2925  3.6697  0.6882
  147SAPE   C3516171   5.011   3.315   5.834  0.5685  0.8278  0.2207
  147SAPE   H5X16172   5.090   3.392   5.827  1.2853 -0.0637 -2.8993
  147SAPE   H5Y16173   4.911   3.364   5.839  1.4008  2.5855  0.2428
  147SAPE   C3616174   5.014   3.223   5.714 -0.5134 -0.0656  0.8145
  147SAPE   H6X16175   4.931   3.152   5.732 -2.4124  2.0071  0.6432
  147SAPE   H6Y16176   5.119   3.187   5.715 -0.2260  0.7504  0.8143
  147SAPE   C3716177   4.990   3.291   5.578 -0.6568  0.6047  0.1573
  147SAPE   H7X16178   5.054   3.380   5.560  0.3286 -0.2251 -0.4992
  147SAPE   H7Y16179   4.883   3.320   5.581 -0.2241  2.2582  0.5005
  147SAPE   C3816180   5.013   3.185   5.465  0.3117  0.4286  0.6030
  147SAPE   H8X16181   4.957   3.090   5.478  0.5531  0.0130 -1.1159
  147SAPE   H8Y16182   5.120   3.159   5.481  0.1831 -1.3777 -1.0064
  147SAPE   C3916183   5.004   3.256   5.328  0.5308  0.1035 -1.0064
  147SAPE   H9X16184   5.068   3.346   5.322 -1.0168  1.1767 -2.3868
  147SAPE   H9Y16185   4.894   3.269   5.316 -0.3773 -1.8435  3.3347
  147SAPE  C31016186   5.050   3.151   5.231 -0.3067  0.0403  0.1934
  147SAPE  H10X16187   5.000   3.053   5.246  0.7985 -0.8975 -1.8577
  147SAPE  H10Y16188   5.158   3.133   5.247 -0.3881 -0.4496  0.1811
  147SAPE  C31116189   5.038   3.190   5.083 -0.4672  0.2703  0.5354
  147SAPE  H11X16190   4.932   3.211   5.057 -0.6972 -0.7971  0.5515
  147SAPE  H11Y16191   5.077   3.101   5.029  0.6346  0.6201  0.7276
  147SAPE  C31216192   5.136   3.300   5.046 -0.4065  0.0062 -0.0117
  147SAPE  H12X16193   5.227   3.278   5.107 -0.7309  1.4727  1.0591
  147SAPE  H12Y16194   5.094   3.399   5.073  0.3985  0.9624 -2.0727
  147SAPE  C31316195   5.189   3.300   4.899  0.4214 -0.4708 -0.4962
  147SAPE  H13X16196   5.242   3.203   4.887  1.1519 -0.3332  1.3804
  147SAPE  H13Y16197   5.262   3.383   4.895 -1.8667  1.6709 -0.3455
  147SAPE  C31416198   5.077   3.306   4.800 -0.1633 -0.1788  0.9405
  147SAPE  H14X16199   5.013   3.216   4.805  0.6264 -0.6946  2.4027
  147SAPE  H14Y16200   5.119   3.297   4.697  0.6653  3.3149  0.8379
  147SAPE  C31516201   4.991   3.432   4.789  0.7437 -0.3875  0.1800
  147SAPE  H15X16202   5.058   3.516   4.761  1.0573 -0.6539  0.1326
  147SAPE  H15Y16203   4.956   3.444   4.894 -2.1053 -1.3024 -0.5727
  147SAPE  C31616204   4.876   3.416   4.684  0.0731  0.2604  0.1214
  147SAPE  H16X16205   4.806   3.330   4.699 -0.2168  0.1326 -1.7569
  147SAPE  H16Y16206   4.926   3.388   4.589 -0.3407  0.6274 -0.2071
  147SAPE  C31716207   4.788   3.540   4.653  0.5021  0.1320 -0.4454
  147SAPE  H17X16208   4.854   3.621   4.614 -0.1888  1.4968  1.0695
  147SAPE  H17Y16209   4.741   3.569   4.749 -0.1707  0.0619 -0.7475
  147SAPE  C31816210   4.682   3.505   4.553 -0.5575  0.5595 -0.2248
  147SAPE  H18X16211   4.719   3.442   4.469  1.2921  2.3590 -0.8372
  147SAPE  H18Y16212   4.641   3.595   4.502 -0.1403 -0.3994 -2.3516
  147SAPE  H18Z16213   4.589   3.468   4.602 -0.9341  2.0262  0.2164
  148SAPE     N16214   4.930   6.299   7.000 -0.4845  0.4851 -0.1354
  148SAPE   HN116215   4.866   6.242   7.059 -0.9068 -0.2055 -1.2071
  148SAPE   HN216216   4.964   6.381   7.053 -2.5759  0.5513  1.2066
  148SAPE   HN316217   4.868   6.341   6.927  0.2810  1.4817 -0.2190
  148SAPE   C1216218   5.045   6.229   6.941  0.3253  0.5449 -0.1610
  148SAPE  H12A16219   5.019   6.171   6.849 -0.1803  2.3107 -1.1629
  148SAPE  H12B16220   5.095   6.174   7.024 -1.0269 -3.7943 -1.9375
  148SAPE   C1116221   5.159   6.326   6.906 -0.4605  0.4836 -0.0399
  148SAPE  H11A16222   5.231   6.275   6.838  0.8756 -0.6012  2.0552
  148SAPE  H11B16223   5.216   6.340   7.001  0.3059 -1.3167 -0.1764
  148SAPE     P16224   5.200   6.542   6.767  0.1644  0.0396  0.0686
  148SAPE   O1316225   5.121   6.663   6.735  0.0992 -0.0435 -0.1894
  148SAPE   O1416226   5.324   6.558   6.849  0.0040 -0.0616 -0.2583
  148SAPE   O1216227   5.105   6.448   6.853 -0.3261  0.2036  0.4648
  148SAPE   O1116228   5.218   6.445   6.637  0.1455 -0.4052  0.3892
  148SAPE    C116229   5.101   6.389   6.578  0.0987  0.4111 -0.4388
  148SAPE    HA16230   5.089   6.283   6.607  2.0694  0.7723  2.0067
  148SAPE    HB16231   5.008   6.428   6.627  0.9512 -1.3659  2.9217
  148SAPE    C216232   5.093   6.405   6.425  0.2640 -0.9739  0.2009
  148SAPE    HS16233   4.993   6.371   6.390  1.1592 -0.2700 -3.5067
  148SAPE   O2116234   5.201   6.331   6.371 -0.3005 -0.3586 -0.5067
  148SAPE   C2116235   5.183   6.203   6.353  0.2230  0.0016 -0.8682
  148SAPE   O2216236   5.082   6.141   6.376  0.8592 -0.7252  0.0846
  148SAPE   C2216237   5.297   6.135   6.275  0.2496 -0.4077  0.1909
  148SAPE   H2R16238   5.386   6.118   6.341  0.2894  0.0221  0.2522
  148SAPE   H2S16239   5.264   6.031   6.257 -0.5359 -0.6904  2.7496
  148SAPE    C316240   5.108   6.552   6.386  0.7028  0.3123  0.6283
  148SAPE    HX16241   5.211   6.579   6.417 -0.0489  1.2613  2.4468
  148SAPE    HY16242   5.038   6.614   6.446  0.0484  1.8119 -1.5590
  148SAPE   O3116243   5.106   6.561   6.243  0.5288  0.0508  0.3020
  148SAPE   C3116244   4.986   6.566   6.183 -0.6392 -0.6666 -0.6309
  148SAPE   O3216245   4.879   6.552   6.244  0.1906  0.4069  0.9484
  148SAPE   C3216246   4.998   6.583   6.038 -0.5606 -0.3633 -0.0164
  148SAPE   H2X16247   5.101   6.553   6.009 -0.7011  0.9313 -2.0164
  148SAPE   H2Y16248   4.991   6.693   6.024 -1.0570  0.3826  4.4289
  148SAPE   C2316249   5.334   6.227   6.158 -0.5320  1.1825 -0.1746
  148SAPE   H3R16250   5.404   6.166   6.097  0.9669  3.6515 -1.0908
  148SAPE   H3S16251   5.387   6.319   6.192  2.5793 -0.0912 -1.1963
  148SAPE   C2416252   5.214   6.266   6.070 -0.4711  0.1241 -0.2643
  148SAPE   H4R16253   5.255   6.328   5.988 -0.0295  1.9300  1.2648
  148SAPE   H4S16254   5.152   6.332   6.135 -0.1792 -0.4750  0.6468
  148SAPE   C2516255   5.136   6.145   6.017  0.0098 -0.5556  0.2507
  148SAPE   H5R16256   5.060   6.118   6.092  2.2779  0.6996  3.1925
  148SAPE   C2616257   5.158   6.077   5.905  0.4572  0.2482  0.2873
  148SAPE   H6R16258   5.107   5.980   5.896 -2.0435  1.0402  3.8495
  148SAPE   C2716259   5.276   6.097   5.814 -0.3305 -0.0588  0.6533
  148SAPE   H7R16260   5.362   6.161   5.842 -0.3862 -0.8871  2.8823
  148SAPE   H7S16261   5.229   6.158   5.734 -2.5133 -0.7789  1.3014
  148SAPE   C2816262   5.332   5.966   5.760  0.3332 -0.8139 -0.2366
  148SAPE   H8R16263   5.398   5.913   5.831  0.2991 -0.1136  0.3276
  148SAPE   C2916264   5.301   5.912   5.644  0.0022  0.6011 -0.3290
  148SAPE   H9R16265   5.363   5.822   5.629  1.4308  0.9897  2.4750
  148SAPE  C21016266   5.200   5.958   5.540 -0.0192  0.5545 -0.0402
  148SAPE  H10R16267   5.186   6.068   5.537  2.4238  0.8962 -2.6883
  148SAPE  H10S16268   5.097   5.920   5.558 -0.3361  1.5045  0.2169
  148SAPE  C21116269   5.253   5.923   5.403 -0.1433 -0.5780 -0.9130
  148SAPE  H11R16270   5.350   5.967   5.376  0.7796 -0.6413  2.0011
  148SAPE  C21216271   5.182   5.863   5.307 -0.5035 -0.0813  0.0533
  148SAPE  H12R16272   5.234   5.847   5.212 -0.2160 -3.7655  0.6938
  148SAPE  C21316273   5.038   5.805   5.318 -0.5212 -0.2972  0.2655
  148SAPE  H13R16274   5.001   5.816   5.213  1.9542  0.8790 -0.5529
  148SAPE  H13S16275   4.978   5.861   5.393 -0.1951 -1.2767  1.2823
  148SAPE  C21416276   5.038   5.659   5.364 -0.0793 -0.8435 -0.0711
  148SAPE  H14R16277   5.087   5.653   5.462  0.7013  0.7866 -0.3396
  148SAPE  C21516278   4.979   5.546   5.309  0.5066 -0.2451 -0.0187
  148SAPE  H15R16279   4.997   5.450   5.360 -2.1227 -0.0208  1.5185
  148SAPE  C21616280   4.898   5.548   5.185 -0.0330 -0.4362 -0.2274
  148SAPE  H16R16281   4.877   5.649   5.143 -1.3828 -1.0577 -1.1352
  148SAPE  H16S16282   4.797   5.512   5.214  1.0075 -0.9246  3.2769
  148SAPE  C21716283   4.967   5.461   5.077 -0.1005  0.1997 -0.3196
  148SAPE  H17R16284   4.988   5.361   5.119 -2.1144 -0.6021 -1.1054
  148SAPE  H17S16285   5.066   5.511   5.067  0.0093 -0.0215 -0.3297
  148SAPE  C21816286   4.901   5.465   4.946  0.1690 -0.1950  0.6692
  148SAPE  H18R16287   4.926   5.553   4.885 -2.1389 -0.6071 -1.0239
  148SAPE  H18S16288   4.790   5.465   4.951  0.1200  3.6041  2.5924
  148SAPE  C21916289   4.948   5.359   4.843 -0.0499  0.5206  0.0026
  148SAPE  H19R16290   4.916   5.258   4.875  1.3424 -0.4216 -1.4273
  148SAPE  H19S16291   5.058   5.359   4.825 -0.1976  0.5055 -0.9368
  148SAPE  C22016292   4.882   5.405   4.708 -0.4900  0.5897  0.0043
  148SAPE  H20R16293   4.938   5.491   4.667  1.1404 -0.6072 -0.4088
  148SAPE  H20S16294   4.775   5.434   4.712 -0.9718 -1.1269  0.3060
  148SAPE  H20T16295   4.883   5.315   4.643  0.9809  0.3281  0.3489
  148SAPE   C3316296   4.909   6.504   5.935 -0.2220 -0.2689  0.1521
  148SAPE   H3X16297   4.803   6.530   5.954 -0.2924 -1.1082  1.0098
  148SAPE   H3Y16298   4.912   6.394   5.945 -1.0159 -0.3715 -0.6311
  148SAPE   C3416299   4.939   6.549   5.793  0.1376 -0.1103  0.4365
  148SAPE   H4X16300   4.994   6.644   5.785 -1.8440  1.0469 -0.1527
  148SAPE   H4Y16301   4.842   6.558   5.740 -0.0441 -0.7701  0.6378
  148SAPE   C3516302   5.021   6.439   5.717  0.0430 -0.0870 -0.1860
  148SAPE   H5X16303   4.960   6.346   5.720 -0.7728  0.4489  0.3517
  148SAPE   H5Y16304   5.115   6.420   5.772 -0.1177  0.3902  0.2631
  148SAPE   C3616305   5.045   6.469   5.566  0.3187  0.1043 -0.2209
  148SAPE   H6X16306   5.125   6.545   5.557 -0.2151  0.9375  1.5941
  148SAPE   H6Y16307   4.954   6.503   5.512 -0.8895 -1.8402  0.4854
  148SAPE   C3716308   5.114   6.351   5.495 -0.6906  0.3248 -0.0252
  148SAPE   H7X16309   5.025   6.285   5.483 -0.9848  0.0736  2.9513
  148SAPE   H7Y16310   5.189   6.296   5.555 -1.3278 -1.0584 -0.4489
  148SAPE   C3816311   5.165   6.381   5.355 -0.2932 -0.2706  0.4566
  148SAPE   H8X16312   5.267   6.425   5.350  0.6720 -2.2348  1.6088
  148SAPE   H8Y16313   5.099   6.455   5.306 -0.5042 -0.7640 -0.0074
  148SAPE   C3916314   5.162   6.259   5.263 -0.4735  0.2378  0.4103
  148SAPE   H9X16315   5.062   6.211   5.252 -0.3431 -0.0726  0.5853
  148SAPE   H9Y16316   5.225   6.176   5.300 -1.3648  0.5639  2.8096
  148SAPE  C31016317   5.206   6.283   5.116  0.1110  0.2147 -0.7021
  148SAPE  H10X16318   5.308   6.327   5.113  1.3155 -2.2156  1.2077
  148SAPE  H10Y16319   5.128   6.354   5.080 -0.0618  0.4056  0.0229
  148SAPE  C31116320   5.212   6.162   5.027 -0.4109  0.1508  0.1576
  148SAPE  H11X16321   5.272   6.082   5.078 -1.9418 -0.4833  1.0371
  148SAPE  H11Y16322   5.273   6.204   4.944  0.1197  0.1876  0.5555
  148SAPE  C31216323   5.074   6.114   4.981 -0.4239  0.2602  0.3658
  148SAPE  H12X16324   5.022   6.206   4.946 -2.1735 -0.9569 -0.4524
  148SAPE  H12Y16325   5.009   6.077   5.063 -0.5628  3.2427  1.7192
  148SAPE  C31316326   5.074   6.022   4.867  0.3112  0.2761 -0.2623
  148SAPE  H13X16327   5.126   5.926   4.884  0.8031  0.5234 -0.3419
  148SAPE  H13Y16328   5.112   6.062   4.770  1.5732  0.6953  0.3850
  148SAPE  C31416329   4.924   5.983   4.842  0.2756  0.3719 -0.6381
  148SAPE  H14X16330   4.865   6.077   4.837 -1.3252 -0.6273 -1.6240
  148SAPE  H14Y16331   4.898   5.931   4.936  3.5716 -2.0303 -0.8865
  148SAPE  C31516332   4.902   5.902   4.720  0.0594  0.6191  0.2469
  148SAPE  H15X16333   4.816   5.834   4.739  1.6711 -1.1210  1.7612
  148SAPE  H15Y16334   4.994   5.842   4.701 -0.9543 -1.3688  1.2802
  148SAPE  C31616335   4.874   5.978   4.591  0.1100  0.3517  0.1165
  148SAPE  H16X16336   4.964   6.043   4.576  0.0110  0.1307 -1.6603
  148SAPE  H16Y16337   4.782   6.039   4.603 -0.0586  0.0260  0.4948
  148SAPE  C31716338   4.845   5.879   4.475 -0.7920  0.0715 -0.2961
  148SAPE  H17X16339   4.813   5.945   4.393  0.1238  2.0377  0.8629
  148SAPE  H17Y16340   4.762   5.809   4.501  0.9142 -1.1362  2.4266
  148SAPE  C31816341   4.956   5.805   4.416  0.3911  0.2943 -0.0100
  148SAPE  H18X16342   5.050   5.864   4.423 -0.4424  1.5588  1.3130
  148SAPE  H18Y16343   4.921   5.767   4.318  0.3267 -0.8215  0.4334
  148SAPE  H18Z16344   4.960   5.718   4.485 -2.7975  0.8155  1.0435
  149SAPE     N16345   3.077   0.852   6.348 -0.3431  0.5085 -0.3194
  149SAPE   HN116346   3.006   0.781   6.373 -1.3790  0.1008 -3.8490
  149SAPE   HN216347   3.122   0.845   6.254  1.0660  1.1955  0.2665
  149SAPE   HN316348   3.156   0.847   6.415  0.6308 -2.8091 -1.5438
  149SAPE   C1216349   2.985   0.976   6.352 -0.6917 -0.6574 -0.3353
  149SAPE  H12A16350   3.039   1.064   6.309  0.6295 -1.3616 -0.1530
  149SAPE  H12B16351   2.956   1.010   6.454 -0.5792  1.9663 -1.0816
  149SAPE   C1116352   2.855   0.950   6.278 -0.1533  0.4165  0.7569
  149SAPE  H11A16353   2.871   0.944   6.169 -4.4162  3.0698 -0.2267
  149SAPE  H11B16354   2.790   1.039   6.290  0.5471  1.2381 -1.1744
  149SAPE     P16355   2.650   0.814   6.367  0.0053  0.4962 -0.8045
  149SAPE   O1316356   2.628   0.680   6.424  0.3181  0.6411  0.6834
  149SAPE   O1416357   2.631   0.932   6.460 -0.0009 -0.1124  0.1117
  149SAPE   O1216358   2.801   0.827   6.317 -0.1421 -0.0589 -0.2937
  149SAPE   O1116359   2.557   0.835   6.240  0.0101 -0.0451  0.1359
  149SAPE    C116360   2.555   0.724   6.148 -0.4517 -0.0815  0.7602
  149SAPE    HA16361   2.597   0.626   6.181 -1.0445 -1.7172 -2.8658
  149SAPE    HB16362   2.450   0.709   6.118 -0.6761 -1.3596  2.0673
  149SAPE    C216363   2.644   0.756   6.020 -0.3171 -0.1607  0.4873
  149SAPE    HS16364   2.739   0.791   6.066 -0.6111 -0.4340  1.3397
  149SAPE   O2116365   2.569   0.845   5.941 -0.4189  0.1314  0.2686
  149SAPE   C2116366   2.633   0.913   5.864  0.3546 -0.0927  0.4344
  149SAPE   O2216367   2.756   0.938   5.866  0.1622  0.8644 -0.2278
  149SAPE   C2216368   2.547   0.987   5.772  0.5956  0.3861  0.5672
  149SAPE   H2R16369   2.451   1.014   5.821  1.0356  3.2080  0.0551
  149SAPE   H2S16370   2.600   1.084   5.757  2.2229 -0.5296  0.2436
  149SAPE    C316371   2.665   0.627   5.941  0.4464  0.4805  0.8645
  149SAPE    HX16372   2.738   0.577   6.008  1.0683  1.5046  0.9895
  149SAPE    HY16373   2.723   0.647   5.848 -2.5949 -0.6114 -1.4155
  149SAPE   O3116374   2.543   0.558   5.918  0.5022 -0.1531  0.0201
  149SAPE   C3116375   2.549   0.448   5.842 -0.5794  0.3842 -0.0822
  149SAPE   O3216376   2.652   0.405   5.795  0.2947 -0.1330 -0.4494
  149SAPE   C3216377   2.410   0.377   5.840 -0.1625  0.0454 -0.4413
  149SAPE   H2X16378   2.344   0.439   5.904  1.3569  0.2903  0.9677
  149SAPE   H2Y16379   2.432   0.283   5.895 -1.1037 -0.2803 -0.6061
  149SAPE   C2316380   2.526   0.921   5.630  0.6867  0.0185  0.0312
  149SAPE   H3R16381   2.488   0.821   5.660  1.1171  0.0391  0.6427
  149SAPE   H3S16382   2.626   0.900   5.586  0.7457 -0.1631  0.2546
  149SAPE   C2416383   2.431   0.987   5.530  0.0299  0.2648 -0.5345
  149SAPE   H4R16384   2.432   0.922   5.440  0.6493 -3.0593  1.6752
  149SAPE   H4S16385   2.473   1.085   5.501 -0.1503  0.3011 -0.6764
  149SAPE   C2516386   2.289   0.986   5.579 -0.4219 -0.9807 -0.4766
  149SAPE   H5R16387   2.262   0.889   5.624 -1.5956 -0.3507  0.2268
  149SAPE   C2616388   2.198   1.086   5.585 -0.2598  0.6205 -0.8810
  149SAPE   H6R16389   2.099   1.050   5.615 -0.1011 -1.0131 -2.1913
  149SAPE   C2716390   2.216   1.229   5.542  0.5622  0.0965  0.7921
  149SAPE   H7R16391   2.297   1.229   5.466  0.2161 -2.5804  0.3152
  149SAPE   H7S16392   2.250   1.291   5.628  3.1410  0.1720 -0.1933
  149SAPE   C2816393   2.084   1.282   5.486 -0.5417  0.3816 -0.6184
  149SAPE   H8R16394   2.004   1.296   5.560  1.1871 -0.4724  1.5126
  149SAPE   C2916395   2.066   1.312   5.359  0.9314 -0.0774 -0.4692
  149SAPE   H9R16396   1.972   1.366   5.343  0.4592 -0.1583  1.7186
  149SAPE  C21016397   2.157   1.307   5.241  0.6393  0.7144  0.3174
  149SAPE  H10R16398   2.262   1.314   5.275 -0.2861 -0.1691  3.7958
  149SAPE  H10S16399   2.139   1.392   5.172  1.2463  0.6975  0.1327
  149SAPE  C21116400   2.122   1.178   5.171  0.6916 -0.2040  0.2145
  149SAPE  H11R16401   2.017   1.170   5.139  1.2166  1.2458 -2.1044
  149SAPE  C21216402   2.204   1.079   5.135 -0.4117 -0.4931 -0.1230
  149SAPE  H12R16403   2.155   0.990   5.094 -1.9547 -1.1729  2.9006
  149SAPE  C21316404   2.354   1.079   5.144 -0.2515 -0.5761 -0.4084
  149SAPE  H13R16405   2.388   1.039   5.242 -1.2599  0.7868  0.5413
  149SAPE  H13S16406   2.397   1.182   5.141  0.0406 -0.7160 -1.8563
  149SAPE  C21416407   2.404   0.992   5.030  0.3319 -0.2648 -1.0279
  149SAPE  H14R16408   2.423   0.887   5.056  0.5751 -0.2661 -1.2042
  149SAPE  C21516409   2.474   1.030   4.925 -0.3244 -0.3661 -0.7365
  149SAPE  H15R16410   2.495   0.953   4.849 -1.2496 -0.9997 -0.3565
  149SAPE  C21616411   2.501   1.168   4.874  1.0219  0.2352 -0.7940
  149SAPE  H16R16412   2.596   1.180   4.818 -0.4863 -1.4639 -3.9822
  149SAPE  H16S16413   2.511   1.246   4.953  0.9762  0.8462 -1.3782
  149SAPE  C21716414   2.389   1.205   4.770  0.1189  0.6244 -0.0673
  149SAPE  H17R16415   2.286   1.192   4.809 -0.6169  2.0388 -1.4140
  149SAPE  H17S16416   2.396   1.126   4.693  0.2119 -1.0429  1.5983
  149SAPE  C21816417   2.386   1.353   4.715 -0.6428  0.1932 -0.0952
  149SAPE  H18R16418   2.478   1.363   4.654  1.0552 -1.4493  2.0072
  149SAPE  H18S16419   2.397   1.422   4.801  0.8604 -0.7763  0.5436
  149SAPE  C21916420   2.263   1.374   4.635  0.0660 -0.0351 -0.0149
  149SAPE  H19R16421   2.169   1.384   4.693  0.9105 -0.3975  1.4697
  149SAPE  H19S16422   2.253   1.299   4.553 -1.0102  0.7329 -0.6122
  149SAPE  C22016423   2.271   1.510   4.555  0.5007 -0.2533 -0.6460
  149SAPE  H20R16424   2.168   1.534   4.522 -0.1684 -0.6552  1.0479
  149SAPE  H20S16425   2.342   1.497   4.470  1.6736 -0.8486  0.3806
  149SAPE  H20T16426   2.316   1.573   4.635  1.3961 -1.3018 -0.2942
  149SAPE   C3316427   2.366   0.355   5.696  0.5410 -0.2523  0.6287
  149SAPE   H3X16428   2.274   0.296   5.680 -0.2413  0.6707  1.5301
  149SAPE   H3Y16429   2.449   0.300   5.646  1.1025 -1.0385  2.3185
  149SAPE   C3416430   2.338   0.480   5.618 -0.1919 -0.5971  0.9119
  149SAPE   H4X16431   2.413   0.561   5.635  0.5438 -0.7998 -1.0655
  149SAPE   H4Y16432   2.242   0.531   5.641  0.1756  0.3705  0.3942
  149SAPE   C3516433   2.335   0.446   5.463  0.2251  0.6459 -0.4110
  149SAPE   H5X16434   2.291   0.345   5.446  0.9944  0.3165 -0.4784
  149SAPE   H5Y16435   2.436   0.452   5.417  0.0456 -0.8994 -1.0723
  149SAPE   C3616436   2.252   0.540   5.367 -0.1523  0.5787  0.6446
  149SAPE   H6X16437   2.255   0.637   5.420 -2.4307 -0.3491  2.6492
  149SAPE   H6Y16438   2.146   0.510   5.372  0.2835 -0.9131  1.9398
  149SAPE   C3716439   2.317   0.538   5.230 -0.4036  0.2441 -0.1139
  149SAPE   H7X16440   2.323   0.435   5.188  3.0046  1.4105 -3.0607
  149SAPE   H7Y16441   2.422   0.576   5.229 -0.3712  0.1598 -0.0099
  149SAPE   C3816442   2.230   0.621   5.130  0.5723 -0.1297 -0.3506
  149SAPE   H8X16443   2.245   0.730   5.143  2.5064  0.3213 -4.6381
  149SAPE   H8Y16444   2.122   0.596   5.138  0.2421  0.4808 -2.3178
  149SAPE   C3916445   2.265   0.591   4.984 -0.3415  0.5487  0.0927
  149SAPE   H9X16446   2.251   0.481   4.977  1.5101  0.3338 -0.7879
  149SAPE   H9Y16447   2.369   0.622   4.957 -0.0501 -0.3345  0.1801
  149SAPE  C31016448   2.168   0.664   4.883 -0.1406  0.3903  0.4447
  149SAPE  H10X16449   2.153   0.768   4.920 -1.4750  1.3763 -2.5344
  149SAPE  H10Y16450   2.068   0.616   4.882  0.7834 -1.6313 -0.1185
  149SAPE  C31116451   2.223   0.684   4.736  0.9060 -0.0520 -0.2900
  149SAPE  H11X16452   2.216   0.589   4.679  0.2035 -0.0677 -0.1909
  149SAPE  H11Y16453   2.332   0.707   4.735  1.2349 -1.4453  0.5097
  149SAPE  C31216454   2.139   0.788   4.664 -0.1477 -0.5135 -0.1568
  149SAPE  H12X16455   2.140   0.887   4.714 -0.9781 -1.6665  2.2945
  149SAPE  H12Y16456   2.031   0.762   4.666  0.1237 -1.7213 -0.3820
  149SAPE  C31316457   2.176   0.807   4.513 -0.2616  0.0543 -0.4906
  149SAPE  H13X16458   2.280   0.846   4.505 -0.2761  0.3058  0.4592
  149SAPE  H13Y16459   2.100   0.871   4.463 -0.1330  0.4773 -0.1507
  149SAPE  C31416460   2.169   0.692   4.418 -0.1055  0.0738 -1.1272
  149SAPE  H14X16461   2.156   0.733   4.316  0.7430  5.1779  0.5608
  149SAPE  H14Y16462   2.081   0.630   4.445  1.2963 -0.9853  1.3156
  149SAPE  C31516463   2.298   0.604   4.421 -0.2544  0.1258 -0.5373
  149SAPE  H15X16464   2.269   0.498   4.406 -2.3692  0.3937  1.2597
  149SAPE  H15Y16465   2.345   0.622   4.520 -2.2514  0.7898  0.3253
  149SAPE  C31616466   2.405   0.642   4.319 -0.0868  0.0598 -0.6469
  149SAPE  H16X16467   2.503   0.598   4.347 -0.5580 -0.7353 -0.2168
  149SAPE  H16Y16468   2.409   0.753   4.318 -0.2373  0.0710 -0.2096
  149SAPE  C31716469   2.376   0.584   4.183 -0.7827  0.1488 -0.3259
  149SAPE  H17X16470   2.295   0.645   4.137 -1.5595 -2.0021 -1.9406
  149SAPE  H17Y16471   2.342   0.478   4.187 -0.9081  0.1574 -1.1521
  149SAPE  C31816472   2.493   0.585   4.077  0.1465 -0.5418  0.1007
  149SAPE  H18X16473   2.476   0.535   3.979  3.2163 -2.7731  0.5778
  149SAPE  H18Y16474   2.583   0.545   4.128 -0.6486  0.7001  2.6780
  149SAPE  H18Z16475   2.510   0.690   4.043 -1.5117  0.4834  2.2288
  150SAPE     N16476   5.474   2.194   6.496 -0.5031  0.0839  0.2566
  150SAPE   HN116477   5.447   2.295   6.492  0.2286  0.4629  2.9259
  150SAPE   HN216478   5.510   2.163   6.404 -0.3096 -0.9263  0.6645
  150SAPE   HN316479   5.392   2.139   6.527 -1.5305  1.2799 -0.2409
  150SAPE   C1216480   5.577   2.170   6.605  0.3616  0.2522  0.1455
  150SAPE  H12A16481   5.514   2.170   6.696  0.5969  0.5415  0.3078
  150SAPE  H12B16482   5.638   2.262   6.609  2.0726 -0.7531 -1.2716
  150SAPE   C1116483   5.641   2.029   6.605 -0.3676 -0.2039 -0.0950
  150SAPE  H11A16484   5.701   2.013   6.697 -0.0383 -1.3479 -0.4847
  150SAPE  H11B16485   5.702   2.015   6.512 -2.4356 -1.5790 -1.3266
  150SAPE     P16486   5.556   1.775   6.619 -0.2346  0.3433  0.0704
  150SAPE   O1316487   5.693   1.736   6.579  0.1964 -0.0922  0.2309
  150SAPE   O1416488   5.502   1.732   6.754  0.2098 -0.0019 -0.2616
  150SAPE   O1216489   5.536   1.928   6.601 -0.1614 -0.3474  0.0126
  150SAPE   O1116490   5.463   1.709   6.520 -0.1965 -0.3942  0.0920
  150SAPE    C116491   5.419   1.774   6.402  0.0658 -0.8339  0.6045
  150SAPE    HA16492   5.315   1.745   6.377  0.0961 -2.2545  1.9880
  150SAPE    HB16493   5.415   1.885   6.412  2.0877 -0.6124 -0.4893
  150SAPE    C216494   5.518   1.747   6.286 -0.4045 -0.0076  0.3712
  150SAPE    HS16495   5.621   1.771   6.322 -0.0557  0.7812 -1.0912
  150SAPE   O2116496   5.481   1.833   6.171  0.3146 -0.4039 -0.0000
  150SAPE   C2116497   5.500   1.962   6.181 -0.4821 -0.2564 -0.1976
  150SAPE   O2216498   5.539   2.020   6.282 -0.6683 -0.0533 -0.3352
  150SAPE   C2216499   5.471   2.036   6.052  0.0072  0.5128 -0.0398
  150SAPE   H2R16500   5.361   2.029   6.039 -0.0942 -1.1811  1.3697
  150SAPE   H2S16501   5.515   2.138   6.044 -0.6257  0.6123 -3.7756
  150SAPE    C316502   5.517   1.593   6.248  0.0742 -0.5448  0.6344
  150SAPE    HX16503   5.411   1.560   6.244 -0.3484  0.7037  1.0794
  150SAPE    HY16504   5.559   1.539   6.336  0.2419 -1.3413  0.0724
  150SAPE   O3116505   5.590   1.570   6.128  0.1908  0.4022  0.6016
  150SAPE   C3116506   5.715   1.538   6.135 -0.4727 -0.4984  0.2608
  150SAPE   O3216507   5.774   1.521   6.240  0.2693  0.1693 -0.1027
  150SAPE   C3216508   5.774   1.539   5.991 -0.0788  0.2433 -0.1142
  150SAPE   H2X16509   5.755   1.638   5.944  0.2112 -0.2428 -1.2941
  150SAPE   H2Y16510   5.735   1.450   5.937 -1.9777  1.8353 -1.5359
  150SAPE   C2316511   5.535   1.960   5.934  0.1044  0.3848 -0.7514
  150SAPE   H3R16512   5.466   1.878   5.906 -0.5157  1.6414 -3.2000
  150SAPE   H3S16513   5.638   1.919   5.950 -0.1740  0.3881  1.2683
  150SAPE   C2416514   5.554   2.053   5.812  0.1165 -0.7468 -0.2453
  150SAPE   H4R16515   5.626   1.997   5.748  0.5580 -0.7008  0.2006
  150SAPE   H4S16516   5.599   2.149   5.846 -1.3635  0.1454 -0.7170
  150SAPE   C2516517   5.432   2.076   5.725  0.2907  0.3122 -0.0302
  150SAPE   H5R16518   5.354   2.000   5.739 -0.6592  1.0256 -1.2442
  150SAPE   C2616519   5.404   2.188   5.663 -0.0959 -0.7523  0.2738
  150SAPE   H6R16520   5.322   2.194   5.590  1.1289  0.2954 -1.0729
  150SAPE   C2716521   5.494   2.309   5.659 -0.5116 -0.3995 -0.0276
  150SAPE   H7R16522   5.591   2.310   5.713  1.9203  0.0457 -3.9802
  150SAPE   H7S16523   5.439   2.392   5.708  1.9481  1.8888 -0.8622
  150SAPE   C2816524   5.521   2.363   5.521 -0.0196  0.2372 -0.1987
  150SAPE   H8R16525   5.479   2.462   5.496 -1.4479  0.1530  1.6324
  150SAPE   C2916526   5.601   2.315   5.433  0.2404  0.6995 -0.9945
  150SAPE   H9R16527   5.612   2.359   5.333 -0.3553  0.7316 -1.0496
  150SAPE  C21016528   5.668   2.182   5.441 -0.1828 -0.1559 -0.4566
  150SAPE  H10R16529   5.593   2.112   5.398 -2.0015  1.0134  0.6848
  150SAPE  H10S16530   5.690   2.158   5.547  1.7171  2.1073 -0.2276
  150SAPE  C21116531   5.797   2.176   5.369  0.6317  0.4274  0.2408
  150SAPE  H11R16532   5.855   2.269   5.356  1.5261 -0.2018 -0.3918
  150SAPE  C21216533   5.861   2.059   5.344 -0.4566  0.2773  0.3136
  150SAPE  H12R16534   5.961   2.053   5.300 -0.4616 -0.7669  0.4164
  150SAPE  C21316535   5.801   1.919   5.380 -0.0487  0.9107 -0.1010
  150SAPE  H13R16536   5.698   1.927   5.420  0.3088  1.5346  0.7442
  150SAPE  H13S16537   5.865   1.865   5.453  0.1552 -0.0972 -1.0079
  150SAPE  C21416538   5.797   1.843   5.249 -0.1111  0.4494  0.2253
  150SAPE  H14R16539   5.884   1.779   5.231  0.8593  2.0082 -0.9234
  150SAPE  C21516540   5.697   1.830   5.160 -0.1760 -0.2118  0.8544
  150SAPE  H15R16541   5.720   1.775   5.068  0.1042  0.7729  0.3239
  150SAPE  C21616542   5.568   1.905   5.160  0.8537  0.2628 -0.1425
  150SAPE  H16R16543   5.537   1.938   5.261 -1.6004 -0.0283 -0.7188
  150SAPE  H16S16544   5.481   1.843   5.127  0.7895 -1.2122  2.4959
  150SAPE  C21716545   5.575   2.029   5.066  0.2869  0.2670  0.0436
  150SAPE  H17R16546   5.608   1.988   4.968  2.0103  0.7006  0.4022
  150SAPE  H17S16547   5.661   2.087   5.106 -1.0708  0.2984  3.2501
  150SAPE  C21816548   5.458   2.123   5.066 -0.4486 -0.5628 -0.0134
  150SAPE  H18R16549   5.421   2.149   5.168 -0.0111  0.4594 -0.1068
  150SAPE  H18S16550   5.361   2.075   5.038 -0.9278 -0.1317  0.8347
  150SAPE  C21916551   5.477   2.244   4.974  0.6198 -0.7087  0.2916
  150SAPE  H19R16552   5.382   2.248   4.916 -1.1289  0.5833  3.0651
  150SAPE  H19S16553   5.565   2.224   4.909  0.1058 -1.9370 -0.0605
  150SAPE  C22016554   5.504   2.380   5.044  0.3503  0.7853 -0.0926
  150SAPE  H20R16555   5.580   2.372   5.126 -1.0415  2.4391  1.4477
  150SAPE  H20S16556   5.414   2.414   5.099 -0.3215  0.1860 -0.8105
  150SAPE  H20T16557   5.535   2.460   4.974  1.3796  1.0681  0.6448
  150SAPE   C3316558   5.928   1.527   5.985 -0.9303  0.0134  0.3807
  150SAPE   H3X16559   5.963   1.434   6.035 -0.2475  0.9565  1.7462
  150SAPE   H3Y16560   5.973   1.611   6.043  0.6001 -1.1496  0.9324
  150SAPE   C3416561   5.980   1.534   5.842 -0.2225 -0.0607  0.7619
  150SAPE   H4X16562   5.923   1.609   5.782  2.0087 -1.7197 -3.8807
  150SAPE   H4Y16563   5.956   1.442   5.784  0.8546  1.3709 -2.1439
  150SAPE   C3516564   6.133   1.561   5.836  0.4599 -0.1196  0.1708
  150SAPE   H5X16565   6.174   1.469   5.881  0.8265 -0.3612 -0.6474
  150SAPE   H5Y16566   6.161   1.651   5.895 -2.8270  1.5080 -0.4991
  150SAPE   C3616567   6.186   1.566   5.694 -0.0280  0.3460 -0.0901
  150SAPE   H6X16568   6.281   1.623   5.705 -0.2266  0.4139  1.4586
  150SAPE   H6Y16569   6.109   1.620   5.636  1.5250  0.6566 -1.9495
  150SAPE   C3716570   6.222   1.435   5.637 -0.2121 -0.0283 -0.0610
  150SAPE   H7X16571   6.142   1.362   5.661  0.0165  0.0230  0.8783
  150SAPE   H7Y16572   6.320   1.400   5.675  1.2873 -0.3124 -3.7166
  150SAPE   C3816573   6.233   1.436   5.485 -0.2728  0.3423 -0.8014
  150SAPE   H8X16574   6.315   1.507   5.459  0.4706 -0.5263 -0.8748
  150SAPE   H8Y16575   6.139   1.476   5.439  0.2618  3.2236  0.3762
  150SAPE   C3916576   6.256   1.290   5.425  0.4175  0.2173  0.1732
  150SAPE   H9X16577   6.173   1.225   5.459  1.2765 -0.8822  0.2160
  150SAPE   H9Y16578   6.348   1.254   5.474  0.8589  1.1372  0.0413
  150SAPE  C31016579   6.252   1.290   5.277  0.0222  0.3318  0.1876
  150SAPE  H10X16580   6.157   1.334   5.241 -1.1452 -2.2725 -0.1731
  150SAPE  H10Y16581   6.250   1.180   5.261 -0.3396  0.2677  0.6499
  150SAPE  C31116582   6.359   1.375   5.218  0.0601 -0.3990 -1.2544
  150SAPE  H11X16583   6.445   1.374   5.288 -1.3898 -0.6228  0.5939
  150SAPE  H11Y16584   6.328   1.482   5.213 -0.5574 -0.5135 -0.2417
  150SAPE  C31216585   6.416   1.310   5.090 -0.2173 -0.9050  0.3623
  150SAPE  H12X16586   6.339   1.306   5.010 -1.0771  5.2261  0.4591
  150SAPE  H12Y16587   6.437   1.204   5.116 -0.9255 -0.7773  1.5279
  150SAPE  C31316588   6.535   1.391   5.024  0.0105  0.2680 -0.4562
  150SAPE  H13X16589   6.558   1.322   4.940  0.1428 -1.1320  0.6880
  150SAPE  H13Y16590   6.614   1.404   5.101  1.2043  1.5507 -1.8544
  150SAPE  C31416591   6.489   1.531   4.975  0.1524  0.4733  0.0877
  150SAPE  H14X16592   6.482   1.601   5.060  2.6816  0.1451  0.6360
  150SAPE  H14Y16593   6.385   1.518   4.938 -0.0244 -0.5732  0.8963
  150SAPE  C31516594   6.573   1.584   4.862 -0.1059 -0.1984  0.3838
  150SAPE  H15X16595   6.540   1.688   4.841  0.5378  0.4295  2.3105
  150SAPE  H15Y16596   6.563   1.518   4.773  0.4083  0.0021  0.1749
  150SAPE  C31616597   6.723   1.601   4.898  0.0057 -1.1629 -0.2618
  150SAPE  H16X16598   6.752   1.494   4.913  0.1407 -1.4046 -2.0180
  150SAPE  H16Y16599   6.751   1.663   4.986 -0.2046  1.1793 -1.7695
  150SAPE  C31716600   6.807   1.664   4.778  0.1451 -0.1683 -0.6060
  150SAPE  H17X16601   6.912   1.644   4.807 -0.4110 -1.5900  0.5890
  150SAPE  H17Y16602   6.803   1.772   4.754  1.1250  0.2463  0.9721
  150SAPE  C31816603   6.792   1.593   4.644 -0.1414  0.1392 -0.2392
  150SAPE  H18X16604   6.882   1.599   4.579 -1.8269  1.9245 -2.5953
  150SAPE  H18Y16605   6.717   1.646   4.580  0.1039  0.6528 -0.1087
  150SAPE  H18Z16606   6.771   1.486   4.664  2.0516 -0.2038  0.3992
  151SAPE     N16607   5.591   6.290   7.106  0.4629 -1.2533  0.6349
  151SAPE   HN116608   5.532   6.348   7.169  2.1812  0.5399  0.6938
  151SAPE   HN216609   5.564   6.313   7.008 -0.3250  0.0034  1.1192
  151SAPE   HN316610   5.579   6.187   7.118 -0.4661 -1.0970  1.1289
  151SAPE   C1216611   5.730   6.332   7.149  0.2363  0.3842  0.7591
  151SAPE  H12A16612   5.799   6.317   7.063  1.3445  0.6851  1.5677
  151SAPE  H12B16613   5.767   6.261   7.227 -1.2640  0.0506  1.1915
  151SAPE   C1116614   5.711   6.472   7.201 -0.2812 -0.3764  0.2832
  151SAPE  H11A16615   5.807   6.516   7.237 -1.7127  0.6638  3.1942
  151SAPE  H11B16616   5.643   6.463   7.289 -0.6040 -0.9011 -0.0169
  151SAPE     P16617   5.670   6.718   7.114 -0.2514 -0.2519  0.3794
  151SAPE   O1316618   5.548   6.777   7.151  0.0052  0.0133 -0.5039
  151SAPE   O1416619   5.782   6.749   7.200  0.2342  0.2499  0.1288
  151SAPE   O1216620   5.651   6.560   7.098 -0.1348  0.0747 -0.2097
  151SAPE   O1116621   5.717   6.769   6.970  0.3605  0.2398  0.3337
  151SAPE    C116622   5.787   6.675   6.895 -0.2039 -0.4522 -0.5589
  151SAPE    HA16623   5.896   6.678   6.919 -0.5472 -0.5017  1.1592
  151SAPE    HB16624   5.775   6.567   6.922 -0.3115 -0.2716  0.1479
  151SAPE    C216625   5.762   6.689   6.746  0.2617  0.1510  0.4162
  151SAPE    HS16626   5.833   6.629   6.685  1.4678  0.2979  1.6201
  151SAPE   O2116627   5.756   6.822   6.704 -0.5588 -0.2640  0.7338
  151SAPE   C2116628   5.875   6.881   6.713  0.0858  0.0247 -0.6011
  151SAPE   O2216629   5.976   6.829   6.763  0.3124 -0.8729  0.4027
  151SAPE   C2216630   5.861   7.034   6.686 -0.0635  0.3046  0.7941
  151SAPE   H2R16631   5.754   7.048   6.711 -0.6029 -0.2081 -1.0862
  151SAPE   H2S16632   5.919   7.099   6.755 -0.4939  2.3075 -0.6766
  151SAPE    C316633   5.635   6.599   6.717  0.0028  0.7578  0.5487
  151SAPE    HX16634   5.545   6.627   6.777 -1.2086 -0.7969 -0.4722
  151SAPE    HY16635   5.654   6.494   6.746 -0.4863  0.9806  1.7309
  151SAPE   O3116636   5.607   6.587   6.570 -0.2256  0.0316  0.1484
  151SAPE   C3116637   5.533   6.680   6.530  0.3190  0.2636  0.2609
  151SAPE   O3216638   5.450   6.750   6.592 -0.5172  0.0423  0.3284
  151SAPE   C3216639   5.533   6.663   6.371 -0.5775  0.5921  0.1191
  151SAPE   H2X16640   5.479   6.567   6.360  0.0869  0.2961 -0.7248
  151SAPE   H2Y16641   5.636   6.656   6.330 -0.5145  2.8433 -0.2786
  151SAPE   C2316642   5.881   7.067   6.538  0.3576 -0.1080  0.8689
  151SAPE   H3R16643   5.974   7.032   6.488  0.3344  1.8103 -0.6650
  151SAPE   H3S16644   5.887   7.177   6.521 -0.2848 -0.0897  0.7396
  151SAPE   C2416645   5.767   7.018   6.451  0.3993  0.7196 -0.1670
  151SAPE   H4R16646   5.670   7.061   6.484  0.1057  1.1983 -1.5769
  151SAPE   H4S16647   5.760   6.910   6.476 -2.6035  1.0090  0.6192
  151SAPE   C2516648   5.784   7.022   6.300  0.0289 -0.1634 -0.4257
  151SAPE   H5R16649   5.718   7.101   6.260 -0.5334 -0.5081 -0.1971
  151SAPE   C2616650   5.859   6.938   6.226 -0.1351  0.0621 -0.0044
  151SAPE   H6R16651   5.849   6.948   6.117  0.1361 -0.8181 -0.1160
  151SAPE   C2716652   5.942   6.827   6.289 -0.0687  0.7404  0.3635
  151SAPE   H7R16653   5.887   6.731   6.298  1.3970 -0.0558  1.3045
  151SAPE   H7S16654   5.976   6.844   6.394  2.4734 -3.3544  0.4295
  151SAPE   C2816655   6.071   6.788   6.221  0.4129 -0.1303  0.9228
  151SAPE   H8R16656   6.159   6.847   6.250 -0.6225  1.9326  0.0977
  151SAPE   C2916657   6.085   6.722   6.104  0.3847 -0.0445 -0.1969
  151SAPE   H9R16658   6.185   6.710   6.061  0.1514 -1.9861 -0.2863
  151SAPE  C21016659   5.971   6.656   6.029 -0.4983  0.0839  0.2061
  151SAPE  H10R16660   5.881   6.637   6.091 -1.2296  0.1211 -0.8140
  151SAPE  H10S16661   6.002   6.554   5.995 -0.1118  0.4619 -0.6001
  151SAPE  C21116662   5.915   6.723   5.915  0.5919 -0.0157 -0.0566
  151SAPE  H11R16663   5.852   6.812   5.936 -0.7121 -1.0061  0.3834
  151SAPE  C21216664   5.903   6.682   5.784  0.2372 -0.1656 -0.0639
  151SAPE  H12R16665   5.843   6.745   5.716 -0.1444 -0.1899  0.2463
  151SAPE  C21316666   5.965   6.559   5.719  0.3879  0.0722  0.1506
  151SAPE  H13R16667   5.948   6.554   5.609 -0.9047 -3.1084  0.3803
  151SAPE  H13S16668   5.922   6.462   5.753 -1.8681  1.0369  0.2534
  151SAPE  C21416669   6.111   6.543   5.746 -0.3634  0.4327 -0.1877
  151SAPE  H14R16670   6.147   6.595   5.836  2.5959 -0.9162 -0.4691
  151SAPE  C21516671   6.200   6.481   5.665  0.0054  0.2007 -0.0626
  151SAPE  H15R16672   6.301   6.457   5.702 -0.2661 -1.2432 -0.1981
  151SAPE  C21616673   6.160   6.403   5.539 -0.1434  1.0388 -0.0273
  151SAPE  H16R16674   6.097   6.465   5.472 -2.0505 -1.8548 -1.0946
  151SAPE  H16S16675   6.087   6.321   5.558  1.4741 -0.7360 -1.1297
  151SAPE  C21716676   6.289   6.340   5.467  0.4360 -0.0970 -0.3615
  151SAPE  H17R16677   6.318   6.261   5.540 -1.4121 -1.9562 -1.5435
  151SAPE  H17S16678   6.371   6.413   5.445  0.3702 -0.4689 -1.9763
  151SAPE  C21816679   6.252   6.284   5.334  0.5578  1.3481  0.3949
  151SAPE  H18R16680   6.145   6.254   5.330  1.0353 -0.3399 -2.5959
  151SAPE  H18S16681   6.313   6.197   5.302  0.5702  0.4084  2.7730
  151SAPE  C21916682   6.264   6.391   5.223 -0.0453 -0.5346  0.4862
  151SAPE  H19R16683   6.213   6.484   5.257 -0.8520  0.2575 -2.6327
  151SAPE  H19S16684   6.210   6.360   5.131  1.4846 -2.2438  0.1053
  151SAPE  C22016685   6.410   6.428   5.188  0.2572 -0.7792  0.5997
  151SAPE  H20R16686   6.458   6.513   5.243  3.2872 -2.0337  0.0590
  151SAPE  H20S16687   6.408   6.460   5.082  1.3476 -2.5085  0.0246
  151SAPE  H20T16688   6.481   6.343   5.182  3.0347  1.4590 -0.3013
  151SAPE   C3316689   5.459   6.783   6.299  0.8046 -0.5226 -0.2930
  151SAPE   H3X16690   5.496   6.876   6.346 -0.9303 -0.1222  0.3580
  151SAPE   H3Y16691   5.352   6.780   6.327  0.9718 -0.6704  0.3520
  151SAPE   C3416692   5.469   6.795   6.148  0.5590 -0.0636  0.8907
  151SAPE   H4X16693   5.575   6.820   6.123 -0.1689  1.2158 -1.1008
  151SAPE   H4Y16694   5.405   6.879   6.114  0.2884 -0.4518  0.4262
  151SAPE   C3516695   5.424   6.669   6.071 -0.0643  0.1848 -0.0152
  151SAPE   H5X16696   5.323   6.631   6.095  0.4059 -0.7412  0.5825
  151SAPE   H5Y16697   5.494   6.585   6.093  0.1035  0.9143  2.4685
  151SAPE   C3616698   5.432   6.700   5.918  0.5052  1.1234  0.0553
  151SAPE   H6X16699   5.536   6.730   5.894  1.0267 -1.0648 -0.7113
  151SAPE   H6Y16700   5.358   6.780   5.895 -1.2553 -0.5072 -0.2285
  151SAPE   C3716701   5.393   6.577   5.840  0.2409 -0.6672 -0.3284
  151SAPE   H7X16702   5.298   6.535   5.879  0.1982  0.6656  1.1092
  151SAPE   H7Y16703   5.472   6.503   5.863  2.9726  1.9889 -0.5289
  151SAPE   C3816704   5.390   6.580   5.691  0.0928  0.0031  0.2257
  151SAPE   H8X16705   5.301   6.635   5.653  0.2702 -0.0504 -0.2884
  151SAPE   H8Y16706   5.370   6.476   5.659 -2.6630  0.2813  0.8592
  151SAPE   C3916707   5.526   6.622   5.635 -0.3047 -0.3842  0.3166
  151SAPE   H9X16708   5.604   6.553   5.673  0.9967 -0.7602 -2.7220
  151SAPE   H9Y16709   5.550   6.726   5.664  0.2729 -0.3823 -0.1512
  151SAPE  C31016710   5.537   6.608   5.477  0.8953 -0.0179  0.3538
  151SAPE  H10X16711   5.460   6.679   5.440  2.4607  1.2967 -0.5036
  151SAPE  H10Y16712   5.517   6.501   5.453 -0.2312 -0.4280  2.8545
  151SAPE  C31116713   5.679   6.650   5.426  0.4828 -0.4066  0.0392
  151SAPE  H11X16714   5.745   6.577   5.476 -0.2037 -1.7884 -0.9805
  151SAPE  H11Y16715   5.699   6.755   5.455  0.2594 -0.1041 -0.8431
  151SAPE  C31216716   5.709   6.665   5.279 -0.0887  0.1576 -0.0871
  151SAPE  H12X16717   5.806   6.716   5.264  0.5099 -0.7049  0.7587
  151SAPE  H12Y16718   5.634   6.730   5.229  0.8640  0.2586 -1.4515
  151SAPE  C31316719   5.706   6.521   5.209 -0.2669  0.0308 -0.3422
  151SAPE  H13X16720   5.607   6.475   5.232  0.1754 -1.1722 -0.7542
  151SAPE  H13Y16721   5.775   6.445   5.251 -2.5442 -2.0112 -0.0373
  151SAPE  C31416722   5.745   6.518   5.063 -0.2536  0.6736  0.3130
  151SAPE  H14X16723   5.705   6.608   5.013 -0.5051 -1.1012 -2.9608
  151SAPE  H14Y16724   5.695   6.430   5.016  2.3884  1.1419 -3.9176
  151SAPE  C31516725   5.891   6.507   5.027 -0.3761  0.5695  0.8177
  151SAPE  H15X16726   5.947   6.444   5.100  2.3538  1.1627 -0.6393
  151SAPE  H15Y16727   5.939   6.606   5.014  0.9381 -0.1594 -0.1991
  151SAPE  C31616728   5.895   6.459   4.881 -0.2313  0.2210  0.0997
  151SAPE  H16X16729   5.811   6.493   4.816 -0.1401  0.6758  0.2223
  151SAPE  H16Y16730   5.892   6.348   4.882  0.7432  0.1919  0.2462
  151SAPE  C31716731   6.016   6.503   4.809  0.5922 -0.7872  0.3656
  151SAPE  H17X16732   6.104   6.484   4.874  0.7264 -1.9612 -0.1327
  151SAPE  H17Y16733   6.009   6.612   4.789 -0.8730 -1.0885 -1.0284
  151SAPE  C31816734   6.044   6.447   4.663 -0.3716  0.3810 -0.6618
  151SAPE  H18X16735   6.040   6.337   4.651 -0.1759  0.3007 -0.0149
  151SAPE  H18Y16736   6.141   6.482   4.621 -0.1638  1.2125  0.4655
  151SAPE  H18Z16737   5.970   6.497   4.597 -0.8507  1.3716  0.5887
  152SAPE     N16738   2.030   0.445   6.972 -0.1985  0.0593  0.5982
  152SAPE   HN116739   2.133   0.453   6.963 -0.2566 -1.1990 -3.6948
  152SAPE   HN216740   1.981   0.530   7.007  0.0605 -0.0306  1.1870
  152SAPE   HN316741   2.007   0.363   7.033 -0.1277  0.1256  0.7133
  152SAPE   C1216742   1.994   0.424   6.825  0.4581 -0.0053 -0.3432
  152SAPE  H12A16743   2.052   0.337   6.786 -0.8522 -2.7242  3.1759
  152SAPE  H12B16744   2.025   0.517   6.773  0.8229  2.1994  3.4445
  152SAPE   C1116745   1.840   0.406   6.814 -1.2643  0.8465  0.5501
  152SAPE  H11A16746   1.784   0.457   6.896  0.4957  1.8399  1.1843
  152SAPE  H11B16747   1.816   0.297   6.814 -1.6331  0.9196 -0.9245
  152SAPE     P16748   1.628   0.434   6.668  0.1346  0.5862 -0.2075
  152SAPE   O1316749   1.584   0.349   6.776 -0.4324 -0.7552 -0.2666
  152SAPE   O1416750   1.559   0.566   6.645 -0.1939  0.3253 -0.0591
  152SAPE   O1216751   1.785   0.461   6.693 -0.1399 -0.0662 -0.3027
  152SAPE   O1116752   1.633   0.340   6.544  0.3822  0.0461 -0.1488
  152SAPE    C116753   1.660   0.395   6.412 -0.0858  0.3057  0.2074
  152SAPE    HA16754   1.723   0.486   6.415 -1.3238  1.1827  0.7081
  152SAPE    HB16755   1.715   0.320   6.351  2.9180  1.7870  0.9023
  152SAPE    C216756   1.537   0.429   6.325  0.6277  0.2227  0.4390
  152SAPE    HS16757   1.472   0.501   6.379 -0.1383  0.5762 -0.9065
  152SAPE   O2116758   1.476   0.301   6.288  0.5497 -0.4442 -0.4890
  152SAPE   C2116759   1.366   0.276   6.358 -0.2639  0.3834 -0.3148
  152SAPE   O2216760   1.327   0.319   6.462  0.2525 -0.5280 -0.7584
  152SAPE   C2216761   1.289   0.159   6.284 -0.3556 -0.0549 -0.4319
  152SAPE   H2R16762   1.359   0.074   6.268 -0.6680 -0.1342 -1.4163
  152SAPE   H2S16763   1.208   0.109   6.341  1.2636 -3.6525 -1.0213
  152SAPE    C316764   1.581   0.505   6.196  0.4406 -0.1984 -0.6518
  152SAPE    HX16765   1.670   0.454   6.153  1.2049  0.0911  0.5491
  152SAPE    HY16766   1.600   0.611   6.223 -1.7701 -0.2773  1.6261
  152SAPE   O3116767   1.489   0.500   6.085 -0.1673  0.4529 -0.5869
  152SAPE   C3116768   1.385   0.584   6.088 -0.1449  0.5265 -0.0559
  152SAPE   O3216769   1.365   0.669   6.173  0.2658  0.1169  0.4387
  152SAPE   C3216770   1.305   0.567   5.953 -0.1535 -0.1874 -0.0203
  152SAPE   H2X16771   1.332   0.659   5.897  0.4785 -1.0389 -1.1465
  152SAPE   H2Y16772   1.198   0.558   5.978 -0.4079 -1.3777 -1.4477
  152SAPE   C2316773   1.245   0.209   6.146  0.2761 -0.2678 -0.1048
  152SAPE   H3R16774   1.320   0.275   6.097 -0.2127 -1.3078 -2.4107
  152SAPE   H3S16775   1.145   0.258   6.153  0.2352 -0.1558 -1.2626
  152SAPE   C2416776   1.238   0.097   6.047  0.4130  0.2571  0.0813
  152SAPE   H4R16777   1.164   0.131   5.971  0.5076  0.2472 -0.0157
  152SAPE   H4S16778   1.192   0.015   6.105  3.8513 -1.1515  1.0697
  152SAPE   C2516779   1.366   0.060   5.982 -0.3532 -0.2708 -0.3293
  152SAPE   H5R16780   1.439   0.139   5.958  3.0062 -2.8151  0.8244
  152SAPE   C2616781   1.392  -0.061   5.930 -0.1356  0.7097  0.0722
  152SAPE   H6R16782   1.490  -0.069   5.882 -0.4537 -1.6549 -0.3305
  152SAPE   C2716783   1.295  -0.168   5.915  0.0255  0.2019  0.3220
  152SAPE   H7R16784   1.193  -0.125   5.926 -0.5935 -1.6880  3.1088
  152SAPE   H7S16785   1.309  -0.239   5.999  1.9350 -0.5126 -0.5326
  152SAPE   C2816786   1.284  -0.254   5.788 -0.2716 -0.2238 -0.5700
  152SAPE   H8R16787   1.273  -0.362   5.809 -0.1043 -0.1498 -0.0806
  152SAPE   C2916788   1.265  -0.207   5.658 -0.2251 -0.0284 -0.0209
  152SAPE   H9R16789   1.262  -0.285   5.581  0.4490 -1.0082  0.9007
  152SAPE  C21016790   1.274  -0.062   5.608  0.2676  0.1402  0.2802
  152SAPE  H10R16791   1.219   0.011   5.671 -0.9567 -0.5874  0.0845
  152SAPE  H10S16792   1.218  -0.055   5.513 -1.1316  0.4035  1.0928
  152SAPE  C21116793   1.418  -0.019   5.584 -0.1051 -0.3473  0.8549
  152SAPE  H11R16794   1.453   0.038   5.671 -0.1394 -0.6810  1.0881
  152SAPE  C21216795   1.501  -0.066   5.481  0.4340  0.1661  0.6552
  152SAPE  H12R16796   1.608  -0.042   5.475  0.5570 -0.6375 -0.8029
  152SAPE  C21316797   1.448  -0.151   5.372  0.3856 -0.2082  0.5511
  152SAPE  H13R16798   1.414  -0.250   5.409 -1.6791 -1.6082 -4.2764
  152SAPE  H13S16799   1.543  -0.169   5.318  0.3543 -0.6013  0.6246
  152SAPE  C21416800   1.358  -0.083   5.279  0.3825 -0.9378  0.6717
  152SAPE  H14R16801   1.271  -0.034   5.324 -1.1093 -1.8098 -1.1409
  152SAPE  C21516802   1.376  -0.067   5.143  0.4434  0.3822 -0.5327
  152SAPE  H15R16803   1.302  -0.015   5.081  1.2166 -0.6616 -2.3927
  152SAPE  C21616804   1.495  -0.121   5.073 -0.2409  0.4650 -0.0371
  152SAPE  H16R16805   1.493  -0.232   5.075  0.9214  0.3690 -1.7839
  152SAPE  H16S16806   1.589  -0.089   5.122 -0.1617 -0.3536  0.3536
  152SAPE  C21716807   1.490  -0.075   4.921  0.0936 -0.0860 -0.0353
  152SAPE  H17R16808   1.586  -0.108   4.876  0.9065  0.9531  0.8976
  152SAPE  H17S16809   1.488   0.036   4.925  1.0031 -0.1041  2.2897
  152SAPE  C21816810   1.386  -0.143   4.831  0.7099 -0.7206 -0.0152
  152SAPE  H18R16811   1.291  -0.119   4.883  0.7682  0.4068 -0.3946
  152SAPE  H18S16812   1.388  -0.254   4.832 -1.7398 -0.9118 -3.0475
  152SAPE  C21916813   1.369  -0.090   4.685  0.2130 -0.1084 -0.9199
  152SAPE  H19R16814   1.340   0.017   4.686  0.6788  0.0206 -1.0077
  152SAPE  H19S16815   1.278  -0.129   4.634 -2.1278  2.0700  1.3081
  152SAPE  C22016816   1.493  -0.114   4.607 -0.5106 -0.5554 -0.0823
  152SAPE  H20R16817   1.489  -0.068   4.505  0.2404  1.3871  0.7055
  152SAPE  H20S16818   1.511  -0.223   4.608  2.7380 -0.1372 -0.6707
  152SAPE  H20T16819   1.582  -0.071   4.659 -0.4972 -2.9162  1.9974
  152SAPE   C3316820   1.341   0.446   5.865  0.5298 -0.0484  0.1756
  152SAPE   H3X16821   1.303   0.364   5.929  0.2054  2.7597  3.9561
  152SAPE   H3Y16822   1.451   0.440   5.852  0.7783  3.0746 -0.0833
  152SAPE   C3416823   1.264   0.447   5.738  0.2430 -0.2075  0.0349
  152SAPE   H4X16824   1.288   0.533   5.671 -1.6322  0.7105  0.4770
  152SAPE   H4Y16825   1.154   0.456   5.739  0.0639 -1.8327 -0.9775
  152SAPE   C3516826   1.287   0.311   5.666 -0.8148  0.5516  0.0076
  152SAPE   H5X16827   1.228   0.243   5.732 -0.2351  0.7596  0.7616
  152SAPE   H5Y16828   1.398   0.299   5.664 -0.2936  4.2695 -1.1502
  152SAPE   C3616829   1.225   0.300   5.521 -0.3112 -0.0730 -0.3078
  152SAPE   H6X16830   1.114   0.293   5.523 -0.2424 -1.5386 -0.2962
  152SAPE   H6Y16831   1.260   0.200   5.486 -2.9732 -1.4128  0.5692
  152SAPE   C3716832   1.271   0.400   5.413  0.3622  0.3751 -0.5296
  152SAPE   H7X16833   1.379   0.382   5.394  0.8721  1.7210  0.8474
  152SAPE   H7Y16834   1.262   0.508   5.438 -0.4966  0.2301 -0.1929
  152SAPE   C3816835   1.180   0.382   5.287  0.1950  0.2996 -0.3052
  152SAPE   H8X16836   1.208   0.457   5.210  0.4779  1.3189  0.7630
  152SAPE   H8Y16837   1.071   0.390   5.306  0.0553 -1.1493 -0.3483
  152SAPE   C3916838   1.201   0.239   5.227  0.3041  0.4588 -0.6564
  152SAPE   H9X16839   1.129   0.170   5.276  1.7440  0.6765  1.9605
  152SAPE   H9Y16840   1.300   0.193   5.249 -0.0638 -1.0511 -1.9813
  152SAPE  C31016841   1.170   0.235   5.077 -0.9128  0.3776  0.3821
  152SAPE  H10X16842   1.072   0.279   5.051 -0.8051  0.9501  0.9052
  152SAPE  H10Y16843   1.167   0.131   5.039 -2.0444  0.1538  1.0322
  152SAPE  C31116844   1.285   0.301   4.989  0.4256 -0.6694 -0.2149
  152SAPE  H11X16845   1.379   0.242   4.992  1.3140  0.6939 -0.2917
  152SAPE  H11Y16846   1.295   0.404   5.030  0.0987 -0.9424  0.5610
  152SAPE  C31216847   1.252   0.292   4.842 -0.0359 -0.1584  0.0094
  152SAPE  H12X16848   1.171   0.366   4.825  1.7853  1.7979 -0.4902
  152SAPE  H12Y16849   1.199   0.203   4.802 -1.6192  1.1635 -0.9582
  152SAPE  C31316850   1.368   0.329   4.752 -0.3427  0.9865  1.0894
  152SAPE  H13X16851   1.450   0.262   4.783 -0.5967  0.3496  0.4151
  152SAPE  H13Y16852   1.400   0.433   4.773  2.4084  0.7068 -1.1285
  152SAPE  C31416853   1.336   0.316   4.602 -0.5499  0.1547 -0.6689
  152SAPE  H14X16854   1.259   0.236   4.598  0.7461 -1.1332 -0.7078
  152SAPE  H14Y16855   1.429   0.277   4.556  0.0296  0.2018  0.4316
  152SAPE  C31516856   1.305   0.450   4.529 -0.4904 -0.1280 -0.2488
  152SAPE  H15X16857   1.403   0.502   4.539 -0.6958  0.0307  1.2287
  152SAPE  H15Y16858   1.231   0.499   4.596 -0.2744 -0.3235  0.1372
  152SAPE  C31616859   1.259   0.443   4.384 -0.4205 -0.2534  0.7660
  152SAPE  H16X16860   1.186   0.363   4.361 -0.4030  0.3210 -1.5117
  152SAPE  H16Y16861   1.355   0.422   4.332 -1.9158 -0.0022 -2.3718
  152SAPE  C31716862   1.196   0.574   4.327 -0.1053 -0.1650 -0.0590
  152SAPE  H17X16863   1.136   0.613   4.412 -2.0672 -2.7877 -0.1003
  152SAPE  H17Y16864   1.126   0.554   4.243  3.3557 -3.0038 -2.5881
  152SAPE  C31816865   1.288   0.691   4.269  0.9465  0.5889  0.2997
  152SAPE  H18X16866   1.370   0.714   4.341  0.9503 -0.7685  0.7611
  152SAPE  H18Y16867   1.211   0.769   4.249 -1.7076 -1.2910  2.3359
  152SAPE  H18Z16868   1.319   0.669   4.165 -1.3108  2.2442 -0.8170
  153SAPE     N16869   1.138   0.808   6.540  0.8870 -0.0814 -0.0700
  153SAPE   HN116870   1.129   0.908   6.568 -2.8587 -0.3446  0.1687
  153SAPE   HN216871   1.236   0.783   6.514  0.5204  0.4102 -2.1029
  153SAPE   HN316872   1.091   0.798   6.448  0.5757  3.7051 -0.4849
  153SAPE   C1216873   1.076   0.716   6.643 -0.1312  0.2461 -0.3658
  153SAPE  H12A16874   1.156   0.712   6.720  0.8383  1.6956 -1.2329
  153SAPE  H12B16875   1.061   0.616   6.597 -2.7126  1.1432 -1.6497
  153SAPE   C1116876   0.942   0.765   6.703  0.9310  0.1351  0.6184
  153SAPE  H11A16877   0.946   0.868   6.747  2.0084  0.7275 -0.7795
  153SAPE  H11B16878   0.913   0.688   6.777  1.5533 -1.6158 -0.8932
  153SAPE     P16879   0.735   0.647   6.576  0.1924 -0.3792  0.5080
  153SAPE   O1316880   0.804   0.521   6.597 -0.0148 -0.2887  0.3958
  153SAPE   O1416881   0.624   0.700   6.658  0.3317 -0.1779 -0.1301
  153SAPE   O1216882   0.844   0.765   6.588 -0.5514  0.7751  0.5556
  153SAPE   O1116883   0.696   0.675   6.420  0.3271  0.5115 -0.0165
  153SAPE    C116884   0.791   0.720   6.320  0.3026  0.3967  0.1132
  153SAPE    HA16885   0.751   0.808   6.264  1.7132  1.6756  1.0589
  153SAPE    HB16886   0.883   0.758   6.368  1.5849 -4.2769  1.8856
  153SAPE    C216887   0.823   0.610   6.219 -1.0696  0.1547  0.3586
  153SAPE    HS16888   0.883   0.651   6.135 -0.7427  2.7427  1.7586
  153SAPE   O2116889   0.707   0.546   6.176  0.8636  0.4768 -0.1805
  153SAPE   C2116890   0.651   0.598   6.069 -0.2717  0.2788  0.0591
  153SAPE   O2216891   0.698   0.695   6.012  0.6996  0.3331  0.5167
  153SAPE   C2216892   0.541   0.512   6.016 -0.3201  0.3366 -0.1350
  153SAPE   H2R16893   0.543   0.409   6.057 -0.2062  0.1472 -0.6179
  153SAPE   H2S16894   0.443   0.557   6.042 -0.2795  0.5197 -0.2994
  153SAPE    C316895   0.919   0.504   6.286  0.2588 -0.2980  0.2935
  153SAPE    HX16896   0.868   0.470   6.378  1.7994 -0.6815  1.0317
  153SAPE    HY16897   1.007   0.564   6.318  0.6589 -0.7537  0.0555
  153SAPE   O3116898   0.955   0.399   6.188  0.6641 -0.9684 -0.2971
  153SAPE   C3116899   0.872   0.301   6.193  0.2172 -0.2018 -0.3218
  153SAPE   O3216900   0.786   0.290   6.280  0.4661  0.8923  0.1114
  153SAPE   C3216901   0.892   0.199   6.081  0.9436  0.0320 -0.5030
  153SAPE   H2X16902   0.815   0.120   6.088  0.7926  0.1518 -0.8127
  153SAPE   H2Y16903   0.991   0.148   6.086  0.1856 -1.3970  1.0326
  153SAPE   C2316904   0.553   0.503   5.858  0.3359 -0.9279  0.8746
  153SAPE   H3R16905   0.642   0.447   5.825  0.8930  1.7859 -2.8499
  153SAPE   H3S16906   0.557   0.597   5.799 -2.2808 -2.1833 -1.5737
  153SAPE   C2416907   0.441   0.425   5.789  0.3450  0.2746  0.1908
  153SAPE   H4R16908   0.442   0.322   5.830 -0.5080  1.0789  2.4215
  153SAPE   H4S16909   0.485   0.402   5.690 -0.6603 -1.6545  0.1621
  153SAPE   C2516910   0.296   0.470   5.791 -0.3328 -0.1088 -0.4397
  153SAPE   H5R16911   0.233   0.436   5.875  0.3529  1.6241  0.8282
  153SAPE   C2616912   0.232   0.526   5.684  0.5096  0.7760  0.2960
  153SAPE   H6R16913   0.136   0.573   5.709 -0.4090 -1.2544  0.7937
  153SAPE   C2716914   0.289   0.559   5.551  0.0384  0.4980  0.2213
  153SAPE   H7R16915   0.393   0.593   5.570  0.0659  1.1487 -0.9468
  153SAPE   H7S16916   0.253   0.656   5.509  0.3114  0.3456 -0.3815
  153SAPE   C2816917   0.286   0.452   5.442 -0.4584  0.0083  0.2012
  153SAPE   H8R16918   0.230   0.361   5.471 -1.5546  0.6974  0.3179
  153SAPE   C2916919   0.306   0.477   5.306  0.1021  0.1182 -0.0386
  153SAPE   H9R16920   0.293   0.391   5.239 -2.6239 -1.9083  2.7441
  153SAPE  C21016921   0.358   0.606   5.250  0.0133  0.2386  0.1919
  153SAPE  H10R16922   0.447   0.592   5.184  0.1183 -1.8728  0.7074
  153SAPE  H10S16923   0.392   0.676   5.329 -0.1752  0.4750  0.0640
  153SAPE  C21116924   0.253   0.684   5.175 -0.0999 -0.0981 -0.7337
  153SAPE  H11R16925   0.197   0.747   5.246  1.8248  1.4129 -0.4546
  153SAPE  C21216926   0.224   0.686   5.046 -0.2394  0.1686  0.1748
  153SAPE  H12R16927   0.151   0.761   5.014 -0.4897 -1.1312 -2.6502
  153SAPE  C21316928   0.283   0.607   4.935  0.2285  0.4882  0.2220
  153SAPE  H13R16929   0.208   0.530   4.906 -0.6766  0.9729  1.2278
  153SAPE  H13S16930   0.372   0.551   4.973  0.3264 -0.2882 -1.0840
  153SAPE  C21416931   0.336   0.677   4.817 -0.3558  0.2430 -0.3645
  153SAPE  H14R16932   0.323   0.786   4.821  0.6174  0.3340  1.2239
  153SAPE  C21516933   0.391   0.627   4.702 -0.3869  0.0455  0.5899
  153SAPE  H15R16934   0.430   0.694   4.625  2.6083  1.2677  2.9290
  153SAPE  C21616935   0.421   0.483   4.675 -0.2489  0.5165 -0.3946
  153SAPE  H16R16936   0.465   0.427   4.760 -3.4113 -2.6782 -0.6297
  153SAPE  H16S16937   0.497   0.473   4.594 -0.9224 -1.4171 -0.8238
  153SAPE  C21716938   0.306   0.391   4.627  0.0679 -0.3478  0.1922
  153SAPE  H17R16939   0.230   0.446   4.568 -0.3332 -2.1892 -1.0740
  153SAPE  H17S16940   0.236   0.355   4.706 -0.8716 -1.0544 -0.9328
  153SAPE  C21816941   0.340   0.278   4.542  0.4307  0.1531  0.0268
  153SAPE  H18R16942   0.408   0.209   4.596 -0.6492 -0.3574  0.7816
  153SAPE  H18S16943   0.394   0.313   4.452 -0.0501  0.8312 -0.0087
  153SAPE  C21916944   0.216   0.206   4.503  0.7131 -1.0763 -0.1603
  153SAPE  H19R16945   0.134   0.279   4.484  1.0533 -0.9683 -1.3038
  153SAPE  H19S16946   0.176   0.145   4.587 -1.7706  0.9835  0.2877
  153SAPE  C22016947   0.235   0.112   4.383  0.6069 -0.2654  0.2304
  153SAPE  H20R16948   0.331   0.056   4.382  0.7305 -0.0931 -1.3351
  153SAPE  H20S16949   0.217   0.167   4.288 -0.6402 -1.3442 -0.1974
  153SAPE  H20T16950   0.152   0.038   4.385 -1.1746  1.6461  0.5934
  153SAPE   C3316951   0.868   0.260   5.937  0.1711  0.4412 -0.1061
  153SAPE   H3X16952   0.950   0.331   5.913  0.1864 -0.2386 -2.3924
  153SAPE   H3Y16953   0.778   0.323   5.950  0.1625  0.4751 -0.3257
  153SAPE   C3416954   0.864   0.167   5.813  0.2673  0.3200 -0.1606
  153SAPE   H4X16955   0.785   0.090   5.823 -2.1603  2.5539 -0.9918
  153SAPE   H4Y16956   0.962   0.115   5.798 -0.7587 -1.5860 -0.5673
  153SAPE   C3516957   0.845   0.241   5.683 -0.2705  0.0075  0.0301
  153SAPE   H5X16958   0.920   0.320   5.664  1.5414 -1.7160 -0.3008
  153SAPE   H5Y16959   0.742   0.283   5.692 -0.9787 -1.7272  0.4081
  153SAPE   C3616960   0.862   0.146   5.561 -0.1485  0.2005  0.2602
  153SAPE   H6X16961   0.778   0.074   5.566  0.9681 -1.2325 -0.5465
  153SAPE   H6Y16962   0.960   0.097   5.581 -0.8926 -0.8574  1.4901
  153SAPE   C3716963   0.846   0.225   5.437  0.1260 -0.5993  0.7023
  153SAPE   H7X16964   0.923   0.305   5.428 -1.8323  1.3459  0.3389
  153SAPE   H7Y16965   0.747   0.273   5.431  0.7071  0.5150 -0.7102
  153SAPE   C3816966   0.856   0.141   5.304 -0.3892 -0.3447 -0.3391
  153SAPE   H8X16967   0.918   0.052   5.328 -1.9152 -0.9540  1.5694
  153SAPE   H8Y16968   0.891   0.204   5.219  1.9757  1.4406  1.8075
  153SAPE   C3916969   0.713   0.093   5.267 -0.2792  0.0375  0.2256
  153SAPE   H9X16970   0.654   0.107   5.360  0.5030 -1.0251  0.8936
  153SAPE   H9Y16971   0.718  -0.014   5.238 -0.7630  0.4227 -1.4011
  153SAPE  C31016972   0.656   0.178   5.155 -0.2107 -0.8250  0.4959
  153SAPE  H10X16973   0.712   0.167   5.059  0.3560 -0.7533  0.8131
  153SAPE  H10Y16974   0.659   0.283   5.191 -1.8489  0.5959 -3.0463
  153SAPE  C31116975   0.506   0.159   5.127 -0.2009 -0.0049  0.3602
  153SAPE  H11X16976   0.443   0.165   5.218 -2.5517 -3.1355 -0.8559
  153SAPE  H11Y16977   0.506   0.054   5.089  0.6126 -0.0512  0.4681
  153SAPE  C31216978   0.451   0.250   5.016 -0.1942  0.2833  0.1129
  153SAPE  H12X16979   0.506   0.243   4.920  0.9738 -0.6732  0.8251
  153SAPE  H12Y16980   0.469   0.355   5.046  1.1230 -0.2670  1.3785
  153SAPE  C31316981   0.299   0.233   5.003 -0.6945  0.6378  0.1060
  153SAPE  H13X16982   0.268   0.335   4.973  1.8882  1.9385  1.5118
  153SAPE  H13Y16983   0.250   0.220   5.103 -0.6926 -1.0065 -0.0782
  153SAPE  C31416984   0.253   0.136   4.891 -0.0062 -0.2274 -0.8436
  153SAPE  H14X16985   0.316   0.152   4.801 -1.5504  1.3481 -1.7144
  153SAPE  H14Y16986   0.147   0.165   4.870 -0.1580 -0.6294 -0.6487
  153SAPE  C31516987   0.241  -0.012   4.936 -0.3538  0.6292  0.7861
  153SAPE  H15X16988   0.158  -0.035   5.007 -0.6187 -0.9314  0.0173
  153SAPE  H15Y16989   0.343  -0.029   4.977 -0.0346  0.5227 -0.0297
  153SAPE  C31616990   0.228  -0.102   4.812 -0.4317 -0.5913 -0.3899
  153SAPE  H16X16991   0.317  -0.084   4.749  0.2602  1.6382  1.0845
  153SAPE  H16Y16992   0.131  -0.076   4.764 -0.5636  1.9451  1.0436
  153SAPE  C31716993   0.223  -0.251   4.844  0.2610  0.8599  0.2269
  153SAPE  H17X16994   0.225  -0.315   4.754  3.2167 -1.1243  1.5410
  153SAPE  H17Y16995   0.138  -0.285   4.907 -0.1667  2.3212  0.4630
  153SAPE  C31816996   0.346  -0.310   4.913  0.4981 -0.3955  0.2199
  153SAPE  H18X16997   0.436  -0.271   4.862  2.6132 -3.3167  1.4390
  153SAPE  H18Y16998   0.344  -0.421   4.909 -0.7214 -0.3604 -0.6370
  153SAPE  H18Z16999   0.351  -0.275   5.019 -0.1399  2.4584 -0.5993
  154SAPE     N17000   3.854   1.598   6.431  0.3655  0.6936 -0.3344
  154SAPE   HN117001   3.780   1.622   6.499 -1.4692  0.7985 -2.2748
  154SAPE   HN217002   3.944   1.631   6.472  0.1444  3.2450 -1.6815
  154SAPE   HN317003   3.843   1.667   6.355  0.4153 -1.3017 -2.2458
  154SAPE   C1217004   3.857   1.451   6.378 -0.7847  0.1900  0.7340
  154SAPE  H12A17005   3.916   1.388   6.447 -0.1450  0.6226  0.5885
  154SAPE  H12B17006   3.905   1.445   6.278 -1.3852 -3.6892  0.5243
  154SAPE   C1117007   3.713   1.413   6.358 -0.2360  0.3091 -0.2458
  154SAPE  H11A17008   3.657   1.415   6.454 -2.9893  1.6087 -1.7450
  154SAPE  H11B17009   3.708   1.306   6.327  1.7964 -0.0408  0.5149
  154SAPE     P17010   3.492   1.503   6.264  0.4806 -0.2147  0.0042
  154SAPE   O1317011   3.435   1.395   6.348  0.1211 -0.0066  0.3567
  154SAPE   O1417012   3.452   1.647   6.276  0.0894  0.0085  0.9474
  154SAPE   O1217013   3.647   1.494   6.266 -0.0552 -0.2543  0.0229
  154SAPE   O1117014   3.465   1.459   6.115  0.5817 -0.3590  0.1176
  154SAPE    C117015   3.529   1.343   6.063  0.2849  0.3341  0.3697
  154SAPE    HA17016   3.638   1.353   6.045  0.5869 -0.6734  1.4757
  154SAPE    HB17017   3.530   1.252   6.128  1.9170 -0.3685 -0.6048
  154SAPE    C217018   3.478   1.289   5.922 -0.1740  0.0813 -0.4403
  154SAPE    HS17019   3.549   1.213   5.883  1.8345  2.6052 -2.0753
  154SAPE   O2117020   3.466   1.401   5.832 -0.1472 -0.0931 -0.6436
  154SAPE   C2117021   3.582   1.437   5.783 -0.0125 -0.0637 -0.1974
  154SAPE   O2217022   3.692   1.392   5.805  0.2171  0.0082 -0.7564
  154SAPE   C2217023   3.558   1.546   5.668  0.0039  0.2586 -0.1096
  154SAPE   H2R17024   3.494   1.496   5.592  2.6619  1.6084 -3.5284
  154SAPE   H2S17025   3.501   1.633   5.705 -0.6595 -0.6032  0.9898
  154SAPE    C317026   3.340   1.229   5.941  0.0980  0.0262 -0.0978
  154SAPE    HX17027   3.281   1.309   5.991  0.3082 -0.4047  0.8807
  154SAPE    HY17028   3.345   1.152   6.022  1.9707  0.9722  0.7479
  154SAPE   O3117029   3.290   1.164   5.819  0.0761 -0.2827 -0.2595
  154SAPE   C3117030   3.215   1.237   5.745 -0.7967 -0.3943  0.1750
  154SAPE   O3217031   3.201   1.360   5.758 -0.1719  0.0668 -0.0642
  154SAPE   C3217032   3.147   1.153   5.640 -0.5456  0.1664 -0.4197
  154SAPE   H2X17033   3.090   1.084   5.704  1.1809  0.7605  1.8991
  154SAPE   H2Y17034   3.230   1.097   5.591  0.0770  1.2124 -0.6082
  154SAPE   C2317035   3.689   1.598   5.605  0.1789  0.0968  0.0084
  154SAPE   H3R17036   3.739   1.512   5.555 -0.3587 -0.2735  0.1027
  154SAPE   H3S17037   3.750   1.636   5.690 -3.1559  1.2076  2.0751
  154SAPE   C2417038   3.670   1.705   5.493  0.4690 -0.0749 -0.1200
  154SAPE   H4R17039   3.623   1.794   5.539  1.4572 -0.2921  1.3902
  154SAPE   H4S17040   3.603   1.669   5.412  0.1650  1.6662 -0.6640
  154SAPE   C2517041   3.811   1.755   5.443  0.1856  0.3461  0.6378
  154SAPE   H5R17042   3.863   1.813   5.521 -0.0687 -0.6723  1.5753
  154SAPE   C2617043   3.874   1.756   5.320 -0.5990 -0.5247  0.0359
  154SAPE   H6R17044   3.975   1.799   5.306  0.2971 -2.4158  0.3582
  154SAPE   C2717045   3.807   1.698   5.197 -0.4976 -0.5244  0.6203
  154SAPE   H7R17046   3.705   1.673   5.231 -0.0529 -0.5431  2.0460
  154SAPE   H7S17047   3.852   1.604   5.160 -1.6825 -0.1902 -1.8182
  154SAPE   C2817048   3.814   1.805   5.087 -0.0841  0.5326 -0.3058
  154SAPE   H8R17049   3.767   1.900   5.118  0.2974  0.3793  0.8038
  154SAPE   C2917050   3.897   1.802   4.986 -0.4557 -0.1694  0.7270
  154SAPE   H9R17051   3.883   1.878   4.908  0.0206 -2.1848 -1.4419
  154SAPE  C21017052   3.974   1.683   4.930 -0.3563  0.4494  0.1955
  154SAPE  H10R17053   4.035   1.629   5.005  0.8125  2.1320  0.5310
  154SAPE  H10S17054   4.046   1.718   4.852  0.8114 -0.3738  0.8726
  154SAPE  C21117055   3.888   1.572   4.873  0.7204 -0.3942 -0.8248
  154SAPE  H11R17056   3.798   1.542   4.929 -0.0744  1.1927 -1.2034
  154SAPE  C21217057   3.905   1.500   4.760  0.3701  0.1138  0.4852
  154SAPE  H12R17058   3.828   1.429   4.727  1.2020 -0.8253  0.5308
  154SAPE  C21317059   4.006   1.524   4.651  0.0103  0.0814 -0.2470
  154SAPE  H13R17060   4.088   1.592   4.681  0.0673 -0.6902  1.4685
  154SAPE  H13S17061   3.946   1.577   4.574  1.0023 -0.1950 -1.2401
  154SAPE  C21417062   4.068   1.388   4.622 -0.5000 -0.2065  0.8805
  154SAPE  H14R17063   4.121   1.346   4.709 -2.0885 -1.0798  1.4793
  154SAPE  C21517064   4.075   1.324   4.498  1.0868 -0.3694  0.2087
  154SAPE  H15R17065   4.126   1.227   4.489  0.6686 -0.5749  0.0348
  154SAPE  C21617066   4.028   1.370   4.364  0.7251 -0.7890  0.2212
  154SAPE  H16R17067   3.967   1.463   4.364  3.5646  1.2133  0.3203
  154SAPE  H16S17068   3.956   1.294   4.329 -0.5058  0.0064  0.9234
  154SAPE  C21717069   4.125   1.404   4.250 -0.0865 -0.5346 -0.1363
  154SAPE  H17R17070   4.191   1.484   4.291 -2.3467  0.7541  1.2046
  154SAPE  H17S17071   4.074   1.433   4.156 -1.5476  0.4662  0.9216
  154SAPE  C21817072   4.206   1.277   4.215 -0.9565 -0.0301  0.1698
  154SAPE  H18R17073   4.138   1.201   4.169 -2.2546  0.8847  0.5377
  154SAPE  H18S17074   4.255   1.223   4.299  0.1055  0.6413  0.0009
  154SAPE  C21917075   4.316   1.318   4.117  0.2913  0.2385 -0.1838
  154SAPE  H19R17076   4.394   1.374   4.172 -1.4443  1.3210  1.2880
  154SAPE  H19S17077   4.278   1.373   4.027  0.5520  0.8193  0.0534
  154SAPE  C22017078   4.390   1.196   4.065  0.4518  0.0669 -0.1613
  154SAPE  H20R17079   4.330   1.127   4.001 -0.2403  0.2452  0.2921
  154SAPE  H20S17080   4.429   1.128   4.144 -1.4405  0.0848  0.8338
  154SAPE  H20T17081   4.482   1.215   4.004  0.8477 -2.9268 -0.6467
  154SAPE   C3317082   3.065   1.230   5.534  0.2912 -0.3539 -0.0110
  154SAPE   H3X17083   3.134   1.296   5.477  0.4001 -0.2028  0.2951
  154SAPE   H3Y17084   2.988   1.299   5.575  0.3629  0.6639 -1.4889
  154SAPE   C3417085   2.984   1.152   5.428  0.2030  0.3813  0.1785
  154SAPE   H4X17086   2.877   1.147   5.457  0.7802  0.1604  2.4358
  154SAPE   H4Y17087   3.029   1.050   5.425 -1.2239 -0.2425 -1.2325
  154SAPE   C3517088   2.994   1.213   5.293 -0.7099 -0.1945 -0.1023
  154SAPE   H5X17089   3.096   1.244   5.262 -0.8556  0.4453  0.0458
  154SAPE   H5Y17090   2.935   1.307   5.287 -0.1736  0.0618 -2.1204
  154SAPE   C3617091   2.969   1.113   5.174  0.1024 -0.0449 -0.1555
  154SAPE   H6X17092   2.870   1.069   5.198  0.1271  0.4022  0.8058
  154SAPE   H6Y17093   3.035   1.024   5.166  1.2170  0.7584 -0.2417
  154SAPE   C3717094   2.977   1.194   5.036 -0.1836 -0.6998 -0.2375
  154SAPE   H7X17095   3.073   1.249   5.032  0.4242 -1.8003 -2.3536
  154SAPE   H7Y17096   2.903   1.277   5.030  0.9552  0.9310  4.3119
  154SAPE   C3817097   2.977   1.110   4.903  0.5381 -0.2963 -0.3189
  154SAPE   H8X17098   2.885   1.049   4.914 -0.6911  1.1658 -1.9032
  154SAPE   H8Y17099   3.065   1.042   4.905  2.2298  1.8238  1.2780
  154SAPE   C3917100   2.967   1.182   4.767  0.2787 -0.2759 -0.4468
  154SAPE   H9X17101   3.067   1.227   4.754  1.1851 -1.8397  0.7155
  154SAPE   H9Y17102   2.905   1.273   4.779  1.2789  0.4040 -0.3312
  154SAPE  C31017103   2.911   1.098   4.652 -0.9194  0.6084  0.5292
  154SAPE  H10X17104   2.890   1.162   4.564  1.5543 -0.1179 -0.6600
  154SAPE  H10Y17105   2.811   1.054   4.676 -1.0739 -0.0885 -1.2679
  154SAPE  C31117106   3.001   0.987   4.601 -0.7499  0.4985  0.4436
  154SAPE  H11X17107   2.942   0.924   4.531  1.4301 -0.9407 -0.1863
  154SAPE  H11Y17108   3.024   0.931   4.694 -3.0788 -0.8536  0.2913
  154SAPE  C31217109   3.135   1.032   4.537 -0.0810  0.1137 -0.7122
  154SAPE  H12X17110   3.187   0.935   4.519 -0.5152 -0.0960 -0.8376
  154SAPE  H12Y17111   3.204   1.090   4.602  2.1024 -1.3114 -1.6040
  154SAPE  C31317112   3.121   1.110   4.409  0.1749  0.5387  0.8364
  154SAPE  H13X17113   3.217   1.125   4.355 -0.7381  1.6445 -0.5527
  154SAPE  H13Y17114   3.091   1.216   4.420  2.4655  1.1062  2.3401
  154SAPE  C31417115   3.018   1.043   4.317 -0.1784 -0.0338  0.2244
  154SAPE  H14X17116   2.914   1.064   4.351 -1.2830 -2.8931 -1.0528
  154SAPE  H14Y17117   3.034   0.933   4.311  0.5813  0.0679  0.2850
  154SAPE  C31517118   3.033   1.102   4.174 -0.6316 -0.5674 -0.6654
  154SAPE  H15X17119   3.129   1.054   4.147  0.9040  2.6213 -1.2977
  154SAPE  H15Y17120   3.060   1.209   4.181 -0.4372 -0.7061  1.1580
  154SAPE  C31617121   2.914   1.092   4.083  0.5204 -0.1123  0.9885
  154SAPE  H16X17122   2.831   1.153   4.124 -0.0477 -0.4757  0.3911
  154SAPE  H16Y17123   2.889   0.986   4.062 -2.8087  0.7906 -0.2409
  154SAPE  C31717124   2.941   1.171   3.952  0.5542  0.5836  0.4567
  154SAPE  H17X17125   3.010   1.124   3.879 -0.9736  1.9222 -2.0099
  154SAPE  H17Y17126   2.988   1.269   3.976 -0.9941  1.4274  0.1908
  154SAPE  C31817127   2.813   1.186   3.868 -0.5777 -0.2121 -0.0554
  154SAPE  H18X17128   2.732   1.247   3.914 -0.9994 -0.8627  0.0652
  154SAPE  H18Y17129   2.788   1.081   3.845  0.3476 -0.6213  0.7302
  154SAPE  H18Z17130   2.836   1.241   3.774 -0.3597 -0.3820 -0.0998
  155SAPE     N17131   5.766   3.176   6.626  0.5748 -0.8338  0.1230
  155SAPE   HN117132   5.826   3.160   6.710 -0.5252 -2.4356  0.6410
  155SAPE   HN217133   5.693   3.105   6.603 -1.5817  1.3838 -0.3293
  155SAPE   HN317134   5.835   3.198   6.551  1.3240 -1.0270  0.7436
  155SAPE   C1217135   5.684   3.305   6.643  0.4984  0.3304 -0.5797
  155SAPE  H12A17136   5.608   3.299   6.723  0.2138 -1.3115 -0.9283
  155SAPE  H12B17137   5.624   3.317   6.550 -2.6815 -0.6389  1.1998
  155SAPE   C1117138   5.769   3.430   6.675  0.4175 -0.3638 -0.9177
  155SAPE  H11A17139   5.714   3.527   6.680 -2.8349 -1.9142 -3.2786
  155SAPE  H11B17140   5.841   3.448   6.592  1.1240 -1.5312 -0.5895
  155SAPE     P17141   5.909   3.496   6.894  0.1290 -0.0797  0.2566
  155SAPE   O1317142   5.817   3.593   6.954 -0.3453  0.1268 -1.0082
  155SAPE   O1417143   6.002   3.412   6.977  0.3471 -0.7006 -0.1242
  155SAPE   O1217144   5.824   3.402   6.802  0.5903 -0.3188 -0.4545
  155SAPE   O1117145   5.989   3.583   6.788  0.4675 -0.3288 -0.3418
  155SAPE    C117146   6.125   3.575   6.772  0.0623 -0.5298  0.1461
  155SAPE    HA17147   6.182   3.671   6.775  2.3966 -1.8332  0.1406
  155SAPE    HB17148   6.184   3.522   6.850  1.5825 -0.2590 -0.7712
  155SAPE    C217149   6.169   3.503   6.645  0.2716  0.4821  0.0889
  155SAPE    HS17150   6.274   3.528   6.621  0.2542  1.8708  1.3124
  155SAPE   O2117151   6.083   3.534   6.532  0.1470 -0.4549 -0.4316
  155SAPE   C2117152   6.062   3.667   6.507 -0.4325  0.2259 -0.2001
  155SAPE   O2217153   6.144   3.757   6.537  0.5675 -0.0248 -0.4226
  155SAPE   C2217154   5.932   3.686   6.425  0.1538  0.3342 -0.1455
  155SAPE   H2R17155   5.943   3.616   6.339  1.5211 -1.7210  1.6032
  155SAPE   H2S17156   5.845   3.650   6.483  1.2346 -0.8287  0.8242
  155SAPE    C317157   6.162   3.347   6.661 -0.3143  1.0159  0.6372
  155SAPE    HX17158   6.052   3.339   6.676 -0.0928 -1.0506  1.5216
  155SAPE    HY17159   6.213   3.307   6.751 -0.4773 -0.1297  0.2440
  155SAPE   O3117160   6.209   3.285   6.536  0.6006 -0.5869 -0.3001
  155SAPE   C3117161   6.113   3.244   6.452  0.8261 -0.2424 -0.6128
  155SAPE   O3217162   5.994   3.241   6.471  0.1770  0.3209  0.0171
  155SAPE   C3217163   6.175   3.212   6.319 -0.4190 -0.3210 -0.0568
  155SAPE   H2X17164   6.286   3.203   6.316 -0.5342 -3.1058  0.7248
  155SAPE   H2Y17165   6.157   3.293   6.245 -1.0559  1.9905  2.4712
  155SAPE   C2317166   5.900   3.823   6.366  1.2502 -0.4049  0.1528
  155SAPE   H3R17167   5.978   3.845   6.291  0.0695 -2.2396 -1.7260
  155SAPE   H3S17168   5.894   3.903   6.443  0.7856  0.5082 -0.8027
  155SAPE   C2417169   5.773   3.822   6.274 -0.1375  0.0091 -0.0762
  155SAPE   H4R17170   5.684   3.804   6.338 -2.0574 -0.8310 -2.8294
  155SAPE   H4S17171   5.774   3.737   6.202  0.3672 -1.0765  1.1650
  155SAPE   C2517172   5.747   3.955   6.210 -0.7610 -0.2498 -0.0837
  155SAPE   H5R17173   5.691   4.025   6.274  0.0252 -0.5138  0.9240
  155SAPE   C2617174   5.756   3.987   6.078  0.4684  0.1112  0.1349
  155SAPE   H6R17175   5.763   4.090   6.040 -1.7517 -0.5190 -2.2529
  155SAPE   C2717176   5.800   3.882   5.979 -0.9207 -0.4674 -0.1045
  155SAPE   H7R17177   5.865   3.805   6.025 -2.4285 -0.9581  1.3213
  155SAPE   H7S17178   5.866   3.931   5.904 -0.4048 -0.5427  0.2928
  155SAPE   C2817179   5.688   3.825   5.903  0.0543 -0.2752  0.0871
  155SAPE   H8R17180   5.660   3.723   5.933  0.3605 -0.1204  0.9393
  155SAPE   C2917181   5.625   3.887   5.798  0.7475 -0.2656  0.1332
  155SAPE   H9R17182   5.561   3.827   5.732  0.0075  2.0596 -1.3757
  155SAPE  C21017183   5.664   4.028   5.756 -0.1428 -0.2738  0.2181
  155SAPE  H10R17184   5.771   4.055   5.770 -0.4927  3.3852 -2.4321
  155SAPE  H10S17185   5.610   4.097   5.824 -1.2716 -0.8216 -0.0984
  155SAPE  C21117186   5.620   4.053   5.619  0.1956  0.2589  0.6838
  155SAPE  H11R17187   5.547   4.134   5.603  1.7786  1.4847 -0.7586
  155SAPE  C21217188   5.685   3.998   5.514  0.6686 -0.8535 -0.1094
  155SAPE  H12R17189   5.639   4.028   5.419 -0.6864 -4.3705 -0.7170
  155SAPE  C21317190   5.799   3.905   5.513 -0.9494  0.4109  0.6040
  155SAPE  H13R17191   5.754   3.803   5.507 -3.2866  1.4374 -0.8703
  155SAPE  H13S17192   5.847   3.895   5.613  1.7380 -0.4343 -0.6593
  155SAPE  C21417193   5.904   3.934   5.405 -0.1413 -0.4675 -0.5340
  155SAPE  H14R17194   6.000   3.979   5.436 -0.9969  1.6807 -0.8142
  155SAPE  C21517195   5.890   3.909   5.277  0.1452 -0.1042 -0.3425
  155SAPE  H15R17196   5.970   3.937   5.208  1.7136  0.2510  1.5214
  155SAPE  C21617197   5.782   3.829   5.207 -1.1802  0.2351  0.3591
  155SAPE  H16R17198   5.741   3.902   5.134 -0.2584 -1.2962 -1.7909
  155SAPE  H16S17199   5.688   3.788   5.251 -1.1016 -1.8879 -1.2739
  155SAPE  C21717200   5.847   3.711   5.131 -0.5702 -0.2112 -0.5197
  155SAPE  H17R17201   5.766   3.650   5.085  0.4813 -0.5562 -1.9940
  155SAPE  H17S17202   5.914   3.645   5.191  1.7109  1.8937 -0.6177
  155SAPE  C21817203   5.942   3.752   5.017  0.2867  0.1759 -0.0338
  155SAPE  H18R17204   6.016   3.826   5.052 -0.6752  1.7968 -1.2849
  155SAPE  H18S17205   5.876   3.800   4.941  1.5441  1.4880 -0.3319
  155SAPE  C21917206   6.016   3.629   4.968 -0.1656  0.1635 -0.4128
  155SAPE  H19R17207   5.938   3.566   4.920 -0.7318  2.5806 -2.8736
  155SAPE  H19S17208   6.049   3.567   5.054  0.3588  0.3109 -0.4992
  155SAPE  C22017209   6.123   3.660   4.868 -0.6192 -0.5933  0.4360
  155SAPE  H20R17210   6.184   3.573   4.836  1.9910  1.6821 -1.2155
  155SAPE  H20S17211   6.193   3.730   4.918 -0.1344 -2.3889  2.4150
  155SAPE  H20T17212   6.081   3.702   4.774  2.6066  0.0609 -0.8640
  155SAPE   C3317213   6.123   3.069   6.274 -0.3681 -0.4710 -0.3757
  155SAPE   H3X17214   6.018   3.079   6.240 -0.8675 -2.1290  0.5995
  155SAPE   H3Y17215   6.119   2.996   6.357  1.9088 -1.6425 -1.2011
  155SAPE   C3417216   6.181   2.995   6.156  0.1798  0.7251  0.9243
  155SAPE   H4X17217   6.132   2.896   6.150 -0.1779  0.9347  0.2460
  155SAPE   H4Y17218   6.291   2.977   6.153 -0.3318 -2.8964 -0.7976
  155SAPE   C3517219   6.141   3.060   6.023  0.0720 -0.0432  0.2759
  155SAPE   H5X17220   6.136   3.170   6.030 -0.4457  0.0972 -1.8190
  155SAPE   H5Y17221   6.034   3.035   6.010  0.1452  0.3662 -1.2160
  155SAPE   C3617222   6.215   3.011   5.897 -0.3296  0.5598 -0.2550
  155SAPE   H6X17223   6.276   2.921   5.919  0.5352  0.6321 -2.1798
  155SAPE   H6Y17224   6.298   3.084   5.898  1.5243 -1.4347  0.8323
  155SAPE   C3717225   6.132   3.007   5.770 -0.2966  0.3591 -0.2881
  155SAPE   H7X17226   6.052   2.931   5.781 -1.8070  1.9234 -0.0996
  155SAPE   H7Y17227   6.202   2.983   5.686  0.2614  1.2007 -0.0758
  155SAPE   C3817228   6.044   3.130   5.746 -0.5358  0.2353 -0.2177
  155SAPE   H8X17229   6.105   3.222   5.733 -2.5325  1.4401 -1.5003
  155SAPE   H8Y17230   5.967   3.138   5.825 -0.3387  1.5895 -0.1458
  155SAPE   C3917231   5.955   3.125   5.614 -0.0490  0.0640 -0.0245
  155SAPE   H9X17232   5.901   3.222   5.618 -0.2191  0.0583 -1.6558
  155SAPE   H9Y17233   5.885   3.039   5.614 -0.4082  0.3513  0.0545
  155SAPE  C31017234   6.039   3.120   5.482 -0.6143 -0.0878 -0.6308
  155SAPE  H10X17235   6.084   3.019   5.485 -1.0738 -0.2882  1.7302
  155SAPE  H10Y17236   6.119   3.197   5.486  0.6447 -1.3638 -0.3098
  155SAPE  C31117237   5.955   3.150   5.361  0.4282  0.4920  0.9483
  155SAPE  H11X17238   5.938   3.259   5.350  0.3418  0.3975  0.0986
  155SAPE  H11Y17239   5.860   3.093   5.367  2.2005 -2.5190  2.5621
  155SAPE  C31217240   6.021   3.109   5.230 -0.9484  0.2723 -0.5292
  155SAPE  H12X17241   6.030   2.998   5.229 -1.1211  0.2511 -1.8697
  155SAPE  H12Y17242   6.122   3.154   5.225 -0.9399  0.1573 -2.1616
  155SAPE  C31317243   5.939   3.151   5.113  0.2741 -0.2609  0.1478
  155SAPE  H13X17244   5.920   3.260   5.117  1.4449 -0.0570  0.6019
  155SAPE  H13Y17245   5.841   3.099   5.114  0.5961 -0.9035 -1.0778
  155SAPE  C31417246   6.005   3.118   4.973 -1.0132  1.5445  0.0660
  155SAPE  H14X17247   5.998   3.008   4.962 -1.1769  1.4695  0.8794
  155SAPE  H14Y17248   6.111   3.150   4.986 -1.7561  3.3998  2.0705
  155SAPE  C31517249   5.937   3.194   4.862  0.0643 -0.4051 -0.3035
  155SAPE  H15X17250   5.941   3.303   4.882  0.4407 -0.3109 -0.8761
  155SAPE  H15Y17251   5.831   3.160   4.856  0.1506 -0.4313 -2.3426
  155SAPE  C31617252   6.001   3.179   4.723 -0.0223  0.2249 -0.4663
  155SAPE  H16X17253   5.936   3.210   4.638 -3.5130 -0.5179  1.7381
  155SAPE  H16Y17254   6.022   3.071   4.704  1.6718  0.5896 -0.9023
  155SAPE  C31717255   6.138   3.250   4.711  0.5308  0.0337 -0.2708
  155SAPE  H17X17256   6.191   3.215   4.803  0.2731 -1.9897 -0.8375
  155SAPE  H17Y17257   6.130   3.359   4.731  1.2065  0.0780 -0.2359
  155SAPE  C31817258   6.213   3.212   4.584  0.4477 -0.2123 -0.4938
  155SAPE  H18X17259   6.230   3.102   4.588  1.1744 -0.0805  0.2992
  155SAPE  H18Y17260   6.310   3.262   4.566 -0.4850  2.6769  1.6050
  155SAPE  H18Z17261   6.142   3.240   4.503 -1.8395  1.4823  1.9199
  156SAPE     N17262   0.450   6.133   6.592 -0.4289 -0.1289  0.0907
  156SAPE   HN117263   0.375   6.117   6.522 -1.7956 -0.2630  1.5135
  156SAPE   HN217264   0.525   6.062   6.579  1.4692  1.7893  0.0494
  156SAPE   HN317265   0.418   6.122   6.691 -0.3149  1.4593  0.3341
  156SAPE   C1217266   0.506   6.271   6.583 -0.0901 -0.4996 -0.8676
  156SAPE  H12A17267   0.418   6.338   6.592  0.1446 -0.0462 -1.8076
  156SAPE  H12B17268   0.546   6.284   6.480  0.1893  2.8219 -0.4537
  156SAPE   C1117269   0.609   6.299   6.698 -0.2911  0.2822 -0.3718
  156SAPE  H11A17270   0.574   6.299   6.804  0.8592  2.5861  0.0764
  156SAPE  H11B17271   0.642   6.401   6.673  1.2408 -0.2293 -0.5242
  156SAPE     P17272   0.846   6.236   6.783  0.3680  0.3046 -0.5365
  156SAPE   O1317273   0.881   6.380   6.776  0.5196  0.2759 -0.0297
  156SAPE   O1417274   0.826   6.182   6.922 -0.6237  0.5203  0.1314
  156SAPE   O1217275   0.719   6.207   6.685 -0.9905  0.0760  1.0880
  156SAPE   O1117276   0.948   6.156   6.700 -0.2202 -0.2722  0.1580
  156SAPE    C117277   0.950   6.015   6.694 -0.6540  0.0943  0.1101
  156SAPE    HA17278   1.037   5.972   6.747 -0.3500 -1.7358 -1.7695
  156SAPE    HB17279   0.851   5.971   6.720 -1.0032  0.4186 -0.6216
  156SAPE    C217280   0.965   5.971   6.552  0.0240 -0.6982  0.3061
  156SAPE    HS17281   1.070   5.993   6.521 -0.5899  1.8307 -0.1842
  156SAPE   O2117282   0.880   6.039   6.460  0.2782 -0.5091  0.3003
  156SAPE   C2117283   0.921   6.156   6.416 -1.2262  0.0760 -0.0542
  156SAPE   O2217284   1.032   6.205   6.440 -0.7215  0.2079  0.1581
  156SAPE   C2217285   0.818   6.219   6.319 -0.4395  0.8031  0.4557
  156SAPE   H2R17286   0.757   6.285   6.385  2.2734  2.3183  1.6397
  156SAPE   H2S17287   0.879   6.282   6.250  0.0625  0.1146  0.2629
  156SAPE    C317288   0.951   5.816   6.532  0.5639  0.4103  0.2660
  156SAPE    HX17289   0.851   5.774   6.560  0.7337 -1.9415 -2.2759
  156SAPE    HY17290   1.033   5.780   6.598 -0.3794  1.1645  1.9382
  156SAPE   O3117291   0.991   5.771   6.401 -0.0687  0.3620  0.4752
  156SAPE   C3117292   0.890   5.740   6.315  0.5428  0.0546  0.4844
  156SAPE   O3217293   0.773   5.726   6.344  0.2673 -0.3707 -0.5273
  156SAPE   C3217294   0.949   5.707   6.180  0.5410 -0.6764 -0.0157
  156SAPE   H2X17295   1.015   5.618   6.193  1.9512  0.3624  0.1991
  156SAPE   H2Y17296   1.011   5.793   6.148  2.9449 -2.4623 -0.4804
  156SAPE   C2317297   0.734   6.117   6.237 -1.0212 -0.5388 -0.2647
  156SAPE   H3R17298   0.678   6.059   6.313  0.5861 -0.5665  0.9695
  156SAPE   H3S17299   0.812   6.049   6.196 -0.9704 -1.2141  0.9069
  156SAPE   C2417300   0.638   6.196   6.151 -0.3001  0.0810  0.2647
  156SAPE   H4R17301   0.684   6.255   6.068 -0.2427 -1.3490 -0.7609
  156SAPE   H4S17302   0.595   6.269   6.223 -1.3442 -0.6350  0.3800
  156SAPE   C2517303   0.533   6.107   6.089 -0.4293 -0.3601  0.6960
  156SAPE   H5R17304   0.440   6.090   6.145 -0.8697  1.2143  0.5057
  156SAPE   C2617305   0.552   6.049   5.971 -0.1268 -0.0020  0.4878
  156SAPE   H6R17306   0.469   5.998   5.919 -1.3439  1.6496  0.7093
  156SAPE   C2717307   0.682   6.059   5.891 -0.0150 -0.7921  0.2956
  156SAPE   H7R17308   0.691   5.963   5.836 -1.2162  1.0928 -3.5076
  156SAPE   H7S17309   0.771   6.047   5.957 -0.7866 -1.7517  1.1895
  156SAPE   C2817310   0.714   6.173   5.790  0.0822  0.1051 -0.0549
  156SAPE   H8R17311   0.673   6.273   5.811 -1.5281 -0.8120  1.4925
  156SAPE   C2917312   0.808   6.168   5.694 -0.4619  0.6728 -0.2000
  156SAPE   H9R17313   0.833   6.245   5.619  0.9631 -1.7394 -2.3822
  156SAPE  C21017314   0.877   6.031   5.663 -0.1748 -0.0316  0.4122
  156SAPE  H10R17315   0.818   5.939   5.680 -0.1908 -0.0828  0.0869
  156SAPE  H10S17316   0.963   6.019   5.733 -0.5294  1.7394  1.2286
  156SAPE  C21117317   0.954   6.035   5.543 -0.2403  0.6854  0.4455
  156SAPE  H11R17318   1.027   6.114   5.521 -0.2699  0.5549 -0.1453
  156SAPE  C21217319   0.954   5.938   5.442  0.7459 -0.0325 -0.1973
  156SAPE  H12R17320   1.023   5.951   5.358  1.3891 -0.3988  0.2700
  156SAPE  C21317321   0.855   5.819   5.422 -0.4100  0.0284 -0.7170
  156SAPE  H13R17322   0.807   5.799   5.520  0.6625  4.7148  1.0547
  156SAPE  H13S17323   0.910   5.727   5.393 -1.0720 -1.8021  3.1012
  156SAPE  C21417324   0.744   5.834   5.318  0.3165  0.2680  0.1084
  156SAPE  H14R17325   0.682   5.924   5.327  2.0486  1.5731 -0.5487
  156SAPE  C21517326   0.715   5.750   5.214 -0.3231  0.4861 -0.4961
  156SAPE  H15R17327   0.627   5.766   5.151 -0.2901 -0.2099 -0.7251
  156SAPE  C21617328   0.793   5.621   5.185 -0.1309  0.1451 -0.6329
  156SAPE  H16R17329   0.726   5.550   5.132 -0.9339 -0.7479  1.4707
  156SAPE  H16S17330   0.817   5.584   5.287 -0.3297 -1.2124 -1.0650
  156SAPE  C21717331   0.921   5.640   5.107 -0.0810 -0.7313  0.6398
  156SAPE  H17R17332   0.985   5.550   5.119 -1.7705 -1.9746  0.7065
  156SAPE  H17S17333   0.976   5.722   5.159 -0.6801  0.5929 -0.7310
  156SAPE  C21817334   0.896   5.678   4.952 -0.7891  0.1589  0.7613
  156SAPE  H18R17335   0.826   5.763   4.936 -0.2079  0.1163 -2.6504
  156SAPE  H18S17336   0.840   5.592   4.911  1.7228 -0.9354 -0.5669
  156SAPE  C21917337   1.022   5.711   4.883  0.2105 -1.1763 -0.3033
  156SAPE  H19R17338   1.068   5.795   4.941  1.0739  0.2937 -2.9435
  156SAPE  H19S17339   0.994   5.739   4.780  0.3265  0.5662  0.1079
  156SAPE  C22017340   1.117   5.594   4.866 -0.2980 -0.0885 -0.4671
  156SAPE  H20R17341   1.056   5.518   4.812 -0.4264 -1.1154  1.0585
  156SAPE  H20S17342   1.166   5.559   4.960  3.0453  0.5749 -1.8203
  156SAPE  H20T17343   1.205   5.614   4.801 -1.7897 -2.4609 -3.4666
  156SAPE   C3317344   0.848   5.681   6.070 -0.0250 -0.9562  0.0886
  156SAPE   H3X17345   0.789   5.775   6.060  1.8941  0.3108  0.0573
  156SAPE   H3Y17346   0.779   5.600   6.101 -1.0496  0.0402  0.4761
  156SAPE   C3417347   0.916   5.661   5.933 -0.1505 -0.5254  0.1679
  156SAPE   H4X17348   0.974   5.566   5.940  0.4961 -0.3144 -1.7514
  156SAPE   H4Y17349   0.983   5.750   5.922 -1.6753  0.8600  1.5098
  156SAPE   C3517350   0.803   5.649   5.827  0.4685 -0.3000  0.1900
  156SAPE   H5X17351   0.770   5.752   5.801  1.3318 -0.1822 -0.4674
  156SAPE   H5Y17352   0.726   5.588   5.880 -0.5914 -1.1433 -2.1753
  156SAPE   C3617353   0.845   5.576   5.700 -0.3398 -0.6252 -0.1045
  156SAPE   H6X17354   0.925   5.639   5.655 -2.8689  0.6597 -3.1368
  156SAPE   H6Y17355   0.747   5.562   5.651 -0.3142 -0.2052 -0.2754
  156SAPE   C3717356   0.894   5.434   5.722  0.8324  0.6030 -0.5610
  156SAPE   H7X17357   0.824   5.385   5.793  1.4699  1.2779  0.5814
  156SAPE   H7Y17358   0.985   5.432   5.786  0.2214  0.1141  0.3113
  156SAPE   C3817359   0.934   5.357   5.600  0.2535  0.1358  0.4134
  156SAPE   H8X17360   0.848   5.371   5.531 -0.7674  2.1285  1.9750
  156SAPE   H8Y17361   0.939   5.251   5.632  0.7053  0.0941  0.2202
  156SAPE   C3917362   1.067   5.400   5.536  0.9952  1.2560  0.1846
  156SAPE   H9X17363   1.153   5.365   5.597  0.6555 -1.0864 -0.5857
  156SAPE   H9Y17364   1.066   5.511   5.530 -0.1353  1.2288 -0.4968
  156SAPE  C31017365   1.081   5.340   5.393  0.3338 -0.5424  0.8343
  156SAPE  H10X17366   1.184   5.353   5.354 -0.1370 -1.1764 -0.6970
  156SAPE  H10Y17367   1.021   5.394   5.316 -0.0646  1.3625  2.3956
  156SAPE  C31117368   1.050   5.190   5.369 -0.5203 -0.1940 -0.6679
  156SAPE  H11X17369   0.940   5.174   5.367 -0.7590  1.3103 -0.6394
  156SAPE  H11Y17370   1.089   5.137   5.458  0.3290  1.0770 -0.2494
  156SAPE  C31217371   1.125   5.137   5.252  0.6980  0.8069  0.0084
  156SAPE  H12X17372   1.234   5.161   5.249  0.6023  1.2550  0.1236
  156SAPE  H12Y17373   1.069   5.172   5.163  0.2773  0.9221  0.3151
  156SAPE  C31317374   1.127   4.979   5.253  0.5351 -0.4854 -0.1166
  156SAPE  H13X17375   1.020   4.947   5.248  0.6327 -1.2681  1.8807
  156SAPE  H13Y17376   1.168   4.954   5.353  1.0587 -1.8840 -0.6471
  156SAPE  C31417377   1.213   4.921   5.136  0.0365 -0.0332 -0.2761
  156SAPE  H14X17378   1.227   4.811   5.126  2.5217  0.2127 -0.1557
  156SAPE  H14Y17379   1.314   4.951   5.172  0.6472 -1.1202 -1.0186
  156SAPE  C31517380   1.204   4.985   4.997  0.1220  0.4222 -0.3839
  156SAPE  H15X17381   1.204   5.096   5.000 -1.2057  0.4225  1.1490
  156SAPE  H15Y17382   1.105   4.960   4.953 -0.1684 -0.3185  0.6435
  156SAPE  C31617383   1.323   4.937   4.903  0.5308  0.0672 -0.3600
  156SAPE  H16X17384   1.333   4.827   4.912  2.9858  0.1795 -0.9749
  156SAPE  H16Y17385   1.412   4.985   4.950 -0.6260  0.0430  1.9769
  156SAPE  C31717386   1.303   4.979   4.757 -0.4129 -0.9721 -0.8641
  156SAPE  H17X17387   1.203   4.934   4.737 -0.4349 -2.3968  1.9826
  156SAPE  H17Y17388   1.380   4.915   4.707 -0.0537 -0.0657 -1.4955
  156SAPE  C31817389   1.308   5.129   4.726 -0.1845  0.8218  0.3411
  156SAPE  H18X17390   1.415   5.158   4.733  0.5503 -1.7878  1.2751
  156SAPE  H18Y17391   1.244   5.189   4.793  0.0464  0.9947  0.4057
  156SAPE  H18Z17392   1.275   5.143   4.621  0.9768  2.1642  0.1386
  157SAPE     N17393   1.101   5.401   6.551  0.3372  0.0797  0.2079
  157SAPE   HN117394   1.175   5.342   6.594 -0.9905 -0.2212  2.2036
  157SAPE   HN217395   1.140   5.479   6.495 -0.9466 -0.1182 -1.0375
  157SAPE   HN317396   1.048   5.442   6.630 -2.5171  0.1378 -1.5815
  157SAPE   C1217397   1.013   5.318   6.465  0.4008  0.2131 -0.1529
  157SAPE  H12A17398   0.956   5.382   6.394  1.0362 -0.4976 -1.3292
  157SAPE  H12B17399   0.934   5.273   6.529  0.9880 -2.5519 -1.2282
  157SAPE   C1117400   1.088   5.205   6.400 -0.3135 -0.0846  0.5028
  157SAPE  H11A17401   1.143   5.252   6.316 -1.1078  0.0246  0.0382
  157SAPE  H11B17402   1.021   5.134   6.347  0.5574 -0.4183 -0.1736
  157SAPE     P17403   1.151   5.006   6.564 -0.3031  0.5225 -0.2293
  157SAPE   O1317404   1.281   4.944   6.586  0.1254  0.0135  0.3850
  157SAPE   O1417405   1.068   5.021   6.684 -0.1072  0.7160  0.0501
  157SAPE   O1217406   1.180   5.147   6.494  0.0593  0.5423  0.2109
  157SAPE   O1117407   1.074   4.928   6.452 -0.0437 -0.1992  0.2080
  157SAPE    C117408   1.006   4.802   6.473  0.2263 -0.6878 -0.1321
  157SAPE    HA17409   1.081   4.720   6.488 -0.8548 -1.7115 -0.2189
  157SAPE    HB17410   0.949   4.808   6.568 -0.6028 -3.1172 -0.4152
  157SAPE    C217411   0.905   4.776   6.360  0.4652  0.0606 -0.0882
  157SAPE    HS17412   0.847   4.686   6.390  1.6222 -0.4615  0.6619
  157SAPE   O2117413   0.967   4.756   6.229 -0.1364  0.4555 -0.2245
  157SAPE   C2117414   1.049   4.651   6.221 -0.9250 -0.1539 -0.3041
  157SAPE   O2217415   1.068   4.561   6.302 -0.1329 -0.5996  0.2824
  157SAPE   C2217416   1.107   4.653   6.078  0.1403  0.4428  0.2271
  157SAPE   H2R17417   1.027   4.632   6.003  0.5864 -0.8667  0.0901
  157SAPE   H2S17418   1.143   4.757   6.075 -0.9817  0.9573  2.3118
  157SAPE    C317419   0.813   4.896   6.347  1.1962  0.7767 -0.4769
  157SAPE    HX17420   0.876   4.975   6.301  0.3352  1.5984 -0.2822
  157SAPE    HY17421   0.774   4.934   6.444  1.3696 -1.4723  0.5307
  157SAPE   O3117422   0.692   4.856   6.277  0.3228  0.3908 -0.6115
  157SAPE   C3117423   0.686   4.906   6.157 -0.5865  0.2884  0.3088
  157SAPE   O3217424   0.766   4.976   6.099  0.5287  0.6212  0.0005
  157SAPE   C3217425   0.549   4.863   6.096  0.2309  0.2672  1.1064
  157SAPE   H2X17426   0.555   4.891   5.989 -2.0839 -1.3813  0.4581
  157SAPE   H2Y17427   0.469   4.928   6.139  1.4892  2.2802  0.5581
  157SAPE   C2317428   1.231   4.556   6.065  0.5583 -0.1991 -0.2095
  157SAPE   H3R17429   1.308   4.579   6.143  0.6473  0.0729 -0.3765
  157SAPE   H3S17430   1.278   4.584   5.969 -0.7568  3.2523  0.0259
  157SAPE   C2417431   1.201   4.409   6.064 -0.6176 -0.2035  1.0241
  157SAPE   H4R17432   1.121   4.384   5.991  1.6096 -1.4399 -1.1393
  157SAPE   H4S17433   1.169   4.373   6.164  0.8707  0.3187  1.7106
  157SAPE   C2517434   1.326   4.333   6.016  0.5805 -0.1744 -0.1445
  157SAPE   H5R17435   1.400   4.318   6.096 -0.7727 -1.5084  0.9179
  157SAPE   C2617436   1.341   4.281   5.895 -0.3155 -0.0315  0.4558
  157SAPE   H6R17437   1.437   4.231   5.875 -1.0724 -0.8636 -1.3210
  157SAPE   C2717438   1.242   4.303   5.785 -0.5134  0.0859  0.7753
  157SAPE   H7R17439   1.195   4.404   5.791 -0.0377  0.2197  3.0191
  157SAPE   H7S17440   1.157   4.233   5.805 -0.5685 -0.2493 -0.5329
  157SAPE   C2817441   1.291   4.258   5.650 -0.0627 -0.1614  1.1198
  157SAPE   H8R17442   1.366   4.180   5.667  0.1950  0.4478  2.9630
  157SAPE   C2917443   1.267   4.312   5.525  0.7232 -0.3756  0.2032
  157SAPE   H9R17444   1.315   4.273   5.434  0.0882 -0.6347 -0.0246
  157SAPE  C21017445   1.179   4.434   5.494  0.1294  0.0080  0.6215
  157SAPE  H10R17446   1.232   4.524   5.533  2.9914 -0.0737 -2.6098
  157SAPE  H10S17447   1.077   4.427   5.537  0.3758  1.5018  1.5155
  157SAPE  C21117448   1.146   4.452   5.348 -0.1081 -0.7375  0.4876
  157SAPE  H11R17449   1.040   4.430   5.327 -0.3565  1.7141 -1.2000
  157SAPE  C21217450   1.224   4.498   5.241 -0.9741  0.1706 -0.3887
  157SAPE  H12R17451   1.184   4.513   5.140  0.4085 -3.3510 -1.6354
  157SAPE  C21317452   1.370   4.545   5.256 -0.0129 -0.5800 -0.4633
  157SAPE  H13R17453   1.425   4.452   5.281  1.0737  0.2076  0.1780
  157SAPE  H13S17454   1.385   4.597   5.353  0.0217 -0.5075 -0.5076
  157SAPE  C21417455   1.430   4.621   5.140 -0.1367 -0.1544 -0.8432
  157SAPE  H14R17456   1.489   4.703   5.182 -0.8692 -1.2423  2.6137
  157SAPE  C21517457   1.456   4.579   5.016 -0.9915 -0.3879  0.5662
  157SAPE  H15R17458   1.515   4.647   4.952 -1.3945 -0.6307 -0.0680
  157SAPE  C21617459   1.413   4.448   4.951 -0.0675 -0.2634 -0.1168
  157SAPE  H16R17460   1.304   4.460   4.929 -0.4101  0.6131  1.8373
  157SAPE  H16S17461   1.431   4.350   5.000 -0.2729 -1.0903 -1.6291
  157SAPE  C21717462   1.474   4.431   4.809  0.1395  0.8093  0.0521
  157SAPE  H17R17463   1.453   4.330   4.766 -1.0133  0.7496  0.7144
  157SAPE  H17S17464   1.585   4.434   4.814  0.2291 -1.6578  1.9135
  157SAPE  C21817465   1.432   4.543   4.713 -0.2394  1.0545  0.0135
  157SAPE  H18R17466   1.490   4.543   4.619  0.0562 -1.3058  0.1552
  157SAPE  H18S17467   1.447   4.644   4.757 -1.4860  1.1987  0.1481
  157SAPE  C21917468   1.289   4.531   4.668  0.9211 -0.0331  0.4162
  157SAPE  H19R17469   1.256   4.611   4.599 -1.7314 -2.6897 -1.6946
  157SAPE  H19S17470   1.229   4.550   4.759  1.0194 -0.4090  0.5636
  157SAPE  C22017471   1.250   4.400   4.595  0.1458 -0.5530 -0.7366
  157SAPE  H20R17472   1.139   4.408   4.586  0.2976  0.5473 -1.8704
  157SAPE  H20S17473   1.254   4.304   4.651  1.1535 -0.6822 -1.0157
  157SAPE  H20T17474   1.295   4.393   4.494 -0.6440 -1.4976 -1.0448
  157SAPE   C3317475   0.519   4.712   6.113 -0.2741 -0.4796 -0.4642
  157SAPE   H3X17476   0.431   4.678   6.054  0.6643 -3.5938 -0.2728
  157SAPE   H3Y17477   0.506   4.691   6.221 -2.4633 -1.3212 -0.8482
  157SAPE   C3417478   0.613   4.609   6.040 -0.0778  0.1683 -0.1855
  157SAPE   H4X17479   0.585   4.504   6.059  1.4351 -0.1178  0.6034
  157SAPE   H4Y17480   0.715   4.621   6.084 -0.4551 -1.4528  1.1988
  157SAPE   C3517481   0.620   4.635   5.889 -0.1523  0.4354 -0.2974
  157SAPE   H5X17482   0.713   4.582   5.860  0.7854  0.4412  2.3701
  157SAPE   H5Y17483   0.625   4.743   5.861  0.7533  0.6003  0.4614
  157SAPE   C3617484   0.502   4.563   5.811  0.1846 -0.5965  0.0241
  157SAPE   H6X17485   0.398   4.599   5.828 -0.1020 -0.5832 -1.5460
  157SAPE   H6Y17486   0.515   4.463   5.859  2.6149  0.3775  1.5798
  157SAPE   C3717487   0.523   4.542   5.662  0.0326  0.3223  0.2048
  157SAPE   H7X17488   0.622   4.496   5.646 -0.1006 -0.5016  1.5807
  157SAPE   H7Y17489   0.526   4.639   5.608  2.3562 -1.1252 -2.5364
  157SAPE   C3817490   0.420   4.450   5.607 -0.2606  0.4586  0.1837
  157SAPE   H8X17491   0.323   4.504   5.598 -1.1686 -0.8445  1.8247
  157SAPE   H8Y17492   0.420   4.358   5.667 -0.4690  1.1911  1.3322
  157SAPE   C3917493   0.452   4.415   5.461  0.0553 -0.2639 -0.5716
  157SAPE   H9X17494   0.375   4.344   5.425 -0.6875  2.0543 -4.0853
  157SAPE   H9Y17495   0.544   4.355   5.441 -1.1642 -1.6333 -2.4170
  157SAPE  C31017496   0.443   4.540   5.370 -0.5831  0.0212  0.3010
  157SAPE  H10X17497   0.538   4.593   5.395 -0.4836 -0.0987  0.1846
  157SAPE  H10Y17498   0.361   4.607   5.401 -0.1576  0.5527  0.3017
  157SAPE  C31117499   0.432   4.514   5.221  0.5700  0.6404 -0.4675
  157SAPE  H11X17500   0.440   4.606   5.159  0.3285 -0.0636 -1.5899
  157SAPE  H11Y17501   0.331   4.470   5.204  0.6755  0.1304  0.1858
  157SAPE  C31217502   0.530   4.407   5.163 -0.0313  0.6734  0.2158
  157SAPE  H12X17503   0.506   4.313   5.217 -1.4266  1.5818  1.2605
  157SAPE  H12Y17504   0.634   4.435   5.191 -0.8916  0.3373  4.5953
  157SAPE  C31317505   0.523   4.377   5.016  0.4093 -0.3860 -0.1412
  157SAPE  H13X17506   0.423   4.332   4.997 -0.8615  1.1211  2.4136
  157SAPE  H13Y17507   0.598   4.300   4.990  0.0888 -1.1954  1.2091
  157SAPE  C31417508   0.548   4.498   4.931 -0.5377  0.4324 -0.3776
  157SAPE  H14X17509   0.480   4.584   4.949 -1.7550 -0.4464 -0.6793
  157SAPE  H14Y17510   0.537   4.463   4.827  2.0349 -0.8037 -0.3100
  157SAPE  C31517511   0.692   4.565   4.948  0.0126  0.9373  0.4757
  157SAPE  H15X17512   0.768   4.486   4.931 -0.8044  0.3800 -0.7040
  157SAPE  H15Y17513   0.707   4.587   5.056 -0.2133 -2.6341  1.3417
  157SAPE  C31617514   0.700   4.689   4.862  0.0779 -0.3152  0.0715
  157SAPE  H16X17515   0.620   4.764   4.877 -0.2011  0.1736 -3.1804
  157SAPE  H16Y17516   0.708   4.661   4.755  1.0389 -1.1128  0.3304
  157SAPE  C31717517   0.821   4.772   4.886 -0.6483 -0.6899  0.2607
  157SAPE  H17X17518   0.828   4.793   4.995  0.3940  0.8407 -0.0756
  157SAPE  H17Y17519   0.806   4.873   4.843 -0.1824 -1.7935 -2.7431
  157SAPE  C31817520   0.949   4.706   4.828 -0.0151  0.4027  0.5671
  157SAPE  H18X17521   0.943   4.663   4.726  0.0111  2.3291 -0.2818
  157SAPE  H18Y17522   0.961   4.616   4.893 -1.4872  0.2304  0.6368
  157SAPE  H18Z17523   1.043   4.763   4.840  1.2369 -1.7115  1.2143
  158SAPE     N17524   2.828   5.736   6.529  0.4269 -0.0560 -0.3412
  158SAPE   HN117525   2.919   5.774   6.496  0.3466 -0.6266 -1.2393
  158SAPE   HN217526   2.808   5.650   6.476  1.6096 -1.0459  0.7504
  158SAPE   HN317527   2.759   5.805   6.492 -0.1573 -0.8820 -0.8025
  158SAPE   C1217528   2.836   5.737   6.683 -0.0423  0.5342  0.3290
  158SAPE  H12A17529   2.736   5.760   6.727 -0.1673  0.0159  0.3159
  158SAPE  H12B17530   2.911   5.816   6.705  0.0840  0.3630  0.5212
  158SAPE   C1117531   2.874   5.597   6.735 -0.0810 -0.9866  0.1577
  158SAPE  H11A17532   2.796   5.521   6.713 -0.5227 -0.2874 -0.7739
  158SAPE  H11B17533   2.883   5.610   6.845  3.3024  2.4352 -0.3204
  158SAPE     P17534   3.129   5.508   6.750  0.2141 -0.2225 -0.2438
  158SAPE   O1317535   3.199   5.619   6.819  0.1950  0.5008  0.0663
  158SAPE   O1417536   3.106   5.388   6.829  0.2716 -0.3185 -0.3060
  158SAPE   O1217537   2.996   5.563   6.681 -0.1491 -0.3695  0.2507
  158SAPE   O1117538   3.208   5.466   6.623  0.3318  0.1318  0.2232
  158SAPE    C117539   3.271   5.554   6.533  0.2479 -0.7177 -0.3089
  158SAPE    HA17540   3.206   5.581   6.447 -0.2675  0.5880  0.4637
  158SAPE    HB17541   3.301   5.651   6.578 -1.7831  1.7083 -3.7314
  158SAPE    C217542   3.400   5.503   6.471 -0.1212 -0.6263 -0.0096
  158SAPE    HS17543   3.468   5.580   6.429 -0.6341  0.5758  1.2938
  158SAPE   O2117544   3.373   5.414   6.358 -0.0774  0.5834 -0.2819
  158SAPE   C2117545   3.367   5.477   6.237 -0.2828  1.2562  0.2343
  158SAPE   O2217546   3.367   5.597   6.219  0.6402 -0.2069 -0.2097
  158SAPE   C2217547   3.382   5.381   6.115  0.7101  0.8865  0.0668
  158SAPE   H2R17548   3.487   5.345   6.115  0.4782  0.0018 -2.8977
  158SAPE   H2S17549   3.321   5.294   6.145  1.5017  0.3133  0.0498
  158SAPE    C317550   3.486   5.435   6.586 -0.5656 -0.4576 -0.3211
  158SAPE    HX17551   3.428   5.347   6.622 -0.1527 -1.6956 -2.5287
  158SAPE    HY17552   3.504   5.505   6.670  1.3814 -0.9499 -0.2769
  158SAPE   O3117553   3.616   5.398   6.541  0.5251  0.0434  0.0778
  158SAPE   C3117554   3.655   5.281   6.569 -0.2277  0.5589  0.3087
  158SAPE   O3217555   3.601   5.192   6.627 -0.2368  0.6419  0.1021
  158SAPE   C3217556   3.784   5.258   6.499 -0.1287 -0.4778  0.8140
  158SAPE   H2X17557   3.848   5.183   6.551  1.4235 -0.9432 -1.6089
  158SAPE   H2Y17558   3.837   5.355   6.484  2.2261 -1.3615  2.6522
  158SAPE   C2317559   3.347   5.446   5.978 -0.5063  0.6040  0.0432
  158SAPE   H3R17560   3.424   5.525   5.959 -1.5499  1.5379 -0.4170
  158SAPE   H3S17561   3.247   5.494   5.983 -0.3992  0.7180  1.3157
  158SAPE   C2417562   3.357   5.357   5.855  0.2782 -0.7692  0.2613
  158SAPE   H4R17563   3.263   5.299   5.844  1.9548 -3.1962 -3.3520
  158SAPE   H4S17564   3.442   5.286   5.857  1.2502  0.3269 -0.8078
  158SAPE   C2517565   3.375   5.443   5.732 -0.6812 -0.0644  0.8183
  158SAPE   H5R17566   3.309   5.530   5.714  0.9252  0.9015 -0.7179
  158SAPE   C2617567   3.463   5.425   5.636  0.5280 -0.6294 -0.1684
  158SAPE   H6R17568   3.456   5.493   5.550  1.5618  1.6307  1.4393
  158SAPE   C2717569   3.552   5.305   5.623 -0.3453 -0.0224  0.1060
  158SAPE   H7R17570   3.615   5.284   5.712 -0.0579  0.8768  0.1260
  158SAPE   H7S17571   3.632   5.334   5.551 -0.5684 -0.1131 -0.1774
  158SAPE   C2817572   3.472   5.178   5.587  0.4428  0.0048 -0.5247
  158SAPE   H8R17573   3.403   5.130   5.658  0.0299 -1.3294 -1.7793
  158SAPE   C2917574   3.491   5.106   5.480  0.4330 -0.1364  0.4980
  158SAPE   H9R17575   3.440   5.009   5.469  2.0216 -0.9667  0.0888
  158SAPE  C21017576   3.584   5.129   5.364  0.0860 -0.1802 -0.3723
  158SAPE  H10R17577   3.626   5.038   5.317  0.5349 -0.9698  1.4578
  158SAPE  H10S17578   3.683   5.167   5.397  0.7654 -0.7945 -1.6310
  158SAPE  C21117579   3.526   5.224   5.267  0.6870 -0.6405 -0.6375
  158SAPE  H11R17580   3.417   5.221   5.261  0.2047  3.6497  1.6924
  158SAPE  C21217581   3.589   5.307   5.183  0.1167  0.2493  0.3324
  158SAPE  H12R17582   3.520   5.374   5.129  2.5662  1.9697 -0.8583
  158SAPE  C21317583   3.736   5.332   5.161  0.4681  0.6417  0.0957
  158SAPE  H13R17584   3.794   5.289   5.246 -0.1143 -0.0640  0.1510
  158SAPE  H13S17585   3.764   5.439   5.151  2.0703  0.1803 -0.8446
  158SAPE  C21417586   3.773   5.263   5.028 -0.5334 -0.6529 -0.2688
  158SAPE  H14R17587   3.757   5.154   5.027  1.5246 -0.9945 -0.8028
  158SAPE  C21517588   3.832   5.332   4.927  0.0437  0.3417 -0.1686
  158SAPE  H15R17589   3.861   5.274   4.837  2.5174  0.6270  0.3858
  158SAPE  C21617590   3.876   5.475   4.918  0.7257  0.0538  0.1285
  158SAPE  H16R17591   3.966   5.479   4.983  0.9103 -1.2029 -0.0107
  158SAPE  H16S17592   3.800   5.545   4.957  0.6928 -0.2571  0.6352
  158SAPE  C21717593   3.914   5.512   4.769 -0.2311 -0.0074 -0.4571
  158SAPE  H17R17594   3.842   5.459   4.703 -1.6686 -1.0167  1.8003
  158SAPE  H17S17595   4.014   5.467   4.753  0.5587  1.5621 -0.1413
  158SAPE  C21817596   3.915   5.665   4.760  0.6607  0.2276  0.2220
  158SAPE  H18R17597   3.972   5.715   4.841  1.9068 -2.9096  1.4709
  158SAPE  H18S17598   3.812   5.706   4.763 -0.0840 -1.3996 -1.1172
  158SAPE  C21917599   3.995   5.719   4.635  0.3599  0.0679 -0.1925
  158SAPE  H19R17600   3.943   5.665   4.554 -0.7881 -1.2074  1.3297
  158SAPE  H19S17601   4.099   5.681   4.627  0.9334  1.6339 -0.5733
  158SAPE  C22017602   4.010   5.871   4.611 -0.4915  0.0228 -0.5886
  158SAPE  H20R17603   4.091   5.888   4.537 -0.8916 -0.4964 -1.1547
  158SAPE  H20S17604   4.046   5.915   4.706  2.4735  1.4437 -2.2200
  158SAPE  H20T17605   3.912   5.908   4.576 -1.7156 -0.4791  2.1028
  158SAPE   C3317606   3.771   5.209   6.357  0.3004  0.3473  0.4816
  158SAPE   H3X17607   3.701   5.276   6.303 -0.2387 -1.2906 -0.9280
  158SAPE   H3Y17608   3.720   5.110   6.361  0.0506  0.4536 -0.0490
  158SAPE   C3417609   3.905   5.203   6.283 -0.2867 -0.6690 -0.5189
  158SAPE   H4X17610   3.969   5.123   6.328  1.6080  0.3409 -1.2890
  158SAPE   H4Y17611   3.958   5.297   6.310  1.3219 -1.3116 -1.2888
  158SAPE   C3517612   3.897   5.207   6.132 -0.3149 -0.5908  0.4370
  158SAPE   H5X17613   4.004   5.205   6.102  0.0495 -0.3401  1.6781
  158SAPE   H5Y17614   3.857   5.305   6.099  0.3012 -0.3219  0.4742
  158SAPE   C3617615   3.830   5.087   6.066  0.1595 -0.1636 -0.0702
  158SAPE   H6X17616   3.727   5.073   6.106 -0.4263  1.8143 -0.8145
  158SAPE   H6Y17617   3.889   4.995   6.089  2.7700  1.9399  2.5226
  158SAPE   C3717618   3.817   5.088   5.912  0.5214 -0.0348 -0.5422
  158SAPE   H7X17619   3.759   5.179   5.884 -1.4579 -1.2380 -0.5677
  158SAPE   H7Y17620   3.754   5.000   5.885 -1.0391  1.2600 -1.2956
  158SAPE   C3817621   3.947   5.067   5.838 -0.6945  0.6120 -0.3183
  158SAPE   H8X17622   3.975   4.967   5.877 -1.9079  1.6664  3.6707
  158SAPE   H8Y17623   4.020   5.144   5.870  1.7450 -1.1665 -1.3331
  158SAPE   C3917624   3.939   5.082   5.690 -0.4310 -0.4124  0.2963
  158SAPE   H9X17625   3.890   5.180   5.671  0.2383  0.2659  1.8633
  158SAPE   H9Y17626   3.885   5.002   5.635 -0.8304  0.9969 -1.4514
  158SAPE  C31017627   4.085   5.085   5.634  0.2315  0.2586 -0.5217
  158SAPE  H10X17628   4.100   5.007   5.556  2.2576  1.0626 -0.9912
  158SAPE  H10Y17629   4.148   5.071   5.725  1.0210  2.2978 -0.7197
  158SAPE  C31117630   4.122   5.214   5.561  0.4916  0.8323 -0.1384
  158SAPE  H11X17631   4.230   5.201   5.535  0.0683  0.5559 -1.8773
  158SAPE  H11Y17632   4.114   5.294   5.637  1.6456  0.7046  0.1424
  158SAPE  C31217633   4.054   5.245   5.424  0.7441 -0.2845 -0.0727
  158SAPE  H12X17634   4.029   5.348   5.457 -0.7741 -0.8732  0.7061
  158SAPE  H12Y17635   3.963   5.183   5.405  1.8449 -1.6910 -0.9484
  158SAPE  C31317636   4.155   5.253   5.304  0.5163  0.1420  0.1629
  158SAPE  H13X17637   4.235   5.325   5.328  0.8192 -1.0054  3.0331
  158SAPE  H13Y17638   4.089   5.301   5.228 -1.4283  0.3052  1.8383
  158SAPE  C31417639   4.202   5.121   5.253  0.0879  0.6818 -0.3298
  158SAPE  H14X17640   4.122   5.045   5.266 -1.1620  1.9965  0.0106
  158SAPE  H14Y17641   4.289   5.092   5.315  1.6266  2.3665 -1.5941
  158SAPE  C31517642   4.266   5.125   5.111  0.2511 -0.0988 -0.1944
  158SAPE  H15X17643   4.198   5.173   5.037  0.0591 -3.3731 -2.3771
  158SAPE  H15Y17644   4.273   5.018   5.081 -0.0397 -0.0740 -0.3600
  158SAPE  C31617645   4.405   5.185   5.115  0.5623  0.9607  0.6229
  158SAPE  H16X17646   4.469   5.130   5.187 -1.1028 -0.8813  0.7651
  158SAPE  H16Y17647   4.392   5.293   5.138 -2.0727  0.6994  0.6208
  158SAPE  C31717648   4.495   5.187   4.991 -0.2635  0.2576  0.3598
  158SAPE  H17X17649   4.594   5.236   5.002  0.3838 -0.8949 -0.1078
  158SAPE  H17Y17650   4.445   5.235   4.904  0.0203 -0.5576 -0.2664
  158SAPE  C31817651   4.520   5.045   4.944  0.3701  0.1235 -0.5582
  158SAPE  H18X17652   4.565   4.985   5.026 -1.1836  0.4518  0.5931
  158SAPE  H18Y17653   4.596   5.048   4.864  0.8144 -0.9528 -0.1979
  158SAPE  H18Z17654   4.427   4.997   4.908 -0.9529  2.0263  0.1468
  159SAPE     N17655   5.762   1.514   2.133 -0.0751 -0.0768 -0.3829
  159SAPE   HN117656   5.658   1.506   2.137 -0.2241  0.7731 -1.9725
  159SAPE   HN217657   5.795   1.527   2.036 -0.3881  1.6704 -0.2770
  159SAPE   HN317658   5.797   1.423   2.170 -0.8810 -0.4396 -0.4785
  159SAPE   C1217659   5.813   1.627   2.222 -0.8893  0.0734  0.3988
  159SAPE  H12A17660   5.783   1.718   2.165 -0.6397  0.6903  1.2351
  159SAPE  H12B17661   5.924   1.631   2.224 -0.8770 -0.4695  1.8743
  159SAPE   C1117662   5.744   1.632   2.358  0.4940  0.1285  0.5050
  159SAPE  H11A17663   5.767   1.546   2.424 -0.5064  0.0076  0.7083
  159SAPE  H11B17664   5.634   1.619   2.356  0.5504 -0.3480 -1.0476
  159SAPE     P17665   5.911   1.782   2.511  0.0363  0.1546  0.2848
  159SAPE   O1317666   6.004   1.665   2.500  0.1306 -0.9672 -0.6420
  159SAPE   O1417667   5.962   1.912   2.459 -0.0308 -0.6558 -0.4812
  159SAPE   O1217668   5.777   1.744   2.430 -0.0777  0.6118  0.5460
  159SAPE   O1117669   5.877   1.796   2.664 -0.2101 -0.6213 -0.1209
  159SAPE    C117670   5.748   1.852   2.695 -0.9071  0.3616 -0.0361
  159SAPE    HA17671   5.668   1.821   2.626 -0.0373  2.9707 -2.3844
  159SAPE    HB17672   5.713   1.812   2.793  1.6912  0.8585  1.2042
  159SAPE    C217673   5.742   2.005   2.703  0.7572 -0.9148 -0.1570
  159SAPE    HS17674   5.768   2.043   2.602 -0.3645  1.7211  0.4744
  159SAPE   O2117675   5.834   2.054   2.807  0.6769  0.6188 -0.2169
  159SAPE   C2117676   5.870   2.187   2.782  0.2123 -0.1099  0.7860
  159SAPE   O2217677   5.819   2.253   2.694 -0.1347  0.1106  0.4546
  159SAPE   C2217678   5.975   2.241   2.881  0.0119 -0.4725  0.2539
  159SAPE   H2R17679   6.064   2.178   2.858  0.5689 -0.6067  2.6012
  159SAPE   H2S17680   6.001   2.346   2.853 -0.0505 -0.8684 -1.4338
  159SAPE    C317681   5.598   2.052   2.735 -0.0328 -0.1442  0.1379
  159SAPE    HX17682   5.528   2.014   2.658 -0.8349  3.1116 -0.8875
  159SAPE    HY17683   5.580   2.161   2.722 -0.5341 -0.2512 -0.0952
  159SAPE   O3117684   5.555   1.997   2.859 -0.5357 -0.2573 -0.1383
  159SAPE   C3117685   5.550   2.082   2.957  0.0364  0.8191  0.8450
  159SAPE   O3217686   5.563   2.201   2.946 -0.3097 -0.2190 -0.2026
  159SAPE   C3217687   5.528   2.009   3.091  0.6430  0.0460 -0.3079
  159SAPE   H2X17688   5.557   1.902   3.076  1.1991  0.3511 -1.5612
  159SAPE   H2Y17689   5.423   2.010   3.126  1.2177  1.9652  1.5498
  159SAPE   C2317690   5.925   2.231   3.022 -0.4619 -0.5651  0.2111
  159SAPE   H3R17691   5.934   2.124   3.050  2.1448 -0.6903 -0.8631
  159SAPE   H3S17692   5.816   2.244   3.040 -0.1698 -1.2122  2.8494
  159SAPE   C2417693   5.988   2.333   3.125 -0.3750  0.3697  0.4732
  159SAPE   H4R17694   5.918   2.326   3.211 -0.0702 -1.4121  0.6103
  159SAPE   H4S17695   5.996   2.431   3.072 -0.4049 -0.7147 -1.6231
  159SAPE   C2517696   6.129   2.294   3.153  0.0990  0.4918 -0.1354
  159SAPE   H5R17697   6.190   2.276   3.063 -0.5110 -3.8501  0.1336
  159SAPE   C2617698   6.180   2.263   3.275  0.1720 -0.6050  0.4356
  159SAPE   H6R17699   6.284   2.229   3.289 -0.0593 -2.1952 -1.3488
  159SAPE   C2717700   6.113   2.258   3.408 -0.1437 -1.2454 -0.1549
  159SAPE   H7R17701   6.005   2.279   3.392  0.6709  1.9516 -2.2555
  159SAPE   H7S17702   6.168   2.337   3.465 -1.0624 -0.2139 -0.6556
  159SAPE   C2817703   6.138   2.125   3.477 -0.4690  0.1105  0.0631
  159SAPE   H8R17704   6.168   2.038   3.416  1.5769  1.2286 -0.6286
  159SAPE   C2917705   6.119   2.111   3.606 -0.3338 -0.5811  0.3856
  159SAPE   H9R17706   6.148   2.014   3.650  3.6289  0.1094 -0.3202
  159SAPE  C21017707   6.072   2.220   3.695 -0.0166 -0.3859  0.1932
  159SAPE  H10R17708   6.000   2.174   3.766 -0.5318  0.1653  0.0364
  159SAPE  H10S17709   6.005   2.285   3.634 -0.2109 -1.4443 -0.7528
  159SAPE  C21117710   6.160   2.311   3.762 -0.2420 -0.6538 -0.5131
  159SAPE  H11R17711   6.264   2.314   3.726  0.0494 -0.3117  0.3273
  159SAPE  C21217712   6.132   2.365   3.883 -0.3721  0.2592  0.2434
  159SAPE  H12R17713   6.207   2.436   3.920 -0.6660  1.0747 -0.6989
  159SAPE  C21317714   6.003   2.365   3.968 -0.3956  0.4153  0.0544
  159SAPE  H13R17715   6.011   2.292   4.051  1.0420 -1.8328 -1.9284
  159SAPE  H13S17716   5.918   2.320   3.911 -0.3620  1.6421 -1.0101
  159SAPE  C21417717   5.958   2.496   4.010  0.7667 -0.0849  0.5898
  159SAPE  H14R17718   5.919   2.551   3.923  1.5848 -1.1251 -0.4724
  159SAPE  C21517719   5.936   2.540   4.132 -0.0223 -0.1696  0.1506
  159SAPE  H15R17720   5.892   2.640   4.143  2.4117  1.1702 -1.3105
  159SAPE  C21617721   5.971   2.466   4.256 -0.6195 -0.3967 -0.6349
  159SAPE  H16R17722   6.050   2.388   4.250  1.2203  1.3603 -0.2243
  159SAPE  H16S17723   5.883   2.416   4.302 -0.4299 -1.8402 -1.7483
  159SAPE  C21717724   6.020   2.567   4.361 -0.3765  0.7912 -0.1832
  159SAPE  H17R17725   6.021   2.523   4.463  0.5485  0.3492 -0.3719
  159SAPE  H17S17726   5.964   2.663   4.365 -0.2882  0.8222  0.2926
  159SAPE  C21817727   6.164   2.600   4.346 -1.0586 -0.5702  0.1827
  159SAPE  H18R17728   6.190   2.638   4.245  3.1624 -2.4514  0.3795
  159SAPE  H18S17729   6.226   2.508   4.349  0.4981  0.4630  0.7274
  159SAPE  C21917730   6.207   2.707   4.448  0.0705 -0.3210  0.2708
  159SAPE  H19R17731   6.157   2.681   4.544 -2.3220 -2.7712 -1.4992
  159SAPE  H19S17732   6.168   2.804   4.410 -0.3003 -0.6164 -0.1195
  159SAPE  C22017733   6.357   2.714   4.470 -0.1105  0.1667  0.3240
  159SAPE  H20R17734   6.402   2.634   4.533 -0.0634  1.0425  1.4300
  159SAPE  H20S17735   6.379   2.804   4.532 -0.3082  1.6743 -1.6650
  159SAPE  H20T17736   6.420   2.720   4.379 -0.3886  0.9334  0.1694
  159SAPE   C3317737   5.618   2.071   3.207 -0.8322 -0.1714  0.0431
  159SAPE   H3X17738   5.718   2.065   3.159 -0.1825  2.7885  0.8249
  159SAPE   H3Y17739   5.618   2.004   3.295  0.3329 -1.0311 -0.5828
  159SAPE   C3417740   5.584   2.207   3.252 -0.3948 -0.0576 -0.0411
  159SAPE   H4X17741   5.479   2.219   3.285 -0.7046 -0.1311 -0.9972
  159SAPE   H4Y17742   5.590   2.288   3.176 -2.5241  0.2424  0.0558
  159SAPE   C3517743   5.669   2.246   3.377  0.9157  0.6274 -0.1297
  159SAPE   H5X17744   5.650   2.355   3.392  1.9814  0.7208  0.6955
  159SAPE   H5Y17745   5.777   2.227   3.361  1.0958  2.3271 -1.2046
  159SAPE   C3617746   5.611   2.179   3.508  0.3916 -0.0341  0.4218
  159SAPE   H6X17747   5.608   2.069   3.491 -0.3080 -0.0170  0.4409
  159SAPE   H6Y17748   5.512   2.227   3.519  0.3542  0.5665 -1.9192
  159SAPE   C3717749   5.689   2.213   3.637  0.7240  0.5356  0.0377
  159SAPE   H7X17750   5.691   2.323   3.650 -0.9551  0.6216 -0.2645
  159SAPE   H7Y17751   5.797   2.191   3.650  1.1509  1.3016 -1.8945
  159SAPE   C3817752   5.617   2.162   3.763  0.2566 -0.1285  0.1108
  159SAPE   H8X17753   5.598   2.054   3.746  2.5220 -0.7770  1.2810
  159SAPE   H8Y17754   5.520   2.212   3.781  0.5655 -0.2141  2.2589
  159SAPE   C3917755   5.691   2.181   3.895 -0.4646  0.2639  0.2790
  159SAPE   H9X17756   5.704   2.291   3.909 -1.5702  0.4132  0.2034
  159SAPE   H9Y17757   5.794   2.139   3.904  0.3797  1.8500 -1.2737
  159SAPE  C31017758   5.630   2.135   4.035  0.3810 -0.1447 -0.4063
  159SAPE  H10X17759   5.613   2.026   4.027  0.8247 -0.2000 -0.6701
  159SAPE  H10Y17760   5.535   2.192   4.043 -0.9280 -2.4379  1.6437
  159SAPE  C31117761   5.702   2.174   4.165 -0.0474  0.2884  0.1057
  159SAPE  H11X17762   5.763   2.267   4.157  1.3709 -0.4774  1.5134
  159SAPE  H11Y17763   5.771   2.087   4.172 -0.2129 -0.0072 -1.4606
  159SAPE  C31217764   5.608   2.171   4.281  0.1382 -1.4218 -0.8433
  159SAPE  H12X17765   5.534   2.091   4.258 -0.8781 -0.4870 -0.8885
  159SAPE  H12Y17766   5.555   2.268   4.288  2.9822  0.1239  1.6385
  159SAPE  C31317767   5.664   2.130   4.417 -0.4510  0.7316  0.5514
  159SAPE  H13X17768   5.706   2.028   4.427  0.4459  1.2118  2.0647
  159SAPE  H13Y17769   5.593   2.133   4.503 -0.0017  2.4454  0.9019
  159SAPE  C31417770   5.780   2.226   4.454  0.0445  0.2340  0.0097
  159SAPE  H14X17771   5.738   2.329   4.447 -1.4952  0.1246  4.6199
  159SAPE  H14Y17772   5.865   2.198   4.388 -0.9369 -3.1035 -0.0085
  159SAPE  C31517773   5.824   2.210   4.595  0.2435  0.0978 -0.6380
  159SAPE  H15X17774   5.733   2.231   4.656  1.2805  0.6993  0.7566
  159SAPE  H15Y17775   5.882   2.303   4.614 -0.5954  0.7320 -1.1384
  159SAPE  C31617776   5.904   2.081   4.632  0.2635  0.1842 -0.7921
  159SAPE  H16X17777   5.978   2.047   4.556  0.3393 -1.1833 -0.1351
  159SAPE  H16Y17778   5.825   2.002   4.628 -1.0501  1.4872 -1.8365
  159SAPE  C31717779   5.972   2.078   4.769  0.1864 -0.4543  0.3776
  159SAPE  H17X17780   6.045   2.162   4.773 -0.4929  0.1158  1.5679
  159SAPE  H17Y17781   6.026   1.982   4.781  0.4547 -0.3102  0.3267
  159SAPE  C31817782   5.868   2.094   4.876 -0.1226 -0.8124  0.1711
  159SAPE  H18X17783   5.913   2.093   4.977 -0.6449  0.0857  0.4202
  159SAPE  H18Y17784   5.796   2.009   4.872 -0.7913 -0.2192 -1.1686
  159SAPE  H18Z17785   5.806   2.186   4.875  0.4317 -0.4211 -1.2439
  160SAPE     N17786   5.473   6.440   2.306 -0.3656  0.4420 -0.6929
  160SAPE   HN117787   5.430   6.363   2.251  0.4888 -0.2747 -0.3954
  160SAPE   HN217788   5.399   6.513   2.308  0.0755  0.8964  1.4586
  160SAPE   HN317789   5.548   6.486   2.250  1.1468  1.0317  1.6551
  160SAPE   C1217790   5.510   6.405   2.447 -0.2493 -0.2837 -0.4413
  160SAPE  H12A17791   5.522   6.295   2.453 -0.9357 -0.4328 -1.3869
  160SAPE  H12B17792   5.418   6.419   2.508  0.2113 -0.6710  0.3426
  160SAPE   C1117793   5.599   6.515   2.499 -0.7894  0.2600 -0.2880
  160SAPE  H11A17794   5.607   6.512   2.609  2.9382  0.6220 -0.4074
  160SAPE  H11B17795   5.555   6.613   2.472  0.7104  0.3253 -2.8541
  160SAPE     P17796   5.775   6.609   2.329 -0.1842 -0.2552  0.2905
  160SAPE   O1317797   5.916   6.588   2.280 -0.4947  0.0785  0.4966
  160SAPE   O1417798   5.677   6.602   2.222 -0.0405 -0.1273 -0.0867
  160SAPE   O1217799   5.735   6.510   2.443 -0.0103  0.0338 -0.1592
  160SAPE   O1117800   5.757   6.759   2.391  0.4082  0.8799  0.2769
  160SAPE    C117801   5.865   6.813   2.464 -0.0519  0.4560  0.2244
  160SAPE    HA17802   5.966   6.803   2.420 -0.7888  2.2912 -2.0544
  160SAPE    HB17803   5.857   6.924   2.461  0.4361  0.4913  0.1765
  160SAPE    C217804   5.867   6.764   2.605 -0.7774 -0.2582 -0.5795
  160SAPE    HS17805   5.879   6.654   2.609 -1.5981 -0.3436 -0.0373
  160SAPE   O2117806   5.748   6.804   2.669 -0.5888 -0.0237 -0.2239
  160SAPE   C2117807   5.714   6.734   2.775  0.6001 -0.7764 -0.0863
  160SAPE   O2217808   5.763   6.634   2.822 -0.7311  0.2780 -0.2346
  160SAPE   C2217809   5.614   6.827   2.855 -0.0964 -0.6808  0.0055
  160SAPE   H2R17810   5.656   6.930   2.851 -0.1605 -0.5749  1.4753
  160SAPE   H2S17811   5.520   6.835   2.795  0.6741  0.8587 -1.0716
  160SAPE    C317812   5.990   6.818   2.692  0.6231 -0.4754 -0.6775
  160SAPE    HX17813   6.081   6.787   2.636  0.2674  1.5564 -2.4878
  160SAPE    HY17814   5.987   6.761   2.787 -1.5417 -1.0557 -1.0389
  160SAPE   O3117815   5.980   6.960   2.717 -0.1309  0.2629 -0.1486
  160SAPE   C3117816   6.091   7.019   2.761 -0.2496  0.0165  0.1988
  160SAPE   O3217817   6.195   6.963   2.786  0.1383  0.3638  0.2508
  160SAPE   C3217818   6.051   7.160   2.787  0.6600  0.2172 -0.5848
  160SAPE   H2X17819   6.004   7.202   2.695 -0.1938 -0.6314 -0.5508
  160SAPE   H2Y17820   6.137   7.223   2.817  0.5223 -0.3650  1.1672
  160SAPE   C2317821   5.597   6.788   3.006  0.4011  0.4465 -0.3877
  160SAPE   H3R17822   5.697   6.769   3.049  0.4996  0.0239 -0.7991
  160SAPE   H3S17823   5.554   6.686   3.006 -0.6663  0.8791  0.4095
  160SAPE   C2417824   5.530   6.893   3.098  0.1949  0.0703 -0.5015
  160SAPE   H4R17825   5.504   6.828   3.184 -0.2281 -0.1115 -0.7670
  160SAPE   H4S17826   5.426   6.919   3.072  0.3266  1.9758  0.6479
  160SAPE   C2517827   5.614   7.010   3.133  0.1044 -0.2227  0.3422
  160SAPE   H5R17828   5.663   7.063   3.050  1.3972  0.0695  1.2606
  160SAPE   C2617829   5.657   7.047   3.256 -0.4015 -0.1597 -0.7168
  160SAPE   H6R17830   5.715   7.141   3.257 -1.1785  0.3186 -0.0412
  160SAPE   C2717831   5.617   6.968   3.377 -0.4494 -0.3540 -0.2389
  160SAPE   H7R17832   5.616   6.859   3.357 -0.5886 -0.6692  1.3723
  160SAPE   H7S17833   5.510   6.996   3.395 -0.6609  0.0857 -2.0222
  160SAPE   C2817834   5.701   6.998   3.493 -0.1050  0.2467 -0.3561
  160SAPE   H8R17835   5.807   6.986   3.469 -0.4476 -5.6949 -0.1748
  160SAPE   C2917836   5.656   7.057   3.608 -0.5384 -0.2379  0.2337
  160SAPE   H9R17837   5.729   7.071   3.688  0.5017 -2.3400 -0.2958
  160SAPE  C21017838   5.518   7.085   3.661 -0.2711 -0.9915 -0.2910
  160SAPE  H10R17839   5.458   7.156   3.599 -1.0839 -1.3823  0.0303
  160SAPE  H10S17840   5.517   7.133   3.761  1.4902  0.3516 -0.8587
  160SAPE  C21117841   5.436   6.962   3.667  0.1367 -0.5960  0.1496
  160SAPE  H11R17842   5.487   6.868   3.642 -0.0830 -0.6720 -0.0121
  160SAPE  C21217843   5.314   6.954   3.721 -0.0824 -0.5667 -0.3311
  160SAPE  H12R17844   5.262   6.858   3.728 -0.6719 -0.2067  0.3650
  160SAPE  C21317845   5.238   7.075   3.778 -0.0437  0.9055 -0.3126
  160SAPE  H13R17846   5.202   7.151   3.705 -0.8672  0.8912  0.0690
  160SAPE  H13S17847   5.315   7.137   3.829  0.5039  0.7061 -0.8746
  160SAPE  C21417848   5.126   7.036   3.864 -0.4029 -0.6782 -0.9171
  160SAPE  H14R17849   5.027   7.068   3.828 -1.9575  0.3772  3.6104
  160SAPE  C21517850   5.132   6.989   3.992 -0.0422  0.8948 -0.3478
  160SAPE  H15R17851   5.044   6.956   4.049  1.4230 -0.6291  1.1349
  160SAPE  C21617852   5.263   6.973   4.069 -0.3863 -0.3324  0.1356
  160SAPE  H16R17853   5.358   6.968   4.011 -0.4271  0.5901 -0.0243
  160SAPE  H16S17854   5.254   6.872   4.115  0.5235  0.3822  1.9643
  160SAPE  C21717855   5.293   7.073   4.187 -0.4906 -0.1560  0.1720
  160SAPE  H17R17856   5.198   7.078   4.245 -2.0643 -1.2064 -2.1763
  160SAPE  H17S17857   5.309   7.177   4.150  1.9569 -0.1407  1.0800
  160SAPE  C21817858   5.420   7.024   4.264  0.0158 -0.2556 -0.5172
  160SAPE  H18R17859   5.442   7.100   4.343 -2.1265  0.0835 -0.1781
  160SAPE  H18S17860   5.518   7.012   4.214  1.6897  0.2031  2.4031
  160SAPE  C21917861   5.401   6.894   4.342  0.2940 -0.1005 -0.2076
  160SAPE  H19R17862   5.434   6.811   4.276 -0.1079  0.3941 -1.0470
  160SAPE  H19S17863   5.293   6.876   4.365 -0.1170  1.7587 -0.5480
  160SAPE  C22017864   5.486   6.896   4.469 -0.5271  0.8205  0.6403
  160SAPE  H20R17865   5.584   6.947   4.463 -0.4270  0.5861  0.2250
  160SAPE  H20S17866   5.502   6.795   4.512 -0.9650  0.9545  1.1299
  160SAPE  H20T17867   5.438   6.956   4.549 -0.9954  3.4103 -1.4315
  160SAPE   C3317868   5.941   7.168   2.901 -0.2657 -0.4287  0.3656
  160SAPE   H3X17869   5.853   7.108   2.870  0.7271 -1.3473 -0.7974
  160SAPE   H3Y17870   5.904   7.270   2.924 -0.4440 -0.0093 -1.5791
  160SAPE   C3417871   5.987   7.109   3.030 -0.1134  0.0531  0.2112
  160SAPE   H4X17872   6.002   6.999   3.017 -0.7286 -0.3116  2.1925
  160SAPE   H4Y17873   5.908   7.106   3.108 -0.5998 -1.7740 -0.3033
  160SAPE   C3517874   6.124   7.158   3.084 -0.0758 -0.5266  0.0255
  160SAPE   H5X17875   6.134   7.268   3.079  1.7430 -0.5448  1.9152
  160SAPE   H5Y17876   6.199   7.117   3.013 -0.6289 -0.8705 -0.3710
  160SAPE   C3617877   6.155   7.110   3.228 -0.2441 -0.3356  0.3078
  160SAPE   H6X17878   6.254   7.150   3.259 -0.8159  1.7667 -0.4555
  160SAPE   H6Y17879   6.160   7.000   3.246  0.7807  0.0115  2.5695
  160SAPE   C3717880   6.063   7.171   3.336 -0.2112 -0.0490  0.4655
  160SAPE   H7X17881   5.966   7.118   3.327 -0.5672  0.6773 -0.1004
  160SAPE   H7Y17882   6.045   7.278   3.312 -2.1738 -0.5946 -0.6618
  160SAPE   C3817883   6.110   7.143   3.480  0.0055  0.1076  0.5164
  160SAPE   H8X17884   6.218   7.165   3.488  0.6305 -2.6767  0.6216
  160SAPE   H8Y17885   6.100   7.034   3.499  1.2121 -0.3089 -1.0898
  160SAPE   C3917886   6.032   7.230   3.577  0.0899 -0.0885 -0.0506
  160SAPE   H9X17887   5.922   7.221   3.561 -0.0390  1.1551  0.0682
  160SAPE   H9Y17888   6.059   7.337   3.567  1.0710  0.0430  3.0597
  160SAPE  C31017889   6.051   7.200   3.729  0.1362 -0.5158  0.9671
  160SAPE  H10X17890   6.159   7.223   3.748  0.3393 -1.0822  0.5282
  160SAPE  H10Y17891   6.023   7.095   3.750 -0.8603 -0.3480  0.5394
  160SAPE  C31117892   5.962   7.288   3.819 -0.2677 -0.8278  0.1263
  160SAPE  H11X17893   5.855   7.281   3.792  0.0993 -1.4399 -1.1927
  160SAPE  H11Y17894   5.991   7.393   3.795  0.5334 -0.7800  1.2239
  160SAPE  C31217895   5.996   7.258   3.968 -0.5025 -0.2382 -0.1678
  160SAPE  H12X17896   6.104   7.284   3.978 -1.1515  2.4625  0.9837
  160SAPE  H12Y17897   5.969   7.151   3.980 -1.4501 -0.2480 -2.0705
  160SAPE  C31317898   5.932   7.364   4.059  0.8686 -0.2437  0.1179
  160SAPE  H13X17899   5.822   7.352   4.068  0.7757  0.5794  0.1510
  160SAPE  H13Y17900   5.954   7.462   4.012 -0.9288 -1.1465 -2.9384
  160SAPE  C31417901   5.999   7.366   4.200  0.7037  0.0561  0.3494
  160SAPE  H14X17902   5.971   7.459   4.255 -2.4697 -1.1770  1.0431
  160SAPE  H14Y17903   6.109   7.370   4.184  0.5410 -0.8133 -1.1590
  160SAPE  C31517904   5.951   7.253   4.290 -1.0154 -0.1666 -0.4395
  160SAPE  H15X17905   5.987   7.163   4.236 -1.8709 -0.3785 -0.6760
  160SAPE  H15Y17906   5.840   7.244   4.286 -0.9288 -1.1885 -0.7021
  160SAPE  C31617907   6.009   7.244   4.435 -0.2409 -0.1859  0.1205
  160SAPE  H16X17908   5.960   7.314   4.505  1.9356  0.2233  1.3259
  160SAPE  H16Y17909   6.119   7.264   4.438  0.3345 -2.5774 -1.9026
  160SAPE  C31717910   5.988   7.102   4.500 -0.5368  0.3361  0.1715
  160SAPE  H17X17911   6.056   7.101   4.589 -0.9325 -1.3085  0.4933
  160SAPE  H17Y17912   6.041   7.027   4.437 -0.2670  0.7025 -0.0383
  160SAPE  C31817913   5.838   7.071   4.526 -0.9394  0.4851  0.2618
  160SAPE  H18X17914   5.769   7.120   4.453 -0.6239  1.4407  0.5979
  160SAPE  H18Y17915   5.809   7.103   4.628  0.6987  2.5159  0.1495
  160SAPE  H18Z17916   5.829   6.960   4.531  2.8164  0.1195  1.5437
  161SAPE     N17917   2.804   3.498   1.734  0.1301 -0.4975 -0.6067
  161SAPE   HN117918   2.854   3.494   1.643  0.6151 -0.5856 -0.3437
  161SAPE   HN217919   2.741   3.416   1.744  0.2629 -0.3342  2.8196
  161SAPE   HN317920   2.737   3.578   1.730  0.4531 -0.2394 -0.9140
  161SAPE   C1217921   2.911   3.512   1.842  0.0752  0.3354 -0.0071
  161SAPE  H12A17922   2.861   3.559   1.929 -1.2446 -0.4826 -0.2987
  161SAPE  H12B17923   2.981   3.590   1.803 -0.8569 -0.0057 -2.5731
  161SAPE   C1117924   2.975   3.381   1.878  0.7137  0.0663 -1.0674
  161SAPE  H11A17925   3.057   3.392   1.953  0.3870  0.4971 -0.7705
  161SAPE  H11B17926   3.033   3.334   1.796  3.8297  1.6701  0.0583
  161SAPE     P17927   2.920   3.154   1.996 -0.1179 -0.0752  0.2475
  161SAPE   O1317928   2.819   3.052   1.962  0.6428 -0.2789  0.0797
  161SAPE   O1417929   3.063   3.125   1.956 -0.1368  0.1153 -0.0111
  161SAPE   O1217930   2.874   3.292   1.933 -0.1149  0.3207  0.5924
  161SAPE   O1117931   2.905   3.169   2.151  0.1126  0.4341  0.2405
  161SAPE    C117932   2.784   3.223   2.213 -0.3957 -1.2305 -0.1560
  161SAPE    HA17933   2.688   3.184   2.171 -1.7899 -0.4515  2.1397
  161SAPE    HB17934   2.783   3.181   2.316  2.5106 -1.4540 -0.1386
  161SAPE    C217935   2.787   3.382   2.227  0.3952  0.4537  0.2396
  161SAPE    HS17936   2.783   3.423   2.124 -2.6807 -0.1731  0.0007
  161SAPE   O2117937   2.910   3.417   2.291  0.2342 -0.5915  0.7612
  161SAPE   C2117938   2.957   3.534   2.263  0.9314 -0.5661  0.3608
  161SAPE   O2217939   2.898   3.618   2.195 -0.7955 -0.4055 -0.1296
  161SAPE   C2217940   3.090   3.556   2.337 -0.4674  0.2740  0.4796
  161SAPE   H2R17941   3.162   3.588   2.259 -1.9945  0.3648 -0.9295
  161SAPE   H2S17942   3.086   3.635   2.415  0.0371  1.7280 -0.9212
  161SAPE    C317943   2.676   3.432   2.310 -0.8242 -0.2540  0.6893
  161SAPE    HX17944   2.589   3.441   2.242 -0.1690  1.4062  0.0035
  161SAPE    HY17945   2.697   3.537   2.342  1.1628 -0.6234  0.7549
  161SAPE   O3117946   2.660   3.349   2.427  0.4858 -0.1598 -0.2546
  161SAPE   C3117947   2.714   3.384   2.535 -0.3170  0.1888  0.5394
  161SAPE   O3217948   2.777   3.485   2.564  0.5386 -0.7655  0.1427
  161SAPE   C3217949   2.684   3.263   2.638 -0.2475 -0.0426  0.3473
  161SAPE   H2X17950   2.758   3.183   2.616  0.7315  1.0484 -0.3917
  161SAPE   H2Y17951   2.586   3.221   2.606 -1.4622 -0.5118  4.1774
  161SAPE   C2317952   3.139   3.425   2.412  0.3042  0.4589  0.4832
  161SAPE   H3R17953   3.059   3.401   2.485  1.2108  0.6139  1.5545
  161SAPE   H3S17954   3.221   3.449   2.482 -0.3744 -0.4038  1.6078
  161SAPE   C2417955   3.190   3.307   2.321  0.2427  0.7746 -0.5311
  161SAPE   H4R17956   3.113   3.281   2.246  1.2745  1.7927 -1.9918
  161SAPE   H4S17957   3.216   3.219   2.383 -0.4438 -0.0915 -1.4542
  161SAPE   C2517958   3.317   3.348   2.245  0.4077  0.0493  0.2950
  161SAPE   H5R17959   3.296   3.418   2.163  1.0159 -0.4990 -0.3408
  161SAPE   C2617960   3.440   3.308   2.274 -0.1283 -0.2090 -0.3422
  161SAPE   H6R17961   3.517   3.351   2.209  0.1769  2.2768  1.5126
  161SAPE   C2717962   3.477   3.220   2.388  0.7794 -0.4157  0.6911
  161SAPE   H7R17963   3.412   3.221   2.478  1.1237 -4.0023  1.1237
  161SAPE   H7S17964   3.577   3.256   2.423  0.6686  1.3378 -0.6790
  161SAPE   C2817965   3.491   3.072   2.337  0.3184 -0.4721 -0.1978
  161SAPE   H8R17966   3.395   3.026   2.310 -0.0476 -0.8328  1.5935
  161SAPE   C2917967   3.593   2.990   2.347  0.0086  0.2505 -0.3075
  161SAPE   H9R17968   3.575   2.884   2.324 -0.0824 -0.2955  2.0568
  161SAPE  C21017969   3.727   3.016   2.405 -0.8931  0.1072 -0.1143
  161SAPE  H10R17970   3.726   2.976   2.509 -0.5688  1.0667  0.2757
  161SAPE  H10S17971   3.735   3.123   2.434 -0.4047  0.0173  0.1108
  161SAPE  C21117972   3.850   2.962   2.335  0.0259 -0.9568 -0.1899
  161SAPE  H11R17973   3.829   2.907   2.242  2.3260  0.0155 -1.3520
  161SAPE  C21217974   3.970   2.963   2.395  0.4629  0.0747  0.4999
  161SAPE  H12R17975   4.052   2.925   2.332 -1.7620  0.3284 -2.8180
  161SAPE  C21317976   4.007   3.030   2.520 -0.2074 -0.2458 -0.3692
  161SAPE  H13R17977   3.931   3.091   2.573  0.1566  2.0705 -2.3423
  161SAPE  H13S17978   4.098   3.089   2.496  0.7008 -0.8139  1.4363
  161SAPE  C21417979   4.054   2.916   2.608  0.2571 -0.1516  0.5406
  161SAPE  H14R17980   4.160   2.890   2.603  1.4949  4.2020  0.2573
  161SAPE  C21517981   3.977   2.861   2.703 -0.3128 -0.3622  0.0154
  161SAPE  H15R17982   4.027   2.779   2.758  1.7397  1.0214  0.3509
  161SAPE  C21617983   3.841   2.889   2.752 -0.2999  0.1615  0.0771
  161SAPE  H16R17984   3.764   2.848   2.683  0.0275 -0.5927  0.1525
  161SAPE  H16S17985   3.826   2.999   2.745 -0.8697  0.0469 -0.6180
  161SAPE  C21717986   3.796   2.845   2.892  0.1541  0.5210 -0.1532
  161SAPE  H17R17987   3.883   2.855   2.960  0.1154  1.3035 -0.2125
  161SAPE  H17S17988   3.770   2.737   2.889  1.6148  0.1574 -0.6144
  161SAPE  C21817989   3.673   2.918   2.934 -0.0636 -0.6708 -0.3509
  161SAPE  H18R17990   3.608   2.937   2.845  2.9078  1.7377 -2.2315
  161SAPE  H18S17991   3.709   3.020   2.958  0.7974 -1.3167  1.2015
  161SAPE  C21917992   3.604   2.860   3.048 -0.1105 -0.4077 -0.6955
  161SAPE  H19R17993   3.576   2.758   3.014 -0.1587 -0.2745 -1.0517
  161SAPE  H19S17994   3.517   2.925   3.072  1.7979  1.9739  0.2242
  161SAPE  C22017995   3.697   2.864   3.177 -0.3986 -0.8315 -0.0965
  161SAPE  H20R17996   3.770   2.780   3.180 -1.7368 -2.0021  1.0723
  161SAPE  H20S17997   3.634   2.844   3.266 -2.1611 -2.4710 -1.6316
  161SAPE  H20T17998   3.751   2.959   3.198 -1.1107 -0.5315  0.4005
  161SAPE   C3317999   2.692   3.305   2.784  0.2845  0.1234  0.5445
  161SAPE   H3X18000   2.652   3.405   2.811  1.1737  0.7398 -0.3457
  161SAPE   H3Y18001   2.800   3.305   2.809  0.1701 -0.5213  1.0666
  161SAPE   C3418002   2.640   3.201   2.881  0.4163 -0.3595  0.6254
  161SAPE   H4X18003   2.670   3.097   2.856 -0.4689 -0.3356 -0.6303
  161SAPE   H4Y18004   2.530   3.200   2.864  0.2280  2.1362  1.2711
  161SAPE   C3518005   2.667   3.228   3.028 -0.3728 -0.8708  0.0557
  161SAPE   H5X18006   2.652   3.334   3.058  0.1893 -0.3880 -1.3011
  161SAPE   H5Y18007   2.770   3.203   3.061 -0.3294 -0.2851  0.3854
  161SAPE   C3618008   2.568   3.145   3.115 -0.9119  1.1801 -0.3172
  161SAPE   H6X18009   2.581   3.037   3.093 -2.9957  0.0873  3.0227
  161SAPE   H6Y18010   2.465   3.182   3.091 -0.3614  2.2133 -1.2139
  161SAPE   C3718011   2.598   3.154   3.265 -0.1626  0.5942  0.3863
  161SAPE   H7X18012   2.591   3.263   3.288 -2.4808  1.1616 -2.3769
  161SAPE   H7Y18013   2.706   3.133   3.279 -0.5176 -1.6919  0.0543
  161SAPE   C3818014   2.489   3.076   3.334  0.1162  0.7295 -0.7603
  161SAPE   H8X18015   2.497   2.968   3.312  1.9358  0.6623  0.0661
  161SAPE   H8Y18016   2.393   3.112   3.291 -0.3254  2.2444  1.3185
  161SAPE   C3918017   2.485   3.081   3.482 -0.0062 -0.8183 -0.0571
  161SAPE   H9X18018   2.476   3.189   3.509 -0.2179 -1.5233  3.1417
  161SAPE   H9Y18019   2.571   3.039   3.539 -0.2867 -0.1407  0.8975
  161SAPE  C31018020   2.370   3.006   3.545  0.0950 -0.3506 -0.0607
  161SAPE  H10X18021   2.382   2.900   3.516  1.1339  0.0401 -1.1612
  161SAPE  H10Y18022   2.269   3.037   3.511 -0.6996 -2.7704 -0.0685
  161SAPE  C31118023   2.386   3.010   3.698  0.2450 -0.3059 -0.7764
  161SAPE  H11X18024   2.393   3.109   3.749 -0.8801 -1.2376  1.3104
  161SAPE  H11Y18025   2.481   2.959   3.723  0.3697 -1.2558 -2.9634
  161SAPE  C31218026   2.270   2.938   3.774 -0.1893 -0.2758  0.5794
  161SAPE  H12X18027   2.291   2.831   3.752 -1.0417 -0.6640  1.5982
  161SAPE  H12Y18028   2.176   2.975   3.729 -0.2366  0.5465  1.3278
  161SAPE  C31318029   2.293   2.963   3.920 -0.0357  0.3851  0.5192
  161SAPE  H13X18030   2.299   3.072   3.939  2.3689  0.5571 -0.8299
  161SAPE  H13Y18031   2.395   2.927   3.944  0.9504 -0.4827 -3.9605
  161SAPE  C31418032   2.192   2.883   4.014  0.6718 -0.7902 -0.0949
  161SAPE  H14X18033   2.191   2.778   3.977 -0.4604  0.1246 -2.9204
  161SAPE  H14Y18034   2.097   2.935   3.988  1.4357  0.2258 -0.9513
  161SAPE  C31518035   2.232   2.911   4.156 -0.5495 -0.0104  0.5951
  161SAPE  H15X18036   2.264   3.015   4.181 -0.8458  0.0949  0.5414
  161SAPE  H15Y18037   2.325   2.853   4.173  0.6674  0.8817 -2.2848
  161SAPE  C31618038   2.117   2.872   4.252 -0.1180 -0.4547 -0.0669
  161SAPE  H16X18039   2.171   2.858   4.348  3.0756  3.4207 -1.0291
  161SAPE  H16Y18040   2.074   2.775   4.220  0.0987 -1.8910  3.5387
  161SAPE  C31718041   2.006   2.984   4.279  0.5351  0.0881  0.2684
  161SAPE  H17X18042   1.940   3.006   4.192 -1.0750  2.6756  1.9745
  161SAPE  H17Y18043   2.056   3.080   4.303  0.6972  0.4730 -1.4400
  161SAPE  C31818044   1.908   2.953   4.394 -0.0215 -0.0494  0.9429
  161SAPE  H18X18045   1.872   2.849   4.380  2.9884 -1.0727  0.0604
  161SAPE  H18Y18046   1.825   3.026   4.389 -1.7677 -1.8847  1.7909
  161SAPE  H18Z18047   1.961   2.958   4.492  2.5938 -1.1340 -0.3251
  162SAPE     N18048   3.901   4.954   2.465  0.5287 -0.4466  0.3028
  162SAPE   HN118049   3.886   5.056   2.479 -0.5435 -0.3475 -1.2586
  162SAPE   HN218050   3.810   4.918   2.430  0.1680  0.1960  0.5731
  162SAPE   HN318051   3.931   4.902   2.550 -1.7023 -1.7352  0.3699
  162SAPE   C1218052   3.999   4.930   2.353 -0.3344  0.5648 -0.4676
  162SAPE  H12A18053   4.100   4.970   2.375  0.9287 -2.1456 -0.9700
  162SAPE  H12B18054   3.964   4.986   2.264  0.3291 -0.0782 -1.1416
  162SAPE   C1118055   4.004   4.780   2.329 -0.5957 -0.3112  0.1000
  162SAPE  H11A18056   4.078   4.748   2.406 -2.0437  0.4523  1.8918
  162SAPE  H11B18057   4.053   4.759   2.232 -2.2996  0.0997 -0.8836
  162SAPE     P18058   3.869   4.556   2.338 -0.3210  0.1858 -0.5057
  162SAPE   O1318059   3.830   4.511   2.204  0.4973 -0.4294 -0.5295
  162SAPE   O1418060   4.001   4.496   2.387 -0.0447 -0.1322  0.0317
  162SAPE   O1218061   3.874   4.713   2.348  0.0623 -0.0143  0.2893
  162SAPE   O1118062   3.764   4.510   2.443 -0.3286 -0.1488 -0.4484
  162SAPE    C118063   3.765   4.546   2.579 -0.3819  0.1459 -0.2837
  162SAPE    HA18064   3.831   4.635   2.593  1.2437 -0.5491 -2.8185
  162SAPE    HB18065   3.664   4.579   2.611 -0.1017  1.2578 -0.4868
  162SAPE    C218066   3.814   4.426   2.662  0.0480 -0.2354  0.5687
  162SAPE    HS18067   3.925   4.420   2.654  0.0708  0.9026 -0.1801
  162SAPE   O2118068   3.751   4.304   2.611 -0.0324 -0.0380 -0.4888
  162SAPE   C2118069   3.828   4.197   2.633  0.2021  0.2412  0.4117
  162SAPE   O2218070   3.936   4.193   2.686 -0.6005  0.3655  0.8278
  162SAPE   C2218071   3.748   4.075   2.581 -0.1595  0.1177 -0.9655
  162SAPE   H2R18072   3.639   4.094   2.592  0.0683  1.0325 -0.1254
  162SAPE   H2S18073   3.780   4.069   2.475  3.0857  1.1865 -0.1855
  162SAPE    C318074   3.770   4.448   2.805  0.2256 -0.6159 -0.1964
  162SAPE    HX18075   3.801   4.359   2.864 -2.0731 -0.2820  1.6741
  162SAPE    HY18076   3.659   4.450   2.797  0.2812  1.3154 -0.9904
  162SAPE   O3118077   3.820   4.573   2.859  1.1087  0.3842 -0.2805
  162SAPE   C3118078   3.899   4.570   2.961  0.1855 -0.1292  0.2319
  162SAPE   O3218079   3.937   4.470   3.018  0.2094  0.1203 -0.5627
  162SAPE   C3218080   3.944   4.707   3.008  0.9550  0.6124 -0.2202
  162SAPE   H2X18081   3.855   4.771   3.027  0.9104  0.2797  0.8018
  162SAPE   H2Y18082   4.008   4.751   2.929 -1.9471  0.3810 -2.8989
  162SAPE   C2318083   3.776   3.933   2.653  0.5157 -0.0996 -0.2135
  162SAPE   H3R18084   3.884   3.907   2.656  0.0988 -1.9556  0.5160
  162SAPE   H3S18085   3.729   3.853   2.591 -0.7168  0.0152  0.5283
  162SAPE   C2418086   3.721   3.920   2.793  0.4349 -0.0413  0.0083
  162SAPE   H4R18087   3.721   3.813   2.825 -0.5733 -0.1605 -0.3669
  162SAPE   H4S18088   3.613   3.943   2.794  0.1658 -0.9698 -2.1011
  162SAPE   C2518089   3.813   3.997   2.890 -0.0093  0.4594 -0.5896
  162SAPE   H5R18090   3.920   3.973   2.887  0.2953  1.7366 -0.3717
  162SAPE   C2618091   3.779   4.090   2.985  0.2361  0.4509  0.0804
  162SAPE   H6R18092   3.866   4.141   3.029  0.8833 -1.0109  0.5522
  162SAPE   C2718093   3.643   4.145   3.021  0.5435 -0.1185 -0.0845
  162SAPE   H7R18094   3.575   4.057   3.018  2.5947 -1.7867 -0.0591
  162SAPE   H7S18095   3.593   4.207   2.943  0.2994 -0.5403 -0.2709
  162SAPE   C2818096   3.636   4.212   3.158  0.2117  0.0707 -0.5822
  162SAPE   H8R18097   3.731   4.252   3.197 -1.2397  1.5419  1.5996
  162SAPE   C2918098   3.531   4.220   3.241 -0.5066 -0.3916  0.5378
  162SAPE   H9R18099   3.541   4.265   3.341  1.4700  0.8116 -0.1476
  162SAPE  C21018100   3.396   4.152   3.225 -0.2900  1.0932  0.0280
  162SAPE  H10R18101   3.356   4.092   3.309  0.6064 -0.6450 -0.7457
  162SAPE  H10S18102   3.396   4.083   3.138  0.4439  0.8467  0.2171
  162SAPE  C21118103   3.300   4.262   3.208  0.4618 -0.5383 -0.0525
  162SAPE  H11R18104   3.285   4.307   3.109  1.5267  1.4823  0.6308
  162SAPE  C21218105   3.221   4.314   3.301 -0.0786  1.2062 -0.6660
  162SAPE  H12R18106   3.163   4.404   3.278 -1.3292  0.7364  0.4805
  162SAPE  C21318107   3.208   4.268   3.446 -0.7008 -0.1119 -0.0548
  162SAPE  H13R18108   3.190   4.348   3.521  0.2591 -0.7038  0.8469
  162SAPE  H13S18109   3.308   4.229   3.476 -0.6334  1.2686  1.6987
  162SAPE  C21418110   3.099   4.167   3.455  0.3886  0.1972  0.0158
  162SAPE  H14R18111   3.084   4.096   3.372  0.9705 -0.4974  0.5062
  162SAPE  C21518112   3.019   4.143   3.561 -1.2531 -0.6570 -0.0683
  162SAPE  H15R18113   2.942   4.066   3.550 -0.5347 -1.4526  0.3702
  162SAPE  C21618114   3.025   4.222   3.694  0.4099  0.9615 -0.1143
  162SAPE  H16R18115   2.924   4.266   3.708  0.1048  0.0196  0.9014
  162SAPE  H16S18116   3.101   4.302   3.702  2.3926 -0.7727 -0.5809
  162SAPE  C21718117   3.024   4.131   3.820 -0.0016  0.2177  0.1242
  162SAPE  H17R18118   3.124   4.083   3.831  0.4358  1.1388  0.3094
  162SAPE  H17S18119   2.935   4.066   3.809 -0.4922  1.0081 -0.7490
  162SAPE  C21818120   3.016   4.217   3.950 -0.1972  0.8806 -0.1536
  162SAPE  H18R18121   2.923   4.274   3.928  0.5056  1.6205 -1.3218
  162SAPE  H18S18122   3.097   4.293   3.947  0.1588  0.4785 -0.7718
  162SAPE  C21918123   2.996   4.143   4.083  0.4469 -0.3725  0.9050
  162SAPE  H19R18124   2.912   4.074   4.064 -0.3202 -0.0389  2.8866
  162SAPE  H19S18125   2.966   4.212   4.164  0.4384  0.0158  0.5742
  162SAPE  C22018126   3.127   4.075   4.137  0.1166 -0.0002  0.6185
  162SAPE  H20R18127   3.186   4.021   4.061  0.4223 -0.7415  1.3644
  162SAPE  H20S18128   3.100   3.999   4.214 -0.8118 -0.1307  0.1718
  162SAPE  H20T18129   3.194   4.146   4.190 -0.3178 -0.0472  1.2474
  162SAPE   C3318130   4.009   4.707   3.144  0.2900  0.5838 -0.1373
  162SAPE   H3X18131   4.053   4.808   3.152 -0.6304  0.9667  0.1540
  162SAPE   H3Y18132   4.099   4.642   3.149  1.0557  1.6685  0.3916
  162SAPE   C3418133   3.907   4.685   3.266  0.3445 -0.3284  0.6266
  162SAPE   H4X18134   3.872   4.580   3.269 -1.6222  0.2982  1.9912
  162SAPE   H4Y18135   3.819   4.751   3.249  0.5211 -0.7762 -2.7567
  162SAPE   C3518136   3.983   4.720   3.398  0.1357 -0.3123 -0.0994
  162SAPE   H5X18137   4.018   4.825   3.393  0.7309 -0.2359  3.4108
  162SAPE   H5Y18138   4.076   4.660   3.408 -0.3168 -1.1955 -0.9840
  162SAPE   C3618139   3.898   4.705   3.523 -0.0076 -0.6260 -0.0319
  162SAPE   H6X18140   3.856   4.603   3.522  0.3791 -0.7898 -1.1660
  162SAPE   H6Y18141   3.810   4.771   3.511 -0.0174 -0.8880 -1.6791
  162SAPE   C3718142   3.972   4.719   3.650 -0.1683  1.0050 -0.0829
  162SAPE   H7X18143   4.007   4.824   3.654  0.1168  1.0103 -2.0164
  162SAPE   H7Y18144   4.057   4.647   3.643 -2.1399 -1.2923 -1.8235
  162SAPE   C3818145   3.884   4.691   3.773  0.0528  0.9532  0.0096
  162SAPE   H8X18146   3.870   4.580   3.771 -1.8199  1.1380  0.7719
  162SAPE   H8Y18147   3.780   4.727   3.763 -1.0214 -1.8746 -0.0961
  162SAPE   C3918148   3.959   4.724   3.903  0.0035 -0.7004 -0.5059
  162SAPE   H9X18149   3.976   4.834   3.903  1.1156 -0.8432  0.6969
  162SAPE   H9Y18150   4.057   4.674   3.915  0.3056  0.3356  2.1502
  162SAPE  C31018151   3.887   4.693   4.030 -0.4590 -0.1129 -0.1007
  162SAPE  H10X18152   3.894   4.582   4.041 -0.6337  0.0284  1.8686
  162SAPE  H10Y18153   3.779   4.715   4.019  0.1317  1.8099 -3.4927
  162SAPE  C31118154   3.949   4.761   4.158 -0.0441  0.1554 -0.2108
  162SAPE  H11X18155   3.892   4.726   4.247 -0.9096  3.0878  0.5015
  162SAPE  H11Y18156   3.935   4.870   4.147 -2.2572 -0.0924 -0.4456
  162SAPE  C31218157   4.095   4.708   4.175  0.7721 -0.4564  0.8698
  162SAPE  H12X18158   4.156   4.755   4.095 -0.0080  1.7368  1.5027
  162SAPE  H12Y18159   4.111   4.599   4.160 -1.4845 -0.9087  1.4189
  162SAPE  C31318160   4.155   4.745   4.319 -0.1310  0.3779  0.6090
  162SAPE  H13X18161   4.162   4.856   4.317 -0.5020  0.5495 -4.5893
  162SAPE  H13Y18162   4.264   4.721   4.318 -0.0364  0.7188 -1.2308
  162SAPE  C31418163   4.093   4.676   4.431 -0.0204 -0.1624  0.1672
  162SAPE  H14X18164   4.142   4.577   4.434  2.0657  0.8267  0.9097
  162SAPE  H14Y18165   3.985   4.666   4.408  0.2004 -2.5210 -0.0358
  162SAPE  C31518166   4.126   4.736   4.568 -0.4081 -0.3545 -0.9330
  162SAPE  H15X18167   4.098   4.843   4.571  2.4420  0.4290  0.2004
  162SAPE  H15Y18168   4.230   4.738   4.606 -1.1027  1.3833  1.0231
  162SAPE  C31618169   4.055   4.670   4.678 -0.2557  0.7722 -0.1499
  162SAPE  H16X18170   4.084   4.564   4.697 -0.7397  0.8179  0.9572
  162SAPE  H16Y18171   3.945   4.686   4.671 -0.6313 -1.5350 -0.1986
  162SAPE  C31718172   4.093   4.742   4.811  0.4314 -0.7330 -0.0799
  162SAPE  H17X18173   4.077   4.852   4.805  1.1848 -0.6244 -0.2267
  162SAPE  H17Y18174   4.204   4.741   4.815  0.4796  0.8267 -0.2453
  162SAPE  C31818175   4.042   4.671   4.937 -0.1914 -0.0885 -0.1815
  162SAPE  H18X18176   3.962   4.596   4.919  0.0312 -0.3364 -0.1353
  162SAPE  H18Y18177   3.987   4.751   4.991  0.7252  1.5381 -1.5499
  162SAPE  H18Z18178   4.114   4.623   5.006 -0.7991 -2.1387 -0.8835
  163SAPE     N18179   2.476   2.905   2.331  0.1476 -0.2019 -0.4097
  163SAPE   HN118180   2.458   3.001   2.294 -0.0228 -0.8537 -2.0681
  163SAPE   HN218181   2.440   2.913   2.428 -0.6052 -1.4633 -0.5629
  163SAPE   HN318182   2.578   2.891   2.335  0.3659  0.3830 -2.4831
  163SAPE   C1218183   2.403   2.808   2.247 -0.6828  0.9821  0.1367
  163SAPE  H12A18184   2.476   2.761   2.178 -1.2149  0.5496 -0.1427
  163SAPE  H12B18185   2.328   2.867   2.190 -1.3827  3.6386  3.4795
  163SAPE   C1118186   2.335   2.706   2.333  0.7370 -0.0667 -0.1385
  163SAPE  H11A18187   2.407   2.644   2.391  1.8175  1.3011  0.0410
  163SAPE  H11B18188   2.292   2.624   2.271  2.1778 -2.1452  1.4654
  163SAPE     P18189   2.078   2.787   2.373 -0.0886  0.0477 -0.0603
  163SAPE   O1318190   2.006   2.871   2.472 -0.1436 -0.2323 -0.7627
  163SAPE   O1418191   2.067   2.828   2.228  0.3140  0.3158  0.3999
  163SAPE   O1218192   2.236   2.771   2.407  0.1893 -0.4570 -0.5613
  163SAPE   O1118193   2.025   2.641   2.391  0.3742  0.2107  0.7084
  163SAPE    C118194   2.078   2.567   2.499  0.3194 -0.3469 -0.1844
  163SAPE    HA18195   2.189   2.570   2.505  0.3454  1.5898 -0.8695
  163SAPE    HB18196   2.055   2.617   2.595  2.2972 -1.4655  0.9276
  163SAPE    C218197   2.018   2.421   2.501  0.2878 -0.4616 -0.6512
  163SAPE    HS18198   1.911   2.438   2.478  0.6641  3.5740 -0.1965
  163SAPE   O2118199   2.028   2.365   2.629  0.0618 -0.1661 -0.1553
  163SAPE   C2118200   1.922   2.301   2.674  0.0492  0.2998 -0.1563
  163SAPE   O2218201   1.821   2.288   2.607 -0.3433  0.4177  0.1795
  163SAPE   C2218202   1.948   2.248   2.816  0.0207  0.0395  0.5128
  163SAPE   H2R18203   2.024   2.168   2.824 -0.4379 -0.5918 -1.1320
  163SAPE   H2S18204   1.958   2.343   2.874  0.0892  1.2362 -1.3953
  163SAPE    C318205   2.067   2.331   2.394  0.2041  0.6230 -0.0588
  163SAPE    HX18206   2.170   2.360   2.364 -0.1632 -0.6791 -3.0248
  163SAPE    HY18207   2.032   2.357   2.292  1.2910  2.0086 -0.1088
  163SAPE   O3118208   2.054   2.187   2.422 -0.8971  0.2945  0.3815
  163SAPE   C3118209   2.098   2.104   2.327 -0.3869  0.3229 -0.3584
  163SAPE   O3218210   2.130   2.143   2.217  0.1042 -0.4309  0.0764
  163SAPE   C3218211   2.110   1.956   2.379 -0.4436  0.1011 -0.6435
  163SAPE   H2X18212   2.199   1.922   2.321  2.9428  2.1449  2.8569
  163SAPE   H2Y18213   2.023   1.892   2.353  0.4832 -1.2513 -0.5628
  163SAPE   C2318214   1.820   2.182   2.876 -0.1232 -0.3010  0.2403
  163SAPE   H3R18215   1.797   2.104   2.800  0.5021 -0.2691  0.0152
  163SAPE   H3S18216   1.735   2.253   2.875 -1.8829 -2.2926 -1.2607
  163SAPE   C2418217   1.833   2.132   3.017 -0.7422  1.2178 -0.9752
  163SAPE   H4R18218   1.908   2.050   3.015  1.4231  3.0510  0.5505
  163SAPE   H4S18219   1.733   2.094   3.048 -1.5466  3.3209 -0.8207
  163SAPE   C2518220   1.874   2.236   3.115  0.2112  0.5640  0.1519
  163SAPE   H5R18221   1.939   2.313   3.070 -0.8019  0.4725 -1.5445
  163SAPE   C2618222   1.815   2.257   3.237 -0.5703  0.1164 -0.4728
  163SAPE   H6R18223   1.858   2.339   3.295  0.3758  0.8085 -2.0831
  163SAPE   C2718224   1.720   2.169   3.306  0.1714 -0.1117 -1.2530
  163SAPE   H7R18225   1.777   2.096   3.366 -1.8081 -1.2273 -0.6431
  163SAPE   H7S18226   1.653   2.105   3.244 -1.8986 -0.9826  1.6701
  163SAPE   C2818227   1.631   2.251   3.404  0.2997  0.0372 -0.4815
  163SAPE   H8R18228   1.586   2.340   3.358  1.7331  0.8077 -0.4692
  163SAPE   C2918229   1.625   2.236   3.542 -0.8495  0.0514 -0.4148
  163SAPE   H9R18230   1.560   2.295   3.607 -2.6385 -2.0784 -0.1604
  163SAPE  C21018231   1.698   2.129   3.620  0.0036  0.0668  0.0427
  163SAPE  H10R18232   1.802   2.116   3.586  1.0592  1.7298  2.3290
  163SAPE  H10S18233   1.635   2.038   3.609 -0.3449 -0.0619  2.5636
  163SAPE  C21118234   1.712   2.157   3.767 -0.4309 -0.4270 -0.3985
  163SAPE  H11R18235   1.812   2.197   3.787 -1.4159  2.2493 -0.3147
  163SAPE  C21218236   1.625   2.147   3.871  0.4808 -0.6112  0.5681
  163SAPE  H12R18237   1.667   2.159   3.972  2.2665 -2.1572  0.0866
  163SAPE  C21318238   1.479   2.102   3.864 -0.7017 -0.1908  0.1662
  163SAPE  H13R18239   1.469   1.992   3.880  0.9572 -0.9693 -3.2423
  163SAPE  H13S18240   1.433   2.116   3.764 -0.6433  1.4345  0.3388
  163SAPE  C21418241   1.396   2.160   3.971  0.0755 -0.3762 -0.1425
  163SAPE  H14R18242   1.322   2.230   3.930 -1.4884 -3.2908 -2.7478
  163SAPE  C21518243   1.394   2.127   4.102 -0.1142  0.2785  0.0046
  163SAPE  H15R18244   1.339   2.193   4.171  1.8138 -1.7475  3.8209
  163SAPE  C21618245   1.483   2.029   4.174 -0.1926 -0.3362  0.0986
  163SAPE  H16R18246   1.578   2.008   4.121  0.0050 -0.6495  0.5646
  163SAPE  H16S18247   1.429   1.932   4.179 -0.0983 -0.4114 -0.3734
  163SAPE  C21718248   1.509   2.075   4.322 -0.3691 -0.0039 -0.2540
  163SAPE  H17R18249   1.563   1.991   4.371  0.7697  0.9458  0.1536
  163SAPE  H17S18250   1.418   2.100   4.380  0.2466  1.5301  0.1051
  163SAPE  C21818251   1.609   2.195   4.330 -0.8254  0.1830 -0.7264
  163SAPE  H18R18252   1.562   2.292   4.304 -1.5570 -0.0377 -0.2698
  163SAPE  H18S18253   1.683   2.175   4.250 -2.3726 -0.6753 -2.0078
  163SAPE  C21918254   1.682   2.206   4.462  0.1200  0.0357  0.1088
  163SAPE  H19R18255   1.611   2.196   4.547 -2.4772  0.3963 -1.8848
  163SAPE  H19S18256   1.739   2.300   4.473 -0.9046  1.0288 -2.3695
  163SAPE  C22018257   1.767   2.083   4.482 -0.4111  0.4763  0.2859
  163SAPE  H20R18258   1.694   1.999   4.492  2.6408 -2.7396 -2.1322
  163SAPE  H20S18259   1.833   2.094   4.570  0.7365 -2.3890 -0.1110
  163SAPE  H20T18260   1.841   2.055   4.404 -0.0421 -0.2867  0.8949
  163SAPE   C3318261   2.152   1.947   2.532  0.0870  0.6918  0.2030
  163SAPE   H3X18262   2.091   2.015   2.594 -1.2052  0.7584 -1.0873
  163SAPE   H3Y18263   2.258   1.977   2.546  0.8077 -0.8868 -1.4338
  163SAPE   C3418264   2.119   1.805   2.580 -0.5485 -0.0729 -0.6033
  163SAPE   H4X18265   2.162   1.731   2.509  0.8653 -0.4407  0.5913
  163SAPE   H4Y18266   2.010   1.785   2.575 -0.4891 -0.2639 -1.2413
  163SAPE   C3518267   2.180   1.760   2.711 -0.3896  0.1757 -0.1720
  163SAPE   H5X18268   2.287   1.792   2.704 -0.0994 -0.6631  0.2223
  163SAPE   H5Y18269   2.168   1.650   2.720  0.3616  0.0688 -0.3649
  163SAPE   C3618270   2.105   1.807   2.839  0.5971  0.0541  0.0003
  163SAPE   H6X18271   2.002   1.768   2.826  0.9485 -0.7975 -0.3122
  163SAPE   H6Y18272   2.117   1.917   2.849  0.9798 -0.0699  1.0753
  163SAPE   C3718273   2.156   1.745   2.968  0.1282  1.0075 -0.4107
  163SAPE   H7X18274   2.263   1.770   2.984  0.1408  0.9558 -0.4135
  163SAPE   H7Y18275   2.155   1.634   2.968  3.0287  0.8820  1.3834
  163SAPE   C3818276   2.073   1.785   3.089  0.6097  0.6104 -0.2700
  163SAPE   H8X18277   1.972   1.742   3.070  1.7000 -2.2558 -0.1013
  163SAPE   H8Y18278   2.060   1.891   3.120 -3.0666 -0.0073  0.8200
  163SAPE   C3918279   2.123   1.730   3.221 -0.9044  0.0104  0.4797
  163SAPE   H9X18280   2.224   1.772   3.242 -0.9109  0.3269 -0.0981
  163SAPE   H9Y18281   2.134   1.620   3.219 -1.2857 -0.0171 -0.6782
  163SAPE  C31018282   2.033   1.760   3.348 -0.2124  0.3990 -0.2163
  163SAPE  H10X18283   1.933   1.713   3.348 -0.4681  0.7907  2.5493
  163SAPE  H10Y18284   2.028   1.871   3.352  3.2204  0.6789  3.4063
  163SAPE  C31118285   2.105   1.718   3.484  0.0981 -0.5877  0.2992
  163SAPE  H11X18286   2.158   1.811   3.514  0.9555 -0.7133 -0.7506
  163SAPE  H11Y18287   2.171   1.630   3.468  2.4225  1.2332 -0.7546
  163SAPE  C31218288   2.020   1.681   3.600  0.5599  0.1764 -0.6058
  163SAPE  H12X18289   2.100   1.671   3.676  0.9844  0.3840 -1.0161
  163SAPE  H12Y18290   1.982   1.579   3.582  1.8544 -0.5544  0.6006
  163SAPE  C31318291   1.910   1.783   3.644  0.0192 -0.5946  0.1102
  163SAPE  H13X18292   1.837   1.788   3.561 -0.3103  2.0762  0.4841
  163SAPE  H13Y18293   1.956   1.884   3.637 -0.1883 -0.5259 -0.2612
  163SAPE  C31418294   1.860   1.768   3.789 -0.1178  0.0698  0.5618
  163SAPE  H14X18295   1.817   1.667   3.810 -0.2438 -0.3829 -1.5897
  163SAPE  H14Y18296   1.782   1.847   3.787 -0.6515 -0.4638 -0.3364
  163SAPE  C31518297   1.948   1.799   3.916 -0.1607  0.0702  0.7069
  163SAPE  H15X18298   1.973   1.907   3.913 -1.9520  0.5180  0.5595
  163SAPE  H15Y18299   2.038   1.734   3.915 -1.0711 -1.3208  2.3888
  163SAPE  C31618300   1.876   1.770   4.047 -0.2935 -0.8482 -0.6813
  163SAPE  H16X18301   1.880   1.659   4.056  2.0003 -0.6607  1.7381
  163SAPE  H16Y18302   1.777   1.820   4.044 -0.4556 -0.9726  1.1976
  163SAPE  C31718303   1.959   1.815   4.174 -0.4929  0.6951  0.5872
  163SAPE  H17X18304   1.984   1.923   4.170 -3.0414  1.5137  3.3208
  163SAPE  H17Y18305   2.056   1.762   4.158  0.5987  3.0644 -1.1437
  163SAPE  C31818306   1.895   1.789   4.309  0.1100  0.0927  0.2616
  163SAPE  H18X18307   1.785   1.801   4.307  0.1332  0.2243 -0.9717
  163SAPE  H18Y18308   1.947   1.860   4.376  0.2925  1.3267 -1.1312
  163SAPE  H18Z18309   1.916   1.687   4.349  0.9909  0.4251  0.6747
  164SAPE     N18310   0.711   4.432   2.138 -0.4543 -0.5407  0.5875
  164SAPE   HN118311   0.805   4.420   2.182 -0.4376 -0.3078  0.6173
  164SAPE   HN218312   0.709   4.513   2.073  0.9743 -0.6146  0.4165
  164SAPE   HN318313   0.639   4.448   2.212 -1.0412  1.1487 -0.2923
  164SAPE   C1218314   0.659   4.307   2.071  0.1881 -0.5742 -0.0164
  164SAPE  H12A18315   0.689   4.224   2.138  0.8500 -1.8835 -1.8526
  164SAPE  H12B18316   0.701   4.303   1.968 -0.0470  2.9044 -0.3697
  164SAPE   C1118317   0.507   4.301   2.059 -0.5026 -0.7627 -0.0612
  164SAPE  H11A18318   0.469   4.205   2.018 -0.0471 -0.4376 -1.2519
  164SAPE  H11B18319   0.484   4.378   1.982 -3.8920 -0.1985  1.3291
  164SAPE     P18320   0.305   4.393   2.193 -0.0772  0.3961 -0.3027
  164SAPE   O1318321   0.314   4.545   2.175  0.5600  0.8822 -0.2033
  164SAPE   O1418322   0.221   4.327   2.088  0.2920  0.2197  0.2725
  164SAPE   O1218323   0.454   4.338   2.194 -0.1180 -0.6557  0.3364
  164SAPE   O1118324   0.262   4.369   2.340 -0.4775  0.2940 -0.4951
  164SAPE    C118325   0.346   4.312   2.440  0.1843 -0.2243  0.3237
  164SAPE    HA18326   0.376   4.208   2.415 -1.0822 -0.4383 -0.3829
  164SAPE    HB18327   0.439   4.372   2.447 -0.7219  1.2778 -0.1332
  164SAPE    C218328   0.282   4.317   2.580  0.4310 -0.0235  0.0939
  164SAPE    HS18329   0.362   4.277   2.646 -0.3764 -1.4005  0.2686
  164SAPE   O2118330   0.159   4.237   2.593  0.2434  0.2887  0.0462
  164SAPE   C2118331   0.179   4.108   2.605 -0.5565 -0.8192 -0.0157
  164SAPE   O2218332   0.287   4.053   2.595  0.4753  0.0529  0.3079
  164SAPE   C2218333   0.050   4.041   2.640  0.0559  0.4593  0.9684
  164SAPE   H2R18334  -0.023   4.123   2.627 -0.1665 -0.1815 -3.0844
  164SAPE   H2S18335   0.031   3.965   2.560  1.0196  1.2741 -0.0663
  164SAPE    C318336   0.265   4.463   2.634 -0.2820 -0.2354  0.2957
  164SAPE    HX18337   0.217   4.525   2.556 -0.0243  0.6528  0.8229
  164SAPE    HY18338   0.372   4.494   2.642 -0.9122  1.8513  1.3423
  164SAPE   O3118339   0.202   4.465   2.764  0.2630 -0.0501  1.0331
  164SAPE   C3118340   0.123   4.567   2.784  0.1535 -0.5122  0.1960
  164SAPE   O3218341   0.115   4.671   2.721 -0.4918  0.0272  0.4942
  164SAPE   C3218342   0.056   4.540   2.920 -0.3660 -0.0508  0.4431
  164SAPE   H2X18343   0.121   4.591   2.993 -0.2658 -0.5809  0.7295
  164SAPE   H2Y18344   0.060   4.434   2.955 -0.7709 -0.3668 -0.4133
  164SAPE   C2318345   0.046   3.974   2.778 -0.2589  0.1044 -0.8364
  164SAPE   H3R18346   0.117   3.889   2.787 -0.7812 -0.2426  0.2147
  164SAPE   H3S18347  -0.055   3.929   2.784 -0.1610  0.0142  0.2825
  164SAPE   C2418348   0.064   4.071   2.899  0.1002  0.1149  0.2472
  164SAPE   H4R18349   0.163   4.121   2.893  0.5818 -0.6000  1.6927
  164SAPE   H4S18350   0.077   4.008   2.990 -0.2312  0.6834  0.6926
  164SAPE   C2518351  -0.052   4.170   2.907  0.1995  0.3152  0.1388
  164SAPE   H5R18352  -0.050   4.263   2.847  0.1539 -0.9048 -1.8365
  164SAPE   C2618353  -0.157   4.151   2.985  0.3602  0.4114 -0.9369
  164SAPE   H6R18354  -0.237   4.226   2.996  1.9708  1.8281  2.9188
  164SAPE   C2718355  -0.164   4.038   3.088 -0.5661 -0.0168 -0.5602
  164SAPE   H7R18356  -0.114   3.952   3.038  2.5625  0.9808  0.6196
  164SAPE   H7S18357  -0.269   4.005   3.101 -1.0858  1.2436 -1.3303
  164SAPE   C2818358  -0.104   4.065   3.227 -0.1101 -0.9726  0.1380
  164SAPE   H8R18359   0.001   4.038   3.244  0.2453 -1.1961 -2.1139
  164SAPE   C2918360  -0.166   4.138   3.330 -0.3479  0.1820  0.6344
  164SAPE   H9R18361  -0.103   4.159   3.418 -0.2739  2.1533  0.1579
  164SAPE  C21018362  -0.316   4.177   3.334 -0.7623  0.4243 -0.7025
  164SAPE  H10R18363  -0.370   4.082   3.353  1.2600 -1.2580 -2.7088
  164SAPE  H10S18364  -0.348   4.214   3.234  1.7067  2.6767 -0.7594
  164SAPE  C21118365  -0.351   4.292   3.423 -0.4914  0.0024 -0.5958
  164SAPE  H11R18366  -0.373   4.387   3.373 -0.2606  1.3008  1.6151
  164SAPE  C21218367  -0.360   4.284   3.554  0.7008 -0.0995  0.5242
  164SAPE  H12R18368  -0.408   4.367   3.608 -3.5108 -2.1062  0.2926
  164SAPE  C21318369  -0.347   4.170   3.650 -0.0122  0.7127 -0.0762
  164SAPE  H13R18370  -0.322   4.078   3.592  0.7618  0.7994  0.1153
  164SAPE  H13S18371  -0.446   4.141   3.693  0.9172  1.1898  2.4991
  164SAPE  C21418372  -0.246   4.202   3.758 -0.0794  0.5711 -0.1378
  164SAPE  H14R18373  -0.140   4.216   3.731 -0.3483  2.5801 -0.2974
  164SAPE  C21518374  -0.280   4.227   3.888  0.0137  0.3827  0.3850
  164SAPE  H15R18375  -0.200   4.261   3.955  1.4970  0.2615 -1.2325
  164SAPE  C21618376  -0.409   4.249   3.945 -0.5431  0.2856 -0.4898
  164SAPE  H16R18377  -0.489   4.221   3.873  1.1083  1.3847 -2.8850
  164SAPE  H16S18378  -0.430   4.357   3.953 -0.7632  0.1943  0.2884
  164SAPE  C21718379  -0.424   4.183   4.082  0.0277  0.0486 -0.1217
  164SAPE  H17R18380  -0.386   4.080   4.067  0.4548  0.4600 -2.0628
  164SAPE  H17S18381  -0.531   4.161   4.103 -0.2302  0.8602 -0.5377
  164SAPE  C21818382  -0.367   4.261   4.193  0.0791 -0.3808  0.5496
  164SAPE  H18R18383  -0.415   4.361   4.197 -1.0154 -0.8703  0.0127
  164SAPE  H18S18384  -0.261   4.276   4.164 -0.5302  4.2929 -0.0573
  164SAPE  C21918385  -0.375   4.191   4.327 -0.0634 -0.2753 -0.3444
  164SAPE  H19R18386  -0.337   4.087   4.330 -1.4886 -0.7973  1.6414
  164SAPE  H19S18387  -0.481   4.190   4.360 -0.2138  1.3403 -0.7126
  164SAPE  C22018388  -0.292   4.282   4.424 -0.4295 -0.4340  0.3671
  164SAPE  H20R18389  -0.260   4.237   4.520  5.7120 -1.3721 -1.7019
  164SAPE  H20S18390  -0.362   4.365   4.448 -0.9248 -1.4357  2.6284
  164SAPE  H20T18391  -0.193   4.309   4.382 -0.5385  0.2704  0.5579
  164SAPE   C3318392  -0.079   4.603   2.951  0.3949 -0.2773 -0.1065
  164SAPE   H3X18393  -0.155   4.587   2.871 -1.1501  0.0612  1.2499
  164SAPE   H3Y18394  -0.058   4.712   2.953  2.7999 -0.6322 -1.6577
  164SAPE   C3418395  -0.128   4.561   3.091 -0.1189  0.8206 -0.2038
  164SAPE   H4X18396  -0.163   4.456   3.083  0.3799  0.7379 -1.4453
  164SAPE   H4Y18397  -0.211   4.626   3.127 -0.4932  0.3737 -0.2450
  164SAPE   C3518398  -0.018   4.549   3.198  0.0654  0.4852 -0.2915
  164SAPE   H5X18399   0.044   4.641   3.209  1.2249 -0.1632 -1.2503
  164SAPE   H5Y18400   0.050   4.464   3.180 -0.3368  0.0819  0.0751
  164SAPE   C3618401  -0.087   4.542   3.335  0.5615  0.2443 -0.4843
  164SAPE   H6X18402  -0.140   4.445   3.346  2.6410 -1.2233 -2.5387
  164SAPE   H6Y18403  -0.155   4.628   3.352 -0.0546 -0.7306  2.5713
  164SAPE   C3718404   0.005   4.549   3.457 -0.2290 -0.6583  0.2901
  164SAPE   H7X18405   0.037   4.655   3.463 -1.9928  0.0981 -1.9769
  164SAPE   H7Y18406   0.093   4.482   3.444  2.0102  1.9554  1.0803
  164SAPE   C3818407  -0.066   4.512   3.589  0.3445  0.0697  0.4460
  164SAPE   H8X18408  -0.085   4.403   3.603 -2.1817 -0.2067 -3.3938
  164SAPE   H8Y18409  -0.168   4.555   3.586  0.0888 -0.5635 -0.2774
  164SAPE   C3918410   0.009   4.566   3.712 -0.5772 -0.4630  0.0223
  164SAPE   H9X18411   0.013   4.676   3.697  0.5452 -0.5644 -0.5296
  164SAPE   H9Y18412   0.113   4.529   3.700  0.5482  1.1280  3.3541
  164SAPE  C31018413  -0.058   4.527   3.848  0.2997 -0.3477  0.4065
  164SAPE  H10X18414  -0.073   4.417   3.849 -0.7777 -0.2064  1.4089
  164SAPE  H10Y18415  -0.159   4.571   3.833  0.9819  0.5112 -2.3478
  164SAPE  C31118416   0.011   4.587   3.973  0.0384  0.4517  0.3540
  164SAPE  H11X18417   0.004   4.696   3.950  3.1024  0.5370 -0.5927
  164SAPE  H11Y18418   0.116   4.554   3.969  0.1772  0.9582 -0.6185
  164SAPE  C31218419  -0.053   4.546   4.107 -0.6822  0.1720 -0.5386
  164SAPE  H12X18420  -0.041   4.437   4.127  0.7550  0.8230  3.0592
  164SAPE  H12Y18421  -0.163   4.562   4.107 -0.6527  0.4105  0.3287
  164SAPE  C31318422   0.010   4.613   4.237  0.5473  0.3426  0.0881
  164SAPE  H13X18423  -0.000   4.723   4.244 -0.9013  0.2456 -0.0688
  164SAPE  H13Y18424   0.120   4.598   4.231  0.9934  2.4537  1.9208
  164SAPE  C31418425  -0.039   4.539   4.367  0.0245 -0.5258 -0.2858
  164SAPE  H14X18426  -0.024   4.430   4.349  1.2419 -0.0810 -2.2356
  164SAPE  H14Y18427  -0.149   4.552   4.372 -0.1535 -1.8483 -0.2144
  164SAPE  C31518428   0.040   4.580   4.497 -0.1001  1.5374 -0.3906
  164SAPE  H15X18429  -0.028   4.547   4.578 -2.0241 -0.3096 -2.6139
  164SAPE  H15Y18430   0.050   4.691   4.507  0.0555  1.6546 -1.6866
  164SAPE  C31618431   0.177   4.519   4.504 -0.5025 -0.2821 -0.4918
  164SAPE  H16X18432   0.228   4.567   4.418 -1.9372  1.5504 -0.3903
  164SAPE  H16Y18433   0.158   4.413   4.477  1.2865 -1.1846  1.4706
  164SAPE  C31718434   0.262   4.534   4.638  0.1727 -0.1534  0.2230
  164SAPE  H17X18435   0.300   4.638   4.643  0.0809 -0.1223  0.2858
  164SAPE  H17Y18436   0.356   4.479   4.616 -0.6036 -0.3448 -3.0403
  164SAPE  C31818437   0.199   4.499   4.770  0.6006  0.2949 -0.2075
  164SAPE  H18X18438   0.119   4.573   4.787  1.4258  0.9285  1.1242
  164SAPE  H18Y18439   0.255   4.515   4.865 -2.5741  1.4950  1.6086
  164SAPE  H18Z18440   0.158   4.396   4.766 -0.8204  0.8750 -1.0910
  165SAPE     N18441   6.832   5.431   2.335  0.4810 -0.2269  0.3991
  165SAPE   HN118442   6.781   5.343   2.314  0.9930 -0.4123 -0.1094
  165SAPE   HN218443   6.910   5.428   2.266 -0.6198  0.3694 -0.9233
  165SAPE   HN318444   6.878   5.419   2.428  0.9799  1.2209  0.3564
  165SAPE   C1218445   6.781   5.573   2.334  0.2313 -1.2458 -0.1068
  165SAPE  H12A18446   6.860   5.644   2.366 -2.6979  3.6494 -2.4640
  165SAPE  H12B18447   6.698   5.591   2.405  0.4927 -0.7895  0.0890
  165SAPE   C1118448   6.727   5.609   2.192  0.1395 -0.1797 -0.0662
  165SAPE  H11A18449   6.813   5.634   2.127 -0.7939 -0.9789 -1.6838
  165SAPE  H11B18450   6.675   5.704   2.212  0.0169 -0.4778  1.0877
  165SAPE     P18451   6.481   5.508   2.150  0.2314 -0.1361  0.2055
  165SAPE   O1318452   6.423   5.627   2.082 -0.0930 -0.5830  0.5566
  165SAPE   O1418453   6.423   5.378   2.106  0.0527 -0.5435 -0.4216
  165SAPE   O1218454   6.643   5.505   2.129  0.2116  0.2642 -0.2893
  165SAPE   O1118455   6.462   5.531   2.303  0.1991  0.1265 -0.3956
  165SAPE    C118456   6.465   5.414   2.384 -0.0696  0.4626  0.1235
  165SAPE    HA18457   6.492   5.323   2.327 -0.8673  0.3371 -0.0625
  165SAPE    HB18458   6.530   5.426   2.474 -0.7091  1.0819  0.5181
  165SAPE    C218459   6.332   5.374   2.456  0.7951 -0.4066 -0.7869
  165SAPE    HS18460   6.243   5.359   2.391 -0.4553  1.1708  0.4906
  165SAPE   O2118461   6.297   5.477   2.556 -0.2443 -0.0648  0.8898
  165SAPE   C2118462   6.253   5.589   2.502  0.3657  0.0601 -1.1132
  165SAPE   O2218463   6.227   5.613   2.388  0.2047 -0.1866  0.3421
  165SAPE   C2218464   6.246   5.687   2.620 -0.1737 -0.2965 -0.4311
  165SAPE   H2R18465   6.228   5.791   2.586  0.1702  0.0036  0.2900
  165SAPE   H2S18466   6.161   5.653   2.683  1.8391 -0.5505  2.3059
  165SAPE    C318467   6.339   5.234   2.536  0.1233  0.9102 -0.0669
  165SAPE    HX18468   6.332   5.147   2.467  0.7504 -0.2044  1.2482
  165SAPE    HY18469   6.243   5.242   2.591 -0.9009  2.4179 -1.9046
  165SAPE   O3118470   6.458   5.230   2.614 -0.2345 -0.5294 -0.3102
  165SAPE   C3118471   6.455   5.255   2.738  0.4408  0.0878 -0.6314
  165SAPE   O3218472   6.359   5.285   2.806 -0.0262 -0.6925  0.1283
  165SAPE   C3218473   6.597   5.252   2.778 -0.5347  0.1565  0.1783
  165SAPE   H2X18474   6.653   5.318   2.709 -3.3251 -0.3236 -2.7743
  165SAPE   H2Y18475   6.637   5.150   2.756  1.0921  0.9963 -0.9065
  165SAPE   C2318476   6.373   5.674   2.703 -0.5478  0.0519 -0.5467
  165SAPE   H3R18477   6.460   5.677   2.634 -1.0754  1.6718 -1.1704
  165SAPE   H3S18478   6.369   5.577   2.758 -0.9733  0.8917  0.9478
  165SAPE   C2418479   6.394   5.778   2.819  0.3158  0.1051 -0.4290
  165SAPE   H4R18480   6.481   5.755   2.883 -0.1694 -1.3176 -0.2470
  165SAPE   H4S18481   6.296   5.774   2.872 -0.6695  1.6785 -2.0101
  165SAPE   C2518482   6.416   5.919   2.753  0.2041  0.0764 -0.6941
  165SAPE   H5R18483   6.372   5.931   2.653 -2.7495  1.9488  0.6868
  165SAPE   C2618484   6.493   6.015   2.805 -0.6340  0.6293  0.5661
  165SAPE   H6R18485   6.483   6.112   2.753 -3.5448 -0.0792 -0.3537
  165SAPE   C2718486   6.569   6.019   2.934  0.4932 -0.2242  0.1622
  165SAPE   H7R18487   6.546   5.930   2.996  0.5066 -1.3065 -1.3432
  165SAPE   H7S18488   6.521   6.102   2.991  0.3023  1.1637 -1.9055
  165SAPE   C2818489   6.707   6.054   2.904 -0.4356 -0.4040 -0.1834
  165SAPE   H8R18490   6.737   6.110   2.814  1.5193 -0.1534  0.5689
  165SAPE   C2918491   6.814   6.007   2.965 -0.7135 -0.4594 -0.0358
  165SAPE   H9R18492   6.905   6.054   2.925  0.2108 -2.3461 -0.2966
  165SAPE  C21018493   6.835   5.919   3.082  0.1887 -0.2153  0.0462
  165SAPE  H10R18494   6.880   5.821   3.053  0.1191  0.1641 -1.3831
  165SAPE  H10S18495   6.744   5.895   3.142 -1.5353  0.0289 -2.3205
  165SAPE  C21118496   6.937   5.969   3.183 -0.1753 -0.6800  0.2956
  165SAPE  H11R18497   7.041   5.940   3.162  1.0498  2.5967  1.2100
  165SAPE  C21218498   6.919   6.048   3.286  0.2202  0.1794  0.2105
  165SAPE  H12R18499   7.005   6.065   3.353 -0.8229  2.0493  1.1626
  165SAPE  C21318500   6.786   6.102   3.336  0.0109 -0.0779 -0.3231
  165SAPE  H13R18501   6.752   6.025   3.409 -1.1151  0.5933 -0.1178
  165SAPE  H13S18502   6.716   6.122   3.253  0.4258  1.7861 -0.2658
  165SAPE  C21418503   6.805   6.234   3.401  0.3261  0.4820 -0.3937
  165SAPE  H14R18504   6.847   6.313   3.337 -0.9254  1.3976 -0.1373
  165SAPE  C21518505   6.779   6.271   3.528 -0.4947  0.3662 -0.0552
  165SAPE  H15R18506   6.813   6.367   3.569  0.2954  0.1561 -0.2185
  165SAPE  C21618507   6.719   6.187   3.639 -0.2342  0.3524 -0.1283
  165SAPE  H16R18508   6.650   6.111   3.597  0.4021  1.7072 -4.1347
  165SAPE  H16S18509   6.658   6.245   3.711 -1.3783  0.7443 -1.3623
  165SAPE  C21718510   6.836   6.115   3.712 -0.1317  0.3908 -0.1883
  165SAPE  H17R18511   6.931   6.101   3.656  0.6958 -0.7155  1.3993
  165SAPE  H17S18512   6.799   6.021   3.758 -1.6336  0.4386 -1.2206
  165SAPE  C21818513   6.889   6.193   3.838  0.2515 -0.4218 -0.2238
  165SAPE  H18R18514   6.914   6.294   3.797  4.5472 -1.8022 -1.5447
  165SAPE  H18S18515   6.981   6.145   3.877 -0.6345 -2.4154 -0.5121
  165SAPE  C21918516   6.789   6.201   3.959 -0.4116  0.2833  0.0518
  165SAPE  H19R18517   6.782   6.103   4.010 -1.1538  0.3141  0.0123
  165SAPE  H19S18518   6.692   6.228   3.912 -0.9580 -2.1934 -0.3636
  165SAPE  C22018519   6.832   6.310   4.061 -0.5484  0.1410  0.1987
  165SAPE  H20R18520   6.907   6.262   4.126  0.5753  0.7697 -0.5859
  165SAPE  H20S18521   6.742   6.336   4.121  0.3375 -1.8078  2.5285
  165SAPE  H20T18522   6.876   6.396   4.006 -3.1743 -0.3165 -2.9354
  165SAPE   C3318523   6.621   5.280   2.930  0.0250  0.0085 -0.2310
  165SAPE   H3X18524   6.721   5.239   2.956 -0.3444  0.1547  1.5446
  165SAPE   H3Y18525   6.549   5.216   2.986  0.7396  0.1615  0.8711
  165SAPE   C3418526   6.607   5.429   2.967 -0.4474 -0.0364  0.7808
  165SAPE   H4X18527   6.500   5.446   2.942 -0.2707 -1.4899 -1.2078
  165SAPE   H4Y18528   6.682   5.488   2.909 -0.2455 -3.3385 -2.6954
  165SAPE   C3518529   6.601   5.469   3.113  0.0745  0.1143  0.0175
  165SAPE   H5X18530   6.703   5.459   3.156  0.5868 -1.5578 -1.4997
  165SAPE   H5Y18531   6.547   5.390   3.170 -1.1613  1.4949  0.8355
  165SAPE   C3618532   6.555   5.611   3.137 -0.3881 -0.1251 -0.0477
  165SAPE   H6X18533   6.466   5.630   3.073  0.6814 -1.9458 -2.1976
  165SAPE   H6Y18534   6.638   5.676   3.104 -0.5030  0.8131  1.4144
  165SAPE   C3718535   6.521   5.635   3.285  0.1304  0.8125 -0.0664
  165SAPE   H7X18536   6.444   5.567   3.327  0.0422  1.1425  0.3135
  165SAPE   H7Y18537   6.483   5.738   3.272 -1.5173  0.0558 -1.5979
  165SAPE   C3818538   6.641   5.642   3.374 -0.4064  0.0799 -0.2216
  165SAPE   H8X18539   6.719   5.692   3.312 -1.5270  1.5911 -0.4761
  165SAPE   H8Y18540   6.669   5.538   3.400 -0.9434  0.4080  1.9327
  165SAPE   C3918541   6.640   5.735   3.491 -0.0458  0.2587 -0.5560
  165SAPE   H9X18542   6.626   5.842   3.466 -0.9444  0.6330  1.3527
  165SAPE   H9Y18543   6.735   5.729   3.548  0.1573  3.1869 -0.4838
  165SAPE  C31018544   6.531   5.692   3.605  0.2265 -0.5332 -0.0049
  165SAPE  H10X18545   6.512   5.583   3.606  0.0508 -0.5168  1.7085
  165SAPE  H10Y18546   6.439   5.746   3.571  0.9757 -0.7308 -2.5402
  165SAPE  C31118547   6.563   5.748   3.742  0.3567 -0.4434  0.3000
  165SAPE  H11X18548   6.593   5.855   3.745  0.6039 -0.4884 -0.4833
  165SAPE  H11Y18549   6.659   5.695   3.762  0.9311  1.0410  1.6488
  165SAPE  C31218550   6.452   5.724   3.848 -0.6520 -0.2904  0.8539
  165SAPE  H12X18551   6.415   5.625   3.814 -0.1952  0.0484 -0.7475
  165SAPE  H12Y18552   6.370   5.797   3.832 -2.3777 -2.3717 -0.2957
  165SAPE  C31318553   6.499   5.727   3.994  0.0995  0.4325  0.2285
  165SAPE  H13X18554   6.526   5.831   4.023 -0.1462 -0.0291  2.2898
  165SAPE  H13Y18555   6.588   5.661   3.995  0.5720  1.0610  0.7431
  165SAPE  C31418556   6.389   5.702   4.099  0.5121 -0.0330 -0.6474
  165SAPE  H14X18557   6.323   5.614   4.083  0.4529 -0.2887  0.8801
  165SAPE  H14Y18558   6.317   5.785   4.082  1.8330  1.6641  1.5605
  165SAPE  C31518559   6.443   5.698   4.246 -0.4230 -0.4130  0.4342
  165SAPE  H15X18560   6.497   5.792   4.268  0.4176 -1.0535  1.1887
  165SAPE  H15Y18561   6.520   5.620   4.264 -0.6669  0.0112  4.1994
  165SAPE  C31618562   6.351   5.670   4.356 -0.0598  0.3973  0.5381
  165SAPE  H16X18563   6.323   5.563   4.344  0.7820  0.1629  0.5959
  165SAPE  H16Y18564   6.262   5.736   4.360 -1.4002 -1.2145 -0.8496
  165SAPE  C31718565   6.430   5.686   4.488 -0.4639 -0.7537  0.2316
  165SAPE  H17X18566   6.473   5.788   4.492 -1.4993 -0.3060  0.1843
  165SAPE  H17Y18567   6.514   5.613   4.493 -1.7686 -2.4070 -0.8981
  165SAPE  C31818568   6.336   5.665   4.609  0.0877  0.0257 -0.3847
  165SAPE  H18X18569   6.395   5.693   4.699 -0.1557 -0.4869 -0.0618
  165SAPE  H18Y18570   6.320   5.555   4.614 -1.2097  0.1860 -0.6304
  165SAPE  H18Z18571   6.239   5.718   4.605  0.0746 -0.0425 -2.5326
  166SAPE     N18572   6.822   4.769   2.524  0.1802 -0.3158  0.0445
  166SAPE   HN118573   6.876   4.726   2.602  0.8857 -1.0803 -0.8432
  166SAPE   HN218574   6.856   4.730   2.434  1.3956 -1.9930  1.1601
  166SAPE   HN318575   6.863   4.864   2.519 -0.8222  0.1619  0.5598
  166SAPE   C1218576   6.670   4.784   2.530 -0.2475 -0.1954  0.6463
  166SAPE  H12A18577   6.644   4.780   2.638  0.6227 -0.9698  0.8460
  166SAPE  H12B18578   6.617   4.706   2.471 -1.7425  0.8582  0.5551
  166SAPE   C1118579   6.637   4.922   2.473  0.3561  1.2326 -0.6450
  166SAPE  H11A18580   6.669   4.996   2.549  0.8631 -1.7614  2.2863
  166SAPE  H11B18581   6.526   4.924   2.486  0.5395 -0.1781  1.8153
  166SAPE     P18582   6.802   5.056   2.308 -0.0183  0.1232  0.0056
  166SAPE   O1318583   6.877   5.010   2.187 -0.4711  0.1728  0.7828
  166SAPE   O1418584   6.749   5.194   2.310  0.2065  0.3147  0.2338
  166SAPE   O1218585   6.689   4.945   2.340 -0.0499 -0.3399  0.5075
  166SAPE   O1118586   6.891   5.033   2.441 -0.3087  0.5077 -0.5650
  166SAPE    C118587   6.995   5.118   2.471  0.2345 -0.4774 -0.1004
  166SAPE    HA18588   7.078   5.079   2.408 -0.8295 -0.1206 -1.7492
  166SAPE    HB18589   6.970   5.223   2.447 -1.2934 -0.3212  1.8421
  166SAPE    C218590   7.041   5.106   2.613  0.3369  0.4561 -0.3951
  166SAPE    HS18591   7.099   5.197   2.640 -0.3372 -0.2345  4.0895
  166SAPE   O2118592   7.113   4.983   2.633  0.4687  0.2912  0.3102
  166SAPE   C2118593   7.240   4.985   2.609 -0.4803 -0.4294  0.1271
  166SAPE   O2218594   7.305   5.083   2.573 -0.3481 -0.3684  0.1079
  166SAPE   C2218595   7.302   4.847   2.636 -0.1209  0.3236 -0.1933
  166SAPE   H2R18596   7.235   4.770   2.591 -0.4665 -0.1598  1.1154
  166SAPE   H2S18597   7.402   4.849   2.590  0.0311  0.3248  0.1351
  166SAPE    C318598   6.923   5.116   2.711 -0.6858 -0.7754  0.2033
  166SAPE    HX18599   6.849   5.035   2.696 -2.4787  0.4478  1.9696
  166SAPE    HY18600   6.863   5.206   2.684 -1.1351 -0.9451  0.6236
  166SAPE   O3118601   6.981   5.118   2.845  0.2105  0.5934 -0.0184
  166SAPE   C3118602   6.937   5.031   2.929  0.2293  0.5793 -0.4168
  166SAPE   O3218603   6.836   4.963   2.923  0.0022 -0.2824 -0.6978
  166SAPE   C3218604   7.038   5.021   3.047  0.2696  0.1858 -0.5577
  166SAPE   H2X18605   7.056   5.122   3.090 -2.1880 -0.1742  1.5291
  166SAPE   H2Y18606   7.133   4.967   3.026  0.6839  0.5228  0.3942
  166SAPE   C2318607   7.318   4.800   2.783 -0.6543  0.0645  0.2889
  166SAPE   H3R18608   7.359   4.697   2.782 -1.5942 -0.3217 -0.6583
  166SAPE   H3S18609   7.216   4.793   2.829 -1.2790  1.0475 -0.8802
  166SAPE   C2418610   7.403   4.888   2.876 -0.5944 -0.4943 -0.4401
  166SAPE   H4R18611   7.414   4.830   2.970  1.5234  1.4404  0.6175
  166SAPE   H4S18612   7.362   4.987   2.906  0.8878  0.0476 -0.1183
  166SAPE   C2518613   7.530   4.931   2.813 -0.2152  0.4857 -0.2355
  166SAPE   H5R18614   7.520   4.967   2.710  0.9711 -1.7827 -1.2164
  166SAPE   C2618615   7.651   4.933   2.870  0.0442 -0.0800  0.0100
  166SAPE   H6R18616   7.731   4.971   2.805 -0.4252  0.4389 -0.2741
  166SAPE   C2718617   7.697   4.891   3.009 -0.6336  0.0438 -0.6812
  166SAPE   H7R18618   7.793   4.835   2.998  0.8711  2.3969 -0.2982
  166SAPE   H7S18619   7.624   4.820   3.052 -0.2004 -0.6471 -1.0791
  166SAPE   C2818620   7.728   5.000   3.109 -0.2802  0.5161 -0.1166
  166SAPE   H8R18621   7.789   5.083   3.072 -0.1268  0.6662  0.4578
  166SAPE   C2918622   7.698   4.996   3.236  0.3755 -0.4381  0.8531
  166SAPE   H9R18623   7.715   5.087   3.295 -2.3363  0.6672  0.0919
  166SAPE  C21018624   7.605   4.896   3.304  0.1963 -0.0530  0.2883
  166SAPE  H10R18625   7.547   4.833   3.234  1.3116 -2.3633  1.3577
  166SAPE  H10S18626   7.527   4.946   3.366  1.1383  0.2580  1.2427
  166SAPE  C21118627   7.671   4.802   3.405 -0.5894 -0.3080 -0.2073
  166SAPE  H11R18628   7.693   4.699   3.374  0.2347 -0.2653  0.2122
  166SAPE  C21218629   7.723   4.825   3.525 -0.2005  0.2828 -0.2962
  166SAPE  H12R18630   7.773   4.747   3.585  3.2591  0.4943 -2.6014
  166SAPE  C21318631   7.729   4.960   3.579 -0.5083 -0.4972  0.2694
  166SAPE  H13R18632   7.623   4.989   3.596 -0.3435  0.3046 -0.0606
  166SAPE  H13S18633   7.772   5.027   3.502 -2.5023  0.4655 -0.0743
  166SAPE  C21418634   7.810   4.978   3.707 -0.4827  0.4219 -0.1713
  166SAPE  H14R18635   7.915   5.004   3.686 -0.1484 -0.6947  0.0284
  166SAPE  C21518636   7.758   4.986   3.832  0.8022  1.0813  0.1748
  166SAPE  H15R18637   7.819   5.005   3.922  0.6532  0.4034  0.4234
  166SAPE  C21618638   7.608   4.974   3.872 -0.0149 -0.3455  0.0552
  166SAPE  H16R18639   7.537   4.983   3.787 -0.1536  1.4530  0.3215
  166SAPE  H16S18640   7.582   5.054   3.945  0.3628 -1.7514  1.7797
  166SAPE  C21718641   7.574   4.837   3.940  0.3167 -0.4740 -0.3176
  166SAPE  H17R18642   7.641   4.821   4.027  1.3548  1.4263 -0.6999
  166SAPE  H17S18643   7.592   4.755   3.866 -2.5501 -2.1591  0.7089
  166SAPE  C21818644   7.419   4.816   3.981 -0.3330 -0.1573 -0.2861
  166SAPE  H18R18645   7.360   4.837   3.889  0.5544 -1.9353 -1.3081
  166SAPE  H18S18646   7.402   4.896   4.057 -1.4804 -0.0125 -0.6633
  166SAPE  C21918647   7.394   4.681   4.040  0.2578  0.2019  1.0077
  166SAPE  H19R18648   7.447   4.676   4.138  1.7903 -1.7614  0.1374
  166SAPE  H19S18649   7.456   4.617   3.974  0.7187  1.6518 -0.0040
  166SAPE  C22018650   7.248   4.624   4.054  0.4797 -0.0320 -0.4176
  166SAPE  H20R18651   7.260   4.515   4.035  0.8005 -0.4096  1.7202
  166SAPE  H20S18652   7.176   4.665   3.980 -0.4743 -0.8265  0.0542
  166SAPE  H20T18653   7.217   4.645   4.158  2.2388  1.5110 -0.1558
  166SAPE   C3318654   6.965   4.938   3.158 -0.3973  0.4011  0.0536
  166SAPE   H3X18655   7.033   4.914   3.242 -0.0832 -1.2551 -0.6417
  166SAPE   H3Y18656   6.924   4.844   3.116  0.4187  1.7270 -4.2620
  166SAPE   C3418657   6.842   5.003   3.224  0.4402 -0.1686 -0.7806
  166SAPE   H4X18658   6.780   4.913   3.246  1.3215 -0.1556  2.2798
  166SAPE   H4Y18659   6.784   5.065   3.152 -0.5199  0.3198  0.3713
  166SAPE   C3518660   6.879   5.079   3.351  0.1668  0.0528 -0.0293
  166SAPE   H5X18661   6.952   5.159   3.327 -0.9113  1.3050  0.7097
  166SAPE   H5Y18662   6.925   5.006   3.420  1.9502  0.8311 -0.3404
  166SAPE   C3618663   6.756   5.145   3.420  0.4170 -0.0492 -0.3921
  166SAPE   H6X18664   6.670   5.077   3.404  1.6629 -1.4049 -1.6998
  166SAPE   H6Y18665   6.736   5.242   3.370 -1.4204 -1.0486 -1.6919
  166SAPE   C3718666   6.774   5.186   3.568 -1.1121  0.5224 -0.1998
  166SAPE   H7X18667   6.880   5.217   3.576  0.1472 -3.1174 -0.9489
  166SAPE   H7Y18668   6.756   5.096   3.631 -3.3089  1.8219  1.1394
  166SAPE   C3818669   6.674   5.285   3.619 -0.7298  0.0383  0.1429
  166SAPE   H8X18670   6.572   5.264   3.581 -0.9439 -2.8940  2.0340
  166SAPE   H8Y18671   6.698   5.379   3.565  1.7012 -2.5621 -3.8567
  166SAPE   C3918672   6.660   5.296   3.771 -0.0465  0.1517 -0.1068
  166SAPE   H9X18673   6.653   5.201   3.828 -0.9594  0.0843 -0.3124
  166SAPE   H9Y18674   6.562   5.346   3.784 -1.4067 -2.7253  1.4660
  166SAPE  C31018675   6.776   5.379   3.833  0.1846 -0.1922 -0.1628
  166SAPE  H10X18676   6.775   5.479   3.785  1.2225  0.3341  0.8506
  166SAPE  H10Y18677   6.871   5.325   3.815  0.3139  0.1399 -0.4959
  166SAPE  C31118678   6.748   5.402   3.987  0.2283  0.4998 -0.6569
  166SAPE  H11X18679   6.756   5.305   4.040  0.5511  0.2955 -1.0725
  166SAPE  H11Y18680   6.642   5.435   3.984  0.4147  1.0256 -2.2835
  166SAPE  C31218681   6.822   5.512   4.059  0.0076  0.4179  0.0247
  166SAPE  H12X18682   6.801   5.602   3.997 -1.4650 -0.9885 -1.6259
  166SAPE  H12Y18683   6.929   5.486   4.044 -0.6276 -1.7729 -1.0424
  166SAPE  C31318684   6.784   5.527   4.205  0.2245  0.0184 -0.5191
  166SAPE  H13X18685   6.675   5.510   4.208 -0.0987  1.9782  0.1265
  166SAPE  H13Y18686   6.800   5.629   4.247  1.5611 -0.6493  0.7017
  166SAPE  C31418687   6.848   5.417   4.297  0.4649  0.1648  0.3494
  166SAPE  H14X18688   6.837   5.320   4.245 -0.2816  0.6523 -0.4322
  166SAPE  H14Y18689   6.783   5.415   4.388 -1.8767 -0.4553 -1.2335
  166SAPE  C31518690   6.993   5.448   4.332 -0.2334 -0.0196 -0.1387
  166SAPE  H15X18691   6.979   5.539   4.395 -2.1126 -0.7580  0.5857
  166SAPE  H15Y18692   7.057   5.469   4.243  1.4268 -0.0070  1.0080
  166SAPE  C31618693   7.066   5.333   4.408  0.3832 -0.1304 -0.4971
  166SAPE  H16X18694   7.155   5.383   4.452  2.7091 -2.8602 -1.8166
  166SAPE  H16Y18695   7.096   5.257   4.333  1.4300 -0.9542  0.7142
  166SAPE  C31718696   6.986   5.257   4.518 -0.1575 -0.1941 -0.2030
  166SAPE  H17X18697   6.920   5.184   4.467 -0.2432 -1.8040  2.0612
  166SAPE  H17Y18698   6.928   5.339   4.566  0.6355 -0.3022  1.0117
  166SAPE  C31818699   7.070   5.187   4.621 -0.1682 -0.2241 -0.4047
  166SAPE  H18X18700   7.141   5.256   4.671 -0.2271 -0.4784  0.0382
  166SAPE  H18Y18701   7.121   5.100   4.576 -0.9315 -1.5827  1.2644
  166SAPE  H18Z18702   7.012   5.142   4.704 -0.1130 -2.1096 -1.3351
  167SAPE     N18703   0.596   2.453   2.023 -0.1011  0.4710 -0.2779
  167SAPE   HN118704   0.515   2.402   1.982  0.7459 -0.6334 -0.6340
  167SAPE   HN218705   0.542   2.524   2.076 -0.1854  0.2696 -0.0905
  167SAPE   HN318706   0.657   2.481   1.943  0.3792  1.0552  0.2885
  167SAPE   C1218707   0.681   2.391   2.124 -0.5347  0.4483  0.0561
  167SAPE  H12A18708   0.767   2.460   2.137  0.1528 -0.5054  0.7532
  167SAPE  H12B18709   0.716   2.291   2.090  1.7018  1.1409  0.1549
  167SAPE   C1118710   0.609   2.365   2.254 -0.2852  0.6013  0.5167
  167SAPE  H11A18711   0.555   2.453   2.293 -0.8508 -0.6162  2.6173
  167SAPE  H11B18712   0.678   2.348   2.340 -0.1007  0.6036  0.3721
  167SAPE     P18713   0.545   2.099   2.252 -0.1797  0.1512 -0.1245
  167SAPE   O1318714   0.434   2.014   2.203 -0.0826 -0.0569  0.1668
  167SAPE   O1418715   0.676   2.064   2.192 -0.2550  0.3178 -0.3579
  167SAPE   O1218716   0.511   2.259   2.235 -0.0069 -0.3376 -0.3465
  167SAPE   O1118717   0.548   2.077   2.410  0.4541  0.0348 -0.1287
  167SAPE    C118718   0.444   2.117   2.495 -0.4278  0.1678 -0.0288
  167SAPE    HA18719   0.452   2.227   2.508  1.7329  0.0234  0.3407
  167SAPE    HB18720   0.345   2.091   2.452  0.1181  0.3524 -1.4596
  167SAPE    C218721   0.444   2.045   2.634 -0.6708  0.7113  0.4529
  167SAPE    HS18722   0.351   2.069   2.690 -0.9977  1.3183 -0.3184
  167SAPE   O2118723   0.560   2.097   2.705 -0.2513  0.2664  0.2570
  167SAPE   C2118724   0.553   2.222   2.742  0.4906 -0.5772  0.2527
  167SAPE   O2218725   0.444   2.281   2.752 -0.1029  0.5623 -0.1135
  167SAPE   C2218726   0.694   2.280   2.785 -0.2592  0.1143  0.3477
  167SAPE   H2R18727   0.707   2.257   2.893 -0.2654 -0.4089  0.2419
  167SAPE   H2S18728   0.761   2.219   2.720 -0.0424  1.3804 -0.6528
  167SAPE    C318729   0.448   1.886   2.625 -0.1331 -0.0901 -0.3690
  167SAPE    HX18730   0.529   1.867   2.550  0.6949  0.2378  0.4193
  167SAPE    HY18731   0.350   1.854   2.585  0.1222  0.2715 -1.3235
  167SAPE   O3118732   0.473   1.808   2.749  0.3244  0.4651  0.0897
  167SAPE   C3118733   0.596   1.796   2.800 -0.0339 -0.0829 -0.0006
  167SAPE   O3218734   0.696   1.859   2.764  0.6018  0.5499  0.2751
  167SAPE   C3218735   0.591   1.683   2.900 -0.1939  0.3017  0.2492
  167SAPE   H2X18736   0.660   1.605   2.863  0.4064  0.9940 -0.1087
  167SAPE   H2Y18737   0.488   1.641   2.906  0.0062 -0.4909 -1.4373
  167SAPE   C2318738   0.717   2.429   2.758 -0.9938 -0.4306  0.7920
  167SAPE   H3R18739   0.705   2.454   2.651  0.4995 -1.2995  0.4005
  167SAPE   H3S18740   0.820   2.456   2.788 -0.9185 -0.2330  0.3658
  167SAPE   C2418741   0.623   2.522   2.839  0.2534 -0.5296 -0.8298
  167SAPE   H4R18742   0.516   2.498   2.823 -0.0587  0.8891 -0.9603
  167SAPE   H4S18743   0.624   2.629   2.812  0.9301 -0.2654  0.1629
  167SAPE   C2518744   0.654   2.503   2.991  0.5877 -0.1394 -0.2296
  167SAPE   H5R18745   0.752   2.548   3.015  0.3740 -0.2135  0.8094
  167SAPE   C2618746   0.586   2.435   3.089  0.2505 -0.2247 -0.3912
  167SAPE   H6R18747   0.627   2.443   3.191  2.6848  2.4192 -1.4495
  167SAPE   C2718748   0.448   2.372   3.086  0.1275  0.9864 -0.4571
  167SAPE   H7R18749   0.451   2.261   3.087 -0.2778  0.9663  0.7765
  167SAPE   H7S18750   0.397   2.392   2.989  0.5433 -1.5076 -1.2733
  167SAPE   C2818751   0.355   2.411   3.198  0.1456  0.1219  0.0161
  167SAPE   H8R18752   0.296   2.501   3.173 -0.4753 -0.0778  0.7242
  167SAPE   C2918753   0.321   2.353   3.310  0.3890 -0.2454 -0.8108
  167SAPE   H9R18754   0.256   2.412   3.377  2.0106  0.4510  0.2147
  167SAPE  C21018755   0.369   2.225   3.372 -0.2736  0.2405  0.2424
  167SAPE  H10R18756   0.345   2.135   3.311 -1.0456 -1.9388  3.4525
  167SAPE  H10S18757   0.317   2.203   3.468  1.8428 -0.1589  1.3598
  167SAPE  C21118758   0.519   2.228   3.401 -0.1176  0.8132 -0.0953
  167SAPE  H11R18759   0.591   2.226   3.318  0.1025 -0.7093  0.1085
  167SAPE  C21218760   0.569   2.215   3.524 -0.1954 -0.3112 -0.2131
  167SAPE  H12R18761   0.677   2.194   3.529 -0.5126 -2.6286 -1.6507
  167SAPE  C21318762   0.487   2.220   3.653  0.2328 -0.4272 -0.0003
  167SAPE  H13R18763   0.550   2.181   3.736  3.8120  1.3392 -1.6575
  167SAPE  H13S18764   0.406   2.146   3.637  1.3427 -1.9830  1.2632
  167SAPE  C21418765   0.437   2.360   3.686  0.5641  0.0495  0.8099
  167SAPE  H14R18766   0.446   2.436   3.607 -0.8986 -0.0183  0.5405
  167SAPE  C21518767   0.390   2.407   3.799  0.4442 -0.4453 -0.2073
  167SAPE  H15R18768   0.363   2.512   3.820 -0.4696 -1.0935  2.0899
  167SAPE  C21618769   0.354   2.323   3.921  0.5833 -0.5982  0.4143
  167SAPE  H16R18770   0.386   2.383   4.009 -0.4482  2.1388 -0.9470
  167SAPE  H16S18771   0.409   2.228   3.936 -0.5033 -1.0844  1.5139
  167SAPE  C21718772   0.202   2.299   3.947 -0.1869  0.1471  0.2113
  167SAPE  H17R18773   0.177   2.198   3.907 -1.9011  0.7302 -0.2741
  167SAPE  H17S18774   0.139   2.370   3.889 -0.5461 -0.6112 -0.3395
  167SAPE  C21818775   0.168   2.311   4.102  0.3738  0.3338  1.0841
  167SAPE  H18R18776   0.253   2.258   4.150  1.7463  1.3438 -0.1385
  167SAPE  H18S18777   0.065   2.280   4.130 -0.3177  1.2596 -0.2773
  167SAPE  C21918778   0.149   2.458   4.144 -0.2302  0.3437  0.6723
  167SAPE  H19R18779   0.072   2.502   4.078 -0.1635  0.8270  0.9161
  167SAPE  H19S18780   0.242   2.513   4.116  0.4097 -1.5691 -1.2455
  167SAPE  C22018781   0.129   2.476   4.293  0.1592  0.2133  0.2727
  167SAPE  H20R18782   0.103   2.582   4.315  0.2607  0.0122  1.4289
  167SAPE  H20S18783   0.216   2.441   4.352  0.4087  0.5985  0.1410
  167SAPE  H20T18784   0.042   2.412   4.319  0.0451  0.1149 -0.3351
  167SAPE   C3318785   0.633   1.710   3.046  0.2002 -0.1848  0.3551
  167SAPE   H3X18786   0.727   1.769   3.045 -0.5004  0.9540 -0.0952
  167SAPE   H3Y18787   0.665   1.616   3.097 -0.6263  0.2125  1.6736
  167SAPE   C3418788   0.545   1.802   3.127 -0.3648  0.0276 -0.8774
  167SAPE   H4X18789   0.451   1.746   3.144  0.3878 -0.4854  2.0592
  167SAPE   H4Y18790   0.518   1.897   3.077 -2.1145 -1.1246 -2.2614
  167SAPE   C3518791   0.604   1.848   3.257  0.0976 -0.2949 -0.7946
  167SAPE   H5X18792   0.565   1.949   3.281  0.3111 -0.3771 -0.0965
  167SAPE   H5Y18793   0.714   1.861   3.243 -0.2076  1.2198 -2.0355
  167SAPE   C3618794   0.561   1.743   3.366 -0.0588  0.0289  0.6540
  167SAPE   H6X18795   0.586   1.641   3.330 -2.1158 -1.0994  2.1844
  167SAPE   H6Y18796   0.450   1.748   3.374 -0.1278 -0.7284  0.2421
  167SAPE   C3718797   0.622   1.778   3.501 -0.7961 -0.1950  0.3292
  167SAPE   H7X18798   0.598   1.881   3.534  0.6465  0.1534  0.3714
  167SAPE   H7Y18799   0.732   1.774   3.489 -0.9788 -1.4577 -1.4357
  167SAPE   C3818800   0.598   1.668   3.606 -0.0871  0.2998 -0.1292
  167SAPE   H8X18801   0.656   1.580   3.569  0.6768  0.0109  1.6472
  167SAPE   H8Y18802   0.488   1.653   3.610 -0.2667  1.4720 -0.3848
  167SAPE   C3918803   0.639   1.712   3.747 -0.2089  0.1339 -0.3782
  167SAPE   H9X18804   0.736   1.766   3.744 -1.0326  1.6720 -0.4514
  167SAPE   H9Y18805   0.650   1.624   3.813  1.3487  0.9633  0.5416
  167SAPE  C31018806   0.549   1.815   3.814 -0.9179  0.1270 -0.0167
  167SAPE  H10X18807   0.442   1.785   3.810 -1.2179  1.2581 -0.7390
  167SAPE  H10Y18808   0.544   1.904   3.748 -2.0482 -0.5800 -0.9054
  167SAPE  C31118809   0.602   1.844   3.953 -0.2270 -0.1667 -0.1684
  167SAPE  H11X18810   0.700   1.896   3.941 -0.2260 -0.0145  0.4765
  167SAPE  H11Y18811   0.616   1.749   4.009 -1.3869 -0.5519 -0.4976
  167SAPE  C31218812   0.511   1.938   4.030 -0.4492 -0.3993 -0.5258
  167SAPE  H12X18813   0.409   1.894   4.037 -1.1976  1.5130  2.1634
  167SAPE  H12Y18814   0.523   2.035   3.977  0.2447 -0.8587 -1.2255
  167SAPE  C31318815   0.565   1.959   4.174 -0.0854 -0.5867 -1.0454
  167SAPE  H13X18816   0.674   1.970   4.159 -0.1897  0.7772 -0.8806
  167SAPE  H13Y18817   0.559   1.865   4.233 -1.1810 -0.9259 -1.6747
  167SAPE  C31418818   0.494   2.076   4.243  0.8324  0.1633  0.3894
  167SAPE  H14X18819   0.388   2.043   4.249  1.4257 -2.2066 -0.6724
  167SAPE  H14Y18820   0.498   2.165   4.177  0.7327  0.0869  0.2792
  167SAPE  C31518821   0.564   2.112   4.378  0.6284  0.0216 -0.9718
  167SAPE  H15X18822   0.671   2.134   4.357  1.4598 -0.1338  2.4674
  167SAPE  H15Y18823   0.554   2.021   4.442 -3.9315  0.8638 -0.1574
  167SAPE  C31618824   0.502   2.231   4.452 -0.6446 -0.4544  0.7856
  167SAPE  H16X18825   0.565   2.235   4.544 -0.6331  0.6694  0.7372
  167SAPE  H16Y18826   0.398   2.209   4.484 -0.8055 -0.7223  0.0929
  167SAPE  C31718827   0.502   2.366   4.386 -0.0309 -0.0743  0.0257
  167SAPE  H17X18828   0.431   2.348   4.302  0.3004 -1.4598  0.0326
  167SAPE  H17Y18829   0.598   2.393   4.337 -0.9542  1.2285 -1.1695
  167SAPE  C31818830   0.460   2.477   4.478  0.5662  0.1825  0.1879
  167SAPE  H18X18831   0.541   2.518   4.542 -1.3647 -0.0995  2.9951
  167SAPE  H18Y18832   0.394   2.439   4.559  2.3367  0.2417  1.7429
  167SAPE  H18Z18833   0.409   2.565   4.435  0.3360 -0.4558 -0.8825
  168SAPE     N18834   2.983   4.376   2.190 -0.2333  0.1682  0.1504
  168SAPE   HN118835   2.935   4.461   2.153  1.3916 -0.2441 -3.2322
  168SAPE   HN218836   3.076   4.368   2.145 -1.0511 -2.9323 -1.2295
  168SAPE   HN318837   2.931   4.294   2.153  1.8275 -1.6145  0.9917
  168SAPE   C1218838   2.989   4.361   2.341 -0.0630  0.3944 -0.6556
  168SAPE  H12A18839   3.060   4.280   2.366 -0.9441  0.2922  1.7806
  168SAPE  H12B18840   2.885   4.348   2.379  0.5346  1.8741  1.7376
  168SAPE   C1118841   3.031   4.495   2.398  0.4364 -0.4106  0.4227
  168SAPE  H11A18842   3.033   4.488   2.509 -1.2104 -0.5236  0.4739
  168SAPE  H11B18843   2.953   4.574   2.384 -1.6281 -2.8093 -3.2257
  168SAPE     P18844   3.225   4.676   2.391  0.2485 -0.3590  0.3266
  168SAPE   O1318845   3.352   4.696   2.322  0.5276  0.6277  0.6074
  168SAPE   O1418846   3.127   4.786   2.389 -0.8366  0.6033  0.0694
  168SAPE   O1218847   3.163   4.537   2.345 -0.0866  0.7544  0.3348
  168SAPE   O1118848   3.260   4.644   2.540 -0.0585  0.2725 -0.5385
  168SAPE    C118849   3.375   4.567   2.578 -0.7131  0.2526  0.4842
  168SAPE    HA18850   3.382   4.472   2.522 -0.5989 -0.6564  1.9784
  168SAPE    HB18851   3.459   4.635   2.554 -0.6100 -0.2675 -0.6894
  168SAPE    C218852   3.363   4.529   2.725  0.2996  0.1675 -0.3526
  168SAPE    HS18853   3.462   4.489   2.757 -0.3028 -1.2516 -0.2050
  168SAPE   O2118854   3.271   4.424   2.749 -0.3693  0.1547 -0.0170
  168SAPE   C2118855   3.303   4.303   2.700  0.4583 -0.9158  0.2562
  168SAPE   O2218856   3.409   4.280   2.644 -0.6771  0.1120  0.2308
  168SAPE   C2218857   3.195   4.203   2.725  0.2608  0.9269  0.4766
  168SAPE   H2R18858   3.097   4.232   2.683 -1.9326 -3.2219  2.1731
  168SAPE   H2S18859   3.209   4.110   2.666 -0.7583  0.7018  0.5704
  168SAPE    C318860   3.331   4.655   2.811 -0.1630 -0.0800 -0.7199
  168SAPE    HX18861   3.225   4.682   2.793 -0.6721 -0.2966  1.6791
  168SAPE    HY18862   3.401   4.732   2.773 -0.6540  0.1707 -1.1336
  168SAPE   O3118863   3.350   4.627   2.954 -0.3048  0.1387 -0.3035
  168SAPE   C3118864   3.472   4.639   3.009 -0.3913 -0.2772  0.2840
  168SAPE   O3218865   3.574   4.679   2.955 -0.4173  0.0138  0.0009
  168SAPE   C3218866   3.474   4.575   3.141  0.2780 -0.6420  0.9925
  168SAPE   H2X18867   3.569   4.517   3.142  1.2660  0.9120  0.2500
  168SAPE   H2Y18868   3.388   4.504   3.146 -0.9138  0.6960  0.0085
  168SAPE   C2318869   3.161   4.171   2.875 -0.1904  0.5509  0.5167
  168SAPE   H3R18870   3.132   4.266   2.926  0.5467  1.0599  0.0131
  168SAPE   H3S18871   3.251   4.129   2.925  0.8851  3.5180  1.2816
  168SAPE   C2418872   3.041   4.079   2.905  0.0059 -0.0026  0.2723
  168SAPE   H4R18873   3.060   3.986   2.847  0.9114 -0.9525  2.0429
  168SAPE   H4S18874   2.948   4.127   2.867 -1.2347 -1.5925  1.1644
  168SAPE   C2518875   3.022   4.045   3.047  0.2782  0.1524 -0.7369
  168SAPE   H5R18876   3.108   4.006   3.103 -1.0652  0.8653  1.9878
  168SAPE   C2618877   2.909   4.050   3.126  0.2205 -0.2847  0.0308
  168SAPE   H6R18878   2.918   4.018   3.231 -2.7419 -0.1865  0.3741
  168SAPE   C2718879   2.777   4.090   3.088 -0.3265  0.0500 -0.2819
  168SAPE   H7R18880   2.783   4.124   2.982 -0.9048 -0.0981 -0.3611
  168SAPE   H7S18881   2.738   4.179   3.141 -4.0038 -1.4793 -0.1146
  168SAPE   C2818882   2.666   3.988   3.106 -0.0938  0.6008 -0.6926
  168SAPE   H8R18883   2.642   3.932   3.014  2.6126  1.8003 -2.2472
  168SAPE   C2918884   2.599   3.965   3.220  0.0644  0.0492  0.4032
  168SAPE   H9R18885   2.515   3.894   3.225  0.1500  0.0498  2.9490
  168SAPE  C21018886   2.634   4.028   3.351 -0.1476 -0.3719 -0.9078
  168SAPE  H10R18887   2.546   4.083   3.392  0.2839  1.3095 -2.1384
  168SAPE  H10S18888   2.713   4.107   3.352  0.7285 -1.1465  2.1409
  168SAPE  C21118889   2.674   3.917   3.443  0.6399  0.0082  0.1405
  168SAPE  H11R18890   2.743   3.845   3.396  0.5277  0.5072 -0.8304
  168SAPE  C21218891   2.657   3.914   3.578 -0.5197 -0.1541 -1.0448
  168SAPE  H12R18892   2.701   3.825   3.626  1.9055  1.5724  0.0983
  168SAPE  C21318893   2.579   4.002   3.669 -0.4031  1.0236 -0.1563
  168SAPE  H13R18894   2.487   3.950   3.705 -0.6853  0.8767 -1.0664
  168SAPE  H13S18895   2.530   4.081   3.610 -1.1258  0.2022 -0.6848
  168SAPE  C21418896   2.648   4.047   3.792 -0.9854 -0.3311 -0.7479
  168SAPE  H14R18897   2.685   4.150   3.789  2.1982 -1.2469  1.8434
  168SAPE  C21518898   2.666   3.974   3.904  0.3294 -0.0038  0.2697
  168SAPE  H15R18899   2.711   4.029   3.988 -0.1266 -1.6504  1.6617
  168SAPE  C21618900   2.614   3.831   3.936  0.0247 -0.2274 -0.4422
  168SAPE  H16R18901   2.699   3.771   3.972  1.3844  2.6873  1.6265
  168SAPE  H16S18902   2.560   3.787   3.849 -3.1406 -0.7682  1.5949
  168SAPE  C21718903   2.512   3.827   4.051 -0.2304  0.7795 -0.5740
  168SAPE  H17R18904   2.427   3.891   4.020 -1.2215  0.5113  1.4165
  168SAPE  H17S18905   2.558   3.884   4.135  1.1030 -0.3986 -0.4678
  168SAPE  C21818906   2.468   3.680   4.089  0.1701 -0.6567 -0.0655
  168SAPE  H18R18907   2.541   3.645   4.166 -0.2513 -0.7035  0.3149
  168SAPE  H18S18908   2.464   3.608   4.005  1.5222 -2.1442  1.0940
  168SAPE  C21918909   2.332   3.673   4.158 -0.0008 -0.0227  0.1636
  168SAPE  H19R18910   2.247   3.714   4.099 -2.6366 -0.6734  3.2150
  168SAPE  H19S18911   2.337   3.745   4.242  1.3236 -0.8314  0.8045
  168SAPE  C22018912   2.318   3.537   4.226  0.1908  0.6203 -0.1833
  168SAPE  H20R18913   2.298   3.449   4.161 -0.3021  0.3031  0.3949
  168SAPE  H20S18914   2.229   3.547   4.291  1.2259  0.1516  1.3663
  168SAPE  H20T18915   2.402   3.508   4.292  0.6561  1.4397 -0.3958
  168SAPE   C3318916   3.471   4.667   3.265 -0.1472 -0.1558 -0.6546
  168SAPE   H3X18917   3.371   4.707   3.290  0.1133 -0.3076  0.7378
  168SAPE   H3Y18918   3.554   4.740   3.253  1.3669 -1.8541 -1.1461
  168SAPE   C3418919   3.502   4.590   3.394  0.2605  0.5369  0.0683
  168SAPE   H4X18920   3.597   4.532   3.391 -0.5647 -0.8245 -1.3764
  168SAPE   H4Y18921   3.423   4.513   3.407  1.0095 -0.6065 -1.7817
  168SAPE   C3518922   3.493   4.677   3.520  0.0448  0.1190  0.6244
  168SAPE   H5X18923   3.393   4.717   3.549  0.4250 -0.1754  2.4157
  168SAPE   H5Y18924   3.553   4.771   3.513 -1.4733  1.0476 -1.1201
  168SAPE   C3618925   3.537   4.611   3.645  0.0437 -0.7855  1.1753
  168SAPE   H6X18926   3.555   4.687   3.725 -0.9453  0.2296  0.4631
  168SAPE   H6Y18927   3.639   4.568   3.631 -0.2402 -0.9930 -0.3788
  168SAPE   C3718928   3.433   4.510   3.700 -0.1885 -0.2870 -0.3267
  168SAPE   H7X18929   3.408   4.432   3.625 -2.3619 -0.2456  0.3122
  168SAPE   H7Y18930   3.349   4.575   3.730  0.4921  0.2131  0.5599
  168SAPE   C3818931   3.480   4.428   3.816 -0.2129  0.1598  0.2454
  168SAPE   H8X18932   3.511   4.485   3.906  2.8964 -2.7806  1.2292
  168SAPE   H8Y18933   3.558   4.366   3.767  0.7226  1.8934 -0.5339
  168SAPE   C3918934   3.374   4.332   3.874  0.4760 -0.3751 -0.1304
  168SAPE   H9X18935   3.315   4.292   3.789  0.3727 -1.1025  0.2692
  168SAPE   H9Y18936   3.298   4.388   3.933 -1.2791 -2.1107 -0.6114
  168SAPE  C31018937   3.419   4.207   3.955 -0.9740 -0.4431  0.9361
  168SAPE  H10X18938   3.324   4.157   3.982 -0.6931 -1.1197  0.6963
  168SAPE  H10Y18939   3.477   4.250   4.039  0.8568  1.3423 -1.1124
  168SAPE  C31118940   3.501   4.103   3.880  0.5774  0.0477 -0.3721
  168SAPE  H11X18941   3.517   4.019   3.951 -0.9944 -0.6245 -0.7678
  168SAPE  H11Y18942   3.601   4.146   3.857  0.3718  0.5906 -0.2800
  168SAPE  C31218943   3.446   4.047   3.746 -0.3072  0.2161  0.3534
  168SAPE  H12X18944   3.451   4.138   3.682  0.6857 -0.6034 -0.7870
  168SAPE  H12Y18945   3.343   4.012   3.770 -0.5682  0.2527 -0.6722
  168SAPE  C31318946   3.530   3.938   3.693 -0.3129 -0.0884  0.2269
  168SAPE  H13X18947   3.499   3.846   3.747 -2.1665  0.6020  0.3950
  168SAPE  H13Y18948   3.639   3.952   3.712  0.4018 -1.0820 -2.5883
  168SAPE  C31418949   3.525   3.912   3.539 -0.2828 -0.4332  0.1074
  168SAPE  H14X18950   3.549   4.004   3.482 -0.8530  0.4912  1.3028
  168SAPE  H14Y18951   3.423   3.883   3.508 -0.6570 -1.6355  2.2588
  168SAPE  C31518952   3.629   3.811   3.496  0.4354  0.2591 -0.0886
  168SAPE  H15X18953   3.600   3.711   3.535 -1.7514  0.8774  0.0076
  168SAPE  H15Y18954   3.732   3.833   3.530 -0.2274  1.0571  1.5347
  168SAPE  C31618955   3.627   3.799   3.339 -0.0232 -0.3933  0.1874
  168SAPE  H16X18956   3.661   3.895   3.294 -0.2025 -0.1929  0.4776
  168SAPE  H16Y18957   3.520   3.782   3.316 -0.7944  0.3030  2.9081
  168SAPE  C31718958   3.714   3.685   3.288 -0.1102  0.4370  0.3038
  168SAPE  H17X18959   3.683   3.584   3.323 -1.4198  0.9836  0.7648
  168SAPE  H17Y18960   3.822   3.696   3.312  0.6676 -3.5807 -0.5599
  168SAPE  C31818961   3.707   3.684   3.129  0.6909 -0.2709 -0.5243
  168SAPE  H18X18962   3.750   3.589   3.093 -0.0974 -0.4545 -1.0150
  168SAPE  H18Y18963   3.759   3.772   3.085  0.3378  0.1140 -0.1828
  168SAPE  H18Z18964   3.598   3.692   3.108  0.4415  5.3893  1.2066
  169SAPE     N18965   6.651   1.941   2.057  0.5177 -0.8977  0.7815
  169SAPE   HN118966   6.682   2.014   2.124  0.2174  2.3429 -2.3373
  169SAPE   HN218967   6.740   1.887   2.048  0.1317 -1.4356  0.1745
  169SAPE   HN318968   6.634   1.984   1.965 -0.6832  1.8481  2.1723
  169SAPE   C1218969   6.538   1.858   2.115 -0.4180  0.4717  0.3803
  169SAPE  H12A18970   6.526   1.769   2.049  0.2225  1.0797 -0.5692
  169SAPE  H12B18971   6.448   1.922   2.126 -1.5442 -0.8957 -0.5685
  169SAPE   C1118972   6.575   1.831   2.262  0.3490 -0.3170 -0.3284
  169SAPE  H11A18973   6.582   1.932   2.309  1.7887 -1.6599  2.6315
  169SAPE  H11B18974   6.680   1.794   2.270  0.6021  0.7202  2.1404
  169SAPE     P18975   6.505   1.637   2.431  0.3070  0.4805  0.1046
  169SAPE   O1318976   6.373   1.589   2.489 -0.5942  0.0176 -0.0617
  169SAPE   O1418977   6.584   1.531   2.373 -0.4445  0.5614  0.2352
  169SAPE   O1218978   6.479   1.741   2.315  0.1917  0.6070  0.0108
  169SAPE   O1118979   6.583   1.720   2.535 -0.6234 -1.0001 -0.2713
  169SAPE    C118980   6.522   1.795   2.635 -0.2019 -0.1627 -0.5714
  169SAPE    HA18981   6.578   1.889   2.655 -3.7545  2.0577 -0.2312
  169SAPE    HB18982   6.418   1.832   2.621 -0.5931 -0.4136  1.4054
  169SAPE    C218983   6.520   1.717   2.763  0.1270 -0.7957  0.1293
  169SAPE    HS18984   6.459   1.627   2.744 -1.5354 -0.3960  2.9385
  169SAPE   O2118985   6.457   1.796   2.864  0.6922 -0.1948  0.3267
  169SAPE   C2118986   6.413   1.725   2.967 -0.8222  0.5019 -0.0768
  169SAPE   O2218987   6.433   1.604   2.982  0.3190 -0.2384  0.2161
  169SAPE   C2218988   6.338   1.817   3.062  0.3712  0.4137 -0.0469
  169SAPE   H2R18989   6.283   1.889   2.998 -0.1323  0.2401  0.1832
  169SAPE   H2S18990   6.258   1.764   3.119  0.8124 -1.9326 -1.4472
  169SAPE    C318991   6.662   1.685   2.795  0.4076 -0.4785  0.1996
  169SAPE    HX18992   6.717   1.627   2.718 -1.2262  1.5234 -2.6350
  169SAPE    HY18993   6.668   1.606   2.874 -1.1003 -0.2854  0.5289
  169SAPE   O3118994   6.732   1.803   2.847  0.1077  0.2876 -0.4999
  169SAPE   C3118995   6.864   1.797   2.823  0.0164 -0.5551  0.6637
  169SAPE   O3218996   6.923   1.697   2.792 -0.3635  0.0034  0.0090
  169SAPE   C3218997   6.927   1.938   2.831  0.5259  0.5927 -0.5576
  169SAPE   H2X18998   6.847   1.995   2.884  1.4693  0.6258  0.8730
  169SAPE   H2Y18999   6.939   1.961   2.723  1.0505  0.0718 -0.6128
  169SAPE   C2319000   6.436   1.894   3.154 -0.4141 -0.1943 -1.5556
  169SAPE   H3R19001   6.374   1.980   3.188  2.0209  0.4777  1.7714
  169SAPE   H3S19002   6.522   1.943   3.104 -0.7024  0.6775 -1.2213
  169SAPE   C2419003   6.492   1.812   3.270 -0.4184  0.2659  0.4082
  169SAPE   H4R19004   6.562   1.877   3.328  0.1669 -1.0190  1.1907
  169SAPE   H4S19005   6.548   1.730   3.221 -0.5656  0.1310  0.4648
  169SAPE   C2519006   6.390   1.744   3.361  0.0593 -0.1375  0.6458
  169SAPE   H5R19007   6.297   1.708   3.314  0.4383  1.2567 -1.3301
  169SAPE   C2619008   6.392   1.738   3.500  0.2155  0.2791  0.5622
  169SAPE   H6R19009   6.313   1.683   3.553 -0.0441 -0.0380 -0.1321
  169SAPE   C2719010   6.507   1.775   3.590  0.6797 -0.0503 -0.1846
  169SAPE   H7R19011   6.496   1.867   3.652  2.1026  1.1834 -1.6599
  169SAPE   H7S19012   6.587   1.816   3.524 -0.4145  4.2667  0.8452
  169SAPE   C2819013   6.569   1.656   3.669  0.6517 -0.7057  0.0597
  169SAPE   H8R19014   6.602   1.573   3.607  0.8032 -0.2798 -0.4328
  169SAPE   C2919015   6.577   1.650   3.801  0.6783 -0.0634 -0.7582
  169SAPE   H9R19016   6.612   1.556   3.848  2.1061  0.5093 -0.6386
  169SAPE  C21019017   6.521   1.752   3.899  0.0205 -0.2856 -0.6452
  169SAPE  H10R19018   6.563   1.849   3.866 -0.4865 -0.4799 -1.9021
  169SAPE  H10S19019   6.564   1.734   4.000  0.4370  1.3097 -0.5044
  169SAPE  C21119020   6.372   1.773   3.898  0.7204  0.0424  0.8969
  169SAPE  H11R19021   6.325   1.795   3.801  3.0925  0.1063 -0.3011
  169SAPE  C21219022   6.293   1.767   4.012 -0.1767  0.2834  0.1775
  169SAPE  H12R19023   6.184   1.769   3.994 -0.1229 -1.3931 -0.4782
  169SAPE  C21319024   6.329   1.728   4.160  0.3118  0.9112 -0.2005
  169SAPE  H13R19025   6.384   1.632   4.151  0.5356  0.8085  1.7982
  169SAPE  H13S19026   6.241   1.708   4.224 -0.4740 -3.1525 -2.1571
  169SAPE  C21419027   6.426   1.821   4.231  0.3336 -0.5275 -0.8571
  169SAPE  H14R19028   6.449   1.920   4.191  0.3273 -0.8675 -1.7187
  169SAPE  C21519029   6.487   1.780   4.348 -0.1353 -0.4165  0.5384
  169SAPE  H15R19030   6.552   1.848   4.405 -0.5778 -0.7348  1.4471
  169SAPE  C21619031   6.478   1.640   4.403 -0.0952  0.1311  0.1004
  169SAPE  H16R19032   6.574   1.613   4.452 -1.0136 -1.5170  1.0905
  169SAPE  H16S19033   6.470   1.560   4.327  0.5835  1.6627 -1.6598
  169SAPE  C21719034   6.367   1.630   4.501 -0.4188  0.2614 -0.0171
  169SAPE  H17R19035   6.277   1.646   4.439 -0.9881 -1.8197  0.1897
  169SAPE  H17S19036   6.362   1.707   4.581  2.6979 -0.7471  1.3125
  169SAPE  C21819037   6.347   1.485   4.552 -0.2655 -0.5987 -0.3530
  169SAPE  H18R19038   6.440   1.467   4.612  0.3539 -2.5796 -1.7947
  169SAPE  H18S19039   6.357   1.414   4.467  2.0620 -0.3972 -0.3256
  169SAPE  C21919040   6.214   1.460   4.620  0.5827 -0.5379 -0.1416
  169SAPE  H19R19041   6.130   1.514   4.573 -0.7992 -2.3948  0.0992
  169SAPE  H19S19042   6.237   1.515   4.715  0.7571 -0.0321 -0.4724
  169SAPE  C22019043   6.198   1.314   4.654  0.0929 -0.6323 -0.0041
  169SAPE  H20R19044   6.289   1.273   4.701 -0.4219  0.2543  1.8682
  169SAPE  H20S19045   6.178   1.252   4.564  0.9810 -0.0506 -0.6185
  169SAPE  H20T19046   6.106   1.294   4.713 -1.1571  1.2799 -1.1833
  169SAPE   C3319047   7.060   1.951   2.908  0.5005  0.0009 -0.0455
  169SAPE   H3X19048   7.111   2.047   2.884  2.6277 -1.3146 -1.1163
  169SAPE   H3Y19049   7.121   1.866   2.869  0.8321  0.6140 -0.8892
  169SAPE   C3419050   7.068   1.955   3.060 -0.4310  0.2217 -0.0599
  169SAPE   H4X19051   7.016   2.043   3.105 -2.9237 -2.6308  3.1842
  169SAPE   H4Y19052   7.175   1.952   3.089  0.0820 -0.7684 -1.9214
  169SAPE   C3519053   7.008   1.823   3.127  0.1515  0.1342  0.1576
  169SAPE   H5X19054   7.070   1.738   3.090  1.3802  0.8962  0.4009
  169SAPE   H5Y19055   6.900   1.812   3.104 -0.5010  3.0251  1.3870
  169SAPE   C3619056   7.014   1.825   3.278  0.1388  0.0563 -0.5357
  169SAPE   H6X19057   7.119   1.840   3.312 -0.5520 -0.1975  1.9690
  169SAPE   H6Y19058   7.000   1.722   3.318  3.3782  0.4799  2.2204
  169SAPE   C3719059   6.918   1.922   3.354  0.5511 -0.1756  0.2236
  169SAPE   H7X19060   6.818   1.909   3.308  0.1591  3.2027 -0.1012
  169SAPE   H7Y19061   6.947   2.027   3.334 -0.5554  0.1984  0.5105
  169SAPE   C3819062   6.922   1.888   3.507  0.3332  0.0543 -0.0421
  169SAPE   H8X19063   6.881   1.788   3.534  1.3097 -0.1542  0.7540
  169SAPE   H8Y19064   6.847   1.956   3.552 -1.2781 -2.4155  1.2229
  169SAPE   C3919065   7.056   1.934   3.564  0.2675 -0.1474 -0.3484
  169SAPE   H9X19066   7.097   2.019   3.504 -0.1926  1.1638  1.1292
  169SAPE   H9Y19067   7.119   1.843   3.556  1.6961  0.6935  0.8575
  169SAPE  C31019068   7.036   1.972   3.710  0.8918 -0.1933 -0.1030
  169SAPE  H10X19069   6.956   2.043   3.741  0.0222 -1.0401 -0.3568
  169SAPE  H10Y19070   7.123   2.027   3.752  0.1613  1.1790 -0.3229
  169SAPE  C31119071   7.007   1.854   3.801 -0.0670  0.3304 -0.4937
  169SAPE  H11X19072   7.102   1.799   3.813  0.2148  0.4485 -1.9667
  169SAPE  H11Y19073   6.935   1.785   3.752  0.1669 -0.4506  0.2434
  169SAPE  C31219074   6.956   1.892   3.939  0.3809 -0.0601 -0.8329
  169SAPE  H12X19075   6.871   1.964   3.931 -1.7729 -2.3586  0.1628
  169SAPE  H12Y19076   7.039   1.937   3.999 -1.0660 -0.2831  1.4798
  169SAPE  C31319077   6.912   1.777   4.027 -0.1563  0.3281  0.6208
  169SAPE  H13X19078   6.995   1.710   4.055  0.5984  1.0112  0.0696
  169SAPE  H13Y19079   6.839   1.715   3.970  1.7169 -0.6485 -0.8725
  169SAPE  C31419080   6.851   1.822   4.162  0.8095 -0.5139 -0.1445
  169SAPE  H14X19081   6.832   1.730   4.220  1.5968 -1.4442 -1.3006
  169SAPE  H14Y19082   6.751   1.867   4.146  1.2803  1.0262  0.9737
  169SAPE  C31519083   6.947   1.915   4.241  0.0864 -0.3627 -0.1163
  169SAPE  H15X19084   6.949   2.006   4.178 -1.6342 -0.8309 -0.9173
  169SAPE  H15Y19085   7.052   1.882   4.252  0.4994  0.8118 -0.4598
  169SAPE  C31619086   6.898   1.942   4.389  0.3691 -0.6260  0.1505
  169SAPE  H16X19087   6.892   1.853   4.457 -0.9913 -1.6750 -1.2684
  169SAPE  H16Y19088   6.797   1.987   4.381 -1.0025 -3.1534  1.7579
  169SAPE  C31719089   6.990   2.040   4.464 -0.4177 -0.7946  0.2182
  169SAPE  H17X19090   6.963   2.132   4.408 -1.2001  0.2972  2.2534
  169SAPE  H17Y19091   7.094   2.009   4.439 -0.0394 -0.8462  1.7046
  169SAPE  C31819092   6.965   2.055   4.617 -0.1150 -0.0338 -0.0559
  169SAPE  H18X19093   6.860   2.089   4.635  0.3741  2.0908 -0.9190
  169SAPE  H18Y19094   7.040   2.126   4.658 -0.9913  0.9685 -0.1416
  169SAPE  H18Z19095   6.974   1.956   4.666 -2.1104 -0.8071 -1.1136
  170SAPE     N19096   6.215   2.162   2.184  0.7119 -0.1538  0.1460
  170SAPE   HN119097   6.128   2.139   2.235  2.1480 -1.2126  2.2913
  170SAPE   HN219098   6.219   2.128   2.085 -0.2859  0.9777 -0.3037
  170SAPE   HN319099   6.278   2.102   2.241 -0.6514  0.8986  2.9257
  170SAPE   C1219100   6.245   2.306   2.210  0.4845  0.2473 -0.7131
  170SAPE  H12A19101   6.188   2.330   2.302  0.1428  0.0949 -0.8810
  170SAPE  H12B19102   6.201   2.373   2.133  2.2897  0.9566 -1.1839
  170SAPE   C1119103   6.393   2.345   2.217 -0.5781  0.0375  0.4402
  170SAPE  H11A19104   6.409   2.448   2.256  2.7341 -0.7061  1.2983
  170SAPE  H11B19105   6.427   2.358   2.112 -1.2590  2.6258  0.4585
  170SAPE     P19106   6.621   2.247   2.309  0.0462 -0.3083 -0.0626
  170SAPE   O1319107   6.673   2.170   2.196  0.0920 -0.2076 -0.0562
  170SAPE   O1419108   6.660   2.392   2.323 -0.5342  0.2217 -0.0525
  170SAPE   O1219109   6.470   2.252   2.298 -0.4565  0.3508  0.1712
  170SAPE   O1119110   6.651   2.176   2.437  0.0045 -0.2141 -0.2491
  170SAPE    C119111   6.553   2.174   2.542 -0.7526 -0.0447  0.3575
  170SAPE    HA19112   6.446   2.178   2.513 -1.0159 -0.2592  1.2891
  170SAPE    HB19113   6.572   2.075   2.589  0.9752 -0.1428 -0.4884
  170SAPE    C219114   6.581   2.279   2.646 -0.5917 -0.3780 -0.6151
  170SAPE    HS19115   6.546   2.378   2.612  0.9609  0.8219  1.0702
  170SAPE   O2119116   6.720   2.271   2.681  0.0161 -0.0774  0.3417
  170SAPE   C2119117   6.786   2.381   2.679  0.0456 -0.3659  0.0809
  170SAPE   O2219118   6.741   2.493   2.666 -0.1567 -0.3503  0.8805
  170SAPE   C2219119   6.935   2.354   2.704  0.2109  0.3930 -0.4516
  170SAPE   H2R19120   6.954   2.255   2.752 -0.2496  0.5242  0.0221
  170SAPE   H2S19121   6.991   2.351   2.609  1.9217 -1.9962  0.5274
  170SAPE    C319122   6.501   2.244   2.768  0.3195  0.0518 -0.0753
  170SAPE    HX19123   6.546   2.153   2.813  2.1192  0.8402 -0.2170
  170SAPE    HY19124   6.395   2.214   2.751  0.7460 -0.2373 -2.5495
  170SAPE   O3119125   6.493   2.348   2.867 -0.6346  0.2611 -0.7353
  170SAPE   C3119126   6.415   2.449   2.829 -0.0905 -0.0668 -0.0961
  170SAPE   O3219127   6.331   2.440   2.739 -0.4737 -0.0262  0.1508
  170SAPE   C3219128   6.431   2.574   2.920 -0.6560  0.1985  0.0245
  170SAPE   H2X19129   6.510   2.640   2.878 -2.0019  1.5531 -0.4590
  170SAPE   H2Y19130   6.469   2.537   3.018 -0.6638  1.7805  0.6635
  170SAPE   C2319131   7.006   2.466   2.777 -0.3638  0.3363 -0.2557
  170SAPE   H3R19132   6.996   2.558   2.716  2.0509  0.8275 -0.0018
  170SAPE   H3S19133   7.115   2.448   2.765  0.1100  3.5548 -2.1206
  170SAPE   C2419134   6.980   2.474   2.926 -0.7297  0.0285  0.4044
  170SAPE   H4R19135   7.039   2.560   2.965  0.3939 -0.8948  0.8098
  170SAPE   H4S19136   7.024   2.388   2.980 -1.2609  0.3919  1.4273
  170SAPE   C2519137   6.838   2.496   2.977 -0.3140  0.0235  0.2117
  170SAPE   H5R19138   6.788   2.593   2.977 -2.2312 -0.8644 -1.8630
  170SAPE   C2619139   6.767   2.413   3.049  0.5905  0.4881  0.5230
  170SAPE   H6R19140   6.660   2.437   3.062  0.5519  2.9124 -2.8525
  170SAPE   C2719141   6.798   2.263   3.086 -0.2172  0.0293 -0.4621
  170SAPE   H7R19142   6.880   2.220   3.024 -1.7580 -3.9154 -0.0695
  170SAPE   H7S19143   6.706   2.202   3.073 -0.8056  1.0681 -1.4306
  170SAPE   C2819144   6.838   2.247   3.230 -0.1327  0.8225  1.2435
  170SAPE   H8R19145   6.945   2.266   3.243 -0.1580  2.0850 -0.1091
  170SAPE   C2919146   6.758   2.251   3.335  0.2309  0.2346  0.2620
  170SAPE   H9R19147   6.810   2.240   3.431  0.8490  1.4909  0.1016
  170SAPE  C21019148   6.608   2.220   3.340  0.0600 -0.2128  0.1084
  170SAPE  H10R19149   6.593   2.136   3.411 -0.1068  0.0790  0.4198
  170SAPE  H10S19150   6.560   2.190   3.245 -0.0921 -2.0908  0.7327
  170SAPE  C21119151   6.532   2.335   3.404  0.3830  0.3095  0.1621
  170SAPE  H11R19152   6.487   2.401   3.328 -1.6280 -0.7514  0.3572
  170SAPE  C21219153   6.511   2.367   3.537 -0.4194 -0.1237  0.1068
  170SAPE  H12R19154   6.460   2.460   3.567 -0.1908 -0.1513  0.5954
  170SAPE  C21319155   6.570   2.282   3.646  1.1082 -0.0268  0.1426
  170SAPE  H13R19156   6.651   2.213   3.612  1.2769 -0.7908  1.9760
  170SAPE  H13S19157   6.485   2.219   3.680 -0.2554  1.4812 -0.3449
  170SAPE  C21419158   6.629   2.377   3.749 -0.0250  0.3929 -0.0664
  170SAPE  H14R19159   6.607   2.483   3.728  1.6969  0.8431  0.3041
  170SAPE  C21519160   6.668   2.335   3.865 -0.5116  0.4993  0.6009
  170SAPE  H15R19161   6.716   2.408   3.932 -1.8598  1.5889  0.4246
  170SAPE  C21619162   6.681   2.192   3.908 -0.1325  0.0228 -0.0998
  170SAPE  H16R19163   6.771   2.193   3.973 -1.6136  2.4159  2.1250
  170SAPE  H16S19164   6.705   2.130   3.819  0.7105  1.6579 -1.0478
  170SAPE  C21719165   6.564   2.136   3.993  0.0091 -0.2678  0.6726
  170SAPE  H17R19166   6.609   2.049   4.044 -0.7716  0.1616  2.1572
  170SAPE  H17S19167   6.480   2.103   3.928 -0.0242 -0.5405  0.8562
  170SAPE  C21819168   6.513   2.235   4.103 -0.0678  0.5771  0.0548
  170SAPE  H18R19169   6.438   2.173   4.157 -0.4688  1.8440  1.0210
  170SAPE  H18S19170   6.461   2.324   4.062  0.5011  0.3510 -1.2148
  170SAPE  C21919171   6.621   2.274   4.210  0.2487 -0.1377  0.5195
  170SAPE  H19R19172   6.660   2.372   4.176 -0.5639  0.1741  0.4639
  170SAPE  H19S19173   6.701   2.197   4.211 -0.2410 -0.6821  2.3200
  170SAPE  C22019174   6.568   2.288   4.356 -0.2791  0.9090 -0.2340
  170SAPE  H20R19175   6.657   2.308   4.420 -0.3324 -0.2024  0.2115
  170SAPE  H20S19176   6.519   2.193   4.386 -0.5338  0.2335 -2.5685
  170SAPE  H20T19177   6.496   2.372   4.361  1.4711  2.5083 -0.4961
  170SAPE   C3319178   6.304   2.660   2.930  0.2035  0.0852 -0.2810
  170SAPE   H3X19179   6.211   2.600   2.918 -0.0781  0.6546 -1.0019
  170SAPE   H3Y19180   6.314   2.730   2.844  0.1374 -2.1005 -2.1636
  170SAPE   C3419181   6.309   2.721   3.064 -0.0257 -0.3677  0.1557
  170SAPE   H4X19182   6.250   2.814   3.049 -0.8919 -1.0206 -0.6635
  170SAPE   H4Y19183   6.414   2.756   3.076 -0.1316 -0.1302  0.4097
  170SAPE   C3519184   6.262   2.650   3.194  0.5325 -0.0648  0.1083
  170SAPE   H5X19185   6.293   2.543   3.192 -0.4898 -0.3585 -0.3922
  170SAPE   H5Y19186   6.153   2.656   3.174  0.6955  1.1601 -0.5245
  170SAPE   C3619187   6.302   2.721   3.324 -0.0818 -0.7899 -0.2074
  170SAPE   H6X19188   6.255   2.821   3.329 -0.6370 -0.9930 -1.0592
  170SAPE   H6Y19189   6.413   2.719   3.316 -0.0200  0.4780  0.1300
  170SAPE   C3719190   6.258   2.642   3.450 -0.1661  0.4207 -0.1078
  170SAPE   H7X19191   6.279   2.533   3.444 -0.0595  0.1971  2.9534
  170SAPE   H7Y19192   6.147   2.641   3.458 -0.0881  1.2255  1.2160
  170SAPE   C3819193   6.316   2.698   3.575  0.1792  0.7961 -0.0179
  170SAPE   H8X19194   6.319   2.809   3.565 -1.5608  0.9501  0.8892
  170SAPE   H8Y19195   6.425   2.680   3.589  0.2976  0.6831 -1.0506
  170SAPE   C3919196   6.264   2.639   3.708 -0.5422 -0.6588 -0.4314
  170SAPE   H9X19197   6.317   2.545   3.732  0.6196 -0.3265 -1.5733
  170SAPE   H9Y19198   6.155   2.622   3.696 -0.7580 -0.8735  1.6025
  170SAPE  C31019199   6.297   2.724   3.832  0.2162 -0.4986 -0.4678
  170SAPE  H10X19200   6.247   2.676   3.919 -1.9839  0.5599 -1.0668
  170SAPE  H10Y19201   6.250   2.822   3.808 -0.3131 -0.4843  0.5770
  170SAPE  C31119202   6.449   2.737   3.871  0.0463  0.0254 -0.0975
  170SAPE  H11X19203   6.504   2.808   3.806 -0.3968  1.4239  1.0082
  170SAPE  H11Y19204   6.498   2.637   3.870  1.0815  0.4277  2.4850
  170SAPE  C31219205   6.461   2.790   4.014 -0.3148 -0.5943  0.7311
  170SAPE  H12X19206   6.396   2.735   4.086 -0.7471 -2.4851 -1.0228
  170SAPE  H12Y19207   6.449   2.900   4.002 -0.2432 -0.7014 -0.3990
  170SAPE  C31319208   6.600   2.795   4.074 -0.2908  0.7513  0.4683
  170SAPE  H13X19209   6.675   2.835   4.001  0.1409  0.2341  0.6215
  170SAPE  H13Y19210   6.642   2.692   4.078  1.8069  1.4537 -1.2314
  170SAPE  C31419211   6.597   2.858   4.211  0.9782 -0.1934 -0.4931
  170SAPE  H14X19212   6.612   2.787   4.295 -0.1186 -1.1932 -1.1039
  170SAPE  H14Y19213   6.494   2.897   4.230  1.2170 -0.4591  1.5697
  170SAPE  C31519214   6.702   2.977   4.227  0.2289 -0.3585  0.3578
  170SAPE  H15X19215   6.694   3.030   4.324 -1.1290  0.1759 -0.0152
  170SAPE  H15Y19216   6.674   3.062   4.161 -4.9108 -1.3755  0.7611
  170SAPE  C31619217   6.849   2.930   4.223  0.3901 -0.4979 -0.1506
  170SAPE  H16X19218   6.908   3.023   4.214 -0.8259  0.4407  1.1522
  170SAPE  H16Y19219   6.865   2.870   4.130 -0.8630  2.0354 -2.1153
  170SAPE  C31719220   6.885   2.885   4.367  0.5170 -0.3446  0.1264
  170SAPE  H17X19221   6.824   2.794   4.385 -1.5357  1.5782  4.0033
  170SAPE  H17Y19222   6.854   2.959   4.444  1.1367  0.5833 -0.4991
  170SAPE  C31819223   7.031   2.854   4.389 -0.9777 -0.2456  0.4052
  170SAPE  H18X19224   7.056   2.844   4.496  0.1120  1.1570  0.3089
  170SAPE  H18Y19225   7.096   2.937   4.354 -1.5899 -1.3302 -3.9920
  170SAPE  H18Z19226   7.073   2.768   4.333 -0.6212  0.9240 -1.2109
  171SAPE     N19227   1.884   1.228   1.875 -0.1328  0.6739  0.1337
  171SAPE   HN119228   1.796   1.213   1.822  1.3049 -2.0521 -1.7229
  171SAPE   HN219229   1.878   1.317   1.928 -1.8239 -0.2122  1.6095
  171SAPE   HN319230   1.965   1.241   1.812 -0.3408  0.7858 -0.1118
  171SAPE   C1219231   1.913   1.118   1.968  0.0291 -0.0921 -0.3947
  171SAPE  H12A19232   1.986   1.151   2.045 -0.2338 -1.1800  0.3430
  171SAPE  H12B19233   1.966   1.037   1.914  3.1763 -0.8615  3.3484
  171SAPE   C1119234   1.791   1.071   2.044  0.6612  0.2599  0.0194
  171SAPE  H11A19235   1.831   0.990   2.108  3.0015  1.6015  0.3982
  171SAPE  H11B19236   1.727   1.024   1.966  2.0185  0.6244 -1.3846
  171SAPE     P19237   1.692   1.167   2.268  0.2862 -0.5327  0.1673
  171SAPE   O1319238   1.579   1.079   2.289  0.7174 -0.3391 -0.4304
  171SAPE   O1419239   1.819   1.129   2.333  0.4849 -0.3638  0.4687
  171SAPE   O1219240   1.714   1.176   2.113 -0.8869 -0.2176  0.6596
  171SAPE   O1119241   1.646   1.310   2.322 -0.3283 -0.1653 -0.1453
  171SAPE    C119242   1.517   1.370   2.296  0.5739  0.1576  0.0807
  171SAPE    HA19243   1.531   1.458   2.230  0.9439  0.3846  0.4573
  171SAPE    HB19244   1.455   1.298   2.238  1.0492 -2.2229  2.3254
  171SAPE    C219245   1.436   1.420   2.418 -0.1094  0.4285  0.1288
  171SAPE    HS19246   1.495   1.504   2.462  0.1949  0.0255  0.4983
  171SAPE   O2119247   1.418   1.324   2.521 -0.4228  0.3167  0.8056
  171SAPE   C2119248   1.519   1.305   2.609  0.1313  0.2365 -0.4793
  171SAPE   O2219249   1.617   1.379   2.612 -0.1991 -0.2787 -0.6967
  171SAPE   C2219250   1.505   1.186   2.697  0.3538  0.0749  0.2187
  171SAPE   H2R19251   1.406   1.184   2.749  1.1440 -3.9074  1.9579
  171SAPE   H2S19252   1.518   1.096   2.634 -0.2987  0.1567 -0.0414
  171SAPE    C319253   1.299   1.470   2.371 -0.2587 -0.6291  0.0230
  171SAPE    HX19254   1.233   1.389   2.336 -2.6463 -0.1161  2.8850
  171SAPE    HY19255   1.320   1.543   2.290  1.2488  0.6587  1.4741
  171SAPE   O3119256   1.230   1.531   2.480  0.0976  0.5385 -0.0766
  171SAPE   C3119257   1.245   1.652   2.513 -0.5652 -0.3060  0.3061
  171SAPE   O3219258   1.331   1.729   2.468  0.2509 -0.3970 -0.2543
  171SAPE   C3219259   1.154   1.691   2.630 -0.7080  0.1919 -0.6801
  171SAPE   H2X19260   1.047   1.666   2.611 -0.2911  0.4900 -3.9512
  171SAPE   H2Y19261   1.152   1.802   2.622 -0.3447  0.2052 -0.5667
  171SAPE   C2319262   1.610   1.158   2.809  0.3963 -0.0464 -0.3356
  171SAPE   H3R19263   1.625   1.257   2.858 -0.2814  0.3278 -0.8753
  171SAPE   H3S19264   1.707   1.125   2.766  0.6839  0.6019 -0.1941
  171SAPE   C2419265   1.578   1.047   2.908  0.3468 -0.0917 -1.1179
  171SAPE   H4R19266   1.675   1.005   2.942  0.7520  0.2998 -1.7844
  171SAPE   H4S19267   1.528   0.958   2.865  0.6175 -0.6154 -0.3633
  171SAPE   C2519268   1.492   1.105   3.021 -1.1150 -0.4444 -0.3584
  171SAPE   H5R19269   1.435   1.196   2.998  0.2815  0.9374  1.3618
  171SAPE   C2619270   1.493   1.082   3.152 -0.1933  0.3831 -0.0259
  171SAPE   H6R19271   1.424   1.136   3.218  0.8828  2.0685 -0.2280
  171SAPE   C2719272   1.589   0.999   3.230  0.0441  0.0124  0.0612
  171SAPE   H7R19273   1.664   1.071   3.269  3.4099 -3.0799 -0.1548
  171SAPE   H7S19274   1.638   0.927   3.161 -1.0064  1.3590 -2.1691
  171SAPE   C2819275   1.530   0.920   3.341 -0.6927 -0.0913 -0.3425
  171SAPE   H8R19276   1.518   0.814   3.312 -0.2060 -0.2263 -0.0566
  171SAPE   C2919277   1.493   0.961   3.459 -0.0540  0.0533 -0.7128
  171SAPE   H9R19278   1.471   0.880   3.530  1.3199 -0.5386 -0.9309
  171SAPE  C21019279   1.504   1.104   3.507  0.6039  0.1606 -0.1387
  171SAPE  H10R19280   1.586   1.163   3.460 -0.1246  1.4865  0.1959
  171SAPE  H10S19281   1.535   1.096   3.613 -5.8513  1.1788  2.3147
  171SAPE  C21119282   1.370   1.175   3.506 -0.4440 -0.1466  0.0846
  171SAPE  H11R19283   1.339   1.212   3.407  2.0465  0.3312 -0.6003
  171SAPE  C21219284   1.293   1.204   3.610  0.2217  0.0412 -0.6021
  171SAPE  H12R19285   1.199   1.252   3.580 -0.5597 -0.8188  0.4147
  171SAPE  C21319286   1.302   1.158   3.751 -0.3031  0.2044 -0.2696
  171SAPE  H13R19287   1.409   1.154   3.781 -0.9670 -1.7283  2.1988
  171SAPE  H13S19288   1.262   1.054   3.759  2.3456 -0.9696 -1.2017
  171SAPE  C21419289   1.235   1.245   3.858  0.1713  0.4344  0.1039
  171SAPE  H14R19290   1.182   1.332   3.817  0.5127  0.5187 -0.1646
  171SAPE  C21519291   1.228   1.220   3.988 -0.3069 -0.1732  0.1689
  171SAPE  H15R19292   1.175   1.291   4.054  1.1339  1.6317 -0.5338
  171SAPE  C21619293   1.296   1.108   4.064  0.1077 -0.0058 -0.2260
  171SAPE  H16R19294   1.377   1.058   4.007  0.9333 -1.9256  2.4038
  171SAPE  H16S19295   1.222   1.026   4.076 -0.2537  0.2334 -0.7905
  171SAPE  C21719296   1.346   1.138   4.208 -0.3420 -0.7383  0.0182
  171SAPE  H17R19297   1.442   1.193   4.197  0.4965 -0.9251  4.5617
  171SAPE  H17S19298   1.376   1.034   4.236  0.2816 -0.2820  1.1307
  171SAPE  C21819299   1.261   1.205   4.309  0.1739 -0.7096  1.0486
  171SAPE  H18R19300   1.162   1.157   4.326 -0.0855 -0.6695 -0.2740
  171SAPE  H18S19301   1.234   1.304   4.266  0.3808 -1.0973  0.0002
  171SAPE  C21919302   1.345   1.211   4.434 -0.5406  0.0103 -0.7011
  171SAPE  H19R19303   1.441   1.261   4.409 -1.0364  0.8465 -1.0193
  171SAPE  H19S19304   1.361   1.108   4.471  2.4999  0.3136 -0.9059
  171SAPE  C22019305   1.281   1.307   4.539  0.1686  0.0405  0.3360
  171SAPE  H20R19306   1.279   1.414   4.509 -0.4202  0.3886  1.5326
  171SAPE  H20S19307   1.337   1.295   4.634  1.3515 -1.1767 -0.4820
  171SAPE  H20T19308   1.180   1.268   4.567 -0.0566  1.9275  2.4948
  171SAPE   C3319309   1.219   1.649   2.762  0.5854 -0.5001 -0.3163
  171SAPE   H3X19310   1.308   1.715   2.774  0.0047  0.0572  1.2158
  171SAPE   H3Y19311   1.254   1.544   2.755  3.4011  0.1970  1.4954
  171SAPE   C3419312   1.127   1.685   2.878 -0.1561 -0.0570 -0.1074
  171SAPE   H4X19313   1.067   1.591   2.877 -0.3848  0.0945 -0.9511
  171SAPE   H4Y19314   1.062   1.770   2.849  0.2099  1.1114  2.2496
  171SAPE   C3519315   1.203   1.686   3.012  0.8366 -0.5165  0.0660
  171SAPE   H5X19316   1.273   1.772   3.018  0.9440 -0.5821 -0.2701
  171SAPE   H5Y19317   1.260   1.594   3.035 -0.7589 -1.0772  2.0058
  171SAPE   C3619318   1.100   1.703   3.127  0.0472 -0.8764 -0.1176
  171SAPE   H6X19319   1.022   1.625   3.118 -0.8993 -0.4029  2.7509
  171SAPE   H6Y19320   1.047   1.800   3.113 -0.5744 -1.1425  0.3230
  171SAPE   C3719321   1.161   1.695   3.264 -0.1495 -0.0028  0.1174
  171SAPE   H7X19322   1.227   1.783   3.280 -1.3165  0.8706  0.2618
  171SAPE   H7Y19323   1.209   1.602   3.302 -0.6659  0.9354  3.4568
  171SAPE   C3819324   1.060   1.713   3.387  0.2484 -0.1281  0.0667
  171SAPE   H8X19325   0.979   1.640   3.369  1.7890 -1.2279 -3.1185
  171SAPE   H8Y19326   1.026   1.818   3.377 -0.0454 -0.2070  0.2393
  171SAPE   C3919327   1.114   1.708   3.532  0.7951 -0.1514  0.0795
  171SAPE   H9X19328   1.196   1.781   3.547 -0.2998  1.3832 -1.1267
  171SAPE   H9Y19329   1.140   1.603   3.557 -2.7786 -1.8541 -2.5150
  171SAPE  C31019330   1.014   1.763   3.634  0.4312  0.7662  0.5686
  171SAPE  H10X19331   0.923   1.700   3.632 -0.1957  1.6694 -0.2479
  171SAPE  H10Y19332   0.972   1.860   3.599  0.1296  0.1877 -0.7049
  171SAPE  C31119333   1.070   1.769   3.776  0.1441 -0.2301  0.3561
  171SAPE  H11X19334   1.141   1.853   3.786 -2.0666  1.5906  2.0801
  171SAPE  H11Y19335   1.123   1.675   3.800 -0.1893 -0.4251  0.3333
  171SAPE  C31219336   0.963   1.790   3.883  0.3555 -0.0892 -0.3769
  171SAPE  H12X19337   0.885   1.711   3.892  1.9651 -1.7709 -0.4856
  171SAPE  H12Y19338   0.908   1.886   3.870  2.0584  1.4140  2.5313
  171SAPE  C31319339   1.027   1.813   4.018 -0.1870  0.0111  0.1349
  171SAPE  H13X19340   1.101   1.895   4.014 -0.6430  0.3820 -1.2404
  171SAPE  H13Y19341   1.070   1.717   4.054  1.2313 -0.4069 -2.4434
  171SAPE  C31419342   0.934   1.871   4.124  0.2237 -0.1140 -0.3516
  171SAPE  H14X19343   0.854   1.798   4.147 -0.7746  1.4281  1.3770
  171SAPE  H14Y19344   0.882   1.960   4.083 -4.1112 -2.1859  0.0457
  171SAPE  C31519345   1.016   1.893   4.256 -0.5994  0.1735 -0.7327
  171SAPE  H15X19346   1.089   1.976   4.244  1.2664 -0.9571  1.7772
  171SAPE  H15Y19347   1.070   1.796   4.269  0.4275  0.8700  0.4319
  171SAPE  C31619348   0.930   1.917   4.382 -0.2315 -0.0310 -0.2265
  171SAPE  H16X19349   0.847   1.989   4.372  0.3676  0.7111  0.0531
  171SAPE  H16Y19350   0.995   1.960   4.461 -3.1272  1.1580  1.6630
  171SAPE  C31719351   0.883   1.789   4.450 -0.5017 -0.1369 -0.5645
  171SAPE  H17X19352   0.965   1.714   4.443 -0.4933  0.0295 -3.8523
  171SAPE  H17Y19353   0.803   1.747   4.384 -0.3740 -0.6700 -0.3842
  171SAPE  C31819354   0.832   1.814   4.594  0.5126 -0.0097  0.1219
  171SAPE  H18X19355   0.750   1.888   4.590 -0.2333 -0.8541 -1.0582
  171SAPE  H18Y19356   0.905   1.860   4.663  2.7397 -0.5752 -1.7033
  171SAPE  H18Z19357   0.804   1.714   4.633  1.7210 -0.7586 -0.8566
  172SAPE     N19358   1.392   4.567   2.183  0.6109  0.0687  0.2626
  172SAPE   HN119359   1.325   4.640   2.150  0.1288  0.2583  1.5891
  172SAPE   HN219360   1.448   4.608   2.261 -0.8827  2.9484 -0.0210
  172SAPE   HN319361   1.450   4.538   2.102 -0.7472  1.0188 -1.1103
  172SAPE   C1219362   1.312   4.457   2.247  0.1423  0.5247  0.1096
  172SAPE  H12A19363   1.388   4.390   2.292 -2.0098 -1.1573  1.3989
  172SAPE  H12B19364   1.248   4.405   2.172 -0.9605  0.4341  1.0933
  172SAPE   C1119365   1.226   4.512   2.371  0.2969 -0.3980  0.1530
  172SAPE  H11A19366   1.294   4.546   2.452 -2.5321 -1.2002  3.0793
  172SAPE  H11B19367   1.160   4.432   2.412 -0.4760 -0.9269 -1.9923
  172SAPE     P19368   0.994   4.635   2.336  0.7577  0.3859  0.2000
  172SAPE   O1319369   0.939   4.707   2.219 -0.6085 -0.4415  0.4774
  172SAPE   O1419370   0.943   4.496   2.366 -0.0801 -0.1672 -0.4210
  172SAPE   O1219371   1.145   4.621   2.322 -0.5311 -0.2855  1.0960
  172SAPE   O1119372   0.967   4.716   2.461  0.0173  0.2253 -0.7287
  172SAPE    C119373   1.066   4.722   2.568 -0.0617 -0.4089 -0.4506
  172SAPE    HA19374   1.171   4.723   2.531  1.3558 -1.5066  3.1131
  172SAPE    HB19375   1.046   4.819   2.618 -0.6346 -0.7883  0.0631
  172SAPE    C219376   1.043   4.611   2.672  0.0163 -0.2337  0.5243
  172SAPE    HS19377   1.041   4.515   2.617  1.7882  0.3830 -0.7165
  172SAPE   O2119378   0.917   4.635   2.743  0.5277  0.0227 -0.0876
  172SAPE   C2119379   0.845   4.531   2.772  0.4217  0.7705  0.3053
  172SAPE   O2219380   0.873   4.412   2.753 -0.2572 -0.2061  0.6799
  172SAPE   C2219381   0.718   4.585   2.830 -0.6888 -0.4332  0.2347
  172SAPE   H2R19382   0.756   4.656   2.907  0.4957  0.8759 -1.4599
  172SAPE   H2S19383   0.663   4.644   2.753 -0.0918  0.4400  0.4516
  172SAPE    C319384   1.162   4.583   2.767 -0.0480 -0.0386 -0.3389
  172SAPE    HX19385   1.258   4.585   2.711 -0.4593 -3.4187 -1.3708
  172SAPE    HY19386   1.163   4.480   2.808  4.8207  0.5989  1.7765
  172SAPE   O3119387   1.155   4.668   2.885 -0.2804 -0.0051  0.6710
  172SAPE   C3119388   1.257   4.673   2.967 -0.0628  0.1063 -0.6581
  172SAPE   O3219389   1.368   4.630   2.951  0.4308  0.6739  0.4685
  172SAPE   C3219390   1.230   4.760   3.087 -0.2433 -0.5992  0.4050
  172SAPE   H2X19391   1.122   4.773   3.110 -0.5422 -0.0083 -1.1766
  172SAPE   H2Y19392   1.256   4.867   3.079 -1.4798 -0.1917  1.4607
  172SAPE   C2319393   0.624   4.479   2.892  0.2082  0.1703  0.0642
  172SAPE   H3R19394   0.685   4.394   2.928  0.0539  1.2236  3.1114
  172SAPE   H3S19395   0.566   4.433   2.809 -1.4248  3.1484 -0.5792
  172SAPE   C2419396   0.534   4.544   3.000 -0.1708 -0.3644  0.3716
  172SAPE   H4R19397   0.506   4.647   2.972  1.0553 -0.7900 -2.8608
  172SAPE   H4S19398   0.606   4.543   3.085  2.0341  0.9941 -1.3634
  172SAPE   C2519399   0.417   4.459   3.041  0.4205 -0.3415 -0.5712
  172SAPE   H5R19400   0.388   4.370   2.982 -2.2468 -1.4278  2.1244
  172SAPE   C2619401   0.356   4.471   3.158  0.1148  0.6549  0.1095
  172SAPE   H6R19402   0.276   4.402   3.188  0.9825  0.1984  1.4627
  172SAPE   C2719403   0.381   4.574   3.264 -0.0439 -0.6481  0.0322
  172SAPE   H7R19404   0.292   4.639   3.260  0.8802  0.5832 -1.3454
  172SAPE   H7S19405   0.478   4.627   3.253 -0.2856 -0.2339 -0.1239
  172SAPE   C2819406   0.398   4.519   3.402  0.5873 -0.4473 -0.2868
  172SAPE   H8R19407   0.429   4.413   3.397 -0.2964 -0.9296  2.5822
  172SAPE   C2919408   0.373   4.577   3.517 -0.3701  0.2207 -0.5815
  172SAPE   H9R19409   0.374   4.518   3.609 -1.3959 -4.9881 -3.5153
  172SAPE  C21019410   0.326   4.724   3.531  0.5697  0.2850  0.7528
  172SAPE  H10R19411   0.248   4.728   3.611 -0.5474  1.3048 -0.3507
  172SAPE  H10S19412   0.269   4.749   3.439  1.8708  1.4653  0.2404
  172SAPE  C21119413   0.432   4.829   3.547  0.3707 -0.2199 -0.5935
  172SAPE  H11R19414   0.539   4.802   3.537  0.7100 -0.1040  2.1636
  172SAPE  C21219415   0.399   4.950   3.598  0.1361 -0.5670 -0.1601
  172SAPE  H12R19416   0.473   5.032   3.602 -1.5507  1.0293 -0.4069
  172SAPE  C21319417   0.263   5.001   3.616  0.0864 -0.3129  0.2555
  172SAPE  H13R19418   0.211   4.944   3.696 -1.3177  0.6159  0.0400
  172SAPE  H13S19419   0.202   4.981   3.525 -0.7649  2.2305  0.2019
  172SAPE  C21419420   0.252   5.140   3.645 -1.2717  0.0302 -0.9612
  172SAPE  H14R19421   0.225   5.210   3.564 -1.3706 -0.2440 -1.1663
  172SAPE  C21519422   0.266   5.190   3.769  0.4787 -0.1993  0.5326
  172SAPE  H15R19423   0.254   5.298   3.782  1.7235  0.1854 -1.1061
  172SAPE  C21619424   0.297   5.126   3.899 -0.4441 -0.6865 -0.8003
  172SAPE  H16R19425   0.389   5.167   3.945 -0.7586 -1.1927  0.2960
  172SAPE  H16S19426   0.318   5.018   3.882 -0.8928 -0.7013 -1.3106
  172SAPE  C21719427   0.173   5.138   3.997 -0.1127  0.1081 -0.0342
  172SAPE  H17R19428   0.128   5.237   3.977  0.7088  0.4484 -0.2381
  172SAPE  H17S19429   0.206   5.138   4.103 -0.0406 -0.6926 -0.0536
  172SAPE  C21819430   0.063   5.034   3.974  0.3045  0.7958  0.0935
  172SAPE  H18R19431   0.110   4.934   3.964 -1.3730  0.0380 -0.8150
  172SAPE  H18S19432   0.014   5.055   3.876 -0.6007  2.4748  0.8650
  172SAPE  C21919433  -0.045   5.019   4.087 -0.3943 -0.1826 -0.1947
  172SAPE  H19R19434  -0.108   4.931   4.063 -1.8914  1.0247 -0.8804
  172SAPE  H19S19435  -0.116   5.105   4.082 -0.2017  0.1308  1.5751
  172SAPE  C22019436   0.022   4.993   4.222 -0.7238 -0.1723 -0.6106
  172SAPE  H20R19437  -0.058   4.963   4.294 -0.4176  0.9548  0.2254
  172SAPE  H20S19438   0.074   5.080   4.268  2.4157 -0.9326 -2.4221
  172SAPE  H20T19439   0.097   4.911   4.224 -1.0001 -0.5092 -2.5704
  172SAPE   C3319440   1.298   4.701   3.218  0.1799 -0.6371 -0.0948
  172SAPE   H3X19441   1.406   4.722   3.200  0.6648 -3.7287 -1.2695
  172SAPE   H3Y19442   1.279   4.592   3.218 -2.3944 -0.2536 -0.3939
  172SAPE   C3419443   1.236   4.767   3.345 -0.1134  0.3783 -0.2415
  172SAPE   H4X19444   1.126   4.764   3.334 -0.2660  3.4152 -0.5511
  172SAPE   H4Y19445   1.269   4.873   3.346  2.8237 -0.4389  0.3112
  172SAPE   C3519446   1.286   4.703   3.475  0.2558 -0.2729  0.2285
  172SAPE   H5X19447   1.397   4.708   3.471  0.2123 -0.2646 -1.4577
  172SAPE   H5Y19448   1.254   4.598   3.458 -2.8623  0.9694 -2.4723
  172SAPE   C3619449   1.232   4.781   3.602 -0.4588  0.0560  0.6162
  172SAPE   H6X19450   1.123   4.802   3.598 -0.3896  0.6055  1.3312
  172SAPE   H6Y19451   1.284   4.879   3.609 -0.6115  0.0889  1.2900
  172SAPE   C3719452   1.251   4.705   3.732 -0.4442  0.4548  0.1915
  172SAPE   H7X19453   1.351   4.659   3.745  0.9202  3.6744  2.0585
  172SAPE   H7Y19454   1.194   4.610   3.721 -0.6885  0.5148  0.8616
  172SAPE   C3819455   1.193   4.776   3.855 -0.0319 -0.1308 -0.0080
  172SAPE   H8X19456   1.107   4.842   3.831  0.1579 -0.1258 -0.6842
  172SAPE   H8Y19457   1.266   4.855   3.882 -2.1901  2.9779 -2.5679
  172SAPE   C3919458   1.153   4.691   3.967 -0.1324  0.2535 -0.5847
  172SAPE   H9X19459   1.242   4.640   4.012  1.5246  2.1944 -1.4860
  172SAPE   H9Y19460   1.087   4.608   3.934 -0.1518  0.7560 -1.8239
  172SAPE  C31019461   1.077   4.772   4.078  0.8104  0.6314 -0.0108
  172SAPE  H10X19462   0.981   4.799   4.028  0.0934 -1.8158 -0.0516
  172SAPE  H10Y19463   1.132   4.861   4.115  0.2867  0.8662  0.2195
  172SAPE  C31119464   1.048   4.678   4.190 -0.9864 -0.3684 -0.7535
  172SAPE  H11X19465   1.132   4.606   4.199 -0.7494  0.0672  0.8704
  172SAPE  H11Y19466   0.953   4.622   4.177 -0.2724 -2.2996  1.5633
  172SAPE  C31219467   1.019   4.751   4.318  0.1096  0.1717 -0.0551
  172SAPE  H12X19468   1.099   4.818   4.356 -0.7684  1.7067 -0.8125
  172SAPE  H12Y19469   1.005   4.672   4.395  0.1239 -0.5827 -0.8089
  172SAPE  C31319470   0.895   4.827   4.305  0.2142 -0.1673 -0.2942
  172SAPE  H13X19471   0.820   4.754   4.268  0.9913  0.6939 -3.9507
  172SAPE  H13Y19472   0.907   4.909   4.231  2.9669 -1.0977 -1.0119
  172SAPE  C31419473   0.852   4.884   4.445 -0.1905  0.5862 -0.0567
  172SAPE  H14X19474   0.935   4.936   4.496  1.9703  0.1827 -2.9112
  172SAPE  H14Y19475   0.829   4.798   4.511 -0.7916  1.1636  0.5058
  172SAPE  C31519476   0.719   4.967   4.443  0.5482 -0.2227 -0.1142
  172SAPE  H15X19477   0.752   5.068   4.412 -0.4151  0.3494  0.6224
  172SAPE  H15Y19478   0.687   4.990   4.547  3.2552 -0.7681  0.9126
  172SAPE  C31619479   0.609   4.911   4.353 -0.0845  0.6365 -0.1559
  172SAPE  H16X19480   0.586   4.809   4.392 -0.4368  0.7332 -0.1058
  172SAPE  H16Y19481   0.654   4.898   4.252  0.1336 -2.6675  0.2593
  172SAPE  C31719482   0.483   4.994   4.379  0.3135 -0.1657  0.2514
  172SAPE  H17X19483   0.506   5.093   4.333  0.7274  0.0090  0.8356
  172SAPE  H17Y19484   0.470   5.019   4.486  2.9709  0.1247  0.5725
  172SAPE  C31819485   0.351   4.942   4.327  0.2973  0.0402  0.0251
  172SAPE  H18X19486   0.332   4.845   4.377  1.0355  0.2645  0.7676
  172SAPE  H18Y19487   0.361   4.941   4.216 -0.3901  0.6970 -0.0490
  172SAPE  H18Z19488   0.287   5.025   4.362 -0.1645 -0.5703  0.6424
  173SLPC     N19489   0.383   4.928   6.593 -0.2160  0.2066 -0.1603
  173SLPC   C1319490   0.269   4.833   6.594 -0.2211  0.4542 -0.2563
  173SLPC  H13A19491   0.292   4.732   6.564 -1.5862 -0.4427  1.5355
  173SLPC  H13B19492   0.231   4.822   6.695 -0.9788  1.2964 -0.4381
  173SLPC  H13C19493   0.185   4.882   6.548 -1.2950  1.0183  2.1584
  173SLPC   C1419494   0.438   4.944   6.455  0.0627 -0.7429  0.0426
  173SLPC  H14A19495   0.470   4.849   6.415 -1.9681 -0.5560 -2.2941
  173SLPC  H14B19496   0.362   4.979   6.387  0.4668  0.1526  0.0379
  173SLPC  H14C19497   0.525   5.008   6.463 -0.7753  0.3305  1.0313
  173SLPC   C1519498   0.492   4.876   6.676  0.1662  1.1973 -0.1943
  173SLPC  H15A19499   0.458   4.842   6.772  2.8400 -1.4131 -0.0528
  173SLPC  H15B19500   0.532   4.782   6.641 -1.0398  0.3014  0.7486
  173SLPC  H15C19501   0.573   4.945   6.688  0.8358  0.9939 -2.8161
  173SLPC   C1219502   0.335   5.050   6.668  0.4956 -0.5365 -0.0163
  173SLPC  H12A19503   0.414   5.121   6.685 -1.2410  1.7292 -0.9288
  173SLPC  H12B19504   0.310   5.013   6.766 -0.8454 -1.0287 -0.5107
  173SLPC   C1119505   0.215   5.133   6.609 -0.3658  0.0638  0.3693
  173SLPC  H11A19506   0.239   5.182   6.511  4.0335 -1.6572  0.3541
  173SLPC  H11B19507   0.205   5.224   6.672  2.0873 -0.0075  0.9591
  173SLPC     P19508  -0.010   5.034   6.711  0.0943  0.3605 -0.4891
  173SLPC   O1319509   0.015   4.895   6.757  0.0680  0.1840  0.1497
  173SLPC   O1419510  -0.010   5.145   6.817  0.6800  0.7387  0.1546
  173SLPC   O1219511   0.094   5.066   6.594 -0.1369  0.5639  0.3421
  173SLPC   O1119512  -0.151   5.047   6.646 -0.3551  0.0054  0.5085
  173SLPC    C119513  -0.157   5.049   6.502 -0.4310 -0.0874  0.0751
  173SLPC    HA19514  -0.082   5.119   6.460 -1.6432  1.4866  0.4416
  173SLPC    HB19515  -0.144   4.951   6.451 -3.2493  0.3498 -1.7577
  173SLPC    C219516  -0.296   5.109   6.453  0.3805 -0.5670  0.6357
  173SLPC    HS19517  -0.374   5.038   6.488 -1.1699  0.4898 -0.5457
  173SLPC   O2119518  -0.299   5.131   6.310 -0.2258 -0.7380  0.5152
  173SLPC   C2119519  -0.313   5.033   6.229  0.0636  0.0887  0.5751
  173SLPC   O2219520  -0.304   4.914   6.259  0.2568 -0.3131  0.3511
  173SLPC   C2219521  -0.352   5.087   6.094 -0.4772 -0.2782  0.1870
  173SLPC   H2R19522  -0.383   5.192   6.112 -0.3102  0.1505 -1.7966
  173SLPC   H2S19523  -0.252   5.079   6.045  0.1674 -0.1850  1.4563
  173SLPC    C319524  -0.325   5.248   6.529 -0.5706  0.2766 -0.0183
  173SLPC    HX19525  -0.260   5.315   6.469  0.9976 -0.6797  0.5446
  173SLPC    HY19526  -0.284   5.260   6.632 -1.2168 -0.6855  0.3641
  173SLPC   O3119527  -0.457   5.303   6.519  0.9540 -0.4096 -0.0372
  173SLPC   C3119528  -0.553   5.249   6.600  0.1180  1.2873 -0.5451
  173SLPC   O3219529  -0.522   5.165   6.683  0.1569  0.7202  0.1969
  173SLPC   C3219530  -0.694   5.311   6.558  0.3022  0.7918 -0.5878
  173SLPC   H2X19531  -0.703   5.302   6.447 -2.4366 -1.5674 -0.2935
  173SLPC   H2Y19532  -0.706   5.415   6.593 -2.3879  0.4027 -0.0799
  173SLPC   C2319533  -0.454   5.001   6.011  0.4021 -0.2520 -0.2797
  173SLPC   H3R19534  -0.553   4.998   6.061 -0.7689  0.4022 -2.4557
  173SLPC   H3S19535  -0.429   4.895   5.993 -0.2144 -0.1481 -1.9064
  173SLPC   C2419536  -0.475   5.059   5.873 -0.3910 -0.4295 -0.5550
  173SLPC   H4R19537  -0.539   5.149   5.878 -0.7252 -0.6881 -0.1291
  173SLPC   H4S19538  -0.537   4.987   5.815 -2.0177  1.7691 -1.6857
  173SLPC   C2519539  -0.359   5.104   5.787 -0.0676  0.2741  1.0795
  173SLPC   H5R19540  -0.286   5.024   5.762  0.1425  0.7735  0.0606
  173SLPC   H5S19541  -0.296   5.184   5.831  0.8452  1.0152 -1.4231
  173SLPC   C2619542  -0.387   5.157   5.642 -0.0241 -0.1678  0.6583
  173SLPC   H6R19543  -0.427   5.072   5.583 -2.0517  1.0980  0.1424
  173SLPC   H6S19544  -0.286   5.179   5.601 -0.5862 -0.7399 -1.1293
  173SLPC   C2719545  -0.493   5.267   5.629 -0.4980 -0.6359 -0.9231
  173SLPC   H7R19546  -0.470   5.351   5.698  0.5886 -0.1532 -1.8276
  173SLPC   H7S19547  -0.583   5.230   5.682  0.0546  1.8039  1.9598
  173SLPC   C2819548  -0.519   5.315   5.491  0.3042  0.0901 -0.4711
  173SLPC   H8R19549  -0.591   5.248   5.439 -2.6278  2.2656  0.5077
  173SLPC   H8S19550  -0.428   5.326   5.429 -1.0893  1.5656 -2.3976
  173SLPC   C2919551  -0.601   5.446   5.498 -0.2945  0.1553  0.0110
  173SLPC   H9R19552  -0.543   5.531   5.536  1.2270 -0.1832 -1.4421
  173SLPC  C21019553  -0.735   5.455   5.502  0.3049  0.1987 -0.3608
  173SLPC  H10R19554  -0.774   5.551   5.539  0.8661 -0.2375  1.4768
  173SLPC  C21119555  -0.845   5.355   5.487  0.0776  1.0826  0.2246
  173SLPC  H11R19556  -0.901   5.352   5.582 -1.4739 -0.7440 -0.6635
  173SLPC  H11S19557  -0.799   5.256   5.464  0.4890  0.5537  2.9630
  173SLPC  C21219558  -0.934   5.411   5.377  0.7163  0.7763 -0.4598
  173SLPC  H12R19559  -0.985   5.505   5.401 -2.0901 -1.4510  3.7814
  173SLPC  C21319560  -0.964   5.355   5.263  0.8079 -0.3222 -0.0261
  173SLPC  H13R19561  -1.044   5.408   5.210 -1.1339 -1.5998  1.4884
  173SLPC  C21419562  -0.918   5.227   5.195 -0.1868  0.2746 -0.3545
  173SLPC  H14R19563  -0.855   5.177   5.272 -0.5544  0.2268 -0.0820
  173SLPC  H14S19564  -0.850   5.243   5.109  0.2538 -0.5175 -0.1676
  173SLPC  C21519565  -1.030   5.128   5.166 -0.0641 -0.2255  0.0304
  173SLPC  H15R19566  -1.108   5.166   5.096  0.2010  0.4120  0.0716
  173SLPC  H15S19567  -1.092   5.112   5.257  0.0083 -1.1024 -0.0700
  173SLPC  C21619568  -0.980   4.998   5.117 -1.2201  0.0970  0.4096
  173SLPC  H16R19569  -0.941   4.953   5.211 -1.4582 -0.1289  0.4015
  173SLPC  H16S19570  -0.896   5.016   5.048  0.3727 -0.1000  2.2123
  173SLPC  C21719571  -1.080   4.892   5.064  0.7771  0.1884  0.7568
  173SLPC  H17R19572  -1.128   4.926   4.970 -1.5166  1.3913  2.2437
  173SLPC  H17S19573  -1.152   4.881   5.149 -1.3040  3.1197 -0.4572
  173SLPC  C21819574  -1.019   4.757   5.038  0.8557 -0.5072  0.4129
  173SLPC  H18R19575  -0.933   4.760   4.967  0.9885 -0.9928  0.5478
  173SLPC  H18S19576  -1.090   4.680   5.002 -2.3982  2.0929  0.7742
  173SLPC  H18T19577  -0.986   4.717   5.136 -1.4942  0.9165  1.8851
  173SLPC   C3319578  -0.819   5.245   6.627  0.0262 -0.1567 -0.6031
  173SLPC   H3X19579  -0.806   5.261   6.736 -2.3909 -0.8941 -0.1466
  173SLPC   H3Y19580  -0.847   5.140   6.607 -2.4524 -0.1861  2.3583
  173SLPC   C3419581  -0.950   5.311   6.578 -0.3408 -0.0973  0.4669
  173SLPC   H4X19582  -0.939   5.418   6.605  1.6117 -0.1208 -0.0885
  173SLPC   H4Y19583  -1.034   5.263   6.632 -0.0207  0.7216  1.7234
  173SLPC   C3519584  -0.967   5.296   6.427  0.0590  0.3280 -0.2099
  173SLPC   H5X19585  -0.964   5.187   6.407  1.2773  0.0925  1.0714
  173SLPC   H5Y19586  -0.882   5.340   6.370 -0.3652  0.7047 -0.5581
  173SLPC   C3619587  -1.098   5.352   6.375  0.4686 -0.4586 -0.0350
  173SLPC   H6X19588  -1.093   5.377   6.267 -1.5279 -0.3842 -0.1579
  173SLPC   H6Y19589  -1.119   5.443   6.436 -0.4219  0.3675 -1.5060
  173SLPC   C3719590  -1.211   5.259   6.377 -0.9887 -0.0858  0.7269
  173SLPC   H7X19591  -1.218   5.200   6.470 -1.1603  0.1342  0.8530
  173SLPC   H7Y19592  -1.189   5.190   6.292  1.8143  2.1572 -0.5571
  173SLPC   C3819593  -1.343   5.334   6.349 -0.5464 -0.3071 -0.3009
  173SLPC   H8X19594  -1.324   5.379   6.250  0.0197 -0.9771 -0.5020
  173SLPC   H8Y19595  -1.357   5.404   6.434 -2.7902 -2.5221  1.3251
  173SLPC   C3919596  -1.464   5.246   6.337  0.3805 -0.3809  0.1428
  173SLPC   H9X19597  -1.554   5.311   6.332  0.2119 -0.6538 -0.5955
  173SLPC   H9Y19598  -1.483   5.187   6.429 -1.6376  1.4435  0.9850
  173SLPC  C31019599  -1.450   5.156   6.216 -0.3577 -0.5654  0.4149
  173SLPC  H10X19600  -1.376   5.074   6.231 -0.8929 -0.7929  2.0432
  173SLPC  H10Y19601  -1.414   5.215   6.129  0.5279  0.8410  1.6744
  173SLPC  C31119602  -1.576   5.093   6.169  0.3782  0.4233 -0.2861
  173SLPC  H11X19603  -1.564   5.051   6.067  0.5838 -0.1481 -0.0303
  173SLPC  H11Y19604  -1.657   5.169   6.169  0.0011  0.0318 -0.8663
  173SLPC  C31219605  -1.630   4.976   6.251 -0.4598 -0.0200 -0.9263
  173SLPC  H12X19606  -1.633   5.014   6.356 -2.4414  2.2958 -1.7243
  173SLPC  H12Y19607  -1.571   4.882   6.245 -1.8489 -0.8497 -2.1337
  173SLPC  C31319608  -1.769   4.931   6.208  0.3495  0.1708  0.2463
  173SLPC  H13X19609  -1.758   4.871   6.115  0.1262  1.7760 -0.8581
  173SLPC  H13Y19610  -1.840   5.014   6.188 -0.2957 -1.0007 -3.0130
  173SLPC  C31419611  -1.850   4.850   6.314 -0.4903 -0.4814 -0.0210
  173SLPC  H14X19612  -1.842   4.901   6.413  3.6381 -2.7742  1.0313
  173SLPC  H14Y19613  -1.793   4.758   6.336 -0.5843 -1.1473 -2.3713
  173SLPC  C31519614  -1.983   4.813   6.266  0.2357 -0.1629  0.0249
  173SLPC  H15X19615  -2.034   4.748   6.341  0.5718  1.2591  1.5407
  173SLPC  H15Y19616  -1.987   4.741   6.181  0.3720  0.1351 -0.2345
  173SLPC  C31619617  -2.085   4.924   6.255 -0.3787 -0.1880  0.4819
  173SLPC  H16X19618  -2.081   4.949   6.147 -1.5087 -1.9732 -0.0145
  173SLPC  H16Y19619  -2.048   5.010   6.314  1.0820  0.2108 -0.9507
  173SLPC  C31719620  -2.227   4.887   6.292  0.1540 -0.0684 -0.7479
  173SLPC  H17X19621  -2.258   4.793   6.243 -1.2957  0.2388 -0.4615
  173SLPC  H17Y19622  -2.279   4.978   6.255  1.6805  1.8757  1.5846
  173SLPC  C31819623  -2.247   4.875   6.440 -1.1200 -0.1635  0.6344
  173SLPC  H18X19624  -2.204   4.785   6.489  3.4530  1.4502  0.0328
  173SLPC  H18Y19625  -2.357   4.881   6.455 -1.4591  2.5323 -2.0554
  173SLPC  H18Z19626  -2.200   4.962   6.491  0.7021 -0.2314 -0.8305
  174SLPC     N19627   5.015   0.796   6.801  0.2802  0.9339  0.0265
  174SLPC   C1319628   5.115   0.823   6.697  0.8570  0.0423 -0.0525
  174SLPC  H13A19629   5.213   0.789   6.728  0.5918 -1.1466 -0.4760
  174SLPC  H13B19630   5.092   0.772   6.605  0.9706  1.0338 -0.6356
  174SLPC  H13C19631   5.120   0.928   6.674  0.4573  0.2491  0.7699
  174SLPC   C1419632   5.068   0.858   6.925 -0.0628 -0.0936 -0.0172
  174SLPC  H14A19633   5.072   0.966   6.917  0.8392 -0.2035 -1.2539
  174SLPC  H14B19634   5.004   0.847   7.012 -0.2775  0.1424 -0.1452
  174SLPC  H14C19635   5.164   0.822   6.957  0.4364 -0.3327 -1.7281
  174SLPC   C1519636   5.007   0.649   6.831  1.2451  0.2444 -0.3524
  174SLPC  H15A19637   5.069   0.612   6.911  1.0458 -0.8310 -0.6710
  174SLPC  H15B19638   4.905   0.621   6.856  0.7516  1.9264 -0.3791
  174SLPC  H15C19639   5.039   0.590   6.746  0.3276 -0.3259 -0.3262
  174SLPC   C1219640   4.876   0.846   6.761 -0.1568 -0.0883 -0.3452
  174SLPC  H12A19641   4.797   0.819   6.829  0.6081  0.7668  0.9181
  174SLPC  H12B19642   4.850   0.792   6.671  1.1176 -1.3871  0.0323
  174SLPC   C1119643   4.870   1.000   6.743 -0.3106  0.2266 -0.1814
  174SLPC  H11A19644   4.945   1.037   6.670  0.0310  1.0877  0.5824
  174SLPC  H11B19645   4.886   1.048   6.842  0.6765 -0.7921  0.1737
  174SLPC     P19646   4.698   1.140   6.587  0.1724 -0.1568 -0.3567
  174SLPC   O1319647   4.584   1.212   6.630 -0.0026 -0.0107 -0.1246
  174SLPC   O1419648   4.813   1.223   6.548 -0.0759 -0.0352 -0.6217
  174SLPC   O1219649   4.732   1.038   6.702 -0.1433 -0.3963  0.6069
  174SLPC   O1119650   4.659   1.055   6.458 -0.0175  0.9873  0.2660
  174SLPC    C119651   4.627   0.916   6.449  0.2261  0.9813  0.2499
  174SLPC    HA19652   4.650   0.864   6.545 -1.7076 -0.4889 -0.0287
  174SLPC    HB19653   4.517   0.906   6.439 -0.0185 -0.1179  3.0145
  174SLPC    C219654   4.699   0.851   6.327  0.7457  0.3686 -0.2185
  174SLPC    HS19655   4.693   0.740   6.333 -0.1159  0.3885 -0.5788
  174SLPC   O2119656   4.829   0.911   6.318 -0.6430  0.0111 -0.3737
  174SLPC   C2119657   4.926   0.852   6.398  0.1907 -0.3539 -0.3671
  174SLPC   O2219658   4.903   0.761   6.477 -0.3812 -0.1254  0.3526
  174SLPC   C2219659   5.067   0.891   6.353 -0.0666  0.1443  0.5980
  174SLPC   H2R19660   5.059   0.976   6.282 -2.9497 -1.0134 -0.6368
  174SLPC   H2S19661   5.127   0.911   6.444 -0.0257  2.7227  0.0863
  174SLPC    C319662   4.633   0.892   6.199  0.6545 -0.4665  0.0939
  174SLPC    HX19663   4.640   1.002   6.188 -0.3957 -0.3069  0.8627
  174SLPC    HY19664   4.526   0.873   6.218  0.7309 -0.8649  0.1334
  174SLPC   O3119665   4.688   0.819   6.084  0.2895  0.4788 -0.2754
  174SLPC   C3119666   4.652   0.690   6.075  0.5604  0.4142  1.1199
  174SLPC   O3219667   4.552   0.644   6.130  0.0494 -0.4125  0.4130
  174SLPC   C3219668   4.732   0.611   5.979  0.3806  0.1023 -0.9253
  174SLPC   H2X19669   4.822   0.578   6.035 -1.0789 -0.6116  1.1179
  174SLPC   H2Y19670   4.759   0.669   5.888  3.6790 -0.6710 -0.5598
  174SLPC   C2319671   5.140   0.768   6.283 -0.0361 -0.0727  0.6854
  174SLPC   H3R19672   5.157   0.687   6.356 -0.8233 -0.7318  0.1584
  174SLPC   H3S19673   5.245   0.794   6.257  0.1537 -1.7459 -0.3919
  174SLPC   C2419674   5.068   0.735   6.158 -0.0759  0.9429 -0.0320
  174SLPC   H4R19675   5.056   0.823   6.091 -3.2072  2.2780  2.0155
  174SLPC   H4S19676   4.969   0.692   6.183 -0.1535  1.3812  0.4286
  174SLPC   C2519677   5.147   0.620   6.100  0.1770  0.7227 -0.3108
  174SLPC   H5R19678   5.117   0.533   6.162  0.0417  2.0477  1.6116
  174SLPC   H5S19679   5.256   0.624   6.124  0.0061 -0.4396  0.7755
  174SLPC   C2619680   5.131   0.579   5.955 -0.3168  0.5231 -0.5544
  174SLPC   H6R19681   5.027   0.585   5.918  0.1072  0.1118 -1.8758
  174SLPC   H6S19682   5.170   0.475   5.951  0.1732  0.6315  0.7630
  174SLPC   C2719683   5.204   0.672   5.856  0.3120  0.6265  0.7395
  174SLPC   H7R19684   5.310   0.657   5.882  0.8932  2.0422 -0.6305
  174SLPC   H7S19685   5.170   0.778   5.860 -0.0721  0.5650 -0.4771
  174SLPC   C2819686   5.168   0.614   5.719 -0.3732 -0.6551 -0.1160
  174SLPC   H8R19687   5.059   0.604   5.706 -0.2054 -1.1992 -1.1475
  174SLPC   H8S19688   5.206   0.509   5.715 -1.5508 -1.3493  3.3237
  174SLPC   C2919689   5.226   0.705   5.612 -0.4993  0.2212 -0.5917
  174SLPC   H9R19690   5.227   0.813   5.636 -0.3773  0.0757  0.0998
  174SLPC  C21019691   5.294   0.656   5.505  0.1117  0.2280 -1.0897
  174SLPC  H10R19692   5.335   0.739   5.445  1.4049  0.5530  0.1876
  174SLPC  C21119693   5.323   0.508   5.470 -0.7281 -0.4185 -0.0845
  174SLPC  H11R19694   5.297   0.436   5.550 -1.9276  0.7135  0.5789
  174SLPC  H11S19695   5.432   0.493   5.455 -1.0205 -1.6386 -1.1890
  174SLPC  C21219696   5.260   0.465   5.344 -0.3246  0.3952  0.2992
  174SLPC  H12R19697   5.179   0.393   5.359 -3.4646  3.2463 -1.6039
  174SLPC  C21319698   5.268   0.515   5.222  0.3212 -0.2272  0.0630
  174SLPC  H13R19699   5.196   0.482   5.146 -0.0436  2.8508 -1.1068
  174SLPC  C21419700   5.357   0.629   5.175 -0.2428 -0.6052 -0.5283
  174SLPC  H14R19701   5.417   0.606   5.085  1.2193 -1.1911  0.5538
  174SLPC  H14S19702   5.437   0.646   5.251 -0.4084  2.2169 -0.8695
  174SLPC  C21519703   5.268   0.756   5.158  0.9360  0.5437  0.3010
  174SLPC  H15R19704   5.231   0.803   5.252 -1.1247  1.8420 -1.0973
  174SLPC  H15S19705   5.184   0.727   5.093  1.5772 -2.2078  0.5490
  174SLPC  C21619706   5.346   0.866   5.093  0.4481 -0.3442 -0.1060
  174SLPC  H16R19707   5.423   0.833   5.019  0.1261 -0.3784 -0.4278
  174SLPC  H16S19708   5.405   0.898   5.181 -0.5565 -0.3158  0.5722
  174SLPC  C21719709   5.265   0.983   5.041 -0.0145  0.3290 -0.3290
  174SLPC  H17R19710   5.331   1.072   5.033 -0.1142  0.3923 -0.4552
  174SLPC  H17S19711   5.182   1.007   5.111 -1.1071 -1.8899 -0.7794
  174SLPC  C21819712   5.203   0.974   4.899  0.0166  0.1682 -0.0673
  174SLPC  H18R19713   5.282   0.944   4.826  0.5044  2.4395 -0.5520
  174SLPC  H18S19714   5.166   1.073   4.866  2.9670  2.2601  2.2765
  174SLPC  H18T19715   5.122   0.898   4.891  0.2796 -0.0744 -0.4755
  174SLPC   C3319716   4.656   0.486   5.943 -0.3581  0.2893 -0.1784
  174SLPC   H3X19717   4.560   0.520   5.898 -0.8942 -0.7986  0.0851
  174SLPC   H3Y19718   4.641   0.414   6.027  2.3090 -1.6381 -1.2053
  174SLPC   C3419719   4.743   0.399   5.851 -0.4699  0.1398 -0.1038
  174SLPC   H4X19720   4.716   0.292   5.861  0.5400  0.0798  2.5098
  174SLPC   H4Y19721   4.848   0.387   5.884 -0.6422  1.5008  1.0211
  174SLPC   C3519722   4.731   0.439   5.703  0.4691 -0.4250  0.1311
  174SLPC   H5X19723   4.795   0.530   5.694  0.6710 -0.5146  0.6049
  174SLPC   H5Y19724   4.629   0.481   5.691  0.1967 -1.4103 -1.2668
  174SLPC   C3619725   4.777   0.332   5.602 -0.3176 -0.4075  0.2071
  174SLPC   H6X19726   4.701   0.252   5.587  0.0056 -0.4387 -1.4876
  174SLPC   H6Y19727   4.863   0.269   5.636 -0.1008 -0.3838 -0.2803
  174SLPC   C3719728   4.821   0.382   5.467 -0.5457 -0.2403  0.4022
  174SLPC   H7X19729   4.931   0.400   5.466 -0.8975  2.5704 -1.7400
  174SLPC   H7Y19730   4.782   0.485   5.455  1.1616  0.4837  0.7445
  174SLPC   C3819731   4.788   0.287   5.341 -0.2021  0.0650 -0.0006
  174SLPC   H8X19732   4.679   0.278   5.323 -0.3520  3.2240 -1.3294
  174SLPC   H8Y19733   4.827   0.184   5.355  0.7884  0.4574  0.2651
  174SLPC   C3919734   4.852   0.332   5.211  0.2856  0.4557  0.2529
  174SLPC   H9X19735   4.962   0.327   5.224  0.6089  0.5531 -1.9957
  174SLPC   H9Y19736   4.823   0.431   5.170  3.0129  0.7670 -1.1552
  174SLPC  C31019737   4.812   0.232   5.102 -0.6332  0.5349  0.1194
  174SLPC  H10X19738   4.702   0.222   5.117 -0.1611 -1.7611  3.0963
  174SLPC  H10Y19739   4.847   0.131   5.133  0.5610  0.8670 -0.0893
  174SLPC  C31119740   4.854   0.254   4.955  0.4429  0.1344 -0.6652
  174SLPC  H11X19741   4.798   0.342   4.916 -0.4732  0.9786  2.2892
  174SLPC  H11Y19742   4.843   0.167   4.887  2.3562  0.4421 -1.4499
  174SLPC  C31219743   5.000   0.303   4.946  0.1105  0.1815  0.3998
  174SLPC  H12X19744   5.062   0.233   5.006 -1.0673  1.3028  3.1151
  174SLPC  H12Y19745   5.004   0.406   4.986 -0.9508 -0.0759  1.2323
  174SLPC  C31319746   5.064   0.296   4.799  0.4280 -0.4798 -0.3172
  174SLPC  H13X19747   5.004   0.365   4.736  0.4830 -0.4051 -0.2882
  174SLPC  H13Y19748   5.052   0.203   4.740  1.0442 -0.3672 -0.6275
  174SLPC  C31419749   5.205   0.349   4.797 -0.2173  0.0159 -0.3891
  174SLPC  H14X19750   5.269   0.294   4.870 -1.0784  0.3404  0.6448
  174SLPC  H14Y19751   5.212   0.458   4.819  0.7967 -0.2252  0.6063
  174SLPC  C31519752   5.280   0.319   4.671  0.1193 -0.6790  0.0372
  174SLPC  H15X19753   5.249   0.227   4.617 -0.0874 -0.5213 -0.1177
  174SLPC  H15Y19754   5.388   0.312   4.696  0.6585 -1.1064 -2.1613
  174SLPC  C31619755   5.266   0.438   4.565  0.4620 -0.4540 -0.0736
  174SLPC  H16X19756   5.360   0.435   4.506  0.5375 -2.1801  0.0969
  174SLPC  H16Y19757   5.267   0.533   4.623 -1.4654 -1.8493  2.4447
  174SLPC  C31719758   5.143   0.424   4.476  0.2983 -0.4778  0.2479
  174SLPC  H17X19759   5.057   0.450   4.542  0.4743 -1.4597  0.8822
  174SLPC  H17Y19760   5.137   0.317   4.446 -1.1204 -0.4348  0.3070
  174SLPC  C31819761   5.139   0.511   4.351  0.0429  0.7817 -0.0408
  174SLPC  H18X19762   5.232   0.496   4.292 -0.4234 -2.2317 -0.1444
  174SLPC  H18Y19763   5.140   0.619   4.378 -1.4473  1.2342 -1.6453
  174SLPC  H18Z19764   5.051   0.496   4.286 -0.4007  3.4231 -0.1886
  175SLPC     N19765   0.609   1.070   6.490  0.0929  0.4684 -0.4551
  175SLPC   C1319766   0.517   1.019   6.604 -1.5683  0.2119  0.1563
  175SLPC  H13A19767   0.417   1.033   6.567 -1.3254 -2.2319 -1.7368
  175SLPC  H13B19768   0.540   0.917   6.632  0.8535  0.7573  0.3831
  175SLPC  H13C19769   0.545   1.074   6.692  0.8990 -1.3501  0.4429
  175SLPC   C1419770   0.600   1.217   6.470 -0.3252 -0.2026  0.5554
  175SLPC  H14A19771   0.653   1.245   6.380  0.6851 -0.7577  0.9566
  175SLPC  H14B19772   0.502   1.258   6.449  0.1237  0.1540 -0.9511
  175SLPC  H14C19773   0.649   1.274   6.548  2.3260 -1.3173 -0.1793
  175SLPC   C1519774   0.570   1.002   6.366  0.3514 -0.2782  0.2269
  175SLPC  H15A19775   0.610   1.041   6.273 -1.4031  1.0532 -0.0268
  175SLPC  H15B19776   0.589   0.896   6.371  2.7372  0.0889  0.0284
  175SLPC  H15C19777   0.464   1.006   6.344  0.0583  1.0603  1.6902
  175SLPC   C1219778   0.751   1.032   6.522 -0.3305  0.2544  0.2011
  175SLPC  H12A19779   0.804   1.068   6.435  2.6606 -0.0356  1.7384
  175SLPC  H12B19780   0.759   0.925   6.523  0.0466  0.2798  1.1184
  175SLPC   C1119781   0.817   1.095   6.648  0.9998 -0.5802  0.9992
  175SLPC  H11A19782   0.921   1.059   6.663  1.1879  0.4960  2.4908
  175SLPC  H11B19783   0.763   1.056   6.736 -0.7482 -0.7029 -0.0787
  175SLPC     P19784   0.794   1.311   6.785 -0.2360  0.1788  0.0319
  175SLPC   O1319785   0.780   1.216   6.894  0.3964 -0.1937 -0.4038
  175SLPC   O1419786   0.904   1.407   6.801 -0.2195 -0.2564 -0.2314
  175SLPC   O1219787   0.831   1.237   6.649 -0.1390 -0.1503 -0.5165
  175SLPC   O1119788   0.665   1.394   6.747  0.4076  0.0979 -0.0970
  175SLPC    C119789   0.675   1.500   6.651  0.6141 -0.5178  0.1703
  175SLPC    HA19790   0.723   1.585   6.704 -0.2870 -0.6761  1.2849
  175SLPC    HB19791   0.721   1.466   6.556  1.2181  1.0542 -0.1295
  175SLPC    C219792   0.534   1.549   6.608  0.9395 -0.3511 -0.8726
  175SLPC    HS19793   0.497   1.586   6.706  0.8574 -3.6951  0.5100
  175SLPC   O2119794   0.448   1.443   6.550  0.2952 -0.0866 -0.5226
  175SLPC   C2119795   0.316   1.464   6.572 -0.0629 -0.1182 -0.7840
  175SLPC   O2219796   0.267   1.541   6.653  0.0017 -0.6829  0.6627
  175SLPC   C2219797   0.247   1.376   6.470  0.2414  0.0561 -0.3643
  175SLPC   H2R19798   0.276   1.270   6.487 -3.4250 -1.3476 -1.7048
  175SLPC   H2S19799   0.136   1.381   6.479  0.1941  1.4099 -1.3968
  175SLPC    C319800   0.545   1.667   6.512  0.4527 -0.9702  0.1191
  175SLPC    HX19801   0.586   1.760   6.557 -1.7876  1.1609 -1.9313
  175SLPC    HY19802   0.448   1.702   6.472  0.6075 -0.8316 -0.1451
  175SLPC   O3119803   0.638   1.619   6.407 -0.2314 -0.2506  0.8788
  175SLPC   C3119804   0.645   1.696   6.302 -0.3421  0.2749 -0.5169
  175SLPC   O3219805   0.578   1.794   6.283  0.7462  1.3781  0.0199
  175SLPC   C3219806   0.752   1.634   6.206  0.0940 -0.4380  0.3473
  175SLPC   H2X19807   0.701   1.633   6.107  1.4458 -0.7068 -0.3696
  175SLPC   H2Y19808   0.765   1.526   6.231  1.2981 -0.5943 -0.8324
  175SLPC   C2319809   0.276   1.412   6.324  0.2811 -0.4374 -0.4973
  175SLPC   H3R19810   0.377   1.455   6.307  0.3104 -0.6209 -0.7915
  175SLPC   H3S19811   0.212   1.496   6.290  2.6151  0.9177 -1.8103
  175SLPC   C2419812   0.272   1.291   6.233  0.0768  0.4374 -0.5591
  175SLPC   H4R19813   0.174   1.241   6.245  0.2748  0.4702  1.7505
  175SLPC   H4S19814   0.339   1.213   6.275 -1.2058 -0.1118  0.5305
  175SLPC   C2519815   0.323   1.318   6.096  0.3183  0.0604  0.7414
  175SLPC   H5R19816   0.432   1.333   6.108  0.4105  1.5643 -1.3436
  175SLPC   H5S19817   0.282   1.413   6.057 -0.8039 -0.4239  0.7026
  175SLPC   C2619818   0.286   1.201   6.003  0.1945 -0.0040 -0.0160
  175SLPC   H6R19819   0.185   1.166   6.034 -0.3024  1.6702  0.3425
  175SLPC   H6S19820   0.360   1.122   6.029  0.3591  0.6933  1.8116
  175SLPC   C2719821   0.293   1.231   5.854  0.2810 -0.2546  0.0472
  175SLPC   H7R19822   0.396   1.258   5.822  0.0548 -2.0986 -2.4623
  175SLPC   H7S19823   0.216   1.309   5.834 -1.1039 -1.4604  0.5221
  175SLPC   C2819824   0.265   1.108   5.768  0.2637 -0.1627  0.4748
  175SLPC   H8R19825   0.271   1.140   5.662 -1.8906  4.2798  1.4596
  175SLPC   H8S19826   0.159   1.072   5.770  0.1565  0.1410  0.2623
  175SLPC   C2919827   0.338   0.979   5.792 -0.1748  0.0617 -0.9129
  175SLPC   H9R19828   0.293   0.921   5.874 -1.1149  2.6454  0.5197
  175SLPC  C21019829   0.448   0.934   5.720  0.3897  0.0761 -0.8209
  175SLPC  H10R19830   0.496   0.840   5.749 -0.3850  0.3838  1.7260
  175SLPC  C21119831   0.508   1.021   5.608  0.6601 -0.1124 -0.6187
  175SLPC  H11R19832   0.611   0.990   5.581  1.2478 -0.6050  1.8986
  175SLPC  H11S19833   0.511   1.128   5.635  0.1870 -0.4023  0.6557
  175SLPC  C21219834   0.422   1.005   5.486  1.1068 -1.0721  0.7396
  175SLPC  H12R19835   0.375   0.906   5.472  2.6136 -1.6262 -0.6545
  175SLPC  C21319836   0.399   1.101   5.384  0.1203 -0.2065 -0.2812
  175SLPC  H13R19837   0.359   1.063   5.289 -2.8268 -3.8502  2.1164
  175SLPC  C21419838   0.481   1.223   5.370  0.1929 -0.6505  0.3181
  175SLPC  H14R19839   0.496   1.272   5.469  0.1065  0.6927 -0.3232
  175SLPC  H14S19840   0.424   1.299   5.312 -1.7452  0.1421  3.0486
  175SLPC  C21519841   0.609   1.177   5.305 -0.0738  0.5265  0.0223
  175SLPC  H15R19842   0.650   1.093   5.366 -2.0022 -1.7666 -1.6156
  175SLPC  H15S19843   0.695   1.246   5.290  1.8447 -2.2274 -3.4560
  175SLPC  C21619844   0.589   1.113   5.166 -0.1676  0.2163  0.6200
  175SLPC  H16R19845   0.552   1.185   5.089  2.3775 -0.5398 -1.4471
  175SLPC  H16S19846   0.523   1.024   5.175 -0.1395  0.0574 -0.5859
  175SLPC  C21719847   0.717   1.060   5.093 -1.0961  0.2492  1.3628
  175SLPC  H17R19848   0.747   0.969   5.149 -2.8312 -1.7981 -0.8008
  175SLPC  H17S19849   0.800   1.132   5.107 -0.8358  0.2636 -0.0507
  175SLPC  C21819850   0.701   1.028   4.944  0.2836  0.6630  0.5291
  175SLPC  H18R19851   0.610   0.968   4.922  1.0969 -0.3849 -0.0346
  175SLPC  H18S19852   0.785   0.973   4.897 -0.7065 -1.0480  0.6818
  175SLPC  H18T19853   0.678   1.123   4.891  1.0946 -0.6228 -2.3264
  175SLPC   C3319854   0.878   1.723   6.172  0.0683 -0.3414  0.2730
  175SLPC   H3X19855   0.941   1.655   6.110 -0.0504  1.3037 -1.7558
  175SLPC   H3Y19856   0.926   1.752   6.268 -1.4456 -1.4776  1.4233
  175SLPC   C3419857   0.858   1.853   6.091 -0.2051  0.7796 -0.3245
  175SLPC   H4X19858   0.948   1.918   6.094  0.6167 -0.2828  2.9192
  175SLPC   H4Y19859   0.780   1.911   6.144 -0.3310 -0.3806  0.8094
  175SLPC   C3519860   0.824   1.820   5.943 -0.3171  0.9988 -0.6341
  175SLPC   H5X19861   0.730   1.760   5.938  1.2086 -1.4104 -2.2092
  175SLPC   H5Y19862   0.909   1.758   5.907 -0.2994 -0.3787  1.5654
  175SLPC   C3619863   0.818   1.943   5.849  0.6520  0.9793  0.5089
  175SLPC   H6X19864   0.920   1.985   5.854  1.1634 -0.2340  0.4806
  175SLPC   H6Y19865   0.733   2.012   5.872 -2.0709 -1.9707  0.0619
  175SLPC   C3719866   0.802   1.901   5.694 -0.0545 -0.0479  0.6183
  175SLPC   H7X19867   0.713   1.835   5.690  1.4998 -2.2266 -1.5719
  175SLPC   H7Y19868   0.881   1.830   5.659 -0.4446 -0.4555  0.5506
  175SLPC   C3819869   0.798   2.025   5.611  0.5874  0.1026  0.7054
  175SLPC   H8X19870   0.898   2.048   5.569  1.2747 -2.0034  1.0432
  175SLPC   H8Y19871   0.762   2.105   5.679  0.5923  1.2484 -0.6026
  175SLPC   C3919872   0.707   2.015   5.481 -0.1978  0.5081 -0.0185
  175SLPC   H9X19873   0.604   2.025   5.521 -0.7149 -2.9329 -0.2431
  175SLPC   H9Y19874   0.722   1.916   5.433  1.1824  0.0103  1.3627
  175SLPC  C31019875   0.727   2.133   5.381  0.1959  0.1020 -0.2861
  175SLPC  H10X19876   0.740   2.224   5.444  0.3681  1.3615 -2.0719
  175SLPC  H10Y19877   0.631   2.146   5.326 -0.1890  1.6425  0.6875
  175SLPC  C31119878   0.848   2.113   5.295 -0.1451 -0.3213  0.4055
  175SLPC  H11X19879   0.918   2.042   5.344 -1.4613 -1.9351  0.0437
  175SLPC  H11Y19880   0.907   2.206   5.283 -0.9608  0.1672  0.0917
  175SLPC  C31219881   0.820   2.062   5.152 -0.1601 -0.1616 -0.0718
  175SLPC  H12X19882   0.732   1.994   5.152 -1.0640  0.8373  3.0757
  175SLPC  H12Y19883   0.911   2.014   5.112  1.0195  0.6379  1.5392
  175SLPC  C31319884   0.794   2.183   5.063  0.6097 -0.0025  0.3861
  175SLPC  H13X19885   0.870   2.261   5.083  0.3489  0.5522 -0.7394
  175SLPC  H13Y19886   0.694   2.224   5.089  0.8957  0.9738 -0.0187
  175SLPC  C31419887   0.789   2.146   4.912  0.5857 -0.1812 -0.1641
  175SLPC  H14X19888   0.742   2.234   4.863  1.8138  0.4331 -0.2976
  175SLPC  H14Y19889   0.736   2.054   4.881  0.2515 -0.8052  2.1133
  175SLPC  C31519890   0.927   2.141   4.844  0.4988 -0.6859 -0.0725
  175SLPC  H15X19891   0.994   2.058   4.873  1.8836  0.3573 -0.1688
  175SLPC  H15Y19892   0.973   2.235   4.882  1.7879 -1.7882  1.2437
  175SLPC  C31619893   0.944   2.157   4.694 -0.2012 -0.0218  0.2479
  175SLPC  H16X19894   0.932   2.059   4.642  2.4489 -0.6816  0.7343
  175SLPC  H16Y19895   1.051   2.182   4.683 -0.1669 -0.2259  0.1217
  175SLPC  C31719896   0.861   2.262   4.623 -0.1876 -0.2090  0.5885
  175SLPC  H17X19897   0.840   2.354   4.681 -1.0583  0.3933 -0.6397
  175SLPC  H17Y19898   0.763   2.214   4.603 -0.1671  0.4287 -1.2593
  175SLPC  C31819899   0.915   2.309   4.487 -0.2630  0.4011  0.1960
  175SLPC  H18X19900   1.016   2.352   4.498 -0.0776  0.2253 -0.7408
  175SLPC  H18Y19901   0.841   2.379   4.441  0.7193  1.1326 -0.2933
  175SLPC  H18Z19902   0.922   2.226   4.414  2.0638  1.0816 -0.4444
  176SLPC     N19903   0.164   0.079   6.727 -0.0424 -0.0138 -0.0685
  176SLPC   C1319904   0.036   0.085   6.802  0.1196 -0.3632  0.1524
  176SLPC  H13A19905   0.035   0.159   6.880  0.1778 -0.2560  0.0499
  176SLPC  H13B19906  -0.050   0.087   6.736  1.0102 -0.2333 -1.0268
  176SLPC  H13C19907   0.018  -0.006   6.859 -3.3008  0.0892  0.0326
  176SLPC   C1419908   0.179  -0.050   6.658 -0.4446  0.6016  0.2589
  176SLPC  H14A19909   0.094  -0.059   6.591 -1.9504  0.7247  2.0491
  176SLPC  H14B19910   0.271  -0.061   6.602 -0.5035 -1.5863  0.5126
  176SLPC  H14C19911   0.184  -0.133   6.726 -2.0423  0.1892 -0.0781
  176SLPC   C1519912   0.291   0.090   6.814  1.0835 -0.8609 -0.1389
  176SLPC  H15A19913   0.289   0.173   6.883  3.0751 -0.0693 -0.9523
  176SLPC  H15B19914   0.300  -0.002   6.871  0.4310 -2.3857 -2.3622
  176SLPC  H15C19915   0.379   0.097   6.752  0.9040  0.8478 -0.2346
  176SLPC   C1219916   0.166   0.199   6.633  0.1367 -0.2822  0.5788
  176SLPC  H12A19917   0.262   0.202   6.584 -0.7488  1.8567 -1.1833
  176SLPC  H12B19918   0.171   0.292   6.686 -1.1084 -0.4931  1.1021
  176SLPC   C1119919   0.066   0.221   6.517 -0.7058  0.1780 -0.6739
  176SLPC  H11A19920   0.084   0.321   6.473  0.1173 -0.2388 -1.3262
  176SLPC  H11B19921  -0.036   0.227   6.560 -0.0962  1.0642  0.6874
  176SLPC     P19922   0.197   0.103   6.317  0.0787 -0.5250  0.3495
  176SLPC   O1319923   0.314   0.196   6.346  0.1668  0.0037  0.2029
  176SLPC   O1419924   0.239  -0.039   6.291 -0.0307  0.2520  0.4222
  176SLPC   O1219925   0.080   0.118   6.424  0.3791 -0.3740  0.0608
  176SLPC   O1119926   0.122   0.166   6.201 -0.6664 -0.7653 -0.4183
  176SLPC    C119927   0.160   0.174   6.061  0.4320  0.3977 -0.8989
  176SLPC    HA19928   0.109   0.264   6.020 -1.3396 -0.0087  0.3205
  176SLPC    HB19929   0.268   0.199   6.058  0.7891 -0.6186  1.4452
  176SLPC    C219930   0.113   0.050   5.983  0.3604 -0.5504 -0.3999
  176SLPC    HS19931   0.176  -0.034   6.019 -0.6607 -0.5654  1.4464
  176SLPC   O2119932   0.127   0.063   5.838 -0.1767  0.2650 -0.2637
  176SLPC   C2119933   0.247   0.072   5.785  0.1610  0.4075 -0.1917
  176SLPC   O2219934   0.348   0.081   5.849  0.1111  0.2589 -0.3422
  176SLPC   C2219935   0.231   0.076   5.628  0.1617  0.1431 -0.3111
  176SLPC   H2R19936   0.171  -0.014   5.605  0.3436 -0.7748  2.3980
  176SLPC   H2S19937   0.168   0.164   5.605  1.9784  1.9280  1.1198
  176SLPC    C319938  -0.036   0.029   6.015 -0.1337 -0.3591  0.0289
  176SLPC    HX19939  -0.078   0.131   5.998 -2.4987 -1.3176 -0.2461
  176SLPC    HY19940  -0.044   0.011   6.124 -0.5359  1.7551  0.3886
  176SLPC   O3119941  -0.106  -0.072   5.935  0.4422 -0.3097 -0.3867
  176SLPC   C3119942  -0.064  -0.195   5.955 -0.0236  0.3071 -0.1351
  176SLPC   O3219943   0.028  -0.218   6.036 -0.0316  0.0021  0.1294
  176SLPC   C3219944  -0.150  -0.300   5.880 -0.3487 -0.5360  0.2666
  176SLPC   H2X19945  -0.258  -0.291   5.904 -0.4155  0.2300 -0.2693
  176SLPC   H2Y19946  -0.130  -0.400   5.923 -1.2527 -0.3874  1.0599
  176SLPC   C2319947   0.363   0.062   5.548  0.4954  0.4759  0.0281
  176SLPC   H3R19948   0.453   0.037   5.608  1.5363 -0.8716 -1.9819
  176SLPC   H3S19949   0.380   0.156   5.490  0.1215 -0.1696 -1.1783
  176SLPC   C2419950   0.357  -0.035   5.427  0.3735 -0.3941  0.2322
  176SLPC   H4R19951   0.431  -0.007   5.349 -2.1532  3.1199 -1.1994
  176SLPC   H4S19952   0.258  -0.019   5.380  0.4419  0.2517  0.2859
  176SLPC   C2519953   0.393  -0.176   5.467 -0.2812 -0.0416 -0.0502
  176SLPC   H5R19954   0.304  -0.206   5.527 -0.6586 -2.8642 -1.8409
  176SLPC   H5S19955   0.489  -0.194   5.518  0.9175  0.3474 -2.0645
  176SLPC   C2619956   0.394  -0.264   5.346  0.0631  0.7957 -0.0905
  176SLPC   H6R19957   0.452  -0.225   5.259 -0.7283 -0.9462 -1.4530
  176SLPC   H6S19958   0.286  -0.283   5.326 -0.0519  2.2150 -0.9782
  176SLPC   C2719959   0.441  -0.405   5.370 -0.4420  0.0369 -0.8257
  176SLPC   H7R19960   0.384  -0.482   5.315  1.8676 -1.7921 -0.8169
  176SLPC   H7S19961   0.439  -0.422   5.480  0.7660 -1.0580 -0.9482
  176SLPC   C2819962   0.586  -0.429   5.315 -0.5634 -0.0678  0.0194
  176SLPC   H8R19963   0.637  -0.347   5.370 -1.9133  0.0405  1.1768
  176SLPC   H8S19964   0.581  -0.402   5.207 -0.5243  1.5535  0.3904
  176SLPC   C2919965   0.651  -0.563   5.337 -0.4109  0.0411 -0.4287
  176SLPC   H9R19966   0.696  -0.566   5.438 -0.4168 -0.9492 -0.4524
  176SLPC  C21019967   0.666  -0.666   5.250 -0.3529 -0.6375  0.0624
  176SLPC  H10R19968   0.728  -0.752   5.279 -1.8056 -1.1488  1.8668
  176SLPC  C21119969   0.606  -0.655   5.112 -0.0600  1.1542  0.0480
  176SLPC  H11R19970   0.654  -0.567   5.065 -0.2841  1.8009  1.0222
  176SLPC  H11S19971   0.496  -0.652   5.120 -0.2647 -1.7317 -0.4125
  176SLPC  C21219972   0.644  -0.765   5.017 -0.1060 -0.3567 -0.0773
  176SLPC  H12R19973   0.751  -0.761   4.992 -0.0098 -0.0125  0.3759
  176SLPC  C21319974   0.577  -0.874   4.986  0.0015 -0.0056 -0.4854
  176SLPC  H13R19975   0.629  -0.926   4.904  0.9024  1.1437 -0.6779
  176SLPC  C21419976   0.431  -0.912   5.014 -1.0767  1.1217  0.3343
  176SLPC  H14R19977   0.377  -0.835   5.073 -0.1507 -0.0213  2.8203
  176SLPC  H14S19978   0.429  -0.996   5.087  1.6927  1.1161  0.5432
  176SLPC  C21519979   0.352  -0.932   4.879  0.3311 -0.0792 -0.7299
  176SLPC  H15R19980   0.275  -1.009   4.900 -1.9216  2.2488  0.0226
  176SLPC  H15S19981   0.417  -0.980   4.802  3.1332  4.0098 -1.2561
  176SLPC  C21619982   0.300  -0.803   4.819 -0.3494  0.1908 -0.4668
  176SLPC  H16R19983   0.374  -0.722   4.838  0.3904 -0.3807 -0.8597
  176SLPC  H16S19984   0.203  -0.784   4.871 -0.5680 -2.4621  0.1994
  176SLPC  C21719985   0.258  -0.806   4.669  0.1181 -0.0964  0.0607
  176SLPC  H17R19986   0.202  -0.900   4.652 -0.9384  0.5205  0.0397
  176SLPC  H17S19987   0.347  -0.808   4.602  0.2142 -1.2467  0.2047
  176SLPC  C21819988   0.161  -0.692   4.627 -0.1629 -0.2660 -0.4014
  176SLPC  H18R19989   0.068  -0.684   4.688  0.1751  2.7551 -0.1239
  176SLPC  H18S19990   0.142  -0.703   4.518  0.7505  0.3298 -0.6276
  176SLPC  H18T19991   0.209  -0.595   4.648 -2.9098  0.8754  1.2405
  176SLPC   C3319992  -0.119  -0.322   5.737 -0.1622 -0.1971 -0.6876
  176SLPC   H3X19993  -0.184  -0.408   5.712 -1.9010  1.2081 -1.2352
  176SLPC   H3Y19994  -0.013  -0.349   5.717 -1.3592 -4.9676 -1.8038
  176SLPC   C3419995  -0.157  -0.200   5.648  0.4554 -0.6461 -0.5889
  176SLPC   H4X19996  -0.106  -0.104   5.671  0.1377 -1.1082  2.4232
  176SLPC   H4Y19997  -0.261  -0.173   5.676  1.3438  4.5673 -1.2426
  176SLPC   C3519998  -0.162  -0.228   5.497 -0.2158  0.3596  0.2589
  176SLPC   H5X19999  -0.208  -0.141   5.446  0.6064 -0.3352 -1.7695
  176SLPC   H5Y20000  -0.227  -0.318   5.486 -0.1786  0.4336 -0.6347
  176SLPC   C3620001  -0.027  -0.266   5.430  0.3212 -0.9161  0.1920
  176SLPC   H6X20002   0.002  -0.362   5.477 -0.9131 -0.6150  1.6676
  176SLPC   H6Y20003   0.040  -0.185   5.466 -0.5783  0.4447 -1.0413
  176SLPC   C3720004  -0.031  -0.290   5.281  0.0041  0.2016 -0.0005
  176SLPC   H7X20005   0.074  -0.283   5.244  0.4360  1.4018  1.3581
  176SLPC   H7Y20006  -0.096  -0.211   5.238 -0.3325  0.0044  0.1416
  176SLPC   C3820007  -0.107  -0.418   5.243  0.2526  0.5770  0.0704
  176SLPC   H8X20008  -0.213  -0.412   5.273  0.4907  0.7098  0.9146
  176SLPC   H8Y20009  -0.052  -0.507   5.281  1.2756  0.8601 -0.6764
  176SLPC   C3920010  -0.108  -0.439   5.088  0.2641 -0.0937 -0.4131
  176SLPC   H9X20011  -0.017  -0.396   5.039 -0.4238  0.8163 -0.9214
  176SLPC   H9Y20012  -0.193  -0.385   5.041  1.1876 -0.1632 -2.2467
  176SLPC  C31020013  -0.114  -0.589   5.047  0.0157  0.4151  0.3114
  176SLPC  H10X20014  -0.204  -0.641   5.087  0.0103  0.8004  0.8152
  176SLPC  H10Y20015  -0.031  -0.646   5.093 -0.1385  0.1990  0.3226
  176SLPC  C31120016  -0.103  -0.608   4.898  0.4170  0.1022  0.2109
  176SLPC  H11X20017   0.006  -0.605   4.874  0.0187  0.1609 -1.7735
  176SLPC  H11Y20018  -0.153  -0.517   4.859 -0.1022 -0.7381 -1.1470
  176SLPC  C31220019  -0.153  -0.746   4.846  0.4678 -0.0399  0.9426
  176SLPC  H12X20020  -0.102  -0.835   4.889 -2.8355 -2.4052  0.3675
  176SLPC  H12Y20021  -0.145  -0.753   4.735  0.7364 -0.1307  0.9684
  176SLPC  C31320022  -0.305  -0.764   4.861  0.0883 -0.1503 -0.2441
  176SLPC  H13X20023  -0.348  -0.680   4.802 -1.8792 -1.2592 -0.4703
  176SLPC  H13Y20024  -0.331  -0.742   4.966 -0.2686  1.7068 -0.6755
  176SLPC  C31420025  -0.372  -0.893   4.807 -0.1276  0.7494  0.5607
  176SLPC  H14X20026  -0.334  -0.984   4.859  1.8945  1.5021  0.5267
  176SLPC  H14Y20027  -0.350  -0.904   4.699 -1.4621 -1.5642  0.4733
  176SLPC  C31520028  -0.527  -0.898   4.817  0.5528 -0.1353  0.0517
  176SLPC  H15X20029  -0.554  -0.850   4.914 -2.1172 -0.0230 -0.6619
  176SLPC  H15Y20030  -0.560  -1.003   4.812 -2.7637  0.8615 -2.7305
  176SLPC  C31620031  -0.586  -0.806   4.708 -0.3566 -0.2786 -0.3457
  176SLPC  H16X20032  -0.530  -0.819   4.613 -1.4277  1.3720 -1.2617
  176SLPC  H16Y20033  -0.570  -0.700   4.737  2.3989 -0.8506  0.5399
  176SLPC  C31720034  -0.726  -0.847   4.671  0.3671 -0.5038  0.5042
  176SLPC  H17X20035  -0.720  -0.957   4.655  1.5385 -0.3936  0.0712
  176SLPC  H17Y20036  -0.768  -0.804   4.578 -1.2135 -0.8894  0.9998
  176SLPC  C31820037  -0.829  -0.825   4.784 -0.3144 -0.2238 -0.6927
  176SLPC  H18X20038  -0.867  -0.721   4.792  2.6362  0.8926  0.3859
  176SLPC  H18Y20039  -0.783  -0.850   4.882  1.3363  0.9571 -1.1209
  176SLPC  H18Z20040  -0.911  -0.898   4.772 -0.2205 -0.2979 -0.8895
  177SLPC     N20041   0.074   0.862   7.117 -0.4174 -0.3127  0.0601
  177SLPC   C1320042  -0.007   0.988   7.150  0.0137  0.3202  0.6662
  177SLPC  H13A20043  -0.065   0.984   7.241 -1.5462  0.4553 -0.2872
  177SLPC  H13B20044   0.054   1.076   7.168 -1.0170  0.9220  1.3519
  177SLPC  H13C20045  -0.079   1.015   7.074  1.6061  0.9981 -0.6448
  177SLPC   C1420046  -0.006   0.737   7.130  0.0207 -0.5375  0.1052
  177SLPC  H14A20047  -0.082   0.726   7.055 -0.1035  0.1890  0.1189
  177SLPC  H14B20048   0.057   0.649   7.118  0.3875  0.0871 -3.9979
  177SLPC  H14C20049  -0.053   0.746   7.227 -0.5286  2.6816 -0.3765
  177SLPC   C1520050   0.170   0.860   7.233  0.8056  1.0132 -0.1137
  177SLPC  H15A20051   0.131   0.922   7.313 -1.7939  0.4645 -0.8864
  177SLPC  H15B20052   0.199   0.762   7.270 -1.0774  0.3268 -0.3708
  177SLPC  H15C20053   0.261   0.905   7.196  0.5316  1.0455 -0.7507
  177SLPC   C1220054   0.166   0.878   6.992  0.3044  0.0290  0.1908
  177SLPC  H12A20055   0.222   0.786   6.985 -1.6478 -1.1387 -0.7508
  177SLPC  H12B20056   0.241   0.955   7.006 -0.1702  0.1549  2.4367
  177SLPC   C1120057   0.104   0.896   6.857  0.3595 -0.5647 -0.8693
  177SLPC  H11A20058   0.188   0.899   6.783  1.0884  1.0187 -0.0422
  177SLPC  H11B20059   0.056   0.997   6.853 -1.5159 -1.4156 -0.7882
  177SLPC     P20060   0.048   0.669   6.762 -0.0026 -0.3374 -0.5261
  177SLPC   O1320061   0.192   0.656   6.790  0.6772 -0.1622 -0.0074
  177SLPC   O1420062  -0.038   0.556   6.819  0.0148  0.2712 -0.1838
  177SLPC   O1220063   0.004   0.806   6.826  0.5265 -0.6083  0.5008
  177SLPC   O1120064   0.025   0.690   6.605 -0.1165 -0.0883 -0.5717
  177SLPC    C120065   0.129   0.752   6.530 -0.1035  0.9984  0.5228
  177SLPC    HA20066   0.145   0.859   6.553  2.7650  1.2062 -1.8196
  177SLPC    HB20067   0.227   0.700   6.533 -1.4002 -1.6039  2.0707
  177SLPC    C220068   0.093   0.752   6.376  0.4187 -0.5050  0.0286
  177SLPC    HS20069   0.193   0.751   6.328 -0.2614 -0.9122 -1.4128
  177SLPC   O2120070   0.017   0.873   6.346 -0.3299 -0.0077 -0.7331
  177SLPC   C2120071   0.053   0.943   6.239 -0.0263 -0.3173 -0.1489
  177SLPC   O2220072   0.155   0.937   6.173 -0.5193  0.0460 -0.4281
  177SLPC   C2220073  -0.055   1.042   6.208 -0.4090 -0.0134  0.2129
  177SLPC   H2R20074  -0.118   1.086   6.289 -2.7384 -0.5976 -1.1778
  177SLPC   H2S20075   0.005   1.125   6.166 -2.0562  1.7089  1.0998
  177SLPC    C320076   0.014   0.622   6.327  0.5210  0.3380 -0.3736
  177SLPC    HX20077  -0.090   0.618   6.368 -0.3098  2.8147 -1.9757
  177SLPC    HY20078   0.070   0.532   6.360  1.6217  0.9070 -0.6362
  177SLPC   O3120079   0.013   0.617   6.182  0.3401 -0.6307  0.8031
  177SLPC   C3120080  -0.073   0.533   6.126 -0.0492  0.5170 -1.1365
  177SLPC   O3220081  -0.154   0.469   6.195  0.3128 -0.2990  0.6443
  177SLPC   C3220082  -0.061   0.532   5.974  0.3744  0.2603 -0.7969
  177SLPC   H2X20083   0.043   0.497   5.957 -0.1638 -2.0645  0.2755
  177SLPC   H2Y20084  -0.069   0.637   5.939 -1.1635  0.2839 -0.4431
  177SLPC   C2320085  -0.155   0.977   6.105  0.2446  0.1017 -0.1681
  177SLPC   H3R20086  -0.253   1.030   6.095 -0.5668 -1.2778  0.2258
  177SLPC   H3S20087  -0.178   0.871   6.127  0.9611 -0.1637 -0.6486
  177SLPC   C2420088  -0.094   0.964   5.958 -0.0254  0.2022  0.1890
  177SLPC   H4R20089  -0.010   0.892   5.952 -0.6082 -0.3967 -1.7435
  177SLPC   H4S20090  -0.059   1.061   5.916  0.6419 -0.3131 -0.4869
  177SLPC   C2520091  -0.205   0.909   5.870  0.1111  0.3218  0.3972
  177SLPC   H5R20092  -0.286   0.983   5.888 -0.6141 -0.2867 -0.2816
  177SLPC   H5S20093  -0.234   0.806   5.899  3.0752 -0.5694  0.5020
  177SLPC   C2620094  -0.169   0.907   5.719  0.7571 -0.3724 -0.2110
  177SLPC   H6R20095  -0.128   1.006   5.690 -1.8981  0.7424 -0.5414
  177SLPC   H6S20096  -0.262   0.897   5.657  1.6382 -0.4502 -1.5624
  177SLPC   C2720097  -0.065   0.794   5.681  0.6614 -0.5379 -0.5677
  177SLPC   H7R20098  -0.115   0.703   5.720 -0.8256  1.0501  1.4987
  177SLPC   H7S20099   0.029   0.813   5.737  1.0994 -2.0632 -0.7486
  177SLPC   C2820100  -0.042   0.794   5.530 -0.3929 -0.1341  0.3912
  177SLPC   H8R20101  -0.138   0.818   5.480 -0.3067 -2.4403 -1.0189
  177SLPC   H8S20102   0.003   0.696   5.504  0.0269 -0.0663  0.8493
  177SLPC   C2920103   0.051   0.902   5.481 -0.1021  0.6584  0.0291
  177SLPC   H9R20104   0.130   0.921   5.556 -0.4119 -0.6937  0.7140
  177SLPC  C21020105   0.049   0.975   5.367  0.4920  0.7213  0.2549
  177SLPC  H10R20106   0.115   1.061   5.353 -0.0636  1.2556  0.8911
  177SLPC  C21120107  -0.014   0.934   5.236 -0.4825 -0.1246 -0.4791
  177SLPC  H11R20108  -0.003   0.824   5.222  0.8006 -0.0805  0.0678
  177SLPC  H11S20109   0.049   0.985   5.160  1.0233 -0.0179  0.8054
  177SLPC  C21220110  -0.162   0.949   5.215  0.5232 -0.6991  0.4050
  177SLPC  H12R20111  -0.222   0.961   5.307  1.0136 -3.7790  1.2369
  177SLPC  C21320112  -0.228   0.974   5.099 -0.0650  0.6058 -0.2005
  177SLPC  H13R20113  -0.337   0.964   5.109 -0.4528  1.4639 -2.7476
  177SLPC  C21420114  -0.188   0.964   4.954 -0.0330 -0.3215 -0.4475
  177SLPC  H14R20115  -0.081   0.991   4.941 -0.3937  0.4219 -2.2142
  177SLPC  H14S20116  -0.259   1.020   4.889  1.0109  3.5956  1.4369
  177SLPC  C21520117  -0.215   0.814   4.915 -0.3649  0.1748  0.5742
  177SLPC  H15R20118  -0.326   0.804   4.917 -0.6001  2.0960  0.0275
  177SLPC  H15S20119  -0.163   0.746   4.985  0.0371  0.0660  0.1774
  177SLPC  C21620120  -0.156   0.790   4.774  0.9194  0.0201 -0.0646
  177SLPC  H16R20121  -0.211   0.852   4.699  2.5132  1.5022 -0.0704
  177SLPC  H16S20122  -0.177   0.685   4.746  0.9864  0.4046 -1.6730
  177SLPC  C21720123  -0.005   0.835   4.757  0.2258  1.0024  0.0220
  177SLPC  H17R20124   0.051   0.796   4.845 -0.7423 -1.8739 -0.5112
  177SLPC  H17S20125  -0.002   0.946   4.762  2.0325  0.9513  1.4330
  177SLPC  C21820126   0.058   0.782   4.632  0.6486  0.6638 -0.0613
  177SLPC  H18R20127   0.061   0.868   4.562 -1.5984  0.2222 -0.7805
  177SLPC  H18S20128   0.000   0.704   4.579 -0.4206  1.8590 -0.7237
  177SLPC  H18T20129   0.164   0.748   4.636  0.0510 -1.6259 -1.7453
  177SLPC   C3320130  -0.165   0.442   5.909 -0.4005  0.3358  0.2577
  177SLPC   H3X20131  -0.264   0.490   5.896 -0.5327 -0.2438 -0.9899
  177SLPC   H3Y20132  -0.182   0.354   5.974 -0.3732 -1.6679 -2.3323
  177SLPC   C3420133  -0.103   0.401   5.770 -1.1548  0.0102  0.2354
  177SLPC   H4X20134  -0.016   0.334   5.785 -0.3124  0.5798 -1.7149
  177SLPC   H4Y20135  -0.061   0.493   5.724  1.5933 -0.9359  0.6809
  177SLPC   C3520136  -0.202   0.326   5.683  0.6862  0.3768  0.1573
  177SLPC   H5X20137  -0.262   0.399   5.624 -0.2536 -1.2802 -1.0316
  177SLPC   H5Y20138  -0.274   0.268   5.745  0.1984 -3.0530 -3.2060
  177SLPC   C3620139  -0.130   0.230   5.588  0.4431  1.0656  0.0306
  177SLPC   H6X20140  -0.090   0.138   5.636  0.9139 -0.0915 -2.4198
  177SLPC   H6Y20141  -0.040   0.286   5.554  1.2259  1.6247  2.7920
  177SLPC   C3720142  -0.221   0.173   5.482 -0.1340  0.4812  0.5671
  177SLPC   H7X20143  -0.303   0.246   5.467 -0.0662  0.7256  1.3561
  177SLPC   H7Y20144  -0.270   0.083   5.524 -1.2274  0.2999 -0.9946
  177SLPC   C3820145  -0.145   0.151   5.353  1.2923 -0.7445 -0.0198
  177SLPC   H8X20146  -0.189   0.062   5.304 -1.4755  0.5745 -0.1346
  177SLPC   H8Y20147  -0.039   0.122   5.370  1.3085 -0.3944  0.5216
  177SLPC   C3920148  -0.151   0.267   5.246  0.2806  0.9701 -0.0946
  177SLPC   H9X20149  -0.107   0.357   5.294  2.4369  0.7717 -1.5278
  177SLPC   H9Y20150  -0.253   0.290   5.209 -0.1026  0.7399  0.8037
  177SLPC  C31020151  -0.056   0.254   5.124 -0.3287 -0.3427 -0.0921
  177SLPC  H10X20152  -0.089   0.170   5.061 -0.7129  1.3798 -2.3066
  177SLPC  H10Y20153   0.044   0.231   5.167 -0.2208 -1.6765 -1.0058
  177SLPC  C31120154  -0.052   0.379   5.031  0.0533 -0.2923  0.0882
  177SLPC  H11X20155   0.036   0.372   4.963  0.3705 -1.2647  0.5784
  177SLPC  H11Y20156  -0.030   0.469   5.091 -1.6175 -0.6502  1.3110
  177SLPC  C31220157  -0.174   0.388   4.945  0.3302  0.3094  0.2777
  177SLPC  H12X20158  -0.190   0.494   4.915 -0.9690  0.0788  0.1037
  177SLPC  H12Y20159  -0.264   0.356   5.001  0.6659 -1.6308 -0.2180
  177SLPC  C31320160  -0.174   0.295   4.819  0.4233 -0.3895  1.4669
  177SLPC  H13X20161  -0.179   0.188   4.849  3.1033 -1.1404 -0.3214
  177SLPC  H13Y20162  -0.073   0.297   4.772 -0.1787  1.0545  0.1523
  177SLPC  C31420163  -0.285   0.336   4.715 -0.4355 -0.0702 -0.2975
  177SLPC  H14X20164  -0.279   0.446   4.705 -0.1501  0.4781  4.1011
  177SLPC  H14Y20165  -0.387   0.316   4.755 -0.6981  1.2059 -0.2929
  177SLPC  C31520166  -0.257   0.273   4.582  0.4125 -0.0711  0.4550
  177SLPC  H15X20167  -0.246   0.162   4.582 -1.5365 -0.3373 -1.5338
  177SLPC  H15Y20168  -0.166   0.314   4.535 -1.0110  3.1923  0.2678
  177SLPC  C31620169  -0.381   0.293   4.487  0.4710 -0.7644  0.4350
  177SLPC  H16X20170  -0.415   0.398   4.502 -0.3635 -0.7854 -1.0865
  177SLPC  H16Y20171  -0.466   0.240   4.534 -1.0792  0.0288 -1.3653
  177SLPC  C31720172  -0.352   0.274   4.337  0.1984  0.5637 -0.2242
  177SLPC  H17X20173  -0.293   0.181   4.326 -1.0276 -0.1557 -0.8690
  177SLPC  H17Y20174  -0.298   0.365   4.301  2.4821 -1.4431 -2.1939
  177SLPC  C31820175  -0.474   0.237   4.245 -0.0479 -0.3527  0.1180
  177SLPC  H18X20176  -0.427   0.221   4.146  1.8578 -0.0572  0.9431
  177SLPC  H18Y20177  -0.553   0.315   4.252 -1.2949 -1.5916  0.4137
  177SLPC  H18Z20178  -0.508   0.137   4.279  2.7488 -0.4274  3.1630
  178SLPC     N20179   4.082   0.425   6.524 -0.1959  0.3302 -0.1266
  178SLPC   C1320180   4.026   0.394   6.657  0.3195  0.0097 -0.1940
  178SLPC  H13A20181   4.004   0.289   6.640  2.2119 -0.1781 -2.0234
  178SLPC  H13B20182   4.096   0.413   6.737 -1.7999 -1.3512  2.1135
  178SLPC  H13C20183   3.935   0.449   6.672  0.4337 -0.1612  1.2181
  178SLPC   C1420184   4.208   0.344   6.508  0.4573  0.0311  0.4129
  178SLPC  H14A20185   4.276   0.357   6.591 -0.6121 -0.0677  1.3172
  178SLPC  H14B20186   4.182   0.240   6.492 -1.1447  0.2053  1.6844
  178SLPC  H14C20187   4.254   0.384   6.418  2.7897  1.1082  1.9785
  178SLPC   C1520188   4.107   0.569   6.514  0.0557  0.3252 -0.3431
  178SLPC  H15A20189   4.177   0.596   6.591 -0.0216  2.4543 -0.9441
  178SLPC  H15B20190   4.154   0.602   6.422 -1.5810  0.6830 -1.0921
  178SLPC  H15C20191   4.018   0.628   6.532 -0.1666 -0.3306  0.7572
  178SLPC   C1220192   3.979   0.392   6.414  1.1780  0.4782  0.9622
  178SLPC  H12A20193   4.016   0.391   6.312 -0.9058 -1.5356  0.1243
  178SLPC  H12B20194   3.900   0.466   6.414  0.8278  0.1684 -1.1142
  178SLPC   C1120195   3.907   0.255   6.424 -0.7188  0.0041 -0.4336
  178SLPC  H11A20196   3.839   0.239   6.338  0.4168 -0.4110 -1.2937
  178SLPC  H11B20197   3.852   0.265   6.519 -0.1214  1.6119 -0.2103
  178SLPC     P20198   3.975   0.003   6.423 -0.0717 -0.4964  0.1530
  178SLPC   O1320199   4.104  -0.055   6.465  1.0736 -0.1627  0.5243
  178SLPC   O1420200   3.855  -0.025   6.506 -0.4398  0.3392  0.9621
  178SLPC   O1220201   4.007   0.153   6.434 -0.0545 -0.0334  0.1540
  178SLPC   O1120202   3.944  -0.022   6.272  0.3150 -0.5468  0.4082
  178SLPC    C120203   4.043   0.025   6.179  0.1922  0.1814  0.1818
  178SLPC    HA20204   4.078   0.126   6.208 -1.4026  0.9057 -0.3241
  178SLPC    HB20205   4.131  -0.044   6.185  1.1144  1.2496 -0.7652
  178SLPC    C220206   4.011   0.026   6.030 -0.4446 -0.0973  0.3807
  178SLPC    HS20207   3.929   0.095   6.004  0.5902  1.1991  0.4892
  178SLPC   O2120208   3.993  -0.114   5.985 -0.2533  0.1226 -0.2551
  178SLPC   C2120209   3.863  -0.148   5.965 -0.4535 -0.4386 -0.3280
  178SLPC   O2220210   3.767  -0.079   5.989 -0.5856  0.0444 -1.2875
  178SLPC   C2220211   3.853  -0.282   5.891  0.1429  0.2973 -0.3099
  178SLPC   H2R20212   3.934  -0.291   5.816  1.9790 -0.4317  1.6708
  178SLPC   H2S20213   3.861  -0.363   5.966 -3.4381 -0.7909 -0.9116
  178SLPC    C320214   4.134   0.090   5.955  1.1927  0.5664  0.1101
  178SLPC    HX20215   4.140   0.199   5.977  0.7468  0.5677  0.2297
  178SLPC    HY20216   4.120   0.084   5.845 -1.1195 -0.2270  0.4090
  178SLPC   O3120217   4.246   0.012   5.996 -0.7228 -0.4828  0.4018
  178SLPC   C3120218   4.359   0.070   6.022 -0.2394  1.0443  0.1193
  178SLPC   O3220219   4.378   0.189   6.029 -0.5530  0.2940  0.0111
  178SLPC   C3220220   4.461  -0.041   6.050 -0.0927  0.7148  0.4358
  178SLPC   H2X20221   4.435  -0.136   5.999  2.3814 -0.2718  0.8771
  178SLPC   H2Y20222   4.460  -0.057   6.160  1.8015  2.0842  0.7165
  178SLPC   C2320223   3.705  -0.304   5.838 -0.6494 -0.4286 -0.2016
  178SLPC   H3R20224   3.630  -0.294   5.919  0.8069  1.3541  1.0112
  178SLPC   H3S20225   3.706  -0.412   5.813  0.8433 -0.4333 -0.1978
  178SLPC   C2420226   3.679  -0.211   5.719  0.2100 -0.3264 -0.0016
  178SLPC   H4R20227   3.767  -0.208   5.651 -0.4384 -0.6640 -0.8739
  178SLPC   H4S20228   3.652  -0.107   5.748 -2.7572 -0.7615 -0.9000
  178SLPC   C2520229   3.555  -0.249   5.640 -0.6962  0.1961  0.5227
  178SLPC   H5R20230   3.466  -0.259   5.706 -2.3020  1.0189 -1.4208
  178SLPC   H5S20231   3.574  -0.353   5.607  2.7679  1.5646 -2.4025
  178SLPC   C2620232   3.531  -0.161   5.520  0.1715  0.1365  0.2695
  178SLPC   H6R20233   3.462  -0.223   5.459 -0.7356 -0.7132  2.0724
  178SLPC   H6S20234   3.624  -0.170   5.459 -1.3233  1.3453 -2.3633
  178SLPC   C2720235   3.484  -0.022   5.551 -0.0193  0.5037  0.3296
  178SLPC   H7R20236   3.555   0.014   5.628  0.6672 -0.5337  0.2021
  178SLPC   H7S20237   3.375  -0.026   5.576 -0.8663 -1.9360 -2.9814
  178SLPC   C2820238   3.496   0.053   5.426 -0.5686 -0.2921 -0.0332
  178SLPC   H8R20239   3.450  -0.007   5.345  0.3691  1.4548 -1.9639
  178SLPC   H8S20240   3.603   0.076   5.403 -0.1529  0.7091  2.6081
  178SLPC   C2920241   3.428   0.187   5.437 -0.2619  0.4848 -0.6127
  178SLPC   H9R20242   3.340   0.185   5.503  0.0469 -3.4421 -0.0910
  178SLPC  C21020243   3.472   0.298   5.378  0.3048 -0.1427  0.4338
  178SLPC  H10R20244   3.419   0.386   5.418  1.2244  0.2900  0.7201
  178SLPC  C21120245   3.593   0.321   5.292 -0.0319  0.0183 -0.6595
  178SLPC  H11R20246   3.681   0.308   5.359 -1.0465  0.9746  0.9471
  178SLPC  H11S20247   3.605   0.424   5.252  0.4488  0.0089 -0.5423
  178SLPC  C21220248   3.602   0.227   5.176  0.1735 -0.1927  0.4609
  178SLPC  H12R20249   3.622   0.125   5.210  3.6340  0.8405  1.9555
  178SLPC  C21320250   3.612   0.264   5.046  0.1716  0.0779  0.3004
  178SLPC  H13R20251   3.637   0.185   4.974 -1.1550 -0.4195  0.3567
  178SLPC  C21420252   3.622   0.410   5.002  0.0140  0.4191 -0.0429
  178SLPC  H14R20253   3.729   0.437   5.002  0.1451 -0.0289  1.1776
  178SLPC  H14S20254   3.570   0.485   5.065  1.7265  2.0713 -0.5255
  178SLPC  C21520255   3.566   0.425   4.855  0.1809 -0.3958  0.3152
  178SLPC  H15R20256   3.459   0.397   4.867  0.8379 -2.6871  1.5700
  178SLPC  H15S20257   3.611   0.351   4.786 -1.2422 -1.0211  0.0186
  178SLPC  C21620258   3.602   0.563   4.796 -0.0756  0.6612  0.6394
  178SLPC  H16R20259   3.556   0.637   4.866  0.2801  1.6116 -0.1066
  178SLPC  H16S20260   3.553   0.576   4.698  0.1637  3.5506  0.8131
  178SLPC  C21720261   3.748   0.591   4.761 -0.5327  0.2104 -0.3758
  178SLPC  H17R20262   3.781   0.510   4.692  3.1672  1.2263 -0.0403
  178SLPC  H17S20263   3.811   0.566   4.849  0.6499  0.3671 -1.1452
  178SLPC  C21820264   3.781   0.728   4.708 -0.5227 -0.3388 -0.7187
  178SLPC  H18R20265   3.775   0.802   4.790 -0.1801 -2.1699  1.0233
  178SLPC  H18S20266   3.712   0.758   4.626  0.3342  0.6717 -1.0915
  178SLPC  H18T20267   3.882   0.748   4.666  0.1747  0.0511  1.0789
  178SLPC   C3320268   4.599   0.007   6.000 -0.0897  0.2245  0.0298
  178SLPC   H3X20269   4.673  -0.063   6.044 -1.3184 -0.0520  1.7847
  178SLPC   H3Y20270   4.629   0.105   6.042  1.1860 -1.0618  2.3045
  178SLPC   C3420271   4.631   0.019   5.853 -0.0779 -0.1988 -0.1535
  178SLPC   H4X20272   4.742   0.021   5.841  0.0057  2.0357  0.4223
  178SLPC   H4Y20273   4.605   0.123   5.824 -2.0787 -0.0606  1.8787
  178SLPC   C3520274   4.553  -0.068   5.757 -0.5847  0.3481 -0.1632
  178SLPC   H5X20275   4.449  -0.030   5.768 -1.2478 -1.5352  0.4098
  178SLPC   H5Y20276   4.546  -0.177   5.776  1.3578  0.3027  0.5011
  178SLPC   C3620277   4.580  -0.042   5.606 -0.4723  0.4418 -0.4230
  178SLPC   H6X20278   4.559   0.062   5.573  4.3238  2.2401  1.3023
  178SLPC   H6Y20279   4.503  -0.108   5.561 -1.3878  1.8783 -1.0510
  178SLPC   C3720280   4.719  -0.074   5.567  0.0539 -0.0908 -0.7450
  178SLPC   H7X20281   4.759  -0.129   5.655 -0.3741  0.7369 -0.0156
  178SLPC   H7Y20282   4.786   0.015   5.560  0.5131 -0.1454  1.8841
  178SLPC   C3820283   4.720  -0.171   5.444  0.2532  0.3958 -0.1948
  178SLPC   H8X20284   4.662  -0.261   5.474  0.8790 -0.9230 -2.7186
  178SLPC   H8Y20285   4.823  -0.205   5.421  0.6064  1.2468  0.0756
  178SLPC   C3920286   4.660  -0.109   5.321 -0.9559 -0.2314 -0.1935
  178SLPC   H9X20287   4.719  -0.015   5.312 -0.5358 -0.4780 -0.0565
  178SLPC   H9Y20288   4.556  -0.070   5.326  0.2587  3.2803  1.0847
  178SLPC  C31020289   4.680  -0.190   5.189 -0.5856 -0.1535 -0.5952
  178SLPC  H10X20290   4.601  -0.169   5.114  0.2139 -2.3582 -2.1431
  178SLPC  H10Y20291   4.666  -0.298   5.212 -0.7817  0.0704  0.3953
  178SLPC  C31120292   4.813  -0.182   5.116 -0.2860  0.2420  0.4835
  178SLPC  H11X20293   4.892  -0.172   5.193  0.9760 -0.5272 -0.6520
  178SLPC  H11Y20294   4.830  -0.097   5.046  1.6275  0.3582  1.0428
  178SLPC  C31220295   4.834  -0.317   5.035  0.2685  0.3852 -0.4920
  178SLPC  H12X20296   4.810  -0.403   5.101 -2.1171  0.5725 -1.0494
  178SLPC  H12Y20297   4.942  -0.327   5.009  0.6311 -1.8750  1.5549
  178SLPC  C31320298   4.750  -0.334   4.905  0.4617  0.0087  0.5392
  178SLPC  H13X20299   4.771  -0.259   4.826  2.2125 -2.3739 -1.4306
  178SLPC  H13Y20300   4.645  -0.322   4.938  0.5363  2.4961  0.0645
  178SLPC  C31420301   4.791  -0.466   4.842 -0.2747  0.1891  0.0456
  178SLPC  H14X20302   4.795  -0.554   4.909  0.5443 -1.1115 -1.6379
  178SLPC  H14Y20303   4.892  -0.446   4.801 -0.0704 -0.7653  0.0740
  178SLPC  C31520304   4.706  -0.501   4.720  0.2603  0.6662 -0.2353
  178SLPC  H15X20305   4.733  -0.595   4.668  0.8662  0.3260  0.6633
  178SLPC  H15Y20306   4.702  -0.414   4.650 -1.0292  1.1548  0.4161
  178SLPC  C31620307   4.564  -0.540   4.770  0.0940  0.0359  0.0321
  178SLPC  H16X20308   4.510  -0.444   4.782  1.7704  1.1899 -1.2304
  178SLPC  H16Y20309   4.575  -0.597   4.865  0.5249  0.8686  0.4884
  178SLPC  C31720310   4.490  -0.618   4.665 -0.3120 -0.5058 -0.3205
  178SLPC  H17X20311   4.557  -0.702   4.637  1.4511  0.8919 -0.5125
  178SLPC  H17Y20312   4.473  -0.551   4.578 -0.1207  1.6884  1.2415
  178SLPC  C31820313   4.351  -0.662   4.700 -0.8611 -0.9489 -0.6792
  178SLPC  H18X20314   4.310  -0.705   4.606 -0.4452  0.7437 -1.6679
  178SLPC  H18Y20315   4.291  -0.575   4.735  1.0053  0.6373 -1.3055
  178SLPC  H18Z20316   4.369  -0.735   4.782 -0.8610  0.5742  0.7390
  179SLPC     N20317   5.236   5.481   2.182  0.1898  0.7303 -0.1551
  179SLPC   C1320318   5.148   5.367   2.222 -0.0673  0.5444 -0.9324
  179SLPC  H13A20319   5.081   5.327   2.147 -0.5499 -0.2538 -0.0984
  179SLPC  H13B20320   5.195   5.278   2.261 -1.0020 -0.0390 -1.0993
  179SLPC  H13C20321   5.088   5.400   2.306 -1.0836  1.3020 -1.9178
  179SLPC   C1420322   5.305   5.431   2.053  0.6103  0.6828 -0.6213
  179SLPC  H14A20323   5.230   5.398   1.982 -0.0717  0.4452  0.1914
  179SLPC  H14B20324   5.375   5.495   2.001  0.9353  0.7428 -0.1080
  179SLPC  H14C20325   5.367   5.347   2.079 -3.6863 -3.3311 -1.9346
  179SLPC   C1520326   5.329   5.505   2.292  0.4167  0.0251  0.1586
  179SLPC  H15A20327   5.396   5.583   2.258  1.9828 -0.6573  1.5079
  179SLPC  H15B20328   5.279   5.536   2.383 -1.5270  1.5094 -1.3260
  179SLPC  H15C20329   5.386   5.421   2.329 -0.7918 -1.1105 -0.4824
  179SLPC   C1220330   5.168   5.610   2.149 -0.4388 -0.4779  0.5884
  179SLPC  H12A20331   5.088   5.592   2.080 -0.7807  1.1810  0.5176
  179SLPC  H12B20332   5.234   5.677   2.096 -0.3356 -0.8601  0.2239
  179SLPC   C1120333   5.100   5.700   2.261 -0.4689 -0.4082 -0.2328
  179SLPC  H11A20334   5.028   5.636   2.317 -0.4683  0.2378  0.5285
  179SLPC  H11B20335   5.041   5.781   2.212  1.1491  0.4608 -0.8200
  179SLPC     P20336   5.171   5.822   2.473  0.0434  0.0377 -0.1985
  179SLPC   O1320337   5.293   5.830   2.560 -0.2950 -0.5435  0.6599
  179SLPC   O1420338   5.108   5.953   2.445 -0.6138  0.2607 -0.3707
  179SLPC   O1220339   5.206   5.748   2.337  0.1410  0.1339 -0.2411
  179SLPC   O1120340   5.066   5.725   2.541 -0.0491  0.1266 -0.1137
  179SLPC    C120341   5.106   5.594   2.600 -0.9067 -0.4316  1.2089
  179SLPC    HA20342   5.044   5.522   2.543 -1.5561  0.0960  1.2373
  179SLPC    HB20343   5.211   5.567   2.575 -1.2827  0.5088 -1.8450
  179SLPC    C220344   5.074   5.592   2.750  0.0373  0.2140  0.4296
  179SLPC    HS20345   4.964   5.610   2.751 -0.5741 -2.3845 -2.6839
  179SLPC   O2120346   5.158   5.694   2.810  0.3761 -0.2333  0.2933
  179SLPC   C2120347   5.111   5.816   2.840  0.3520 -0.2361 -0.0030
  179SLPC   O2220348   5.004   5.859   2.806  0.2072  0.0275  0.4518
  179SLPC   C2220349   5.198   5.895   2.942 -0.5639  0.3043  0.2778
  179SLPC   H2R20350   5.280   5.829   2.978 -0.1878  0.6882  0.1215
  179SLPC   H2S20351   5.229   5.992   2.898 -2.8229  1.5308  1.2122
  179SLPC    C320352   5.101   5.448   2.805 -0.6293 -0.3246 -0.0365
  179SLPC    HX20353   5.211   5.435   2.791 -0.0549  1.6983  2.0202
  179SLPC    HY20354   5.056   5.378   2.731  1.0751 -0.2264 -1.2275
  179SLPC   O3120355   5.060   5.421   2.941  0.4957 -0.0815 -0.2027
  179SLPC   C3120356   5.158   5.427   3.033 -0.0217  0.3185  0.5939
  179SLPC   O3220357   5.273   5.455   3.010 -0.1245 -0.1329 -0.5467
  179SLPC   C3220358   5.093   5.397   3.176  0.6509  0.3679 -0.1449
  179SLPC   H2X20359   5.100   5.286   3.182  0.0694  0.4041  1.6990
  179SLPC   H2Y20360   4.985   5.420   3.181  0.6532  0.3732 -0.1179
  179SLPC   C2320361   5.119   5.925   3.078 -0.0592 -0.1006  0.0463
  179SLPC   H3R20362   5.094   5.832   3.132  0.4827 -1.5438 -2.0406
  179SLPC   H3S20363   5.028   5.983   3.052  0.8019  1.8471  1.1766
  179SLPC   C2420364   5.207   6.021   3.162  0.5609  0.2758 -0.3727
  179SLPC   H4R20365   5.201   6.114   3.101 -0.0580 -0.2061 -1.0709
  179SLPC   H4S20366   5.312   5.987   3.179  0.4135  0.0272  0.0495
  179SLPC   C2520367   5.146   6.051   3.305  0.4766  0.0071 -0.1781
  179SLPC   H5R20368   5.042   6.091   3.295  1.2774  2.3421  0.1788
  179SLPC   H5S20369   5.213   6.135   3.334  0.6685  0.0552 -0.7474
  179SLPC   C2620370   5.164   5.939   3.405  0.1207 -0.3298  0.6695
  179SLPC   H6R20371   5.232   5.865   3.359  0.2129  0.3813 -0.3659
  179SLPC   H6S20372   5.069   5.881   3.402  0.5695 -1.0958 -2.5103
  179SLPC   C2720373   5.213   5.977   3.539 -0.2837  0.2604 -0.3465
  179SLPC   H7R20374   5.320   6.008   3.535  0.1043 -0.8009  0.9075
  179SLPC   H7S20375   5.223   5.884   3.599  0.4404  0.5469  0.0007
  179SLPC   C2820376   5.133   6.083   3.624 -0.1752 -0.0100  0.4261
  179SLPC   H8R20377   5.121   6.166   3.550 -2.8641  0.2118  1.0126
  179SLPC   H8S20378   5.205   6.105   3.706  0.0383 -1.5454  0.6637
  179SLPC   C2920379   4.997   6.047   3.671 -0.1375  0.4287  0.6028
  179SLPC   H9R20380   4.936   6.010   3.586  0.0373  0.2051  0.5742
  179SLPC  C21020381   4.947   6.056   3.799 -0.3962  0.3397  0.7517
  179SLPC  H10R20382   4.845   6.021   3.819 -0.4712  0.5472  0.7262
  179SLPC  C21120383   5.008   6.101   3.926 -0.3450  0.1851  0.4581
  179SLPC  H11R20384   4.927   6.107   4.002 -1.0458 -0.9789 -0.1622
  179SLPC  H11S20385   5.047   6.202   3.902 -1.4570  0.4912 -0.1321
  179SLPC  C21220386   5.120   6.008   3.973 -0.7568  0.1796 -0.4200
  179SLPC  H12R20387   5.144   5.930   3.901  1.4432  1.2798 -0.9520
  179SLPC  C21320388   5.168   5.988   4.099 -0.2915 -1.1324 -0.1310
  179SLPC  H13R20389   5.252   5.917   4.108  0.6144 -0.1618 -0.7053
  179SLPC  C21420390   5.138   6.066   4.228  0.3342  0.0389  0.8376
  179SLPC  H14R20391   5.169   6.015   4.322  0.7107 -2.1211 -0.3918
  179SLPC  H14S20392   5.030   6.089   4.240 -0.7810 -4.0801  0.1799
  179SLPC  C21520393   5.207   6.211   4.229  0.1680  0.0942 -0.2075
  179SLPC  H15R20394   5.144   6.273   4.162 -0.7757  0.4277  0.9634
  179SLPC  H15S20395   5.312   6.206   4.193 -0.0467 -1.6966 -0.6912
  179SLPC  C21620396   5.220   6.274   4.372  0.3237 -0.3631  0.4191
  179SLPC  H16R20397   5.281   6.206   4.436 -1.6599 -2.5677  0.0636
  179SLPC  H16S20398   5.116   6.282   4.410  0.4475 -0.9518  0.8881
  179SLPC  C21720399   5.278   6.418   4.365  0.0664  0.1723 -0.5947
  179SLPC  H17R20400   5.210   6.481   4.304 -0.6158  0.3420  0.3158
  179SLPC  H17S20401   5.374   6.413   4.309  0.9935  0.7222  0.8856
  179SLPC  C21820402   5.287   6.474   4.509 -0.5843  0.0843 -0.0881
  179SLPC  H18R20403   5.313   6.582   4.502  0.6902 -0.2894 -1.9069
  179SLPC  H18S20404   5.370   6.425   4.563  0.5966  0.1847 -1.7375
  179SLPC  H18T20405   5.198   6.457   4.573 -0.0077 -0.8802  0.4891
  179SLPC   C3320406   5.171   5.479   3.286 -0.0429  0.4716  0.1298
  179SLPC   H3X20407   5.153   5.588   3.276  0.3781  0.4716 -0.6943
  179SLPC   H3Y20408   5.277   5.459   3.261 -0.0782  0.3050  0.1138
  179SLPC   C3420409   5.142   5.423   3.429  0.2120  0.6690 -0.3325
  179SLPC   H4X20410   5.194   5.326   3.442 -0.6504  0.2332 -0.0358
  179SLPC   H4Y20411   5.031   5.422   3.438  0.1630 -2.3514 -0.3126
  179SLPC   C3520412   5.201   5.526   3.533  0.1722  0.1877  0.1077
  179SLPC   H5X20413   5.310   5.550   3.525  0.1534 -0.1704 -1.5626
  179SLPC   H5Y20414   5.135   5.615   3.526  0.8127  0.7572  1.0730
  179SLPC   C3620415   5.182   5.463   3.673 -0.9646 -0.5651 -0.0014
  179SLPC   H6X20416   5.252   5.378   3.688  0.4881  0.8427  1.5716
  179SLPC   H6Y20417   5.077   5.427   3.669 -1.1141 -0.2415  0.8402
  179SLPC   C3720418   5.214   5.561   3.789 -0.6663 -0.2766  0.3802
  179SLPC   H7X20419   5.138   5.642   3.785  1.0414  1.3515 -0.6341
  179SLPC   H7Y20420   5.318   5.600   3.790 -0.3413 -1.0646  2.1792
  179SLPC   C3820421   5.209   5.490   3.927  0.3569 -0.5424  1.4639
  179SLPC   H8X20422   5.294   5.418   3.926  0.9797  0.1105 -1.8868
  179SLPC   H8Y20423   5.107   5.447   3.936  0.5649 -1.6716 -0.8156
  179SLPC   C3920424   5.252   5.589   4.036  0.0539 -0.0058 -0.6115
  179SLPC   H9X20425   5.208   5.691   4.033 -1.3174 -0.5918 -3.1085
  179SLPC   H9Y20426   5.361   5.602   4.021  0.1412 -0.8448 -0.7516
  179SLPC  C31020427   5.216   5.536   4.183 -0.1761 -0.4687  0.3605
  179SLPC  H10X20428   5.111   5.501   4.182 -0.2581 -0.3464  2.2504
  179SLPC  H10Y20429   5.220   5.618   4.258  3.6304 -1.1136  1.0893
  179SLPC  C31120430   5.310   5.423   4.231 -1.2407  0.7663 -0.2028
  179SLPC  H11X20431   5.413   5.466   4.235 -1.4354  1.1318  1.7381
  179SLPC  H11Y20432   5.317   5.339   4.158  0.1307 -0.8863  1.7105
  179SLPC  C31220433   5.261   5.370   4.361  0.1946  0.2298  0.3410
  179SLPC  H12X20434   5.153   5.346   4.357 -0.2237  1.9739  0.0134
  179SLPC  H12Y20435   5.290   5.449   4.434 -0.5581  1.2934 -0.4798
  179SLPC  C31320436   5.324   5.241   4.408 -0.0598  0.0703  0.1082
  179SLPC  H13X20437   5.429   5.270   4.430 -0.3361  1.0191  0.2104
  179SLPC  H13Y20438   5.334   5.163   4.330 -4.0696 -1.2354  0.6965
  179SLPC  C31420439   5.257   5.167   4.525 -0.0216  0.0639  0.0222
  179SLPC  H14X20440   5.295   5.063   4.528 -1.5989 -0.5964 -1.0718
  179SLPC  H14Y20441   5.158   5.160   4.474  0.9444  1.2747 -2.1881
  179SLPC  C31520442   5.258   5.229   4.656  0.5399  0.6138  0.2622
  179SLPC  H15X20443   5.161   5.205   4.705  0.1775 -2.4589 -1.6843
  179SLPC  H15Y20444   5.267   5.339   4.641  2.8336  0.2303 -1.7579
  179SLPC  C31620445   5.366   5.188   4.753  0.1936 -0.5542 -0.5840
  179SLPC  H16X20446   5.347   5.089   4.800 -0.2255 -0.0962  0.2375
  179SLPC  H16Y20447   5.365   5.264   4.834  1.4874  0.5472 -1.5440
  179SLPC  C31720448   5.511   5.198   4.697 -0.0327  0.4630 -0.2651
  179SLPC  H17X20449   5.542   5.303   4.674 -0.3802  0.4478 -0.8212
  179SLPC  H17Y20450   5.517   5.150   4.597  4.3757  0.6499 -0.2831
  179SLPC  C31820451   5.624   5.136   4.787 -0.0717  0.4125 -0.2967
  179SLPC  H18X20452   5.619   5.181   4.889 -2.1035 -0.9496  0.2699
  179SLPC  H18Y20453   5.720   5.151   4.733  0.2261 -0.4725 -0.0325
  179SLPC  H18Z20454   5.611   5.027   4.803 -1.9699  0.6743  0.2034
  180SLPC     N20455   2.713   0.047   2.193  0.0802  0.2692  0.4753
  180SLPC   C1320456   2.710   0.165   2.103  0.3139 -0.0609  0.5124
  180SLPC  H13A20457   2.657   0.247   2.150 -1.1962 -0.6886 -0.0278
  180SLPC  H13B20458   2.810   0.202   2.084  0.2509  0.0024  0.3027
  180SLPC  H13C20459   2.662   0.136   2.011  0.0389  1.9086 -0.0052
  180SLPC   C1420460   2.564   0.013   2.237 -0.5813 -0.4905  0.3774
  180SLPC  H14A20461   2.507   0.095   2.278  0.0705 -0.0401  0.3856
  180SLPC  H14B20462   2.505  -0.026   2.155 -0.3213 -2.4454  1.0609
  180SLPC  H14C20463   2.562  -0.071   2.306 -0.3693  0.0185  1.0188
  180SLPC   C1520464   2.785   0.091   2.321 -0.0070 -0.0686 -0.0541
  180SLPC  H15A20465   2.889   0.115   2.304  0.0854  0.4632  1.1734
  180SLPC  H15B20466   2.743   0.180   2.367  0.4685 -0.3704  1.0064
  180SLPC  H15C20467   2.781   0.008   2.390  2.0045 -0.8794 -0.8566
  180SLPC   C1220468   2.773  -0.073   2.131 -0.3805 -0.1961  0.7318
  180SLPC  H12A20469   2.716  -0.099   2.043  0.7434  0.3961 -0.2013
  180SLPC  H12B20470   2.748  -0.160   2.189 -1.8930 -1.4373 -1.5938
  180SLPC   C1120471   2.920  -0.064   2.094 -0.1415 -0.6449  0.1508
  180SLPC  H11A20472   2.981  -0.003   2.164  0.0776  0.1200 -0.6819
  180SLPC  H11B20473   2.937  -0.023   1.992  0.9150  1.1363  1.0028
  180SLPC     P20474   3.028  -0.257   2.219 -0.2748 -0.2607 -0.0609
  180SLPC   O1320475   3.037  -0.408   2.196 -0.2534 -0.4752  0.2714
  180SLPC   O1420476   3.155  -0.180   2.244  0.1854  0.5722  0.0628
  180SLPC   O1220477   2.958  -0.197   2.094  0.3961 -0.1595  0.1571
  180SLPC   O1120478   2.923  -0.220   2.329  0.6602  0.4162  0.0054
  180SLPC    C120479   2.818  -0.301   2.388 -0.4461  0.4548  0.6673
  180SLPC    HA20480   2.743  -0.232   2.432  0.9269  1.8660  0.8660
  180SLPC    HB20481   2.782  -0.377   2.316  0.2163  0.2195  0.5827
  180SLPC    C220482   2.863  -0.372   2.518 -1.2696  1.0485  0.4805
  180SLPC    HS20483   2.773  -0.387   2.582 -0.2793 -0.2077  1.6519
  180SLPC   O2120484   2.967  -0.304   2.597  0.1188  0.2143 -0.3370
  180SLPC   C2120485   2.934  -0.185   2.642 -0.4175  0.5671  0.6620
  180SLPC   O2220486   2.819  -0.141   2.654 -0.1071 -0.0535  0.0833
  180SLPC   C2220487   3.070  -0.106   2.674  0.1514  0.7192 -0.5002
  180SLPC   H2R20488   3.133  -0.165   2.743  0.9295  1.5011 -0.5220
  180SLPC   H2S20489   3.123  -0.094   2.577 -1.6781  1.4195 -1.4757
  180SLPC    C320490   2.915  -0.519   2.478 -0.7069  0.7199  0.6378
  180SLPC    HX20491   3.006  -0.499   2.418  1.2095 -1.3732  2.6601
  180SLPC    HY20492   2.836  -0.566   2.416 -0.1715  1.5411 -0.7307
  180SLPC   O3120493   2.957  -0.602   2.588  0.6625 -0.1270  0.7199
  180SLPC   C3120494   2.850  -0.659   2.655 -0.5738  0.3973 -0.6219
  180SLPC   O3220495   2.735  -0.652   2.626  0.6965 -0.9224  0.1379
  180SLPC   C3220496   2.913  -0.734   2.771 -0.2747  0.0330  0.4659
  180SLPC   H2X20497   2.987  -0.672   2.826 -1.1250  0.5582  1.0390
  180SLPC   H2Y20498   2.984  -0.805   2.723 -0.1062  0.8832 -0.5732
  180SLPC   C2320499   3.028   0.029   2.731 -0.6231  0.4488  0.3249
  180SLPC   H3R20500   2.946   0.077   2.673  0.1300 -0.9722 -2.0705
  180SLPC   H3S20501   3.124   0.084   2.736  0.3591 -0.9369 -1.6873
  180SLPC   C2420502   2.976   0.003   2.877 -0.2975 -0.3673  0.2142
  180SLPC   H4R20503   3.050  -0.062   2.929 -0.9885 -0.6705  0.8561
  180SLPC   H4S20504   2.881  -0.054   2.867 -1.2837  1.0703  1.0246
  180SLPC   C2520505   2.945   0.138   2.947 -0.7564  0.4433  0.1925
  180SLPC   H5R20506   2.864   0.119   3.020 -1.6695 -0.0832 -0.9146
  180SLPC   H5S20507   2.914   0.218   2.876 -0.2404  0.0334 -0.5049
  180SLPC   C2620508   3.060   0.181   3.026 -1.1193  0.3661  0.3518
  180SLPC   H6R20509   3.131   0.213   2.947 -2.1832  2.2476  0.1023
  180SLPC   H6S20510   3.116   0.099   3.076  0.2574  0.7660 -0.4732
  180SLPC   C2720511   3.030   0.292   3.123 -0.1355 -0.1003  0.2017
  180SLPC   H7R20512   2.944   0.273   3.192 -1.1464  1.8034 -0.4507
  180SLPC   H7S20513   3.000   0.381   3.064 -0.1751 -0.1326  0.1724
  180SLPC   C2820514   3.160   0.324   3.202 -0.6264  0.1711  0.1056
  180SLPC   H8R20515   3.240   0.347   3.128 -1.4198 -0.8826 -1.1352
  180SLPC   H8S20516   3.195   0.235   3.258 -0.7087 -0.6384 -1.0762
  180SLPC   C2920517   3.141   0.449   3.290  0.0808 -0.4657 -0.3368
  180SLPC   H9R20518   3.098   0.534   3.234  1.6111  0.0578 -0.7885
  180SLPC  C21020519   3.142   0.454   3.424 -0.4093  0.0982 -0.5054
  180SLPC  H10R20520   3.097   0.541   3.474 -1.6857 -1.5906  1.4495
  180SLPC  C21120521   3.190   0.346   3.521 -0.1299 -0.1980  0.5099
  180SLPC  H11R20522   3.279   0.391   3.571  1.1405  0.3633 -2.0554
  180SLPC  H11S20523   3.241   0.259   3.473  1.2080  1.0252 -0.3629
  180SLPC  C21220524   3.076   0.291   3.590  0.6168 -0.3502 -0.5034
  180SLPC  H12R20525   2.994   0.245   3.533  0.3506 -1.6649  0.8745
  180SLPC  C21320526   3.073   0.282   3.727 -0.4444  0.1164 -0.0249
  180SLPC  H13R20527   2.984   0.242   3.778  0.0435 -0.9659  0.0127
  180SLPC  C21420528   3.177   0.333   3.824 -0.7704  0.4636  0.3081
  180SLPC  H14R20529   3.138   0.407   3.897 -1.0632  0.9868 -0.3571
  180SLPC  H14S20530   3.266   0.372   3.770 -1.2292  1.1958  0.0573
  180SLPC  C21520531   3.241   0.216   3.909 -0.2574  0.3860 -0.4094
  180SLPC  H15R20532   3.166   0.169   3.976 -0.2855  2.0891  0.8041
  180SLPC  H15S20533   3.302   0.266   3.987 -0.3635  2.5914 -1.6768
  180SLPC  C21620534   3.329   0.117   3.841 -0.2447 -0.1169  0.2955
  180SLPC  H16R20535   3.409   0.176   3.791  0.2652 -0.3527  0.8244
  180SLPC  H16S20536   3.272   0.060   3.765  0.6237 -2.3862  1.2482
  180SLPC  C21720537   3.400   0.012   3.939  0.2480 -0.6323 -0.1557
  180SLPC  H17R20538   3.430   0.076   4.025 -3.2671  0.6813  0.2767
  180SLPC  H17S20539   3.485  -0.029   3.880  0.5611  0.3868 -0.4301
  180SLPC  C21820540   3.302  -0.102   3.985 -0.4285 -0.0596 -0.8581
  180SLPC  H18R20541   3.358  -0.194   4.013 -0.6884 -0.8123 -2.6231
  180SLPC  H18S20542   3.239  -0.132   3.898  0.3370 -0.8149 -1.1684
  180SLPC  H18T20543   3.248  -0.070   4.076  1.6509  0.5732  0.1954
  180SLPC   C3320544   2.804  -0.785   2.874 -0.2130  0.4641  0.1138
  180SLPC   H3X20545   2.748  -0.876   2.843 -0.7637  0.1994  1.7679
  180SLPC   H3Y20546   2.724  -0.709   2.887 -0.6993 -0.5041  4.2136
  180SLPC   C3420547   2.844  -0.811   3.017 -0.3751  0.3479  0.1927
  180SLPC   H4X20548   2.852  -0.716   3.075  1.0898 -0.3679  1.2431
  180SLPC   H4Y20549   2.938  -0.867   3.035 -0.9029 -1.1395 -1.4821
  180SLPC   C3520550   2.743  -0.903   3.089 -0.5113 -0.0624  0.0432
  180SLPC   H5X20551   2.744  -1.005   3.046 -3.3607  0.0187 -0.4016
  180SLPC   H5Y20552   2.635  -0.877   3.082 -1.0639 -1.5549  2.0012
  180SLPC   C3620553   2.777  -0.924   3.237  0.3445  0.2384  0.2133
  180SLPC   H6X20554   2.824  -0.833   3.281  0.3730  0.2379  0.1840
  180SLPC   H6Y20555   2.866  -0.990   3.229 -0.8201 -1.2768 -0.6630
  180SLPC   C3720556   2.659  -0.996   3.306  0.3872 -0.3713  0.3286
  180SLPC   H7X20557   2.626  -1.075   3.236 -1.9632 -0.8117  1.8166
  180SLPC   H7Y20558   2.577  -0.921   3.312  0.0637 -0.6380 -0.5588
  180SLPC   C3820559   2.693  -1.050   3.443  0.4167 -0.1756  0.6553
  180SLPC   H8X20560   2.738  -0.971   3.508  0.4129  0.7939 -0.4970
  180SLPC   H8Y20561   2.774  -1.125   3.433  0.0122 -0.5372  0.0633
  180SLPC   C3920562   2.579  -1.102   3.526  0.7921 -0.0926  0.3551
  180SLPC   H9X20563   2.517  -1.161   3.454 -0.9990  1.2791  0.7082
  180SLPC   H9Y20564   2.505  -1.029   3.564 -2.2967 -1.9262 -1.7141
  180SLPC  C31020565   2.621  -1.210   3.621 -0.3857  0.3517 -1.2764
  180SLPC  H10X20566   2.664  -1.298   3.569  2.1429  0.6640  0.1392
  180SLPC  H10Y20567   2.538  -1.258   3.677  1.7187 -3.3674 -1.0130
  180SLPC  C31120568   2.704  -1.153   3.734 -0.3457  1.0549 -0.4743
  180SLPC  H11X20569   2.657  -1.067   3.786 -2.9019 -0.5958  0.1356
  180SLPC  H11Y20570   2.804  -1.123   3.697  1.0651 -0.6487  1.6639
  180SLPC  C31220571   2.731  -1.239   3.859  0.2453  0.2088 -0.4982
  180SLPC  H12X20572   2.763  -1.339   3.823  0.0526 -0.5979  1.4423
  180SLPC  H12Y20573   2.641  -1.254   3.923 -0.0016  2.6417 -0.1707
  180SLPC  C31320574   2.838  -1.173   3.949 -0.3368  0.4547 -0.2125
  180SLPC  H13X20575   2.926  -1.150   3.886  0.0214  2.5001  0.9366
  180SLPC  H13Y20576   2.866  -1.245   4.028  1.3979  0.3388 -0.9046
  180SLPC  C31420577   2.802  -1.048   4.019  0.1818 -0.7507  0.0982
  180SLPC  H14X20578   2.691  -1.047   4.024  0.1691 -2.9551  1.6043
  180SLPC  H14Y20579   2.842  -0.966   3.955 -0.6490 -1.4465 -1.3800
  180SLPC  C31520580   2.834  -1.032   4.164 -0.1015 -0.3027 -0.4513
  180SLPC  H15X20581   2.941  -1.004   4.176  0.2768 -1.5780 -0.7628
  180SLPC  H15Y20582   2.821  -1.119   4.232  1.1775  0.2348  0.5341
  180SLPC  C31620583   2.746  -0.919   4.225  0.8716 -0.8450 -0.0171
  180SLPC  H16X20584   2.643  -0.959   4.213  0.3816  0.4737 -0.3954
  180SLPC  H16Y20585   2.758  -0.823   4.169 -1.5251 -0.3232  0.2752
  180SLPC  C31720586   2.781  -0.873   4.365 -0.6788  0.1479  0.1155
  180SLPC  H17X20587   2.791  -0.966   4.425  1.8868  0.5031  0.3207
  180SLPC  H17Y20588   2.705  -0.810   4.415 -1.1987 -1.7278  1.8390
  180SLPC  C31820589   2.918  -0.804   4.391 -0.3659  0.3082  0.4865
  180SLPC  H18X20590   2.947  -0.795   4.498 -1.0202  1.8673  0.5677
  180SLPC  H18Y20591   2.915  -0.702   4.346 -2.7988  0.6529  1.2981
  180SLPC  H18Z20592   3.004  -0.850   4.338 -0.6249 -0.4397  0.7086
  181SLPC     N20593   3.293   6.260   1.940 -0.6208 -0.5315 -0.4330
  181SLPC   C1320594   3.172   6.228   1.866  0.0554 -0.5438  0.2301
  181SLPC  H13A20595   3.124   6.141   1.909  1.5254 -1.3093  0.3910
  181SLPC  H13B20596   3.107   6.313   1.881  0.5342  0.0028 -0.6973
  181SLPC  H13C20597   3.194   6.217   1.761 -0.5486 -1.8879  0.2251
  181SLPC   C1420598   3.374   6.348   1.855  0.1686 -0.4234 -0.4478
  181SLPC  H14A20599   3.375   6.309   1.754 -0.1468 -1.8763  0.0789
  181SLPC  H14B20600   3.327   6.445   1.851 -1.6672 -1.3033 -2.1861
  181SLPC  H14C20601   3.476   6.350   1.889 -0.2614 -1.0347  0.9477
  181SLPC   C1520602   3.368   6.132   1.960 -0.1237 -1.1667  0.0864
  181SLPC  H15A20603   3.315   6.065   2.026 -2.6589  2.4093  2.0148
  181SLPC  H15B20604   3.364   6.081   1.865  0.8500 -1.3148  0.1108
  181SLPC  H15C20605   3.470   6.144   1.993  0.4745 -3.0594 -0.9594
  181SLPC   C1220606   3.253   6.332   2.069 -0.2917 -0.1310 -0.3050
  181SLPC  H12A20607   3.190   6.263   2.123  0.7005 -0.3689  0.5757
  181SLPC  H12B20608   3.187   6.414   2.044  0.2062  0.6284  0.8297
  181SLPC   C1120609   3.361   6.380   2.162 -0.2225 -0.6430 -0.1171
  181SLPC  H11A20610   3.312   6.445   2.238 -0.4976 -1.0532  0.0648
  181SLPC  H11B20611   3.417   6.447   2.094 -2.0577  1.0092 -0.0699
  181SLPC     P20612   3.397   6.196   2.340  0.1427 -0.0762 -0.1237
  181SLPC   O1320613   3.266   6.132   2.320 -0.0046 -0.0011 -0.0377
  181SLPC   O1420614   3.508   6.100   2.367 -0.2704 -0.5952  1.3100
  181SLPC   O1220615   3.443   6.274   2.210 -0.1985 -0.0474  0.2591
  181SLPC   O1120616   3.400   6.310   2.447  0.3859  0.3718 -0.3212
  181SLPC    C120617   3.292   6.376   2.516  0.2187  0.1607  0.1895
  181SLPC    HA20618   3.276   6.483   2.492 -0.0048  0.0284 -0.2678
  181SLPC    HB20619   3.198   6.319   2.500 -0.5612  1.6213 -0.6514
  181SLPC    C220620   3.321   6.379   2.671 -0.1724 -0.6362  0.1286
  181SLPC    HS20621   3.226   6.410   2.718 -0.1600 -1.1057  0.4615
  181SLPC   O2120622   3.437   6.453   2.713 -0.0102 -0.0395 -0.3503
  181SLPC   C2120623   3.445   6.583   2.688 -0.5754 -0.9225 -0.1683
  181SLPC   O2220624   3.364   6.648   2.620  0.2241 -0.1505 -0.3377
  181SLPC   C2220625   3.574   6.644   2.750 -0.5448 -0.1504  0.0265
  181SLPC   H2R20626   3.602   6.604   2.850  0.0691 -2.6781 -1.0605
  181SLPC   H2S20627   3.658   6.624   2.680 -0.8623 -1.2869 -0.0519
  181SLPC    C320628   3.354   6.229   2.723 -0.4700 -0.1088 -0.1207
  181SLPC    HX20629   3.449   6.191   2.680  0.5776 -0.2179  2.1768
  181SLPC    HY20630   3.273   6.172   2.673  0.3209  0.4092 -2.1025
  181SLPC   O3120631   3.366   6.223   2.863 -0.2764  0.7105 -0.6885
  181SLPC   C3120632   3.313   6.130   2.933  0.7897 -0.3043 -0.8402
  181SLPC   O3220633   3.257   6.028   2.895 -0.0630  0.3406 -0.0162
  181SLPC   C3220634   3.324   6.177   3.080 -0.2725 -0.1586  0.2267
  181SLPC   H2X20635   3.340   6.287   3.084  0.1397 -0.1568 -1.0023
  181SLPC   H2Y20636   3.417   6.132   3.119  0.1550 -0.5038 -1.1374
  181SLPC   C2320637   3.551   6.797   2.772 -0.7002  0.6748  0.0831
  181SLPC   H3R20638   3.520   6.854   2.681  1.2380  1.8146  0.0930
  181SLPC   H3S20639   3.652   6.838   2.793  0.0904 -0.6262 -1.0100
  181SLPC   C2420640   3.465   6.836   2.885  0.7115  0.0729 -1.0769
  181SLPC   H4R20641   3.359   6.813   2.862  0.9440  0.3208 -2.4493
  181SLPC   H4S20642   3.488   6.945   2.885  3.2838 -0.3063  1.9793
  181SLPC   C2520643   3.503   6.780   3.018 -0.6732  0.1410 -1.1166
  181SLPC   H5R20644   3.605   6.806   3.054 -1.0802 -0.0251  0.2390
  181SLPC   H5S20645   3.497   6.669   3.018  3.1447 -0.2205  0.2807
  181SLPC   C2620646   3.409   6.851   3.118 -0.2525 -0.0720  0.2683
  181SLPC   H6R20647   3.304   6.814   3.115  0.2874 -1.6112 -0.4467
  181SLPC   H6S20648   3.406   6.961   3.101  0.8940  0.3584  2.4990
  181SLPC   C2720649   3.470   6.829   3.258  0.1580 -0.2445 -0.9766
  181SLPC   H7R20650   3.576   6.864   3.257  0.1744  0.0277  1.8110
  181SLPC   H7S20651   3.488   6.721   3.279  2.9266  0.3812  0.3518
  181SLPC   C2820652   3.397   6.899   3.374 -0.0919 -0.7011  0.8835
  181SLPC   H8R20653   3.290   6.869   3.374  0.1724 -1.7206  2.2418
  181SLPC   H8S20654   3.415   7.007   3.353 -0.9971 -0.8948 -1.1626
  181SLPC   C2920655   3.452   6.860   3.509 -0.4717 -0.0326  0.4090
  181SLPC   H9R20656   3.535   6.920   3.549  1.5242 -2.2692 -0.1380
  181SLPC  C21020657   3.405   6.751   3.578 -0.3721  0.1558  0.0536
  181SLPC  H10R20658   3.452   6.735   3.676  2.9263  1.4433 -1.2017
  181SLPC  C21120659   3.303   6.643   3.538  0.9040  0.7692  0.0959
  181SLPC  H11R20660   3.304   6.551   3.600 -0.4316  0.3535 -0.4703
  181SLPC  H11S20661   3.339   6.617   3.436 -0.1365 -1.3019  0.2232
  181SLPC  C21220662   3.167   6.707   3.544 -0.2206  0.1809 -0.3997
  181SLPC  H12R20663   3.145   6.774   3.628 -3.0703 -1.1365  0.0168
  181SLPC  C21320664   3.062   6.674   3.462  0.2649 -0.1581  0.3309
  181SLPC  H13R20665   2.964   6.725   3.466  1.1056  1.5215  0.2450
  181SLPC  C21420666   3.066   6.572   3.348  0.0972  0.0882 -0.7733
  181SLPC  H14R20667   2.963   6.538   3.326 -0.6816 -0.4476  2.9556
  181SLPC  H14S20668   3.124   6.482   3.379 -2.1034 -0.9605  0.4931
  181SLPC  C21520669   3.126   6.612   3.213  0.3537 -0.4474 -0.2803
  181SLPC  H15R20670   3.237   6.612   3.214  0.3820  1.1241 -0.2703
  181SLPC  H15S20671   3.100   6.720   3.200  0.5595 -0.3987 -0.2935
  181SLPC  C21620672   3.083   6.537   3.091  0.5734  0.5554 -0.1481
  181SLPC  H16R20673   3.118   6.432   3.105 -0.2577  0.2650 -0.1755
  181SLPC  H16S20674   3.130   6.576   2.998  2.0738  0.5163  0.5591
  181SLPC  C21720675   2.931   6.543   3.062 -0.4444 -0.3945  0.5354
  181SLPC  H17R20676   2.903   6.650   3.057 -1.3970 -0.6370  0.4944
  181SLPC  H17S20677   2.870   6.502   3.145 -1.2572 -1.4812 -0.5519
  181SLPC  C21820678   2.889   6.473   2.934 -0.2834  0.9250 -0.2993
  181SLPC  H18R20679   2.942   6.513   2.845 -0.2121 -0.3983 -0.8841
  181SLPC  H18S20680   2.780   6.487   2.918 -0.6495 -0.4634  0.7443
  181SLPC  H18T20681   2.916   6.365   2.935  1.0220  1.2379  0.3121
  181SLPC   C3320682   3.214   6.125   3.177 -0.8107  0.2594 -0.6301
  181SLPC   H3X20683   3.199   6.016   3.163  1.2201 -0.3141  1.1170
  181SLPC   H3Y20684   3.118   6.168   3.142 -1.5245 -1.0937 -0.3852
  181SLPC   C3420685   3.245   6.143   3.323  0.2871 -0.6082  0.0743
  181SLPC   H4X20686   3.217   6.246   3.355 -0.7372  0.6822 -4.3250
  181SLPC   H4Y20687   3.356   6.144   3.328  0.5783  4.8023 -1.0346
  181SLPC   C3520688   3.174   6.039   3.411  0.0574 -0.1109 -0.3041
  181SLPC   H5X20689   3.196   5.935   3.380  0.0808  0.1780 -1.2870
  181SLPC   H5Y20690   3.063   6.038   3.406 -0.0273  1.0687  0.7280
  181SLPC   C3620691   3.216   6.057   3.552 -0.0805  0.6060  0.1604
  181SLPC   H6X20692   3.156   6.138   3.599 -3.4823 -1.4748 -0.2509
  181SLPC   H6Y20693   3.323   6.084   3.563 -0.2676  1.5233 -0.1448
  181SLPC   C3720694   3.192   5.928   3.639 -0.1494 -0.1213  0.3558
  181SLPC   H7X20695   3.252   5.845   3.594 -0.5698  0.0987 -0.6353
  181SLPC   H7Y20696   3.084   5.904   3.645  0.0323 -1.2014 -0.2672
  181SLPC   C3820697   3.251   5.963   3.782 -0.8064 -0.5849  0.0622
  181SLPC   H8X20698   3.212   6.064   3.805  1.2343  0.5255 -1.0851
  181SLPC   H8Y20699   3.361   5.976   3.787 -0.7231 -1.3846  0.4929
  181SLPC   C3920700   3.222   5.862   3.893 -0.3441 -0.6737  0.0508
  181SLPC   H9X20701   3.114   5.838   3.882 -0.3477 -0.1458 -1.2952
  181SLPC   H9Y20702   3.236   5.907   3.993  1.9119  1.0504 -0.9768
  181SLPC  C31020703   3.301   5.733   3.875  0.0109 -0.3476 -0.3641
  181SLPC  H10X20704   3.409   5.759   3.877 -0.0227 -0.1981 -0.4325
  181SLPC  H10Y20705   3.282   5.696   3.772 -2.4410  1.8690 -0.8163
  181SLPC  C31120706   3.268   5.626   3.977  0.4644 -0.1533  0.1404
  181SLPC  H11X20707   3.157   5.615   3.979  0.5647 -2.0093  3.6235
  181SLPC  H11Y20708   3.282   5.670   4.078 -3.1582 -0.8676  1.1157
  181SLPC  C31220709   3.330   5.483   3.950  0.1611 -0.4489  0.3722
  181SLPC  H12X20710   3.439   5.491   3.933  0.3942  1.8695  2.3727
  181SLPC  H12Y20711   3.277   5.431   3.867  1.8452  0.0853 -1.0872
  181SLPC  C31320712   3.306   5.389   4.067  0.7275 -0.7081 -0.9698
  181SLPC  H13X20713   3.210   5.408   4.122  0.6593 -0.1571 -1.2678
  181SLPC  H13Y20714   3.383   5.407   4.145 -0.4117 -0.8306  0.2263
  181SLPC  C31420715   3.315   5.242   4.027  0.1424 -0.0196  0.7423
  181SLPC  H14X20716   3.404   5.231   3.961  2.0862  2.2928  2.7880
  181SLPC  H14Y20717   3.223   5.202   3.978  0.8336 -1.0458  0.2523
  181SLPC  C31520718   3.319   5.155   4.157 -0.8256 -0.7493 -0.3195
  181SLPC  H15X20719   3.229   5.168   4.220 -1.3744  1.3599 -1.4287
  181SLPC  H15Y20720   3.396   5.201   4.223  0.1276 -0.1824 -1.7556
  181SLPC  C31620721   3.345   5.010   4.120  0.0588 -0.1612  0.1660
  181SLPC  H16X20722   3.260   4.994   4.051  0.2210 -1.1983  0.1833
  181SLPC  H16Y20723   3.327   4.949   4.211  0.1463  1.4165  1.2807
  181SLPC  C31720724   3.487   4.975   4.063  0.3814 -0.0614 -0.2253
  181SLPC  H17X20725   3.550   4.918   4.134  0.0310 -1.3873 -0.9422
  181SLPC  H17Y20726   3.543   5.064   4.029  1.8374 -0.1897  1.6983
  181SLPC  C31820727   3.481   4.871   3.958  0.4715 -0.3690  0.4259
  181SLPC  H18X20728   3.464   4.918   3.858 -0.5410 -0.4118  0.5746
  181SLPC  H18Y20729   3.384   4.818   3.954 -0.1362  0.7075  0.4559
  181SLPC  H18Z20730   3.562   4.795   3.954  0.7832 -0.0022 -2.3874
  182SLPC     N20731   2.505   4.308   1.834  0.1392 -0.0815  0.4006
  182SLPC   C1320732   2.546   4.392   1.710  0.3188  0.1583  0.1144
  182SLPC  H13A20733   2.554   4.333   1.620 -0.5112  0.0712  0.0939
  182SLPC  H13B20734   2.498   4.486   1.688 -1.6267 -0.8460 -0.0941
  182SLPC  H13C20735   2.646   4.424   1.737 -0.1495  1.8159 -0.0041
  182SLPC   C1420736   2.554   4.172   1.815  0.0126 -0.5645 -0.1290
  182SLPC  H14A20737   2.586   4.136   1.912 -1.2557  2.1642  1.4355
  182SLPC  H14B20738   2.487   4.103   1.766  0.3957  0.3151 -1.9757
  182SLPC  H14C20739   2.646   4.182   1.759  0.9499  0.7706  1.5568
  182SLPC   C1520740   2.356   4.297   1.844  0.3465 -0.3190  0.1483
  182SLPC  H15A20741   2.315   4.281   1.746  0.9313 -2.8142  0.2541
  182SLPC  H15B20742   2.332   4.215   1.911  0.2220  0.2723  0.8443
  182SLPC  H15C20743   2.297   4.378   1.885 -0.0602 -0.7654  0.4510
  182SLPC   C1220744   2.564   4.363   1.960 -0.2692  0.3237  0.0681
  182SLPC  H12A20745   2.535   4.466   1.975  1.2016  0.5811  1.4359
  182SLPC  H12B20746   2.672   4.363   1.966 -0.1758  0.1751 -1.3127
  182SLPC   C1120747   2.516   4.300   2.099 -1.1769  0.5475  0.0094
  182SLPC  H11A20748   2.405   4.306   2.098 -1.1432  1.6301  1.2212
  182SLPC  H11B20749   2.542   4.359   2.189  0.1198  1.9342 -1.2044
  182SLPC     P20750   2.706   4.131   2.173  0.1004 -0.4308  0.2277
  182SLPC   O1320751   2.710   3.986   2.176 -0.0445 -0.2922  0.5089
  182SLPC   O1420752   2.826   4.188   2.106  0.5484 -0.8083  0.6537
  182SLPC   O1220753   2.560   4.168   2.116 -0.4124  0.2359  0.5885
  182SLPC   O1120754   2.692   4.181   2.317  0.0971  0.0900  0.0922
  182SLPC    C120755   2.578   4.174   2.401 -0.2646 -0.1911 -0.3961
  182SLPC    HA20756   2.512   4.263   2.387  1.7461  1.9661  2.4432
  182SLPC    HB20757   2.518   4.086   2.372  1.5159 -0.4061 -3.8409
  182SLPC    C220758   2.617   4.172   2.547 -0.0703 -0.2046  0.6997
  182SLPC    HS20759   2.671   4.261   2.586  2.1992 -2.1357  2.3005
  182SLPC   O2120760   2.691   4.055   2.559 -0.1396 -0.3108 -0.2406
  182SLPC   C2120761   2.825   4.078   2.563  0.6797  0.4700 -0.5044
  182SLPC   O2220762   2.886   4.182   2.557  0.0732  0.2601  0.1248
  182SLPC   C2220763   2.895   3.940   2.579  0.1939  0.6289 -0.0238
  182SLPC   H2R20764   2.853   3.893   2.487 -2.0886  1.0872  0.7319
  182SLPC   H2S20765   3.002   3.964   2.561  0.6782 -0.1410  1.6730
  182SLPC    C320766   2.486   4.158   2.632  0.0873 -0.0623 -1.0004
  182SLPC    HX20767   2.450   4.053   2.629 -0.3914  0.0236  0.6397
  182SLPC    HY20768   2.400   4.216   2.592  0.1072 -0.7061 -2.0398
  182SLPC   O3120769   2.520   4.191   2.770  0.1708  0.5723  0.0472
  182SLPC   C3120770   2.521   4.323   2.788  0.2593  0.3039 -0.3450
  182SLPC   O3220771   2.498   4.406   2.700  0.4147  0.0750  0.1549
  182SLPC   C3220772   2.546   4.351   2.933 -0.3031  0.2067  0.1431
  182SLPC   H2X20773   2.652   4.382   2.933 -0.2344  0.4735 -3.5198
  182SLPC   H2Y20774   2.536   4.258   2.992  1.1431  1.1734  2.0022
  182SLPC   C2320775   2.859   3.847   2.700  0.5039 -0.2774  0.1756
  182SLPC   H3R20776   2.760   3.796   2.696  0.6190 -0.4224 -1.5953
  182SLPC   H3S20777   2.858   3.908   2.793 -1.1543 -0.3896  0.2755
  182SLPC   C2420778   2.968   3.741   2.729  0.4352  0.4188 -0.5581
  182SLPC   H4R20779   3.063   3.794   2.748  0.8902 -0.7463  0.5887
  182SLPC   H4S20780   3.000   3.687   2.637  1.7285  1.4329 -0.7220
  182SLPC   C2520781   2.934   3.627   2.836 -0.0487  0.0835  0.7455
  182SLPC   H5R20782   3.027   3.581   2.874  0.7155  2.0961  1.4791
  182SLPC   H5S20783   2.870   3.550   2.787 -0.0758  2.3905 -3.3727
  182SLPC   C2620784   2.849   3.671   2.960  0.5000 -0.3804 -0.4969
  182SLPC   H6R20785   2.744   3.695   2.931 -0.2185 -0.2402  2.0256
  182SLPC   H6S20786   2.890   3.767   2.999  0.7959 -0.1097 -1.4547
  182SLPC   C2720787   2.847   3.560   3.069 -0.2475 -0.1941  0.2842
  182SLPC   H7R20788   2.951   3.525   3.088 -0.4358 -0.1581  1.3955
  182SLPC   H7S20789   2.789   3.475   3.027  1.0714 -2.4844  2.7777
  182SLPC   C2820790   2.792   3.605   3.200 -0.1138 -0.2226  0.0843
  182SLPC   H8R20791   2.850   3.697   3.223 -0.0081 -0.5989  1.4134
  182SLPC   H8S20792   2.820   3.532   3.279 -0.5199  0.0147  0.4557
  182SLPC   C2920793   2.650   3.633   3.207  0.2932 -0.6919  0.0119
  182SLPC   H9R20794   2.613   3.671   3.111 -0.9098  1.4413  1.2389
  182SLPC  C21020795   2.563   3.601   3.309  0.5034 -0.7683  0.4090
  182SLPC  H10R20796   2.460   3.641   3.303  1.5644  2.1417 -0.0806
  182SLPC  C21120797   2.604   3.545   3.446 -0.0972 -0.4358  0.7888
  182SLPC  H11R20798   2.707   3.578   3.469  0.8672 -1.5823 -1.4912
  182SLPC  H11S20799   2.607   3.434   3.436  1.7001 -0.3008 -0.7044
  182SLPC  C21220800   2.513   3.591   3.557 -0.1000  0.1281  0.2727
  182SLPC  H12R20801   2.437   3.667   3.534  1.3061  2.8114  3.6750
  182SLPC  C21320802   2.531   3.555   3.682  0.1310  0.5656 -0.2223
  182SLPC  H13R20803   2.471   3.586   3.769 -0.6303 -0.7404 -0.2541
  182SLPC  C21420804   2.638   3.453   3.723  0.3627  0.6127 -0.2496
  182SLPC  H14R20805   2.729   3.511   3.752  0.7201 -0.7372  1.5042
  182SLPC  H14S20806   2.678   3.392   3.639  0.7003  2.0099 -1.1405
  182SLPC  C21520807   2.588   3.358   3.837  0.0332 -0.0605 -0.4066
  182SLPC  H15R20808   2.523   3.274   3.804  1.2472 -1.1891 -0.0179
  182SLPC  H15S20809   2.524   3.420   3.904  0.1766 -0.8654  0.4901
  182SLPC  C21620810   2.701   3.296   3.923  0.0241  0.6256  0.4146
  182SLPC  H16R20811   2.758   3.378   3.971 -0.8444  1.0636  0.7179
  182SLPC  H16S20812   2.764   3.247   3.846 -1.0958 -1.1462  0.5757
  182SLPC  C21720813   2.649   3.197   4.031 -0.3415  0.0321 -0.8541
  182SLPC  H17R20814   2.716   3.110   4.049 -2.8234 -1.3897  2.5520
  182SLPC  H17S20815   2.558   3.152   3.986 -1.0487  1.0639 -0.5055
  182SLPC  C21820816   2.607   3.268   4.166  0.0068 -0.5482  0.1026
  182SLPC  H18R20817   2.685   3.334   4.209 -1.8752  0.6322  1.8913
  182SLPC  H18S20818   2.591   3.193   4.246 -2.1233  1.1721  1.3904
  182SLPC  H18T20819   2.522   3.336   4.143 -1.7098 -2.5451  0.2255
  182SLPC   C3320820   2.458   4.458   2.992 -0.2246  0.0075 -0.0858
  182SLPC   H3X20821   2.354   4.419   2.993 -0.4065  0.4649 -0.6364
  182SLPC   H3Y20822   2.453   4.542   2.920  0.1408  2.0104  2.0987
  182SLPC   C3420823   2.489   4.499   3.130  0.0747 -0.2849 -0.4323
  182SLPC   H4X20824   2.579   4.563   3.123  1.2588 -1.6585  1.3028
  182SLPC   H4Y20825   2.527   4.411   3.186 -0.5313  0.3640  1.0547
  182SLPC   C3520826   2.368   4.563   3.207 -0.0571  0.2119  0.1706
  182SLPC   H5X20827   2.284   4.491   3.214  0.3427 -0.2324  0.5325
  182SLPC   H5Y20828   2.318   4.640   3.145 -1.1608 -1.0861 -0.6162
  182SLPC   C3620829   2.407   4.613   3.349 -0.2628  0.3899  0.1209
  182SLPC   H6X20830   2.312   4.648   3.395  0.2480  0.1451  1.4127
  182SLPC   H6Y20831   2.479   4.697   3.343  1.8449 -1.2503  0.9332
  182SLPC   C3720832   2.444   4.495   3.449 -0.2429 -0.5188  0.5556
  182SLPC   H7X20833   2.552   4.474   3.434  0.8793  3.0574  2.3499
  182SLPC   H7Y20834   2.383   4.409   3.415 -1.9437  1.0781 -0.6367
  182SLPC   C3820835   2.413   4.537   3.593 -0.8548  0.1378  0.3428
  182SLPC   H8X20836   2.307   4.561   3.616 -1.0287  1.2725 -1.4555
  182SLPC   H8Y20837   2.468   4.633   3.602  0.5524 -0.5843 -0.2232
  182SLPC   C3920838   2.481   4.438   3.690 -0.0170  0.7100 -0.8830
  182SLPC   H9X20839   2.584   4.421   3.653  0.0357  2.2125 -1.4926
  182SLPC   H9Y20840   2.420   4.345   3.689 -2.4836  2.2138 -0.2033
  182SLPC  C31020841   2.482   4.490   3.834 -0.0125  0.0592 -0.2493
  182SLPC  H10X20842   2.373   4.508   3.850 -0.9860 -2.6962 -2.8091
  182SLPC  H10Y20843   2.535   4.584   3.858 -1.1984  0.5763  0.4798
  182SLPC  C31120844   2.528   4.389   3.937  0.5369 -0.7645  0.1931
  182SLPC  H11X20845   2.637   4.370   3.922  0.9741  1.6007  0.0382
  182SLPC  H11Y20846   2.464   4.300   3.922 -1.0028 -0.0720  2.2165
  182SLPC  C31220847   2.525   4.434   4.077  0.4190  0.0975 -0.0899
  182SLPC  H12X20848   2.422   4.470   4.100 -0.1984 -2.4658  1.5680
  182SLPC  H12Y20849   2.597   4.515   4.101  0.2653 -0.1687  1.4016
  182SLPC  C31320850   2.555   4.325   4.181 -0.3515  0.2199  0.4731
  182SLPC  H13X20851   2.662   4.313   4.209 -0.2483  0.1738  0.0692
  182SLPC  H13Y20852   2.526   4.227   4.137  4.0871  0.2587 -3.3673
  182SLPC  C31420853   2.474   4.357   4.302  0.5240 -0.5229 -0.8121
  182SLPC  H14X20854   2.455   4.260   4.352  1.6541 -0.5692 -0.4478
  182SLPC  H14Y20855   2.379   4.407   4.273  1.2418  1.7302  0.4093
  182SLPC  C31520856   2.537   4.455   4.397 -0.4487 -0.6873 -0.0482
  182SLPC  H15X20857   2.559   4.546   4.337  1.5740 -0.6565  0.6563
  182SLPC  H15Y20858   2.635   4.408   4.419  0.9297  0.6999 -2.7006
  182SLPC  C31620859   2.459   4.479   4.531 -0.6905 -0.0219  0.2201
  182SLPC  H16X20860   2.524   4.532   4.604 -1.2567  0.1398  0.6135
  182SLPC  H16Y20861   2.421   4.387   4.579 -0.2825 -0.0738  0.4506
  182SLPC  C31720862   2.346   4.573   4.495 -0.0446 -0.4199  0.0664
  182SLPC  H17X20863   2.281   4.536   4.413  0.2964  1.4209 -1.1008
  182SLPC  H17Y20864   2.388   4.663   4.445 -1.9615 -0.7148 -2.2427
  182SLPC  C31820865   2.259   4.620   4.612 -0.1494  0.5023  0.0530
  182SLPC  H18X20866   2.177   4.548   4.629  0.7929 -0.7978 -0.7443
  182SLPC  H18Y20867   2.202   4.710   4.582 -0.2135  0.7332  0.8384
  182SLPC  H18Z20868   2.331   4.628   4.696  1.4882 -0.3483 -1.2061
  183SLPC     N20869   0.715   1.647   2.182  0.4955 -0.2997 -0.3890
  183SLPC   C1320870   0.642   1.606   2.301  0.2890  0.1026  0.6465
  183SLPC  H13A20871   0.535   1.616   2.287  0.5413  2.8506  0.0450
  183SLPC  H13B20872   0.654   1.500   2.319 -0.2354 -0.2139 -0.7027
  183SLPC  H13C20873   0.678   1.661   2.387 -0.9486  0.2429  1.1048
  183SLPC   C1420874   0.675   1.785   2.137  0.0882  0.8060 -0.2172
  183SLPC  H14A20875   0.695   1.860   2.212 -2.8393  1.5574 -0.0494
  183SLPC  H14B20876   0.719   1.802   2.040  1.6868 -1.2689  0.0759
  183SLPC  H14C20877   0.570   1.798   2.114  0.0889  0.9947 -0.1147
  183SLPC   C1520878   0.672   1.567   2.058  0.7597  0.3947  0.3659
  183SLPC  H15A20879   0.712   1.467   2.058 -1.1385 -0.4082 -0.7583
  183SLPC  H15B20880   0.564   1.557   2.059  0.6664  0.9448 -1.3926
  183SLPC  H15C20881   0.689   1.617   1.964  0.4916  0.3719  0.3027
  183SLPC   C1220882   0.870   1.641   2.214  0.4183  0.5485  0.2961
  183SLPC  H12A20883   0.905   1.709   2.291  0.5163  1.3119 -0.4058
  183SLPC  H12B20884   0.909   1.670   2.118  1.3428 -1.6239 -0.0246
  183SLPC   C1120885   0.925   1.503   2.253 -0.8501  0.0768  0.0507
  183SLPC  H11A20886   0.885   1.467   2.351 -0.3804  0.1611  0.2744
  183SLPC  H11B20887   1.032   1.518   2.279 -0.5215  0.6808 -1.5740
  183SLPC     P20888   0.876   1.263   2.151  0.1661 -0.0632  0.1433
  183SLPC   O1320889   0.731   1.246   2.140 -0.3217 -0.4437 -0.4017
  183SLPC   O1420890   0.967   1.183   2.068 -0.5701 -0.6360  0.3801
  183SLPC   O1220891   0.908   1.417   2.141  0.5876 -0.5351  0.2542
  183SLPC   O1120892   0.917   1.235   2.304 -0.4228 -0.6071 -0.3726
  183SLPC    C120893   0.982   1.115   2.351 -0.1750  0.3862  0.3743
  183SLPC    HA20894   0.926   1.029   2.309  0.7143 -0.4550  0.8589
  183SLPC    HB20895   1.081   1.107   2.301 -1.0079 -0.4302 -1.2126
  183SLPC    C220896   0.996   1.112   2.504  0.3082 -0.5349  0.8389
  183SLPC    HS20897   1.055   1.027   2.545  1.2582  0.2862  1.2244
  183SLPC   O2120898   0.870   1.113   2.571  0.0433  0.3058 -0.7874
  183SLPC   C2120899   0.815   0.990   2.590  0.1050 -0.0226  0.4022
  183SLPC   O2220900   0.869   0.888   2.553 -0.2546 -0.2693 -0.0411
  183SLPC   C2220901   0.673   0.993   2.633  0.6857 -0.7856 -0.3052
  183SLPC   H2R20902   0.641   1.092   2.670  1.5060 -0.1360 -1.2973
  183SLPC   H2S20903   0.607   0.961   2.549 -1.0836 -2.7081  1.6979
  183SLPC    C320904   1.071   1.236   2.553 -0.4368  0.1368 -0.2345
  183SLPC    HX20905   1.024   1.331   2.517  2.0535  1.0394 -1.3894
  183SLPC    HY20906   1.172   1.234   2.507  0.0334 -0.5428  0.7867
  183SLPC   O3120907   1.096   1.233   2.689  0.0925  0.1520 -0.4778
  183SLPC   C3120908   1.034   1.312   2.764 -0.3472 -0.0303 -1.0393
  183SLPC   O3220909   0.948   1.392   2.731 -0.1031  0.1899 -0.2891
  183SLPC   C3220910   1.087   1.277   2.910  0.7873  0.0999  0.6401
  183SLPC   H2X20911   1.160   1.359   2.926  1.3186  0.2802 -2.2861
  183SLPC   H2Y20912   1.151   1.186   2.915  0.5253 -0.0348  2.0830
  183SLPC   C2320913   0.649   0.884   2.734  0.2455  0.4961 -1.0292
  183SLPC   H3R20914   0.686   0.787   2.693  0.6982  1.2799 -2.5842
  183SLPC   H3S20915   0.539   0.873   2.742 -0.0239  2.2692 -1.6342
  183SLPC   C2420916   0.686   0.910   2.884  0.0795  0.1766  0.9688
  183SLPC   H4R20917   0.667   1.017   2.907  0.1179  0.3417  0.2479
  183SLPC   H4S20918   0.796   0.903   2.902  0.4474 -0.4456 -1.2403
  183SLPC   C2520919   0.600   0.820   2.971  0.6498 -0.3245 -0.4200
  183SLPC   H5R20920   0.597   0.722   2.920  2.9433  1.5152 -4.6710
  183SLPC   H5S20921   0.497   0.862   2.968  0.7881 -0.0436 -1.8557
  183SLPC   C2620922   0.633   0.801   3.122 -0.2708  0.8477  0.6120
  183SLPC   H6R20923   0.606   0.893   3.178 -0.1256 -0.3839  2.8348
  183SLPC   H6S20924   0.743   0.787   3.134 -0.0460  2.3919  0.5712
  183SLPC   C2720925   0.558   0.687   3.195 -0.4829  0.0268  0.2176
  183SLPC   H7R20926   0.453   0.683   3.157 -1.1048 -0.3116  1.8987
  183SLPC   H7S20927   0.556   0.713   3.302  3.0355  2.5894 -0.1903
  183SLPC   C2820928   0.641   0.553   3.194 -0.7495 -0.0201  0.5919
  183SLPC   H8R20929   0.738   0.577   3.243  0.3466 -0.5744 -1.2072
  183SLPC   H8S20930   0.659   0.514   3.091 -1.7967  0.9266  0.0278
  183SLPC   C2920931   0.564   0.442   3.267  0.0285 -0.4959  0.0896
  183SLPC   H9R20932   0.460   0.440   3.231 -0.3835 -3.3137  1.1355
  183SLPC  C21020933   0.593   0.361   3.377 -0.3462  0.0797 -0.5886
  183SLPC  H10R20934   0.510   0.295   3.405  0.2249 -1.4274 -2.2419
  183SLPC  C21120935   0.723   0.368   3.462 -0.3280 -0.0714 -0.5582
  183SLPC  H11R20936   0.793   0.448   3.428 -1.1073  0.6015 -0.6332
  183SLPC  H11S20937   0.768   0.268   3.443  0.0145  0.0554 -0.4298
  183SLPC  C21220938   0.699   0.384   3.609  0.2492 -0.1735 -0.3432
  183SLPC  H12R20939   0.637   0.472   3.631  1.7655  1.1656 -1.2239
  183SLPC  C21320940   0.747   0.312   3.715  0.1187 -0.4138  0.7662
  183SLPC  H13R20941   0.724   0.345   3.817 -1.1651  0.0654  0.3408
  183SLPC  C21420942   0.849   0.201   3.702  0.3789  0.7511  0.0656
  183SLPC  H14R20943   0.893   0.202   3.600 -1.5205  1.6744 -0.7979
  183SLPC  H14S20944   0.794   0.105   3.716 -1.2841  1.3620 -1.8305
  183SLPC  C21520945   0.956   0.208   3.811  0.9469 -0.4737  0.4254
  183SLPC  H15R20946   0.903   0.206   3.908  0.4309 -0.7716  0.1430
  183SLPC  H15S20947   1.021   0.298   3.810  0.8102 -0.3759  0.3022
  183SLPC  C21620948   1.061   0.099   3.821 -0.2119  0.3102  0.8247
  183SLPC  H16R20949   1.115   0.089   3.725 -0.3047  0.5809  0.7426
  183SLPC  H16S20950   1.013  -0.000   3.838 -0.0027 -0.0311 -0.5126
  183SLPC  C21720951   1.172   0.114   3.934  0.1551  0.0039  0.1478
  183SLPC  H17R20952   1.193   0.220   3.959  3.6995 -0.5111 -0.0843
  183SLPC  H17S20953   1.273   0.078   3.904  0.4427 -0.7417  1.8517
  183SLPC  C21820954   1.126   0.038   4.063 -0.3125 -0.3754 -0.8185
  183SLPC  H18R20955   1.024   0.075   4.089  0.0080  3.4136 -3.9591
  183SLPC  H18S20956   1.193   0.060   4.148  0.1443 -1.9767 -0.7499
  183SLPC  H18T20957   1.124  -0.070   4.038  1.7964 -0.9062  1.0290
  183SLPC   C3320958   0.980   1.293   3.016 -0.1488 -0.6073  0.1278
  183SLPC   H3X20959   0.909   1.208   3.015 -0.7912 -0.1305  1.6492
  183SLPC   H3Y20960   0.935   1.390   2.985  0.1478 -0.0587  1.3529
  183SLPC   C3420961   1.030   1.301   3.163 -0.6734 -0.2333 -0.3981
  183SLPC   H4X20962   1.097   1.389   3.161  1.1464 -1.5602 -2.2986
  183SLPC   H4Y20963   1.102   1.220   3.188 -0.1825 -0.1902 -1.5721
  183SLPC   C3520964   0.918   1.312   3.265 -1.3889  0.1858 -0.0077
  183SLPC   H5X20965   0.854   1.222   3.253  0.0375 -1.0751  1.3429
  183SLPC   H5Y20966   0.862   1.406   3.282  0.2170  1.1473  0.0941
  183SLPC   C3620967   0.990   1.310   3.409  0.1290 -0.3127  0.5883
  183SLPC   H6X20968   1.075   1.379   3.388 -0.0614 -0.4740 -0.8170
  183SLPC   H6Y20969   1.042   1.213   3.425  3.0320  0.4795 -2.6593
  183SLPC   C3720970   0.889   1.351   3.510  0.1759  0.2239  0.0502
  183SLPC   H7X20971   0.816   1.268   3.506 -0.4899  0.6951  1.8396
  183SLPC   H7Y20972   0.845   1.448   3.479  1.4333 -0.0609 -3.0829
  183SLPC   C3820973   0.957   1.368   3.647  0.0888 -0.4003  0.0449
  183SLPC   H8X20974   1.038   1.440   3.667 -0.6619  0.6619 -0.6165
  183SLPC   H8Y20975   1.005   1.269   3.663 -0.0239 -0.3797  0.5336
  183SLPC   C3920976   0.851   1.378   3.760  0.0754  0.3053  0.4242
  183SLPC   H9X20977   0.787   1.288   3.762 -0.2997  0.5426 -0.4335
  183SLPC   H9Y20978   0.789   1.463   3.724 -3.2956 -1.7719  0.9911
  183SLPC  C31020979   0.907   1.414   3.896  0.2752  0.0584 -0.2158
  183SLPC  H10X20980   0.941   1.519   3.884  2.3755 -0.7424 -2.1697
  183SLPC  H10Y20981   0.987   1.339   3.915 -0.9112 -1.1502  0.1836
  183SLPC  C31120982   0.800   1.406   4.014  0.4890  0.2875  0.1183
  183SLPC  H11X20983   0.775   1.299   4.021 -0.3601  0.5312  0.9763
  183SLPC  H11Y20984   0.703   1.453   3.988 -0.3218 -0.2178  2.0479
  183SLPC  C31220985   0.847   1.457   4.152  0.0953 -0.4099  0.4241
  183SLPC  H12X20986   0.770   1.517   4.205 -0.6157 -0.2775 -0.7241
  183SLPC  H12Y20987   0.934   1.526   4.136  0.0259 -0.2629  0.6718
  183SLPC  C31320988   0.887   1.347   4.239 -0.0418  0.0257  0.6047
  183SLPC  H13X20989   0.975   1.305   4.186  1.6816  2.7792  1.1159
  183SLPC  H13Y20990   0.804   1.274   4.249 -1.1396  1.1478 -0.0365
  183SLPC  C31420991   0.938   1.392   4.379 -0.5008  0.6769 -0.3477
  183SLPC  H14X20992   0.975   1.496   4.385 -3.2605  1.7669 -0.6567
  183SLPC  H14Y20993   1.002   1.305   4.407 -0.3729  1.1036  0.7550
  183SLPC  C31520994   0.834   1.384   4.489  0.0353 -0.5566 -0.2375
  183SLPC  H15X20995   0.786   1.284   4.480  1.1645 -1.0031 -1.6935
  183SLPC  H15Y20996   0.759   1.461   4.463  0.6951 -0.6487 -2.6865
  183SLPC  C31620997   0.901   1.415   4.626 -0.0077 -0.6884 -0.1312
  183SLPC  H16X20998   0.945   1.517   4.631 -1.0190 -0.1270 -1.8556
  183SLPC  H16Y20999   0.976   1.338   4.653 -0.9037 -0.2571  4.5818
  183SLPC  C31721000   0.801   1.403   4.750  0.4388  0.2806  1.1203
  183SLPC  H17X21001   0.755   1.303   4.740 -1.5597  1.2965 -0.7312
  183SLPC  H17Y21002   0.730   1.482   4.718  1.4747  0.4541 -0.9522
  183SLPC  C31821003   0.866   1.418   4.884 -0.1617 -0.1716 -0.4636
  183SLPC  H18X21004   0.908   1.521   4.882  0.2015 -0.2659  1.1092
  183SLPC  H18Y21005   0.952   1.348   4.897 -0.2160 -0.5967 -2.1191
  183SLPC  H18Z21006   0.791   1.424   4.965 -2.3756  4.2726 -2.5145
  184SLPC     N21007   6.848   1.034   2.121  0.0376 -0.9388 -0.1579
  184SLPC   C1321008   6.797   1.118   2.236  0.2830  0.8674  0.0982
  184SLPC  H13A21009   6.698   1.086   2.265  0.9739 -0.8185  0.6995
  184SLPC  H13B21010   6.861   1.107   2.322  0.7300  3.1828  0.1224
  184SLPC  H13C21011   6.795   1.222   2.206 -1.1212  0.7818 -0.1963
  184SLPC   C1421012   6.750   1.037   2.012  0.5979  0.1665  0.2714
  184SLPC  H14A21013   6.653   1.005   2.048  0.2716 -0.7295 -1.3528
  184SLPC  H14B21014   6.732   1.136   1.973  0.9400  0.9962  2.0783
  184SLPC  H14C21015   6.774   0.978   1.925 -1.1766  0.7221 -0.6421
  184SLPC   C1521016   6.860   0.892   2.170 -0.2548 -0.0409  0.0728
  184SLPC  H15A21017   6.890   0.834   2.084 -0.2948 -0.5863  0.4179
  184SLPC  H15B21018   6.934   0.878   2.248 -0.7715 -0.3176  0.5296
  184SLPC  H15C21019   6.769   0.846   2.208  1.4336 -2.5764  1.4170
  184SLPC   C1221020   6.986   1.074   2.067 -0.2263 -0.8110  0.4434
  184SLPC  H12A21021   6.976   1.172   2.023 -0.3997 -0.2982  1.6035
  184SLPC  H12B21022   7.006   1.005   1.986 -0.5464  0.8455 -1.1015
  184SLPC   C1121023   7.097   1.072   2.167  0.8578 -0.3862 -0.1327
  184SLPC  H11A21024   7.184   1.117   2.116 -0.3108  1.6020 -0.4947
  184SLPC  H11B21025   7.119   0.967   2.196  1.6847 -0.0545  0.4878
  184SLPC     P21026   7.170   1.146   2.398  0.3103 -0.2099 -0.1170
  184SLPC   O1321027   7.307   1.168   2.344  0.7580  0.6584  0.2251
  184SLPC   O1421028   7.125   1.242   2.507  0.8530 -0.2052  0.3685
  184SLPC   O1221029   7.067   1.160   2.274 -0.2257 -0.7302  0.2550
  184SLPC   O1121030   7.167   0.995   2.440 -0.5176 -0.0692  0.0102
  184SLPC    C121031   7.070   0.943   2.525  0.2014  0.7833  0.2748
  184SLPC    HA21032   7.003   1.025   2.558 -1.0352  0.3316 -0.9756
  184SLPC    HB21033   7.012   0.875   2.459 -0.5540  0.7921  0.9105
  184SLPC    C221034   7.128   0.855   2.639  1.0662  0.0671  0.7066
  184SLPC    HS21035   7.039   0.806   2.685 -1.3864  2.0950 -1.5224
  184SLPC   O2121036   7.200   0.933   2.736  0.4722  0.1409  0.3230
  184SLPC   C2121037   7.127   1.019   2.803 -0.6727  0.5602  0.1097
  184SLPC   O2221038   7.006   1.014   2.814  0.0051 -0.2203  0.2722
  184SLPC   C2221039   7.203   1.134   2.864  0.6804 -0.1497 -0.8172
  184SLPC   H2R21040   7.310   1.137   2.836  1.0934 -0.9430  0.5762
  184SLPC   H2S21041   7.151   1.229   2.841 -0.2700  0.0029  1.5961
  184SLPC    C321042   7.211   0.732   2.591  0.2422  0.6437  0.2343
  184SLPC    HX21043   7.300   0.769   2.534  0.3963 -0.0515  0.0198
  184SLPC    HY21044   7.136   0.681   2.526  0.8169 -0.3524  0.3356
  184SLPC   O3121045   7.249   0.650   2.706  0.2933  0.1672 -0.1755
  184SLPC   C3121046   7.309   0.534   2.683 -0.1357  0.1520  0.1856
  184SLPC   O3221047   7.347   0.497   2.570 -0.2536 -0.3870 -0.7500
  184SLPC   C3221048   7.310   0.447   2.808  0.1838  0.1137  0.3427
  184SLPC   H2X21049   7.204   0.423   2.828  0.0668 -1.1695 -1.5549
  184SLPC   H2Y21050   7.364   0.507   2.884 -0.5453  1.8761 -0.4850
  184SLPC   C2321051   7.205   1.127   3.019  0.4215  0.3493 -0.0291
  184SLPC   H3R21052   7.243   1.026   3.045 -0.8879 -0.5799 -1.5555
  184SLPC   H3S21053   7.104   1.130   3.064 -0.6474 -0.5284 -2.2230
  184SLPC   C2421054   7.288   1.243   3.076  0.5034  0.3923  0.2728
  184SLPC   H4R21055   7.215   1.325   3.057 -0.7020 -0.6516  0.2852
  184SLPC   H4S21056   7.382   1.254   3.017 -0.1159 -0.7192 -0.9431
  184SLPC   C2521057   7.310   1.241   3.223 -0.8301  0.6386 -0.9671
  184SLPC   H5R21058   7.218   1.207   3.275 -0.1176 -0.4053 -0.3454
  184SLPC   H5S21059   7.354   1.338   3.253  0.7258 -0.4085  0.3864
  184SLPC   C2621060   7.416   1.145   3.281  0.4253 -0.0434 -1.0052
  184SLPC   H6R21061   7.506   1.180   3.226  0.9059 -3.0746 -2.3616
  184SLPC   H6S21062   7.401   1.044   3.238  3.4983 -0.4241 -1.4469
  184SLPC   C2721063   7.429   1.133   3.433 -0.4942  0.1775  0.7503
  184SLPC   H7R21064   7.466   1.229   3.474  2.6182 -1.7066  2.7385
  184SLPC   H7S21065   7.515   1.064   3.449  0.5747  0.2996 -3.3275
  184SLPC   C2821066   7.313   1.080   3.511 -0.0677 -0.0325 -0.3619
  184SLPC   H8R21067   7.237   1.161   3.510 -1.1329 -0.9941  0.7981
  184SLPC   H8S21068   7.342   1.081   3.618 -1.5226  0.0699  0.0427
  184SLPC   C2921069   7.251   0.943   3.471  0.5380 -0.2894 -0.0924
  184SLPC   H9R21070   7.220   0.930   3.366 -0.2762  2.7438 -0.3135
  184SLPC  C21021071   7.223   0.845   3.555 -0.4707  0.0052 -0.8758
  184SLPC  H10R21072   7.167   0.756   3.523  2.1800 -1.7392 -0.9499
  184SLPC  C21121073   7.245   0.858   3.707  0.3484  0.0769 -0.5373
  184SLPC  H11R21074   7.184   0.935   3.758  1.0211 -0.7144  1.5525
  184SLPC  H11S21075   7.354   0.876   3.719  0.7083 -1.7219 -0.7232
  184SLPC  C21221076   7.215   0.724   3.773  0.4622  0.8862 -0.2952
  184SLPC  H12R21077   7.148   0.662   3.711  1.6941  1.2138 -2.0386
  184SLPC  C21321078   7.276   0.672   3.884 -0.0441  0.7840  0.4248
  184SLPC  H13R21079   7.253   0.571   3.920  0.7251  0.6363  0.5207
  184SLPC  C21421080   7.382   0.742   3.963  0.6367  0.1843 -0.2732
  184SLPC  H14R21081   7.464   0.767   3.892  2.3060 -3.7467  0.0170
  184SLPC  H14S21082   7.431   0.678   4.039  2.4309  2.1275  0.2849
  184SLPC  C21521083   7.328   0.862   4.042 -0.1523  1.0359 -0.3039
  184SLPC  H15R21084   7.250   0.914   3.982  0.5430  1.9221 -0.4454
  184SLPC  H15S21085   7.413   0.933   4.046  1.5408 -0.9016 -0.0288
  184SLPC  C21621086   7.266   0.826   4.174 -0.0687 -0.1016  0.1102
  184SLPC  H16R21087   7.355   0.814   4.240  0.8216  1.5033 -0.7334
  184SLPC  H16S21088   7.220   0.726   4.159  0.2509 -0.0804 -1.0548
  184SLPC  C21721089   7.193   0.946   4.239  0.1590 -0.1245 -0.5567
  184SLPC  H17R21090   7.104   0.961   4.174 -0.7150  0.1222  0.6470
  184SLPC  H17S21091   7.260   1.031   4.217 -1.0342  1.2046  0.6864
  184SLPC  C21821092   7.172   0.928   4.391 -0.3639 -0.1458  0.4469
  184SLPC  H18R21093   7.130   1.025   4.426  0.4130  0.5046 -0.3783
  184SLPC  H18S21094   7.274   0.926   4.433  0.3446  2.9102 -0.8581
  184SLPC  H18T21095   7.114   0.841   4.427  0.3934 -0.0110  2.0675
  184SLPC   C3321096   7.384   0.317   2.782 -0.1114  0.3326  0.2513
  184SLPC   H3X21097   7.483   0.332   2.732  0.2773  0.7173  1.1224
  184SLPC   H3Y21098   7.309   0.258   2.725  0.7407 -1.6976  1.1389
  184SLPC   C3421099   7.407   0.247   2.911  0.4440  0.5896  0.2574
  184SLPC   H4X21100   7.313   0.190   2.929  0.9879 -0.9507 -1.4110
  184SLPC   H4Y21101   7.441   0.306   2.998  0.0064  0.6182  0.4108
  184SLPC   C3521102   7.507   0.130   2.899  0.3475 -0.6920  0.0151
  184SLPC   H5X21103   7.473   0.054   2.825 -0.2377 -1.3386  0.9256
  184SLPC   H5Y21104   7.522   0.082   2.998 -1.9000  0.7584  1.1318
  184SLPC   C3621105   7.647   0.177   2.851  0.3904  0.1542  0.0665
  184SLPC   H6X21106   7.647   0.186   2.740  2.4320 -2.3899 -0.2537
  184SLPC   H6Y21107   7.720   0.096   2.875  3.3938  2.3984 -0.9336
  184SLPC   C3721108   7.706   0.303   2.916  0.6497  0.8024  0.2323
  184SLPC   H7X21109   7.643   0.394   2.905 -2.4637 -0.9799  1.9567
  184SLPC   H7Y21110   7.809   0.317   2.877  0.9095  1.2834  1.0687
  184SLPC   C3821111   7.742   0.286   3.061  0.0130  0.5945  0.5073
  184SLPC   H8X21112   7.776   0.180   3.071 -1.2887  0.2297  1.3151
  184SLPC   H8Y21113   7.657   0.286   3.132 -0.8219 -1.2304 -0.4141
  184SLPC   C3921114   7.853   0.384   3.109  0.7972 -0.6512 -0.0479
  184SLPC   H9X21115   7.791   0.476   3.106  1.1831 -0.3271  1.3969
  184SLPC   H9Y21116   7.951   0.386   3.057  1.8420 -0.4736  1.8712
  184SLPC  C31021117   7.896   0.354   3.248 -0.5058  0.0178  0.1545
  184SLPC  H10X21118   7.931   0.248   3.250 -0.9618 -0.1307  0.7855
  184SLPC  H10Y21119   7.813   0.351   3.322 -0.0854 -1.2950  0.6047
  184SLPC  C31121120   8.013   0.434   3.305 -0.2619  0.6843 -0.3940
  184SLPC  H11X21121   7.967   0.535   3.298 -1.2052  0.2698 -0.4228
  184SLPC  H11Y21122   8.103   0.424   3.241 -1.3042 -0.1855 -1.7820
  184SLPC  C31221123   8.058   0.396   3.453  1.2804  0.2898  0.5218
  184SLPC  H12X21124   8.107   0.296   3.447 -1.1879 -0.9833 -0.2446
  184SLPC  H12Y21125   7.963   0.372   3.506  0.8737 -1.0749 -0.7181
  184SLPC  C31321126   8.145   0.497   3.526 -0.5878  0.0767  0.1001
  184SLPC  H13X21127   8.111   0.600   3.500  1.2632  1.0679  1.3440
  184SLPC  H13Y21128   8.249   0.492   3.485  0.1874 -0.3781  2.0176
  184SLPC  C31421129   8.154   0.471   3.678 -0.1225 -0.0704  0.3471
  184SLPC  H14X21130   8.205   0.383   3.723 -0.4226  0.1926  1.2325
  184SLPC  H14Y21131   8.047   0.458   3.706 -0.4867  1.2677 -0.3185
  184SLPC  C31521132   8.201   0.602   3.738 -0.1012  0.0158  0.0961
  184SLPC  H15X21133   8.183   0.602   3.848 -0.9065  2.3011  0.0101
  184SLPC  H15Y21134   8.162   0.696   3.695  2.4814  0.9989 -0.2686
  184SLPC  C31621135   8.352   0.626   3.727 -0.1827 -0.2619  0.3999
  184SLPC  H16X21136   8.374   0.621   3.618  1.2641 -0.6493  0.6841
  184SLPC  H16Y21137   8.409   0.544   3.777 -0.7519  0.6170  2.5927
  184SLPC  C31721138   8.399   0.748   3.791  0.8644  0.3598 -0.4206
  184SLPC  H17X21139   8.352   0.837   3.742  1.1450 -1.4488 -4.3942
  184SLPC  H17Y21140   8.508   0.758   3.772  0.8905  0.5837 -0.1533
  184SLPC  C31821141   8.372   0.746   3.941  0.2694 -0.2169 -0.0425
  184SLPC  H18X21142   8.401   0.844   3.986 -0.0982 -1.1624  2.4411
  184SLPC  H18Y21143   8.428   0.666   3.993  1.6837  2.1869  2.4611
  184SLPC  H18Z21144   8.264   0.732   3.964  0.0651  0.2582 -0.6952
  185POPC     N21145   4.684   5.567   7.199  0.3367  0.1635  0.6327
  185POPC   C1221146   4.688   5.621   7.060  0.6253 -0.0639 -0.1595
  185POPC  H12A21147   4.736   5.546   7.000  2.3548  0.6387  0.2884
  185POPC  H12B21148   4.740   5.716   7.053  0.9861 -0.2670 -0.2164
  185POPC   C1321149   4.651   5.416   7.205 -0.3155 -0.6915 -0.4369
  185POPC  H13A21150   4.720   5.366   7.140  1.3444  0.4928  0.3457
  185POPC  H13B21151   4.652   5.373   7.303 -2.5533 -1.9992 -0.9226
  185POPC  H13C21152   4.554   5.408   7.157 -0.3119 -0.6813 -0.4463
  185POPC   C1421153   4.813   5.594   7.263 -0.3637 -0.2534 -0.1908
  185POPC  H14A21154   4.846   5.696   7.251 -0.4825 -0.1401  0.4250
  185POPC  H14B21155   4.802   5.592   7.371 -1.9519 -2.0052 -0.3275
  185POPC  H14C21156   4.898   5.537   7.227  0.4250  1.2703 -0.7896
  185POPC   C1521157   4.581   5.624   7.294  0.0481  0.1618 -0.5853
  185POPC  H15A21158   4.597   5.730   7.300  0.8266 -0.0344  1.2468
  185POPC  H15B21159   4.585   5.588   7.396  0.8666 -2.3994 -1.4444
  185POPC  H15C21160   4.480   5.611   7.258 -0.2098 -3.4609  1.0142
  185POPC   C1121161   4.549   5.646   6.997  0.7108 -0.5005 -0.1128
  185POPC  H11A21162   4.483   5.558   7.015  0.0177  0.4237  2.0818
  185POPC  H11B21163   4.562   5.651   6.886  2.3971  1.5387  0.1276
  185POPC     P21164   4.533   5.903   6.999  0.1901  0.2188  0.6632
  185POPC   O1321165   4.662   5.935   7.056 -0.0929  0.4372  0.5402
  185POPC   O1421166   4.418   5.988   7.039  0.0340 -0.3953 -0.3565
  185POPC   O1221167   4.483   5.763   7.044  0.2885 -0.4546 -0.3197
  185POPC   O1121168   4.548   5.896   6.845  0.1781  0.1203  0.7396
  185POPC    C121169   4.441   5.867   6.749 -0.0346 -0.3505  0.3186
  185POPC    HA21170   4.359   5.940   6.770 -1.0379 -0.4380 -2.7989
  185POPC    HB21171   4.403   5.763   6.762  0.4548 -0.7048 -0.9883
  185POPC    C221172   4.481   5.904   6.600 -0.0304 -0.7175  0.1983
  185POPC    HS21173   4.393   5.897   6.533  0.5957 -0.7149 -0.6289
  185POPC   O2121174   4.572   5.812   6.543  0.0833  0.5369 -0.1347
  185POPC   C2121175   4.536   5.679   6.541  0.0086  0.1750 -0.0597
  185POPC   O2221176   4.428   5.632   6.566  1.2819  0.6769  0.3044
  185POPC   C2221177   4.656   5.587   6.524  0.2114  0.4852 -0.0828
  185POPC   H2R21178   4.676   5.557   6.629 -0.4313  0.2988 -0.0071
  185POPC   H2S21179   4.741   5.645   6.482  0.2865 -0.8134 -1.8444
  185POPC    C321180   4.541   6.043   6.576  0.5079  0.1863 -0.6354
  185POPC    HX21181   4.634   6.052   6.637  1.2124  1.3318 -1.8149
  185POPC    HY21182   4.466   6.117   6.612  0.6420 -0.1107  0.2778
  185POPC   O3121183   4.576   6.065   6.439  0.3032  0.1658  0.3309
  185POPC   C3121184   4.676   6.145   6.402  0.1453  0.1705 -0.5120
  185POPC   O3221185   4.725   6.230   6.478 -0.1124 -0.7050 -0.1173
  185POPC   C3221186   4.722   6.109   6.264 -0.0129  0.5555  0.2072
  185POPC   H2X21187   4.696   6.002   6.248  0.3206  0.5564 -0.3627
  185POPC   H2Y21188   4.833   6.119   6.260  0.1797 -1.1772  0.1409
  185POPC   C2321189   4.624   5.469   6.439 -0.0683 -0.1792 -0.2540
  185POPC   H3R21190   4.522   5.428   6.451  0.0087 -0.4785 -0.6172
  185POPC   H3S21191   4.687   5.387   6.479  1.4371 -0.3107 -2.6965
  185POPC   C2421192   4.654   5.491   6.287 -0.3603  0.0014 -0.0362
  185POPC   H4R21193   4.764   5.478   6.287 -0.1650  1.0062 -2.6717
  185POPC   H4S21194   4.628   5.592   6.250 -0.2552  0.1603  0.3165
  185POPC   C2521195   4.592   5.373   6.202  0.0168 -0.1713  0.2726
  185POPC   H5R21196   4.481   5.364   6.210  0.1183 -1.0887  0.8597
  185POPC   H5S21197   4.636   5.274   6.227 -1.0803 -0.5588  0.7755
  185POPC   C2621198   4.617   5.392   6.051  0.9264 -0.0971 -0.0638
  185POPC   H6R21199   4.726   5.397   6.029  1.1388 -0.7526  0.8014
  185POPC   H6S21200   4.568   5.488   6.021  0.5519  0.0486  0.9723
  185POPC   C2721201   4.545   5.283   5.966  0.3486  0.2510 -0.3505
  185POPC   H7R21202   4.440   5.270   6.001 -1.2499 -0.5313 -4.7572
  185POPC   H7S21203   4.615   5.198   5.975  0.5237  0.6223  3.8794
  185POPC   C2821204   4.526   5.330   5.822  1.0360  0.0175 -0.0261
  185POPC   H8R21205   4.628   5.343   5.781  0.8609  1.7644  0.0079
  185POPC   H8S21206   4.480   5.431   5.833  0.7957 -0.3406  3.0015
  185POPC   C2921207   4.442   5.234   5.736  0.3525  0.2523 -0.5481
  185POPC   H9121208   4.335   5.234   5.760  0.3029 -0.4269 -0.7291
  185POPC  C21021209   4.482   5.147   5.648 -0.0488 -0.4166 -0.1943
  185POPC  H10121210   4.405   5.102   5.583  1.3711  2.5886 -4.4382
  185POPC  C21121211   4.617   5.112   5.614  0.1454  0.6505  0.1992
  185POPC  H11R21212   4.683   5.099   5.702  0.3834  0.1305 -0.0500
  185POPC  H11S21213   4.656   5.190   5.544 -1.8897  0.6795 -0.9961
  185POPC  C21221214   4.624   4.966   5.547 -0.4353  0.3438 -0.5434
  185POPC  H12R21215   4.597   4.974   5.439 -3.5790 -0.0818  0.1293
  185POPC  H12S21216   4.569   4.892   5.608  1.8954 -0.0419  1.2260
  185POPC  C21321217   4.768   4.918   5.536  0.5137 -0.6065  0.0386
  185POPC  H13R21218   4.809   4.915   5.639 -0.1438 -0.7709  0.3019
  185POPC  H13S21219   4.821   5.002   5.486  1.6475  0.7750  3.2654
  185POPC  C21421220   4.793   4.786   5.467  0.0372 -0.0223 -0.6248
  185POPC  H14R21221   4.741   4.775   5.370 -1.1065  0.8778 -0.1440
  185POPC  H14S21222   4.743   4.711   5.532 -0.1919  1.9026  1.6024
  185POPC  C21521223   4.943   4.753   5.457  0.0669 -0.1287  1.1214
  185POPC  H15R21224   4.981   4.734   5.560  0.0922  0.0568  1.1471
  185POPC  H15S21225   5.000   4.836   5.411  0.1344 -0.5191  0.4891
  185POPC  C21621226   4.954   4.621   5.368  0.1867  0.5722 -0.0156
  185POPC  H16R21227   4.908   4.646   5.270  0.4905  1.8964  0.1557
  185POPC  H16S21228   4.899   4.540   5.420  0.8296  0.7205  0.9196
  185POPC  C21721229   5.101   4.583   5.333 -0.0953 -0.3949  1.0213
  185POPC  H17R21230   5.101   4.485   5.281 -1.9375  0.9439 -1.7367
  185POPC  H17S21231   5.159   4.564   5.426  0.5189 -1.8347  0.3796
  185POPC  C21821232   5.176   4.688   5.241 -0.2272 -0.0138 -0.1814
  185POPC  H18R21233   5.166   4.784   5.295 -2.7371 -0.0830 -0.3814
  185POPC  H18S21234   5.131   4.692   5.139 -2.7340 -3.4868  0.5680
  185POPC  H18T21235   5.280   4.651   5.235  0.4446  1.9732 -2.4373
  185POPC   C3321236   4.656   6.191   6.145 -0.9102  0.6783 -0.0963
  185POPC   H3X21237   4.676   6.296   6.174  0.6822  0.5464 -0.6030
  185POPC   H3Y21238   4.546   6.175   6.140 -1.1447  1.5607  1.4873
  185POPC   C3421239   4.722   6.166   6.004 -0.5263 -0.3225 -0.3936
  185POPC   H4X21240   4.726   6.056   5.986  0.0262 -0.1053 -1.7518
  185POPC   H4Y21241   4.829   6.194   6.016 -1.1034  1.8419  0.2567
  185POPC   C3521242   4.655   6.243   5.897  0.1736  0.5184 -0.4015
  185POPC   H5X21243   4.671   6.351   5.914 -2.4218  1.2354 -1.9051
  185POPC   H5Y21244   4.547   6.225   5.915  0.1862  1.3426  0.5286
  185POPC   C3621245   4.717   6.209   5.756 -0.2031 -0.7339 -0.6709
  185POPC   H6X21246   4.691   6.105   5.728 -0.3185 -0.4877 -1.4862
  185POPC   H6Y21247   4.827   6.218   5.773 -0.3882 -1.0099  0.7994
  185POPC   C3721248   4.652   6.311   5.663 -0.0935 -0.0445 -0.1027
  185POPC   H7X21249   4.667   6.412   5.707  1.9044 -0.5230  0.4427
  185POPC   H7Y21250   4.543   6.289   5.662 -0.3764  1.2676 -1.2731
  185POPC   C3821251   4.713   6.300   5.521 -0.8950  0.2539  0.3010
  185POPC   H8X21252   4.824   6.294   5.524 -0.6902  2.3627 -0.8720
  185POPC   H8Y21253   4.684   6.396   5.473 -0.8971  1.9442  3.3653
  185POPC   C3921254   4.649   6.180   5.442 -0.3613  0.0964  0.1897
  185POPC   H9X21255   4.540   6.162   5.458 -0.3292 -0.2103  0.0570
  185POPC   H9Y21256   4.696   6.096   5.498  0.3579  0.6706  0.4649
  185POPC  C31021257   4.696   6.162   5.291 -0.3267  0.8639 -0.4284
  185POPC  H10X21258   4.804   6.182   5.272 -0.2573  0.3226 -0.6162
  185POPC  H10Y21259   4.633   6.221   5.221  0.2866  1.4530 -0.5012
  185POPC  C31121260   4.674   6.017   5.252 -0.2123  0.1702  0.1509
  185POPC  H11X21261   4.589   5.977   5.311 -1.3611  1.4471 -0.5761
  185POPC  H11Y21262   4.767   5.957   5.264 -0.5176 -0.5084 -0.7729
  185POPC  C31221263   4.636   6.014   5.100  0.4292 -0.4687 -0.3019
  185POPC  H12X21264   4.725   6.050   5.044 -0.6391  0.3815 -1.5218
  185POPC  H12Y21265   4.546   6.078   5.082  0.5798 -0.3910 -0.7792
  185POPC  C31321266   4.589   5.875   5.063  0.3325  0.4603  0.2329
  185POPC  H13X21267   4.506   5.841   5.129  0.0333 -2.4359 -1.4704
  185POPC  H13Y21268   4.675   5.804   5.071  1.6122  1.6465 -1.9240
  185POPC  C31421269   4.546   5.862   4.914 -0.5521 -0.5418 -0.5984
  185POPC  H14X21270   4.625   5.920   4.860  1.2579 -1.6968  0.6683
  185POPC  H14Y21271   4.451   5.917   4.901 -1.9344 -3.1868 -2.4125
  185POPC  C31521272   4.521   5.720   4.857 -0.0247 -0.3177 -0.4805
  185POPC  H15X21273   4.475   5.658   4.936  0.8962 -0.5071 -0.0756
  185POPC  H15Y21274   4.617   5.668   4.834  0.2086 -0.2084  0.2231
  185POPC  C31621275   4.431   5.737   4.740 -0.4314 -0.1805 -0.2068
  185POPC  H16X21276   4.328   5.763   4.773 -0.8097 -2.1080  0.2491
  185POPC  H16Y21277   4.424   5.645   4.677 -1.2273 -0.4202  0.2145
  185POPC  H16Z21278   4.477   5.816   4.676  0.4989  0.9899  1.8324
  186POPC     N21279   5.902   4.472   7.142 -0.5192  0.2964  0.2948
  186POPC   C1221280   5.864   4.514   7.003  0.5868 -0.1061  0.1766
  186POPC  H12A21281   5.761   4.485   6.986  0.8488 -1.7721  1.1582
  186POPC  H12B21282   5.925   4.468   6.926  0.1857  0.3370 -0.4087
  186POPC   C1321283   5.810   4.537   7.245 -1.4755  0.4222  0.2497
  186POPC  H13A21284   5.835   4.641   7.255  2.7489 -0.1296 -2.3845
  186POPC  H13B21285   5.707   4.510   7.227 -0.9430 -0.7736 -1.1996
  186POPC  H13C21286   5.830   4.497   7.344  0.1455 -0.1778 -0.2954
  186POPC   C1421287   5.874   4.325   7.140  0.5395 -1.1460  0.7276
  186POPC  H14A21288   5.905   4.279   7.233  2.7223 -0.7611  0.2465
  186POPC  H14B21289   5.767   4.313   7.142  0.4083 -0.1223  0.5118
  186POPC  H14C21290   5.920   4.273   7.057  2.2560  0.0453  0.8783
  186POPC   C1521291   6.051   4.496   7.155 -0.4126 -0.3576  0.2648
  186POPC  H15A21292   6.079   4.599   7.164  0.4501 -0.4876 -0.8411
  186POPC  H15B21293   6.093   4.472   7.059  1.2446  3.6587 -0.1798
  186POPC  H15C21294   6.089   4.434   7.235 -2.1870 -2.6159 -0.5133
  186POPC   C1121295   5.855   4.672   6.963  0.1214 -0.1745 -0.3693
  186POPC  H11A21296   5.791   4.729   7.034  0.9942 -1.0070  1.1247
  186POPC  H11B21297   5.806   4.670   6.863 -2.6537 -0.7119  0.8987
  186POPC     P21298   6.088   4.707   6.854 -0.3595 -0.1504  0.1622
  186POPC   O1321299   6.134   4.565   6.871  0.0137 -0.5903 -0.3688
  186POPC   O1421300   6.184   4.817   6.865 -0.6208  0.6376 -0.2722
  186POPC   O1221301   5.979   4.733   6.968  0.0627  0.1317  0.6926
  186POPC   O1121302   6.012   4.726   6.714 -0.8305 -0.0915 -0.4308
  186POPC    C121303   5.947   4.856   6.699  0.5442  0.2111 -1.0047
  186POPC    HA21304   6.021   4.931   6.664  1.2434  0.1326  0.2137
  186POPC    HB21305   5.892   4.897   6.787 -0.0994  1.6205 -2.0308
  186POPC    C221306   5.831   4.858   6.595  0.2377  0.1541 -0.5340
  186POPC    HS21307   5.801   4.964   6.581  3.4347  1.0658 -1.3015
  186POPC   O2121308   5.720   4.768   6.625  0.3788  0.4462  0.1116
  186POPC   C2121309   5.634   4.813   6.711 -0.3426  0.2290 -0.5087
  186POPC   O2221310   5.644   4.925   6.756  0.0054  0.6810 -0.2454
  186POPC   C2221311   5.530   4.709   6.742  0.3943  0.4829 -0.6577
  186POPC   H2R21312   5.501   4.723   6.848 -3.1406  1.1586 -1.5858
  186POPC   H2S21313   5.561   4.603   6.728  0.3696  0.4243 -0.2734
  186POPC    C321314   5.880   4.812   6.459  0.3955  0.8004 -0.2812
  186POPC    HX21315   5.879   4.701   6.461 -0.0249  0.8024 -0.2868
  186POPC    HY21316   5.986   4.844   6.453  1.3311 -1.8420  0.4568
  186POPC   O3121317   5.797   4.872   6.361 -0.4217 -0.3135  0.2516
  186POPC   C3121318   5.861   4.898   6.244  0.1518 -0.2432  0.0806
  186POPC   O3221319   5.983   4.882   6.230 -0.3105 -0.3818  0.0064
  186POPC   C3221320   5.758   4.957   6.149  0.1585 -0.1821 -0.3911
  186POPC   H2X21321   5.788   5.048   6.093 -1.9940  1.1962  0.5707
  186POPC   H2Y21322   5.667   4.979   6.208 -0.6792 -0.8230 -1.4027
  186POPC   C2321323   5.402   4.728   6.656 -0.0952 -0.1533 -0.1999
  186POPC   H3R21324   5.433   4.712   6.550  1.2957  2.4488 -0.2761
  186POPC   H3S21325   5.370   4.834   6.667 -1.9211 -0.7790  0.9276
  186POPC   C2421326   5.293   4.631   6.686  0.0485  0.2595 -0.1265
  186POPC   H4R21327   5.210   4.662   6.618 -0.6109 -0.1132  0.4942
  186POPC   H4S21328   5.238   4.654   6.781  1.3565  1.3064  0.4092
  186POPC   C2521329   5.331   4.485   6.661 -0.0847 -0.1029 -0.2336
  186POPC   H5R21330   5.246   4.424   6.699  1.9375 -2.2893  1.0677
  186POPC   H5S21331   5.417   4.436   6.713  1.2804  2.6140  0.2447
  186POPC   C2621332   5.321   4.450   6.510  0.2421  0.0734 -0.2020
  186POPC   H6R21333   5.392   4.516   6.455 -1.1009  0.2073 -1.8732
  186POPC   H6S21334   5.217   4.469   6.475 -0.7247 -1.2111  1.7708
  186POPC   C2721335   5.364   4.302   6.481  0.3609 -0.7290 -0.6368
  186POPC   H7R21336   5.291   4.234   6.530 -0.0660 -1.6853 -2.5085
  186POPC   H7S21337   5.471   4.296   6.509  0.4859  1.9710 -0.3465
  186POPC   C2821338   5.363   4.283   6.326 -0.2562  0.2419  0.3645
  186POPC   H8R21339   5.445   4.341   6.279 -1.2026 -0.5042 -2.4313
  186POPC   H8S21340   5.275   4.335   6.283  0.6425  1.3806 -0.1692
  186POPC   C2921341   5.363   4.140   6.275  0.4885 -0.2708  0.3097
  186POPC   H9121342   5.413   4.066   6.339  1.5605  0.9375  0.9366
  186POPC  C21021343   5.304   4.097   6.160  0.4902 -0.1414 -0.0683
  186POPC  H10121344   5.311   3.990   6.137 -0.2004  0.0758 -1.3435
  186POPC  C21121345   5.245   4.185   6.055 -0.6445 -0.1593 -0.3147
  186POPC  H11R21346   5.240   4.294   6.077  2.4722  0.2077 -1.0135
  186POPC  H11S21347   5.143   4.146   6.033 -0.7212 -0.5007  0.5702
  186POPC  C21221348   5.335   4.206   5.926  0.3861  0.0891 -0.4733
  186POPC  H12R21349   5.348   4.102   5.888  0.6309  0.4471 -1.3836
  186POPC  H12S21350   5.439   4.240   5.944  0.4714 -0.2180 -0.3705
  186POPC  C21321351   5.261   4.282   5.816 -0.6600 -0.2114  0.4594
  186POPC  H13R21352   5.277   4.390   5.833 -0.1150  0.4547 -3.2871
  186POPC  H13S21353   5.153   4.258   5.827 -0.4014 -0.9157  1.6046
  186POPC  C21421354   5.324   4.250   5.677 -0.7989 -0.0668 -0.3390
  186POPC  H14R21355   5.296   4.144   5.660  0.1163 -0.2931 -0.4600
  186POPC  H14S21356   5.430   4.278   5.693 -0.0316 -2.9556  0.1355
  186POPC  C21521357   5.270   4.339   5.561  0.3364 -0.2582  0.1404
  186POPC  H15R21358   5.285   4.442   5.600 -0.2454 -0.0509 -0.1778
  186POPC  H15S21359   5.161   4.319   5.565  0.6051 -1.6578  1.4985
  186POPC  C21621360   5.328   4.307   5.423  0.2767  0.0058 -0.0512
  186POPC  H16R21361   5.438   4.319   5.427  0.1640  0.9726  0.5182
  186POPC  H16S21362   5.289   4.381   5.351 -1.1202  0.9150  1.5668
  186POPC  C21721363   5.294   4.171   5.368  0.5300  0.8109  0.0988
  186POPC  H17R21364   5.330   4.092   5.438 -1.2804 -0.3128 -0.1782
  186POPC  H17S21365   5.348   4.164   5.272 -0.9377  3.0316 -0.9459
  186POPC  C21821366   5.147   4.140   5.335 -0.0344 -0.5078 -0.3432
  186POPC  H18R21367   5.113   4.215   5.261  0.9090  1.7908  1.4406
  186POPC  H18S21368   5.078   4.154   5.420  0.4899  1.2745 -0.1815
  186POPC  H18T21369   5.134   4.034   5.305 -0.3185 -0.0852 -1.8066
  186POPC   C3321370   5.736   4.859   6.028  0.1626  0.6539 -0.0574
  186POPC   H3X21371   5.703   4.760   6.065 -1.3592  1.3545  0.5430
  186POPC   H3Y21372   5.827   4.844   5.966  0.1921 -1.4598  0.4108
  186POPC   C3421373   5.616   4.906   5.942 -0.2337  0.3974 -0.1975
  186POPC   H4X21374   5.532   4.917   6.014  0.1562 -0.9436  0.5099
  186POPC   H4Y21375   5.582   4.826   5.872  1.7588  0.2587 -1.0812
  186POPC   C3521376   5.637   5.037   5.870  0.4627  0.0702  0.1352
  186POPC   H5X21377   5.716   5.039   5.793  1.7376  1.8626  1.4082
  186POPC   H5Y21378   5.640   5.127   5.935 -2.5529 -0.8538  1.7576
  186POPC   C3621379   5.499   5.061   5.786 -0.5960 -0.1449  0.9400
  186POPC   H6X21380   5.433   5.115   5.856  1.4360  1.6995  1.5565
  186POPC   H6Y21381   5.459   4.966   5.744 -1.5683 -0.3341  2.2329
  186POPC   C3721382   5.527   5.152   5.660  0.4445 -0.6676  0.1108
  186POPC   H7X21383   5.591   5.090   5.594  0.7079 -1.1761  0.8235
  186POPC   H7Y21384   5.596   5.234   5.691  0.0297 -0.4435  0.4589
  186POPC   C3821385   5.406   5.201   5.585 -0.0168 -0.2678  0.8697
  186POPC   H8X21386   5.349   5.273   5.647 -0.7377 -0.0070 -0.0649
  186POPC   H8Y21387   5.329   5.124   5.564 -1.9782  1.7487  0.2118
  186POPC   C3921388   5.440   5.258   5.450  0.3070  0.4113 -0.0965
  186POPC   H9X21389   5.541   5.307   5.449 -0.0056  1.0805 -1.4530
  186POPC   H9Y21390   5.372   5.342   5.424  1.2989  0.7614 -1.7630
  186POPC  C31021391   5.452   5.158   5.332  0.3143  0.9176 -0.1275
  186POPC  H10X21392   5.473   5.058   5.376  1.5268  0.7935 -0.9447
  186POPC  H10Y21393   5.545   5.182   5.276 -0.6255  1.2092 -1.6175
  186POPC  C31121394   5.339   5.160   5.235  0.8131  0.6849 -0.3513
  186POPC  H11X21395   5.370   5.108   5.142 -0.5543  0.0193 -0.4598
  186POPC  H11Y21396   5.318   5.266   5.208 -2.0304  0.0329 -1.0348
  186POPC  C31221397   5.198   5.107   5.277  0.2373 -0.7229  0.3797
  186POPC  H12X21398   5.172   5.174   5.362  0.6849  2.6561 -1.9523
  186POPC  H12Y21399   5.210   5.005   5.320  2.3619 -0.1727  1.2383
  186POPC  C31321400   5.106   5.097   5.161 -0.4305 -0.3945  0.7074
  186POPC  H13X21401   5.141   5.013   5.097  1.9834  0.7740  0.3967
  186POPC  H13Y21402   5.105   5.189   5.098  2.1305 -1.8332 -1.6789
  186POPC  C31421403   4.962   5.071   5.208 -0.3717  0.9651  0.7786
  186POPC  H14X21404   4.950   5.157   5.277  1.4441  1.1772  0.8699
  186POPC  H14Y21405   4.949   4.971   5.254  0.2320  0.6369  0.2485
  186POPC  C31521406   4.864   5.067   5.095  0.2729  0.0045  0.6350
  186POPC  H15X21407   4.843   5.166   5.049 -0.2705 -0.7022 -0.7014
  186POPC  H15Y21408   4.768   5.038   5.141  0.2734  0.3771  0.8753
  186POPC  C31621409   4.906   4.958   4.997  0.7195  0.0521 -0.4039
  186POPC  H16X21410   4.934   4.862   5.047  1.5562 -0.2483 -1.4017
  186POPC  H16Y21411   4.978   4.987   4.918 -0.6587 -1.1342 -2.2027
  186POPC  H16Z21412   4.827   4.932   4.923  1.1165 -0.4239 -0.6730
  187POPC     N21413   6.031   4.395   2.212  0.5120  0.4405 -0.1983
  187POPC   C1221414   5.979   4.456   2.340  0.5403  0.7651 -0.9087
  187POPC  H12A21415   5.937   4.369   2.388  2.7985 -0.5366 -1.2023
  187POPC  H12B21416   5.896   4.524   2.326 -1.9400 -1.8444  0.1760
  187POPC   C1321417   6.100   4.489   2.125 -0.6694  0.2948 -1.0314
  187POPC  H13A21418   6.139   4.433   2.042  1.1946  0.7196 -0.4890
  187POPC  H13B21419   6.043   4.571   2.084  0.0359  0.8224 -0.9740
  187POPC  H13C21420   6.184   4.527   2.181 -1.1553  1.1843 -0.8972
  187POPC   C1421421   6.121   4.282   2.237  0.0732 -0.1014  0.0145
  187POPC  H14A21422   6.219   4.321   2.262 -0.0345 -0.3748  0.9068
  187POPC  H14B21423   6.098   4.220   2.323 -1.3878 -0.3457 -0.5232
  187POPC  H14C21424   6.145   4.222   2.151  0.6877 -0.9334  0.7331
  187POPC   C1521425   5.903   4.347   2.143  0.1484 -0.5364 -0.8054
  187POPC  H15A21426   5.854   4.278   2.209  1.2940  0.5799  1.3105
  187POPC  H15B21427   5.911   4.296   2.048 -0.5254  1.4446 -1.9724
  187POPC  H15C21428   5.829   4.425   2.131 -1.8949 -2.3524 -0.5688
  187POPC   C1121429   6.081   4.522   2.435  0.1931  0.5662  0.0889
  187POPC  H11A21430   6.141   4.432   2.459 -0.4061 -0.2590 -1.3822
  187POPC  H11B21431   6.022   4.546   2.526 -1.2300 -4.7772  0.8779
  187POPC     P21432   6.297   4.652   2.454  0.3035  0.4144  0.6070
  187POPC   O1321433   6.349   4.788   2.423  0.3683  0.0691  0.1910
  187POPC   O1421434   6.377   4.542   2.395  0.0953 -0.0302  0.0439
  187POPC   O1221435   6.150   4.642   2.387 -0.0066 -0.2351 -0.9599
  187POPC   O1121436   6.286   4.621   2.608  0.0336  0.8072 -0.0872
  187POPC    C121437   6.197   4.696   2.687 -0.0621  0.6039 -0.3669
  187POPC    HA21438   6.169   4.645   2.782  1.2293  2.3688  1.0165
  187POPC    HB21439   6.111   4.730   2.625  0.3149  1.6493 -0.3388
  187POPC    C221440   6.269   4.835   2.733  0.3844  0.3593  0.3037
  187POPC    HS21441   6.322   4.877   2.645  0.7188  1.4113  0.9889
  187POPC   O2121442   6.350   4.791   2.845  0.0906  0.7178 -0.1795
  187POPC   C2121443   6.460   4.869   2.868  0.8135  0.5200 -0.0790
  187POPC   O2221444   6.507   4.941   2.786  0.0947 -0.4964 -0.5147
  187POPC   C2221445   6.508   4.842   3.008  0.0647 -0.5107 -0.2201
  187POPC   H2R21446   6.619   4.839   3.008  0.1439  0.8234 -2.2884
  187POPC   H2S21447   6.480   4.738   3.035  0.3241 -0.5737 -0.1828
  187POPC    C321448   6.163   4.931   2.785  0.5736  0.0315  0.3758
  187POPC    HX21449   6.124   4.964   2.687 -0.0550 -1.6710  0.0063
  187POPC    HY21450   6.200   5.022   2.836 -1.6784  0.4446  1.3919
  187POPC   O3121451   6.053   4.864   2.851 -0.3970  0.1722  0.6268
  187POPC   C3121452   6.053   4.854   2.981  0.1271  0.3495  0.0212
  187POPC   O3221453   6.142   4.896   3.058  0.0787  0.7099 -0.1970
  187POPC   C3221454   5.919   4.793   3.028  0.0047  0.5777  0.0052
  187POPC   H2X21455   5.916   4.685   3.003  0.7034  0.0673  1.9617
  187POPC   H2Y21456   5.834   4.841   2.975 -0.7381  1.6053  2.0133
  187POPC   C2321457   6.468   4.941   3.114  0.5757  0.0929 -0.3829
  187POPC   H3R21458   6.381   5.009   3.104  0.7719  1.3037  3.8377
  187POPC   H3S21459   6.558   5.006   3.119  1.5614 -0.6273 -4.8647
  187POPC   C2421460   6.457   4.877   3.256 -0.1498 -0.2916  0.3527
  187POPC   H4R21461   6.557   4.842   3.290 -1.4920 -2.3152  2.5682
  187POPC   H4S21462   6.397   4.783   3.255  0.3567 -0.6233 -0.9954
  187POPC   C2521463   6.379   4.971   3.359 -0.1601  0.4877  0.3018
  187POPC   H5R21464   6.273   4.964   3.328  0.1072 -0.6077 -0.4290
  187POPC   H5S21465   6.417   5.075   3.345  0.0158  0.3282 -0.4411
  187POPC   C2621466   6.398   4.916   3.506  0.4234 -1.6318  0.4118
  187POPC   H6R21467   6.351   4.989   3.575  0.2093 -2.5464  1.2655
  187POPC   H6S21468   6.507   4.913   3.531  0.8372  1.2997 -0.6270
  187POPC   C2721469   6.336   4.776   3.527 -0.0703 -0.6623  0.2632
  187POPC   H7R21470   6.406   4.713   3.467  0.9336  1.0159 -0.3965
  187POPC   H7S21471   6.235   4.775   3.482 -0.9196 -0.3375  2.0871
  187POPC   C2821472   6.320   4.728   3.679 -0.7858 -0.4778  0.3146
  187POPC   H8R21473   6.281   4.624   3.679  1.5241 -1.5225  4.3215
  187POPC   H8S21474   6.244   4.796   3.724 -0.0970  0.0377  0.7204
  187POPC   C2921475   6.454   4.727   3.754 -0.2499 -0.0387  0.4451
  187POPC   H9121476   6.518   4.650   3.706 -2.4023  0.4370 -3.6217
  187POPC  C21021477   6.488   4.794   3.863 -0.1794  0.1529 -0.0499
  187POPC  H10121478   6.590   4.782   3.904  0.1745  0.6293 -0.7846
  187POPC  C21121479   6.408   4.898   3.937 -0.4210  0.3373  0.7985
  187POPC  H11R21480   6.331   4.943   3.870  0.0815  0.4975  0.3191
  187POPC  H11S21481   6.478   4.976   3.974  0.1588 -0.4838  1.4629
  187POPC  C21221482   6.339   4.847   4.060  0.0198 -0.2264  0.6573
  187POPC  H12R21483   6.266   4.767   4.036 -1.3712  0.4802  2.2966
  187POPC  H12S21484   6.283   4.928   4.112 -0.4723 -0.2136  0.1270
  187POPC  C21321485   6.432   4.798   4.169 -0.3858  0.8443 -0.3111
  187POPC  H13R21486   6.521   4.865   4.180  0.4675 -0.1409 -0.9843
  187POPC  H13S21487   6.462   4.693   4.150  0.8397  0.8558  1.2580
  187POPC  C21421488   6.358   4.793   4.306 -0.0610  0.9306  0.0471
  187POPC  H14R21489   6.282   4.713   4.294  1.0618 -0.3689  1.2045
  187POPC  H14S21490   6.308   4.888   4.334 -3.0303 -0.5609  0.1972
  187POPC  C21521491   6.452   4.739   4.414 -0.3773 -0.0180 -0.7963
  187POPC  H15R21492   6.483   4.637   4.383 -0.7691 -0.9392  1.5981
  187POPC  H15S21493   6.414   4.732   4.518  1.4154 -1.9444 -0.1930
  187POPC  C21621494   6.572   4.829   4.428 -0.0109  0.2742  0.1012
  187POPC  H16R21495   6.535   4.933   4.438  0.2085  0.2688  1.0464
  187POPC  H16S21496   6.650   4.818   4.350 -1.3761  1.8056 -1.5785
  187POPC  C21721497   6.644   4.802   4.564 -0.2256 -0.4836  0.8193
  187POPC  H17R21498   6.688   4.699   4.568 -1.9267 -1.3285 -0.9993
  187POPC  H17S21499   6.562   4.815   4.637  0.2954  0.4891  1.2526
  187POPC  C21821500   6.745   4.910   4.616 -0.9652  0.0907  0.3973
  187POPC  H18R21501   6.803   4.939   4.526 -1.3543  1.7508  0.6569
  187POPC  H18S21502   6.801   4.852   4.693  1.4818  0.3431 -1.0609
  187POPC  H18T21503   6.703   5.000   4.666  1.3390  0.2718  2.2009
  187POPC   C3321504   5.910   4.802   3.182 -0.3134 -0.2169  0.3208
  187POPC   H3X21505   6.002   4.766   3.232  0.2009  0.7278  0.0679
  187POPC   H3Y21506   5.837   4.720   3.200  0.2326 -0.4391  1.5724
  187POPC   C3421507   5.854   4.931   3.243  0.1465  0.4704  0.1740
  187POPC   H4X21508   5.782   4.978   3.173 -0.1167  0.6715  0.5773
  187POPC   H4Y21509   5.933   5.007   3.261  0.8549 -0.2459  0.1821
  187POPC   C3521510   5.779   4.896   3.379  0.1473  0.0047  0.1681
  187POPC   H5X21511   5.688   4.838   3.353 -0.6737  2.0443 -1.8611
  187POPC   H5Y21512   5.761   5.003   3.407 -0.4333  0.2597 -1.1121
  187POPC   C3621513   5.878   4.833   3.480 -0.3414  0.2011 -0.1392
  187POPC   H6X21514   5.969   4.893   3.462  0.9864 -1.6129  0.2580
  187POPC   H6Y21515   5.897   4.730   3.444  0.9815  0.5782 -0.5423
  187POPC   C3721516   5.827   4.857   3.624 -0.9218  1.0633  0.5662
  187POPC   H7X21517   5.732   4.799   3.622 -0.6055  0.5170  0.9906
  187POPC   H7Y21518   5.814   4.963   3.653  1.1508  0.7374  3.0111
  187POPC   C3821519   5.931   4.805   3.720  0.1125  0.0666  0.1054
  187POPC   H8X21520   6.029   4.857   3.723  0.4365 -0.4927 -0.3180
  187POPC   H8Y21521   5.951   4.697   3.701  1.1015  0.4979 -1.4811
  187POPC   C3921522   5.874   4.824   3.861  0.1066 -0.0584 -0.5484
  187POPC   H9X21523   5.772   4.781   3.861 -0.0919  0.3629  0.6243
  187POPC   H9Y21524   5.875   4.931   3.893  2.2180 -0.6175  1.5548
  187POPC  C31021525   5.965   4.749   3.968  0.1029 -0.6466  0.2685
  187POPC  H10X21526   6.061   4.806   3.968  0.8477 -1.8559 -0.2000
  187POPC  H10Y21527   5.988   4.648   3.928  1.0476 -1.3997  2.5745
  187POPC  C31121528   5.903   4.764   4.111  0.4092  0.0072  0.5037
  187POPC  H11X21529   5.811   4.701   4.117 -0.8651  1.8485  1.4532
  187POPC  H11Y21530   5.878   4.872   4.122 -0.2018 -0.0968  0.2160
  187POPC  C31221531   5.995   4.722   4.229  0.3162 -0.4684 -0.2215
  187POPC  H12X21532   6.091   4.778   4.227  0.3350 -0.4785  0.3544
  187POPC  H12Y21533   6.013   4.613   4.221  1.3898 -0.3245  0.0363
  187POPC  C31321534   5.928   4.740   4.365 -0.0430 -0.2691  0.3851
  187POPC  H13X21535   5.850   4.663   4.380  0.2100 -1.4504 -3.2831
  187POPC  H13Y21536   5.877   4.839   4.372  2.7982  1.3792 -0.5410
  187POPC  C31421537   6.024   4.722   4.479  0.1901  0.0978  0.3671
  187POPC  H14X21538   6.109   4.789   4.454  0.2409 -0.2600 -0.4136
  187POPC  H14Y21539   6.058   4.619   4.503 -0.6910 -0.4500 -0.6484
  187POPC  C31521540   5.973   4.778   4.616  0.3183  0.5155 -0.2962
  187POPC  H15X21541   5.934   4.882   4.611  0.6950  0.7379  1.0041
  187POPC  H15Y21542   6.068   4.784   4.673  0.1697 -0.4678  0.0806
  187POPC  C31621543   5.877   4.694   4.699  0.3664  0.2766  0.6905
  187POPC  H16X21544   5.795   4.653   4.636  0.7777  2.1876 -1.1784
  187POPC  H16Y21545   5.825   4.758   4.773  1.2274  0.4694  1.1425
  187POPC  H16Z21546   5.923   4.609   4.754  0.2413 -0.3525 -0.1418
  188POPC     N21547   5.033   3.741   2.220  0.1748 -0.3811 -0.2912
  188POPC   C1221548   5.067   3.625   2.322 -0.2852 -0.7391 -0.3553
  188POPC  H12A21549   5.153   3.647   2.382 -1.9634 -0.4349  2.0970
  188POPC  H12B21550   5.108   3.551   2.255  1.5147  1.8674 -2.3368
  188POPC   C1321551   4.935   3.711   2.113 -0.1070 -0.4580 -0.4820
  188POPC  H13A21552   4.956   3.627   2.049 -1.4811 -0.3125 -1.1732
  188POPC  H13B21553   4.840   3.695   2.163 -0.2213  1.6327  0.0481
  188POPC  H13C21554   4.915   3.797   2.052  0.0361 -0.6832 -0.8471
  188POPC   C1421555   4.974   3.857   2.294 -0.6400  0.0898 -0.3187
  188POPC  H14A21556   5.044   3.900   2.363  0.2557  1.0430 -1.7627
  188POPC  H14B21557   4.936   3.929   2.223  0.2184  0.7575 -0.1041
  188POPC  H14C21558   4.892   3.818   2.353 -0.0884  0.7746  0.9303
  188POPC   C1521559   5.157   3.793   2.165  0.8812  0.8314  1.1588
  188POPC  H15A21560   5.219   3.820   2.249 -0.9587  0.5841  2.6625
  188POPC  H15B21561   5.138   3.876   2.099  1.7046 -0.9049 -1.4292
  188POPC  H15C21562   5.201   3.720   2.099 -1.0397  1.4452 -0.9184
  188POPC   C1121563   4.957   3.563   2.404  0.0777  0.3140  0.8123
  188POPC  H11A21564   4.927   3.630   2.486 -1.0492 -0.8159  1.3628
  188POPC  H11B21565   4.986   3.466   2.450  1.4909  0.1513 -0.3544
  188POPC     P21566   4.850   3.387   2.230 -0.1595  0.2774  0.3322
  188POPC   O1321567   4.966   3.375   2.134  0.3425 -0.0885  0.6241
  188POPC   O1421568   4.717   3.387   2.161  0.3108 -0.0254 -0.2731
  188POPC   O1221569   4.852   3.511   2.321  0.3023 -0.8344 -0.2953
  188POPC   O1121570   4.859   3.266   2.328 -0.1125  0.0075 -0.1324
  188POPC    C121571   4.766   3.150   2.306 -0.6998 -0.5321 -0.8685
  188POPC    HA21572   4.778   3.106   2.204  0.7530 -2.1435 -0.0593
  188POPC    HB21573   4.666   3.195   2.326  0.9377  2.3513  1.6087
  188POPC    C221574   4.794   3.023   2.396 -0.0909 -0.1409  0.1475
  188POPC    HS21575   4.705   2.956   2.402 -1.5404  1.7583  0.8644
  188POPC   O2121576   4.814   3.060   2.528 -0.5977  0.1047  0.2673
  188POPC   C2121577   4.719   3.138   2.587 -0.4798 -0.2600 -0.0337
  188POPC   O2221578   4.602   3.136   2.556 -0.2995 -0.0643  0.4247
  188POPC   C2221579   4.786   3.211   2.705  0.0125 -0.6732 -0.6189
  188POPC   H2R21580   4.738   3.311   2.711 -1.9130 -1.4723 -1.5243
  188POPC   H2S21581   4.894   3.230   2.686  0.1631 -0.4736  0.4030
  188POPC    C321582   4.912   2.946   2.335  0.2337 -0.4204  0.0729
  188POPC    HX21583   5.000   3.013   2.327 -0.4394  0.6216  1.0848
  188POPC    HY21584   4.881   2.918   2.232 -1.7979 -0.7880  0.7307
  188POPC   O3121585   4.935   2.818   2.404  0.3964  0.1311  0.2669
  188POPC   C3121586   5.015   2.831   2.506 -0.0734  0.0707  0.2528
  188POPC   O3221587   5.073   2.936   2.542  0.4489  0.0960  0.0973
  188POPC   C3221588   5.034   2.693   2.574  0.2149 -0.0119 -0.0305
  188POPC   H2X21589   5.082   2.625   2.501 -2.2264 -2.8189  0.7891
  188POPC   H2Y21590   4.935   2.655   2.607 -0.0585  1.2960  0.7522
  188POPC   C2321591   4.794   3.145   2.850 -0.3800 -0.0438  0.6843
  188POPC   H3R21592   4.811   3.035   2.853  0.9247  0.1563  1.4755
  188POPC   H3S21593   4.686   3.147   2.876 -0.4141 -0.8589  0.6146
  188POPC   C2421594   4.880   3.211   2.962  0.2934  0.2121  0.4455
  188POPC   H4R21595   4.860   3.321   2.966 -0.2281  0.2281 -1.6175
  188POPC   H4S21596   4.989   3.205   2.939  0.7900  1.2037  2.3680
  188POPC   C2521597   4.846   3.152   3.106  0.8192 -0.3254  0.2149
  188POPC   H5R21598   4.939   3.171   3.162  1.2288 -0.9305 -0.2450
  188POPC   H5S21599   4.832   3.042   3.096  2.0087 -0.4866  0.2003
  188POPC   C2621600   4.720   3.218   3.169 -0.1001 -0.3641 -0.0385
  188POPC   H6R21601   4.641   3.190   3.096  0.2944  1.7384 -1.3581
  188POPC   H6S21602   4.730   3.326   3.194  3.3492 -0.5627 -0.0258
  188POPC   C2721603   4.682   3.145   3.302  0.2065  0.0178 -0.2953
  188POPC   H7R21604   4.769   3.138   3.371 -1.1876 -3.0104  1.3705
  188POPC   H7S21605   4.658   3.039   3.277  4.2229 -1.1033 -0.1579
  188POPC   C2821606   4.553   3.195   3.366  0.0706 -0.8029 -1.0287
  188POPC   H8R21607   4.523   3.125   3.447  0.0220  1.4597  1.0192
  188POPC   H8S21608   4.467   3.185   3.296 -2.0985  0.9432  1.1712
  188POPC   C2921609   4.589   3.333   3.419 -0.0878  0.3569 -0.4438
  188POPC   H9121610   4.668   3.390   3.368 -1.4732  1.0664 -1.8951
  188POPC  C21021611   4.537   3.388   3.530  0.4440  0.2136 -0.4617
  188POPC  H10121612   4.592   3.474   3.571  1.3456 -0.4548 -0.2387
  188POPC  C21121613   4.443   3.328   3.628  0.0456  0.6343  0.0089
  188POPC  H11R21614   4.401   3.235   3.586 -0.1836  0.6200  0.2691
  188POPC  H11S21615   4.362   3.396   3.661  0.7610  1.4374  0.1549
  188POPC  C21221616   4.509   3.285   3.765  0.1283  0.4311  0.7524
  188POPC  H12R21617   4.548   3.381   3.806  1.9804 -0.6805  1.7571
  188POPC  H12S21618   4.593   3.213   3.756  0.2046  0.5386  0.6054
  188POPC  C21321619   4.409   3.233   3.864  0.4229  0.1309  0.1366
  188POPC  H13R21620   4.388   3.130   3.828  0.1204  0.2407 -0.0100
  188POPC  H13S21621   4.316   3.295   3.860 -0.3680 -0.9960  0.5251
  188POPC  C21421622   4.476   3.234   4.004 -1.0002  0.0764  0.8133
  188POPC  H14R21623   4.525   3.333   4.017 -0.7560  0.4450 -2.1988
  188POPC  H14S21624   4.561   3.163   3.994  0.0185  1.3333  0.2412
  188POPC  C21521625   4.382   3.198   4.118 -0.0632 -0.6844 -0.2122
  188POPC  H15R21626   4.338   3.101   4.085  1.3880 -1.3117 -0.3858
  188POPC  H15S21627   4.291   3.261   4.122  0.0060 -0.5315 -0.9469
  188POPC  C21621628   4.445   3.192   4.260 -0.1619 -0.2392  0.5131
  188POPC  H16R21629   4.518   3.274   4.276 -1.0119  0.1848  2.5661
  188POPC  H16S21630   4.496   3.094   4.270 -0.9706 -0.5378  1.9626
  188POPC  C21721631   4.340   3.196   4.373  0.0235 -0.2881 -0.2883
  188POPC  H17R21632   4.278   3.106   4.358  1.1581 -1.0234 -0.6785
  188POPC  H17S21633   4.278   3.288   4.365  1.5925  0.8361 -0.0484
  188POPC  C21821634   4.395   3.194   4.515 -0.8175  0.2622 -0.0817
  188POPC  H18R21635   4.438   3.102   4.559 -1.6564  0.7634  1.8637
  188POPC  H18S21636   4.323   3.239   4.586 -2.3460 -1.5691 -0.4048
  188POPC  H18T21637   4.478   3.268   4.520 -1.3956  0.8171  2.0047
  188POPC   C3321638   5.122   2.717   2.699  1.1609 -0.1627  0.5904
  188POPC   H3X21639   5.212   2.780   2.682  0.5985 -0.0464 -2.8081
  188POPC   H3Y21640   5.158   2.619   2.737  0.5137 -0.2999  0.8491
  188POPC   C3421641   5.045   2.772   2.823 -0.6578  0.1192 -0.2654
  188POPC   H4X21642   4.954   2.709   2.835 -1.5326  0.9876 -1.9955
  188POPC   H4Y21643   5.006   2.873   2.798 -0.6943  0.8842  2.5811
  188POPC   C3521644   5.125   2.789   2.950 -0.5536 -0.3641 -0.4055
  188POPC   H5X21645   5.221   2.844   2.942 -0.6391 -0.2705 -0.8403
  188POPC   H5Y21646   5.149   2.685   2.982  0.3656  0.1872  0.7898
  188POPC   C3621647   5.036   2.846   3.060  0.5633 -0.8394  0.0191
  188POPC   H6X21648   4.933   2.810   3.040  0.9773 -2.0359 -0.0338
  188POPC   H6Y21649   5.029   2.957   3.062  1.7663 -0.7461  2.1427
  188POPC   C3721650   5.080   2.796   3.194  0.1628 -0.5807  0.4939
  188POPC   H7X21651   5.189   2.818   3.188 -0.0522  0.2218 -0.7761
  188POPC   H7Y21652   5.072   2.685   3.195 -0.2952 -0.5493  0.1787
  188POPC   C3821653   5.029   2.873   3.315  0.2507  0.2193  0.1172
  188POPC   H8X21654   4.920   2.880   3.294 -0.0440 -1.5872  0.8045
  188POPC   H8Y21655   5.080   2.972   3.321  1.7197 -0.3911 -1.5705
  188POPC   C3921656   5.031   2.816   3.451 -0.0868  0.0833 -0.0561
  188POPC   H9X21657   5.136   2.784   3.468 -0.0113  0.0998 -0.4631
  188POPC   H9Y21658   4.955   2.736   3.463  0.6726 -0.4654  1.2930
  188POPC  C31021659   5.013   2.925   3.557 -0.3564  0.0533  0.1886
  188POPC  H10X21660   4.913   2.972   3.554  0.6928  2.3931 -0.8809
  188POPC  H10Y21661   5.091   3.003   3.546  0.6890 -0.6753  1.9225
  188POPC  C31121662   5.033   2.879   3.700  0.4393 -0.1458 -0.5248
  188POPC  H11X21663   5.141   2.858   3.712  0.2167 -0.8913  0.3262
  188POPC  H11Y21664   4.967   2.792   3.721 -0.2093  0.5313  0.3209
  188POPC  C31221665   4.997   2.992   3.796  0.8048  0.6416 -0.1178
  188POPC  H12X21666   4.896   3.028   3.767 -0.5658 -0.5628  2.7259
  188POPC  H12Y21667   5.066   3.077   3.778  1.4430  0.0274 -0.6227
  188POPC  C31321668   4.995   2.963   3.947  0.2813 -0.2763 -0.2581
  188POPC  H13X21669   5.100   2.954   3.982  0.3466  1.0692 -0.0599
  188POPC  H13Y21670   4.945   2.867   3.970 -0.5238  0.0927 -0.4081
  188POPC  C31421671   4.918   3.070   4.024 -0.0406  0.0698 -0.0715
  188POPC  H14X21672   4.826   3.101   3.970  0.5258 -0.3355 -1.2987
  188POPC  H14Y21673   4.987   3.157   4.035  0.2423 -0.2559  0.8113
  188POPC  C31521674   4.870   3.026   4.164 -0.1605 -0.7720  0.4999
  188POPC  H15X21675   4.788   2.951   4.166 -1.6128  0.7761  1.4095
  188POPC  H15Y21676   4.818   3.118   4.198 -0.4846 -0.8733  0.2844
  188POPC  C31621677   4.985   2.994   4.261  0.9353  0.3937 -0.2474
  188POPC  H16X21678   5.066   3.067   4.242  3.0857 -0.8118  3.2995
  188POPC  H16Y21679   5.024   2.893   4.235 -1.0431 -0.8980  1.4328
  188POPC  H16Z21680   4.955   2.998   4.368 -0.5929  1.6019 -0.6908
  189SAPI   C1221681   3.098   3.683   6.732  0.7174  0.1238  0.4150
  189SAPI    H221682   3.067   3.750   6.648 -1.4267 -1.7367 -0.3582
  189SAPI    O221683   3.156   3.571   6.666 -0.4695  0.0752  0.0412
  189SAPI   HO221684   3.196   3.612   6.588 -0.5058 -2.2429 -1.2863
  189SAPI   C1321685   3.196   3.760   6.815  0.7404  0.4957 -0.7806
  189SAPI    H321686   3.143   3.848   6.857  2.4101  1.2804 -0.2263
  189SAPI    O321687   3.313   3.810   6.743  1.2677 -0.0379  0.5333
  189SAPI   HO321688   3.334   3.742   6.679 -0.8898 -0.4587  0.1945
  189SAPI   C1421689   3.245   3.683   6.938  0.2457  0.1412 -0.4282
  189SAPI    H421690   3.326   3.619   6.895  2.0780  2.0407  0.0342
  189SAPI    O421691   3.313   3.768   7.033 -0.2878 -0.8759  0.4795
  189SAPI   HO421692   3.255   3.828   7.080  1.0911  2.3389 -1.5836
  189SAPI   C1521693   3.145   3.594   7.010  0.1466  0.4750 -0.1953
  189SAPI    H521694   3.106   3.663   7.089 -0.2381 -0.6217  0.5995
  189SAPI    O521695   3.199   3.485   7.092 -0.2682  0.1613  0.5912
  189SAPI   HO521696   3.207   3.515   7.183 -0.9114 -1.4990  1.2271
  189SAPI   C1621697   3.025   3.547   6.928  0.0330 -0.0740 -0.2180
  189SAPI    H621698   3.065   3.457   6.876  1.5133 -1.1484  2.5686
  189SAPI    O621699   2.914   3.511   7.007  0.1025  0.1205 -0.1172
  189SAPI   HO621700   2.877   3.432   6.969 -1.7470  1.0710 -0.3766
  189SAPI   C1121701   2.982   3.645   6.817  0.3721  0.0393 -0.3087
  189SAPI    H121702   2.951   3.731   6.880  2.1329 -1.7859  3.3848
  189SAPI     P21703   2.744   3.666   6.691  0.2386  0.0754 -0.1067
  189SAPI   O1321704   2.707   3.766   6.798 -0.0828  0.1873  0.0430
  189SAPI   O1421705   2.641   3.568   6.652 -0.7111 -0.4040 -0.7321
  189SAPI   O1221706   2.884   3.587   6.736  0.1966 -0.1998  0.3281
  189SAPI   O1121707   2.790   3.745   6.563 -0.0495  0.2019  0.2110
  189SAPI    C121708   2.809   3.884   6.558  0.2818 -0.3758  0.9788
  189SAPI    HA21709   2.853   3.935   6.647 -0.5978  0.8802  0.7155
  189SAPI    HB21710   2.878   3.909   6.474  0.2259  0.0708  1.0608
  189SAPI    C221711   2.674   3.962   6.523 -0.3720 -0.6917  0.6611
  189SAPI    HS21712   2.604   3.958   6.609  1.9774 -1.4861  2.6660
  189SAPI   O2121713   2.608   3.894   6.414  0.1198 -0.2049 -0.0764
  189SAPI   C2121714   2.509   3.812   6.441  0.8753  0.1440  0.3040
  189SAPI   O2221715   2.470   3.793   6.553  0.0898 -0.1536 -0.3268
  189SAPI   C2221716   2.442   3.753   6.315  0.7545 -0.3105  0.2812
  189SAPI   H2R21717   2.440   3.826   6.231 -1.8618  0.5279  1.0004
  189SAPI   H2S21718   2.500   3.665   6.282  0.6040  0.4762 -2.3328
  189SAPI    C321719   2.703   4.110   6.495  0.1495  0.0391  0.1935
  189SAPI    HX21720   2.748   4.156   6.586  0.5785  0.6127 -0.3036
  189SAPI    HY21721   2.607   4.162   6.478  1.1976  2.6116  1.6385
  189SAPI   O3121722   2.786   4.115   6.379 -0.0702 -0.4896 -0.3519
  189SAPI   C3121723   2.775   4.219   6.303 -0.0374  0.5676 -0.8224
  189SAPI   O3221724   2.704   4.318   6.321  0.5901 -0.4364  0.0173
  189SAPI   C3221725   2.875   4.202   6.184  0.7422 -0.3625  0.2870
  189SAPI   H2X21726   2.969   4.232   6.235 -0.4973  0.6841  2.0525
  189SAPI   H2Y21727   2.839   4.279   6.112 -1.1063 -2.1406 -0.8000
  189SAPI   C2321728   2.290   3.730   6.336  0.7198 -0.9002  0.6393
  189SAPI   H3R21729   2.245   3.821   6.380 -3.0559 -1.9489 -0.6990
  189SAPI   H3S21730   2.269   3.651   6.410  0.8392  0.0394  1.7029
  189SAPI   C2421731   2.216   3.695   6.205 -0.3754 -0.4301 -0.1216
  189SAPI   H4R21732   2.229   3.770   6.124 -0.1389  0.2995  0.5723
  189SAPI   H4S21733   2.112   3.710   6.240  0.2438  2.2105  0.8680
  189SAPI   C2521734   2.212   3.554   6.158  0.3590  0.5662  0.2007
  189SAPI   H5R21735   2.163   3.490   6.233  2.3747  0.2060  1.3016
  189SAPI   C2621736   2.244   3.495   6.041  0.1443  0.1361  0.1639
  189SAPI   H6R21737   2.223   3.387   6.034 -1.2327  0.3602  0.4799
  189SAPI   C2721738   2.300   3.563   5.915  0.0009  0.2238 -0.5004
  189SAPI   H7R21739   2.248   3.660   5.897 -1.0532 -0.8382 -3.8525
  189SAPI   H7S21740   2.241   3.508   5.839  2.0483 -1.5219 -0.9092
  189SAPI   C2821741   2.450   3.588   5.886  0.0056 -0.5016  0.3420
  189SAPI   H8R21742   2.517   3.604   5.971  0.6933 -0.7980 -0.1343
  189SAPI   C2921743   2.492   3.628   5.765  0.0168  0.6881 -0.7316
  189SAPI   H9R21744   2.597   3.656   5.749  0.0900  0.1457 -1.2659
  189SAPI  C21021745   2.413   3.611   5.639  0.4020 -0.1515 -0.6438
  189SAPI  H10R21746   2.306   3.596   5.663  0.3283  0.9529 -0.1949
  189SAPI  H10S21747   2.446   3.518   5.588 -0.6947 -0.5111 -0.7175
  189SAPI  C21121748   2.434   3.725   5.549 -1.0394  0.7692  0.5415
  189SAPI  H11R21749   2.455   3.821   5.598 -0.3958  0.0173  1.8119
  189SAPI  C21221750   2.426   3.727   5.416  0.9134 -0.1240  0.0061
  189SAPI  H12R21751   2.453   3.822   5.368 -1.5446  1.5314  1.6829
  189SAPI  C21321752   2.377   3.616   5.334  1.0341 -0.4168  0.6053
  189SAPI  H13R21753   2.364   3.525   5.397 -0.9370  0.1706  1.1177
  189SAPI  H13S21754   2.453   3.596   5.256 -0.2251  2.0056 -1.4020
  189SAPI  C21421755   2.240   3.633   5.271 -0.8371 -0.9170  0.2306
  189SAPI  H14R21756   2.163   3.679   5.335  0.1558 -0.1302  0.8830
  189SAPI  C21521757   2.225   3.613   5.137  0.3765 -0.2227  0.4414
  189SAPI  H15R21758   2.127   3.631   5.090  0.7288 -0.6687 -0.4839
  189SAPI  C21621759   2.332   3.561   5.033 -0.2225 -0.0779 -1.0796
  189SAPI  H16R21760   2.384   3.478   5.085 -1.2851 -0.4885 -0.6511
  189SAPI  H16S21761   2.398   3.650   5.027 -1.1704  0.8158  0.7854
  189SAPI  C21721762   2.292   3.499   4.901 -0.3222 -0.3612  0.0475
  189SAPI  H17R21763   2.217   3.417   4.902 -0.4762 -0.2191  0.2534
  189SAPI  H17S21764   2.382   3.445   4.865  1.6660  1.8825  1.3234
  189SAPI  C21821765   2.264   3.610   4.802 -0.2775  0.3495  0.4672
  189SAPI  H18R21766   2.314   3.705   4.832 -3.4237  1.5897  2.1830
  189SAPI  H18S21767   2.157   3.637   4.809  0.1745  2.2860  0.4388
  189SAPI  C21921768   2.300   3.573   4.653 -0.0172 -0.3166 -0.3734
  189SAPI  H19R21769   2.227   3.501   4.611  1.3213 -1.1644 -1.3212
  189SAPI  H19S21770   2.399   3.522   4.660 -0.4467 -0.9648  1.3841
  189SAPI  C22021771   2.315   3.694   4.565  0.4521  0.2433  0.5527
  189SAPI  H20R21772   2.373   3.769   4.622 -0.3179  3.5485 -2.6284
  189SAPI  H20S21773   2.217   3.739   4.537 -1.4765 -2.9968  1.4831
  189SAPI  H20T21774   2.365   3.666   4.469  0.8860 -1.7396  1.3120
  189SAPI   C3321775   2.876   4.065   6.117 -0.6016 -0.6041 -0.4293
  189SAPI   H3X21776   2.897   3.996   6.202  1.1440  2.7189  2.1085
  189SAPI   H3Y21777   2.968   4.065   6.055  0.7790  2.9016  1.3213
  189SAPI   C3421778   2.759   4.032   6.029  0.0833  0.2459  0.0737
  189SAPI   H4X21779   2.789   3.935   5.984  0.1625  1.4012 -2.5268
  189SAPI   H4Y21780   2.750   4.109   5.949 -0.5975 -0.6387 -0.7174
  189SAPI   C3521781   2.628   4.030   6.099 -0.7348  0.1184 -0.2153
  189SAPI   H5X21782   2.592   4.132   6.125 -3.6630 -0.6399 -0.9539
  189SAPI   H5Y21783   2.654   3.968   6.188 -2.0661  0.7942  0.6759
  189SAPI   C3621784   2.518   3.968   6.009  0.5050 -0.0881  0.2264
  189SAPI   H6X21785   2.422   3.965   6.064  0.1295  1.3037 -0.3268
  189SAPI   H6Y21786   2.555   3.871   5.969  1.9951  0.0169  1.2446
  189SAPI   C3721787   2.473   4.058   5.893 -0.2800 -0.0316  0.1963
  189SAPI   H7X21788   2.557   4.064   5.821  1.1009 -0.7140  1.6736
  189SAPI   H7Y21789   2.466   4.165   5.922 -1.5814  0.7390 -2.6379
  189SAPI   C3821790   2.337   4.023   5.832  0.4444  0.0317 -0.6499
  189SAPI   H8X21791   2.267   4.025   5.918  0.6897 -1.7957 -0.3678
  189SAPI   H8Y21792   2.346   3.922   5.788  0.4372  0.6085 -2.0337
  189SAPI   C3921793   2.283   4.139   5.743 -0.3333  0.4480  0.1090
  189SAPI   H9X21794   2.339   4.128   5.648 -0.1110  1.0808  0.1630
  189SAPI   H9Y21795   2.307   4.238   5.788 -1.4201  0.9705 -0.4241
  189SAPI  C31021796   2.140   4.139   5.704 -0.1568  0.0140 -0.0120
  189SAPI  H10X21797   2.125   4.207   5.618  0.3683 -2.0785 -1.8456
  189SAPI  H10Y21798   2.065   4.162   5.783 -0.8777 -1.5904 -0.1834
  189SAPI  C31121799   2.104   4.002   5.639 -0.3601 -0.9487 -0.5947
  189SAPI  H11X21800   1.995   4.004   5.617  0.0068  0.4323 -2.5877
  189SAPI  H11Y21801   2.129   3.932   5.722 -0.8149 -0.1616  0.2253
  189SAPI  C31221802   2.172   3.970   5.505 -0.4567 -0.4445 -0.1601
  189SAPI  H12X21803   2.147   3.863   5.494  1.8256 -1.0431 -0.0241
  189SAPI  H12Y21804   2.283   3.984   5.508 -0.4491 -0.5600  1.5910
  189SAPI  C31321805   2.113   4.047   5.384  0.7609 -0.4121 -0.6725
  189SAPI  H13X21806   2.136   4.156   5.391 -0.8291  0.2153 -3.7274
  189SAPI  H13Y21807   2.003   4.038   5.369  0.6237  0.8454 -0.5451
  189SAPI  C31421808   2.171   3.989   5.253 -0.1827  0.0334  0.3082
  189SAPI  H14X21809   2.148   3.881   5.248  1.9639 -0.4061 -0.8607
  189SAPI  H14Y21810   2.281   3.999   5.251 -0.2548  1.2797 -2.2816
  189SAPI  C31521811   2.108   4.048   5.119  0.0071  0.4992 -0.6670
  189SAPI  H15X21812   2.127   4.157   5.126  0.7841  0.2866  1.2924
  189SAPI  H15Y21813   1.998   4.036   5.113 -0.6229  4.3529  0.3507
  189SAPI  C31621814   2.159   3.992   4.991  0.5177  0.5166 -0.1099
  189SAPI  H16X21815   2.102   4.039   4.908  1.7456  1.4270 -0.4728
  189SAPI  H16Y21816   2.131   3.885   4.984 -0.8545  0.9333 -1.8983
  189SAPI  C31721817   2.301   4.036   4.972  0.2006  0.3868 -1.2737
  189SAPI  H17X21818   2.371   3.976   5.034 -2.9981 -2.8470 -0.4635
  189SAPI  H17Y21819   2.307   4.144   4.997 -1.2422  0.0058  0.8897
  189SAPI  C31821820   2.347   4.016   4.829  0.0636 -0.5636  0.4759
  189SAPI  H18X21821   2.291   4.083   4.760  0.8514  0.7094  1.0218
  189SAPI  H18Y21822   2.327   3.913   4.793 -1.9011  0.0222 -0.2565
  189SAPI  H18Z21823   2.452   4.051   4.813 -0.9914  3.2446  0.8284
  190SAPI   C1221824   2.208   0.422   6.255 -0.6344  0.6009 -0.3284
  190SAPI    H221825   2.210   0.442   6.146 -0.9728 -0.0169 -0.4502
  190SAPI    O221826   2.151   0.293   6.275 -0.1934 -0.4069 -0.0874
  190SAPI   HO221827   2.067   0.284   6.229 -0.5172 -0.3945  0.4892
  190SAPI   C1321828   2.358   0.438   6.286 -0.0237  0.8458  0.1898
  190SAPI    H321829   2.379   0.543   6.257  1.6687  0.3397 -0.5838
  190SAPI    O321830   2.447   0.354   6.208 -0.4148  0.4518 -0.5243
  190SAPI   HO321831   2.410   0.268   6.189 -0.2844  0.5258 -1.1304
  190SAPI   C1421832   2.370   0.417   6.441  0.5002  0.2701 -0.1776
  190SAPI    H421833   2.348   0.309   6.454 -2.3514  0.8617  0.6059
  190SAPI    O421834   2.504   0.430   6.486  0.7471 -0.1314  0.2879
  190SAPI   HO421835   2.531   0.521   6.499  0.1885 -0.2883  3.2551
  190SAPI   C1521836   2.268   0.479   6.538 -0.2530 -0.4350 -0.8612
  190SAPI    H521837   2.319   0.576   6.558  1.9816 -1.7099  0.0121
  190SAPI    O521838   2.254   0.418   6.668  0.8915 -0.0359  0.4111
  190SAPI   HO521839   2.318   0.463   6.723  1.0208  0.8290 -0.4222
  190SAPI   C1621840   2.132   0.522   6.480  0.7176  0.2820  0.4380
  190SAPI    H621841   2.064   0.434   6.486 -0.6641  1.3697  1.1156
  190SAPI    O621842   2.082   0.640   6.540  0.5989  0.4189  0.6022
  190SAPI   HO621843   1.990   0.647   6.514  0.5352  0.2608  0.7805
  190SAPI   C1121844   2.140   0.540   6.327 -0.4937  0.5305  0.1411
  190SAPI    H121845   2.197   0.632   6.301  0.2308 -0.3922 -1.6706
  190SAPI     P21846   1.957   0.662   6.179  0.8932 -0.3528 -0.0393
  190SAPI   O1321847   1.985   0.793   6.245  0.4798  0.3033  0.6128
  190SAPI   O1421848   1.831   0.639   6.111  0.1633 -0.2000 -0.8519
  190SAPI   O1221849   2.005   0.534   6.275  0.1243 -0.0376 -0.1641
  190SAPI   O1121850   2.081   0.645   6.077 -0.9097 -0.4774  0.1222
  190SAPI    C121851   2.146   0.758   6.023  0.5597 -0.1044  0.2489
  190SAPI    HA21852   2.160   0.842   6.094  2.0518 -0.1041 -0.0132
  190SAPI    HB21853   2.246   0.735   5.981 -0.4419 -0.4381 -2.1559
  190SAPI    C221854   2.071   0.806   5.891 -0.5017 -0.0104 -0.0981
  190SAPI    HS21855   2.134   0.870   5.825 -1.6154  2.2696  0.9453
  190SAPI   O2121856   1.953   0.882   5.917  0.7656  0.3926  0.4154
  190SAPI   C2121857   1.971   1.001   5.962 -0.8519 -0.2771  0.1942
  190SAPI   O2221858   2.078   1.053   5.989 -0.1214 -0.0118  0.5423
  190SAPI   C2221859   1.833   1.077   5.958  0.7122 -0.1264  0.1137
  190SAPI   H2R21860   1.753   1.012   5.998 -0.5143 -0.2444 -2.3358
  190SAPI   H2S21861   1.856   1.169   6.017  2.5919 -0.3751 -0.1657
  190SAPI    C321862   2.040   0.680   5.805  0.0260 -0.7994 -0.0395
  190SAPI    HX21863   1.952   0.618   5.836 -0.1151  0.0221  1.3027
  190SAPI    HY21864   2.135   0.624   5.804  0.3933 -0.1844 -1.8445
  190SAPI   O3121865   2.035   0.720   5.667  0.6815  0.0332  0.1497
  190SAPI   C3121866   1.922   0.746   5.608  0.8689  0.5308 -0.0537
  190SAPI   O3221867   1.814   0.749   5.661 -0.2343 -0.5777  0.3538
  190SAPI   C3221868   1.958   0.761   5.459 -0.6608  0.0410  0.5202
  190SAPI   H2X21869   1.985   0.661   5.417 -2.0025  0.9280 -2.7203
  190SAPI   H2Y21870   2.050   0.823   5.468 -0.5254 -0.0055 -0.4301
  190SAPI   C2321871   1.779   1.112   5.815  0.2053  0.4845 -0.0688
  190SAPI   H3R21872   1.669   1.105   5.821 -0.0696  3.9446  1.2719
  190SAPI   H3S21873   1.825   1.038   5.746 -2.1694 -2.2785  1.1235
  190SAPI   C2421874   1.825   1.251   5.775 -0.2653  0.4987  0.0078
  190SAPI   H4R21875   1.819   1.260   5.664  2.1850  0.7535 -0.1534
  190SAPI   H4S21876   1.933   1.259   5.797  0.1774  0.2958 -1.9088
  190SAPI   C2521877   1.753   1.367   5.837 -0.0779  0.6262  0.4566
  190SAPI   H5R21878   1.740   1.361   5.947  0.5868 -0.7293  0.4828
  190SAPI   C2621879   1.701   1.478   5.781 -0.5362  0.3653 -0.3399
  190SAPI   H6R21880   1.654   1.558   5.840  0.2078  0.9300 -0.4858
  190SAPI   C2721881   1.696   1.505   5.632  0.0241  0.3559  0.3594
  190SAPI   H7R21882   1.690   1.408   5.578  0.2582 -0.8664  2.4015
  190SAPI   H7S21883   1.792   1.556   5.613 -1.1038  2.5873  0.3752
  190SAPI   C2821884   1.579   1.588   5.582  0.1240  0.0631 -0.2435
  190SAPI   H8R21885   1.495   1.608   5.651  0.8920 -0.8215  0.9773
  190SAPI   C2921886   1.569   1.628   5.453 -0.5209 -0.4937 -0.2035
  190SAPI   H9R21887   1.487   1.694   5.419  0.6797  2.3698  1.9805
  190SAPI  C21021888   1.671   1.604   5.346 -0.3387  0.1000 -0.1100
  190SAPI  H10R21889   1.773   1.617   5.389 -0.3929 -1.9510  0.7160
  190SAPI  H10S21890   1.666   1.680   5.265  0.4801  0.0089 -0.2592
  190SAPI  C21121891   1.664   1.462   5.300  0.7444 -0.1750  0.3740
  190SAPI  H11R21892   1.636   1.388   5.376 -0.1284  0.3333  0.5623
  190SAPI  C21221893   1.662   1.419   5.175  0.0283  0.2968  0.2700
  190SAPI  H12R21894   1.624   1.317   5.158  1.6239 -0.7413  2.4373
  190SAPI  C21321895   1.692   1.505   5.053  0.6357  0.4430  0.1202
  190SAPI  H13R21896   1.658   1.610   5.065 -0.2324 -0.0425  2.5351
  190SAPI  H13S21897   1.628   1.477   4.966  2.2896 -3.1133 -0.1310
  190SAPI  C21421898   1.834   1.498   5.003  0.3140  0.6555  0.3436
  190SAPI  H14R21899   1.889   1.586   5.038  2.2314 -0.4097  0.1776
  190SAPI  C21521900   1.886   1.407   4.920 -0.0755 -0.5193  0.2876
  190SAPI  H15R21901   1.995   1.417   4.904 -0.1013  1.2472  0.9748
  190SAPI  C21621902   1.817   1.281   4.881 -0.0648 -0.3485 -0.0964
  190SAPI  H16R21903   1.712   1.269   4.916  0.6327  1.7424  3.1705
  190SAPI  H16S21904   1.877   1.197   4.922 -0.1915 -0.9236 -1.0658
  190SAPI  C21721905   1.824   1.283   4.726 -1.1891  0.1436 -0.1292
  190SAPI  H17R21906   1.795   1.189   4.675 -2.5827  1.3415 -1.6550
  190SAPI  H17S21907   1.930   1.303   4.698 -1.4248  1.0603 -0.4003
  190SAPI  C21821908   1.740   1.381   4.645  0.2487  0.4856  0.1156
  190SAPI  H18R21909   1.736   1.482   4.692 -0.0392 -0.2242  1.6708
  190SAPI  H18S21910   1.638   1.338   4.649  0.5047 -0.1137  0.3285
  190SAPI  C21921911   1.800   1.406   4.506 -0.4565 -0.4803  0.3633
  190SAPI  H19R21912   1.839   1.305   4.481 -1.5546 -0.6881 -0.5667
  190SAPI  H19S21913   1.889   1.472   4.516  0.9680 -1.6890 -2.7660
  190SAPI  C22021914   1.709   1.460   4.398  0.0607  0.1830 -0.1186
  190SAPI  H20R21915   1.653   1.544   4.443 -1.0808 -0.7560  0.2424
  190SAPI  H20S21916   1.650   1.381   4.348  1.2329 -0.4341 -0.5533
  190SAPI  H20T21917   1.785   1.498   4.326  2.2936 -1.1995  1.3973
  190SAPI   C3321918   1.845   0.825   5.378  0.3948  0.5855 -0.4166
  190SAPI   H3X21919   1.795   0.907   5.433  2.2473  1.1530  0.5182
  190SAPI   H3Y21920   1.765   0.749   5.374  0.9686 -0.2064  1.8433
  190SAPI   C3421921   1.889   0.872   5.248  0.9583  0.6979 -0.4152
  190SAPI   H4X21922   1.977   0.810   5.221  1.9105  1.3064  1.1937
  190SAPI   H4Y21923   1.921   0.978   5.253 -0.3614  1.0650  1.0487
  190SAPI   C3521924   1.781   0.860   5.141  0.2439 -0.0661  0.6034
  190SAPI   H5X21925   1.717   0.951   5.139 -1.9186 -1.4953 -0.2270
  190SAPI   H5Y21926   1.716   0.773   5.169  0.7434 -0.8959 -0.7172
  190SAPI   C3621927   1.841   0.842   4.997  0.2423 -0.3425 -0.2089
  190SAPI   H6X21928   1.884   0.740   4.992  2.1300  0.2052  2.8907
  190SAPI   H6Y21929   1.917   0.921   4.980 -2.4791  2.1454 -2.0009
  190SAPI   C3721930   1.739   0.873   4.889  0.0722  0.2986 -0.8592
  190SAPI   H7X21931   1.706   0.979   4.901 -0.0423  0.4050 -1.9810
  190SAPI   H7Y21932   1.648   0.813   4.913 -0.3231  0.2142 -2.4652
  190SAPI   C3821933   1.795   0.854   4.752 -0.7186 -0.3743 -0.0927
  190SAPI   H8X21934   1.832   0.749   4.749 -1.7636 -0.7443 -2.0297
  190SAPI   H8Y21935   1.879   0.924   4.736 -1.7738  0.9243 -0.1807
  190SAPI   C3921936   1.680   0.866   4.646  0.2316 -0.3145 -0.0059
  190SAPI   H9X21937   1.608   0.950   4.660 -2.1075 -1.8045 -2.0986
  190SAPI   H9Y21938   1.615   0.776   4.638 -0.1959 -0.0658  0.5651
  190SAPI  C31021939   1.735   0.890   4.502 -0.0731 -0.0640 -0.7724
  190SAPI  H10X21940   1.801   0.803   4.480 -1.1905 -0.7175 -1.6917
  190SAPI  H10Y21941   1.789   0.987   4.500  0.2322 -0.2242 -0.4261
  190SAPI  C31121942   1.622   0.888   4.397 -0.8785  0.3664 -0.1729
  190SAPI  H11X21943   1.563   0.982   4.399  1.5381  1.9881 -0.7041
  190SAPI  H11Y21944   1.558   0.798   4.407 -0.3345  0.1146  1.4123
  190SAPI  C31221945   1.683   0.886   4.250 -0.3583  0.4016 -0.5328
  190SAPI  H12X21946   1.609   0.869   4.169  1.2709  0.0198 -1.9964
  190SAPI  H12Y21947   1.770   0.817   4.243 -1.0290 -0.3448 -1.9178
  190SAPI  C31321948   1.753   1.019   4.224  0.2046 -0.4193 -0.4833
  190SAPI  H13X21949   1.823   1.055   4.302  1.5990  0.8973 -2.2433
  190SAPI  H13Y21950   1.675   1.098   4.227  1.0704  0.4320  0.2964
  190SAPI  C31421951   1.833   1.032   4.088  0.3660 -0.3332  0.3536
  190SAPI  H14X21952   1.771   0.982   4.010 -0.6592 -2.2152  2.2581
  190SAPI  H14Y21953   1.934   0.985   4.096 -0.1359 -1.4501  0.3716
  190SAPI  C31521954   1.854   1.175   4.039  0.6349 -0.4382 -0.1094
  190SAPI  H15X21955   1.909   1.165   3.943  1.9120  0.3814  0.5166
  190SAPI  H15Y21956   1.920   1.239   4.101  1.9954 -2.6780  0.8757
  190SAPI  C31621957   1.719   1.240   4.001 -0.0355 -0.3486 -0.1404
  190SAPI  H16X21958   1.667   1.291   4.084  0.6198  1.4102 -0.7677
  190SAPI  H16Y21959   1.659   1.167   3.942 -2.0393  1.1170 -0.0276
  190SAPI  C31721960   1.751   1.355   3.907  0.3305 -0.0373  0.2330
  190SAPI  H17X21961   1.837   1.411   3.950  1.1908 -0.5476 -0.7709
  190SAPI  H17Y21962   1.657   1.411   3.892  0.5410 -0.0535 -1.2853
  190SAPI  C31821963   1.801   1.323   3.764  0.0145  0.3567 -0.0398
  190SAPI  H18X21964   1.729   1.337   3.680 -0.4742 -0.8476  0.1520
  190SAPI  H18Y21965   1.825   1.215   3.767 -1.4653  0.0264  0.9030
  190SAPI  H18Z21966   1.893   1.382   3.746  0.2956  0.4038  1.4013
  191SAPI   C1221967   4.544   4.014   1.927 -0.2513 -0.6994  0.2468
  191SAPI    H221968   4.616   4.081   1.977  0.8609 -0.5400 -1.4949
  191SAPI    O221969   4.439   4.094   1.874 -0.0007 -0.2782 -0.2756
  191SAPI   HO221970   4.375   4.114   1.942  0.8336 -0.5454  0.6181
  191SAPI   C1321971   4.619   3.930   1.821 -0.2035 -0.6018 -0.2738
  191SAPI    H321972   4.678   3.856   1.880 -2.4395  0.2088  3.3256
  191SAPI    O321973   4.720   3.996   1.759 -0.5825 -0.2382  0.5419
  191SAPI   HO321974   4.806   3.952   1.768 -0.7955 -0.7769  0.0612
  191SAPI   C1421975   4.534   3.842   1.731  0.1510  0.2316  0.4597
  191SAPI    H421976   4.472   3.921   1.683 -1.3959 -1.3235 -0.2218
  191SAPI    O421977   4.596   3.766   1.630 -0.2865  0.4421 -0.2598
  191SAPI   HO421978   4.578   3.803   1.544  1.6427 -0.0210 -0.8996
  191SAPI   C1521979   4.430   3.767   1.812  0.9447 -0.3318 -0.0963
  191SAPI    H521980   4.477   3.668   1.828 -0.9427 -1.0523  1.3520
  191SAPI    O521981   4.312   3.747   1.734 -0.1538 -0.2067  0.4829
  191SAPI   HO521982   4.332   3.689   1.660 -0.3005 -2.5910  2.2152
  191SAPI   C1621983   4.396   3.813   1.958  0.6283 -0.5865 -0.0782
  191SAPI    H621984   4.297   3.862   1.942  0.4639 -1.6875 -3.0646
  191SAPI    O621985   4.367   3.713   2.051 -0.2150  0.2376  0.2741
  191SAPI   HO621986   4.358   3.752   2.139 -0.9304 -0.5918  0.5776
  191SAPI   C1121987   4.478   3.921   2.030 -0.4601 -0.8154  0.9150
  191SAPI    H121988   4.564   3.865   2.071 -0.3751 -1.9603 -0.7216
  191SAPI     P21989   4.480   4.065   2.269  0.2452  0.4815 -0.1757
  191SAPI   O1321990   4.393   4.177   2.313  0.0046  0.3138  0.3243
  191SAPI   O1421991   4.619   4.095   2.237 -0.0281  0.2010 -0.7590
  191SAPI   O1221992   4.414   3.985   2.139  0.3789  0.0528 -0.4821
  191SAPI   O1121993   4.484   3.947   2.380  0.2057 -0.2602  0.5807
  191SAPI    C121994   4.556   3.828   2.376  0.6910 -0.2310  1.0497
  191SAPI    HA21995   4.574   3.793   2.272  1.1759 -1.1896  1.4389
  191SAPI    HB21996   4.660   3.846   2.412  1.7095 -0.1007 -1.7178
  191SAPI    C221997   4.489   3.712   2.462  0.5616 -0.0583 -0.3577
  191SAPI    HS21998   4.397   3.674   2.413 -1.2353  0.2070  2.5618
  191SAPI   O2121999   4.463   3.768   2.590 -0.3676  0.4617  0.1733
  191SAPI   C2122000   4.339   3.821   2.600 -1.1077 -0.8110  0.1310
  191SAPI   O2222001   4.243   3.774   2.538 -0.5295 -0.0354 -0.2890
  191SAPI   C2222002   4.330   3.910   2.720 -0.2896  0.3462 -1.4340
  191SAPI   H2R22003   4.422   3.896   2.781 -1.6738 -0.4946  0.6027
  191SAPI   H2S22004   4.328   4.018   2.695 -0.9639  0.3945 -1.1905
  191SAPI    C322005   4.587   3.595   2.480  0.4163 -0.0289  0.4681
  191SAPI    HX22006   4.689   3.636   2.497  0.0360  0.4097  1.8067
  191SAPI    HY22007   4.585   3.538   2.384  0.6520  2.2979 -1.0258
  191SAPI   O3122008   4.546   3.519   2.597 -0.6187  0.3351  0.1889
  191SAPI   C3122009   4.452   3.430   2.578  0.4551  0.0487  0.0528
  191SAPI   O3222010   4.402   3.404   2.471  0.0310  0.2291  0.4661
  191SAPI   C3222011   4.406   3.376   2.710 -0.0186  0.4737 -0.3116
  191SAPI   H2X22012   4.376   3.466   2.767 -0.8433 -0.5016  0.8276
  191SAPI   H2Y22013   4.492   3.327   2.760 -1.6784 -1.8404  0.4517
  191SAPI   C2322014   4.201   3.895   2.796 -0.6941 -0.6048  0.6481
  191SAPI   H3R22015   4.114   3.879   2.729 -1.2810  1.8224  0.7494
  191SAPI   H3S22016   4.187   3.988   2.855 -0.0318 -1.2779  1.9218
  191SAPI   C2422017   4.216   3.785   2.898  0.1938 -0.2177  0.1734
  191SAPI   H4R22018   4.296   3.818   2.968  1.2270  2.5977 -2.1253
  191SAPI   H4S22019   4.238   3.690   2.845  3.0954  0.0600  0.7276
  191SAPI   C2522020   4.086   3.763   2.979 -0.3365  0.2040  0.3368
  191SAPI   H5R22021   3.999   3.739   2.917  1.7717 -3.7619 -1.4746
  191SAPI   C2622022   4.063   3.794   3.110  0.3467 -0.0486 -0.3145
  191SAPI   H6R22023   3.962   3.790   3.154 -0.1081  1.4863 -1.1607
  191SAPI   C2722024   4.163   3.844   3.220 -0.6822  0.4380  0.0123
  191SAPI   H7R22025   4.267   3.807   3.210 -0.5308  0.1681  2.2022
  191SAPI   H7S22026   4.132   3.791   3.313  0.6414 -3.1180 -1.3829
  191SAPI   C2822027   4.155   3.998   3.229  0.4608 -0.6028 -0.0307
  191SAPI   H8R22028   4.226   4.044   3.159  0.6629 -1.3033 -0.2976
  191SAPI   C2922029   4.078   4.073   3.314  0.3559 -0.7487 -0.0616
  191SAPI   H9R22030   4.102   4.181   3.316  0.6221 -0.7995  2.5882
  191SAPI  C21022031   3.980   4.032   3.422  0.1721  0.1017 -0.5472
  191SAPI  H10R22032   3.929   3.939   3.390  2.3612 -1.2300 -0.3583
  191SAPI  H10S22033   3.903   4.111   3.434 -0.1642 -0.4892  1.7019
  191SAPI  C21122034   4.054   4.014   3.558 -0.9124 -0.0510  0.1212
  191SAPI  H11R22035   4.138   3.943   3.557 -0.6777  0.2249 -0.1738
  191SAPI  C21222036   4.036   4.085   3.670  0.4557  0.5304 -0.3650
  191SAPI  H12R22037   4.117   4.074   3.743  1.3019  1.2123 -1.1851
  191SAPI  C21322038   3.932   4.197   3.687 -0.2214  0.2200 -0.6383
  191SAPI  H13R22039   3.842   4.145   3.726  0.6295 -0.4195  0.5459
  191SAPI  H13S22040   3.913   4.249   3.591  0.8390 -0.0993 -1.0408
  191SAPI  C21422041   3.968   4.296   3.794  0.2492  0.6691  1.0484
  191SAPI  H14R22042   3.972   4.396   3.747 -1.6033  0.5731  0.5951
  191SAPI  C21522043   3.975   4.279   3.930 -0.2811 -0.8720 -0.0735
  191SAPI  H15R22044   4.004   4.365   3.992 -3.5481 -0.6452  1.3987
  191SAPI  C21622045   3.946   4.156   4.011 -0.4662 -0.2066 -0.0741
  191SAPI  H16R22046   4.041   4.121   4.057 -0.5930  0.3130  0.5938
  191SAPI  H16S22047   3.915   4.070   3.948 -2.3509 -1.6571  2.6481
  191SAPI  C21722048   3.835   4.186   4.111  0.2903 -0.1855 -0.0732
  191SAPI  H17R22049   3.791   4.092   4.148  2.3424 -0.6017  1.5248
  191SAPI  H17S22050   3.755   4.240   4.057 -0.3384  2.5652  3.2173
  191SAPI  C21822051   3.878   4.280   4.233  0.2191  0.2997 -0.0923
  191SAPI  H18R22052   3.890   4.385   4.200 -0.3636 -0.1955 -2.0226
  191SAPI  H18S22053   3.977   4.244   4.267  0.8452  0.5869 -1.5601
  191SAPI  C21922054   3.779   4.270   4.350  0.3137 -0.4858  0.0093
  191SAPI  H19R22055   3.821   4.333   4.431  1.8940 -0.7413 -0.5687
  191SAPI  H19S22056   3.764   4.166   4.386 -0.6145  0.0280  1.1457
  191SAPI  C22022057   3.636   4.330   4.320 -0.0642 -0.1315  0.0519
  191SAPI  H20R22058   3.551   4.302   4.387 -0.1903  1.9023  0.8192
  191SAPI  H20S22059   3.625   4.305   4.212  0.8338  0.5783 -0.2178
  191SAPI  H20T22060   3.644   4.441   4.317 -2.2588  0.0751  0.3964
  191SAPI   C3322061   4.289   3.280   2.700  0.5570  0.2797 -0.4319
  191SAPI   H3X22062   4.303   3.209   2.616 -1.1614  1.7150 -2.0237
  191SAPI   H3Y22063   4.196   3.337   2.679 -1.1464 -2.0873  0.2870
  191SAPI   C3422064   4.267   3.204   2.829 -0.0173 -0.4955  0.6914
  191SAPI   H4X22065   4.360   3.163   2.874  0.0007  2.3068  3.5955
  191SAPI   H4Y22066   4.207   3.112   2.810  0.4125 -0.5414 -0.6025
  191SAPI   C3522067   4.183   3.287   2.926 -0.5197 -0.3553  0.8690
  191SAPI   H5X22068   4.089   3.308   2.871  1.0271 -0.9792 -2.2750
  191SAPI   H5Y22069   4.236   3.382   2.951 -2.0810  0.8578 -0.1679
  191SAPI   C3622070   4.144   3.210   3.055 -0.5391 -0.6775 -0.1686
  191SAPI   H6X22071   4.228   3.198   3.127 -0.2114  0.6246 -0.3010
  191SAPI   H6Y22072   4.116   3.107   3.027 -3.1401  0.2105 -1.1099
  191SAPI   C3722073   4.023   3.272   3.127 -0.0634  0.5189 -0.1278
  191SAPI   H7X22074   3.974   3.209   3.204  1.6757 -0.8528 -0.0846
  191SAPI   H7Y22075   3.945   3.284   3.050 -0.4946 -2.8375 -0.3572
  191SAPI   C3822076   4.060   3.408   3.200 -0.3279  0.0631 -0.3455
  191SAPI   H8X22077   3.964   3.447   3.241  0.0487  0.0843  0.5350
  191SAPI   H8Y22078   4.100   3.471   3.118  2.3205 -0.4776  0.4567
  191SAPI   C3922079   4.166   3.408   3.320 -0.4078 -0.4524  0.3792
  191SAPI   H9X22080   4.224   3.503   3.315  0.1500 -0.7419  1.2062
  191SAPI   H9Y22081   4.240   3.326   3.310  0.1801  0.1902 -0.8687
  191SAPI  C31022082   4.100   3.402   3.463  0.2176  0.4346  0.6449
  191SAPI  H10X22083   4.161   3.351   3.540  0.8053 -0.5317 -0.4169
  191SAPI  H10Y22084   4.006   3.347   3.441  0.0803  1.2201 -0.8471
  191SAPI  C31122085   4.074   3.537   3.521  0.0313 -1.1156  0.2906
  191SAPI  H11X22086   4.009   3.600   3.456  1.2951  1.5112  1.3909
  191SAPI  H11Y22087   4.176   3.581   3.518 -0.3904 -0.1483 -2.1160
  191SAPI  C31222088   4.027   3.544   3.664 -0.2756 -0.1259 -0.4286
  191SAPI  H12X22089   4.106   3.503   3.730  1.3471  0.2224 -2.0794
  191SAPI  H12Y22090   3.937   3.478   3.669  1.4986 -2.5930  0.9230
  191SAPI  C31322091   3.973   3.680   3.695  0.5789 -0.1944 -1.3427
  191SAPI  H13X22092   3.902   3.707   3.613  1.8662 -1.0143 -2.7823
  191SAPI  H13Y22093   4.051   3.759   3.696 -0.8941  1.3287  0.5064
  191SAPI  C31422094   3.896   3.677   3.834 -0.4062 -1.2007  0.0995
  191SAPI  H14X22095   3.859   3.778   3.863  2.0423 -0.0475 -0.4682
  191SAPI  H14Y22096   3.968   3.645   3.912  0.7808 -0.8341 -0.8105
  191SAPI  C31522097   3.770   3.590   3.840 -0.4623  0.9070 -0.1796
  191SAPI  H15X22098   3.805   3.485   3.833  1.4018  1.4290  0.7472
  191SAPI  H15Y22099   3.714   3.620   3.749  0.6462 -1.3501 -1.6912
  191SAPI  C31622100   3.682   3.613   3.963  0.2165 -0.6431 -0.5310
  191SAPI  H16X22101   3.650   3.719   3.974 -0.7927 -1.0504  0.8682
  191SAPI  H16Y22102   3.756   3.582   4.040  1.7173  1.0343 -1.2302
  191SAPI  C31722103   3.549   3.539   3.974  0.2751 -0.0117 -0.0861
  191SAPI  H17X22104   3.488   3.578   4.057 -0.3253  1.8478 -1.3268
  191SAPI  H17Y22105   3.574   3.431   3.977  2.5936  0.4920  1.6201
  191SAPI  C31822106   3.463   3.559   3.850  0.4930 -0.5008 -0.6185
  191SAPI  H18X22107   3.424   3.663   3.843  1.4382  0.1781  2.7079
  191SAPI  H18Y22108   3.375   3.491   3.855  1.1961 -1.5574 -2.0592
  191SAPI  H18Z22109   3.520   3.540   3.757 -0.6548 -1.6719 -1.1139
  192SAPI   C1222110   2.292   5.042   2.204  0.7897 -0.2953 -0.3365
  192SAPI    H222111   2.225   5.024   2.290  0.6845  0.6010 -0.2291
  192SAPI    O222112   2.410   4.963   2.224 -0.8206 -0.1954  0.0340
  192SAPI   HO222113   2.463   5.021   2.280  0.1969 -0.6112 -0.4693
  192SAPI   C1322114   2.213   4.986   2.087  0.8002  0.0013 -0.7469
  192SAPI    H322115   2.110   5.026   2.101  1.9188  2.0505  2.9961
  192SAPI    O322116   2.200   4.846   2.099 -0.2711  0.6624  0.3008
  192SAPI   HO322117   2.281   4.813   2.138 -0.5585 -2.0543 -1.1506
  192SAPI   C1422118   2.269   5.026   1.950  0.0309  0.0707 -0.4336
  192SAPI    H422119   2.353   4.956   1.930  0.6976  0.9181 -0.6543
  192SAPI    O422120   2.177   4.995   1.847  0.3927 -0.1232  0.1408
  192SAPI   HO422121   2.222   4.993   1.763  0.6242 -0.9798  0.2755
  192SAPI   C1522122   2.316   5.174   1.940 -0.0278  0.5663  0.4621
  192SAPI    H522123   2.223   5.236   1.940 -0.8578 -0.6340  1.3809
  192SAPI    O522124   2.389   5.197   1.823 -0.1139  0.6187  0.3721
  192SAPI   HO522125   2.474   5.154   1.837  0.6034  1.7615 -0.3229
  192SAPI   C1622126   2.399   5.222   2.064 -0.8272 -0.0434  0.4136
  192SAPI    H622127   2.498   5.172   2.058  0.6840  2.9216 -2.4819
  192SAPI    O622128   2.419   5.363   2.052 -0.0796 -0.2752 -0.3690
  192SAPI   HO622129   2.506   5.386   2.085 -0.3728  2.9218 -1.4334
  192SAPI   C1122130   2.326   5.188   2.195 -0.0422 -0.7648 -0.7714
  192SAPI    H122131   2.230   5.244   2.185  0.4021  0.3208  0.7819
  192SAPI     P22132   2.279   5.286   2.442 -0.2342 -0.2876  0.0462
  192SAPI   O1322133   2.186   5.386   2.387  0.0937 -0.2463  0.1161
  192SAPI   O1422134   2.365   5.338   2.552 -0.6041 -0.2265  0.0031
  192SAPI   O1222135   2.381   5.234   2.318 -0.1902  0.1888  0.0882
  192SAPI   O1122136   2.201   5.166   2.490 -0.1575 -0.4883 -0.2834
  192SAPI    C122137   2.067   5.157   2.527  0.8789 -0.0967 -0.3489
  192SAPI    HA22138   1.993   5.205   2.460  2.7991  0.5737 -2.0991
  192SAPI    HB22139   2.041   5.049   2.527 -1.2446  0.3825  0.4400
  192SAPI    C222140   2.047   5.216   2.672  0.1178 -0.1931  0.5071
  192SAPI    HS22141   2.079   5.322   2.677  1.0196 -0.4102 -0.3701
  192SAPI   O2122142   2.112   5.132   2.766 -0.0152 -0.1377  0.0590
  192SAPI   C2122143   2.157   5.189   2.875 -0.3938 -0.0221 -0.5043
  192SAPI   O2222144   2.173   5.311   2.895  0.1335  0.1576  0.2000
  192SAPI   C2222145   2.173   5.077   2.982 -0.2053  0.0631 -0.2088
  192SAPI   H2R22146   2.070   5.039   2.998  0.1687 -0.8935  0.0510
  192SAPI   H2S22147   2.234   4.996   2.936 -1.5627 -0.6263 -0.8405
  192SAPI    C322148   1.894   5.218   2.705 -0.1338 -0.1886 -0.7155
  192SAPI    HX22149   1.863   5.112   2.691 -2.4165  0.3946 -0.3584
  192SAPI    HY22150   1.836   5.279   2.633 -0.5119  0.5850  0.2265
  192SAPI   O3122151   1.875   5.244   2.848 -0.6934  0.2164 -0.0573
  192SAPI   C3122152   1.861   5.373   2.873  0.0615 -0.7512 -0.0332
  192SAPI   O3222153   1.884   5.468   2.802 -0.3000  0.2704  0.3906
  192SAPI   C3222154   1.801   5.394   3.012  0.2203  0.8945 -0.1976
  192SAPI   H2X22155   1.693   5.371   3.008  0.9125 -3.5264  0.8208
  192SAPI   H2Y22156   1.811   5.502   3.038 -0.8883  0.7604  0.8898
  192SAPI   C2322157   2.230   5.124   3.114 -0.2139 -0.0706 -0.1122
  192SAPI   H3R22158   2.160   5.199   3.155 -1.4206 -1.1540 -0.1253
  192SAPI   H3S22159   2.335   5.154   3.092 -0.0187 -0.0726  0.7724
  192SAPI   C2422160   2.245   5.015   3.224  1.1538  0.0501 -0.3404
  192SAPI   H4R22161   2.278   5.056   3.322  0.3320  1.6249 -0.6859
  192SAPI   H4S22162   2.329   4.951   3.190 -0.8813 -1.2349 -3.3444
  192SAPI   C2522163   2.125   4.929   3.248 -0.2131 -0.6272  0.3741
  192SAPI   H5R22164   2.080   4.888   3.156 -0.7862 -0.0659  0.3999
  192SAPI   C2622165   2.062   4.911   3.365  0.0360  0.6259 -0.5288
  192SAPI   H6R22166   1.972   4.848   3.372  0.1711  0.6239  1.8561
  192SAPI   C2722167   2.098   4.969   3.499  0.1704 -0.0734 -0.1886
  192SAPI   H7R22168   2.005   4.964   3.560  2.2645 -0.5657  3.2376
  192SAPI   H7S22169   2.125   5.076   3.485  1.9302  0.1416  3.6027
  192SAPI   C2822170   2.221   4.905   3.563 -0.1265  0.0319 -0.1398
  192SAPI   H8R22171   2.313   4.913   3.503 -0.3894  1.2329 -0.4259
  192SAPI   C2922172   2.233   4.856   3.691 -0.0634 -0.9876 -0.2872
  192SAPI   H9R22173   2.336   4.838   3.724  0.2934 -0.1316 -0.9016
  192SAPI  C21022174   2.127   4.840   3.796 -0.2659 -0.2043  0.4680
  192SAPI  H10R22175   2.026   4.862   3.757 -0.6124 -0.0936  1.4122
  192SAPI  H10S22176   2.142   4.905   3.884  1.0411 -1.1762  0.9937
  192SAPI  C21122177   2.126   4.693   3.835  0.5481 -0.1748  0.0240
  192SAPI  H11R22178   2.131   4.623   3.750  1.5311 -1.8781  1.4129
  192SAPI  C21222179   2.108   4.638   3.959 -0.1477  0.4435  0.5155
  192SAPI  H12R22180   2.107   4.528   3.966 -0.3768  0.5259  2.0963
  192SAPI  C21322181   2.097   4.708   4.093  0.2948 -0.4053  0.6666
  192SAPI  H13R22182   2.147   4.807   4.095 -2.5524  1.1189  1.8468
  192SAPI  H13S22183   2.139   4.646   4.175 -0.3167 -0.0356  1.2721
  192SAPI  C21422184   1.951   4.742   4.113  0.3789 -0.0767  0.0654
  192SAPI  H14R22185   1.911   4.806   4.033 -1.6959 -0.9951  0.3093
  192SAPI  C21522186   1.871   4.688   4.205  0.5290  0.2398 -0.3226
  192SAPI  H15R22187   1.765   4.714   4.209  1.0443  2.6149 -0.8325
  192SAPI  C21622188   1.904   4.597   4.322  0.1020  0.3845 -0.1150
  192SAPI  H16R22189   1.857   4.642   4.412 -1.2793 -1.6153  0.2315
  192SAPI  H16S22190   2.011   4.568   4.336  0.2238  0.2965 -1.1735
  192SAPI  C21722191   1.838   4.462   4.314  0.1131 -0.1993 -0.3069
  192SAPI  H17R22192   1.831   4.419   4.417  1.0699  0.1388 -0.0899
  192SAPI  H17S22193   1.894   4.391   4.249  1.1459  1.6755 -1.5401
  192SAPI  C21822194   1.700   4.464   4.244  0.3344 -0.5100 -0.0513
  192SAPI  H18R22195   1.665   4.358   4.239  0.9597 -0.7812  0.9768
  192SAPI  H18S22196   1.696   4.505   4.141  0.7753  0.5864  0.3592
  192SAPI  C21922197   1.599   4.524   4.337 -0.0344 -0.7410 -0.1392
  192SAPI  H19R22198   1.612   4.634   4.348  1.8467 -0.8719 -0.7370
  192SAPI  H19S22199   1.591   4.474   4.436 -3.2911 -3.2645 -1.4613
  192SAPI  C22022200   1.453   4.508   4.281 -0.6726 -0.3338 -0.1689
  192SAPI  H20R22201   1.370   4.541   4.347 -0.1241 -1.3273  1.0568
  192SAPI  H20S22202   1.438   4.399   4.267  1.6565 -0.6762 -0.3410
  192SAPI  H20T22203   1.433   4.555   4.182  0.1385 -0.0819 -0.2210
  192SAPI   C3322204   1.868   5.317   3.126 -0.6969  0.2549 -0.8698
  192SAPI   H3X22205   1.971   5.359   3.130 -1.0654  1.1575 -0.4617
  192SAPI   H3Y22206   1.876   5.208   3.104  1.4031 -0.1124  1.2840
  192SAPI   C3422207   1.801   5.331   3.263 -0.8140 -0.1071  0.2889
  192SAPI   H4X22208   1.695   5.300   3.277 -1.7969  2.8314  0.1094
  192SAPI   H4Y22209   1.794   5.440   3.283  2.6482  0.4902 -1.0825
  192SAPI   C3522210   1.897   5.285   3.378  0.2902  0.7904 -0.3063
  192SAPI   H5X22211   2.001   5.322   3.365 -0.1048  1.3643 -2.2437
  192SAPI   H5Y22212   1.904   5.175   3.387  2.0915  1.0479  2.9797
  192SAPI   C3622213   1.848   5.358   3.505  0.2240 -0.4376 -0.3559
  192SAPI   H6X22214   1.746   5.340   3.546  1.3647 -1.1119  2.3794
  192SAPI   H6Y22215   1.857   5.467   3.488 -1.1155 -0.2760 -0.1635
  192SAPI   C3722216   1.932   5.306   3.626 -0.0820 -0.0995  0.0125
  192SAPI   H7X22217   2.033   5.333   3.590 -0.6902 -0.1685 -1.8416
  192SAPI   H7Y22218   1.935   5.195   3.623 -2.1401 -0.1728 -1.5958
  192SAPI   C3822219   1.899   5.372   3.764  0.1999  0.6318  0.4125
  192SAPI   H8X22220   1.792   5.354   3.789 -0.0791  1.4232 -0.1607
  192SAPI   H8Y22221   1.908   5.480   3.741  0.9969  0.3954 -0.4349
  192SAPI   C3922222   1.985   5.330   3.884 -0.4235 -0.0552  0.5195
  192SAPI   H9X22223   1.966   5.403   3.965 -0.0583 -0.9981  1.4850
  192SAPI   H9Y22224   2.092   5.328   3.854 -0.3152  0.0436  0.8909
  192SAPI  C31022225   1.935   5.188   3.925 -0.3377  0.5766 -0.3509
  192SAPI  H10X22226   1.974   5.123   3.844 -1.0747 -0.1644 -0.1188
  192SAPI  H10Y22227   1.826   5.190   3.908 -0.3796  0.7715 -0.0681
  192SAPI  C31122228   1.988   5.139   4.061 -0.7882  0.4310  0.2797
  192SAPI  H11X22229   1.941   5.041   4.086 -0.6640  1.0996  3.6081
  192SAPI  H11Y22230   1.956   5.211   4.139  0.4652 -0.1243  1.3441
  192SAPI  C31222231   2.140   5.120   4.069  0.0006 -0.3748 -0.1258
  192SAPI  H12X22232   2.183   5.221   4.050 -2.1552  0.6686  0.2412
  192SAPI  H12Y22233   2.185   5.062   3.985  0.2290 -0.2824 -0.0694
  192SAPI  C31322234   2.199   5.072   4.199  1.1498 -0.0943 -0.2559
  192SAPI  H13X22235   2.198   4.961   4.201 -3.0863 -0.2378 -0.8708
  192SAPI  H13Y22236   2.144   5.105   4.290  3.2841  3.4133 -0.0375
  192SAPI  C31422237   2.340   5.123   4.227 -0.1531  0.0239 -0.4772
  192SAPI  H14X22238   2.330   5.233   4.213 -0.4771  0.4352  2.2584
  192SAPI  H14Y22239   2.412   5.087   4.151 -1.1007  0.0988 -1.4284
  192SAPI  C31522240   2.398   5.103   4.371 -0.1054 -0.2088  0.1693
  192SAPI  H15X22241   2.398   4.994   4.394  0.6865 -0.3361 -0.3887
  192SAPI  H15Y22242   2.325   5.129   4.451  0.6105 -2.2589  1.5662
  192SAPI  C31622243   2.533   5.173   4.391  0.2140  0.4622 -0.4582
  192SAPI  H16X22244   2.600   5.140   4.308  0.6279 -1.2307  0.4960
  192SAPI  H16Y22245   2.566   5.130   4.489 -0.7495 -0.2008 -0.4110
  192SAPI  C31722246   2.516   5.320   4.409 -0.5996  0.1997  0.6053
  192SAPI  H17X22247   2.439   5.341   4.486 -1.7150 -0.3615 -0.3209
  192SAPI  H17Y22248   2.485   5.357   4.309  1.6958  0.7931  0.0441
  192SAPI  C31822249   2.646   5.402   4.433  0.0495 -0.9755  0.9151
  192SAPI  H18X22250   2.711   5.387   4.344 -1.0103 -2.2062  0.3160
  192SAPI  H18Y22251   2.707   5.380   4.523  0.4810  0.1232  0.9062
  192SAPI  H18Z22252   2.614   5.508   4.435 -1.2305 -1.2053 -1.9897
  193SOD    SOD22253   3.561   4.238   2.179 -0.1536 -0.0467 -0.0723
  194SOD    SOD22254   1.226   6.291   6.514  0.1423  0.3187 -0.0794
  195SOD    SOD22255   0.843   3.468   7.630 -0.2150 -0.1341  0.0885
  196SOD    SOD22256   5.029   3.590   1.511 -0.1475 -0.4005 -0.5847
  197SOD    SOD22257   2.960   4.935   2.487 -0.2079 -0.0733  0.3430
  198SOD    SOD22258   2.346   1.039   0.973 -0.2816 -0.0310  0.0609
  199SOD    SOD22259   2.096   1.093   7.099 -0.2528 -0.0300  0.5994
  200SOD    SOD22260   1.832   3.183   0.287 -0.0865  0.4655 -0.1370
  201SOD    SOD22261   4.864   3.366   6.848  0.5117  0.0200  0.2670
  202SOD    SOD22262   0.453   3.125   0.553  0.4167 -0.1992  0.2189
  203SOD    SOD22263   4.158   3.148   1.414 -0.3774  0.2041 -0.1275
  204SOD    SOD22264   5.491   5.735   2.580 -0.2789 -0.3029  0.0456
  205SOD    SOD22265   4.540   0.313   0.905  0.0793 -0.0795  0.3256
  206SOD    SOD22266   3.010   2.067   5.954  0.3215 -0.5310  0.1473
  207SOD    SOD22267   2.430   3.644   6.745  0.3347 -0.2669  0.1762
  208SOD    SOD22268   4.774   1.564   1.640  0.6379 -0.8711 -0.3831
  209SOD    SOD22269   2.350   5.891   6.722 -0.0844 -0.1377 -0.0508
  210SOD    SOD22270   1.780   6.368   7.221  0.1830 -0.2939  0.1306
  211SOD    SOD22271   4.968   6.488   0.955  0.0872 -0.5044 -0.3092
  212SOD    SOD22272   5.083   2.436   8.266  0.4569 -0.2892 -0.3770
  213SOD    SOD22273   5.457   3.768   7.418 -0.2666 -0.2915 -0.7025
  214SOD    SOD22274   3.156   2.925   8.396  0.0113 -0.3001 -0.0188
  215SOD    SOD22275   5.172   4.541   0.527 -0.8226 -0.4936  0.4366
  216SOD    SOD22276   3.078   2.378   7.096 -0.1106 -0.4187  0.1250
  217SOD    SOD22277   2.643   3.246   7.150 -0.3514 -0.0782 -0.4623
  218SOD    SOD22278   1.447   5.132   6.582 -0.3375  0.0571 -0.1316
  219SOD    SOD22279   6.133   0.610   2.018  0.0756 -0.2464  0.2745
  220SOD    SOD22280   5.762   2.030   1.558  0.2355  1.0240 -0.2868
  221SOD    SOD22281   4.308   3.731   0.128  0.1715 -0.3166 -0.4011
  222SOD    SOD22282   2.936   1.548   6.898 -0.5227 -0.1261  0.1477
  223SOD    SOD22283   1.570   6.027   1.744  0.0960  0.2741 -0.0413
  224SOD    SOD22284   1.223   3.773   0.306 -0.4428  0.1822 -0.2973
  225SOD    SOD22285   1.702   0.719   8.468 -0.2733 -0.2528  0.2888
  226SOD    SOD22286   6.189   3.468   2.383 -0.5590  0.4287  0.2722
  227SOD    SOD22287   0.880   6.293   2.027 -0.0711 -0.1672 -0.3146
  228SOD    SOD22288   1.458   2.043   2.065  0.3037 -0.1518 -0.3766
  229SOD    SOD22289   5.752   2.959   7.837  0.4333  0.0191 -0.0389
  230SOD    SOD22290   1.883   1.777   8.002  0.1557  0.3521 -0.1510
  231SOD    SOD22291   6.818   1.369   7.498 -0.2592  0.3172  0.4699
  232SOD    SOD22292   5.375   0.919   2.668  0.0087 -0.6995  0.2332
  233SOD    SOD22293   3.916   2.077   0.357  0.9696 -0.2137  0.1585
  234CLA    CLA22294   5.223   3.434   8.403  0.0916 -0.2079  0.2265
  235CLA    CLA22295   2.675   1.084   7.338 -0.0610 -0.2659 -0.1941
  236CLA    CLA22296   4.366   2.576   8.437 -0.2178  0.1870  0.3313
  237CLA    CLA22297   1.960   2.087   0.863  0.2218 -0.3090  0.1230
  238CLA    CLA22298   6.312   0.132   1.388 -0.1771  0.1208 -0.5587
  239CLA    CLA22299   3.665   5.245   0.721  0.0082 -0.1942  0.2037
  240CLA    CLA22300   6.015   5.252   7.750 -0.7726  0.1365 -0.2126
  241CLA    CLA22301   2.641   3.720   1.594 -0.1854 -0.2020 -0.1093
  242CLA    CLA22302   6.135   1.548   1.255  0.3082  0.0006  0.1296
  243CLA    CLA22303   3.260   1.771   8.652  0.4819  0.2903 -0.1012
  244CLA    CLA22304   5.897   6.224   7.685  0.1158 -0.1200  0.0966
  245CLA    CLA22305   6.039   4.602   8.368  0.0239  0.1784  0.3609
  246CLA    CLA22306   5.334   0.145   8.365  0.6014 -0.3829 -0.4430
  247CLA    CLA22307   4.865   1.367   0.847  0.0006  0.4149  0.7892
  248CLA    CLA22308   1.646   0.538   0.297 -0.1455 -0.0457 -0.3776
  249CLA    CLA22309   0.935   4.122   0.482  0.0319 -0.3963  0.0434
  250CLA    CLA22310   5.183   4.895   1.008 -0.1738 -0.0050 -0.1260
  251TIP3   OH222311   5.755   4.358   1.608 -0.5006  0.2423  0.2574
  251TIP3    H122312   5.738   4.269   1.576 -0.4771 -0.1520  1.3165
  251TIP3    H222313   5.709   4.363   1.691  0.4776  0.8202  0.7845
  252TIP3   OH222314   4.941   0.670   0.646 -0.2510  0.0116  0.1565
  252TIP3    H122315   5.000   0.745   0.644 -1.3909  0.9692  0.9510
  252TIP3    H222316   4.986   0.606   0.700  1.6172 -0.7144 -2.0840
  253TIP3   OH222317   6.092   5.913   1.327 -0.5947 -0.1510  0.5889
  253TIP3    H122318   6.014   5.946   1.371  0.0606  1.8199  0.3468
  253TIP3    H222319   6.162   5.921   1.392 -0.0315  0.8559 -0.1168
  254TIP3   OH222320   1.384   2.824   7.766 -0.1709  0.3982 -0.3867
  254TIP3    H122321   1.470   2.845   7.803 -0.3212  0.4674 -0.0686
  254TIP3    H222322   1.365   2.736   7.798 -0.2222  0.3857 -0.4521
  255TIP3   OH222323   6.664   0.928   8.422  0.0324 -0.4607  0.1990
  255TIP3    H122324   6.629   0.935   8.511 -1.2556  2.1407 -0.4120
  255TIP3    H222325   6.744   0.980   8.424  1.9644 -3.2465  0.6125
  256TIP3   OH222326   5.591   2.987   1.365  0.1613  0.3449  0.0427
  256TIP3    H122327   5.630   3.038   1.436 -0.2408 -0.6048  0.9821
  256TIP3    H222328   5.515   2.946   1.405  0.4349 -0.9292 -0.6834
  257TIP3   OH222329   4.431   2.116   1.312  0.2721  0.0282  0.1068
  257TIP3    H122330   4.411   2.037   1.362  0.5835 -0.7081 -0.8898
  257TIP3    H222331   4.503   2.157   1.358  0.5389 -0.6226  0.2802
  258TIP3   OH222332   2.013   0.735   0.156 -0.0150 -0.2357 -0.0666
  258TIP3    H122333   2.104   0.721   0.128 -0.1393 -0.1710 -0.5152
  258TIP3    H222334   1.982   0.648   0.182  0.0110 -0.3523 -0.4183
  259TIP3   OH222335   6.130   4.318   1.574  0.0691 -0.0325  0.3439
  259TIP3    H122336   6.205   4.349   1.523  0.3690 -1.4183 -0.1113
  259TIP3    H222337   6.058   4.376   1.549  0.4698 -0.0179 -0.8792
  260TIP3   OH222338   1.381   0.944   0.224 -0.1646  0.3870 -0.5825
  260TIP3    H122339   1.312   1.008   0.206  0.1157  0.2364 -2.2991
  260TIP3    H222340   1.461   0.985   0.191  0.6940  0.7252  1.7142
  261TIP3   OH222341   5.578   0.315   1.315  0.6864  0.1774  0.1517
  261TIP3    H122342   5.631   0.394   1.328  1.2247  0.1327 -1.5224
  261TIP3    H222343   5.637   0.254   1.272 -0.6457  0.0556 -1.6243
  262TIP3   OH222344   0.520   1.807   7.032 -0.3327  0.3779 -0.1696
  262TIP3    H122345   0.603   1.805   6.984  0.0895  1.7572  0.4500
  262TIP3    H222346   0.545   1.810   7.124 -1.1126 -0.6899  0.0975
  263TIP3   OH222347   5.636   0.854   8.237  0.3351  0.0669 -0.0578
  263TIP3    H122348   5.555   0.815   8.207  1.4084 -3.1282  0.7746
  263TIP3    H222349   5.703   0.821   8.177  1.4099  0.1649  1.0327
  264TIP3   OH222350   1.405   3.330   8.147 -0.0772  0.4943 -0.1000
  264TIP3    H122351   1.407   3.274   8.070  2.3864 -1.2270  1.0700
  264TIP3    H222352   1.312   3.344   8.165 -0.8350 -2.9364 -0.7302
  265TIP3   OH222353   1.640   4.726   7.901 -0.2202  0.0993 -0.1198
  265TIP3    H122354   1.698   4.703   7.973  0.3711 -0.7816 -0.8563
  265TIP3    H222355   1.699   4.736   7.825 -1.0587 -1.4555 -1.0310
  266TIP3   OH222356   3.097   3.236   7.080  0.5411 -0.1734  0.4965
  266TIP3    H122357   3.126   3.327   7.080  0.5926 -0.1022 -2.3417
  266TIP3    H222358   3.005   3.240   7.054  0.7411 -0.9538 -0.3713
  267TIP3   OH222359   3.826   3.931   1.818 -0.0766  0.4690  0.5842
  267TIP3    H122360   3.734   3.958   1.815 -0.1131  0.3124  0.2181
  267TIP3    H222361   3.830   3.868   1.890 -0.3437  0.1637  0.3352
  268TIP3   OH222362   4.158   0.027   8.616  0.0908  0.0925  0.5214
  268TIP3    H122363   4.189   0.062   8.699  2.8225  2.1172 -1.1666
  268TIP3    H222364   4.203  -0.057   8.608  2.3871  1.2938 -0.1789
  269TIP3   OH222365   5.622   0.356   7.190 -0.0387 -0.7253 -0.0519
  269TIP3    H122366   5.576   0.427   7.147  0.9425 -0.0880 -0.0923
  269TIP3    H222367   5.707   0.394   7.215 -0.6138 -0.9844  2.6146
  270TIP3   OH222368   1.591   6.542   2.355 -0.2486 -0.2915  0.7700
  270TIP3    H122369   1.497   6.548   2.343 -0.0217  0.4127 -0.9206
  270TIP3    H222370   1.615   6.620   2.404 -0.2775  0.7357 -0.8009
  271TIP3   OH222371   2.720   0.271   0.674  0.3216  0.1103  0.2672
  271TIP3    H122372   2.766   0.202   0.628 -0.0251  0.1273 -0.1126
  271TIP3    H222373   2.650   0.297   0.614  0.3024  0.6218  0.5055
  272TIP3   OH222374   2.033   3.452   2.094 -0.0751 -0.5432 -0.1838
  272TIP3    H122375   1.939   3.440   2.078  0.2320 -1.4217 -1.5308
  272TIP3    H222376   2.069   3.363   2.094  0.7774 -0.2049  0.1734
  273TIP3   OH222377   5.198   3.377   1.805 -0.2242  0.8969  0.4885
  273TIP3    H122378   5.114   3.341   1.778  0.7566  0.0227 -1.6837
  273TIP3    H222379   5.258   3.302   1.808  0.9709  1.7667 -0.2756
  274TIP3   OH222380   3.886   0.762   1.535 -0.2278 -0.1940 -0.0286
  274TIP3    H122381   3.906   0.669   1.535  0.8372  0.0112  0.6833
  274TIP3    H222382   3.950   0.800   1.596 -0.0338  1.1137 -0.9915
  275TIP3   OH222383   1.874   5.382   8.460 -0.1004  0.4501  0.7000
  275TIP3    H122384   1.939   5.359   8.526  0.4371  0.3014  0.1269
  275TIP3    H222385   1.910   5.460   8.417  1.0624 -1.1336 -1.4365
  276TIP3   OH222386   0.704   4.655   0.164 -0.3466 -0.4238 -0.3794
  276TIP3    H122387   0.622   4.699   0.140  0.0063  0.1423 -0.5699
  276TIP3    H222388   0.678   4.588   0.226 -1.3659 -2.1439 -2.5302
  277TIP3   OH222389   0.076   4.098   2.324 -0.0428  0.1629 -0.3048
  277TIP3    H122390  -0.019   4.107   2.321 -0.3003 -1.6916  0.6375
  277TIP3    H222391   0.108   4.186   2.344 -1.4902  0.9630 -1.3377
  278TIP3   OH222392   2.231   3.899   7.065 -0.2114  0.2144  0.1959
  278TIP3    H122393   2.140   3.927   7.058 -0.5183  0.0277  2.6212
  278TIP3    H222394   2.246   3.888   7.159  1.7251 -1.7403 -0.2542
  279TIP3   OH222395   1.711   4.732   8.334  0.5836  0.3079  0.0724
  279TIP3    H122396   1.720   4.766   8.245  0.5396  1.1024  0.3658
  279TIP3    H222397   1.754   4.796   8.389 -0.4873  0.4730  0.7559
  280TIP3   OH222398   6.754   5.547   0.913  0.3074  0.2552  0.3059
  280TIP3    H122399   6.693   5.580   0.978 -1.0278 -1.6179  0.0731
  280TIP3    H222400   6.839   5.549   0.956 -0.1614  1.3574  1.2207
  281TIP3   OH222401   4.130   5.278   0.191 -0.2882 -0.4824  0.0147
  281TIP3    H122402   4.065   5.254   0.257  0.9634 -1.4410  0.9212
  281TIP3    H222403   4.124   5.209   0.125  1.4446 -1.9600  1.3029
  282TIP3   OH222404   3.519   4.342   0.413 -0.7308 -0.2369  0.2946
  282TIP3    H122405   3.463   4.417   0.395 -1.1518 -0.7929 -0.7714
  282TIP3    H222406   3.574   4.370   0.487  0.2891  1.7237 -1.1237
  283TIP3   OH222407   4.564   6.004   8.424 -0.1126  0.2036  0.4947
  283TIP3    H122408   4.630   6.071   8.436 -0.0204  0.4648 -1.1914
  283TIP3    H222409   4.485   6.040   8.463  0.5339  0.2164  1.8267
  284TIP3   OH222410   1.508   1.629   1.966  0.0802 -0.2407  0.7252
  284TIP3    H122411   1.558   1.548   1.976  1.5133  0.2893 -1.4975
  284TIP3    H222412   1.518   1.653   1.874 -1.5275  1.7101  0.9731
  285TIP3   OH222413   0.270   5.664   0.502 -0.4225 -0.7635  0.0955
  285TIP3    H122414   0.203   5.724   0.470  2.2291  1.0325 -2.5957
  285TIP3    H222415   0.228   5.578   0.498 -2.8176  0.3404 -0.5615
  286TIP3   OH222416   4.384   6.846   8.395  0.3028 -0.0903 -0.0230
  286TIP3    H122417   4.362   6.787   8.323 -0.6750 -0.2921  0.4244
  286TIP3    H222418   4.387   6.789   8.472  0.7190  0.2238  0.1987
  287TIP3   OH222419   1.551   6.198   0.332  0.1339 -0.2718 -0.1129
  287TIP3    H122420   1.533   6.286   0.365 -1.1409 -1.3628  2.3376
  287TIP3    H222421   1.468   6.171   0.292 -0.2649 -1.2093  1.2891
  288TIP3   OH222422   2.341   0.931   6.940 -0.4384  0.3761 -0.4053
  288TIP3    H122423   2.350   0.854   6.884 -0.8079 -0.1419  0.2280
  288TIP3    H222424   2.413   0.924   7.002 -1.3600 -0.3134  0.6303
  289TIP3   OH222425   2.018   2.588   7.305 -0.6838  0.0235 -0.3283
  289TIP3    H122426   2.092   2.604   7.363 -0.1957  1.2224 -1.2315
  289TIP3    H222427   2.057   2.564   7.221 -1.2250  1.8747 -1.1695
  290TIP3   OH222428   4.942   6.104   0.691 -0.1324 -0.3373  0.2885
  290TIP3    H122429   5.010   6.107   0.623 -0.0688  2.0656  0.4059
  290TIP3    H222430   4.979   6.046   0.758  1.1067 -0.3348 -0.3529
  291TIP3   OH222431   2.827   0.412   2.224 -0.3831 -0.9141  0.5058
  291TIP3    H122432   2.922   0.400   2.221  0.0259  1.8644  0.1732
  291TIP3    H222433   2.806   0.416   2.317 -0.0154 -0.5187  0.5751
  292TIP3   OH222434   6.382   4.547   7.283 -0.4852 -0.3884 -0.1673
  292TIP3    H122435   6.321   4.620   7.273  0.1677  0.3589  0.9924
  292TIP3    H222436   6.428   4.541   7.199 -1.3092 -0.1918 -0.6400
  293TIP3   OH222437   1.753   6.285   7.725 -0.4208 -0.0610  0.5465
  293TIP3    H122438   1.846   6.263   7.722 -0.3787 -0.0091  1.2013
  293TIP3    H222439   1.718   6.231   7.797 -1.1872 -1.1038 -0.5652
  294TIP3   OH222440   4.705   3.224   1.945  0.1761  0.2210  0.2232
  294TIP3    H122441   4.687   3.250   2.035 -0.9895 -0.9067  0.3449
  294TIP3    H222442   4.619   3.222   1.903  0.5065 -0.9724 -0.4307
  295TIP3   OH222443   5.122   1.364   1.476 -0.3784  0.0038 -0.4928
  295TIP3    H122444   5.155   1.441   1.429  1.5165  0.3245  1.2081
  295TIP3    H222445   5.171   1.290   1.439  0.9891  0.2347  0.7566
  296TIP3   OH222446   1.314   6.603   1.992 -0.4145  0.2055  0.2928
  296TIP3    H122447   1.246   6.669   2.003  0.8893  1.2925  2.4423
  296TIP3    H222448   1.396   6.653   1.991  0.4953 -1.2267 -0.0221
  297TIP3   OH222449   4.041   5.041   1.943 -0.9164 -0.1388  0.5060
  297TIP3    H122450   3.965   4.993   1.977  0.7295 -2.2052  1.5248
  297TIP3    H222451   4.044   5.121   1.996 -1.3661 -0.8920  1.7250
  298TIP3   OH222452   4.162   5.696   6.809  0.5095  0.2911 -0.0084
  298TIP3    H122453   4.118   5.780   6.797  1.0648  0.4632 -0.8777
  298TIP3    H222454   4.166   5.685   6.904 -1.5329  0.1891  0.1069
  299TIP3   OH222455   1.231   4.958   1.875  0.1593  0.2403  0.2434
  299TIP3    H122456   1.287   4.940   1.799  2.0518 -0.5358  1.7635
  299TIP3    H222457   1.260   4.897   1.942 -3.0752 -0.7456  0.9066
  300TIP3   OH222458   3.174   3.172   8.023  0.1271  0.0932 -0.7930
  300TIP3    H122459   3.211   3.120   8.095 -0.0991  0.8185 -0.1349
  300TIP3    H222460   3.080   3.160   8.031  0.0438  0.9742 -0.3341
  301TIP3   OH222461   0.783   3.745   0.743 -0.6808 -0.0728  0.3420
  301TIP3    H122462   0.761   3.765   0.652 -1.8766 -0.5521  0.5132
  301TIP3    H222463   0.835   3.665   0.737 -2.1339 -1.0379  0.1726
  302TIP3   OH222464   5.301   2.984   2.135 -0.1292 -0.3006  0.6872
  302TIP3    H122465   5.311   2.951   2.224 -1.3595  0.8092  1.2659
  302TIP3    H222466   5.387   3.020   2.113  0.2907 -0.9167  1.2756
  303TIP3   OH222467   6.717   2.440   0.920  0.4320 -0.6636  0.1807
  303TIP3    H122468   6.767   2.359   0.931  0.7808 -0.4950 -0.1180
  303TIP3    H222469   6.630   2.412   0.893  0.9372 -0.9091 -1.2925
  304TIP3   OH222470   3.671   3.780   0.491 -0.7419 -0.1865 -0.1293
  304TIP3    H122471   3.688   3.788   0.585  0.0071  0.6089 -0.3140
  304TIP3    H222472   3.582   3.746   0.485 -0.9996  0.2825  0.8670
  305TIP3   OH222473   0.782   3.992   1.357  0.3825  0.0186 -0.6901
  305TIP3    H122474   0.708   4.037   1.317 -1.4797 -0.7030  1.7151
  305TIP3    H222475   0.855   4.054   1.349 -1.8893  3.3926  1.9440
  306TIP3   OH222476   1.741   4.721   7.197  0.5518 -0.5020  0.5841
  306TIP3    H122477   1.784   4.803   7.221 -0.5309  0.2710  0.0181
  306TIP3    H222478   1.720   4.731   7.104 -1.1545 -0.6523  0.9087
  307TIP3   OH222479   4.744   5.632   8.600  0.9586 -0.0882 -0.0862
  307TIP3    H122480   4.679   5.562   8.593 -0.4390  1.1653 -0.1068
  307TIP3    H222481   4.712   5.701   8.541  2.1767  0.6770  0.1050
  308TIP3   OH222482   4.482   0.671   8.204 -0.0408  0.3698  0.2294
  308TIP3    H122483   4.405   0.634   8.161  0.6469  0.7883 -1.4434
  308TIP3    H222484   4.467   0.655   8.297 -2.2850  0.6872 -0.0096
  309TIP3   OH222485   1.601   1.944   0.657  0.1108 -0.4667  0.0669
  309TIP3    H122486   1.521   1.898   0.631  0.1657 -1.3557  1.4159
  309TIP3    H222487   1.586   1.969   0.748  0.5033  1.3266 -0.3083
  310TIP3   OH222488   4.312   5.127   0.358 -0.1659 -0.2078 -0.0495
  310TIP3    H122489   4.340   5.199   0.414 -0.1430  0.1538 -0.5197
  310TIP3    H222490   4.264   5.169   0.287 -0.9221 -0.7280  0.1425
  311TIP3   OH222491   2.818   5.263   7.808  0.0796  0.4322 -0.1374
  311TIP3    H122492   2.820   5.332   7.741  1.0803  1.4957  0.9272
  311TIP3    H222493   2.767   5.301   7.880  0.9036  0.1878  0.5891
  312TIP3   OH222494   3.333   6.668   7.635 -0.4100 -0.2007 -0.2712
  312TIP3    H122495   3.346   6.686   7.728  0.7223  1.8210 -0.7542
  312TIP3    H222496   3.244   6.635   7.628 -0.2523 -1.1398  1.5958
  313TIP3   OH222497   6.203   6.294   2.395  0.8183  0.5137  0.1498
  313TIP3    H122498   6.232   6.210   2.361  2.5989  0.4760  1.6466
  313TIP3    H222499   6.212   6.287   2.490  4.6566  3.5296  0.2417
  314TIP3   OH222500   5.806   2.203   0.356 -0.2517 -0.0554  0.2260
  314TIP3    H122501   5.769   2.239   0.276  2.2357 -0.0067 -0.9948
  314TIP3    H222502   5.771   2.258   0.426  1.7792  3.5796 -1.3575
  315TIP3   OH222503   3.270   1.059   1.302  0.8380  1.0252  0.0703
  315TIP3    H122504   3.209   1.108   1.247 -1.1356  1.2482  2.2949
  315TIP3    H222505   3.225   0.977   1.321  1.7626  0.6673  0.7833
  316TIP3   OH222506   6.555   2.080   1.839 -0.3235  0.3842 -0.2192
  316TIP3    H122507   6.507   2.014   1.788 -0.4222  1.2010 -1.2014
  316TIP3    H222508   6.520   2.164   1.809  0.7469  0.9392  0.0526
  317TIP3   OH222509   6.701   0.453   1.109  0.7203  0.4295 -0.1244
  317TIP3    H122510   6.610   0.433   1.131  0.3645  2.4627  0.4018
  317TIP3    H222511   6.695   0.511   1.033  1.5834  0.4712 -0.1700
  318TIP3   OH222512   1.433   0.626   8.176 -0.3520 -0.2107  0.5946
  318TIP3    H122513   1.480   0.709   8.162 -1.5257  0.1945 -1.3050
  318TIP3    H222514   1.389   0.609   8.093  1.0511 -3.5603  0.3897
  319TIP3   OH222515   1.349   1.330   8.002  0.2670  0.1641 -0.0974
  319TIP3    H122516   1.302   1.413   7.989 -0.9239 -0.6022 -0.8800
  319TIP3    H222517   1.440   1.351   7.980  0.0983  1.3878  0.2502
  320TIP3   OH222518   3.441   1.837   7.270  0.6618 -0.0249 -0.2691
  320TIP3    H122519   3.434   1.816   7.177 -0.2081  0.6782 -0.3757
  320TIP3    H222520   3.451   1.752   7.313 -0.5275 -0.5013 -0.8768
  321TIP3   OH222521   6.716   4.562   0.738  0.2830  0.0315  0.0890
  321TIP3    H122522   6.649   4.619   0.776  1.1203  1.1323 -0.0307
  321TIP3    H222523   6.772   4.539   0.812  0.1091 -0.4004  0.0848
  322TIP3   OH222524   1.828   4.218   8.315 -0.0953 -0.1778  0.8561
  322TIP3    H122525   1.788   4.221   8.402 -1.8094  1.6983  0.0716
  322TIP3    H222526   1.783   4.147   8.271  0.6761 -1.0403  1.4183
  323TIP3   OH222527   4.951   2.226   7.772  0.2834 -0.1949 -0.4945
  323TIP3    H122528   4.987   2.182   7.849 -0.5579 -0.2273 -0.1050
  323TIP3    H222529   5.025   2.237   7.714  0.6601 -1.5159 -0.2997
  324TIP3   OH222530   4.361   5.556   1.585 -0.3043  0.2781 -0.6664
  324TIP3    H122531   4.376   5.598   1.670  0.4228  1.0101 -1.1408
  324TIP3    H222532   4.324   5.625   1.530  0.2797  0.1290 -1.2643
  325TIP3   OH222533   3.699   0.470   7.551  0.2090  0.0582  0.0385
  325TIP3    H122534   3.697   0.391   7.605  1.1157  1.8943  3.0208
  325TIP3    H222535   3.788   0.505   7.562 -0.5971  2.2605  0.1022
  326TIP3   OH222536   6.169   6.259   1.941  0.3085 -0.0782 -0.0276
  326TIP3    H122537   6.094   6.306   1.978 -0.1647 -1.5056  0.9010
  326TIP3    H222538   6.136   6.222   1.859  0.5280  0.7343 -0.4947
  327TIP3   OH222539   5.013   1.057   7.820 -0.0372  0.2276  0.4106
  327TIP3    H122540   5.040   1.125   7.881 -2.1273  0.0254  1.6887
  327TIP3    H222541   4.984   1.104   7.742  2.7069  0.4852 -0.5695
  328TIP3   OH222542   1.179   0.002   1.716  0.4496 -0.2984 -0.5639
  328TIP3    H122543   1.167   0.066   1.786 -2.7901  0.5408 -1.7391
  328TIP3    H222544   1.107  -0.060   1.728  0.6104 -0.8794 -2.3883
  329TIP3   OH222545   5.764   6.475   8.322 -0.0032 -0.1773  0.2354
  329TIP3    H122546   5.716   6.554   8.349 -1.2626 -0.6593 -0.4823
  329TIP3    H222547   5.773   6.483   8.227 -1.2266 -1.4217 -0.0279
  330TIP3   OH222548   2.177   0.724   6.778 -0.1397  0.3272  0.4220
  330TIP3    H122549   2.096   0.774   6.789 -0.3099 -0.0233  0.7710
  330TIP3    H222550   2.175   0.695   6.686 -0.1726  0.7253  0.2939
  331TIP3   OH222551   1.815   6.270   0.184 -0.2612  0.2961 -0.6410
  331TIP3    H122552   1.835   6.205   0.251 -0.1116 -0.3277 -1.2756
  331TIP3    H222553   1.867   6.346   0.208  0.6353 -0.2931 -0.6340
  332TIP3   OH222554   3.712   2.582   7.981  0.3995 -0.5784  0.2831
  332TIP3    H122555   3.684   2.563   7.892 -1.2663  1.0017  0.4009
  332TIP3    H222556   3.806   2.563   7.981  0.8059  0.8696 -2.2807
  333TIP3   OH222557   3.809   3.367   6.941 -0.5623 -0.1833 -0.0167
  333TIP3    H122558   3.897   3.404   6.935 -0.2697 -0.8450  0.1373
  333TIP3    H222559   3.762   3.405   6.866  0.2115 -0.7773 -0.8279
  334TIP3   OH222560   6.640   2.239   8.481 -0.3298 -0.4361 -0.2085
  334TIP3    H122561   6.591   2.280   8.552  0.3790 -0.8002  0.5124
  334TIP3    H222562   6.614   2.287   8.403 -1.7089 -0.5342  0.1748
  335TIP3   OH222563   1.470   3.360   1.398  0.3627 -0.1641 -0.7884
  335TIP3    H122564   1.422   3.339   1.478  0.8640  1.4969 -0.0102
  335TIP3    H222565   1.543   3.298   1.397 -1.0901 -1.9621 -1.3993
  336TIP3   OH222566   3.454   4.812   1.101  0.3385  0.1576  0.4833
  336TIP3    H122567   3.513   4.750   1.144  0.6352  0.5275  0.6204
  336TIP3    H222568   3.491   4.898   1.122  0.2654  0.3586 -0.1930
  337TIP3   OH222569   0.962   3.528   0.746  0.2224 -0.5320  0.2799
  337TIP3    H122570   1.017   3.561   0.817  1.8053  0.3899 -1.3173
  337TIP3    H222571   0.996   3.440   0.728  0.9964 -0.0921 -0.4796
  338TIP3   OH222572   1.472   5.086   7.651  0.1210 -0.1681  0.0925
  338TIP3    H122573   1.523   5.145   7.596  0.1092  0.4536  0.7340
  338TIP3    H222574   1.385   5.085   7.612  0.6457 -1.3821 -1.1186
  339TIP3   OH222575   3.747   5.111   2.288 -0.1613 -0.0558 -0.3508
  339TIP3    H122576   3.764   5.168   2.213  0.1152 -0.2960 -0.4722
  339TIP3    H222577   3.654   5.126   2.308 -0.3787 -0.3755 -1.0752
  340TIP3   OH222578   1.088   4.124   1.848  0.3107 -0.3367 -0.2464
  340TIP3    H122579   1.004   4.093   1.884  0.8344 -1.8217 -0.2313
  340TIP3    H222580   1.073   4.128   1.754 -0.5158  1.8355 -0.0757
  341TIP3   OH222581   2.020   2.332   0.086 -0.0279 -1.0330 -0.2465
  341TIP3    H122582   1.983   2.297   0.167 -1.9688 -0.1988 -0.6989
  341TIP3    H222583   2.037   2.424   0.107 -0.0119 -0.9541 -0.6134
  342TIP3   OH222584   6.538   3.902   7.171  0.3004  0.3427  0.0947
  342TIP3    H122585   6.565   3.822   7.217  0.1672  0.9294  1.2363
  342TIP3    H222586   6.503   3.871   7.088  1.4769 -0.6800 -0.0438
  343TIP3   OH222587   6.765   4.631   8.505 -0.2234 -0.0028  0.4278
  343TIP3    H122588   6.725   4.569   8.566 -0.5171 -0.2849 -0.0436
  343TIP3    H222589   6.699   4.699   8.494 -0.0809  0.1638  0.5956
  344TIP3   OH222590   6.195   3.929   2.235  0.1240 -0.1703 -0.4350
  344TIP3    H122591   6.111   3.949   2.193 -0.4326 -0.6780  0.4122
  344TIP3    H222592   6.229   3.854   2.185  0.3935  0.4344 -1.1840
  345TIP3   OH222593   3.439   6.765   8.625 -0.1403  0.2280 -0.0069
  345TIP3    H122594   3.403   6.762   8.536  0.2395  1.3869 -0.2170
  345TIP3    H222595   3.501   6.838   8.624  0.7924 -0.5156  0.8829
  346TIP3   OH222596   0.565   1.312   1.153 -0.8899  0.0179 -0.2363
  346TIP3    H122597   0.627   1.273   1.215 -0.8369 -0.0322 -0.3209
  346TIP3    H222598   0.617   1.329   1.075 -1.1740 -0.8501 -0.6337
  347TIP3   OH222599   1.068   3.773   1.177 -0.1596  0.3725 -0.0180
  347TIP3    H122600   0.987   3.819   1.157  1.0396  2.4560 -0.3515
  347TIP3    H222601   1.070   3.768   1.272 -0.8100  0.0327 -0.0149
  348TIP3   OH222602   3.537   3.560   8.412 -0.1198 -0.0852  0.0310
  348TIP3    H122603   3.457   3.591   8.370  0.2372 -0.1652 -0.7171
  348TIP3    H222604   3.595   3.537   8.340  0.0545 -1.4011  0.5608
  349TIP3   OH222605   5.973   2.249   1.974  0.5499 -0.3642  0.1165
  349TIP3    H122606   6.012   2.314   1.914 -0.5933 -0.3063 -0.5840
  349TIP3    H222607   5.891   2.289   2.002 -0.3236 -1.6131 -0.5613
  350TIP3   OH222608   6.101   3.685   2.002  0.0428 -0.3521  0.2704
  350TIP3    H122609   6.194   3.708   2.006  0.2776 -1.2573  0.2123
  350TIP3    H222610   6.084   3.669   1.910 -0.2884  0.2308  0.2218
  351TIP3   OH222611   1.766   5.187   6.152 -0.1974 -1.3571  0.3286
  351TIP3    H122612   1.833   5.236   6.199 -0.2618  0.2587 -1.1631
  351TIP3    H222613   1.808   5.165   6.068 -0.9400 -1.9465  0.1018
  352TIP3   OH222614   0.710   3.152   1.478  0.2195  0.0116 -0.1747
  352TIP3    H122615   0.714   3.093   1.553 -1.9649  1.0611  0.8754
  352TIP3    H222616   0.622   3.190   1.483  1.1084  2.4428 -1.4799
  353TIP3   OH222617   5.073   0.638   7.993 -0.3087 -0.0980 -0.2238
  353TIP3    H122618   5.145   0.609   7.937 -0.9294 -1.2041 -0.4741
  353TIP3    H222619   5.017   0.561   8.002 -2.8373  1.3604 -2.1246
  354TIP3   OH222620   1.330   5.871   7.419  0.1481 -0.3587  0.4126
  354TIP3    H122621   1.270   5.928   7.371  2.5369 -0.1003 -2.5835
  354TIP3    H222622   1.299   5.874   7.510 -1.8656  2.9317 -0.2190
  355TIP3   OH222623   0.300   2.661   1.504  0.0039  0.1928 -0.1386
  355TIP3    H122624   0.320   2.620   1.420 -1.0290 -0.1475 -0.2391
  355TIP3    H222625   0.366   2.729   1.515 -0.0406  0.4504 -1.3819
  356TIP3   OH222626   4.417   0.701   6.837 -0.5304  0.2341  0.2376
  356TIP3    H122627   4.436   0.676   6.746 -1.1299  1.0764 -0.1435
  356TIP3    H222628   4.345   0.644   6.863 -1.9381  1.5212 -0.6481
  357TIP3   OH222629   6.335   2.793   7.892  0.1070 -0.3735  0.0275
  357TIP3    H122630   6.268   2.861   7.896  0.2350 -0.2754  0.6804
  357TIP3    H222631   6.385   2.804   7.974  2.0532  0.7330 -1.2219
  358TIP3   OH222632   2.246   5.439   0.955 -0.1688  0.3953 -0.4116
  358TIP3    H122633   2.251   5.519   0.902  1.3026  0.6249  0.0363
  358TIP3    H222634   2.285   5.372   0.900 -0.1778  0.2729 -0.2680
  359TIP3   OH222635   3.085   4.755   0.386  0.5274  0.1693  0.2809
  359TIP3    H122636   3.081   4.689   0.316  2.7717  0.7965 -0.5234
  359TIP3    H222637   2.998   4.795   0.386  0.0021 -0.8753 -1.1216
  360TIP3   OH222638   4.998   6.086   8.368  0.1997  0.2132  0.2641
  360TIP3    H122639   5.078   6.082   8.316  0.7245  0.8830  1.0044
  360TIP3    H222640   4.933   6.040   8.315  0.8116  0.5584 -0.8047
  361TIP3   OH222641   3.330   0.838   7.709  0.5202  0.4013  0.3316
  361TIP3    H122642   3.383   0.797   7.640  0.5364 -2.1967  1.7644
  361TIP3    H222643   3.349   0.932   7.701  2.8859 -0.1117 -1.1998
  362TIP3   OH222644   4.695   0.792   8.587  0.0242  0.0484 -0.2667
  362TIP3    H122645   4.753   0.864   8.612  0.7586  0.0770 -1.9227
  362TIP3    H222646   4.617   0.835   8.552 -0.0616  0.0270 -0.1023
  363TIP3   OH222647   0.367   5.655   1.304  0.1470  0.4338 -0.2266
  363TIP3    H122648   0.286   5.670   1.255  0.3959 -3.8459 -2.4869
  363TIP3    H222649   0.431   5.631   1.237  2.0823 -0.4835  1.8190
  364TIP3   OH222650   5.049   5.503   7.839 -0.1333  0.3463  0.6213
  364TIP3    H122651   4.972   5.560   7.843 -0.2176  0.2275  0.7369
  364TIP3    H222652   5.014   5.415   7.855 -0.0589  0.2141  0.0941
  365TIP3   OH222653   2.265   1.670   7.253  0.8616 -0.3452 -0.2564
  365TIP3    H122654   2.210   1.737   7.292  1.4020  0.3243 -0.6087
  365TIP3    H222655   2.350   1.681   7.295  1.8748  1.3240 -2.5028
  366TIP3   OH222656   3.123   3.660   0.333 -0.5958 -0.3496 -0.2815
  366TIP3    H122657   3.065   3.716   0.385 -0.7536 -1.4066  0.7229
  366TIP3    H222658   3.076   3.577   0.325  0.3996 -0.9366 -0.1864
  367TIP3   OH222659   6.459   2.503   0.716  0.1728  0.0804  0.0246
  367TIP3    H122660   6.441   2.499   0.810 -1.6766 -1.6853 -0.3509
  367TIP3    H222661   6.552   2.479   0.709  0.5876  1.1463  1.4339
  368TIP3   OH222662   0.641   1.050   2.289  0.5148 -0.3421 -0.1178
  368TIP3    H122663   0.678   1.098   2.215 -1.9842 -0.4015 -1.5189
  368TIP3    H222664   0.565   1.102   2.315  0.3585 -1.2353  1.3134
  369TIP3   OH222665   3.060   4.075   1.395  0.4624 -0.4192  0.1576
  369TIP3    H122666   3.152   4.082   1.369  0.3956 -0.6531 -0.1482
  369TIP3    H222667   3.051   4.136   1.468  0.5908  0.4732 -0.5515
  370TIP3   OH222668   4.987   1.144   7.555  0.2178 -0.6570 -0.5080
  370TIP3    H122669   4.949   1.227   7.526 -0.5496 -0.6362  0.5315
  370TIP3    H222670   5.081   1.161   7.560  0.3710 -0.5877 -2.7037
  371TIP3   OH222671   5.416   5.968   2.157  0.4852  0.8510  0.5334
  371TIP3    H122672   5.407   5.891   2.213  0.8499  0.1189 -0.3818
  371TIP3    H222673   5.508   5.968   2.129 -0.0440  0.2368 -1.3622
  372TIP3   OH222674   2.159   0.063   6.746 -0.2868 -0.2197  0.3466
  372TIP3    H122675   2.152   0.112   6.828  0.6023  1.8456 -0.7335
  372TIP3    H222676   2.253   0.051   6.733 -0.3334  0.5658 -0.9410
  373TIP3   OH222677   5.350   4.291   1.253 -0.0481 -0.1894  0.0299
  373TIP3    H122678   5.422   4.247   1.208 -0.7890 -0.7438 -0.6652
  373TIP3    H222679   5.293   4.320   1.182  0.1580  1.4494  0.5057
  374TIP3   OH222680   1.275   2.536   1.799 -0.3825  0.2064  0.1620
  374TIP3    H122681   1.217   2.466   1.769 -0.1329  0.4334 -0.9027
  374TIP3    H222682   1.330   2.556   1.723  0.2603  0.8341  0.7769
  375TIP3   OH222683   6.679   1.454   0.039  0.1208  0.0550 -0.1398
  375TIP3    H122684   6.589   1.422   0.036  0.2608 -0.2917 -2.1232
  375TIP3    H222685   6.689   1.504  -0.042  1.0971  1.9123  1.0432
  376TIP3   OH222686   5.900   4.081   7.348 -0.2990 -0.3742  0.5022
  376TIP3    H122687   5.980   4.064   7.297 -1.0855 -0.3142 -0.8020
  376TIP3    H222688   5.830   4.048   7.292 -1.3487  1.3285  0.7757
  377TIP3   OH222689   3.705   4.429   7.565  0.1406 -0.4012  0.3428
  377TIP3    H122690   3.770   4.363   7.586  0.5937  0.0644  0.4231
  377TIP3    H222691   3.673   4.405   7.478  1.1482 -0.0737 -0.1287
  378TIP3   OH222692   0.597   5.568   1.147 -0.4690 -0.3470 -0.0581
  378TIP3    H122693   0.651   5.631   1.099  0.0213  2.4083  3.6738
  378TIP3    H222694   0.655   5.493   1.161  1.8075  1.5794  1.7987
  379TIP3   OH222695   2.143   0.747   1.260  0.3376 -0.1836  0.6405
  379TIP3    H122696   2.056   0.707   1.257  0.5405 -0.8682  2.6032
  379TIP3    H222697   2.199   0.686   1.212  0.1814 -1.0408  1.5135
  380TIP3   OH222698   1.900   1.661   7.518  0.5999  0.8819  0.0077
  380TIP3    H122699   1.969   1.710   7.563  0.4816  1.7441 -0.7130
  380TIP3    H222700   1.946   1.598   7.464  0.9816  2.7983 -2.0494
  381TIP3   OH222701   0.467   3.875   1.116  0.1109 -0.0003  0.3084
  381TIP3    H122702   0.516   3.955   1.136 -0.2812  0.0237  1.2191
  381TIP3    H222703   0.509   3.841   1.037 -1.5708  2.6465 -1.8981
  382TIP3   OH222704   6.630   3.544   1.344  0.4887 -0.4268 -0.1435
  382TIP3    H122705   6.670   3.459   1.324  1.2086 -0.5880  1.7338
  382TIP3    H222706   6.583   3.529   1.426 -0.9027  0.5594 -0.7267
  383TIP3   OH222707   6.059   3.526   8.592  0.1679 -0.4974 -0.3409
  383TIP3    H122708   5.980   3.496   8.637  0.6562 -0.3507  0.6573
  383TIP3    H222709   6.107   3.574   8.659  0.1707  1.1321 -1.4719
  384TIP3   OH222710   2.662   3.798   7.334  0.7646 -0.1998  0.3037
  384TIP3    H122711   2.638   3.855   7.260 -1.5146  0.0948  1.1792
  384TIP3    H222712   2.718   3.731   7.295 -0.1561  0.0803 -1.6519
  385TIP3   OH222713   5.057   0.223   6.569 -0.0261 -0.1316  0.7515
  385TIP3    H122714   5.119   0.154   6.592  0.3601 -0.1467 -0.2949
  385TIP3    H222715   4.975   0.177   6.553  0.7667 -0.7063 -2.2376
  386TIP3   OH222716   6.731   0.097   0.827 -0.2034  0.0431 -0.5263
  386TIP3    H122717   6.699   0.028   0.770 -0.8006  0.9257 -1.2956
  386TIP3    H222718   6.743   0.055   0.912  1.9883 -1.6440 -1.5677
  387TIP3   OH222719   0.676   5.833   2.327 -0.5171  0.2049 -0.5363
  387TIP3    H122720   0.722   5.759   2.367  0.3780  0.6283 -0.7518
  387TIP3    H222721   0.692   5.906   2.386 -0.7151  0.4137 -0.7393
  388TIP3   OH222722   5.888   0.149   8.497  0.0145  0.0720 -0.8312
  388TIP3    H122723   5.982   0.141   8.515 -0.2718 -0.3457  0.5742
  388TIP3    H222724   5.863   0.232   8.536 -0.0571  0.5821 -1.9297
  389TIP3   OH222725   3.908   3.789   0.900 -0.2492  0.0997 -0.2738
  389TIP3    H122726   3.899   3.705   0.944  0.2154  0.0087 -0.3402
  389TIP3    H222727   3.948   3.767   0.815 -2.3718  0.1094 -1.3405
  390TIP3   OH222728   2.061   2.102   1.909 -0.2309 -0.5429  0.1778
  390TIP3    H122729   2.022   2.086   1.995 -1.6193  2.5105  0.2381
  390TIP3    H222730   1.986   2.112   1.850  0.5524  0.9973 -0.6288
  391TIP3   OH222731   5.911   4.108   6.908  0.0313  0.8668 -0.0357
  391TIP3    H122732   5.973   4.174   6.877 -0.1740  0.2887 -1.7439
  391TIP3    H222733   5.897   4.050   6.834 -1.6868  0.3076  0.6571
  392TIP3   OH222734   6.509   4.521   8.212 -0.3208 -0.5222  0.0132
  392TIP3    H122735   6.540   4.601   8.254  1.9040 -1.5885  0.5083
  392TIP3    H222736   6.447   4.484   8.275 -0.9161  0.4760  0.0406
  393TIP3   OH222737   1.489   2.411   7.525  0.1083  0.1187 -0.1552
  393TIP3    H122738   1.536   2.333   7.497  1.3997  1.1018 -0.8462
  393TIP3    H222739   1.425   2.427   7.456  0.3537  0.0895 -0.3923
  394TIP3   OH222740   0.377   0.183   1.718  0.2297  0.1225  0.0910
  394TIP3    H122741   0.323   0.246   1.766  1.6856 -1.2668  3.9128
  394TIP3    H222742   0.314   0.119   1.683 -0.8671  0.2624  1.7009
  395TIP3   OH222743   5.981   1.882   6.865 -0.4490 -0.3395 -0.6641
  395TIP3    H122744   5.916   1.826   6.823  0.0676 -0.7702 -0.8989
  395TIP3    H222745   6.003   1.946   6.797 -1.1297  0.2350 -0.3553
  396TIP3   OH222746   3.945   0.667   7.389  0.5707  0.1684 -0.1137
  396TIP3    H122747   3.962   0.616   7.468  0.1737 -0.8423 -0.6602
  396TIP3    H222748   3.923   0.602   7.322 -0.5941  1.0907 -0.6761
  397TIP3   OH222749   4.158   1.803   7.664 -0.4115 -0.5316 -0.2430
  397TIP3    H122750   4.226   1.768   7.606  0.7103 -1.1073  1.3535
  397TIP3    H222751   4.133   1.729   7.719 -0.9342  0.1743  0.4861
  398TIP3   OH222752   5.928   3.823   7.612  0.3853  0.0513  0.8105
  398TIP3    H122753   5.896   3.896   7.560 -1.1468 -1.6118 -0.7536
  398TIP3    H222754   5.918   3.852   7.703  0.4415  1.9897  0.2364
  399TIP3   OH222755   6.389   1.200   0.276  0.0378 -0.5080 -0.0087
  399TIP3    H122756   6.379   1.106   0.290  3.9470 -1.0926  0.1255
  399TIP3    H222757   6.403   1.236   0.363 -1.4419  0.2475 -0.0607
  400TIP3   OH222758   0.669   5.555   8.654  0.7098 -0.7900  0.6461
  400TIP3    H122759   0.686   5.487   8.589 -2.5311 -2.0208  0.9403
  400TIP3    H222760   0.678   5.510   8.738  1.8024  0.0390  1.0035
  401TIP3   OH222761   4.427   2.481   7.174  0.5290  0.2383  0.3362
  401TIP3    H122762   4.387   2.459   7.258  0.5391  0.7315  0.4696
  401TIP3    H222763   4.359   2.529   7.126 -0.3383 -2.0109 -0.8819
  402TIP3   OH222764   5.715   2.642   1.335  0.3961  0.0588  0.0984
  402TIP3    H122765   5.729   2.590   1.414  2.7329 -1.0581 -0.9400
  402TIP3    H222766   5.757   2.726   1.354  0.2187  0.0972  0.3256
  403TIP3   OH222767   0.873   3.737   1.434  0.2225  0.0198 -0.6847
  403TIP3    H122768   0.787   3.710   1.466 -0.4955  0.4045 -2.2129
  403TIP3    H222769   0.869   3.832   1.431  0.1267 -0.0154 -2.2477
  404TIP3   OH222770   0.062   6.132   7.597  0.4103  0.9524 -0.2782
  404TIP3    H122771   0.112   6.096   7.670  0.8852  0.2579 -0.9261
  404TIP3    H222772   0.127   6.147   7.528 -0.4085 -1.4493 -1.7177
  405TIP3   OH222773   5.208   6.023   0.607 -0.0607  0.5739  0.4584
  405TIP3    H122774   5.251   6.104   0.580 -0.1195  0.1465 -0.9723
  405TIP3    H222775   5.279   5.960   0.620 -0.1230  0.3950 -0.0574
  406TIP3   OH222776   0.960   4.210   8.476  0.0698  0.1982  0.1592
  406TIP3    H122777   0.918   4.244   8.396  1.0196  1.8473  0.3111
  406TIP3    H222778   1.053   4.221   8.460  0.4948 -2.9362  0.0490
  407TIP3   OH222779   1.406   2.260   0.983  0.0173 -0.4494  0.4501
  407TIP3    H122780   1.323   2.271   0.937  0.5915  2.2041 -0.1473
  407TIP3    H222781   1.465   2.221   0.918 -0.4413 -1.3438  0.5493
  408TIP3   OH222782   2.371   4.693   8.123  0.3764 -0.1906 -0.5680
  408TIP3    H122783   2.410   4.780   8.127  1.2211 -0.6152  1.1485
  408TIP3    H222784   2.428   4.643   8.065  1.8042 -0.4882  1.0312
  409TIP3   OH222785   6.776   1.689   1.728 -0.0269  0.0088  0.1076
  409TIP3    H122786   6.753   1.782   1.733  1.3965  0.5933 -2.3919
  409TIP3    H222787   6.864   1.684   1.765  0.2805 -0.1607 -0.6355
  410TIP3   OH222788   3.018   6.610   8.263 -0.3563  0.2326 -0.5094
  410TIP3    H122789   3.033   6.640   8.353  1.8384 -0.0341 -0.7260
  410TIP3    H222790   2.961   6.534   8.271  1.5781 -1.1346  0.8889
  411TIP3   OH222791   4.824   6.691   0.917  0.3037  0.3718  0.1459
  411TIP3    H122792   4.855   6.766   0.968 -0.7420  0.5216  0.5850
  411TIP3    H222793   4.796   6.730   0.834  2.8714  0.0151 -0.9892
  412TIP3   OH222794   1.050   0.720   2.303  0.0322 -0.1924 -0.4055
  412TIP3    H122795   1.130   0.701   2.253 -0.5037  0.2583 -1.4680
  412TIP3    H222796   1.070   0.690   2.391  1.0814 -0.8500 -0.8378
  413TIP3   OH222797   1.867   1.423   0.567 -0.0698  0.4872 -0.0764
  413TIP3    H122798   1.835   1.343   0.527 -0.8627  0.9741 -0.4276
  413TIP3    H222799   1.961   1.425   0.546 -0.3883  0.5422 -1.5866
  414TIP3   OH222800   0.940   2.596   8.123 -0.1815 -0.7862  0.3107
  414TIP3    H122801   0.969   2.505   8.111 -0.3773 -0.6698 -1.1646
  414TIP3    H222802   0.845   2.592   8.124 -0.2136 -0.8782  2.8444
  415TIP3   OH222803   6.324   5.496   6.778 -0.2470 -0.0450 -0.5300
  415TIP3    H122804   6.287   5.584   6.791  1.8406  0.6503  1.3890
  415TIP3    H222805   6.295   5.447   6.854  1.7417  0.2030  0.4513
  416TIP3   OH222806   4.846   6.093   7.710 -0.2845 -0.4491  0.3277
  416TIP3    H122807   4.909   6.164   7.701 -1.6515  0.9887  1.6403
  416TIP3    H222808   4.767   6.125   7.668 -0.3549 -2.0395 -0.8650
  417TIP3   OH222809   5.770   0.562   1.330  0.4400  0.3853 -0.0701
  417TIP3    H122810   5.799   0.636   1.277  1.6494  1.4692  1.9487
  417TIP3    H222811   5.852   0.523   1.363 -0.1815 -1.6819 -0.8030
  418TIP3   OH222812   0.595   5.081   8.024 -0.2980 -0.0899 -0.1445
  418TIP3    H122813   0.516   5.044   7.984 -0.3575 -0.3434  0.1961
  418TIP3    H222814   0.639   5.005   8.064  1.3953 -0.4088 -2.3955
  419TIP3   OH222815   6.333   4.974   7.513 -0.3032 -0.1804 -0.1750
  419TIP3    H122816   6.273   4.933   7.576 -0.0859  0.1770  0.2664
  419TIP3    H222817   6.319   4.925   7.432 -2.2336  0.7809 -0.4925
  420TIP3   OH222818   2.728   2.425   6.030  0.0613 -0.3805  0.0766
  420TIP3    H122819   2.659   2.474   6.076 -1.6635 -0.0426 -2.6818
  420TIP3    H222820   2.773   2.491   5.979 -0.3126 -1.1944 -1.3441
  421TIP3   OH222821   1.356   5.635   8.602 -0.1650 -0.4794 -0.4885
  421TIP3    H122822   1.276   5.646   8.551 -0.6740  0.6051  0.4948
  421TIP3    H222823   1.422   5.688   8.557 -0.2205 -0.7035 -0.8315
  422TIP3   OH222824   2.616   2.482   1.459 -0.0126 -0.2165  0.3690
  422TIP3    H122825   2.589   2.500   1.549  0.9181 -0.4692  0.7114
  422TIP3    H222826   2.535   2.482   1.409 -0.4355  1.0022  1.0201
  423TIP3   OH222827   3.269   0.146   1.919 -0.4106 -0.1285 -0.3565
  423TIP3    H122828   3.344   0.152   1.860 -1.5330 -0.2337 -1.8244
  423TIP3    H222829   3.270   0.055   1.949 -1.3815 -0.8599 -2.3670
  424TIP3   OH222830   6.326   6.209   7.545 -0.0051  0.3321  0.5173
  424TIP3    H122831   6.387   6.144   7.512 -1.0446 -0.6086  0.3535
  424TIP3    H222832   6.353   6.223   7.636  0.8122  0.3904  0.2681
  425TIP3   OH222833   3.820   6.423   2.782  0.8455 -0.9327  0.8315
  425TIP3    H122834   3.913   6.440   2.795  0.3479  2.0057  1.1978
  425TIP3    H222835   3.781   6.434   2.868 -0.2088  1.2317  0.1535
  426TIP3   OH222836   2.885   3.600   7.321 -0.2720 -0.0271 -0.4316
  426TIP3    H122837   2.907   3.628   7.232 -1.2056  0.4628 -0.5180
  426TIP3    H222838   2.969   3.578   7.360  0.1592 -0.1979 -1.4172
  427TIP3   OH222839   5.136   2.894   0.992  0.3002  0.3186 -0.0435
  427TIP3    H122840   5.130   2.968   1.052  1.2023  0.9434 -0.6822
  427TIP3    H222841   5.048   2.857   0.990  0.2308  0.3112  1.6056
  428TIP3   OH222842   6.780   5.695   7.711 -0.3983 -0.3294 -0.0600
  428TIP3    H122843   6.803   5.760   7.645 -0.0097 -1.8600 -1.5132
  428TIP3    H222844   6.863   5.669   7.750 -0.5583  0.0950  0.5699
  429TIP3   OH222845   0.799   0.342   0.822 -0.2314 -0.3645 -0.5801
  429TIP3    H122846   0.759   0.426   0.841  0.5300 -0.1366  0.0856
  429TIP3    H222847   0.726   0.283   0.807 -0.7723  0.7398 -2.6133
  430TIP3   OH222848   6.130   3.081   7.514  1.0848 -0.4485 -0.4327
  430TIP3    H122849   6.072   3.153   7.537  1.1562 -1.2571  2.8730
  430TIP3    H222850   6.116   3.067   7.421 -3.3151  0.0471 -0.0623
  431TIP3   OH222851   6.192   4.952   7.774  0.7337 -0.3363  0.3675
  431TIP3    H122852   6.137   5.017   7.819  0.6454  1.0875 -1.6700
  431TIP3    H222853   6.278   4.962   7.814 -0.1211 -1.8436  2.8535
  432TIP3   OH222854   2.275   5.334   1.229 -0.0561  0.2343 -0.4947
  432TIP3    H122855   2.302   5.399   1.165  0.3714 -1.3687 -2.0364
  432TIP3    H222856   2.270   5.252   1.179 -1.1810 -0.8017  1.2141
  433TIP3   OH222857   4.132   6.192   2.743 -0.0839 -0.5715  0.1850
  433TIP3    H122858   4.067   6.175   2.674  0.4416 -0.4992 -0.3387
  433TIP3    H222859   4.120   6.284   2.765 -0.3350 -0.6257  0.2751
  434TIP3   OH222860   4.694   2.106   0.553  0.4333 -0.4658  0.3289
  434TIP3    H122861   4.751   2.031   0.573  0.2006 -1.2706 -1.7782
  434TIP3    H222862   4.752   2.182   0.553  0.6464 -0.5564  2.6615
  435TIP3   OH222863   4.757   6.160   7.175  0.4065  0.1460 -0.4709
  435TIP3    H122864   4.716   6.096   7.118 -2.0566  1.2546 -0.0639
  435TIP3    H222865   4.823   6.111   7.224 -0.1139 -1.6410 -1.4964
  436TIP3   OH222866   4.947   1.910   1.395  0.5488 -0.0704  0.0564
  436TIP3    H122867   4.855   1.885   1.386  0.2803  0.8857 -0.0306
  436TIP3    H222868   4.957   1.932   1.488  0.1080  1.8673 -0.3029
  437TIP3   OH222869   3.388   3.350   0.466  0.3460 -0.0149 -0.3951
  437TIP3    H122870   3.434   3.267   0.481  1.1740  0.5934  0.5218
  437TIP3    H222871   3.322   3.353   0.536 -0.4985 -0.4580 -1.1591
  438TIP3   OH222872   3.356   6.701   1.732 -0.4076  0.2654 -0.1980
  438TIP3    H122873   3.435   6.705   1.787 -0.6293  0.4791  0.1073
  438TIP3    H222874   3.365   6.775   1.672 -0.4750  0.4075 -0.0313
  439TIP3   OH222875   6.038   5.964   7.593  0.1319  0.0375 -0.3710
  439TIP3    H122876   6.122   5.979   7.635 -1.1885 -0.2430  2.6379
  439TIP3    H222877   5.983   6.036   7.624 -1.1271 -0.5954 -1.0508
  440TIP3   OH222878   3.490   1.665   1.248 -0.0104 -0.2812  0.0795
  440TIP3    H122879   3.397   1.668   1.273  0.0697  1.6960  0.3309
  440TIP3    H222880   3.531   1.734   1.300  1.5079 -0.7293 -0.4658
  441TIP3   OH222881   1.214   2.755   1.952 -0.2173  0.0870 -0.1192
  441TIP3    H122882   1.137   2.737   2.006 -1.2002  1.3002 -1.0535
  441TIP3    H222883   1.224   2.678   1.897 -1.8571  0.6117 -1.2055
  442TIP3   OH222884   2.915   4.813   8.293 -0.4481  0.5799  0.2981
  442TIP3    H122885   2.983   4.880   8.282 -0.9649  0.9682 -0.7769
  442TIP3    H222886   2.855   4.829   8.220 -0.5384 -1.1189 -0.0437
  443TIP3   OH222887   4.378   1.146   7.534 -0.0791  0.5522  0.0511
  443TIP3    H122888   4.306   1.191   7.490 -0.9737  1.3284  2.1256
  443TIP3    H222889   4.410   1.210   7.597  1.2492 -0.4120  0.3906
  444TIP3   OH222890   1.011   1.289   0.726  0.2757  0.0539  0.1072
  444TIP3    H122891   0.992   1.295   0.632 -0.3009  0.1716  0.2276
  444TIP3    H222892   1.053   1.204   0.736  2.7479  1.0904 -0.6518
  445TIP3   OH222893   5.489   1.969   0.633 -0.6569  0.4574  0.2892
  445TIP3    H122894   5.582   1.974   0.612 -0.5015  0.7958  1.0100
  445TIP3    H222895   5.466   1.877   0.618 -0.4603  0.5835 -0.8723
  446TIP3   OH222896   3.115   3.735   7.785  0.5696  0.8461 -0.2979
  446TIP3    H122897   3.079   3.722   7.873  2.3225  1.8029  0.6096
  446TIP3    H222898   3.041   3.769   7.734 -0.7625 -0.7191  0.4840
  447TIP3   OH222899   1.763   2.663   0.650  0.1236 -0.3309 -0.0564
  447TIP3    H122900   1.723   2.727   0.591 -2.1621 -0.8535  0.8099
  447TIP3    H222901   1.789   2.591   0.593 -0.8215 -0.2494 -0.6138
  448TIP3   OH222902   5.132   0.542   0.042  0.3241  0.1447  0.1747
  448TIP3    H122903   5.183   0.474  -0.003 -0.4565  0.2371 -0.8843
  448TIP3    H222904   5.197   0.588   0.096  1.1594 -0.4294 -0.3057
  449TIP3   OH222905   6.385   4.164   6.891  0.3559 -0.0954  0.0499
  449TIP3    H122906   6.452   4.232   6.889 -0.9623  1.2490 -0.8556
  449TIP3    H222907   6.392   4.121   6.805 -0.1638  0.2874 -0.1874
  450TIP3   OH222908   4.815   4.300   1.208 -0.1095  0.1086 -0.2421
  450TIP3    H122909   4.782   4.312   1.297 -0.0356  1.1809 -0.3471
  450TIP3    H222910   4.909   4.284   1.219 -0.4596 -2.1402  0.0031
  451TIP3   OH222911   6.829   0.245   0.224 -0.4669  0.3445 -0.1101
  451TIP3    H122912   6.792   0.240   0.135 -0.0687  0.9972 -0.3249
  451TIP3    H222913   6.807   0.161   0.264  0.5092 -0.5287 -1.2913
  452TIP3   OH222914   1.523   5.855   8.468 -0.3323  0.3467  0.2747
  452TIP3    H122915   1.482   5.912   8.404  0.5476  1.0072  0.2848
  452TIP3    H222916   1.567   5.788   8.416 -0.9209 -0.0347  0.2500
  453TIP3   OH222917   3.188   3.965   7.214 -0.1104  0.0279 -0.3781
  453TIP3    H122918   3.181   4.057   7.189  2.0419 -0.2157 -2.2910
  453TIP3    H222919   3.103   3.928   7.193  0.1188  0.8571 -3.3012
  454TIP3   OH222920   4.589   0.781   1.875  0.0882  0.2972  0.0167
  454TIP3    H122921   4.520   0.734   1.922 -0.6392  0.1160 -1.1917
  454TIP3    H222922   4.656   0.798   1.941 -0.5497 -0.6405  0.9281
  455TIP3   OH222923   1.624   1.982   1.395 -0.4226  0.3110 -0.0826
  455TIP3    H122924   1.603   1.890   1.377  3.7811 -0.7355 -0.7177
  455TIP3    H222925   1.618   2.025   1.310  1.9094 -0.5266 -0.7577
  456TIP3   OH222926   5.326   4.557   1.933 -0.3562  0.3049  0.0547
  456TIP3    H122927   5.292   4.515   2.013  0.1333  0.8102  0.5416
  456TIP3    H222928   5.395   4.616   1.965 -1.6034  2.1444 -0.5148
  457TIP3   OH222929   1.674   0.742   5.915 -0.6653 -0.5812  0.2065
  457TIP3    H122930   1.707   0.680   5.980 -0.8277 -0.5614  0.3083
  457TIP3    H222931   1.749   0.758   5.857 -0.1433  0.3602  1.1148
  458TIP3   OH222932   5.365   5.417   7.771  0.4053 -0.2177 -0.3998
  458TIP3    H122933   5.421   5.484   7.734 -0.2279  1.1459  1.0046
  458TIP3    H222934   5.416   5.378   7.842 -0.2819  0.8608  0.7235
  459TIP3   OH222935   3.984   1.615   5.832  0.3868 -0.4053  0.8135
  459TIP3    H122936   3.918   1.563   5.878  0.3049 -0.4621  0.6314
  459TIP3    H222937   3.966   1.705   5.859  0.1681 -0.4083  0.6848
  460TIP3   OH222938   3.865   0.029   1.332 -0.7650 -0.4162  0.0168
  460TIP3    H122939   3.873   0.111   1.282 -0.5309 -1.2455 -1.3486
  460TIP3    H222940   3.918  -0.034   1.284 -1.1458 -1.4521  0.9134
  461TIP3   OH222941   0.792   6.236   1.817 -0.6744  0.0039  0.1150
  461TIP3    H122942   0.791   6.145   1.787 -0.3511 -0.0531  0.2788
  461TIP3    H222943   0.835   6.285   1.747 -1.3820  0.1318 -0.2472
  462TIP3   OH222944   4.987   4.628   2.081  0.1983  0.3041  0.4850
  462TIP3    H122945   4.901   4.613   2.043  0.1892  1.1444  0.1389
  462TIP3    H222946   5.005   4.721   2.063  0.0215  0.8663  2.8663
  463TIP3   OH222947   5.659   3.670   1.371 -0.1281 -0.3446  0.0536
  463TIP3    H122948   5.627   3.758   1.350 -0.2014 -0.6749 -1.3570
  463TIP3    H222949   5.631   3.655   1.461 -1.3262  0.5362 -0.1429
  464TIP3   OH222950   1.209   0.016   1.041 -0.0646  0.4735  0.2289
  464TIP3    H122951   1.164   0.078   1.099 -0.1117  0.4479  0.2193
  464TIP3    H222952   1.276  -0.024   1.097 -0.6374 -0.1432  0.4866
  465TIP3   OH222953   4.358   0.232   0.290 -0.0341  0.3934 -0.1004
  465TIP3    H122954   4.415   0.164   0.255 -0.6503 -0.4396  0.4786
  465TIP3    H222955   4.416   0.306   0.307  0.8719 -0.4285  0.4667
  466TIP3   OH222956   0.785   3.275   2.341 -0.1849 -0.4823  0.1398
  466TIP3    H122957   0.806   3.183   2.327  1.1293 -0.0821 -0.6451
  466TIP3    H222958   0.855   3.308   2.397 -1.4067 -0.2614  1.6260
  467TIP3   OH222959   3.550   0.839   6.706  0.1465 -0.0356  0.0933
  467TIP3    H122960   3.476   0.815   6.762 -0.3674 -0.6090 -0.8135
  467TIP3    H222961   3.525   0.808   6.619  0.1505  2.3780 -0.8401
  468TIP3   OH222962   3.920   6.738   0.409  0.3095 -0.3526  0.3134
  468TIP3    H122963   3.832   6.773   0.396 -0.0669 -0.6829  1.7943
  468TIP3    H222964   3.906   6.646   0.433  0.9614 -0.0511  1.9642
  469TIP3   OH222965   6.210   5.279   7.289  0.0809 -0.1738 -0.5446
  469TIP3    H122966   6.129   5.234   7.264  0.5718 -0.6859 -1.2565
  469TIP3    H222967   6.189   5.323   7.371  0.3665 -3.9476  1.7773
  470TIP3   OH222968   0.776   0.709   7.524  0.1462  0.5645 -0.3084
  470TIP3    H122969   0.734   0.753   7.451 -1.1775 -1.1047 -0.6106
  470TIP3    H222970   0.783   0.617   7.496  0.9342  0.1655  1.0848
  471TIP3   OH222971   5.069   4.244   1.349 -0.0489  0.4448 -0.1155
  471TIP3    H122972   5.098   4.154   1.336 -1.5861 -0.2092  0.8617
  471TIP3    H222973   5.149   4.291   1.374  0.5391 -0.9180  0.6759
  472TIP3   OH222974   2.466   1.771   7.740  0.1111  0.2723  1.1803
  472TIP3    H122975   2.560   1.765   7.724  0.2491  1.0815  1.6541
  472TIP3    H222976   2.456   1.743   7.831 -0.2263 -0.7090  0.8535
  473TIP3   OH222977   3.141   1.304   7.853  0.1251  0.6994 -0.6414
  473TIP3    H122978   3.188   1.346   7.925  1.5019 -1.4123 -0.2028
  473TIP3    H222979   3.172   1.349   7.774  3.6597 -1.0616 -0.4556
  474TIP3   OH222980   6.294   0.874   7.251 -0.4963 -0.5117  0.0984
  474TIP3    H122981   6.205   0.906   7.240  0.0233  0.8943 -0.2403
  474TIP3    H222982   6.350   0.949   7.229  0.7555 -1.0939  1.1243
  475TIP3   OH222983   1.271   0.448   1.826  0.1994 -0.1956 -0.5260
  475TIP3    H122984   1.230   0.362   1.830 -1.3457  0.5546  0.8926
  475TIP3    H222985   1.334   0.448   1.898 -0.6243  0.2298  0.2133
  476TIP3   OH222986   0.103   0.235   8.297 -0.2307 -0.2299  0.3758
  476TIP3    H122987   0.041   0.222   8.225 -0.0042 -2.0220  0.4632
  476TIP3    H222988   0.186   0.253   8.253 -0.1854 -0.8820  0.1731
  477TIP3   OH222989   2.085   4.742   1.689 -0.6202  0.3081 -0.8014
  477TIP3    H122990   2.125   4.792   1.761 -0.2013  0.1839 -0.9510
  477TIP3    H222991   2.011   4.697   1.730  1.0611 -1.7514  0.1237
  478TIP3   OH222992   5.864   1.172   0.035 -0.6039  0.1563  0.0969
  478TIP3    H122993   5.923   1.202  -0.034  0.0827 -0.4376  0.4039
  478TIP3    H222994   5.837   1.252   0.079  2.2196  0.3631  1.7261
  479TIP3   OH222995   4.610   5.386   8.608  0.3484 -0.0423  0.0057
  479TIP3    H122996   4.563   5.328   8.549  0.1904  0.0140  0.0757
  479TIP3    H222997   4.677   5.331   8.649  2.1253  0.4177 -2.0459
  480TIP3   OH222998   4.278   6.808   2.113 -0.0009 -0.9172  0.1671
  480TIP3    H122999   4.244   6.897   2.116 -1.3452 -1.4164  1.0154
  480TIP3    H223000   4.342   6.804   2.184  0.6698 -0.4096 -0.4011
  481TIP3   OH223001   0.569   2.417   0.830  0.0113 -0.2890  0.4514
  481TIP3    H123002   0.524   2.474   0.768 -0.2792 -1.3511 -0.3438
  481TIP3    H223003   0.560   2.329   0.793 -0.4992 -1.0209  2.1729
  482TIP3   OH223004   4.826   1.477   0.181 -0.8779  0.1461  0.0723
  482TIP3    H123005   4.778   1.430   0.113 -1.4836 -0.1249  0.6690
  482TIP3    H223006   4.912   1.436   0.183 -0.8360  0.2007 -0.5743
  483TIP3   OH223007   3.907   4.278   7.197  0.6763  0.4268 -0.2950
  483TIP3    H123008   3.995   4.240   7.196 -0.0111 -1.4876  2.2986
  483TIP3    H223009   3.856   4.222   7.139  0.3680 -0.8616  1.1527
  484TIP3   OH223010   5.456   1.129   0.896  0.0400 -0.7747 -0.0766
  484TIP3    H123011   5.498   1.215   0.894 -1.3556  0.0897  2.4599
  484TIP3    H223012   5.499   1.082   0.967  0.1009 -1.8169 -0.7749
  485TIP3   OH223013   1.481   2.316   6.478 -0.5861 -0.2070  0.5385
  485TIP3    H123014   1.424   2.276   6.413 -0.7785  0.4385  0.3025
  485TIP3    H223015   1.463   2.266   6.559  1.5059 -2.7000 -0.4040
  486TIP3   OH223016   1.565   3.469   0.333 -0.0987 -0.5387  0.5340
  486TIP3    H123017   1.584   3.558   0.363 -3.4235  0.5577 -0.1814
  486TIP3    H223018   1.488   3.442   0.383 -0.4758 -2.1458 -0.8064
  487TIP3   OH223019   0.744   3.467   0.961  0.6898 -0.5618 -0.0923
  487TIP3    H123020   0.793   3.513   0.893 -0.0646  0.3280 -0.0546
  487TIP3    H223021   0.803   3.397   0.991  1.2993 -0.5124 -1.1522
  488TIP3   OH223022   1.450   0.235   7.079 -0.1367  0.5227  0.7267
  488TIP3    H123023   1.402   0.288   7.015 -2.0111 -1.9789 -0.0964
  488TIP3    H223024   1.392   0.229   7.154  1.1734  1.7048  1.8853
  489TIP3   OH223025   1.112   1.588   1.528  0.1326 -0.7944  0.4487
  489TIP3    H123026   1.036   1.550   1.572  0.2715 -0.2287  1.1827
  489TIP3    H223027   1.139   1.661   1.584 -0.7116  1.0369 -1.4129
  490TIP3   OH223028   6.793   0.150   7.978 -0.7941 -0.4115  0.3221
  490TIP3    H123029   6.867   0.114   7.930 -0.5434  0.1160  0.3081
  490TIP3    H223030   6.722   0.152   7.914  0.1319  2.3854 -0.7368
  491TIP3   OH223031   0.949   6.466   8.157 -0.4106  0.3675  0.5042
  491TIP3    H123032   0.858   6.474   8.130 -0.1224  1.9182 -0.0859
  491TIP3    H223033   0.997   6.526   8.100  0.9828 -0.4028  0.8155
  492TIP3   OH223034   3.145   3.914   1.038  0.2410  0.8210  0.6588
  492TIP3    H123035   3.087   3.896   0.964  1.7548  0.6109 -0.5166
  492TIP3    H223036   3.186   3.830   1.057  2.1545  1.4832 -0.3099
  493TIP3   OH223037   5.326   4.511   8.013  0.1074 -0.4438 -0.4685
  493TIP3    H123038   5.351   4.502   7.921 -0.5847  2.4260 -1.0377
  493TIP3    H223039   5.230   4.509   8.013 -0.0210  2.0669 -0.2558
  494TIP3   OH223040   0.417   4.780   7.251  0.1824  0.8424  0.5768
  494TIP3    H123041   0.364   4.729   7.190 -1.5550  2.7730  0.3175
  494TIP3    H223042   0.486   4.818   7.197  1.0629 -0.6050  0.6422
  495TIP3   OH223043   1.737   4.434   0.476  0.2235  0.1202  0.3591
  495TIP3    H123044   1.786   4.414   0.397  1.9236 -1.2542  1.6735
  495TIP3    H223045   1.675   4.361   0.484 -0.1913  0.4424  0.1246
  496TIP3   OH223046   5.091   0.804   7.769 -0.6303 -0.1271 -0.5466
  496TIP3    H123047   5.106   0.761   7.853 -0.8988  1.5966  0.4330
  496TIP3    H223048   5.069   0.894   7.792 -2.1357  0.0378 -2.4057
  497TIP3   OH223049   0.621   0.037   0.646  0.2874 -0.3273 -0.1885
  497TIP3    H123050   0.649   0.115   0.599 -0.7266 -0.7488 -1.5265
  497TIP3    H223051   0.702   0.002   0.683  0.7239  1.4848  0.6939
  498TIP3   OH223052   1.557   4.996   7.911  0.4301 -0.1373 -0.2275
  498TIP3    H123053   1.582   4.903   7.910  2.9158  0.4515 -1.1876
  498TIP3    H223054   1.534   5.015   7.820  0.5050  0.3272 -0.1514
  499TIP3   OH223055   2.725   1.381   0.269  0.2622  0.4623 -0.0837
  499TIP3    H123056   2.645   1.352   0.313  0.2534  0.3878 -0.1486
  499TIP3    H223057   2.776   1.301   0.257 -0.2167  0.3045 -1.2018
  500TIP3   OH223058   1.808   5.457   1.434 -0.6403  0.1914 -0.0509
  500TIP3    H123059   1.901   5.457   1.457 -1.0372  1.0407  1.7618
  500TIP3    H223060   1.791   5.544   1.399 -0.2705 -0.7657 -2.7906
  501TIP3   OH223061   2.601   4.472   0.923 -0.0293  0.0986 -0.2550
  501TIP3    H123062   2.563   4.387   0.901  0.7218  0.0223 -1.3391
  501TIP3    H223063   2.695   4.460   0.913  0.0325  1.3431 -1.6092
  502TIP3   OH223064   0.166   5.897   0.725 -0.5426  0.0306  0.3072
  502TIP3    H123065   0.093   5.919   0.667 -0.9974 -0.9364  0.5044
  502TIP3    H223066   0.202   5.816   0.690 -0.2868 -0.1147  0.8868
  503TIP3   OH223067   2.367   2.282   7.515 -0.0154  0.1866  0.2871
  503TIP3    H123068   2.378   2.247   7.603  0.6658  0.9566  0.5189
  503TIP3    H223069   2.393   2.210   7.457 -2.8570 -1.1978  0.6070
  504TIP3   OH223070   1.017   0.254   7.750 -0.5308  0.6362 -0.6616
  504TIP3    H123071   1.016   0.336   7.798  0.3218  0.8840 -1.0421
  504TIP3    H223072   1.107   0.221   7.759 -1.0966 -0.7285  0.2568
  505TIP3   OH223073   2.974   0.929   8.655 -0.5489  0.3231 -0.0922
  505TIP3    H123074   2.922   0.917   8.575  0.4749 -1.4192 -0.5536
  505TIP3    H223075   3.037   0.996   8.632 -1.5946  1.3572 -0.0273
  506TIP3   OH223076   0.670   5.490   0.472  0.2011  0.3121  0.5406
  506TIP3    H123077   0.604   5.514   0.538 -1.0716 -2.7687  0.5801
  506TIP3    H223078   0.739   5.446   0.522  2.2621  3.1533  0.4435
  507TIP3   OH223079   1.821   6.279   2.551  0.1413 -0.0385  0.4370
  507TIP3    H123080   1.907   6.239   2.546  0.2893 -0.0118  2.0254
  507TIP3    H223081   1.834   6.369   2.522  0.3685 -0.3925 -0.5664
  508TIP3   OH223082   0.682   6.383   1.457  0.3198  0.3685 -0.2385
  508TIP3    H123083   0.705   6.348   1.371 -0.8294  1.3845 -0.9871
  508TIP3    H223084   0.625   6.316   1.496  1.6209 -0.5353  0.1586
  509TIP3   OH223085   5.906   5.486   1.912  0.1658  0.0417  0.7342
  509TIP3    H123086   5.937   5.504   1.823  0.2762 -2.6416  0.1458
  509TIP3    H223087   5.975   5.433   1.952 -1.1106 -1.1778  1.4093
  510TIP3   OH223088   0.685   4.839   0.489 -0.1140  0.0826  0.3437
  510TIP3    H123089   0.615   4.859   0.551 -0.2004  0.1851  0.2113
  510TIP3    H223090   0.674   4.902   0.418 -0.7509 -0.8108 -0.3659
  511TIP3   OH223091   2.728   6.290   0.713 -0.1817 -0.1150 -0.1824
  511TIP3    H123092   2.732   6.378   0.749  0.4139 -0.2381  0.0662
  511TIP3    H223093   2.694   6.236   0.785  1.0459 -0.3676  0.2359
  512TIP3   OH223094   0.872   4.977   2.447  0.0877  0.5685 -0.4784
  512TIP3    H123095   0.919   5.015   2.521 -0.8939  0.9883 -0.0603
  512TIP3    H223096   0.912   4.890   2.436  2.1386  1.5393 -1.2543
  513TIP3   OH223097   1.768   3.711   0.384 -0.3718  0.4517  0.5285
  513TIP3    H123098   1.739   3.747   0.300  0.5014 -1.5227 -0.6810
  513TIP3    H223099   1.858   3.743   0.394 -0.4952  0.7337  0.7598
  514TIP3   OH223100   4.771   4.080   0.225 -0.3035  0.1457  0.8177
  514TIP3    H123101   4.762   4.003   0.281 -0.8074  0.2367  0.8681
  514TIP3    H223102   4.849   4.062   0.172 -0.3271 -0.3299  0.9346
  515TIP3   OH223103   2.802   4.798   7.822 -0.5076 -0.2392  0.1350
  515TIP3    H123104   2.719   4.761   7.792 -0.8728  0.2465  0.5308
  515TIP3    H223105   2.867   4.764   7.760 -0.6281 -2.5313  1.1724
  516TIP3   OH223106   6.625   1.984   0.551  0.7693 -0.7525 -0.7455
  516TIP3    H123107   6.615   1.983   0.646 -0.5153 -0.7044 -0.8666
  516TIP3    H223108   6.720   1.983   0.537  0.9783 -0.4787  0.5312
  517TIP3   OH223109   5.756   1.111   1.637 -0.7013  0.2766 -0.3469
  517TIP3    H123110   5.772   1.202   1.658 -0.9429 -0.0043  1.1464
  517TIP3    H223111   5.673   1.112   1.588  0.8111  1.1268 -3.1042
  518TIP3   OH223112   2.951   1.964   0.600  0.4485 -0.3903 -0.1907
  518TIP3    H123113   2.929   1.874   0.625 -0.6908 -0.0851 -0.0080
  518TIP3    H223114   2.880   1.989   0.540  1.4093 -0.0245 -1.1991
  519TIP3   OH223115   0.694   1.739   0.690 -0.0331 -0.5527  0.2077
  519TIP3    H123116   0.602   1.762   0.672  0.0296 -0.8074 -0.4892
  519TIP3    H223117   0.732   1.820   0.724 -1.0465 -1.0355  2.6537
  520TIP3   OH223118   5.643   6.337   7.831  0.3614  0.6901  0.0028
  520TIP3    H123119   5.620   6.425   7.801  0.7629  1.2152  1.1640
  520TIP3    H223120   5.733   6.325   7.801  1.3270  1.8398  2.2077
  521TIP3   OH223121   5.168   5.467   0.537 -0.0609  0.0087  0.0287
  521TIP3    H123122   5.083   5.508   0.520  0.1215  0.1559 -0.5519
  521TIP3    H223123   5.230   5.540   0.535 -0.0177  0.0435  1.3520
  522TIP3   OH223124   2.394   6.376   1.075  0.5147  0.1142 -0.3079
  522TIP3    H123125   2.379   6.300   1.018 -0.6517  1.0577 -1.3269
  522TIP3    H223126   2.485   6.400   1.059  0.9520 -1.1266  0.1432
  523TIP3   OH223127   5.570   2.456   0.857 -0.4375  0.0108  0.5404
  523TIP3    H123128   5.559   2.497   0.771 -3.9232  0.2059  0.9208
  523TIP3    H223129   5.605   2.525   0.913 -0.9448  0.7948 -0.0870
  524TIP3   OH223130   6.394   4.429   2.146 -0.5787  0.2118 -0.3311
  524TIP3    H123131   6.405   4.483   2.225  1.7108 -0.0046 -0.4602
  524TIP3    H223132   6.409   4.340   2.175 -0.2654  0.0722 -0.9123
  525TIP3   OH223133   0.668   5.232   7.771  0.0144  0.7511 -0.6073
  525TIP3    H123134   0.669   5.187   7.855  1.1108 -2.1127 -1.9978
  525TIP3    H223135   0.580   5.216   7.736 -0.3893  1.8069 -0.1074
  526TIP3   OH223136   0.157   4.745   0.177  0.3698 -0.2431  0.4904
  526TIP3    H123137   0.143   4.828   0.132 -1.0749 -0.2201  0.9571
  526TIP3    H223138   0.125   4.679   0.116  1.1329 -0.4523  0.2942
  527TIP3   OH223139   0.500   5.599   0.690  0.1731  0.3512  0.2474
  527TIP3    H123140   0.435   5.620   0.622  0.4915  0.8657  0.0947
  527TIP3    H223141   0.449   5.589   0.770  0.0077  1.8082  0.3434
  528TIP3   OH223142   3.023   6.812   6.859  0.0098  0.0455  0.2085
  528TIP3    H123143   2.994   6.736   6.808  1.5244  0.9302 -2.1417
  528TIP3    H223144   3.112   6.829   6.828 -0.0057  2.3152  1.2170
  529TIP3   OH223145   2.462   6.421   6.838  0.3712  0.3383  0.4324
  529TIP3    H123146   2.377   6.413   6.882  0.4980 -0.6740  0.5306
  529TIP3    H223147   2.503   6.498   6.877  0.2299 -0.1971  1.6741
  530TIP3   OH223148   3.681   4.778   7.058 -0.6063 -0.4292  0.4119
  530TIP3    H123149   3.620   4.766   7.131 -1.4855 -0.0979 -0.2419
  530TIP3    H223150   3.647   4.854   7.011  0.2242 -0.3430 -0.0675
  531TIP3   OH223151   1.232   4.775   2.101  0.2109 -0.1366  0.0498
  531TIP3    H123152   1.156   4.730   2.137  1.3026 -1.3424  0.9202
  531TIP3    H223153   1.243   4.852   2.156 -0.1682 -0.1285  0.1192
  532TIP3   OH223154   5.666   2.901   6.664  0.3901  0.5718  0.4033
  532TIP3    H123155   5.615   2.943   6.733 -0.6258  0.5244 -0.2920
  532TIP3    H223156   5.621   2.818   6.648  0.4214  0.7139 -0.5199
  533TIP3   OH223157   5.968   2.178   2.317 -0.2887  0.3096 -0.4430
  533TIP3    H123158   5.957   2.258   2.368  1.1466 -0.1478  0.6599
  533TIP3    H223159   5.963   2.108   2.382  1.0151 -0.3284 -1.0014
  534TIP3   OH223160   0.179   0.367   2.530  0.0376 -0.5789 -0.4498
  534TIP3    H123161   0.229   0.447   2.515  0.0676 -0.2067  1.4039
  534TIP3    H223162   0.092   0.386   2.495 -0.9711  1.5733  2.7546
  535TIP3   OH223163   6.794   6.383   1.186 -0.2869 -0.2750  0.3624
  535TIP3    H123164   6.752   6.427   1.261  1.2325 -2.3125  2.5378
  535TIP3    H223165   6.731   6.317   1.159 -0.3013 -0.3910  0.6823
  536TIP3   OH223166   4.578   5.193   8.009  0.2284 -0.1136  0.2701
  536TIP3    H123167   4.552   5.103   7.990 -0.2854 -0.1500  1.1125
  536TIP3    H223168   4.545   5.243   7.934  1.2147 -0.7225 -0.5939
  537TIP3   OH223169   2.556   5.470   1.116 -0.3883  0.2003 -0.3606
  537TIP3    H123170   2.599   5.453   1.201 -0.6967 -1.4783 -0.5047
  537TIP3    H223171   2.623   5.515   1.064 -0.1338  1.0900  0.6954
  538TIP3   OH223172   3.214   0.848   0.785 -0.6738 -0.2633  0.0206
  538TIP3    H123173   3.307   0.860   0.769 -1.0096 -0.7956 -2.6711
  538TIP3    H223174   3.191   0.766   0.741 -2.6808  0.5818 -0.6357
  539TIP3   OH223175   4.166   4.471   7.950 -0.2232 -0.5689  0.2181
  539TIP3    H123176   4.200   4.409   7.885  2.4301 -0.6828  1.5805
  539TIP3    H223177   4.178   4.427   8.034 -1.5060  0.4571  0.9737
  540TIP3   OH223178   6.755   5.461   0.409  0.4883  0.3764  0.0604
  540TIP3    H123179   6.790   5.454   0.320 -0.8628  0.8921 -0.5475
  540TIP3    H223180   6.711   5.377   0.424  0.9420  0.1896  0.3458
  541TIP3   OH223181   5.935   6.790   0.789  0.4871 -0.0351 -0.4260
  541TIP3    H123182   5.990   6.715   0.767  2.0268  0.4266  1.5134
  541TIP3    H223183   5.880   6.759   0.861  1.0663  0.6349  0.3228
  542TIP3   OH223184   1.240   6.548   6.813 -0.3311 -0.3777 -0.3419
  542TIP3    H123185   1.180   6.479   6.784 -0.1317 -0.9622  0.5849
  542TIP3    H223186   1.188   6.628   6.811 -1.2072 -0.9084  0.6533
  543TIP3   OH223187   2.482   0.872   7.158 -0.2612 -0.0274  0.1322
  543TIP3    H123188   2.529   0.791   7.140  0.7819  0.7141 -0.5656
  543TIP3    H223189   2.543   0.924   7.210 -1.2623 -0.0315  1.3628
  544TIP3   OH223190   3.608   1.602   0.468 -0.3899  0.1197  0.4380
  544TIP3    H123191   3.680   1.559   0.421 -0.1925 -1.4574  2.0601
  544TIP3    H223192   3.530   1.576   0.420 -0.1531 -1.0814  0.6584
  545TIP3   OH223193   5.747   4.408   1.272  0.0072  0.3958 -0.5017
  545TIP3    H123194   5.725   4.389   1.363  2.0154 -0.7317 -0.1789
  545TIP3    H223195   5.761   4.503   1.270  1.7442  0.2382  0.8661
  546TIP3   OH223196   6.872   2.668   1.296 -0.4075  0.0373  0.6908
  546TIP3    H123197   6.923   2.607   1.244 -0.2010  1.8804 -1.4309
  546TIP3    H223198   6.781   2.653   1.270 -0.2396  1.4493 -0.8406
  547TIP3   OH223199   5.365   6.821   1.717 -0.3361 -0.4253 -0.2658
  547TIP3    H123200   5.446   6.806   1.668 -1.0519  0.6239 -1.8291
  547TIP3    H223201   5.342   6.912   1.697 -0.9753 -0.1322  1.5864
  548TIP3   OH223202   4.704   1.356   2.124  0.3747  0.4326 -0.6174
  548TIP3    H123203   4.679   1.268   2.098  1.2858  0.3424 -1.2116
  548TIP3    H223204   4.716   1.350   2.219  0.9801 -0.2249 -0.7304
  549TIP3   OH223205   0.431   6.856   1.297 -0.0667  0.1313 -0.4995
  549TIP3    H123206   0.450   6.835   1.206  4.4993  0.2304  0.1938
  549TIP3    H223207   0.455   6.949   1.306  0.9633 -0.2504  1.0546
  550TIP3   OH223208   0.908   1.324   6.406 -0.6984  0.4957  0.6583
  550TIP3    H123209   0.921   1.297   6.497  1.7669 -0.1507  0.1969
  550TIP3    H223210   0.907   1.243   6.356 -0.0575  0.9148 -0.0658
  551TIP3   OH223211   2.914   6.369   1.667 -0.3588 -0.2469 -0.5096
  551TIP3    H123212   2.825   6.353   1.635 -1.7527  2.3559  1.6905
  551TIP3    H223213   2.909   6.359   1.762  1.6769  0.0917 -0.3053
  552TIP3   OH223214   2.859   4.850   7.297  0.1429  0.1304 -0.2275
  552TIP3    H123215   2.908   4.793   7.237  0.9014 -0.8546  1.2804
  552TIP3    H223216   2.921   4.919   7.320  0.5948 -0.6565  1.0278
  553TIP3   OH223217   2.077   2.057   1.330  0.4807 -0.8149  0.3827
  553TIP3    H123218   2.020   1.992   1.372  0.4610  0.2158  2.0427
  553TIP3    H223219   2.154   2.007   1.304  1.9720 -1.1037  4.5931
  554TIP3   OH223220   1.754   4.777   7.671 -0.6702 -0.5258 -0.4115
  554TIP3    H123221   1.677   4.748   7.623 -0.8772  0.5986 -0.7731
  554TIP3    H223222   1.826   4.724   7.636 -1.6449 -3.6575  1.8848
  555TIP3   OH223223   4.386   1.783   8.071  0.0307 -0.2946 -0.5523
  555TIP3    H123224   4.373   1.833   8.152 -2.2414  1.5066 -1.9215
  555TIP3    H223225   4.479   1.793   8.052  0.7498 -1.1462  1.9872
  556TIP3   OH223226   4.068   1.966   0.490  0.0727  0.3752  0.2515
  556TIP3    H123227   4.120   2.024   0.546  1.6559  2.0744 -2.7414
  556TIP3    H223228   4.079   1.879   0.529  3.6466  0.9550  0.8670
  557TIP3   OH223229   3.117   1.552   6.137  0.4728  0.9473  0.1528
  557TIP3    H123230   3.086   1.464   6.115  2.4276  0.5775 -1.3467
  557TIP3    H223231   3.092   1.605   6.062  0.4085  1.4146  0.5015
  558TIP3   OH223232   6.073   3.928   8.034 -0.5318 -0.2368 -0.0903
  558TIP3    H123233   5.988   3.956   8.069 -1.1220 -0.2800 -1.4237
  558TIP3    H223234   6.135   3.994   8.066 -1.5087  1.3232 -1.2544
  559TIP3   OH223235   1.806   4.620   1.464 -0.2085  0.2785 -0.1491
  559TIP3    H123236   1.792   4.641   1.371 -2.3849  0.5622  0.1759
  559TIP3    H223237   1.885   4.566   1.465 -1.4028 -1.7394 -2.4918
  560TIP3   OH223238   1.206   2.268   7.982  0.3788 -0.1993  0.1918
  560TIP3    H123239   1.112   2.287   7.977  0.0648 -1.6357  0.4260
  560TIP3    H223240   1.240   2.295   7.896 -0.4014 -0.5136 -0.2240
  561TIP3   OH223241   5.163   1.813   1.552  0.1212 -0.6737 -0.3672
  561TIP3    H123242   5.248   1.801   1.595  0.6229 -0.4254 -1.2687
  561TIP3    H223243   5.148   1.908   1.554  0.0135 -0.6875 -0.4835
  562TIP3   OH223244   6.746   0.619   0.840 -0.2513  0.9251 -0.2224
  562TIP3    H123245   6.833   0.634   0.878 -0.4567  1.2053  0.1525
  562TIP3    H223246   6.754   0.538   0.790  0.4160  1.3206 -0.7733
  563TIP3   OH223247   6.375   6.552   8.243  0.1261  0.1418 -0.4525
  563TIP3    H123248   6.424   6.626   8.207  2.9796  0.1408  2.8826
  563TIP3    H223249   6.316   6.591   8.307 -1.2895 -0.2386 -1.4685
  564TIP3   OH223250   5.446   1.065   2.835  0.7614  0.1669 -0.2042
  564TIP3    H123251   5.409   1.129   2.895  2.2828  0.6564  0.2529
  564TIP3    H223252   5.540   1.086   2.832  1.4176 -2.3365  0.3461
  565TIP3   OH223253   4.349   0.485   7.471 -0.5996  1.1864 -0.2187
  565TIP3    H123254   4.294   0.431   7.414 -0.4630 -0.6169  1.2485
  565TIP3    H223255   4.299   0.566   7.484 -0.6979  1.5821 -2.7001
  566TIP3   OH223256   5.107   0.758   1.810  0.0832  0.0491 -0.4352
  566TIP3    H123257   5.012   0.765   1.808  0.0458 -0.3268 -0.0942
  566TIP3    H223258   5.124   0.665   1.823  0.4701  0.2852  0.9198
  567TIP3   OH223259   5.378   5.079   0.064 -0.6099 -0.7618 -0.2607
  567TIP3    H123260   5.339   5.146   0.120 -1.9304 -1.7521  0.0460
  567TIP3    H223261   5.456   5.122   0.027 -1.0944  0.7422  0.3624
  568TIP3   OH223262   4.464   3.167   1.815 -0.4328  0.2514 -0.1852
  568TIP3    H123263   4.428   3.090   1.770  0.4741  0.5987 -1.5460
  568TIP3    H223264   4.388   3.223   1.830 -0.8727 -0.2386 -0.5479
  569TIP3   OH223265   3.280   6.713   1.327  0.4065  0.0802 -0.2846
  569TIP3    H123266   3.271   6.697   1.421  3.2992 -1.0167 -0.0755
  569TIP3    H223267   3.290   6.807   1.318  0.5306  0.1490  0.5730
  570TIP3   OH223268   3.757   6.484   8.333  0.2916 -0.2407 -0.1389
  570TIP3    H123269   3.731   6.393   8.314  1.1545 -0.4745 -0.2477
  570TIP3    H223270   3.684   6.537   8.302  0.2593 -0.8306 -1.1266
  571TIP3   OH223271   3.726   2.420   8.458  0.1134 -0.3522  0.3022
  571TIP3    H123272   3.676   2.448   8.381 -0.8707  0.1835  1.1064
  571TIP3    H223273   3.790   2.491   8.471  1.1821 -1.0753 -0.7726
  572TIP3   OH223274   5.107   1.168   7.102 -0.3373 -0.8242  0.1712
  572TIP3    H123275   5.180   1.154   7.042  0.1998 -0.6491  0.7705
  572TIP3    H223276   5.101   1.263   7.111 -0.1786 -0.8553  0.6643
  573TIP3   OH223277   3.984   6.558   7.728  0.8071 -0.9907 -0.0244
  573TIP3    H123278   4.062   6.613   7.729  0.0097  0.1968 -0.6198
  573TIP3    H223279   4.013   6.474   7.764  2.1384 -0.2965  0.5814
  574TIP3   OH223280   1.030   0.414   2.065 -0.4079 -0.3301 -0.3618
  574TIP3    H123281   1.012   0.505   2.041  1.2182  0.9947  2.8054
  574TIP3    H223282   0.956   0.388   2.119  0.6894  0.4890  1.6816
  575TIP3   OH223283   1.044   0.195   8.110 -0.1419  0.1598 -0.6298
  575TIP3    H123284   1.092   0.132   8.056 -1.1973  0.6929 -2.2635
  575TIP3    H223285   0.953   0.189   8.080 -0.9139  0.0690  1.5131
  576TIP3   OH223286   3.827   2.440   7.687  0.6087 -1.0812 -0.1987
  576TIP3    H123287   3.746   2.472   7.648 -0.4319 -2.4442  0.7593
  576TIP3    H223288   3.893   2.506   7.664 -0.9954  0.6705 -0.0029
  577TIP3   OH223289   3.328   4.026   1.576  0.3290  0.4881  0.1538
  577TIP3    H123290   3.329   3.961   1.647 -3.2817 -1.1557 -1.0640
  577TIP3    H223291   3.347   3.974   1.497 -1.8823  0.9578 -0.7557
  578TIP3   OH223292   3.095   6.795   7.213 -0.5652  0.1466 -0.4576
  578TIP3    H123293   3.122   6.712   7.173 -0.2744 -0.0122  0.0565
  578TIP3    H223294   3.176   6.831   7.251 -0.6439  0.7847 -0.8867
  579TIP3   OH223295   0.208   6.821   7.108 -0.1041  0.5523  0.0730
  579TIP3    H123296   0.215   6.739   7.059 -4.8003 -1.1398  1.6890
  579TIP3    H223297   0.286   6.823   7.163  1.4280 -1.4187 -1.8434
  580TIP3   OH223298   0.818   1.975   1.650  0.5886 -0.4311 -0.2025
  580TIP3    H123299   0.765   1.940   1.578  1.2851  0.1797 -1.0188
  580TIP3    H223300   0.833   2.066   1.627  1.5417 -0.4564  0.2888
  581TIP3   OH223301   0.116   2.399   1.494  0.0418  0.5705 -0.2169
  581TIP3    H123302   0.026   2.371   1.509  0.1840  0.3647  0.2645
  581TIP3    H223303   0.121   2.414   1.399 -0.7710  1.5568 -0.1191
  582TIP3   OH223304   0.967   6.823   7.727  0.3078 -0.7069 -0.7680
  582TIP3    H123305   0.966   6.918   7.717 -1.0012 -0.6853 -0.5431
  582TIP3    H223306   0.988   6.790   7.640  1.8198 -0.2058 -0.6241
  583TIP3   OH223307   6.870   3.819   0.305  0.4281 -0.4836 -0.2667
  583TIP3    H123308   6.827   3.775   0.231 -2.3336 -0.1330  1.0060
  583TIP3    H223309   6.831   3.906   0.308  2.2046  0.3556  0.2574
  584TIP3   OH223310   4.387   6.279   7.899 -0.2281  0.0025 -0.2365
  584TIP3    H123311   4.416   6.292   7.989  2.3272  2.4665 -1.2827
  584TIP3    H223312   4.443   6.209   7.865  0.5433  0.7768 -0.5898
  585TIP3   OH223313   0.513   0.901   7.514 -0.3563 -0.3644 -0.0500
  585TIP3    H123314   0.436   0.874   7.563  0.1213 -2.8320 -0.5211
  585TIP3    H223315   0.513   0.845   7.436  2.2767 -0.9874  0.2925
  586TIP3   OH223316   0.686   6.758   0.095 -0.0305  0.9015  0.3277
  586TIP3    H123317   0.745   6.707   0.150 -1.2232  0.8696  1.6665
  586TIP3    H223318   0.739   6.785   0.020  0.8874 -1.4931  0.0385
  587TIP3   OH223319   0.875   6.860   0.411  0.0371  0.0236 -0.0668
  587TIP3    H123320   0.844   6.843   0.499 -1.3591 -1.7326 -0.8402
  587TIP3    H223321   0.955   6.913   0.423  0.2023 -0.6562  2.2281
  588TIP3   OH223322   0.909   6.178   1.537  0.2789 -0.3139  0.1118
  588TIP3    H123323   0.832   6.132   1.504  0.9314 -1.3453 -0.0400
  588TIP3    H223324   0.964   6.109   1.575  1.4893  0.2611 -0.5187
  589TIP3   OH223325   6.670   1.892   6.427  0.0959  0.5195 -1.0161
  589TIP3    H123326   6.588   1.869   6.382 -0.6203  1.8674 -0.4641
  589TIP3    H223327   6.738   1.847   6.377 -1.1155 -2.2971 -0.3477
  590TIP3   OH223328   2.166   2.840   6.954 -0.1623 -0.0639  0.4289
  590TIP3    H123329   2.126   2.778   6.893 -0.8232 -0.2244  1.0114
  590TIP3    H223330   2.131   2.925   6.928  0.0562 -0.0459  0.1869
  591TIP3   OH223331   1.286   4.540   1.831  0.1997  0.1644  0.1918
  591TIP3    H123332   1.220   4.598   1.796 -0.1518  0.0982  0.7229
  591TIP3    H223333   1.239   4.487   1.896  0.0517 -2.0563 -1.6170
  592TIP3   OH223334   6.165   5.457   1.729  0.2852  0.1757  0.5828
  592TIP3    H123335   6.164   5.408   1.811 -0.3299 -0.8069  0.0173
  592TIP3    H223336   6.257   5.465   1.706  0.3839 -2.3530 -0.2220
  593TIP3   OH223337   2.591   3.755   2.102 -0.1457 -0.6521  0.1293
  593TIP3    H123338   2.603   3.761   2.008  2.6993 -2.6492  0.2260
  593TIP3    H223339   2.643   3.827   2.138 -0.8452 -0.1761  0.1964
  594TIP3   OH223340   5.822   4.031   7.773  0.5933 -0.1647  0.0080
  594TIP3    H123341   5.856   4.081   7.848  1.0082 -1.6333  0.8280
  594TIP3    H223342   5.729   4.019   7.793  0.1216  1.5418 -0.9399
  595TIP3   OH223343   1.347   5.766   7.952  0.0254 -0.6856  0.7517
  595TIP3    H123344   1.286   5.705   7.994  1.5195 -0.9276  2.6972
  595TIP3    H223345   1.341   5.846   8.005 -0.9548  0.4853 -1.0045
  596TIP3   OH223346   2.050   0.599   7.205 -0.3944 -0.3937 -0.1440
  596TIP3    H123347   1.990   0.587   7.279  0.3144 -1.0243  0.3446
  596TIP3    H223348   2.134   0.623   7.245 -0.3938  0.8511 -0.8412
  597TIP3   OH223349   2.500   5.855   7.340  0.2742 -0.2522 -0.4632
  597TIP3    H123350   2.520   5.947   7.356 -0.5757 -0.2427  0.7059
  597TIP3    H223351   2.584   5.810   7.352  0.2935  0.1399  1.1781
  598TIP3   OH223352   1.656   3.838   1.637  0.2340 -0.2339  0.0689
  598TIP3    H123353   1.588   3.877   1.693  0.4086 -1.3244  1.1008
  598TIP3    H223354   1.638   3.872   1.550 -1.2076  0.0769  0.4546
  599TIP3   OH223355   4.569   6.170   7.730 -0.6207 -0.1115 -0.2721
  599TIP3    H123356   4.629   6.154   7.803 -1.2624 -1.0937  0.0621
  599TIP3    H223357   4.575   6.264   7.714  0.6578 -0.1247  0.0479
  600TIP3   OH223358   2.438   0.007   8.433 -0.0446 -0.2678 -0.8797
  600TIP3    H123359   2.410  -0.010   8.523 -1.0984  0.2317 -1.0925
  600TIP3    H223360   2.517   0.060   8.441  0.0035 -0.4363 -0.2463
  601TIP3   OH223361   2.233   3.274   1.509 -0.3036 -0.3037  0.4826
  601TIP3    H123362   2.273   3.336   1.448 -0.2219 -0.7003  0.1243
  601TIP3    H223363   2.144   3.308   1.522 -0.7926 -0.9342 -0.9419
  602TIP3   OH223364   1.639   2.211   6.294  0.5865 -0.6300 -0.4867
  602TIP3    H123365   1.640   2.299   6.255  0.5422 -0.6198 -0.4646
  602TIP3    H223366   1.616   2.225   6.386  2.5564 -0.4715  0.0230
  603TIP3   OH223367   1.434   5.523   2.076 -0.1524 -0.2532  0.4756
  603TIP3    H123368   1.394   5.550   1.993  1.4147  1.7197  0.2756
  603TIP3    H223369   1.429   5.601   2.131  0.5109 -0.9561  1.5572
  604TIP3   OH223370   2.501   4.020   7.904  0.5526  0.0444 -0.1904
  604TIP3    H123371   2.558   4.089   7.870  3.0015 -0.1378  3.0237
  604TIP3    H223372   2.448   4.064   7.971  2.3950 -1.0610  2.1476
  605TIP3   OH223373   1.372   6.021   8.094 -0.1622 -0.3816  0.4840
  605TIP3    H123374   1.410   6.110   8.096 -0.1543 -0.3945  1.2242
  605TIP3    H223375   1.321   6.015   8.175  0.9053 -1.5056  1.1201
  606TIP3   OH223376   3.418   6.750   7.239 -0.3257  0.2523  0.5118
  606TIP3    H123377   3.499   6.706   7.215 -0.4476 -0.0618  0.6681
  606TIP3    H223378   3.379   6.693   7.305 -1.7583 -0.7385 -1.1240
  607TIP3   OH223379   6.442   5.494   1.715 -0.0503  0.0002  0.2087
  607TIP3    H123380   6.485   5.410   1.731 -1.0747 -0.7383 -0.7349
  607TIP3    H223381   6.514   5.557   1.707  0.7042 -0.6112  1.7130
  608TIP3   OH223382   4.553   0.970   0.699 -0.2043  0.1721  0.7891
  608TIP3    H123383   4.592   1.057   0.686 -1.1445  0.4907 -0.0051
  608TIP3    H223384   4.610   0.928   0.764 -0.6704  1.9849  2.4717
  609TIP3   OH223385   5.250   5.299   0.871 -0.4793  0.3736  0.1662
  609TIP3    H123386   5.258   5.247   0.952 -1.1627 -0.0721 -0.0476
  609TIP3    H223387   5.274   5.388   0.897  0.2425  0.0486  0.6466
  610TIP3   OH223388   3.075   0.154   1.439 -0.3637  0.8498 -0.9015
  610TIP3    H123389   3.083   0.099   1.517  1.7955 -0.3601 -1.8792
  610TIP3    H223390   3.041   0.095   1.371  1.4843  0.7737 -1.8331
  611TIP3   OH223391   3.441   1.000   0.426 -0.7461  0.1637 -0.4908
  611TIP3    H123392   3.378   0.985   0.497 -0.9281 -1.6501 -0.9967
  611TIP3    H223393   3.389   1.041   0.357 -1.1952 -0.5247 -0.5743
  612TIP3   OH223394   6.690   2.590   1.555  0.5387 -0.4838 -0.6854
  612TIP3    H123395   6.653   2.646   1.486  0.9729  1.2591  0.4385
  612TIP3    H223396   6.630   2.599   1.628  1.7215  0.2119  0.2317
  613TIP3   OH223397   6.814   1.503   0.851  0.5807  0.3781  0.7483
  613TIP3    H123398   6.879   1.571   0.836  0.6354  0.2178  0.2438
  613TIP3    H223399   6.844   1.457   0.929  1.4516 -0.1482  0.1082
  614TIP3   OH223400   0.311   1.987   6.720 -0.5046  0.2603 -0.1017
  614TIP3    H123401   0.354   1.976   6.635 -1.7733  0.1842 -0.7583
  614TIP3    H223402   0.272   1.901   6.738  0.5860 -0.0108  1.0450
  615TIP3   OH223403   6.127   6.121   1.088 -0.1162  0.1334  0.1915
  615TIP3    H123404   6.219   6.142   1.102  0.0550 -0.4317 -0.0546
  615TIP3    H223405   6.120   6.029   1.114 -0.0172 -0.6673 -2.4161
  616TIP3   OH223406   2.041   6.183   1.103  0.1623 -0.2098 -0.0947
  616TIP3    H123407   2.114   6.198   1.044  2.4801  0.6041  2.7732
  616TIP3    H223408   2.077   6.131   1.174 -2.6501 -1.7186  0.3979
  617TIP3   OH223409   4.182   0.365   1.037 -0.2822 -0.5441 -0.3166
  617TIP3    H123410   4.191   0.403   0.949  1.0844 -0.1987 -0.0368
  617TIP3    H223411   4.102   0.405   1.071  0.1647  0.7508 -0.7052
  618TIP3   OH223412   2.210   4.038   2.514  0.2149  0.3696 -0.6378
  618TIP3    H123413   2.225   4.075   2.601  2.5022  1.1344 -1.3007
  618TIP3    H223414   2.230   3.945   2.524  0.3753  0.4366 -0.3107
  619TIP3   OH223415   5.242   0.509   1.921 -0.4275 -0.4737 -0.5588
  619TIP3    H123416   5.288   0.520   2.004  0.0389  0.5834 -0.9428
  619TIP3    H223417   5.308   0.527   1.854 -1.3760  1.1668 -1.1229
  620TIP3   OH223418   0.612   2.650   0.992  0.3427  0.2952  0.1856
  620TIP3    H123419   0.609   2.563   0.952 -2.6747 -1.0864  2.9148
  620TIP3    H223420   0.689   2.648   1.048  0.2835 -0.7045  0.2572
  621TIP3   OH223421   2.559   1.103   1.370 -0.1206  0.5029 -0.2280
  621TIP3    H123422   2.539   1.009   1.370 -1.2949  0.7333 -1.2363
  621TIP3    H223423   2.639   1.110   1.422  2.2751 -1.5849 -3.2654
  622TIP3   OH223424   3.189   5.580   1.168 -0.1040  0.1774  0.2577
  622TIP3    H123425   3.255   5.586   1.100 -0.8660  0.0664 -0.5016
  622TIP3    H223426   3.234   5.611   1.247  0.5328  1.1846 -0.4679
  623TIP3   OH223427   2.911   1.566   1.610 -0.4089 -0.1568  0.3338
  623TIP3    H123428   2.843   1.523   1.661  0.4328  0.0827  1.7161
  623TIP3    H223429   2.993   1.538   1.651  0.2376  1.0369 -0.0950
  624TIP3   OH223430   6.076   3.107   0.999  0.3012 -0.4309  0.6365
  624TIP3    H123431   6.123   3.139   1.076  0.2916  0.8519  0.1354
  624TIP3    H223432   6.027   3.032   1.031  0.4620 -0.0590  1.8388
  625TIP3   OH223433   5.253   1.668   1.148 -0.6215  0.7561  0.6384
  625TIP3    H123434   5.251   1.760   1.176 -0.8588  0.8721  0.2513
  625TIP3    H223435   5.239   1.672   1.053  0.2368  0.3773  0.4880
  626TIP3   OH223436   5.468   5.495   0.835  0.5773 -0.4659 -0.6552
  626TIP3    H123437   5.500   5.543   0.911  0.1973  0.2632 -0.9411
  626TIP3    H223438   5.540   5.437   0.811  1.0422 -0.0562 -0.2808
  627TIP3   OH223439   6.086   3.849   0.260 -0.0610 -0.1709  0.6519
  627TIP3    H123440   6.115   3.940   0.258  0.5600 -0.3332  1.5887
  627TIP3    H223441   6.012   3.846   0.200  0.7026  0.6667 -0.3617
  628TIP3   OH223442   5.417   5.171   0.686  0.3413  0.1515  0.1110
  628TIP3    H123443   5.462   5.105   0.738  0.0099 -0.7386 -0.7129
  628TIP3    H223444   5.375   5.227   0.751 -1.2480 -1.7705  0.8569
  629TIP3   OH223445   6.822   3.071   1.186 -0.3297  0.0886 -0.7190
  629TIP3    H123446   6.778   3.149   1.152 -1.2281  0.0562  0.3159
  629TIP3    H223447   6.915   3.091   1.177 -0.5331  1.4386 -0.1520
  630TIP3   OH223448   3.021   5.281   8.163 -0.5117  0.4516  0.1956
  630TIP3    H123449   3.113   5.255   8.167 -0.1969  1.3535 -0.7378
  630TIP3    H223450   2.978   5.214   8.110 -0.5533 -0.3508  1.2082
  631TIP3   OH223451   0.615   0.259   7.679 -0.0497 -0.5065 -0.3258
  631TIP3    H123452   0.538   0.251   7.623  0.8249  1.6200 -1.9710
  631TIP3    H223453   0.584   0.304   7.757 -1.1181 -2.7858  0.6647
  632TIP3   OH223454   4.072   6.832   0.218  0.1426 -0.5876 -0.0670
  632TIP3    H123455   4.001   6.809   0.278 -0.3394 -1.7045 -1.0519
  632TIP3    H223456   4.057   6.925   0.198 -1.8923 -1.1364 -1.3456
  633TIP3   OH223457   2.189   0.888   6.369  0.1747  0.3011  0.0797
  633TIP3    H123458   2.128   0.850   6.306 -0.6790  2.7664 -0.7157
  633TIP3    H223459   2.169   0.844   6.452 -0.6653 -0.9892 -0.7727
  634TIP3   OH223460   1.245   5.626   0.485  0.0005 -0.1770  0.0392
  634TIP3    H123461   1.257   5.542   0.528 -0.9353  1.5376  4.0993
  634TIP3    H223462   1.334   5.657   0.466  0.4360 -1.1150  0.5081
  635TIP3   OH223463   6.020   5.067   2.234  0.4578 -0.0572  0.3457
  635TIP3    H123464   6.092   5.114   2.192 -0.6279  1.0667 -0.3084
  635TIP3    H223465   6.036   4.975   2.212  1.7669  0.1414  0.3483
  636TIP3   OH223466   2.219   1.213   0.878 -0.1691 -0.9983 -0.0578
  636TIP3    H123467   2.186   1.208   0.788 -0.9257  0.0400  0.1380
  636TIP3    H223468   2.150   1.260   0.926  0.3994 -1.1896  0.9743
  637TIP3   OH223469   6.228   0.344   0.187  0.1620  0.1344  0.1745
  637TIP3    H123470   6.239   0.439   0.194  0.4436  0.0702  0.7181
  637TIP3    H223471   6.314   0.309   0.210  0.1002 -0.2472 -0.1781
  638TIP3   OH223472   1.611   1.854   2.084 -0.2938 -0.1106  0.8553
  638TIP3    H123473   1.610   1.770   2.038 -2.0795  0.6153 -0.5534
  638TIP3    H223474   1.605   1.831   2.177  0.2536 -1.5368  0.5604
  639TIP3   OH223475   1.994   6.534   2.101 -0.2075 -0.7585  0.5874
  639TIP3    H123476   2.012   6.495   2.186 -3.3975  2.7921  3.2808
  639TIP3    H223477   1.898   6.531   2.093 -0.1126  0.3150 -2.1927
  640TIP3   OH223478   0.570   2.852   0.177 -0.2359 -0.1837  0.0168
  640TIP3    H123479   0.555   2.794   0.252  2.1146  1.1694  1.6381
  640TIP3    H223480   0.625   2.801   0.117  0.8780 -0.0623  0.9111
  641TIP3   OH223481   0.112   5.856   2.163 -0.2002 -0.6717 -0.0657
  641TIP3    H123482   0.160   5.893   2.237  0.4604  0.4309 -1.0133
  641TIP3    H223483   0.034   5.912   2.155  0.0589 -0.3797 -0.5935
  642TIP3   OH223484   3.648   0.471   1.042 -0.8482 -0.3418  0.0749
  642TIP3    H123485   3.665   0.533   1.113 -0.7587 -0.1954 -0.0729
  642TIP3    H223486   3.597   0.402   1.083  0.1810 -0.8480  0.5615
  643TIP3   OH223487   6.678   0.954   1.167 -0.1085  0.7750  0.0343
  643TIP3    H123488   6.665   1.033   1.219 -1.9115  1.6790 -1.6542
  643TIP3    H223489   6.768   0.960   1.135  0.3377  1.2310  1.3332
  644TIP3   OH223490   0.870   0.637   2.005 -0.4390  0.1614 -0.4256
  644TIP3    H123491   0.820   0.683   2.072 -2.1022 -0.0612 -1.4565
  644TIP3    H223492   0.823   0.654   1.924 -0.3372 -2.2060 -1.0585
  645TIP3   OH223493   6.568   0.497   7.849  0.8266  0.9645 -0.3698
  645TIP3    H123494   6.506   0.424   7.852  0.3434  1.4041  0.6813
  645TIP3    H223495   6.530   0.557   7.785 -0.0808  1.4334  0.5861
  646TIP3   OH223496   2.323   3.637   1.687 -0.6835 -0.4436 -0.1426
  646TIP3    H123497   2.414   3.662   1.675 -0.8264  0.7204  0.9113
  646TIP3    H223498   2.316   3.615   1.780 -0.7812 -3.7400 -0.7920
  647TIP3   OH223499   4.376   3.640   0.570  0.0743 -0.1566  0.0379
  647TIP3    H123500   4.389   3.678   0.483 -2.6939  2.0154  0.4324
  647TIP3    H223501   4.464   3.635   0.608  0.9582  3.3742 -1.1586
  648TIP3   OH223502   0.630   6.571   1.026 -0.9579 -0.2468 -0.4271
  648TIP3    H123503   0.639   6.487   1.072  0.3432 -1.5842 -2.8713
  648TIP3    H223504   0.642   6.548   0.934 -1.5045  2.5373 -1.2806
  649TIP3   OH223505   2.663   4.487   6.710  0.0653 -0.1587  0.7369
  649TIP3    H123506   2.632   4.505   6.622  0.3328 -0.2816  0.6155
  649TIP3    H223507   2.598   4.428   6.747  0.1435 -0.4002  0.4922
  650TIP3   OH223508   2.742   1.033   0.369 -0.3024 -0.0339  0.3947
  650TIP3    H123509   2.824   0.991   0.344 -0.5513  0.2651 -0.9768
  650TIP3    H223510   2.719   0.993   0.453  1.5844  0.3697  1.1378
  651TIP3   OH223511   6.768   5.159   1.775  0.3934  0.1438  0.5023
  651TIP3    H123512   6.752   5.201   1.860 -0.3857  1.8997 -0.4545
  651TIP3    H223513   6.854   5.192   1.748  0.3332  0.1220  0.2885
  652TIP3   OH223514   3.174   2.604   1.300  0.2736  0.1279 -0.4798
  652TIP3    H123515   3.266   2.579   1.289  0.4150  0.8486 -1.0447
  652TIP3    H223516   3.146   2.560   1.381  2.0630  2.4618  1.5766
  653TIP3   OH223517   2.114   3.117   8.096 -0.1308 -0.3748 -0.8167
  653TIP3    H123518   2.063   3.046   8.058 -0.0731 -2.3447  2.4109
  653TIP3    H223519   2.068   3.139   8.176  3.6010 -1.9824  2.0703
  654TIP3   OH223520   2.680   3.551   0.268  0.7306  1.0970 -0.6382
  654TIP3    H123521   2.758   3.582   0.223  1.3975  1.9225  1.0330
  654TIP3    H223522   2.607   3.587   0.217  1.3259 -0.9126 -3.0984
  655TIP3   OH223523   0.669   3.785   7.450  0.2391  0.1413 -0.3460
  655TIP3    H123524   0.699   3.876   7.443 -0.8364  0.7219  1.6896
  655TIP3    H223525   0.579   3.792   7.482  0.1275 -1.6490 -0.1766
  656TIP3   OH223526   6.304   3.021   6.768  0.1023 -0.1369  0.0515
  656TIP3    H123527   6.398   3.027   6.750 -0.1035  0.7932 -0.8823
  656TIP3    H223528   6.288   3.091   6.832 -0.0036 -0.0518 -0.0667
  657TIP3   OH223529   2.215   1.179   8.008 -0.3052  0.5989  0.6365
  657TIP3    H123530   2.184   1.115   8.073  1.2099 -2.8027 -1.7223
  657TIP3    H223531   2.303   1.201   8.036  0.4650 -1.1070 -0.3115
  658TIP3   OH223532   3.881   0.766   2.409 -0.0881  0.3301  0.1863
  658TIP3    H123533   3.966   0.808   2.421  0.3313 -0.0177 -1.2943
  658TIP3    H223534   3.894   0.677   2.442 -0.3788  0.7626  1.4820
  659TIP3   OH223535   0.521   1.324   1.801 -0.1634  0.8834 -0.3609
  659TIP3    H123536   0.544   1.357   1.888 -0.1433  0.6689 -0.2834
  659TIP3    H223537   0.605   1.302   1.761 -0.2609 -0.9580  0.3422
  660TIP3   OH223538   4.582   4.443   1.134  0.3460 -0.1305  0.1381
  660TIP3    H123539   4.631   4.524   1.143  0.2244 -0.0778  0.3283
  660TIP3    H223540   4.645   4.374   1.156  0.4358 -0.0860  0.0206
  661TIP3   OH223541   2.511   1.913   8.184  0.1826  0.4536  0.2474
  661TIP3    H123542   2.572   1.946   8.250 -0.6646 -1.0562  1.9029
  661TIP3    H223543   2.426   1.913   8.229 -0.2802 -1.3577 -0.5386
  662TIP3   OH223544   2.835   5.532   8.663  0.0461  0.0386  0.3995
  662TIP3    H123545   2.873   5.446   8.682 -0.5062 -0.6630 -1.3793
  662TIP3    H223546   2.910   5.585   8.633  0.4364  0.3011  1.7731
  663TIP3   OH223547   4.075   2.876   6.517 -0.3435 -0.2733  0.0288
  663TIP3    H123548   4.030   2.932   6.454  0.1926 -0.4314 -0.4978
  663TIP3    H223549   4.012   2.806   6.536 -1.4991  1.1065  1.6037
  664TIP3   OH223550   0.182   5.635   0.019  0.0846  0.4410 -0.1268
  664TIP3    H123551   0.158   5.637  -0.074 -1.2409  0.9941  0.2075
  664TIP3    H223552   0.194   5.727   0.042  0.4982  0.2979  0.2428
  665TIP3   OH223553   4.109   2.477   8.301 -0.1866  0.1639 -0.1779
  665TIP3    H123554   4.199   2.503   8.324 -0.0480 -0.1809 -0.3352
  665TIP3    H223555   4.054   2.528   8.361  0.1525 -0.2841  0.5230
  666TIP3   OH223556   2.015   5.151   5.924  0.7883 -0.7119 -0.5454
  666TIP3    H123557   2.087   5.210   5.900  1.6415 -1.8512 -0.8743
  666TIP3    H223558   2.044   5.109   6.005 -0.8091  0.9535  0.9874
  667TIP3   OH223559   3.142   3.559   7.406 -0.6919 -0.0479  0.1967
  667TIP3    H123560   3.234   3.566   7.381 -0.3673  0.1221  1.3618
  667TIP3    H223561   3.138   3.479   7.460 -0.9012  0.7690  1.4261
  668TIP3   OH223562   5.898   1.734   1.165  0.5977 -0.4924  0.1034
  668TIP3    H123563   5.978   1.690   1.195  1.0846 -0.5976 -1.2599
  668TIP3    H223564   5.923   1.774   1.081 -0.3845  0.7051  0.3441
  669TIP3   OH223565   3.051   6.632   1.864 -0.1503 -0.3276 -0.0097
  669TIP3    H123566   3.019   6.659   1.950 -2.1762  0.5699 -0.9804
  669TIP3    H223567   3.146   6.644   1.868 -0.3678  1.1140  1.6110
  670TIP3   OH223568   4.930   1.970   2.491 -0.0279 -0.2394  0.3196
  670TIP3    H123569   4.846   2.009   2.467  0.7456  0.3755 -1.6127
  670TIP3    H223570   4.911   1.918   2.569 -1.9577  0.7564  0.5777
  671TIP3   OH223571   3.531   0.497   7.800  0.3800  0.1900 -0.3837
  671TIP3    H123572   3.562   0.407   7.788  0.0699  0.2817 -2.2418
  671TIP3    H223573   3.610   0.551   7.795  0.4641  0.0773 -0.2474
  672TIP3   OH223574   1.643   2.786   7.505 -0.4272  0.2849 -0.1874
  672TIP3    H123575   1.642   2.732   7.584 -0.7979 -0.3195 -0.6029
  672TIP3    H223576   1.718   2.753   7.454  0.4639  1.3626  0.3716
  673TIP3   OH223577   2.064   6.395   2.334  0.0675 -0.8467  0.1035
  673TIP3    H123578   2.129   6.457   2.366 -0.2221 -0.1360 -0.6467
  673TIP3    H223579   2.107   6.310   2.339  0.2297 -0.6929  1.8022
  674TIP3   OH223580   1.013   0.616   7.608  0.7192 -0.2044 -0.9877
  674TIP3    H123581   1.014   0.576   7.695  0.7323 -1.3060 -1.4716
  674TIP3    H223582   0.930   0.664   7.604  1.6313  1.6138  0.3615
  675TIP3   OH223583   4.226   4.817   7.627  0.6983 -0.1270  0.3965
  675TIP3    H123584   4.249   4.852   7.713  1.4436  0.5949 -0.0778
  675TIP3    H223585   4.131   4.829   7.620  0.6568 -0.0489  1.0543
  676TIP3   OH223586   4.926   4.949   1.407  0.3178  0.6501  0.2401
  676TIP3    H123587   4.913   4.926   1.315 -0.5145 -0.2252  0.5457
  676TIP3    H223588   4.838   4.944   1.445  0.4010  2.5017  0.7777
  677TIP3   OH223589   3.636   5.861   7.830 -0.4194  0.7040 -0.1228
  677TIP3    H123590   3.650   5.770   7.804 -0.1525  0.4013  1.0142
  677TIP3    H223591   3.668   5.866   7.920 -5.2013  0.5812  1.8935
  678TIP3   OH223592   1.602   3.700   0.127  0.2149  0.3308 -0.2465
  678TIP3    H123593   1.548   3.675   0.203  0.4008  1.6693  0.3489
  678TIP3    H223594   1.581   3.634   0.061 -3.8723  1.9328 -0.8702
  679TIP3   OH223595   2.697   6.787   7.782 -0.0360  0.4153 -0.2793
  679TIP3    H123596   2.661   6.756   7.699 -0.8972  2.4575 -0.7193
  679TIP3    H223597   2.789   6.759   7.779 -0.5357 -1.3434 -0.9454
  680TIP3   OH223598   0.644   5.403   0.214 -0.1678  0.2526  0.3053
  680TIP3    H123599   0.551   5.421   0.227 -0.2666 -0.5187  0.7874
  680TIP3    H223600   0.680   5.398   0.303 -0.2511 -2.2355  0.2839
  681TIP3   OH223601   0.793   1.765   2.527  0.0325 -0.6285 -0.3116
  681TIP3    H123602   0.764   1.676   2.545 -1.8141 -0.4641 -2.0362
  681TIP3    H223603   0.767   1.815   2.604  1.3951 -1.5906  0.8185
  682TIP3   OH223604   6.424   4.590   1.412  0.7124  0.0161  0.0423
  682TIP3    H123605   6.406   4.509   1.366 -0.1871  0.7717 -0.9664
  682TIP3    H223606   6.495   4.568   1.473  1.3603 -1.1960 -1.1194
  683TIP3   OH223607   4.960   5.709   1.917 -0.5640  0.2870  0.0704
  683TIP3    H123608   5.017   5.785   1.905  0.0505 -0.2222 -0.3057
  683TIP3    H223609   4.992   5.645   1.853 -0.4462 -0.6448  1.0206
  684TIP3   OH223610   4.328   4.071   8.164 -0.5258  0.4175  0.1745
  684TIP3    H123611   4.243   4.113   8.175  0.7509  2.5261  2.9669
  684TIP3    H223612   4.369   4.118   8.091 -1.5305 -0.3262 -0.9002
  685TIP3   OH223613   6.087   3.101   1.542 -0.8907  0.0630 -0.1351
  685TIP3    H123614   6.167   3.147   1.568 -0.2186 -1.5474  0.8207
  685TIP3    H223615   6.117   3.034   1.480 -1.2879 -1.2206  0.9916
  686TIP3   OH223616   0.039   2.342   7.595 -0.3436 -0.1737 -0.4824
  686TIP3    H123617  -0.027   2.407   7.568 -1.4138 -1.0378 -0.0187
  686TIP3    H223618   0.089   2.325   7.515  0.0029  1.2512 -0.6067
  687TIP3   OH223619   0.694   5.985   1.478 -0.3716 -0.1258 -0.2134
  687TIP3    H123620   0.722   5.949   1.562  0.3716  1.8239  0.4205
  687TIP3    H223621   0.606   6.019   1.494  0.3863  1.7115  0.2777
  688TIP3   OH223622   4.401   0.083   8.021  0.2005 -0.1462 -0.7439
  688TIP3    H123623   4.397   0.150   8.090  0.1533  0.6152 -1.4709
  688TIP3    H223624   4.323   0.098   7.969 -0.0724 -1.1075 -0.6240
  689TIP3   OH223625   5.637   3.597   0.082  0.0390  0.3923 -0.0665
  689TIP3    H123626   5.732   3.590   0.092  0.4541  1.1542 -2.7526
  689TIP3    H223627   5.619   3.560  -0.004 -2.6196 -2.8927  1.7043
  690TIP3   OH223628   6.746   0.460   0.367 -0.1097  0.2249 -0.0246
  690TIP3    H123629   6.771   0.374   0.334 -2.3974 -0.1148 -1.0972
  690TIP3    H223630   6.776   0.521   0.300  0.0378  0.0870 -0.0850
  691TIP3   OH223631   3.599   5.003   8.056  0.1965  0.5481 -0.6259
  691TIP3    H123632   3.512   4.965   8.049  0.7316 -0.5791 -1.4713
  691TIP3    H223633   3.585   5.096   8.038 -0.8713  0.4470 -0.4056
  692TIP3   OH223634   1.330   0.588   1.582 -0.1935 -0.2073 -0.0856
  692TIP3    H123635   1.322   0.556   1.672 -0.4633 -1.6085 -0.5928
  692TIP3    H223636   1.359   0.512   1.532  1.1804  0.8696 -0.9845
  693TIP3   OH223637   1.960   5.459   0.922  0.7683  0.1479  0.2778
  693TIP3    H123638   2.054   5.462   0.938  0.5024  1.2018  1.9163
  693TIP3    H223639   1.925   5.414   0.999 -0.1931  1.1796  0.4712
  694TIP3   OH223640   4.113   2.752   8.417  0.2061 -0.4394  0.2795
  694TIP3    H123641   4.192   2.703   8.439  0.1335 -0.6659  0.0419
  694TIP3    H223642   4.117   2.830   8.473  1.1684  0.1165 -0.5242
  695TIP3   OH223643   3.588   2.845   7.452  0.5435 -0.6858  0.2183
  695TIP3    H123644   3.642   2.774   7.417  1.4681  0.0134  0.1866
  695TIP3    H223645   3.508   2.841   7.400  1.2975 -0.6060 -1.0073
  696TIP3   OH223646   0.970   1.016   0.480 -0.4422 -0.3210  0.7615
  696TIP3    H123647   0.958   0.989   0.389 -0.3776  0.5326  0.4909
  696TIP3    H223648   0.892   1.069   0.501  0.7859  1.8021  0.2959
  697TIP3   OH223649   1.871   4.608   1.829 -0.4611  0.1156 -0.3633
  697TIP3    H123650   1.888   4.521   1.793 -1.4996 -0.2548  0.0125
  697TIP3    H223651   1.784   4.631   1.797 -0.3723  0.8407 -0.1135
  698TIP3   OH223652   5.820   1.460   1.861 -0.2614  0.0624  0.2912
  698TIP3    H123653   5.750   1.419   1.811 -1.5307 -0.3224  2.2598
  698TIP3    H223654   5.891   1.396   1.861 -0.4889 -0.1962 -0.4480
  699TIP3   OH223655   5.053   2.092   8.390 -0.0770 -0.0944  1.0114
  699TIP3    H123656   4.989   2.134   8.331  1.4302  0.1631 -0.5115
  699TIP3    H223657   5.114   2.162   8.412  0.5988 -0.7127  1.1173
  700TIP3   OH223658   2.901   3.098   1.172  0.2069 -0.6214 -0.1298
  700TIP3    H123659   2.878   3.077   1.081  0.9789 -0.1387 -0.4570
  700TIP3    H223660   2.837   3.164   1.198 -0.1867 -0.9618 -0.2332
  701TIP3   OH223661   4.913   6.051   6.628  0.3169  1.1124  0.9403
  701TIP3    H123662   4.901   6.055   6.533 -1.5046  0.0046  1.0705
  701TIP3    H223663   4.878   6.134   6.660 -0.3203  0.9298  0.7326
  702TIP3   OH223664   3.508   4.424   8.028  0.1524 -0.5513  0.1632
  702TIP3    H123665   3.485   4.508   7.988  1.1007 -0.6684 -0.6692
  702TIP3    H223666   3.434   4.367   8.006  0.4111 -0.4674 -1.0044
  703TIP3   OH223667   1.900   0.919   7.956  0.0926  0.5389 -0.3530
  703TIP3    H123668   1.938   0.970   8.027 -0.1067  0.5461 -0.2507
  703TIP3    H223669   1.974   0.896   7.900  0.4914 -0.7099  0.6324
  704TIP3   OH223670   0.943   6.529   7.209  0.0407  0.0023  0.1456
  704TIP3    H123671   1.033   6.556   7.225 -0.0225  0.4272 -0.1908
  704TIP3    H223672   0.926   6.554   7.118  0.1963 -1.7962 -0.4347
  705TIP3   OH223673   4.645   2.986   7.911 -0.5915  0.0192 -0.4185
  705TIP3    H123674   4.720   2.950   7.863  0.3155  1.2472  0.0156
  705TIP3    H223675   4.594   3.032   7.845 -0.3012  0.1989 -0.5223
  706TIP3   OH223676   4.135   2.828   7.277  0.2125 -0.0532 -0.1691
  706TIP3    H123677   4.228   2.809   7.287  0.3733  0.8148  0.0760
  706TIP3    H223678   4.103   2.759   7.218  0.8032 -0.9047  0.4746
  707TIP3   OH223679   4.355   3.204   0.970 -0.0592  0.9511  0.1747
  707TIP3    H123680   4.312   3.287   0.946  0.0096  0.1919 -2.9461
  707TIP3    H223681   4.440   3.208   0.928 -0.0889 -0.7359 -0.0926
  708TIP3   OH223682   6.128   0.536   7.866  0.0025  0.2770 -0.2621
  708TIP3    H123683   6.052   0.504   7.913  0.0258 -0.7423 -0.8904
  708TIP3    H223684   6.199   0.534   7.931 -0.1619 -0.2814 -0.0893
  709TIP3   OH223685   0.688   0.399   0.046  0.4383 -0.3876  0.3207
  709TIP3    H123686   0.731   0.449   0.116  1.8351  0.0721 -0.8263
  709TIP3    H223687   0.611   0.452   0.023  1.3122  0.7207 -0.1436
  710TIP3   OH223688   1.362   5.236   0.096 -0.1006  0.0893 -0.2931
  710TIP3    H123689   1.378   5.328   0.118  0.8215 -0.3073  0.8310
  710TIP3    H223690   1.316   5.239   0.012 -0.5147  1.5842 -0.0469
  711TIP3   OH223691   4.582   1.106   1.790 -0.1626 -0.3510 -0.4174
  711TIP3    H123692   4.661   1.115   1.736  0.0702 -1.9102 -0.4073
  711TIP3    H223693   4.523   1.174   1.758  1.8220  2.1488  0.8444
  712TIP3   OH223694   5.804   6.481   8.039 -0.4679  0.5304  0.2976
  712TIP3    H123695   5.869   6.415   8.016  1.4011  2.5028 -0.4218
  712TIP3    H223696   5.807   6.543   7.966 -2.7049  1.0443  0.5761
  713TIP3   OH223697   4.854   0.308   1.664  0.0122  0.1061  0.1029
  713TIP3    H123698   4.799   0.235   1.693 -1.1708  1.0159  0.2457
  713TIP3    H223699   4.823   0.328   1.576  0.3263  0.4441  0.0663
  714TIP3   OH223700   4.117   0.185   1.316 -0.2999 -0.3415  0.1245
  714TIP3    H123701   4.028   0.216   1.301  0.1500  1.1916  0.4550
  714TIP3    H223702   4.116   0.094   1.287 -1.3543  0.3217 -2.1211
  715TIP3   OH223703   4.295   5.026   2.198  0.5089  0.2965  0.3868
  715TIP3    H123704   4.282   4.954   2.136 -0.7142 -0.4217  1.4171
  715TIP3    H223705   4.297   4.983   2.284  0.9447  1.3891  0.9372
  716TIP3   OH223706   5.575   2.321   7.238 -0.2106 -1.0248  0.0584
  716TIP3    H123707   5.538   2.295   7.154  1.8677  0.0143 -1.2735
  716TIP3    H223708   5.637   2.250   7.260  0.6150 -0.4225 -0.2636
  717TIP3   OH223709   1.531   6.412   1.874 -1.2740 -0.6383 -0.6431
  717TIP3    H123710   1.492   6.419   1.961  3.2025  1.5712  1.4695
  717TIP3    H223711   1.489   6.482   1.823 -2.1569 -0.3171  0.4893
  718TIP3   OH223712   6.488   1.331   0.892 -0.2575 -0.5235  0.1332
  718TIP3    H123713   6.427   1.259   0.877 -0.7467 -0.0756 -0.1073
  718TIP3    H223714   6.575   1.291   0.888 -0.5484 -1.2840  1.1189
  719TIP3   OH223715   4.508   3.361   8.335  0.2457  0.2700 -0.4433
  719TIP3    H123716   4.596   3.398   8.330  0.0229  0.6454 -3.2333
  719TIP3    H223717   4.499   3.309   8.255 -1.5808 -0.9388  0.4720
  720TIP3   OH223718   5.254   2.101   6.255 -0.2405 -0.2396 -0.1260
  720TIP3    H123719   5.266   2.195   6.241 -0.2285 -0.3921 -1.2947
  720TIP3    H223720   5.186   2.095   6.322 -2.0784  0.6460 -1.7954
  721TIP3   OH223721   5.925   5.853   1.651  0.2791 -0.0584 -0.5777
  721TIP3    H123722   5.972   5.776   1.618  0.9343  0.3578 -0.6400
  721TIP3    H223723   5.835   5.842   1.621  0.7023 -0.0511 -1.9011
  722TIP3   OH223724   5.050   3.750   0.148  0.5002  0.2168  0.2660
  722TIP3    H123725   5.093   3.786   0.226 -0.4787 -0.1239  0.9932
  722TIP3    H223726   5.005   3.672   0.180 -1.3903  1.0377 -0.2314
  723TIP3   OH223727   4.307   1.570   0.152 -0.3272 -0.3438 -0.1278
  723TIP3    H123728   4.353   1.647   0.185 -0.0688  0.2788 -1.8208
  723TIP3    H223729   4.261   1.534   0.228  2.8781 -0.9799  1.6851
  724TIP3   OH223730   0.774   0.164   8.010 -0.2138 -0.5331 -0.6324
  724TIP3    H123731   0.698   0.170   8.069 -0.2686 -2.6553 -0.4107
  724TIP3    H223732   0.783   0.253   7.974 -0.0783  0.9491  2.6465
  725TIP3   OH223733   5.981   3.742   1.230 -0.3361 -0.3668  0.1404
  725TIP3    H123734   5.972   3.837   1.234 -1.5353 -0.4959  1.8105
  725TIP3    H223735   5.906   3.713   1.177  0.0979 -0.3816 -0.4709
  726TIP3   OH223736   1.685   0.962   6.940 -0.0349  0.1687 -0.2371
  726TIP3    H123737   1.681   1.011   6.858 -0.6716 -0.2441 -0.4542
  726TIP3    H223738   1.610   0.903   6.937  0.9592 -1.1481 -0.1837
  727TIP3   OH223739   0.909   4.963   2.134  0.2925  0.8018  0.5882
  727TIP3    H123740   0.878   5.018   2.206 -0.8597  1.0634 -0.0890
  727TIP3    H223741   0.922   4.876   2.174  0.9950  1.2590  1.3986
  728TIP3   OH223742   1.090   6.056   0.273  0.4837  0.0824  0.1018
  728TIP3    H123743   1.009   6.106   0.260  0.7736  0.3796 -0.5698
  728TIP3    H223744   1.066   5.966   0.252 -0.1063 -0.1269  1.5544
  729TIP3   OH223745   5.386   1.644   7.934  0.0714 -0.1719 -0.3573
  729TIP3    H123746   5.344   1.605   7.857  2.3109 -1.4462 -1.0106
  729TIP3    H223747   5.475   1.664   7.905  0.3612  1.1909  1.3482
  730TIP3   OH223748   1.884   0.868   8.596 -0.0061  0.3766 -0.2888
  730TIP3    H123749   1.912   0.802   8.660  1.1365  0.4466 -0.6829
  730TIP3    H223750   1.947   0.860   8.524  0.1042  1.8239 -0.3936
  731TIP3   OH223751   6.105   1.629   0.376 -0.0472  0.0049  0.5374
  731TIP3    H123752   6.172   1.601   0.314  1.2875  0.8565  1.5430
  731TIP3    H223753   6.051   1.691   0.326 -0.1296 -0.7035 -0.2838
  732TIP3   OH223754   4.085   1.765   7.392  0.1374 -0.4383 -0.4258
  732TIP3    H123755   4.079   1.804   7.480  1.9901  0.5966 -0.6993
  732TIP3    H223756   4.123   1.678   7.408 -0.1418 -0.5099 -0.1448
  733TIP3   OH223757   4.121   0.945   7.622 -0.4874 -0.1707 -0.5789
  733TIP3    H123758   4.122   0.926   7.528  2.3005  1.7624 -1.0712
  733TIP3    H223759   4.155   0.866   7.663 -1.2284 -0.8380 -1.2112
  734TIP3   OH223760   6.811   5.290   2.031  0.2185  0.6746 -0.3926
  734TIP3    H123761   6.883   5.334   2.078  0.6049  0.6631 -0.9671
  734TIP3    H223762   6.734   5.309   2.084  0.6703  0.5249  0.3451
  735TIP3   OH223763   2.120   2.883   6.440 -0.3600 -0.0755  0.1550
  735TIP3    H123764   2.096   2.820   6.372  3.5989 -1.8258  0.0491
  735TIP3    H223765   2.150   2.960   6.392 -1.9666  0.5673  0.1516
  736TIP3   OH223766   4.193   3.602   1.300  0.4969  0.3645 -0.5874
  736TIP3    H123767   4.152   3.688   1.291  0.8802  0.3594 -3.2885
  736TIP3    H223768   4.272   3.617   1.352 -0.1780  1.3324  0.1953
  737TIP3   OH223769   3.678   3.780   8.122  0.0877  0.2717  0.2292
  737TIP3    H123770   3.627   3.773   8.041  0.5890  1.4229 -0.2187
  737TIP3    H223771   3.632   3.847   8.173 -1.3084 -1.7461  1.7768
  738TIP3   OH223772   0.143   5.189   8.555  0.2298  0.4843 -0.4879
  738TIP3    H123773   0.065   5.221   8.600  1.3273  1.0691  1.0927
  738TIP3    H223774   0.204   5.263   8.556  0.6033  0.2662 -2.3069
  739TIP3   OH223775   1.905   5.031   0.349 -0.2161 -0.4773 -0.1034
  739TIP3    H123776   1.951   5.112   0.372 -1.7483  0.7148 -1.0622
  739TIP3    H223777   1.855   5.009   0.428 -3.2811  2.0641 -1.1282
  740TIP3   OH223778   5.348   3.568   7.435  0.7044 -0.4157  0.1284
  740TIP3    H123779   5.344   3.476   7.459  2.0560 -0.2690  1.0181
  740TIP3    H223780   5.268   3.606   7.472  0.0856 -1.2340 -0.3412
  741TIP3   OH223781   0.503   5.066   0.091  0.1789 -0.1375  0.3777
  741TIP3    H123782   0.599   5.059   0.090  0.0445 -2.9216 -1.0474
  741TIP3    H223783   0.481   5.101   0.004 -0.1326  0.2304  0.6016
  742TIP3   OH223784   0.619   2.598   8.454  0.1147  0.2135  0.4959
  742TIP3    H123785   0.622   2.620   8.361  0.5054  0.2365  0.5138
  742TIP3    H223786   0.543   2.646   8.487  0.8167  1.3735  0.4820
  743TIP3   OH223787   4.395   0.243   1.621  0.3445 -0.0473 -0.0431
  743TIP3    H123788   4.448   0.276   1.694  0.0803  1.1832 -0.3727
  743TIP3    H223789   4.348   0.168   1.657 -0.0953  0.7793  1.1858
  744TIP3   OH223790   6.725   3.751   1.501 -0.5339 -0.4155  0.0607
  744TIP3    H123791   6.736   3.704   1.418 -3.3038 -0.4612 -0.3545
  744TIP3    H223792   6.634   3.735   1.526 -0.0076  0.3101  2.6982
  745TIP3   OH223793   5.312   1.849   8.126  0.0386 -0.2297 -0.2518
  745TIP3    H123794   5.219   1.872   8.122  0.3216  0.8214 -1.5150
  745TIP3    H223795   5.325   1.792   8.051  0.5579  0.2394 -0.5254
  746TIP3   OH223796   5.710   4.415   0.001  0.1939  0.5909 -0.1968
  746TIP3    H123797   5.676   4.392  -0.086 -0.0910  2.3537 -0.5914
  746TIP3    H223798   5.742   4.505  -0.009  0.8453  0.5603  1.3456
  747TIP3   OH223799   6.842   0.526   7.819  0.3390 -0.1483 -0.2601
  747TIP3    H123800   6.748   0.510   7.821  0.7902 -3.9826  1.6728
  747TIP3    H223801   6.865   0.549   7.910  1.1339  2.7014 -1.0850
  748TIP3   OH223802   3.345   6.087   7.926 -0.1368  0.2133  0.1891
  748TIP3    H123803   3.253   6.093   7.950 -0.3350 -0.1910 -0.4542
  748TIP3    H223804   3.345   6.082   7.831  0.4696 -1.1390  0.2371
  749TIP3   OH223805   4.853   1.654   1.988  0.4739 -0.0344 -0.2054
  749TIP3    H123806   4.818   1.729   1.940  0.6956 -1.0493 -2.0702
  749TIP3    H223807   4.935   1.686   2.027 -0.7963  1.4196  1.3779
  750TIP3   OH223808   6.211   6.541   2.738  0.2579  0.1642 -0.3394
  750TIP3    H123809   6.135   6.526   2.794 -1.4321  0.0451 -2.5243
  750TIP3    H223810   6.279   6.485   2.775 -0.6532  0.3351  1.7360
  751TIP3   OH223811   5.976   2.342   1.322 -0.6007  0.2596 -0.3899
  751TIP3    H123812   6.049   2.385   1.368 -0.5939  0.1900 -0.3365
  751TIP3    H223813   6.018   2.278   1.266 -0.6928 -0.6781  0.5858
  752TIP3   OH223814   5.744   2.300   7.830 -0.2400  0.2084  0.6057
  752TIP3    H123815   5.766   2.384   7.789 -0.1241  0.0562  0.3552
  752TIP3    H223816   5.728   2.322   7.922  0.1580  0.4465  0.6182
  753TIP3   OH223817   4.885   0.967   1.844 -0.2208  0.6725 -0.1406
  753TIP3    H123818   4.830   0.930   1.912 -0.7467  0.6924 -0.5485
  753TIP3    H223819   4.954   1.014   1.891  0.2859 -0.5555  0.3871
  754TIP3   OH223820   6.851   5.179   7.280  0.6238 -0.4620  0.5157
  754TIP3    H123821   6.769   5.226   7.292  0.3783 -0.9175  0.6403
  754TIP3    H223822   6.882   5.207   7.193  0.8202  0.4230  0.8578
  755TIP3   OH223823   2.559   0.411   1.279 -0.1433 -0.0471 -0.4135
  755TIP3    H123824   2.627   0.478   1.278  1.2386 -1.3417  0.7911
  755TIP3    H223825   2.577   0.361   1.359 -1.0151 -1.9420 -1.3560
  756TIP3   OH223826   2.597   3.087   0.358  0.4403 -0.0335 -0.1597
  756TIP3    H123827   2.611   3.140   0.436  0.3244 -1.3155  0.7737
  756TIP3    H223828   2.626   3.142   0.285  1.4579  0.8284  0.8676
  757TIP3   OH223829   2.684   5.056   7.700 -0.2993  0.0547 -0.2302
  757TIP3    H123830   2.736   5.133   7.723  1.9253 -1.0721 -1.2087
  757TIP3    H223831   2.702   4.993   7.770 -1.4744  0.1223  0.1449
  758TIP3   OH223832   4.550   6.385   8.136 -0.7833  0.4946  0.2589
  758TIP3    H123833   4.642   6.399   8.156 -0.6953  0.4934 -0.1448
  758TIP3    H223834   4.522   6.467   8.094 -0.5531 -0.0923 -1.0790
  759TIP3   OH223835   2.090   1.210   7.500 -0.5086  0.0035  0.2866
  759TIP3    H123836   2.105   1.304   7.510  1.0297 -0.1270 -0.5356
  759TIP3    H223837   2.143   1.170   7.569 -0.4463 -0.3024  0.0609
  760TIP3   OH223838   6.130   1.149   8.331 -1.0483 -0.6784 -0.5220
  760TIP3    H123839   6.043   1.132   8.295 -0.9588 -1.9898 -0.1907
  760TIP3    H223840   6.113   1.175   8.422 -1.1411  0.1297 -0.7646
  761TIP3   OH223841   6.250   1.800   7.858 -0.2120 -0.1736 -0.1844
  761TIP3    H123842   6.329   1.829   7.903 -0.9435  2.0722 -0.2150
  761TIP3    H223843   6.179   1.844   7.904 -1.3338 -1.0108 -1.0568
  762TIP3   OH223844   6.536   2.367   7.422 -0.0206 -0.4971  0.3659
  762TIP3    H123845   6.492   2.361   7.337  1.8224  0.1047 -0.7009
  762TIP3    H223846   6.561   2.277   7.442  1.1941 -0.4223 -0.6988
  763TIP3   OH223847   3.071   4.464   7.832 -0.2655  0.8572 -0.3989
  763TIP3    H123848   3.029   4.433   7.912 -1.5236 -1.2735 -1.7819
  763TIP3    H223849   3.153   4.414   7.828 -0.0411  1.2109 -0.2967
  764TIP3   OH223850   3.181   2.332   7.553  0.4036  0.4847 -0.0360
  764TIP3    H123851   3.118   2.306   7.485 -0.3404 -0.2585  0.9066
  764TIP3    H223852   3.264   2.341   7.506  0.8770 -4.0478 -0.4626
  765TIP3   OH223853   3.430   1.367   0.961 -0.4398 -0.0799  0.5291
  765TIP3    H123854   3.413   1.273   0.966 -2.0138  0.2178  3.2555
  765TIP3    H223855   3.346   1.407   0.986  0.8587  1.9483  1.9497
  766TIP3   OH223856   0.024   4.897   7.146 -0.1933 -0.0284  0.3978
  766TIP3    H123857   0.107   4.908   7.100  0.2659  0.2659  1.2645
  766TIP3    H223858   0.048   4.900   7.239 -1.2850  0.9419  0.6718
  767TIP3   OH223859   3.427   6.369   0.097 -0.3325 -0.1821  0.3014
  767TIP3    H123860   3.404   6.276   0.100  0.6810 -0.4276  2.7125
  767TIP3    H223861   3.346   6.414   0.075 -0.7100 -1.6432 -1.4829
  768TIP3   OH223862   0.696   2.010   0.835  0.3011 -0.2617  0.1088
  768TIP3    H123863   0.715   1.935   0.892  0.0896  0.4342  1.1217
  768TIP3    H223864   0.735   2.085   0.879 -1.2392  0.5485  0.1580
  769TIP3   OH223865   2.599   0.199   6.622  0.5891  0.0166  0.2947
  769TIP3    H123866   2.566   0.135   6.559  0.7592  0.2798 -0.0667
  769TIP3    H223867   2.565   0.283   6.591  2.3004  0.4258 -0.6119
  770TIP3   OH223868   0.285   1.260   0.192 -0.4954 -0.3469 -0.5509
  770TIP3    H123869   0.248   1.235   0.277 -0.2883 -1.6165 -0.8205
  770TIP3    H223870   0.211   1.298   0.144 -0.6108  0.3761  0.1874
  771TIP3   OH223871   4.626   3.813   7.813 -0.1074 -0.0145 -0.3321
  771TIP3    H123872   4.656   3.790   7.725 -0.9696  4.2255 -1.9951
  771TIP3    H223873   4.703   3.803   7.869  0.5817 -2.3762 -1.5981
  772TIP3   OH223874   4.484   4.246   7.998  0.0068 -0.5060  0.2090
  772TIP3    H123875   4.483   4.266   7.905 -2.6893  1.0309  0.4656
  772TIP3    H223876   4.508   4.328   8.041 -0.5817 -0.6895  0.9240
  773TIP3   OH223877   5.798   6.428   0.701 -0.3493 -0.1160 -0.3205
  773TIP3    H123878   5.830   6.349   0.744 -1.4094 -0.9272 -0.9795
  773TIP3    H223879   5.875   6.485   0.696  0.0222 -0.3595  1.7736
  774TIP3   OH223880   5.166   5.489   7.557 -0.4038 -0.4074  0.0389
  774TIP3    H123881   5.086   5.438   7.546 -0.8567  0.3593 -0.3286
  774TIP3    H223882   5.217   5.441   7.623 -1.3398 -0.6898  0.5682
  775TIP3   OH223883   3.150   2.088   8.023  0.2365  0.7661 -0.3397
  775TIP3    H123884   3.215   2.146   7.983  0.9399  0.5014  0.4030
  775TIP3    H223885   3.201   2.023   8.070 -0.5163 -0.8214 -1.6084
  776TIP3   OH223886   0.851   6.438   7.880  0.5630  0.2113  0.2355
  776TIP3    H123887   0.926   6.381   7.864 -0.1785 -1.4140  2.1169
  776TIP3    H223888   0.786   6.412   7.815 -0.1765 -2.0094  1.7205
  777TIP3   OH223889   3.610   2.026   6.205 -0.0814  0.3332  0.4390
  777TIP3    H123890   3.547   2.091   6.237  0.3973  0.8930  0.2525
  777TIP3    H223891   3.594   1.949   6.260 -0.0868  0.8842  1.2334
  778TIP3   OH223892   0.010   5.545   7.114 -0.3023 -0.0331 -0.5238
  778TIP3    H123893   0.034   5.459   7.081 -1.3724 -0.5016 -0.1103
  778TIP3    H223894  -0.086   5.545   7.116 -0.3253  1.1712 -0.5252
  779TIP3   OH223895   5.380   2.761   7.592 -0.3287 -0.4650 -0.1445
  779TIP3    H123896   5.436   2.728   7.521  0.6762  0.3079  0.2776
  779TIP3    H223897   5.439   2.773   7.666 -0.7655  1.7057 -0.0955
  780TIP3   OH223898   2.613   5.006   1.898 -0.4029 -0.1015 -0.6684
  780TIP3    H123899   2.624   4.915   1.926  0.0247 -0.2782 -1.3599
  780TIP3    H223900   2.694   5.049   1.926 -0.7587  0.1542 -0.0262
  781TIP3   OH223901   4.676   6.204   0.707  0.6568  0.2382 -0.1451
  781TIP3    H123902   4.766   6.191   0.735  0.6054 -0.9510 -0.4583
  781TIP3    H223903   4.661   6.298   0.716  0.3451 -0.0402  4.7159
  782TIP3   OH223904   5.645   2.350   0.550  0.3327  0.7146  0.2632
  782TIP3    H123905   5.554   2.322   0.548  0.9220 -1.3938  0.1482
  782TIP3    H223906   5.676   2.323   0.637  1.2877 -0.2657 -0.3524
  783TIP3   OH223907   2.673   5.999   8.195 -0.1164  0.2453 -0.5081
  783TIP3    H123908   2.680   6.089   8.162 -2.9403  0.4391 -0.7900
  783TIP3    H223909   2.648   5.947   8.119 -3.5186  0.1567  0.5107
  784TIP3   OH223910   3.703   5.515   0.582  0.1736  0.2421  0.1099
  784TIP3    H123911   3.701   5.432   0.628  2.0472 -0.3635 -0.8219
  784TIP3    H223912   3.766   5.502   0.511 -0.1787  2.1667 -0.6174
  785TIP3   OH223913   3.511   2.919   7.066  0.2632  0.0410  0.0045
  785TIP3    H123914   3.454   2.983   7.024  0.6367 -0.1471 -0.8227
  785TIP3    H223915   3.565   2.885   6.994 -0.3933 -1.6880  0.2826
  786TIP3   OH223916   2.642   0.595   0.960  0.0377 -0.0467 -0.1225
  786TIP3    H123917   2.609   0.508   0.942 -0.4751 -0.0166  0.5904
  786TIP3    H223918   2.691   0.620   0.882  0.0254 -0.8891 -0.4061
  787TIP3   OH223919   2.594   5.402   0.026  0.3837 -0.3752 -0.3275
  787TIP3    H123920   2.628   5.378   0.112 -0.5098 -0.3416  0.0357
  787TIP3    H223921   2.659   5.462  -0.010 -0.1884  1.1658  1.1258
  788TIP3   OH223922   0.934   5.477   7.355  0.2531 -0.0548  0.5694
  788TIP3    H123923   0.929   5.571   7.373 -1.6994  0.4737 -2.1648
  788TIP3    H223924   0.843   5.447   7.359  0.8644 -1.9159  1.5917
  789TIP3   OH223925   3.145   0.370   0.056  0.1185 -1.1350  0.1155
  789TIP3    H123926   3.050   0.382   0.051  0.2346 -0.2557 -0.1621
  789TIP3    H223927   3.176   0.447   0.103  0.7277 -1.2413 -0.1045
  790TIP3   OH223928   3.638   4.691   8.547 -0.0247 -0.3515  0.0785
  790TIP3    H123929   3.701   4.628   8.580  1.0282  0.6861  0.1223
  790TIP3    H223930   3.640   4.680   8.452  1.6004  0.8875 -0.0717
  791TIP3   OH223931   3.682   6.607   6.237 -0.1355  0.6219 -0.2482
  791TIP3    H123932   3.614   6.578   6.176  0.9192 -0.9863 -0.7141
  791TIP3    H223933   3.643   6.683   6.281 -2.9793 -1.2854  0.8099
  792TIP3   OH223934   3.388   0.708   1.112  0.0063 -0.3574  0.2275
  792TIP3    H123935   3.426   0.718   1.199  1.1090  1.2566 -0.3881
  792TIP3    H223936   3.391   0.614   1.095  0.5383 -0.6075  1.6020
  793TIP3   OH223937   0.957   3.393   0.101  0.0776  0.2799 -0.2572
  793TIP3    H123938   0.882   3.422   0.050  1.1376  0.3856 -1.8278
  793TIP3    H223939   1.031   3.440   0.064  0.6761  1.8836  2.7171
  794TIP3   OH223940   0.243   3.124   1.163 -0.8840  0.2608 -0.1221
  794TIP3    H123941   0.243   3.087   1.074  0.1804 -1.2395  0.4550
  794TIP3    H223942   0.278   3.053   1.218  2.7275  2.5485  0.8763
  795TIP3   OH223943   6.751   4.939   1.970 -0.3068 -0.4254  0.3798
  795TIP3    H123944   6.753   5.006   1.902  0.8492 -0.2180  0.6017
  795TIP3    H223945   6.791   4.981   2.046 -0.5753 -1.0121  0.8544
  796TIP3   OH223946   1.664   6.222   8.148 -0.1045  0.5361 -0.1401
  796TIP3    H123947   1.573   6.250   8.154 -0.0762  0.4460  1.0518
  796TIP3    H223948   1.690   6.207   8.239  1.2318  0.9702 -0.4343
  797TIP3   OH223949   3.990   1.678   0.424 -0.7182  1.1654 -0.1124
  797TIP3    H123950   4.081   1.678   0.456 -0.8097  1.6214  0.1412
  797TIP3    H223951   3.959   1.589   0.443 -0.9008  1.5384  1.4425
  798TIP3   OH223952   0.124   6.477   1.880 -0.2184 -0.0862  0.1853
  798TIP3    H123953   0.059   6.420   1.839 -0.2266  0.4253 -0.5154
  798TIP3    H223954   0.094   6.566   1.862 -0.2468  0.1582  1.3435
  799TIP3   OH223955   1.226   1.039   6.784  0.4780 -0.2008  0.2975
  799TIP3    H123956   1.287   1.036   6.710  0.9666 -1.9863  0.7248
  799TIP3    H223957   1.254   0.968   6.841 -2.1765 -1.2669  0.3853
  800TIP3   OH223958   5.961   3.703   1.512 -0.6749  0.0325 -0.5022
  800TIP3    H123959   5.958   3.694   1.417  0.6119  2.3466 -0.8471
  800TIP3    H223960   5.925   3.790   1.529  0.2618  0.1612  1.0135
  801TIP3   OH223961   2.210   3.351   8.293  0.4439  0.1941 -0.0929
  801TIP3    H123962   2.224   3.316   8.205 -1.0218  0.0255 -0.2753
  801TIP3    H223963   2.209   3.446   8.282 -0.4513  0.1608 -0.3932
  802TIP3   OH223964   4.976   3.709   7.139  0.9648 -0.3577  0.0400
  802TIP3    H123965   5.043   3.709   7.070  1.3863  0.4286  0.4422
  802TIP3    H223966   5.006   3.775   7.202  0.4066 -0.8257  0.8099
  803TIP3   OH223967   2.482   4.779   7.850 -0.2561  0.0073  0.1112
  803TIP3    H123968   2.487   4.685   7.837  1.7081  0.4093 -3.2265
  803TIP3    H223969   2.393   4.803   7.821 -0.3750 -0.6889 -0.1150
  804TIP3   OH223970   3.536   3.026   7.651  0.1057 -0.1379 -0.1850
  804TIP3    H123971   3.516   2.989   7.565  0.2188 -1.9047  0.5047
  804TIP3    H223972   3.613   3.081   7.635 -0.2652  0.0946 -1.3183
  805TIP3   OH223973   5.797   4.221   0.199 -0.5926  0.0669 -0.1547
  805TIP3    H123974   5.883   4.221   0.158 -0.0656  2.1003  0.8451
  805TIP3    H223975   5.751   4.295   0.160 -0.8301  0.7645  1.3664
  806TIP3   OH223976   2.516   0.774   8.086 -0.0277  0.1487 -0.7342
  806TIP3    H123977   2.593   0.816   8.048  1.2448 -0.3986  1.1343
  806TIP3    H223978   2.550   0.696   8.129 -1.5157  0.2011  0.6279
  807TIP3   OH223979   5.469   2.970   7.169  0.1107 -0.5646 -0.1010
  807TIP3    H123980   5.539   2.905   7.160  0.0183 -1.0920  2.3617
  807TIP3    H223981   5.390   2.924   7.141 -0.0511 -1.8225  2.1609
  808TIP3   OH223982   6.641   3.729   6.946  0.5153 -0.1605 -0.0603
  808TIP3    H123983   6.658   3.806   6.891  1.9784 -0.4767 -0.0935
  808TIP3    H223984   6.586   3.673   6.892 -1.1935  1.1571  0.2442
  809TIP3   OH223985   3.867   0.062   6.950 -0.3845 -0.3148 -0.2594
  809TIP3    H123986   3.866  -0.013   6.891  2.7687  0.3026 -1.3316
  809TIP3    H223987   3.824   0.132   6.899 -0.1645 -0.5046 -0.7170
  810TIP3   OH223988   6.213   5.735   6.844  0.4184  0.1681  0.3270
  810TIP3    H123989   6.211   5.824   6.810 -1.1417  1.4920  3.4703
  810TIP3    H223990   6.168   5.740   6.928  1.4088 -3.3571  1.2595
  811TIP3   OH223991   5.587   1.821   0.318  0.1612 -0.2587  0.3222
  811TIP3    H123992   5.588   1.912   0.288  2.2458 -0.7010 -1.1610
  811TIP3    H223993   5.638   1.821   0.398  0.3582 -0.1547  0.1964
  812TIP3   OH223994   6.686   6.192   7.785  0.2703 -1.0896  0.2578
  812TIP3    H123995   6.660   6.230   7.702 -0.1702 -0.7394  0.5527
  812TIP3    H223996   6.694   6.098   7.767  0.5029 -0.9733 -0.2572
  813TIP3   OH223997   4.231   1.065   1.084 -0.1885  0.2972 -0.2074
  813TIP3    H123998   4.325   1.085   1.078 -0.5018  1.9781  0.0083
  813TIP3    H223999   4.194   1.100   1.003 -0.9866  2.0829  0.8606
  814TIP3   OH224000   2.454   1.894   1.505 -0.0017 -0.4543 -0.9579
  814TIP3    H124001   2.527   1.833   1.514 -0.2855 -0.7843 -0.8698
  814TIP3    H224002   2.484   1.975   1.547  0.1182 -0.7546 -0.4656
  815TIP3   OH224003   3.875   3.534   0.993  0.0760  0.2288 -0.2144
  815TIP3    H124004   3.785   3.507   0.975  0.1958 -1.2183  1.1438
  815TIP3    H224005   3.919   3.454   1.020  1.3711  1.1917  0.6563
  816TIP3   OH224006   5.057   1.365   0.234  0.3323  0.1817 -0.1428
  816TIP3    H124007   5.122   1.432   0.253  0.9305  0.0205 -1.4848
  816TIP3    H224008   5.098   1.310   0.168 -0.7653 -0.5644 -0.2358
  817TIP3   OH224009   4.332   5.167   7.448  0.1275 -0.3343  0.2353
  817TIP3    H124010   4.364   5.078   7.430  1.1638  0.3619 -1.6761
  817TIP3    H224011   4.276   5.188   7.374 -0.1821  0.5827  0.7171
  818TIP3   OH224012   0.520   5.754   7.279  0.3281  0.0649 -0.1757
  818TIP3    H124013   0.480   5.671   7.255  1.6914 -0.6705 -0.0178
  818TIP3    H224014   0.511   5.809   7.201 -1.3186  0.0817  0.0011
  819TIP3   OH224015   3.181   4.255   8.280 -0.1296  0.0440 -0.3991
  819TIP3    H124016   3.250   4.274   8.344 -1.4283 -2.1874  1.8273
  819TIP3    H224017   3.099   4.269   8.328 -1.1777 -1.2687 -1.6987
  820TIP3   OH224018   1.457   2.717   7.325 -0.0791  0.3074  0.6012
  820TIP3    H124019   1.405   2.714   7.405  0.5380 -0.1056  0.9972
  820TIP3    H224020   1.548   2.705   7.354  0.0652 -0.9508 -0.2399
  821TIP3   OH224021   4.290   1.154   6.444  0.1989  0.0171 -0.5002
  821TIP3    H124022   4.367   1.173   6.390  0.0388  1.1887 -0.3416
  821TIP3    H224023   4.264   1.239   6.479 -1.2542 -0.3358 -0.6522
  822TIP3   OH224024   4.965   0.274   7.663  0.0386  0.3037 -0.0850
  822TIP3    H124025   4.955   0.361   7.700 -3.4120 -0.0877  0.2239
  822TIP3    H224026   5.058   0.255   7.670  0.5086  2.9192  2.2012
  823TIP3   OH224027   3.932   1.251   7.820  0.2356 -0.8432  0.1224
  823TIP3    H124028   3.897   1.270   7.733 -2.4907  0.4881  1.3765
  823TIP3    H224029   3.960   1.336   7.854 -0.2945 -1.0431  1.1216
  824TIP3   OH224030   5.920   3.135   7.830  0.0358 -0.7416  0.6879
  824TIP3    H124031   5.973   3.157   7.754  0.2553  0.1189  1.0785
  824TIP3    H224032   5.965   3.177   7.904 -0.3345 -1.3072  1.2474
  825TIP3   OH224033   0.307   5.407   7.383 -0.1339  0.1460  0.3373
  825TIP3    H124034   0.336   5.375   7.469  1.1682  2.0720  0.6670
  825TIP3    H224035   0.222   5.448   7.400 -0.0405  0.2147  0.6397
  826TIP3   OH224036   4.563   3.378   1.550  0.0828  0.2222 -0.2242
  826TIP3    H124037   4.613   3.359   1.470  0.0354  0.2999 -0.2726
  826TIP3    H224038   4.586   3.307   1.610  0.0066  0.0812 -0.3592
  827TIP3   OH224039   2.931   5.188   1.739  0.4576  0.1686  0.5210
  827TIP3    H124040   2.910   5.203   1.831 -0.9589 -0.8537  0.3850
  827TIP3    H224041   3.026   5.200   1.734  0.5053  0.5858  2.0364
  828TIP3   OH224042   3.403   5.842   6.217  0.4864  0.4666  0.1331
  828TIP3    H124043   3.390   5.751   6.192  1.0617  0.6864 -1.0452
  828TIP3    H224044   3.397   5.842   6.313 -1.2928 -0.5032  0.0645
  829TIP3   OH224045   4.634   6.417   7.614 -0.0467  0.1357  0.5655
  829TIP3    H124046   4.627   6.370   7.530 -1.0016 -1.2513  1.3807
  829TIP3    H224047   4.713   6.470   7.605 -0.0524 -0.0738 -1.1701
  830TIP3   OH224048   5.195   0.302   7.792  0.3545 -0.0351 -0.0568
  830TIP3    H124049   5.217   0.376   7.735  2.0457 -1.1019 -0.8663
  830TIP3    H224050   5.279   0.259   7.809 -0.1970 -0.1818  2.6980
  831TIP3   OH224051   2.248   6.522   0.125  0.5862 -0.3572 -0.4050
  831TIP3    H124052   2.291   6.575   0.058 -1.0981  1.9375  0.2198
  831TIP3    H224053   2.161   6.504   0.089  0.4635 -1.0450  0.2213
  832TIP3   OH224054   5.819   0.546   0.412 -0.1859 -1.2527 -0.2533
  832TIP3    H124055   5.871   0.466   0.417  1.8829 -0.0611 -1.1746
  832TIP3    H224056   5.883   0.614   0.392 -1.9536  0.5495 -0.0516
  833TIP3   OH224057   2.243   3.831   8.028 -0.0686  0.2709  0.0067
  833TIP3    H124058   2.224   3.832   7.935  0.7499  0.9395 -0.1623
  833TIP3    H224059   2.182   3.767   8.064 -0.4095  0.0253 -0.9785
  834TIP3   OH224060   0.258   1.590   0.792 -0.2241 -0.2803  0.5577
  834TIP3    H124061   0.326   1.636   0.842  0.4607  1.5208 -1.8619
  834TIP3    H224062   0.187   1.653   0.784 -0.6293 -0.8101 -0.1057
  835TIP3   OH224063   4.991   2.838   1.825  0.0119 -0.3737  0.1564
  835TIP3    H124064   4.959   2.923   1.856  0.5508 -0.1426  0.0921
  835TIP3    H224065   5.056   2.812   1.891 -0.0402 -0.6619  0.0940
  836TIP3   OH224066   2.416   0.996   8.249 -0.5898 -0.0497  0.3006
  836TIP3    H124067   2.505   1.030   8.262 -1.3630  3.2832 -1.9109
  836TIP3    H224068   2.424   0.935   8.175 -0.0902 -0.0684  0.3679
  837TIP3   OH224069   4.079   1.016   6.351 -0.5304  0.2648  0.2180
  837TIP3    H124070   4.157   1.069   6.363 -2.6614  3.1541  2.9129
  837TIP3    H224071   4.020   1.071   6.298 -2.8088  0.8305  3.0721
  838TIP3   OH224072   6.018   3.004   7.261  0.6548  0.0875  0.3342
  838TIP3    H124073   5.924   3.020   7.254  0.1317 -2.3553  0.7166
  838TIP3    H224074   6.052   3.025   7.175 -0.6432 -1.0129 -0.4993
  839TIP3   OH224075   2.063   2.980   8.382  0.1786 -0.4781 -0.4538
  839TIP3    H124076   2.003   3.051   8.358 -1.3987 -1.0311  1.5945
  839TIP3    H224077   2.026   2.902   8.340  0.7565 -0.4513 -1.0247
  840TIP3   OH224078   6.383   4.137   2.246 -0.2732  0.9260  0.1606
  840TIP3    H124079   6.366   4.051   2.208  1.1455  1.3443 -1.5474
  840TIP3    H224080   6.338   4.135   2.330  0.0445 -1.6395  0.3678
  841TIP3   OH224081   4.515   3.622   7.070 -0.0881  0.4078  0.0699
  841TIP3    H124082   4.432   3.663   7.047 -0.1091 -1.0887 -3.0602
  841TIP3    H224083   4.581   3.681   7.035 -0.0063 -0.1418 -0.7487
  842TIP3   OH224084   4.376   3.136   8.475  0.1468 -0.3020  0.5579
  842TIP3    H124085   4.451   3.077   8.471  0.5241  0.1758  0.4822
  842TIP3    H224086   4.407   3.216   8.433 -0.4760 -0.1735  0.3351
  843TIP3   OH224087   2.171   5.882   1.009 -0.3669  0.1454 -0.0147
  843TIP3    H124088   2.118   5.802   0.998  0.3914 -0.5258  1.0559
  843TIP3    H224089   2.153   5.932   0.929  0.1330 -1.6768 -1.3658
  844TIP3   OH224090   4.065   4.660   0.069 -0.0923 -0.4600 -0.2583
  844TIP3    H124091   4.000   4.696   0.129  1.4977  0.0338  1.2736
  844TIP3    H224092   4.076   4.569   0.097 -0.3373 -0.6263 -0.7022
  845TIP3   OH224093   4.418   4.839   1.287 -0.2686  0.7050  0.5851
  845TIP3    H124094   4.388   4.929   1.302  1.6974  1.5076 -0.0354
  845TIP3    H224095   4.405   4.825   1.193 -1.1573  0.0709  0.7820
  846TIP3   OH224096   4.888   2.799   0.950 -0.2651  0.2939 -0.6200
  846TIP3    H124097   4.910   2.707   0.935  0.6748 -0.0096  2.0857
  846TIP3    H224098   4.805   2.797   0.998  0.1362  0.7817  0.1230
  847TIP3   OH224099   3.354   1.689   0.266 -0.3262 -0.1337 -0.1360
  847TIP3    H124100   3.285   1.672   0.331 -0.4821 -0.4465 -0.3847
  847TIP3    H224101   3.307   1.698   0.183 -0.0405 -0.7025 -0.3660
  848TIP3   OH224102   3.201   3.878   8.329 -0.0020 -0.2728  0.0719
  848TIP3    H124103   3.190   3.858   8.422  0.1046  0.4410  0.2501
  848TIP3    H224104   3.273   3.941   8.327  0.2847 -0.6127 -0.5409
  849TIP3   OH224105   0.284   6.405   8.151 -0.2812  0.0679 -0.3837
  849TIP3    H124106   0.218   6.428   8.085 -0.5052 -0.7336 -0.4442
  849TIP3    H224107   0.235   6.364   8.221  0.4129 -3.9267 -1.9529
  850TIP3   OH224108   3.130   0.318   1.719  0.5558 -0.1277 -0.3173
  850TIP3    H124109   3.142   0.257   1.791  0.0281 -0.5098 -0.5404
  850TIP3    H224110   3.194   0.388   1.734 -0.1742  0.2796  1.0182
  851TIP3   OH224111   0.199   2.703   0.615 -0.4850  0.3255 -0.0146
  851TIP3    H124112   0.125   2.751   0.576 -0.6363 -0.1219 -0.2828
  851TIP3    H224113   0.165   2.671   0.698  0.8062  4.1025  2.2125
  852TIP3   OH224114   3.248   6.536   1.066 -0.1688  0.6080 -0.5616
  852TIP3    H124115   3.170   6.541   1.121 -0.2569  1.7755 -0.7772
  852TIP3    H224116   3.303   6.470   1.109 -0.4626  1.1145  0.6309
  853TIP3   OH224117   4.531   6.306   2.810  0.0215  0.2373  0.0371
  853TIP3    H124118   4.459   6.242   2.810 -0.0728  0.3196  1.7244
  853TIP3    H224119   4.564   6.305   2.899  1.0789  1.3866 -0.3226
  854TIP3   OH224120   0.686   4.318   7.272  0.7514  0.6171  0.3209
  854TIP3    H124121   0.747   4.333   7.200  1.4937  0.6736  0.9519
  854TIP3    H224122   0.600   4.339   7.235  1.2064  1.4214 -0.3180
  855TIP3   OH224123   3.938   1.195   6.191 -0.2742  0.4016 -0.3427
  855TIP3    H124124   4.016   1.244   6.217 -0.1824  0.3048 -0.4345
  855TIP3    H224125   3.911   1.235   6.109 -1.0058  1.2045  0.2721
  856TIP3   OH224126   3.049   5.845   1.547  0.7152 -0.0230  0.4848
  856TIP3    H124127   3.036   5.750   1.552 -2.5193  0.3629  1.7733
  856TIP3    H224128   3.012   5.879   1.629  1.1950  2.4154 -0.2200
  857TIP3   OH224129   6.080   1.924   2.851 -0.0527 -0.2361  0.0327
  857TIP3    H124130   5.987   1.911   2.832  0.4504 -0.4392 -2.7357
  857TIP3    H224131   6.120   1.838   2.838  0.8267  0.3246 -1.1829
  858TIP3   OH224132   2.504   1.289   7.156 -0.0875  0.0115  0.0952
  858TIP3    H124133   2.541   1.212   7.200  1.1456 -0.0777 -1.0454
  858TIP3    H224134   2.565   1.360   7.176 -0.8346  0.5499  0.5332
  859TIP3   OH224135   3.232   2.506   0.759  0.0623 -0.8808  0.1502
  859TIP3    H124136   3.226   2.452   0.680 -1.1150  0.6658 -0.8655
  859TIP3    H224137   3.324   2.501   0.785  1.4202  1.4617 -3.4621
  860TIP3   OH224138   3.016   5.074   7.338 -0.2339  0.3448 -0.5035
  860TIP3    H124139   2.959   5.131   7.287 -1.9174 -0.0992  0.8243
  860TIP3    H224140   3.023   5.116   7.423 -1.6829 -1.4572  0.5772
  861TIP3   OH224141   2.226   6.430   7.228 -0.1849  0.0140  0.2456
  861TIP3    H124142   2.302   6.482   7.199  3.0247 -3.2288  2.0847
  861TIP3    H224143   2.219   6.449   7.322 -0.5921 -0.9487  0.4148
  862TIP3   OH224144   6.040   0.940   7.951 -0.4084 -0.3542  0.6143
  862TIP3    H124145   5.976   0.949   8.022 -1.4767  0.1302 -0.3705
  862TIP3    H224146   6.117   0.986   7.982 -0.6507 -0.6391  1.6919
  863TIP3   OH224147   1.849   5.084   7.003  0.5786 -0.6144  0.0948
  863TIP3    H124148   1.849   5.005   6.949 -0.6363  0.9514 -2.3396
  863TIP3    H224149   1.940   5.114   7.002  0.5007 -0.3662 -1.5354
  864TIP3   OH224150   2.693   3.802   8.171 -0.3115  0.4936  0.1371
  864TIP3    H124151   2.758   3.867   8.197 -0.8358  0.0989  2.7317
  864TIP3    H224152   2.742   3.721   8.162  0.0186  0.8085 -1.1023
  865TIP3   OH224153   1.504   3.949   7.476 -0.1857  0.1266  0.2893
  865TIP3    H124154   1.534   4.011   7.542  3.4807 -0.2189 -0.8512
  865TIP3    H224155   1.548   3.867   7.498 -0.4303 -0.5181 -1.4563
  866TIP3   OH224156   1.787   2.216   1.862  0.4664 -0.5992 -0.1552
  866TIP3    H124157   1.742   2.236   1.780  0.2479 -1.1950 -0.1796
  866TIP3    H224158   1.716   2.206   1.926  0.3973 -3.3602 -0.5587
  867TIP3   OH224159   4.069   6.367   0.411 -0.9845  0.4280 -1.2939
  867TIP3    H124160   4.117   6.449   0.398 -1.5428  0.9305 -0.2302
  867TIP3    H224161   4.000   6.388   0.473  0.0765 -1.3061  0.6236
  868TIP3   OH224162   1.290   4.913   1.309 -0.1266 -0.1771 -0.6794
  868TIP3    H124163   1.301   4.993   1.256 -2.5621 -0.2777 -1.4335
  868TIP3    H224164   1.368   4.911   1.365  0.4018  2.2942 -1.2073
  869TIP3   OH224165   4.626   5.355   7.626  0.1119 -0.0293  0.3909
  869TIP3    H124166   4.660   5.277   7.670 -0.3193 -0.7950 -0.6045
  869TIP3    H224167   4.578   5.403   7.695  0.6732 -0.4547  1.0858
  870TIP3   OH224168   1.089   3.292   0.638 -0.2489 -0.2382  0.3986
  870TIP3    H124169   1.145   3.359   0.599  0.5112  0.0044  1.8626
  870TIP3    H224170   1.116   3.211   0.594 -0.1861  0.1839 -0.3662
  871TIP3   OH224171   0.807   6.453   7.548 -0.4842 -0.4487  0.1539
  871TIP3    H124172   0.765   6.422   7.468  2.3167 -0.4022 -1.4798
  871TIP3    H224173   0.896   6.417   7.544 -0.0926 -0.0774  3.0698
  872TIP3   OH224174   2.597   2.053   8.408  0.0872  0.6971  0.4473
  872TIP3    H124175   2.657   2.121   8.377 -0.2452  1.0774  0.6164
  872TIP3    H224176   2.564   2.087   8.491  0.1893  0.1577  0.7094
  873TIP3   OH224177   1.344   0.801   6.874  0.5928  0.3845  0.0301
  873TIP3    H124178   1.328   0.810   6.968  0.9112 -1.5123  0.2885
  873TIP3    H224179   1.437   0.781   6.867  1.1371  2.8323 -0.9026
  874TIP3   OH224180   3.211   2.047   8.501  0.2993 -0.1013  0.5768
  874TIP3    H124181   3.218   1.974   8.562 -0.2696 -0.3595  0.3336
  874TIP3    H224182   3.285   2.036   8.441  0.7301  0.0288  1.0785
  875TIP3   OH224183   2.789   0.897   8.026 -0.3185  0.1289  0.1062
  875TIP3    H124184   2.810   0.984   8.059  0.7627 -0.3051  0.6048
  875TIP3    H224185   2.863   0.873   7.970  0.0844 -1.0099  1.0781
  876TIP3   OH224186   2.989   4.342   8.052 -0.5821 -0.1661  0.0792
  876TIP3    H124187   2.992   4.246   8.052  0.4321 -0.1721 -1.8904
  876TIP3    H224188   3.048   4.368   8.123  0.2597 -1.0141 -0.2858
  877TIP3   OH224189   4.896   3.799   6.835  0.3008 -0.2190 -0.6166
  877TIP3    H124190   4.982   3.769   6.866  0.0813  0.7613  1.0634
  877TIP3    H224191   4.874   3.739   6.764  2.5707 -0.2301 -1.4092
  878TIP3   OH224192   5.521   4.529   7.074  0.3605 -0.2728 -0.1483
  878TIP3    H124193   5.519   4.453   7.133 -0.5599 -0.7321 -0.7320
  878TIP3    H224194   5.431   4.535   7.041  0.8254  0.0151 -1.4262
  879TIP3   OH224195   6.823   5.340   8.354  0.0589  0.4394  0.1695
  879TIP3    H124196   6.807   5.304   8.441 -0.1201  1.4313  0.5596
  879TIP3    H224197   6.735   5.352   8.317  0.1504 -0.6204 -0.4304
  880TIP3   OH224198   5.772   3.656   2.503 -0.9337 -0.5654  0.4377
  880TIP3    H124199   5.682   3.681   2.522 -0.2539  1.2478  1.5366
  880TIP3    H224200   5.805   3.620   2.585 -0.0818  0.6693  0.6561
  881TIP3   OH224201   1.639   5.277   7.019 -0.0915 -0.1818 -0.0822
  881TIP3    H124202   1.574   5.236   7.076 -1.1475  0.2127 -0.9787
  881TIP3    H224203   1.715   5.218   7.023 -0.6743 -0.9106  0.5817
  882TIP3   OH224204   5.621   3.271   7.017 -0.5648 -0.4759 -0.0698
  882TIP3    H124205   5.699   3.284   6.964 -1.3839 -0.0090 -1.1972
  882TIP3    H224206   5.573   3.202   6.972 -1.3276 -0.0028  0.0007
  883TIP3   OH224207   5.927   0.028   0.234 -0.0788  0.0486 -0.3049
  883TIP3    H124208   5.927  -0.053   0.183 -0.1810 -0.7351  0.8954
  883TIP3    H224209   5.860   0.015   0.301  1.6517  0.0079  1.5452
  884TIP3   OH224210   0.192   4.066   2.039  0.2230 -0.1569  0.5763
  884TIP3    H124211   0.214   4.159   2.031  2.2532 -0.5185  1.4344
  884TIP3    H224212   0.151   4.058   2.125  1.0796 -0.1958  0.9989
  885TIP3   OH224213   5.982   0.156   7.964  0.1221  0.2213  0.3710
  885TIP3    H124214   5.955   0.246   7.945  1.0278  0.7624  1.5350
  885TIP3    H224215   5.989   0.153   8.060 -2.1620 -1.7739  0.5757
  886TIP3   OH224216   5.531   5.741   2.312 -0.3831 -0.6896  0.4622
  886TIP3    H124217   5.595   5.679   2.275 -0.0914  1.1892 -2.5370
  886TIP3    H224218   5.580   5.823   2.322 -1.7809  0.2058  0.1495
  887TIP3   OH224219   1.719   6.452   0.575 -0.0067  0.3190  0.1610
  887TIP3    H124220   1.790   6.515   0.578 -0.7780  1.2801 -0.8165
  887TIP3    H224221   1.753   6.379   0.522  0.7330  0.1025  0.9196
  888TIP3   OH224222   0.520   3.387   8.117 -0.0918  0.0820  0.4539
  888TIP3    H124223   0.490   3.460   8.064  0.5144  2.0931  2.6674
  888TIP3    H224224   0.443   3.331   8.128 -0.9255  1.0502 -0.2738
  889TIP3   OH224225   5.668   0.096   8.168 -0.4445  0.2684 -0.3550
  889TIP3    H124226   5.746   0.041   8.171 -0.9144 -0.4526 -1.0187
  889TIP3    H224227   5.597   0.037   8.143 -1.1028  1.0234 -0.3281
  890TIP3   OH224228   4.016   3.260   2.200  0.5442  0.2372  0.0651
  890TIP3    H124229   3.926   3.227   2.197  0.7498 -0.3454  0.2650
  890TIP3    H224230   4.069   3.186   2.171  1.1524 -0.1546  2.0636
  891TIP3   OH224231   1.472   5.840   1.860 -0.3660 -0.6105 -0.6501
  891TIP3    H124232   1.519   5.824   1.942 -1.4804 -0.5495  0.0207
  891TIP3    H224233   1.492   5.764   1.805  0.3375 -0.6822 -0.3022
  892TIP3   OH224234   1.492   0.351   2.448 -0.7668  0.0521  0.2138
  892TIP3    H124235   1.483   0.256   2.454  1.5311 -0.2972 -0.6601
  892TIP3    H224236   1.584   0.367   2.470 -0.7727  1.9372 -0.9316
  893TIP3   OH224237   2.741   0.939   0.681  0.5567 -0.3111  0.6974
  893TIP3    H124238   2.828   0.915   0.651  0.3604 -1.7557  1.2043
  893TIP3    H224239   2.736   0.907   0.771 -1.2239 -2.2579 -0.0078
  894TIP3   OH224240   3.291   5.703   7.276 -0.0111 -0.4161  0.4786
  894TIP3    H124241   3.335   5.696   7.360 -0.5270  0.3439  0.8372
  894TIP3    H224242   3.352   5.752   7.221 -0.2757  0.4094  0.8924
  895TIP3   OH224243   1.531   6.149   1.153  0.0925 -0.3535 -0.0416
  895TIP3    H124244   1.496   6.220   1.100 -1.9549 -0.8529  0.5786
  895TIP3    H224245   1.616   6.129   1.112 -0.2272  1.0269 -1.4842
  896TIP3   OH224246   6.408   6.273   1.629 -0.5183  0.2597  0.6060
  896TIP3    H124247   6.324   6.314   1.608  0.6064  1.6649 -1.4706
  896TIP3    H224248   6.436   6.317   1.710 -1.3498  0.4246  0.8178
  897TIP3   OH224249   2.928   3.152   8.158  0.0052  0.3897  0.0397
  897TIP3    H124250   2.833   3.152   8.168 -0.2601  0.9424 -1.9186
  897TIP3    H224251   2.959   3.220   8.218 -0.7928 -0.0195  0.9309
  898TIP3   OH224252   3.193   2.966   7.616  0.5074  0.2840 -0.1698
  898TIP3    H124253   3.229   3.033   7.675  0.6518  0.1178 -0.0701
  898TIP3    H224254   3.241   2.978   7.534  0.6765  0.1691 -0.0874
  899TIP3   OH224255   4.066   2.057   8.489  0.3848 -0.1037 -0.3900
  899TIP3    H124256   4.040   2.130   8.432  1.2018  2.6190  2.4588
  899TIP3    H224257   3.990   2.042   8.544  0.2735 -1.3951 -0.8693
  900TIP3   OH224258   2.761   1.347   6.146 -0.6534  0.5301  0.0104
  900TIP3    H124259   2.856   1.335   6.145 -0.7012 -1.0962  3.2511
  900TIP3    H224260   2.749   1.442   6.154  0.8890  0.5888  2.7825
  901TIP3   OH224261   5.281   6.661   1.228  0.4691  0.3381  0.3914
  901TIP3    H124262   5.363   6.680   1.182  1.0731 -1.9692  0.4240
  901TIP3    H224263   5.307   6.641   1.318 -0.1744  0.0161  0.5114
  902TIP3   OH224264   6.228   5.701   0.282 -0.4186  0.1689 -0.3925
  902TIP3    H124265   6.137   5.684   0.257 -0.1584 -2.3423  0.0937
  902TIP3    H224266   6.223   5.730   0.373 -0.7474  0.3770 -0.4766
  903TIP3   OH224267   6.303   1.496   1.503  0.5817 -0.7162  0.6638
  903TIP3    H124268   6.366   1.567   1.487  1.7795 -1.9426 -0.3814
  903TIP3    H224269   6.243   1.501   1.429  0.3517 -0.4786  0.8650
  904TIP3   OH224270   4.282   5.910   1.643  0.3029 -0.4418 -0.1583
  904TIP3    H124271   4.289   5.966   1.720  0.0765  0.5434 -0.8407
  904TIP3    H224272   4.206   5.855   1.660 -0.5449  0.6709 -0.2321
  905TIP3   OH224273   0.667   5.926   7.413 -0.2349  0.2865  0.3857
  905TIP3    H124274   0.727   5.890   7.477  1.6490  2.2475 -0.1717
  905TIP3    H224275   0.639   5.850   7.361 -1.5620 -1.3037  3.1700
  906TIP3   OH224276   0.221   3.467   0.886 -0.3541  0.1433  0.6207
  906TIP3    H124277   0.281   3.414   0.938  0.3183 -0.1522 -0.4241
  906TIP3    H224278   0.228   3.555   0.924  0.6518  0.0847  0.5925
  907TIP3   OH224279   0.779   4.318   7.756 -0.0679  0.3164  0.0059
  907TIP3    H124280   0.726   4.367   7.819  0.8206  0.2838  0.8094
  907TIP3    H224281   0.754   4.353   7.671  0.6451  2.3178  0.5526
  908TIP3   OH224282   6.242   5.064   6.922  0.1137 -0.0921  0.0091
  908TIP3    H124283   6.276   5.093   6.837 -0.9179  0.9619 -0.0702
  908TIP3    H224284   6.218   4.972   6.908  1.5595 -0.4467 -0.3254
  909TIP3   OH224285   1.613   4.992   1.920  0.0464  0.4884  0.0050
  909TIP3    H124286   1.566   4.909   1.923  1.8831 -0.7202 -1.7051
  909TIP3    H224287   1.652   5.001   2.007  0.1756 -0.7022  0.0968
  910TIP3   OH224288   5.108   2.115   7.965  0.2420  0.6317 -0.7391
  910TIP3    H124289   5.159   2.037   7.946 -0.6714  0.1817 -1.4196
  910TIP3    H224290   5.056   2.092   8.043  0.9792  1.0564 -0.1030
  911TIP3   OH224291   3.991   2.397   0.873  0.3124  0.4265  0.2769
  911TIP3    H124292   3.928   2.334   0.837  0.2549 -0.4092  1.7535
  911TIP3    H224293   3.974   2.478   0.824 -0.4654 -0.3507 -0.8010
  912TIP3   OH224294   6.877   1.554   7.069 -0.3377 -0.3745  0.6832
  912TIP3    H124295   6.937   1.624   7.096  1.4072 -1.1495 -0.9976
  912TIP3    H224296   6.803   1.600   7.028  1.1000  0.5145 -1.0264
  913TIP3   OH224297   2.112   4.453   2.433  0.2703 -0.2707 -0.8594
  913TIP3    H124298   2.023   4.473   2.459  0.7437  0.9375 -0.0631
  913TIP3    H224299   2.139   4.527   2.379  0.8359 -0.5481 -0.9752
  914TIP3   OH224300   1.786   1.297   0.199  0.4042  0.2865  0.0434
  914TIP3    H124301   1.709   1.309   0.255  0.2119 -1.5718  0.2419
  914TIP3    H224302   1.766   1.219   0.148  0.9906  1.3894 -1.9587
  915TIP3   OH224303   5.353   3.688   0.935  0.0796 -0.0542 -0.1105
  915TIP3    H124304   5.423   3.720   0.992 -0.1021 -2.2526  1.4707
  915TIP3    H224305   5.386   3.605   0.902 -1.2522 -0.4613 -0.4436
  916TIP3   OH224306   1.819   1.784   0.765  0.2847 -0.0902 -0.1532
  916TIP3    H124307   1.750   1.841   0.730  0.0071 -1.2456 -1.5443
  916TIP3    H224308   1.819   1.802   0.859 -1.1593  0.7384 -0.2857
  917TIP3   OH224309   2.780   1.331   1.302  0.1257  0.3166  0.0509
  917TIP3    H124310   2.689   1.343   1.277  0.5014  2.6039 -0.4758
  917TIP3    H224311   2.829   1.393   1.247  1.5409  1.8809  2.8139
  918TIP3   OH224312   0.043   5.262   0.700 -0.1479  0.0113  0.6577
  918TIP3    H124313   0.088   5.341   0.669 -0.3216 -0.3079 -0.4392
  918TIP3    H224314   0.106   5.219   0.757  0.1603  0.6475  0.8097
  919TIP3   OH224315   6.757   5.746   8.077  0.2846  0.2047 -0.7629
  919TIP3    H124316   6.755   5.667   8.023  0.0504  1.3952 -2.6196
  919TIP3    H224317   6.851   5.765   8.087  0.3558 -0.5423  0.0969
  920TIP3   OH224318   2.439   2.485   0.260 -0.4293  0.8749  0.1943
  920TIP3    H124319   2.379   2.435   0.316 -2.1037  2.9679  0.3744
  920TIP3    H224320   2.525   2.468   0.298 -1.1866 -0.0861  1.5940
  921TIP3   OH224321   0.257   4.999   2.150 -0.1222  0.2608 -0.2322
  921TIP3    H124322   0.162   5.006   2.155 -0.2241  1.4246 -2.4819
  921TIP3    H224323   0.290   5.080   2.190 -0.1910  0.8805 -1.3974
  922TIP3   OH224324   6.236   0.682   1.822  0.3283 -0.3430 -0.0573
  922TIP3    H124325   6.239   0.777   1.813 -1.0842 -0.3390 -0.7590
  922TIP3    H224326   6.162   0.655   1.768  0.1786 -1.7673  0.8052
  923TIP3   OH224327   5.204   1.577   0.319 -0.2919  0.0576  0.4436
  923TIP3    H124328   5.194   1.647   0.255 -3.4423  0.2684  1.0128
  923TIP3    H224329   5.154   1.607   0.395 -0.8831 -2.3528  1.0937
  924TIP3   OH224330   0.998   6.568   2.461  0.3510 -0.2727 -0.3349
  924TIP3    H124331   1.065   6.506   2.486 -0.0683 -1.7814 -2.6751
  924TIP3    H224332   1.019   6.593   2.371  0.6568  3.2749  0.5439
  925TIP3   OH224333   5.471   5.293   1.605 -0.1384  0.5465 -0.6516
  925TIP3    H124334   5.557   5.262   1.577 -0.0963  1.5922 -1.7898
  925TIP3    H224335   5.413   5.272   1.532 -1.2416 -1.5752  0.7330
  926TIP3   OH224336   6.490   3.388   7.433  0.4372 -0.2815  0.2172
  926TIP3    H124337   6.518   3.478   7.451 -0.3478 -0.0871  0.5070
  926TIP3    H224338   6.470   3.387   7.340  2.2222 -0.6615 -0.2035
  927TIP3   OH224339   3.364   5.755   1.839  0.0321  0.5864  0.2606
  927TIP3    H124340   3.449   5.712   1.840 -0.9984 -1.7802 -2.2491
  927TIP3    H224341   3.360   5.798   1.754 -2.6202 -2.5293 -1.3609
  928TIP3   OH224342   2.830   2.267   7.812 -0.1723 -0.7314 -0.3310
  928TIP3    H124343   2.838   2.310   7.897 -2.6384  1.1486 -0.9374
  928TIP3    H224344   2.778   2.188   7.830 -1.7964  0.3240 -0.2305
  929TIP3   OH224345   4.359   1.886   1.491  0.1767 -0.5492  0.4233
  929TIP3    H124346   4.321   1.812   1.537  0.9681 -0.2771  1.5518
  929TIP3    H224347   4.418   1.846   1.427  0.0096 -0.9075  0.4903
  930TIP3   OH224348   4.823   1.541   0.600 -0.0242  0.6166 -0.7039
  930TIP3    H124349   4.855   1.492   0.676  1.4292  0.6085 -1.2981
  930TIP3    H224350   4.790   1.473   0.541 -2.4156  0.6934  0.4177
  931TIP3   OH224351   0.365   6.845   0.617  0.7104 -0.3250  0.2384
  931TIP3    H124352   0.318   6.900   0.680 -0.7088 -1.6417  0.3712
  931TIP3    H224353   0.454   6.880   0.617  0.0476  1.4934  0.8573
  932TIP3   OH224354   1.256   2.767   0.333  0.0718 -0.1272 -0.2216
  932TIP3    H124355   1.287   2.678   0.348 -0.0971  0.1008  1.6443
  932TIP3    H224356   1.264   2.779   0.238  2.5972 -1.2046 -0.2276
  933TIP3   OH224357   3.629   5.711   8.567  0.2031  0.4050 -0.2450
  933TIP3    H124358   3.557   5.772   8.581  0.2162  0.1909  0.8441
  933TIP3    H224359   3.662   5.732   8.480  0.4768  2.2226  0.2628
  934TIP3   OH224360   6.538   3.555   8.027 -0.8733 -0.4135  0.5314
  934TIP3    H124361   6.484   3.546   8.106 -2.4715  2.2578 -0.1553
  934TIP3    H224362   6.476   3.544   7.954 -0.0939  0.6342 -0.3079
  935TIP3   OH224363   4.373   5.174   0.761  0.4272  0.2974 -0.1771
  935TIP3    H124364   4.324   5.255   0.771  2.2675  1.4175  0.1660
  935TIP3    H224365   4.434   5.191   0.689  1.8449 -0.2355  0.8629
  936TIP3   OH224366   3.886   3.523   0.574 -0.5330 -0.5332  0.1082
  936TIP3    H124367   3.864   3.527   0.481 -0.3042  0.8847  0.0926
  936TIP3    H224368   3.803   3.507   0.618 -0.9777  0.7686 -0.2162
  937TIP3   OH224369   4.564   6.017   8.024 -0.2926  0.4423  0.0589
  937TIP3    H124370   4.497   6.048   8.084  0.5680  1.0172  0.7641
  937TIP3    H224371   4.540   5.927   8.004  0.3353 -0.3973  2.6986
  938TIP3   OH224372   4.962   3.355   8.055 -0.5459  0.1479 -0.3600
  938TIP3    H124373   4.907   3.345   8.133 -0.6950  0.6334 -0.4000
  938TIP3    H224374   4.899   3.367   7.984 -0.3959  2.3000 -0.1933
  939TIP3   OH224375   1.667   0.561   1.591 -0.2541  0.5464 -0.6809
  939TIP3    H124376   1.631   0.607   1.666  1.8742  1.0873  0.0861
  939TIP3    H224377   1.591   0.523   1.547 -1.8180  2.5421  0.1576
  940TIP3   OH224378   6.035   1.472   6.292  0.4797 -0.1269 -0.0429
  940TIP3    H124379   5.942   1.492   6.283  0.5499 -0.1745 -0.9379
  940TIP3    H224380   6.068   1.540   6.351  0.1066  0.5780 -0.6277
  941TIP3   OH224381   2.998   1.646   8.262  0.2208 -0.6912 -0.0125
  941TIP3    H124382   3.077   1.640   8.315  0.0513 -0.3027  0.2915
  941TIP3    H224383   3.030   1.662   8.173  0.4769  0.1560  0.2181
  942TIP3   OH224384   2.850   1.635   7.939  0.6111 -1.0529 -0.4613
  942TIP3    H124385   2.897   1.712   7.906  0.7256 -0.7495  0.3773
  942TIP3    H224386   2.898   1.611   8.019 -0.2833 -1.1265  0.0643
  943TIP3   OH224387   0.200   1.146   8.144  0.1408  0.1866 -0.3524
  943TIP3    H124388   0.120   1.166   8.193  0.3697  0.0515  0.0864
  943TIP3    H224389   0.238   1.232   8.124  0.6692  0.2385  0.7699
  944TIP3   OH224390   1.442   0.465   7.513  0.8022  0.2452 -0.4229
  944TIP3    H124391   1.369   0.444   7.454  1.1951 -0.2945 -0.7300
  944TIP3    H224392   1.434   0.401   7.584  0.5484  0.6592 -0.0703
  945TIP3   OH224393   1.474   3.778   2.416 -0.0310 -0.1323 -0.1135
  945TIP3    H124394   1.502   3.751   2.503 -0.5114 -1.3135 -0.3111
  945TIP3    H224395   1.548   3.759   2.360  0.0918  0.1595 -0.0554
  946TIP3   OH224396   4.679   6.154   1.362 -0.3972  0.1877  0.1898
  946TIP3    H124397   4.606   6.209   1.390 -1.7813 -0.8016 -1.3150
  946TIP3    H224398   4.752   6.179   1.420 -1.5483  2.0983  0.8849
  947TIP3   OH224399   6.357   0.878   1.114 -0.2651 -0.0376 -0.3192
  947TIP3    H124400   6.415   0.904   1.186 -0.6683 -0.6699  0.2522
  947TIP3    H224401   6.415   0.835   1.051  0.4466  2.3048 -1.3690
  948TIP3   OH224402   4.049   1.338   8.077 -0.0112 -0.2705 -0.9692
  948TIP3    H124403   3.991   1.265   8.057  0.9033 -1.3633  0.1692
  948TIP3    H224404   4.103   1.307   8.150  2.2072  0.5605 -2.1528
  949TIP3   OH224405   2.311   4.506   0.828 -0.1341  0.2364 -0.6456
  949TIP3    H124406   2.369   4.488   0.754 -0.2195  0.2471 -0.7154
  949TIP3    H224407   2.318   4.428   0.883 -0.1403  0.1886 -0.7116
  950TIP3   OH224408   3.941   3.834   8.045 -0.6304 -0.5673  0.3108
  950TIP3    H124409   3.846   3.832   8.054 -0.8232  1.5233 -0.6930
  950TIP3    H224410   3.956   3.821   7.952  0.2063 -2.5264  0.6710
  951TIP3   OH224411   0.993   6.200   0.773 -0.3701 -0.4139 -0.3252
  951TIP3    H124412   0.985   6.281   0.825 -0.3789 -1.1654  0.8819
  951TIP3    H224413   0.903   6.166   0.770  0.0494 -1.9456  1.8318
  952TIP3   OH224414   0.709   6.101   7.910  0.9298  0.0096  0.3869
  952TIP3    H124415   0.673   6.187   7.887 -1.3478 -0.7395  0.8998
  952TIP3    H224416   0.708   6.100   8.006 -0.6902 -1.1762  0.3945
  953TIP3   OH224417   3.757   4.675   1.701  0.0526 -0.6544 -0.2578
  953TIP3    H124418   3.675   4.627   1.700 -0.3160 -0.0492  0.2766
  953TIP3    H224419   3.782   4.677   1.794  0.8154 -1.0745 -0.4432
  954TIP3   OH224420   2.994   4.337   1.173  1.0097 -0.0826  0.4594
  954TIP3    H124421   2.944   4.274   1.225  2.4519  0.6876  2.9106
  954TIP3    H224422   3.066   4.286   1.136 -0.0325 -0.6359 -0.9149
  955TIP3   OH224423   3.688   5.358   0.187 -0.1988  0.2008  0.0603
  955TIP3    H124424   3.644   5.278   0.218  0.3457  0.5243  1.7906
  955TIP3    H224425   3.617   5.413   0.154 -0.5781 -0.9972 -1.2263
  956TIP3   OH224426   1.362   2.607   6.300 -0.2278 -0.1347  0.4714
  956TIP3    H124427   1.411   2.537   6.344 -0.0478 -0.9312 -0.9425
  956TIP3    H224428   1.430   2.661   6.259 -0.4421  0.0508  0.3621
  957TIP3   OH224429   0.308   1.110   1.106 -0.2269  0.0021  0.6357
  957TIP3    H124430   0.382   1.162   1.075  0.0458 -0.6330  0.1863
  957TIP3    H224431   0.294   1.138   1.196 -0.3214  1.1032  0.3001
  958TIP3   OH224432   2.894   2.255   7.001  0.0279  0.8709  0.2051
  958TIP3    H124433   2.803   2.248   7.031  0.1547 -0.8011  0.2682
  958TIP3    H224434   2.890   2.234   6.908  0.4054  0.3300  0.3094
  959TIP3   OH224435   6.054   4.248   7.850 -0.1417  0.1504 -0.1537
  959TIP3    H124436   6.119   4.317   7.864  0.3332  0.0073 -1.5668
  959TIP3    H224437   6.049   4.237   7.755 -0.8897 -1.1299  0.0021
  960TIP3   OH224438   0.198   3.290   6.968 -0.4502  0.5733  0.0726
  960TIP3    H124439   0.217   3.316   6.878  1.1126  1.3392  0.6061
  960TIP3    H224440   0.198   3.194   6.965  0.6236  0.5774 -0.5466
  961TIP3   OH224441   3.889   6.858   8.482  0.3318 -0.0945  0.3016
  961TIP3    H124442   3.917   6.798   8.414  1.4486  0.2149  0.4721
  961TIP3    H224443   3.969   6.903   8.509 -0.2292  0.3631  1.2514
  962TIP3   OH224444   0.862   3.862   1.048 -0.1948 -0.6503  0.1231
  962TIP3    H124445   0.825   3.941   1.009  1.0919 -0.3673 -0.5594
  962TIP3    H224446   0.887   3.808   0.973 -0.2419 -1.3172  0.5811
  963TIP3   OH224447   2.810   6.351   8.580  0.3078 -0.4200  0.5055
  963TIP3    H124448   2.774   6.422   8.635 -2.3501 -1.4137  0.2216
  963TIP3    H224449   2.791   6.271   8.630 -0.5314 -1.2043 -1.0114
  964TIP3   OH224450   3.810   2.641   7.471  0.1370  0.5510 -0.1785
  964TIP3    H124451   3.818   2.699   7.546 -3.3328 -0.4540  1.1802
  964TIP3    H224452   3.895   2.599   7.462  1.3284  2.4492  1.6750
  965TIP3   OH224453   6.091   4.852   1.744 -0.1641  0.1029  0.1233
  965TIP3    H124454   6.139   4.784   1.696 -0.7139  0.4226 -0.9251
  965TIP3    H224455   6.106   4.832   1.836  0.1922 -1.0701 -0.1716
  966TIP3   OH224456   3.137   0.299   1.208  0.5163 -0.2191 -1.1675
  966TIP3    H124457   3.215   0.245   1.215  0.5761 -0.0440 -0.2256
  966TIP3    H224458   3.072   0.255   1.263  0.3046  0.2045 -1.0675
  967TIP3   OH224459   0.783   2.128   0.119  0.2579 -0.0964  0.1830
  967TIP3    H124460   0.694   2.165   0.121 -0.3122 -1.4068  0.3923
  967TIP3    H224461   0.796   2.091   0.206  0.5647 -0.8973 -0.1938
  968TIP3   OH224462   3.843   6.733   7.353 -0.2133  0.1991  0.4178
  968TIP3    H124463   3.837   6.815   7.401  0.7661 -0.4870  1.7908
  968TIP3    H224464   3.806   6.667   7.412 -0.7456 -0.3914 -0.5515
  969TIP3   OH224465   2.419   2.313   0.004 -0.2103  0.2362 -0.4058
  969TIP3    H124466   2.428   2.396   0.051 -2.9454  0.1839  0.3644
  969TIP3    H224467   2.395   2.340  -0.085  0.7365  0.2665 -0.6629
  970TIP3   OH224468   3.890   6.631   0.867 -0.0528  0.3159 -0.7758
  970TIP3    H124469   3.946   6.680   0.806 -0.1068 -0.6228 -1.6011
  970TIP3    H224470   3.942   6.555   0.891  0.0230  0.7555  0.4932
  971TIP3   OH224471   5.501   6.356   6.847 -0.0522 -0.2626 -0.2369
  971TIP3    H124472   5.455   6.439   6.852  0.3681  0.0023 -0.6906
  971TIP3    H224473   5.473   6.317   6.765  1.6403  0.5852 -1.2683
  972TIP3   OH224474   5.621   3.430   7.386  0.2125 -0.0460  0.4846
  972TIP3    H124475   5.617   3.373   7.463  0.5253  0.0095  0.5401
  972TIP3    H224476   5.698   3.400   7.338  0.8985  0.9115  0.9659
  973TIP3   OH224477   6.628   1.937   7.078 -0.6509  1.2716 -0.2095
  973TIP3    H124478   6.692   1.920   7.009 -1.0870 -0.3276 -0.2489
  973TIP3    H224479   6.667   2.006   7.131  0.5743  1.1370 -0.9145
  974TIP3   OH224480   6.866   0.264   1.020  0.1955 -0.7631  0.5352
  974TIP3    H124481   6.795   0.317   1.056  0.5090 -0.4948  0.7596
  974TIP3    H224482   6.849   0.261   0.926  0.6629  0.4702  0.3977
  975TIP3   OH224483   6.410   1.356   7.255  0.2287  0.0814  0.2714
  975TIP3    H124484   6.360   1.411   7.194 -0.4280 -0.5365  0.2394
  975TIP3    H224485   6.416   1.272   7.210 -0.8896 -0.6039  1.3596
  976TIP3   OH224486   4.805   6.511   1.318  0.5956  0.3466 -0.3838
  976TIP3    H124487   4.876   6.519   1.255  0.2574 -1.1819 -1.0175
  976TIP3    H224488   4.833   6.442   1.378  0.4451  1.0356  0.5041
  977TIP3   OH224489   1.478   1.634   0.659  0.1055  0.1023 -0.1506
  977TIP3    H124490   1.540   1.580   0.708 -0.9207 -1.4561 -0.4971
  977TIP3    H224491   1.518   1.644   0.573 -1.0894 -2.8671 -1.1487
  978TIP3   OH224492   2.208   6.647   8.350 -0.0538  0.5269  0.1512
  978TIP3    H124493   2.184   6.691   8.268  3.0069 -0.6729 -1.5784
  978TIP3    H224494   2.196   6.554   8.332 -0.6033  0.2937  1.5822
  979TIP3   OH224495   6.391   1.125   6.246 -0.0989 -0.1045 -0.3168
  979TIP3    H124496   6.319   1.144   6.305  0.9888  0.2408  0.9413
  979TIP3    H224497   6.399   1.030   6.247  0.7721 -0.0380  1.1870
  980TIP3   OH224498   4.049   4.747   6.917 -0.2959  0.3416  0.5902
  980TIP3    H124499   4.028   4.679   6.854 -0.7424 -0.0893  1.1963
  980TIP3    H224500   4.136   4.724   6.950 -0.4777  0.0236  0.8479
  981TIP3   OH224501   2.423   1.109   1.658 -0.1897  0.6577  0.1006
  981TIP3    H124502   2.453   1.077   1.743  2.6280  2.1099 -0.2448
  981TIP3    H224503   2.491   1.083   1.597 -2.3168 -0.6608 -1.8869
  982TIP3   OH224504   6.487   5.548   0.414  0.1586 -0.2180  0.6242
  982TIP3    H124505   6.428   5.576   0.344  0.3189 -0.1595  0.5117
  982TIP3    H224506   6.552   5.493   0.370  1.5375  1.5579  0.3327
  983TIP3   OH224507   2.824   5.990   7.779 -0.1339 -0.1928  0.1531
  983TIP3    H124508   2.731   5.967   7.782 -0.1734  0.0110  2.0631
  983TIP3    H224509   2.868   5.914   7.817  0.1717  0.8508  1.9947
  984TIP3   OH224510   3.474   3.979   7.783  1.2978  0.1674 -0.3807
  984TIP3    H124511   3.477   3.920   7.708  2.4113  0.5653 -0.6573
  984TIP3    H224512   3.540   4.045   7.765  0.9309  0.7980  0.5197
  985TIP3   OH224513   5.546   5.232   1.934  0.1305  0.0664 -0.3365
  985TIP3    H124514   5.566   5.317   1.896 -1.8565  0.7492  0.0546
  985TIP3    H224515   5.573   5.239   2.026  2.0051 -0.5140 -0.8064
  986TIP3   OH224516   2.228   4.237   2.301 -0.0495  0.2599  0.5971
  986TIP3    H124517   2.246   4.168   2.365  1.0962 -0.2075 -0.1875
  986TIP3    H224518   2.178   4.302   2.349 -1.4614 -1.2584  1.2785
  987TIP3   OH224519   1.952   1.971   7.899 -0.1969  0.0860 -0.5072
  987TIP3    H124520   1.917   1.985   7.811  0.6811  1.0528 -0.7213
  987TIP3    H224521   1.942   2.055   7.944  0.1771 -0.1399  0.0173
  988TIP3   OH224522   3.616   4.963   7.651  0.2275 -0.5714 -0.8179
  988TIP3    H124523   3.618   4.886   7.707 -0.7099 -0.6489 -0.8717
  988TIP3    H224524   3.636   4.931   7.564  0.1719 -0.7034 -0.7821
  989TIP3   OH224525   0.135   1.709   0.442 -0.0323 -0.1290  0.0706
  989TIP3    H124526   0.226   1.693   0.419  0.3311 -0.0605  1.3602
  989TIP3    H224527   0.085   1.645   0.391  0.8216 -0.8354  0.1047
  990TIP3   OH224528   3.270   1.078   0.238 -0.1709  0.3204 -0.3742
  990TIP3    H124529   3.284   1.138   0.165 -1.0572  2.4361  1.0804
  990TIP3    H224530   3.190   1.109   0.279  0.2485 -0.8417  1.4363
  991TIP3   OH224531   2.627   2.422   8.420  0.1048  0.1660  0.1808
  991TIP3    H124532   2.713   2.385   8.397 -0.0876 -0.6348  0.6795
  991TIP3    H224533   2.646   2.487   8.488  0.4114  0.7140 -0.4208
  992TIP3   OH224534   3.023   4.035   8.046  0.2526  0.3264 -0.3036
  992TIP3    H124535   3.118   4.024   8.056  0.3998 -0.0455 -1.8837
  992TIP3    H224536   2.996   3.962   7.990 -0.6510  1.4604 -1.3903
  993TIP3   OH224537   1.874   1.669   7.803 -0.4014  0.0248 -0.6414
  993TIP3    H124538   1.805   1.711   7.752 -1.1585 -1.5031 -0.9357
  993TIP3    H224539   1.831   1.595   7.845  0.9624 -0.6928 -0.4505
  994TIP3   OH224540   2.277   2.675   7.379 -0.5501 -0.3866 -0.4135
  994TIP3    H124541   2.346   2.614   7.354 -0.2070 -0.9156  1.6646
  994TIP3    H224542   2.279   2.742   7.311  2.3051 -0.1560 -0.2116
  995TIP3   OH224543   1.099   3.604   1.688  0.1345 -0.2934  0.5259
  995TIP3    H124544   1.143   3.624   1.606  0.9597 -1.5454  0.6338
  995TIP3    H224545   1.044   3.680   1.706  2.5142  1.5235  0.5429
  996TIP3   OH224546   3.069   5.059   6.517  0.6321  0.2772 -0.7635
  996TIP3    H124547   3.004   5.016   6.461  0.5023  0.0511 -0.4403
  996TIP3    H224548   3.134   4.991   6.536 -0.2607 -0.1708  0.8349
  997TIP3   OH224549   0.763   3.219   0.207  0.0059  0.0229 -0.1932
  997TIP3    H124550   0.844   3.271   0.202 -0.2795  0.5957  0.8351
  997TIP3    H224551   0.792   3.133   0.239  0.3738 -0.2130 -1.1228
  998TIP3   OH224552   1.061   2.620   7.595  0.4566  0.2656  0.4706
  998TIP3    H124553   1.037   2.615   7.687  1.2170 -1.0655  0.6192
  998TIP3    H224554   0.980   2.646   7.550 -0.6702 -1.7313  1.2204
  999TIP3   OH224555   1.794   4.296   7.356 -0.0292 -0.0120  0.3439
  999TIP3    H124556   1.846   4.317   7.434 -1.1955 -0.6447  1.3251
  999TIP3    H224557   1.733   4.369   7.348  0.7587  0.5624 -0.6085
 1000TIP3   OH224558   3.737   6.226   8.267 -0.3592  0.6555 -0.5366
 1000TIP3    H124559   3.818   6.190   8.232  0.1935  1.7109 -0.3754
 1000TIP3    H224560   3.675   6.152   8.265  0.2690  0.1420 -1.6997
 1001TIP3   OH224561   1.366   4.133   2.260 -0.3217 -0.0951  0.2686
 1001TIP3    H124562   1.336   4.066   2.322 -1.9244  0.8423  0.5640
 1001TIP3    H224563   1.299   4.134   2.192  0.0785  0.6934 -0.1235
 1002TIP3   OH224564   4.121   0.086   7.374  0.2969  0.3991  0.6287
 1002TIP3    H124565   4.147   0.087   7.466  0.9817  1.6247  0.4569
 1002TIP3    H224566   4.193   0.041   7.329  0.1568  0.1639  0.6365
 1003TIP3   OH224567   4.316   1.387   8.612  0.1767 -0.2290  0.6638
 1003TIP3    H124568   4.333   1.429   8.696  1.7860  0.9427 -0.1866
 1003TIP3    H224569   4.236   1.428   8.579  0.4679  0.5163  0.8803
 1004TIP3   OH224570   0.511   6.775   1.571 -0.4186 -0.0970 -0.1616
 1004TIP3    H124571   0.469   6.787   1.485 -0.9503 -0.6461  0.0093
 1004TIP3    H224572   0.455   6.711   1.615  1.6208 -2.3392 -0.6381
 1005TIP3   OH224573   1.296   5.123   1.113  0.3237  0.0204  0.2630
 1005TIP3    H124574   1.228   5.173   1.067  0.0434  0.4283  1.1008
 1005TIP3    H224575   1.373   5.179   1.111  0.8282 -0.6881 -1.2012
 1006TIP3   OH224576   0.730   1.177   1.709 -0.4012 -0.1776 -0.2997
 1006TIP3    H124577   0.688   1.111   1.763 -0.8828 -0.1044 -0.5825
 1006TIP3    H224578   0.823   1.169   1.730 -0.6374  0.2655  0.9747
 1007TIP3   OH224579   3.188   1.469   6.956 -0.2850 -0.4159  1.0107
 1007TIP3    H124580   3.191   1.394   7.015 -1.1078 -0.4764  0.9954
 1007TIP3    H224581   3.256   1.452   6.892 -0.5181 -1.2053  0.9580
 1008TIP3   OH224582   4.163   3.614   8.632 -0.3867 -0.5096  0.3058
 1008TIP3    H124583   4.200   3.607   8.544 -0.1427 -1.6451  0.4863
 1008TIP3    H224584   4.075   3.576   8.624  0.2777 -2.2578  0.9118
 1009TIP3   OH224585   0.176   4.283   8.152  0.4136 -0.1993 -0.2976
 1009TIP3    H124586   0.240   4.235   8.204  0.7830  0.4519 -0.1435
 1009TIP3    H224587   0.129   4.337   8.215 -1.0541 -1.4512 -0.2377
 1010TIP3   OH224588   2.085   6.586   6.655 -0.4832 -0.0934  0.1265
 1010TIP3    H124589   2.075   6.503   6.702  1.7042 -0.8498 -0.6422
 1010TIP3    H224590   2.002   6.596   6.608 -1.1077 -1.4227  0.8611
 1011TIP3   OH224591   2.303   0.656   0.724  0.1964  0.3662  0.7160
 1011TIP3    H124592   2.274   0.727   0.781 -2.9670  1.2756 -1.7306
 1011TIP3    H224593   2.287   0.576   0.775  1.0747  1.2280  2.4280
 1012TIP3   OH224594   1.889   4.621   0.885  0.0909  0.3711 -0.2755
 1012TIP3    H124595   1.973   4.619   0.930  1.5199  0.1535 -2.7795
 1012TIP3    H224596   1.859   4.530   0.885 -0.8685  0.6311  1.7567
 1013TIP3   OH224597   2.126   4.425   0.387 -0.8156 -0.1769  0.6346
 1013TIP3    H124598   2.217   4.453   0.372 -1.7124  2.5833 -0.1984
 1013TIP3    H224599   2.115   4.431   0.482 -0.5724  1.1515  0.5987
 1014TIP3   OH224600   4.519   1.382   7.676  0.0184 -0.1201 -0.4251
 1014TIP3    H124601   4.559   1.317   7.733 -0.0139  1.1359  1.0947
 1014TIP3    H224602   4.590   1.440   7.650 -0.2410  0.2313 -0.3671
 1015TIP3   OH224603   2.122   6.040   0.381 -0.5025 -0.2338 -0.1447
 1015TIP3    H124604   2.042   5.987   0.375 -0.4750 -0.4845  1.1984
 1015TIP3    H224605   2.184   5.997   0.323 -1.2633 -0.1677 -1.0369
 1016TIP3   OH224606   4.907   2.736   0.028 -0.1624  0.1046 -0.3098
 1016TIP3    H124607   4.827   2.746   0.079  0.4099 -0.1396  0.6718
 1016TIP3    H224608   4.932   2.825   0.004 -0.2534  0.2510  0.1337
 1017TIP3   OH224609   2.032   5.188   1.593 -0.2254 -0.2177  0.3447
 1017TIP3    H124610   2.005   5.133   1.666 -1.5945 -0.7002 -0.4931
 1017TIP3    H224611   2.022   5.133   1.515  2.6278 -0.2277 -0.1371
 1018TIP3   OH224612   0.635   5.173   1.341 -0.3160 -0.0331  0.2877
 1018TIP3    H124613   0.692   5.125   1.281 -0.0477 -0.7550  1.0904
 1018TIP3    H224614   0.623   5.113   1.415 -3.4607 -0.6293 -0.5273
 1019TIP3   OH224615   2.449   1.171   1.128 -0.1151  0.1824 -0.0799
 1019TIP3    H124616   2.480   1.138   1.212 -0.1971  0.3396  0.0133
 1019TIP3    H224617   2.458   1.266   1.135 -2.0110  0.3777  0.5298
 1020TIP3   OH224618   3.018   5.128   2.365  0.3181 -0.2451 -0.0567
 1020TIP3    H124619   2.973   5.197   2.316  1.8107  1.5296  0.9565
 1020TIP3    H224620   3.111   5.146   2.352  0.7618 -1.9969  0.3945
 1021TIP3   OH224621   4.380   3.878   7.681  0.0417 -0.5458  0.2018
 1021TIP3    H124622   4.316   3.810   7.702  1.4889 -2.4948 -1.3263
 1021TIP3    H224623   4.459   3.853   7.729  0.7935 -0.3421 -0.8717
 1022TIP3   OH224624   6.178   2.399   6.405 -0.2926 -0.1803  0.6243
 1022TIP3    H124625   6.144   2.429   6.320  0.3561 -0.8784  0.1116
 1022TIP3    H224626   6.107   2.418   6.467 -0.6256  0.6772 -0.0055
 1023TIP3   OH224627   4.521   2.879   0.589 -0.3833  0.6134  0.3956
 1023TIP3    H124628   4.440   2.909   0.630 -0.5874 -0.0886  0.5208
 1023TIP3    H224629   4.493   2.811   0.528 -0.1373  1.9254 -1.2507
 1024TIP3   OH224630   3.686   4.129   7.731 -0.1187 -0.0219 -0.2545
 1024TIP3    H124631   3.773   4.156   7.699  0.0289 -0.0097  0.1545
 1024TIP3    H224632   3.693   4.133   7.826  0.4636 -3.1505 -0.0561
 1025TIP3   OH224633   1.099   0.240   1.837  0.4025  0.0635 -0.0233
 1025TIP3    H124634   1.050   0.266   1.915  0.2388 -0.5866  0.0956
 1025TIP3    H224635   1.032   0.219   1.772  0.5032  2.8727 -1.1595
 1026TIP3   OH224636   2.441   3.244   1.025  0.4907  0.2472  0.4375
 1026TIP3    H124637   2.352   3.255   1.058  0.4334  1.5658 -0.0967
 1026TIP3    H224638   2.432   3.186   0.949 -0.0869  1.2924 -0.3094
 1027TIP3   OH224639   4.690   0.301   6.481  0.0793 -0.8245  0.3400
 1027TIP3    H124640   4.629   0.312   6.554 -1.5833 -2.7263 -0.6664
 1027TIP3    H224641   4.635   0.270   6.408  1.8386 -0.0322 -1.4212
 1028TIP3   OH224642   5.563   3.167   0.464  0.4075  0.4831  0.3089
 1028TIP3    H124643   5.554   3.251   0.418  0.5526  1.2593  1.6607
 1028TIP3    H224644   5.483   3.160   0.516  0.0549 -0.5862 -0.3486
 1029TIP3   OH224645   5.686   4.353   2.380 -0.2788 -0.2778 -0.1084
 1029TIP3    H124646   5.632   4.338   2.458 -0.9971 -0.0059 -0.5453
 1029TIP3    H224647   5.633   4.411   2.325 -0.1112 -1.0602 -1.1306
 1030TIP3   OH224648   1.690   1.460   6.313  0.2678 -0.9648  0.2067
 1030TIP3    H124649   1.627   1.443   6.243 -0.4173  1.5220  0.1481
 1030TIP3    H224650   1.769   1.487   6.266 -0.7687  2.6228  0.2757
 1031TIP3   OH224651   3.910   6.457   1.973 -0.3218  0.5009  0.5493
 1031TIP3    H124652   3.978   6.391   1.959  0.2249  0.9405  1.0845
 1031TIP3    H224653   3.955   6.528   2.018 -0.8491  1.3452 -0.2319
 1032TIP3   OH224654   2.484   1.118   0.785  0.1830  0.7047  0.2372
 1032TIP3    H124655   2.558   1.178   0.787  0.9099 -0.0441 -1.9765
 1032TIP3    H224656   2.499   1.062   0.709 -1.2671 -1.2785  1.3019
 1033TIP3   OH224657   2.646   0.337   8.392 -0.3555  0.4387  0.3420
 1033TIP3    H124658   2.662   0.300   8.478 -2.2324 -0.5058  0.3407
 1033TIP3    H224659   2.696   0.282   8.332 -0.3047  0.1122  0.6820
 1034TIP3   OH224660   0.851   0.922   8.588 -0.6937 -0.0398  0.5840
 1034TIP3    H124661   0.875   0.833   8.563 -1.9884 -0.0454 -0.8052
 1034TIP3    H224662   0.768   0.938   8.543 -1.9022  0.9189  2.9766
 1035TIP3   OH224663   1.044   1.308   1.003  0.4817  0.5777 -0.5359
 1035TIP3    H124664   1.115   1.245   1.018 -1.4892 -1.6284  0.2916
 1035TIP3    H224665   1.040   1.317   0.908  1.0622 -0.2696 -0.6555
 1036TIP3   OH224666   1.392   0.056   1.268  0.5365  0.3470  0.4070
 1036TIP3    H124667   1.409   0.054   1.362  1.1073  0.7044  0.3122
 1036TIP3    H224668   1.389   0.149   1.246 -2.6870  0.4110  0.6097
 1037TIP3   OH224669   6.646   6.453   1.400  0.5319  0.3468 -0.0818
 1037TIP3    H124670   6.561   6.422   1.431 -0.2898  2.9743  0.5625
 1037TIP3    H224671   6.699   6.463   1.479  0.7995  0.4830 -0.2751
 1038TIP3   OH224672   1.381   1.932   2.273 -0.0837  0.4455  0.3833
 1038TIP3    H124673   1.412   1.880   2.348  0.1759  0.0950  0.0352
 1038TIP3    H224674   1.369   2.020   2.308  0.1062  0.2999  0.8206
 1039TIP3   OH224675   4.193   4.261   2.782  0.2082  0.1019  0.3887
 1039TIP3    H124676   4.129   4.197   2.749 -1.0698  0.9835  1.0742
 1039TIP3    H224677   4.172   4.342   2.736  1.0234  0.3422  0.4238
 1040TIP3   OH224678   1.535   1.070   1.120  0.9026 -0.4104 -0.5059
 1040TIP3    H124679   1.513   1.105   1.206  0.8933  0.7832 -0.9791
 1040TIP3    H224680   1.568   0.981   1.138  0.5602 -0.3122  0.6797
 1041TIP3   OH224681   2.356   6.513   1.326 -0.1099 -0.3150 -0.9350
 1041TIP3    H124682   2.356   6.462   1.245 -0.4259  1.4146 -2.0851
 1041TIP3    H224683   2.267   6.547   1.333  0.3565  0.9100 -0.7787
 1042TIP3   OH224684   1.110   0.549   6.977 -0.7425  0.2295  0.2650
 1042TIP3    H124685   1.186   0.511   6.932 -0.8514 -0.0755  0.3363
 1042TIP3    H224686   1.035   0.515   6.929 -0.8477  0.2212  0.4351
 1043TIP3   OH224687   1.890   2.241   7.889 -0.2780 -0.0305  0.0921
 1043TIP3    H124688   1.950   2.270   7.820  1.6547 -1.2520  1.1845
 1043TIP3    H224689   1.901   2.305   7.959  2.7208 -2.1515  1.8128
 1044TIP3   OH224690   6.679   1.550   8.441  0.3186  0.9441 -0.4543
 1044TIP3    H124691   6.604   1.491   8.448  1.0473  0.0455  0.0231
 1044TIP3    H224692   6.655   1.612   8.372 -0.7730  0.5500 -0.4468
 1045TIP3   OH224693   4.508   4.293   7.712  0.5772  0.1060  0.2952
 1045TIP3    H124694   4.412   4.297   7.716  0.5356 -1.2956  1.2614
 1045TIP3    H224695   4.535   4.385   7.709 -0.7849  0.5369  0.4077
 1046TIP3   OH224696   1.797   2.836   2.652 -0.5102 -0.3832  0.4277
 1046TIP3    H124697   1.733   2.904   2.629 -1.4016 -1.1556  0.5645
 1046TIP3    H224698   1.874   2.856   2.599 -0.9989  0.3403 -0.0268
 1047TIP3   OH224699   0.569   2.762   0.434  0.1613 -0.5105 -0.6491
 1047TIP3    H124700   0.612   2.756   0.519  0.6277 -0.7160 -0.9011
 1047TIP3    H224701   0.502   2.830   0.446  1.1110  0.4205 -0.4974
 1048TIP3   OH224702   0.753   6.094   0.750 -0.4089 -0.6556  0.2656
 1048TIP3    H124703   0.671   6.114   0.796 -1.7941 -2.0283 -1.4875
 1048TIP3    H224704   0.771   6.003   0.772  0.8791 -0.2752  0.8966
 1049TIP3   OH224705   2.187   6.621   0.512  0.0647 -0.3728  0.2011
 1049TIP3    H124706   2.246   6.643   0.584  1.1534 -1.6692 -0.2693
 1049TIP3    H224707   2.225   6.543   0.472 -0.0003  0.8076 -2.3577
 1050TIP3   OH224708   4.965   3.310   7.298  0.5575 -0.0094 -0.1864
 1050TIP3    H124709   4.914   3.262   7.364  0.2474 -0.4479 -0.7340
 1050TIP3    H224710   4.956   3.402   7.323  1.0272 -0.2125  0.7896
 1051TIP3   OH224711   4.854   1.661   1.069  0.0007 -0.2017 -0.8225
 1051TIP3    H124712   4.893   1.619   0.993  0.1195  0.0695 -0.9128
 1051TIP3    H224713   4.795   1.594   1.106 -0.6108 -0.0882 -1.5645
 1052TIP3   OH224714   2.570   3.516   1.960 -0.4306  0.3237 -0.8075
 1052TIP3    H124715   2.504   3.451   1.982  0.2166 -0.4183 -0.9944
 1052TIP3    H224716   2.553   3.590   2.018 -1.5639  0.2423 -1.0214
 1053TIP3   OH224717   3.280   5.224   8.234  0.1422 -0.1874  0.0297
 1053TIP3    H124718   3.332   5.257   8.160  0.0821 -2.2104 -0.9776
 1053TIP3    H224719   3.345   5.205   8.302  0.2380  1.3048  0.3924
 1054TIP3   OH224720   2.176   0.186   6.985 -0.4856  0.4266 -0.0013
 1054TIP3    H124721   2.255   0.229   6.954  0.1077 -1.6722 -1.5554
 1054TIP3    H224722   2.181   0.193   7.080  0.8527  1.5297 -0.1214
 1055TIP3   OH224723   6.102   3.519   2.581  0.6016 -0.2829  0.0516
 1055TIP3    H124724   6.077   3.441   2.630  1.8570 -1.6403 -1.3503
 1055TIP3    H224725   6.042   3.587   2.613 -0.6554 -1.8314  1.2093
 1056TIP3   OH224726   2.640   5.850   1.247  0.6491  0.2473 -0.2177
 1056TIP3    H124727   2.659   5.941   1.270  1.4124  0.2653 -0.8388
 1056TIP3    H224728   2.714   5.824   1.191  0.0097 -0.4831 -0.7444
 1057TIP3   OH224729   0.073   3.141   2.097  0.0548 -0.2943  0.1153
 1057TIP3    H124730   0.117   3.076   2.152  2.3364  1.9418  1.1388
 1057TIP3    H224731  -0.001   3.172   2.150  1.6331  1.1065  1.5903
 1058TIP3   OH224732   4.828   5.955   8.118 -0.1939 -0.1452 -0.2695
 1058TIP3    H124733   4.749   5.965   8.064 -0.4737 -2.1113 -0.2788
 1058TIP3    H224734   4.900   5.977   8.058 -0.5859 -0.9515 -1.0569
 1059TIP3   OH224735   4.726   4.795   8.639 -0.3809 -0.5083 -0.3672
 1059TIP3    H124736   4.782   4.856   8.591 -1.5249  0.2232 -0.8422
 1059TIP3    H224737   4.647   4.846   8.659 -0.9828 -1.5654  0.0573
 1060TIP3   OH224738   6.868   2.976   0.478  0.7327  0.3874 -0.2444
 1060TIP3    H124739   6.829   3.061   0.459  0.5531  0.1625 -0.9110
 1060TIP3    H224740   6.945   2.971   0.422  0.3244 -0.1901 -0.7747
 1061TIP3   OH224741   0.756   4.640   0.669 -0.6492 -0.2463 -0.1927
 1061TIP3    H124742   0.741   4.698   0.595 -0.3611  0.5951  0.4000
 1061TIP3    H224743   0.675   4.588   0.675 -0.6793 -0.3259 -1.0807
 1062TIP3   OH224744   5.220   2.999   7.502 -0.3382 -0.6879  0.4096
 1062TIP3    H124745   5.275   2.942   7.555 -2.1479 -0.5713  2.5594
 1062TIP3    H224746   5.144   2.945   7.480  0.7915 -1.0792 -3.1096
 1063TIP3   OH224747   1.603   2.160   1.165  0.2580 -1.1967  0.2851
 1063TIP3    H124748   1.661   2.222   1.208 -0.1934  0.2422 -1.0711
 1063TIP3    H224749   1.539   2.215   1.120  0.5956 -2.5924 -2.0516
 1064TIP3   OH224750   6.194   1.177   2.812 -0.0441  0.0651  0.2067
 1064TIP3    H124751   6.283   1.171   2.776 -0.3978 -1.9858 -0.4528
 1064TIP3    H224752   6.199   1.249   2.875  1.7309  0.8663 -0.7697
 1065TIP3   OH224753   1.213   4.734   7.240 -0.5679  0.1526  0.0894
 1065TIP3    H124754   1.122   4.761   7.254 -0.6207  1.5183 -2.3985
 1065TIP3    H224755   1.213   4.690   7.155  1.2198  1.0025 -0.4027
 1066TIP3   OH224756   5.947   3.294   2.662  0.4052 -0.1939 -0.1467
 1066TIP3    H124757   5.948   3.275   2.568  1.3681  1.2052 -0.4558
 1066TIP3    H224758   5.857   3.321   2.680  0.7409  1.8493 -1.2143
 1067TIP3   OH224759   1.090   0.237   1.455 -0.3322 -0.5723  0.4891
 1067TIP3    H124760   1.091   0.164   1.393  0.8799  1.0841 -1.5468
 1067TIP3    H224761   1.172   0.229   1.504  0.3643  0.0730 -0.5558
 1068TIP3   OH224762   0.289   0.138   0.172 -0.0354  0.0275 -0.7767
 1068TIP3    H124763   0.372   0.152   0.127  0.0694  2.2165  0.0237
 1068TIP3    H224764   0.223   0.170   0.111 -0.1398  0.1665 -0.5899
 1069TIP3   OH224765   2.570   3.153   1.900 -0.3710  0.8880 -0.6228
 1069TIP3    H124766   2.663   3.131   1.892 -0.4956  0.3865 -0.7050
 1069TIP3    H224767   2.550   3.139   1.992 -0.7187 -0.4227 -0.8895
 1070TIP3   OH224768   1.922   4.775   2.380 -0.2537  0.4410  0.6458
 1070TIP3    H124769   1.905   4.699   2.436 -0.7299 -1.1824 -1.5956
 1070TIP3    H224770   1.967   4.739   2.304 -1.7127  2.1876 -1.1265
 1071TIP3   OH224771   5.727   0.954   8.641  0.4230  0.2244  0.1890
 1071TIP3    H124772   5.795   1.017   8.667  0.5781 -1.0318  3.2142
 1071TIP3    H224773   5.764   0.868   8.662 -0.6524 -0.7731 -1.7567
 1072TIP3   OH224774   1.410   0.467   0.092  0.2518  0.1846  0.2925
 1072TIP3    H124775   1.318   0.461   0.119  0.1238  0.2033 -0.1279
 1072TIP3    H224776   1.459   0.468   0.174  0.0479 -2.4524  0.5446
 1073TIP3   OH224777   0.357   1.470   1.608  0.2113 -0.6120  0.4770
 1073TIP3    H124778   0.297   1.400   1.632  0.6311 -1.3828 -0.6344
 1073TIP3    H224779   0.431   1.461   1.667 -0.7310  0.3406  1.8550
 1074TIP3   OH224780   4.745   1.535   7.641  0.2239  0.4331 -0.1715
 1074TIP3    H124781   4.794   1.487   7.709 -0.2291  0.8660  0.4731
 1074TIP3    H224782   4.794   1.617   7.630 -0.4914  0.9945  0.6832
 1075TIP3   OH224783   4.164   1.071   1.337 -0.0429  0.0498 -0.4895
 1075TIP3    H124784   4.175   1.057   1.243 -0.5274  2.4310 -0.9493
 1075TIP3    H224785   4.079   1.031   1.358 -2.0018  3.0798 -1.9964
 1076TIP3   OH224786   1.533   4.088   0.219  0.1726 -0.4850 -0.0152
 1076TIP3    H124787   1.569   4.139   0.292  0.5658 -1.3953  0.4465
 1076TIP3    H224788   1.497   4.153   0.159 -1.8578  0.2455  1.8529
 1077TIP3   OH224789   3.642   2.203   1.000  0.5253  0.0624 -0.2666
 1077TIP3    H124790   3.707   2.250   1.052  0.1409 -1.1208  1.3825
 1077TIP3    H224791   3.582   2.166   1.065 -0.6161 -0.5783 -1.6345
 1078TIP3   OH224792   5.442   0.899   0.453 -0.0609  0.9569  0.4049
 1078TIP3    H124793   5.496   0.821   0.439 -1.0442  0.3595 -0.2401
 1078TIP3    H224794   5.463   0.956   0.379 -3.5730 -1.2324 -2.6306
 1079TIP3   OH224795   5.043   6.215   2.544 -0.1176  0.1330  0.0579
 1079TIP3    H124796   5.042   6.120   2.532 -1.1478 -0.2735  2.6274
 1079TIP3    H224797   4.985   6.248   2.475 -2.1998 -1.4478  0.9248
 1080TIP3   OH224798   5.911   1.741   0.217 -0.2887  0.9984 -0.6321
 1080TIP3    H124799   5.824   1.749   0.255 -0.6845  1.6700 -1.6207
 1080TIP3    H224800   5.905   1.790   0.134  1.2690  1.7679 -0.3213
 1081TIP3   OH224801   6.736   5.789   2.609  0.1539 -0.3911  0.0554
 1081TIP3    H124802   6.829   5.811   2.599 -0.4068  1.5216 -1.6681
 1081TIP3    H224803   6.706   5.846   2.681 -0.1242  0.6085 -0.8298
 1082TIP3   OH224804   1.119   5.289   0.484  0.1626 -0.1661  0.0544
 1082TIP3    H124805   1.136   5.338   0.565  1.5047 -0.3966 -0.0721
 1082TIP3    H224806   1.162   5.341   0.416 -0.3552 -0.3490 -0.4172
 1083TIP3   OH224807   3.689   3.861   0.770  0.4899 -0.2510  0.2066
 1083TIP3    H124808   3.620   3.841   0.833 -0.3412 -0.6390 -0.8075
 1083TIP3    H224809   3.770   3.854   0.821 -0.2037  0.3029  1.4356
 1084TIP3   OH224810   5.048   1.436   8.598 -0.1114  0.2196  0.0551
 1084TIP3    H124811   4.967   1.428   8.548  0.2980 -1.6724 -0.3848
 1084TIP3    H224812   5.113   1.387   8.548  1.1771  1.1621  0.7245
 1085TIP3   OH224813   6.775   2.268   7.995  0.0034 -0.5048 -0.6645
 1085TIP3    H124814   6.773   2.230   8.083  0.5823  0.8059 -0.0694
 1085TIP3    H224815   6.692   2.315   7.988  0.8535  1.1666  0.0176
 1086TIP3   OH224816   1.683   5.533   7.332  0.1202 -0.3381 -0.3380
 1086TIP3    H124817   1.599   5.545   7.288  0.1448  1.4172  0.0067
 1086TIP3    H224818   1.690   5.608   7.392  1.3398 -1.1637  0.6127
 1087TIP3   OH224819   3.865   1.072   8.648  0.4351  0.3052 -0.0404
 1087TIP3    H124820   3.925   1.097   8.578 -0.2160 -0.8171 -1.0487
 1087TIP3    H224821   3.916   1.013   8.703  0.8812  1.0133  0.3175
 1088TIP3   OH224822   4.471   0.513   2.446  0.2104 -0.0952 -0.3587
 1088TIP3    H124823   4.523   0.442   2.483  1.4586  0.4990 -0.9180
 1088TIP3    H224824   4.530   0.557   2.385 -1.4377 -0.3195 -2.1858
 1089TIP3   OH224825   2.424   4.859   7.203  0.2795  0.5129  0.1907
 1089TIP3    H124826   2.452   4.767   7.204 -0.0348  0.4100 -0.0849
 1089TIP3    H224827   2.389   4.874   7.291  1.8835  0.8744  0.8132
 1090TIP3   OH224828   3.389   0.309   8.549  0.6205  0.1649  0.4656
 1090TIP3    H124829   3.340   0.341   8.473  0.9763  0.6832  0.4471
 1090TIP3    H224830   3.427   0.226   8.520 -0.3025 -0.2767  0.5082
 1091TIP3   OH224831   6.459   1.231   2.704 -0.4800 -0.4053 -0.2206
 1091TIP3    H124832   6.527   1.234   2.771 -0.2689  0.0798 -0.4461
 1091TIP3    H224833   6.507   1.239   2.621 -0.7917 -0.2703 -0.3922
 1092TIP3   OH224834   3.727   5.497   0.903 -0.4321 -0.3391 -0.4476
 1092TIP3    H124835   3.733   5.443   0.982 -0.9192 -0.1871 -0.3015
 1092TIP3    H224836   3.705   5.436   0.833 -1.8187 -0.2360 -0.1373
 1093TIP3   OH224837   3.963   5.494   1.390  0.1827  0.2553 -0.0927
 1093TIP3    H124838   3.880   5.520   1.349  0.8389  0.2569 -1.4732
 1093TIP3    H224839   4.029   5.548   1.348  0.7784  1.1437  1.8908
 1094TIP3   OH224840   5.311   2.907   8.052  0.3535  0.6314 -0.7975
 1094TIP3    H124841   5.286   2.878   7.964  2.0350 -1.2611 -0.7083
 1094TIP3    H224842   5.406   2.909   8.051  0.5067 -1.3149  1.4981
 1095TIP3   OH224843   3.556   5.228   7.051  0.1124 -0.1068 -0.4057
 1095TIP3    H124844   3.466   5.256   7.071 -0.4777 -2.4256  0.6778
 1095TIP3    H224845   3.599   5.226   7.136  1.5875  1.9701 -1.0318
 1096TIP3   OH224846   2.492   6.246   0.070  0.0758 -0.4026 -0.8531
 1096TIP3    H124847   2.583   6.238   0.099 -0.1312  0.0931 -0.0347
 1096TIP3    H224848   2.445   6.177   0.118 -0.1194 -0.1427 -0.6695
 1097TIP3   OH224849   1.771   3.478   8.248 -0.0560  0.0243 -0.2783
 1097TIP3    H124850   1.767   3.526   8.165  0.8503 -0.9774 -0.9170
 1097TIP3    H224851   1.822   3.535   8.306 -2.0807  1.4959  0.1577
 1098TIP3   OH224852   1.974   5.528   2.487  0.3261 -0.5749 -0.2121
 1098TIP3    H124853   2.037   5.474   2.438 -0.7439  0.1831 -2.5948
 1098TIP3    H224854   2.014   5.615   2.489 -0.3123 -0.2433 -1.1625
 1099TIP3   OH224855   2.333   5.421   1.659 -0.2080  0.5570 -0.1050
 1099TIP3    H124856   2.349   5.349   1.719 -1.7037 -0.3167 -0.6881
 1099TIP3    H224857   2.254   5.463   1.692  0.8814  2.2672  0.4826
 1100TIP3   OH224858   0.884   0.809   7.232  0.1287  0.0702  0.0081
 1100TIP3    H124859   0.823   0.740   7.205  0.2585 -0.2832  0.6026
 1100TIP3    H224860   0.870   0.879   7.168 -0.4600 -0.2489 -0.2253
 1101TIP3   OH224861   0.949   1.847   0.903  0.2983  0.3281 -0.1391
 1101TIP3    H124862   0.949   1.777   0.968  1.6274  0.4381  0.0108
 1101TIP3    H224863   0.970   1.803   0.820 -1.6170  0.1517 -0.5775
 1102TIP3   OH224864   0.142   5.146   7.897 -0.1527  0.2245 -0.1445
 1102TIP3    H124865   0.141   5.216   7.833 -1.3492 -0.3615 -0.7908
 1102TIP3    H224866   0.113   5.188   7.979 -1.7737  0.3021 -0.7372
 1103TIP3   OH224867   4.426   2.704   0.384  0.2270  1.0331  0.1978
 1103TIP3    H124868   4.508   2.655   0.388 -0.6929 -0.5408  0.8652
 1103TIP3    H224869   4.359   2.637   0.367 -0.8078  2.4201 -1.5718
 1104TIP3   OH224870   0.209   6.059   7.386  0.0831  0.5344 -0.6552
 1104TIP3    H124871   0.273   5.989   7.402 -1.6852 -0.7032  1.6527
 1104TIP3    H224872   0.146   6.019   7.326 -0.9566  0.0481  0.7048
 1105TIP3   OH224873   0.723   4.492   1.432 -0.4023 -0.0710 -0.0481
 1105TIP3    H124874   0.759   4.533   1.354 -0.5154  1.0577  0.4805
 1105TIP3    H224875   0.778   4.415   1.446 -0.0218  0.0362 -0.9061
 1106TIP3   OH224876   2.581   6.412   2.134 -0.5859 -0.2294 -1.0888
 1106TIP3    H124877   2.633   6.334   2.114 -0.8505 -1.0511  1.1280
 1106TIP3    H224878   2.494   6.378   2.153 -0.4821  0.4631  0.7892
 1107TIP3   OH224879   3.388   5.297   7.440  0.0480  0.3490  0.5440
 1107TIP3    H124880   3.310   5.305   7.385  1.0058 -0.3009 -0.9837
 1107TIP3    H224881   3.375   5.216   7.489  1.7274 -2.4935 -3.2294
 1108TIP3   OH224882   3.826   1.871   5.875  0.5102 -0.2153 -0.0512
 1108TIP3    H124883   3.832   1.957   5.916 -1.3745 -0.1673  0.2143
 1108TIP3    H224884   3.732   1.852   5.873  0.8050 -1.7309 -1.2289
 1109TIP3   OH224885   2.920   3.795   7.957  0.0376 -0.1535  0.7866
 1109TIP3    H124886   2.839   3.792   7.905  0.8667  3.3722 -1.0737
 1109TIP3    H224887   2.919   3.714   8.008 -2.6291 -2.2436 -2.1394
 1110TIP3   OH224888   4.987   6.013   7.226 -1.0502  0.3596 -0.3627
 1110TIP3    H124889   4.965   5.960   7.302  0.6155  0.7940  0.4711
 1110TIP3    H224890   4.981   5.953   7.151  3.0638 -1.8318  0.7565
 1111TIP3   OH224891   6.366   2.467   8.546  0.0420  0.1325 -0.5861
 1111TIP3    H124892   6.327   2.524   8.612  0.6134 -0.6130  0.4294
 1111TIP3    H224893   6.412   2.526   8.486 -0.1340  0.7952 -0.0708
 1112TIP3   OH224894   1.507   0.413   1.441 -0.0582 -0.3026 -0.3676
 1112TIP3    H124895   1.442   0.392   1.374 -2.8000  1.1703  1.6801
 1112TIP3    H224896   1.551   0.330   1.458 -1.3777 -1.3656 -1.8151
 1113TIP3   OH224897   5.269   4.277   7.740 -0.0716  0.6211  0.3288
 1113TIP3    H124898   5.239   4.365   7.764  0.6875  0.8866  0.3288
 1113TIP3    H224899   5.364   4.285   7.731  0.2271 -0.5609  1.9477
 1114TIP3   OH224900   2.988   6.607   6.696 -0.6035  0.5854  0.4316
 1114TIP3    H124901   2.927   6.555   6.645  0.3625  2.1120 -2.4731
 1114TIP3    H224902   3.064   6.619   6.639  0.7009  2.1445  2.3601
 1115TIP3   OH224903   2.017   1.054   8.383 -0.3248 -0.5535  0.8987
 1115TIP3    H124904   2.085   1.110   8.419 -0.2683 -0.7604  1.1153
 1115TIP3    H224905   1.936   1.103   8.396  0.0000  0.8486 -1.6099
 1116TIP3   OH224906   0.264   2.687   2.370 -0.1130  0.0846 -0.4354
 1116TIP3    H124907   0.294   2.651   2.453 -0.6557 -0.8189 -0.6169
 1116TIP3    H224908   0.177   2.648   2.357 -0.1350  0.3965 -1.3085
 1117TIP3   OH224909   5.268   6.778   0.742  0.0572 -0.4063  0.2037
 1117TIP3    H124910   5.349   6.817   0.777 -0.5142  0.5986  0.4425
 1117TIP3    H224911   5.226   6.850   0.694  0.5520 -1.5792 -2.1489
 1118TIP3   OH224912   1.353   6.229   8.448 -0.6557 -0.0362 -0.5647
 1118TIP3    H124913   1.293   6.293   8.410 -0.3370  0.8252  0.3531
 1118TIP3    H224914   1.348   6.243   8.543 -0.6336 -1.4223 -0.3287
 1119TIP3   OH224915   0.156   4.081   1.315  0.2001 -0.5167  0.4497
 1119TIP3    H124916   0.157   4.051   1.406  1.9182 -1.8158  0.0460
 1119TIP3    H224917   0.092   4.152   1.314 -1.1189 -1.5938  2.3015
 1120TIP3   OH224918   5.615   3.887   8.113 -0.6443 -0.2468 -0.0134
 1120TIP3    H124919   5.622   3.805   8.163  2.1887  0.1406  0.4167
 1120TIP3    H224920   5.702   3.927   8.121 -1.9367  2.9027 -0.0740
 1121TIP3   OH224921   4.181   2.885   7.753  0.0089  0.0112  0.4209
 1121TIP3    H124922   4.148   2.946   7.687 -1.4390 -0.9288  0.2338
 1121TIP3    H224923   4.231   2.820   7.702 -0.1714 -0.0968  0.3822
 1122TIP3   OH224924   3.247   5.891   2.633 -0.0407 -0.1139 -0.4254
 1122TIP3    H124925   3.341   5.894   2.615 -0.3593 -0.5566 -2.3659
 1122TIP3    H224926   3.239   5.925   2.723  1.8929  0.5254 -0.4412
 1123TIP3   OH224927   6.045   1.926   7.931  0.4691  0.0577 -0.3350
 1123TIP3    H124928   6.047   2.019   7.950  0.5913 -0.0068 -0.0164
 1123TIP3    H224929   6.048   1.920   7.836  1.3346  0.3665 -0.3361
 1124TIP3   OH224930   2.811   4.646   0.511  0.3779 -0.2907  0.2625
 1124TIP3    H124931   2.889   4.591   0.512  1.6141  1.3575 -0.5786
 1124TIP3    H224932   2.826   4.711   0.579  1.3896  2.0760 -2.0241
 1125TIP3   OH224933   2.978   5.899   6.965 -0.6327  0.1051  0.1784
 1125TIP3    H124934   3.054   5.845   6.987 -1.4861 -1.3967 -0.4262
 1125TIP3    H224935   3.009   5.959   6.897  1.2113  2.7088  3.0124
 1126TIP3   OH224936   4.726   4.547   1.952  0.4545  0.2839 -0.1917
 1126TIP3    H124937   4.763   4.467   1.916 -0.0324  0.7960 -1.8869
 1126TIP3    H224938   4.645   4.520   1.995  0.1132 -0.0810 -1.0652
 1127TIP3   OH224939   3.295   4.050   1.291 -0.3410 -0.3097  0.4458
 1127TIP3    H124940   3.346   3.970   1.280  1.4121  0.8671 -0.4162
 1127TIP3    H224941   3.266   4.072   1.202 -1.6241 -0.4645  0.8043
 1128TIP3   OH224942   1.551   0.725   7.278  0.4411 -0.0559 -0.5948
 1128TIP3    H124943   1.646   0.731   7.277  0.4563 -0.3505 -1.9625
 1128TIP3    H224944   1.527   0.694   7.191 -0.9687  1.0467 -0.6425
 1129TIP3   OH224945   5.037   2.858   8.268  0.2324  0.5552  0.3888
 1129TIP3    H124946   4.954   2.857   8.315  0.6018  0.2543  1.0554
 1129TIP3    H224947   5.015   2.832   8.179 -0.8544  3.3844 -0.2712
 1130TIP3   OH224948   5.500   0.350   7.605  0.3581 -0.8692 -0.4435
 1130TIP3    H124949   5.496   0.428   7.549 -1.3019 -1.6666 -1.5005
 1130TIP3    H224950   5.550   0.287   7.553 -0.4165 -1.3105 -0.6682
 1131TIP3   OH224951   6.487   4.364   1.116  0.1160 -0.0538  0.3348
 1131TIP3    H124952   6.510   4.342   1.025  1.3268 -1.3175  0.9161
 1131TIP3    H224953   6.568   4.398   1.154 -0.0976 -0.5471  1.2480
 1132TIP3   OH224954   4.025   4.029   0.942 -0.6144  0.9623  0.6904
 1132TIP3    H124955   4.120   4.022   0.951 -0.5834  0.6123  0.1488
 1132TIP3    H224956   3.995   3.938   0.937 -0.7682  1.0691 -1.1395
 1133TIP3   OH224957   0.641   2.194   1.843  0.0657 -0.5721  0.2505
 1133TIP3    H124958   0.558   2.235   1.866  0.1717 -0.5124  0.5333
 1133TIP3    H224959   0.632   2.170   1.751  0.5396  1.4748 -0.3867
 1134TIP3   OH224960   5.319   3.098   1.850 -0.3710 -0.1181 -0.3647
 1134TIP3    H124961   5.405   3.106   1.891 -0.7537 -1.5494  0.8200
 1134TIP3    H224962   5.283   3.017   1.886 -1.7886 -0.1076 -1.6514
 1135TIP3   OH224963   1.555   1.459   8.593  0.0339  0.3030 -0.1432
 1135TIP3    H124964   1.463   1.455   8.620  0.1004  1.2784  0.2877
 1135TIP3    H224965   1.576   1.370   8.565 -0.3013 -0.5704  2.1947
 1136TIP3   OH224966   3.024   3.337   7.564 -0.5785 -0.3405  0.1326
 1136TIP3    H124967   3.089   3.286   7.612  0.3397  1.3640  0.7621
 1136TIP3    H224968   2.946   3.334   7.619 -0.3373 -0.5514  0.4670
 1137TIP3   OH224969   6.478   0.732   7.682  0.1392  0.0378  0.1647
 1137TIP3    H124970   6.461   0.780   7.764 -1.1532  0.9610 -0.6118
 1137TIP3    H224971   6.408   0.758   7.624  0.8140 -0.9268 -1.1350
 1138TIP3   OH224972   2.928   0.392   1.529 -0.1764 -0.1227 -0.1922
 1138TIP3    H124973   2.931   0.383   1.624  0.7145 -0.0487 -0.2052
 1138TIP3    H224974   2.986   0.323   1.496 -2.3833 -1.8268 -0.8200
 1139TIP3   OH224975   0.169   2.323   7.340 -0.0249 -0.2002  0.6779
 1139TIP3    H124976   0.177   2.275   7.258 -1.8460 -2.9221  1.9441
 1139TIP3    H224977   0.173   2.415   7.314 -0.8899 -0.9309 -2.5280
 1140TIP3   OH224978   4.069   0.845   0.828 -0.3180 -0.1300 -0.3389
 1140TIP3    H124979   4.073   0.938   0.846  0.2105 -0.2408  0.1375
 1140TIP3    H224980   3.975   0.826   0.818 -0.4958  0.2701  0.5118
 1141TIP3   OH224981   0.217   0.267   0.433 -0.2732  0.5286  0.1947
 1141TIP3    H124982   0.232   0.236   0.344 -1.0054  1.8043 -0.3989
 1141TIP3    H224983   0.159   0.201   0.471 -3.2692  1.8980 -1.6233
 1142TIP3   OH224984   1.380   4.100   2.775 -0.6386 -0.7879 -0.4131
 1142TIP3    H124985   1.362   4.139   2.690 -2.8868 -3.0347 -1.0869
 1142TIP3    H224986   1.325   4.149   2.836  2.9538  2.6667  0.4634
 1143TIP3   OH224987   3.083   6.546   7.533 -0.1541 -0.0785 -0.3621
 1143TIP3    H124988   3.134   6.526   7.454  0.3602 -1.5191  0.3048
 1143TIP3    H224989   3.077   6.463   7.579 -0.9354  0.6263  0.8454
 1144TIP3   OH224990   1.073   3.513   7.553 -0.0414  0.4005 -0.0601
 1144TIP3    H124991   1.131   3.437   7.562 -1.9925 -1.0989  0.7311
 1144TIP3    H224992   1.104   3.575   7.620 -0.5163 -1.2153  1.7674
 1145TIP3   OH224993   2.852   1.165   8.099 -0.5087  0.1545  0.0591
 1145TIP3    H124994   2.942   1.160   8.131 -0.6288 -0.1029  0.3610
 1145TIP3    H224995   2.825   1.255   8.116  0.0333  0.5247 -0.9623
 1146TIP3   OH224996   4.588   6.488   0.769  0.1315  0.0499 -0.4294
 1146TIP3    H124997   4.532   6.529   0.703 -0.9661 -1.4374 -0.4495
 1146TIP3    H224998   4.587   6.549   0.842 -0.8557  0.4278 -0.7442
 1147TIP3   OH224999   6.672   1.278   7.352 -0.2617 -0.3034  0.2404
 1147TIP3    H125000   6.603   1.344   7.342 -0.6588 -0.9201 -1.6081
 1147TIP3    H225001   6.630   1.204   7.395 -0.6024 -0.4404 -0.3212
 1148TIP3   OH225002   6.071   2.507   8.006  0.0630  0.1603 -0.5285
 1148TIP3    H125003   6.166   2.521   7.999 -0.0348  2.1287  1.1942
 1148TIP3    H225004   6.039   2.584   8.053 -2.4485 -0.3467 -1.2805
 1149TIP3   OH225005   2.077   2.431   1.743 -0.3903  0.0603  0.0110
 1149TIP3    H125006   2.170   2.447   1.759 -0.2987 -0.7029  0.2842
 1149TIP3    H225007   2.044   2.396   1.826 -1.0313  0.7803  0.0665
 1150TIP3   OH225008   5.967   6.226   0.808  0.2141  0.2074 -0.6054
 1150TIP3    H125009   6.032   6.253   0.872 -0.3570 -0.4757  0.2763
 1150TIP3    H225010   5.960   6.131   0.819 -1.8115  0.4152  0.1785
 1151TIP3   OH225011   2.281   2.615   1.265  0.2765  1.1811 -0.2873
 1151TIP3    H125012   2.299   2.521   1.266  1.1704  1.2763 -2.4948
 1151TIP3    H225013   2.220   2.628   1.338  0.7976 -0.9498  0.6136
 1152TIP3   OH225014   5.750   2.590   7.628 -0.4100 -0.5342  0.4537
 1152TIP3    H125015   5.833   2.566   7.670 -1.7365 -3.0799  1.9048
 1152TIP3    H225016   5.756   2.551   7.541  0.6637  1.0758 -0.2433
 1153TIP3   OH225017   0.495   5.029   1.568  0.0764  0.0190  0.3530
 1153TIP3    H125018   0.403   5.046   1.548  0.2974  2.0497  0.8112
 1153TIP3    H225019   0.500   4.935   1.583 -1.5102 -0.4413 -1.6574
 1154TIP3   OH225020   1.576   5.123   6.364  0.1228 -0.8507 -0.8205
 1154TIP3    H125021   1.603   5.210   6.393 -0.7671  0.3599 -3.3793
 1154TIP3    H225022   1.657   5.083   6.332  0.3398 -0.5376 -0.6696
 1155TIP3   OH225023   1.977   4.654   7.585 -0.3564  0.2332  0.1375
 1155TIP3    H125024   1.970   4.629   7.494 -1.1870 -1.4074  0.6275
 1155TIP3    H225025   2.066   4.690   7.593  0.1485 -0.6915 -1.0544
 1156TIP3   OH225026   0.380   1.062   7.856 -0.1407 -0.5031 -0.3040
 1156TIP3    H125027   0.317   1.111   7.909 -0.5404 -0.3087 -0.9431
 1156TIP3    H225028   0.445   1.030   7.919 -0.0240  0.6076  0.1676
 1157TIP3   OH225029   0.969   0.972   0.157  0.5299 -0.1993 -0.4053
 1157TIP3    H125030   0.981   0.896   0.213 -1.7711  0.0048  0.4780
 1157TIP3    H225031   0.929   0.938   0.077  0.4222 -0.0569 -0.4146
 1158TIP3   OH225032   3.631   0.561   0.767  0.5058 -0.0325 -0.0009
 1158TIP3    H125033   3.644   0.474   0.729  2.0548  0.0626  0.2229
 1158TIP3    H225034   3.659   0.552   0.858 -0.0311  0.5223  0.2223
 1159TIP3   OH225035   4.819   6.775   1.369  0.0522 -0.5893  0.4931
 1159TIP3    H125036   4.804   6.686   1.337  0.7013 -0.1331 -1.1762
 1159TIP3    H225037   4.914   6.785   1.368 -0.0494  0.5976 -0.7975
 1160TIP3   OH225038   0.924   5.748   0.071  0.9067  0.4407  0.0469
 1160TIP3    H125039   0.843   5.735   0.121  0.8689  2.9054  0.7452
 1160TIP3    H225040   0.985   5.684   0.107 -0.7252 -1.6272 -0.6315
 1161TIP3   OH225041   3.117   2.114   6.427  0.3316  0.1975  0.4546
 1161TIP3    H125042   3.113   2.183   6.361  0.2663 -0.8724 -0.6992
 1161TIP3    H225043   3.033   2.070   6.421  0.1177  0.4097  1.6418
 1162TIP3   OH225044   2.995   5.327   8.669 -0.5721 -0.1688  0.8983
 1162TIP3    H125045   2.969   5.236   8.685  1.4415 -0.7636  1.1272
 1162TIP3    H225046   3.048   5.323   8.589 -0.3297  0.7733  1.0033
 1163TIP3   OH225047   3.686   2.162   6.929 -0.5911  0.4085  0.2072
 1163TIP3    H125048   3.753   2.230   6.932  0.9166 -0.7636 -2.5777
 1163TIP3    H225049   3.725   2.088   6.975 -1.0044  0.4902  0.6939
 1164TIP3   OH225050   6.192   6.064   0.660  0.7813 -0.3326 -0.3969
 1164TIP3    H125051   6.128   6.026   0.721  0.1780 -0.4625 -1.1057
 1164TIP3    H225052   6.244   6.123   0.714 -0.0446 -0.0962  0.1569
 1165TIP3   OH225053   0.009   2.048   0.150 -0.4384  0.3955 -0.1489
 1165TIP3    H125054  -0.070   1.998   0.169 -0.6218  0.9496  0.6077
 1165TIP3    H225055  -0.018   2.140   0.161  0.0741  0.6288 -0.7895
 1166TIP3   OH225056   6.489   5.303   6.858 -0.1047  0.1399 -0.6147
 1166TIP3    H125057   6.469   5.382   6.808  0.3886 -0.7879 -2.3312
 1166TIP3    H225058   6.454   5.231   6.806  0.6527 -0.8878  0.2394
 1167TIP3   OH225059   4.914   0.582   7.663  0.0152 -0.1410  0.9314
 1167TIP3    H125060   4.823   0.566   7.686 -0.2747  0.3386  0.1386
 1167TIP3    H225061   4.932   0.671   7.695  0.3930 -0.4452  1.6101
 1168TIP3   OH225062   3.804   5.216   1.558  0.0506 -0.5282 -0.3947
 1168TIP3    H125063   3.805   5.205   1.653 -0.9504  0.2389 -0.2773
 1168TIP3    H225064   3.814   5.128   1.523 -0.1065 -0.8771  0.4330
 1169TIP3   OH225065   0.958   5.339   1.747 -0.3036  0.3563 -0.7712
 1169TIP3    H125066   0.924   5.427   1.769  0.8375  1.6191 -3.6066
 1169TIP3    H225067   0.889   5.299   1.695 -0.3950 -0.0350 -0.3558
 1170TIP3   OH225068   4.830   0.562   8.486  0.4437 -0.2525  0.1667
 1170TIP3    H125069   4.818   0.558   8.391 -0.2366 -1.1356  0.2722
 1170TIP3    H225070   4.817   0.654   8.508  1.5913  0.1397 -0.7063
 1171TIP3   OH225071   1.497   4.736   1.895  0.3910 -0.1909  0.0223
 1171TIP3    H125072   1.549   4.722   1.815  3.2607 -0.4314  1.7958
 1171TIP3    H225073   1.440   4.660   1.899  0.0841 -0.1120 -1.8510
 1172TIP3   OH225074   6.297   6.863   8.640 -0.0705 -0.1120  0.2654
 1172TIP3    H125075   6.374   6.870   8.696  1.3594 -0.6929 -1.5371
 1172TIP3    H225076   6.253   6.783   8.670  0.6168 -0.3574  0.6511
 1173TIP3   OH225077   2.392   3.136   7.599 -0.2479  0.3908  0.0716
 1173TIP3    H125078   2.382   3.122   7.693 -0.4420  0.8691  0.1255
 1173TIP3    H225079   2.322   3.085   7.560 -1.6374  1.9850  0.3292
 1174TIP3   OH225080   6.290   4.052   1.959  0.0139  0.0962 -0.1474
 1174TIP3    H125081   6.246   4.137   1.957 -1.6316 -0.6625 -3.2745
 1174TIP3    H225082   6.241   4.001   2.023 -0.8352  0.6150 -0.3675
 1175TIP3   OH225083   3.941   6.100   1.787 -0.3863 -0.2276 -0.4365
 1175TIP3    H125084   3.950   6.159   1.712  0.0896  0.8881  0.4647
 1175TIP3    H225085   3.976   6.150   1.861 -0.2006 -1.5660  0.4094
 1176TIP3   OH225086   3.010   3.819   1.433 -0.5316  0.4757 -0.4211
 1176TIP3    H125087   2.944   3.795   1.368  1.7397  0.1387 -2.7681
 1176TIP3    H225088   3.041   3.905   1.405  3.5305 -1.4514 -2.6370
 1177TIP3   OH225089   2.414   1.233   2.088 -0.0303  0.0852  0.5063
 1177TIP3    H125090   2.477   1.173   2.128  1.5228  1.2355 -0.1017
 1177TIP3    H225091   2.385   1.289   2.160  0.2437  0.0512  0.6425
 1178TIP3   OH225092   2.046   4.559   6.927 -0.3686 -0.2363  0.4612
 1178TIP3    H125093   2.045   4.502   7.003  1.7150 -1.8088 -0.5941
 1178TIP3    H225094   1.967   4.535   6.878 -0.0616 -1.5196  0.5612
 1179TIP3   OH225095   3.037   5.546   0.599 -0.0680 -0.6323 -0.6529
 1179TIP3    H125096   3.048   5.600   0.677  1.1225  0.8952 -1.8364
 1179TIP3    H225097   3.123   5.507   0.584 -0.1870 -0.6106 -1.4237
 1180TIP3   OH225098   2.083   5.312   6.950 -0.6290 -0.0581 -0.0519
 1180TIP3    H125099   2.050   5.328   7.038 -0.1263  0.8051 -0.0085
 1180TIP3    H225100   2.139   5.235   6.959  0.6579  0.9166  0.7278
 1181TIP3   OH225101   0.340   3.865   0.818  0.0254  0.4098  0.3860
 1181TIP3    H125102   0.428   3.837   0.843 -0.2452 -0.3128  0.5717
 1181TIP3    H225103   0.345   3.960   0.812  0.8466  0.3638  0.2805
 1182TIP3   OH225104   0.590   4.113   1.203 -0.0899 -0.8027 -0.7875
 1182TIP3    H125105   0.645   4.189   1.183  0.6792 -1.3340 -0.7244
 1182TIP3    H225106   0.500   4.147   1.201  0.2480  0.1140 -0.7107
 1183TIP3   OH225107   5.952   5.908   7.866  0.3253 -0.2265  0.1881
 1183TIP3    H125108   6.027   5.964   7.884  0.2252 -0.2260  0.6083
 1183TIP3    H225109   5.961   5.886   7.773 -0.0862  1.1613 -0.2131
 1184TIP3   OH225110   0.277   4.710   7.757 -0.3622  0.0010 -0.1639
 1184TIP3    H125111   0.249   4.682   7.670 -0.3154  1.4556 -0.6768
 1184TIP3    H225112   0.197   4.708   7.809 -0.3427 -1.1304 -0.1530
 1185TIP3   OH225113   5.408   6.016   1.093 -0.3809 -0.1723 -0.1686
 1185TIP3    H125114   5.435   6.104   1.065  0.2394 -0.6353 -1.0785
 1185TIP3    H225115   5.487   5.963   1.084 -0.1207 -0.3768  2.5724
 1186TIP3   OH225116   0.073   2.377   1.234  0.1052  0.1949 -0.1845
 1186TIP3    H125117   0.099   2.288   1.210  1.5168  1.0688 -2.2077
 1186TIP3    H225118  -0.022   2.373   1.242  0.0399 -1.3055 -1.2586
 1187TIP3   OH225119   3.006   4.275   1.592 -0.0367 -0.1848  0.0571
 1187TIP3    H125120   3.020   4.257   1.685  0.0169  0.2599  0.1376
 1187TIP3    H225121   2.913   4.256   1.578  0.0441 -0.6321  0.1099
 1188TIP3   OH225122   1.396   3.670   1.905  0.3497  0.3962  0.4896
 1188TIP3    H125123   1.322   3.714   1.864  0.3658  0.0471  0.0841
 1188TIP3    H225124   1.430   3.610   1.838  0.0295 -0.5902  1.1741
 1189TIP3   OH225125   4.707   2.755   1.265 -0.5321  0.5345 -0.2105
 1189TIP3    H125126   4.659   2.692   1.211  0.4917  0.0437 -0.5765
 1189TIP3    H225127   4.661   2.754   1.349 -0.3101 -1.0301 -0.0681
 1190TIP3   OH225128   3.428   6.750   0.356 -0.1697 -0.6323  0.2153
 1190TIP3    H125129   3.428   6.839   0.391 -0.4273 -0.3426 -0.4978
 1190TIP3    H225130   3.510   6.744   0.307 -0.6576 -0.4137 -0.6428
 1191TIP3   OH225131   5.715   1.868   1.400  0.5643  0.0735  0.2198
 1191TIP3    H125132   5.760   1.846   1.317  0.8759  0.1601  0.3634
 1191TIP3    H225133   5.689   1.783   1.435 -0.2261  0.0776 -0.3252
 1192TIP3   OH225134   0.255   1.990   0.259 -0.1959 -0.0037 -0.0945
 1192TIP3    H125135   0.188   2.041   0.214 -0.2538 -0.5635 -0.6524
 1192TIP3    H225136   0.277   1.919   0.198  3.5247  2.1307 -1.5780
 1193TIP3   OH225137   6.105   5.432   7.509 -0.0328  0.1553 -0.2044
 1193TIP3    H125138   6.056   5.383   7.575 -1.3631  1.4533 -0.1873
 1193TIP3    H225139   6.107   5.521   7.542 -0.0230  0.6680 -1.5261
 1194TIP3   OH225140   0.295   3.341   8.482 -0.0061 -0.8266 -0.2597
 1194TIP3    H125141   0.227   3.380   8.428  1.5350  0.5004 -1.3359
 1194TIP3    H225142   0.290   3.247   8.463 -1.4945 -0.7576 -0.3210
 1195TIP3   OH225143   6.128   1.603   6.504 -0.0542  0.3588  0.2093
 1195TIP3    H125144   6.146   1.694   6.528 -0.5177  0.2778  0.8968
 1195TIP3    H225145   6.195   1.552   6.550  0.9323  0.4148 -1.0842
 1196TIP3   OH225146   1.264   5.117   7.917  0.6115 -0.7032  0.2898
 1196TIP3    H125147   1.360   5.107   7.919  0.9296  1.8883  0.3199
 1196TIP3    H225148   1.241   5.111   7.824  1.0854  0.7369  0.0641
 1197TIP3   OH225149   5.654   3.730   8.383  0.4418  0.0900  0.1631
 1197TIP3    H125150   5.575   3.701   8.427 -0.2094  1.8611  0.2626
 1197TIP3    H225151   5.674   3.815   8.423  1.0218  0.7890 -1.4889
 1198TIP3   OH225152   4.687   6.568   8.357  0.0398  0.4639 -0.0330
 1198TIP3    H125153   4.740   6.506   8.408  0.2735  0.2874 -0.4814
 1198TIP3    H225154   4.733   6.575   8.274  0.7676  2.2641  0.4651
 1199TIP3   OH225155   2.777   5.783   2.449 -0.3826  0.0483 -0.5114
 1199TIP3    H125156   2.772   5.716   2.381  1.4906 -0.1342 -0.5378
 1199TIP3    H225157   2.698   5.771   2.501 -1.2667 -0.5785 -1.9534
 1200TIP3   OH225158   3.909   3.464   8.385 -0.2516  0.0203 -0.3641
 1200TIP3    H125159   3.996   3.471   8.346 -0.2503 -1.8285 -0.8034
 1200TIP3    H225160   3.852   3.439   8.312 -0.6394 -1.3796  0.3670
 1201TIP3   OH225161   6.814   4.305   1.587 -0.8425  0.1660 -0.0667
 1201TIP3    H125162   6.737   4.355   1.614 -0.1632  1.2390 -0.0624
 1201TIP3    H225163   6.781   4.215   1.576 -2.0373  0.5523  0.1450
 1202TIP3   OH225164   4.896   5.522   0.845  0.4016  0.0203  0.1050
 1202TIP3    H125165   4.942   5.606   0.840  1.1252 -0.2497  1.5657
 1202TIP3    H225166   4.890   5.492   0.755 -1.3611  2.4035 -0.6855
 1203TIP3   OH225167   0.460   0.536   1.170  0.0610  0.2787 -0.0190
 1203TIP3    H125168   0.382   0.481   1.174  0.3995 -0.2776 -0.7512
 1203TIP3    H225169   0.427   0.623   1.147 -0.1471 -0.5461 -3.2730
 1204TIP3   OH225170   4.157   0.706   7.778  0.1255  0.2144 -0.2450
 1204TIP3    H125171   4.117   0.765   7.842 -0.5394  0.2792 -0.7061
 1204TIP3    H225172   4.241   0.682   7.817 -0.6370 -0.4592  1.0628
 1205TIP3   OH225173   4.781   4.271   1.935  0.1907  0.1588  0.0287
 1205TIP3    H125174   4.710   4.239   1.879  0.9043  0.1778 -0.8972
 1205TIP3    H225175   4.852   4.291   1.875  1.1881 -0.3916  1.0040
 1206TIP3   OH225176   3.278   5.582   8.210 -0.7905 -0.5085 -0.0322
 1206TIP3    H125177   3.373   5.567   8.215 -0.8120 -0.9196 -0.6305
 1206TIP3    H225178   3.263   5.660   8.262  0.2172  0.9660 -1.8273
 1207TIP3   OH225179   5.345   2.583   1.580 -0.5960 -0.1030 -0.1940
 1207TIP3    H125180   5.335   2.553   1.490 -1.3516 -0.3523 -0.0347
 1207TIP3    H225181   5.298   2.519   1.633  0.5297 -0.4186  0.4718
 1208TIP3   OH225182   4.788   4.611   8.216 -0.0616  0.0897 -0.5114
 1208TIP3    H125183   4.788   4.706   8.207 -1.8418  0.1086 -0.6873
 1208TIP3    H225184   4.816   4.596   8.307 -3.3438  1.0463  0.8197
 1209TIP3   OH225185   1.350   1.867   7.566 -0.0083  0.1956 -0.4281
 1209TIP3    H125186   1.261   1.872   7.600 -0.6684 -0.3578 -1.9624
 1209TIP3    H225187   1.339   1.865   7.471  1.5983 -0.7929 -0.6363
 1210TIP3   OH225188   2.676   6.665   6.075  0.5613 -0.3560  0.0632
 1210TIP3    H125189   2.669   6.725   6.001  1.2901  1.3180  1.3040
 1210TIP3    H225190   2.590   6.624   6.080 -0.1684  1.0442 -0.4506
 1211TIP3   OH225191   5.746   1.888   0.528 -0.0140  0.2625 -0.3818
 1211TIP3    H125192   5.834   1.923   0.526  0.1242  0.0010  0.5358
 1211TIP3    H225193   5.757   1.798   0.559 -0.5495  0.0549 -0.7809
 1212TIP3   OH225194   3.939   1.674   1.526  0.6201 -0.1043 -0.5099
 1212TIP3    H125195   3.869   1.739   1.528  2.2944  1.9475 -2.2823
 1212TIP3    H225196   3.894   1.590   1.522 -1.6686  0.8361  2.2211
 1213TIP3   OH225197   5.328   2.432   0.289  0.2257 -0.6175 -0.1941
 1213TIP3    H125198   5.355   2.347   0.254 -1.7429 -1.7739  0.9289
 1213TIP3    H225199   5.327   2.490   0.213  0.9146 -1.7625 -1.1133
 1214TIP3   OH225200   6.283   1.325   7.924 -0.3330  0.5550  0.6034
 1214TIP3    H125201   6.305   1.367   7.841  1.4834 -1.3687  0.0426
 1214TIP3    H225202   6.343   1.365   7.987 -0.2547  0.4976  0.5652
 1215TIP3   OH225203   5.420   6.846   8.061  0.3064 -0.0875 -0.1237
 1215TIP3    H125204   5.403   6.756   8.090  1.9873 -0.0389  1.1833
 1215TIP3    H225205   5.393   6.900   8.136  2.6088  0.2096  0.5539
 1216TIP3   OH225206   3.708   1.758   7.469  0.5127 -0.3147  0.2268
 1216TIP3    H125207   3.761   1.726   7.542 -0.6116 -0.8517  0.8225
 1216TIP3    H225208   3.628   1.707   7.473 -0.7214  1.5304  0.2762
 1217TIP3   OH225209   0.340   1.962   1.349 -0.2775 -0.1083 -0.2228
 1217TIP3    H125210   0.298   1.981   1.265 -0.4151  0.8046  0.0403
 1217TIP3    H225211   0.311   2.033   1.407 -0.2249 -0.7529  0.6118
 1218TIP3   OH225212   6.014   3.032   1.874 -0.5469 -0.3491  0.0599
 1218TIP3    H125213   5.927   3.073   1.873 -0.8495 -0.9730 -0.7246
 1218TIP3    H225214   6.037   3.023   1.781 -1.5714 -4.1011 -0.0172
 1219TIP3   OH225215   1.897   3.270   0.882  0.1726  0.2238  0.3037
 1219TIP3    H125216   1.866   3.214   0.811  0.4908  0.8957 -0.3726
 1219TIP3    H225217   1.991   3.252   0.889  0.2206  0.4626  0.2806
 1220TIP3   OH225218   3.822   1.633   7.743 -0.0824 -0.2986  0.0938
 1220TIP3    H125219   3.816   1.622   7.838  0.1741  1.4164  0.3328
 1220TIP3    H225220   3.903   1.588   7.719  0.8347  0.8364  0.9699
 1221TIP3   OH225221   1.299   4.411   1.572  0.5043 -0.0666 -0.1127
 1221TIP3    H125222   1.387   4.374   1.582  0.3012 -0.4680  0.2036
 1221TIP3    H225223   1.280   4.451   1.656  0.6798  0.6712 -0.4191
 1222TIP3   OH225224   1.918   0.286   8.284  0.0398 -0.3654 -0.0323
 1222TIP3    H125225   1.977   0.230   8.335 -0.4495  1.0387  2.1989
 1222TIP3    H225226   1.877   0.343   8.349 -0.3661  1.7974 -2.0724
 1223TIP3   OH225227   5.833   3.115   6.903  0.1104  0.2479 -0.2985
 1223TIP3    H125228   5.901   3.148   6.962  2.3352 -0.1936 -2.4300
 1223TIP3    H225229   5.798   3.037   6.946  1.1542  0.3485  0.7598
 1224TIP3   OH225230   1.008   2.816   7.169  0.2011 -0.3404 -0.4822
 1224TIP3    H125231   0.921   2.778   7.179 -1.1690  2.3494 -1.2851
 1224TIP3    H225232   1.039   2.783   7.085 -0.0852 -1.1649 -0.2755
 1225TIP3   OH225233   3.774   3.183   7.621  0.1119 -0.1962 -0.4315
 1225TIP3    H125234   3.848   3.187   7.682  0.1713  0.5092 -0.5334
 1225TIP3    H225235   3.743   3.274   7.616 -2.1597 -0.7625  1.3191
 1226TIP3   OH225236   0.708   0.789   1.538  0.0407 -0.0294  0.0141
 1226TIP3    H125237   0.632   0.846   1.523  1.8632  2.9897  1.1720
 1226TIP3    H225238   0.677   0.723   1.599 -2.3409 -0.6842 -1.7768
 1227TIP3   OH225239   4.058   3.989   0.049  0.1042  0.0308 -0.0926
 1227TIP3    H125240   4.060   3.977   0.144 -0.6831  0.6676  0.0139
 1227TIP3    H225241   3.997   4.062   0.036  1.2336  0.8391 -0.9969
 1228TIP3   OH225242   0.051   6.074   8.250  0.1521 -0.6093 -0.0449
 1228TIP3    H125243   0.049   6.135   8.177 -0.2093 -0.0817  0.4005
 1228TIP3    H225244   0.047   5.987   8.209 -0.1244 -0.3168 -0.6442
 1229TIP3   OH225245   6.755   3.316   0.500 -0.4292  0.4033  0.1794
 1229TIP3    H125246   6.819   3.369   0.454  1.0873 -1.6085 -0.1681
 1229TIP3    H225247   6.753   3.352   0.589 -2.2619  3.3436 -0.9156
 1230TIP3   OH225248   1.247   4.075   0.318 -0.1892 -0.5267  0.0342
 1230TIP3    H125249   1.214   4.159   0.351 -0.0724 -0.5754  0.2727
 1230TIP3    H225250   1.342   4.088   0.310 -0.0160 -1.0108  1.1708
 1231TIP3   OH225251   3.329   4.379   7.698 -0.4906 -0.1616 -0.3105
 1231TIP3    H125252   3.370   4.464   7.716  0.4339 -0.9372  1.4948
 1231TIP3    H225253   3.369   4.351   7.615 -1.3439  1.4299 -1.3319
 1232TIP3   OH225254   3.481   2.473   7.821 -0.4792  0.1202  0.5352
 1232TIP3    H125255   3.397   2.518   7.812 -0.8788 -0.8800 -1.3813
 1232TIP3    H225256   3.491   2.425   7.739  0.8039 -1.7573  1.7006
 1233TIP3   OH225257   0.024   0.370   6.997  0.8124  0.5376 -0.2688
 1233TIP3    H125258   0.011   0.414   6.913 -0.7989  0.4568 -0.0939
 1233TIP3    H225259  -0.049   0.308   7.004  1.8667 -0.6918  0.4339
 1234TIP3   OH225260   2.862   3.767   7.653 -0.1797  0.3587  0.2293
 1234TIP3    H125261   2.885   3.844   7.600  1.6415  0.0329  0.4868
 1234TIP3    H225262   2.766   3.765   7.652 -0.2329  1.8316 -0.9223
 1235TIP3   OH225263   3.522   4.956   2.144 -0.6631  0.5169 -0.1713
 1235TIP3    H125264   3.500   5.048   2.153  1.1654  0.9743  0.0113
 1235TIP3    H225265   3.551   4.930   2.232  0.9609  0.3822 -0.7268
 1236TIP3   OH225266   3.377   4.673   7.697 -0.2128  0.3383  0.3949
 1236TIP3    H125267   3.297   4.725   7.708 -2.3115 -2.3430 -0.9299
 1236TIP3    H225268   3.403   4.688   7.606  1.5411  2.0445  1.1129
 1237TIP3   OH225269   0.302   3.189   8.203 -0.3607  0.1257  0.0621
 1237TIP3    H125270   0.264   3.145   8.280 -2.4131  0.7916 -0.5198
 1237TIP3    H225271   0.315   3.118   8.140 -1.0559 -0.0757  0.1301
 1238TIP3   OH225272   0.840   2.736   7.427 -0.1718  0.1745 -0.0414
 1238TIP3    H125273   0.800   2.650   7.441  0.0446 -0.0430 -0.7044
 1238TIP3    H225274   0.769   2.789   7.390 -0.8950  0.9061  2.2526
 1239TIP3   OH225275   3.912   3.767   0.362 -0.0434 -0.1190 -0.3184
 1239TIP3    H125276   3.902   3.686   0.313 -1.3936  0.3978 -0.9556
 1239TIP3    H225277   3.826   3.783   0.401  0.6460  0.1567  1.1797
 1240TIP3   OH225278   3.002   0.773   6.670 -0.1745 -0.8320 -0.3273
 1240TIP3    H125279   3.021   0.727   6.752  1.9889 -0.5201 -0.5949
 1240TIP3    H225280   2.989   0.703   6.606  2.0498 -1.1510 -0.5078
 1241TIP3   OH225281   1.959   2.606   6.820  0.7745 -0.1512 -0.1798
 1241TIP3    H125282   1.939   2.683   6.767  2.1314 -0.1986 -0.8038
 1241TIP3    H225283   2.026   2.560   6.770  0.7024 -1.2141  0.6761
 1242TIP3   OH225284   1.853   5.664   7.760 -0.8767  0.2677 -0.1257
 1242TIP3    H125285   1.901   5.667   7.843  2.0647 -1.3202 -1.5998
 1242TIP3    H225286   1.872   5.748   7.718 -0.7377  0.2936 -0.0111
 1243TIP3   OH225287   1.754   1.002   0.303  0.1883  0.2045 -0.0716
 1243TIP3    H125288   1.670   1.042   0.329 -0.6696 -0.4006 -1.7480
 1243TIP3    H225289   1.781   0.952   0.379 -0.5256  1.1271  0.8175
 1244TIP3   OH225290   0.610   5.355   0.826 -0.0767 -0.0024  0.1373
 1244TIP3    H125291   0.653   5.308   0.755 -2.7265 -0.8926 -1.0252
 1244TIP3    H225292   0.621   5.448   0.804 -0.4406 -0.2584 -1.2184
 1245TIP3   OH225293   6.840   1.292   1.362  0.5386  0.1085  0.0414
 1245TIP3    H125294   6.898   1.260   1.431  2.1538 -2.0189 -2.1376
 1245TIP3    H225295   6.765   1.233   1.364  1.5958 -1.3531 -1.3243
 1246TIP3   OH225296   1.762   1.889   8.590  0.3040  0.4231 -0.4285
 1246TIP3    H125297   1.813   1.888   8.672 -1.5153  1.6960  0.8121
 1246TIP3    H225298   1.796   1.965   8.542  0.6495  0.3144 -0.3600
 1247TIP3   OH225299   1.220   6.234   6.843  0.5592  0.1556  0.1320
 1247TIP3    H125300   1.199   6.171   6.912 -1.6757  1.4946  0.7664
 1247TIP3    H225301   1.142   6.238   6.788  1.1757  1.3108 -0.7117
 1248TIP3   OH225302   5.848   3.505   0.414 -0.2030  0.2225  0.4346
 1248TIP3    H125303   5.866   3.542   0.328 -1.2685  1.2417  0.6224
 1248TIP3    H225304   5.868   3.412   0.406  1.2026  0.5797 -0.4594
 1249TIP3   OH225305   5.937   0.307   0.322 -0.0096 -0.2920  0.0399
 1249TIP3    H125306   5.948   0.228   0.269  0.8549  1.0339 -1.8530
 1249TIP3    H225307   6.024   0.346   0.326 -0.7771  1.6862 -0.9710
 1250TIP3   OH225308   1.518   5.487   1.445 -0.2743 -0.2607 -0.6037
 1250TIP3    H125309   1.480   5.567   1.408 -0.1362 -0.8550 -2.0969
 1250TIP3    H225310   1.605   5.483   1.407 -0.2543 -1.0917 -0.4737
 1251TIP3   OH225311   1.019   2.331   7.296 -0.1868 -0.8554  0.3735
 1251TIP3    H125312   0.980   2.399   7.241 -0.4550 -0.3133  1.2250
 1251TIP3    H225313   1.062   2.272   7.234  1.6363  1.0512 -0.2659
 1252TIP3   OH225314   1.772   1.485   1.725 -0.2075 -0.2553 -0.1155
 1252TIP3    H125315   1.683   1.453   1.741 -0.5014  0.6485  0.1225
 1252TIP3    H225316   1.811   1.490   1.813 -0.8858  2.0359  0.1281
 1253TIP3   OH225317   2.065   2.647   6.294 -0.1280 -0.7996  0.3793
 1253TIP3    H125318   2.009   2.630   6.370 -2.1380  0.2613 -0.7582
 1253TIP3    H225319   2.074   2.562   6.251 -2.3683 -0.7466 -0.3256
 1254TIP3   OH225320   4.670   1.305   0.039 -0.0871  0.0310  0.4717
 1254TIP3    H125321   4.700   1.216   0.057  0.2701 -0.0076 -0.2632
 1254TIP3    H225322   4.589   1.313   0.089 -1.0367 -1.3025 -0.7519
 1255TIP3   OH225323   2.257   1.132   7.743 -0.0935 -0.1663 -0.1930
 1255TIP3    H125324   2.193   1.062   7.740  0.7866 -1.2300  2.6271
 1255TIP3    H225325   2.240   1.178   7.825  2.4499 -0.2941  0.5200
 1256TIP3   OH225326   5.630   6.737   1.581 -0.6158  0.6158 -0.4331
 1256TIP3    H125327   5.701   6.673   1.580 -1.9223 -0.9088 -1.2958
 1256TIP3    H225328   5.660   6.808   1.524 -0.9608 -1.4729 -3.4893
 1257TIP3   OH225329   1.661   5.065   8.559 -0.2926 -0.2693 -0.0573
 1257TIP3    H125330   1.576   5.109   8.556  0.0293  0.4194  0.6184
 1257TIP3    H225331   1.707   5.107   8.631  0.4592 -0.9435 -0.1316
 1258TIP3   OH225332   4.273   2.027   2.040  0.5891 -0.5697  0.3021
 1258TIP3    H125333   4.223   1.990   2.112 -1.5221 -0.8311 -1.2144
 1258TIP3    H225334   4.250   2.120   2.039 -1.3866 -0.9952 -1.4601
 1259TIP3   OH225335   0.268   6.199   6.870  0.1239  0.3315  0.2870
 1259TIP3    H125336   0.212   6.207   6.793  0.1628 -0.6112  0.1419
 1259TIP3    H225337   0.298   6.108   6.868 -0.0092  0.2418  1.5074
 1260TIP3   OH225338   0.539   1.528   0.815  0.6310  0.4878  0.0305
 1260TIP3    H125339   0.473   1.570   0.871  1.1745 -1.2281  2.0909
 1260TIP3    H225340   0.618   1.581   0.828  0.1184  1.6375 -1.2467
 1261TIP3   OH225341   2.630   2.858   1.421  0.1329 -0.3648  0.4258
 1261TIP3    H125342   2.651   2.840   1.330  0.4872 -0.2084  0.4765
 1261TIP3    H225343   2.541   2.822   1.433 -0.0758 -0.0163 -0.0864
 1262TIP3   OH225344   4.194   0.793   7.128  0.5435 -0.0558  0.1653
 1262TIP3    H125345   4.125   0.727   7.129 -0.9889  1.4419 -0.2760
 1262TIP3    H225346   4.204   0.815   7.035 -0.7845  2.0256  0.4329
 1263TIP3   OH225347   2.610   1.515   7.482  0.0105 -0.1253  0.1545
 1263TIP3    H125348   2.607   1.438   7.539 -0.4381 -0.8719 -0.8535
 1263TIP3    H225349   2.626   1.480   7.395  0.4485  0.9822 -0.2277
 1264TIP3   OH225350   2.951   1.835   0.068 -0.3646  0.2488 -0.0680
 1264TIP3    H125351   2.951   1.815   0.161  0.2015 -2.5986 -0.5962
 1264TIP3    H225352   3.037   1.808   0.037 -0.4739  1.3255 -1.4101
 1265TIP3   OH225353   3.129   0.011   0.983  0.6515 -0.3119  0.5835
 1265TIP3    H125354   3.225   0.020   0.983  0.7843 -1.1160 -1.6156
 1265TIP3    H225355   3.098   0.087   0.933  0.4524 -1.7963 -1.7033
 1266TIP3   OH225356   1.563   5.979   7.633 -0.1767 -0.3410 -0.1408
 1266TIP3    H125357   1.475   5.950   7.659 -1.0155  1.1214 -1.1671
 1266TIP3    H225358   1.582   6.054   7.689  0.1069 -0.2164 -0.3964
 1267TIP3   OH225359   1.487   5.361   7.804 -0.0789 -0.3433 -0.1316
 1267TIP3    H125360   1.493   5.296   7.734  1.6321  0.6569 -0.9886
 1267TIP3    H225361   1.513   5.443   7.763  0.5334  0.3659  1.5760
 1268TIP3   OH225362   5.056   3.647   1.018 -0.0521 -0.1609 -0.6366
 1268TIP3    H125363   5.142   3.685   0.999  0.5585 -1.1442  0.0652
 1268TIP3    H225364   4.994   3.714   0.990  0.8984  0.1291 -2.2060
 1269TIP3   OH225365   1.734   5.253   7.656  0.3205 -0.5295 -0.0887
 1269TIP3    H125366   1.808   5.313   7.661 -0.3380  0.2853  0.1108
 1269TIP3    H225367   1.771   5.168   7.681  1.4947 -0.4528 -1.4260
 1270TIP3   OH225368   0.420   4.165   1.555  0.1277 -0.3225  0.7683
 1270TIP3    H125369   0.402   4.205   1.470  0.1554  0.2249  1.0114
 1270TIP3    H225370   0.342   4.184   1.607 -0.1605 -1.2180  0.6679
 1271TIP3   OH225371   1.004   6.431   2.148 -0.5643  0.0527  0.3557
 1271TIP3    H125372   1.012   6.526   2.142 -0.4044  0.1399  1.6739
 1271TIP3    H225373   1.069   6.405   2.213  0.4043 -1.1397 -1.0197
 1272TIP3   OH225374   3.649   6.567   1.059 -0.0789  0.6573  0.3110
 1272TIP3    H125375   3.726   6.617   1.031 -1.3386  2.3676 -0.2753
 1272TIP3    H225376   3.630   6.509   0.985  0.8190 -0.0203  0.5959
 1273TIP3   OH225377   6.304   0.807   8.288  0.0010 -0.4374 -0.4185
 1273TIP3    H125378   6.348   0.861   8.353 -0.3167  1.7021 -1.8612
 1273TIP3    H225379   6.372   0.788   8.223  0.2573 -2.3623  0.3325
 1274TIP3   OH225380   4.892   4.650   1.529 -0.5516  0.5896  0.2906
 1274TIP3    H125381   4.824   4.699   1.483  0.1723  0.8075 -0.5703
 1274TIP3    H225382   4.877   4.670   1.621 -1.5105  0.8176  0.0948
 1275TIP3   OH225383   2.846   4.312   0.207 -0.1445 -0.3690  0.1287
 1275TIP3    H125384   2.787   4.247   0.168  0.2349 -0.4638 -0.2895
 1275TIP3    H225385   2.835   4.300   0.301  1.6972 -2.6991  0.1318
 1276TIP3   OH225386   1.720   5.803   7.477 -0.1328  0.2105  0.7299
 1276TIP3    H125387   1.653   5.858   7.519 -1.7558  0.0656 -1.4669
 1276TIP3    H225388   1.803   5.839   7.508 -1.1686  2.6693  0.9399
 1277TIP3   OH225389   4.693   3.437   0.885 -0.1065 -0.2316 -0.3925
 1277TIP3    H125390   4.630   3.365   0.875  0.9230 -1.3832  0.9766
 1277TIP3    H225391   4.650   3.497   0.946 -0.4268 -0.3435 -0.5036
 1278TIP3   OH225392   3.568   2.479   6.762  0.5480 -0.0499 -0.0005
 1278TIP3    H125393   3.589   2.445   6.849 -2.9950 -1.6603  0.3739
 1278TIP3    H225394   3.591   2.408   6.702 -0.1090 -0.2568 -0.0093
 1279TIP3   OH225395   6.082   2.737   7.214  0.2073 -0.1119 -0.0387
 1279TIP3    H125396   6.028   2.811   7.243 -0.0613  0.1748 -1.2285
 1279TIP3    H225397   6.162   2.744   7.266  0.2210  1.0665 -0.1884
 1280TIP3   OH225398   5.320   2.762   2.331 -0.3884 -0.0870  0.2674
 1280TIP3    H125399   5.319   2.671   2.360  0.1097  0.2222  1.3326
 1280TIP3    H225400   5.388   2.803   2.384 -1.4080  1.1603  0.6715
 1281TIP3   OH225401   2.791   6.153   6.740  0.2227 -0.0982  0.2728
 1281TIP3    H125402   2.790   6.237   6.787 -1.1790  0.5081 -0.7933
 1281TIP3    H225403   2.882   6.122   6.749  0.1395  0.2144  2.9311
 1282TIP3   OH225404   1.865   6.214   8.584 -0.5604 -0.0219 -0.0847
 1282TIP3    H125405   1.838   6.237   8.673 -0.3692 -1.3395  0.3344
 1282TIP3    H225406   1.940   6.155   8.596 -0.5032 -0.1790 -1.1181
 1283TIP3   OH225407   5.583   0.871   2.609  0.1866  0.1363 -0.4788
 1283TIP3    H125408   5.651   0.876   2.676 -0.6200  1.5550  0.2813
 1283TIP3    H225409   5.601   0.789   2.563  1.1165 -0.6049  1.0955
 1284TIP3   OH225410   0.799   2.165   7.725 -0.0962  0.3640  0.2802
 1284TIP3    H125411   0.777   2.073   7.715  2.2345 -0.2225  0.0379
 1284TIP3    H225412   0.714   2.210   7.724 -1.2495 -1.6913 -0.1695
 1285TIP3   OH225413   2.564   4.897   8.228 -0.6195 -0.0653  0.3309
 1285TIP3    H125414   2.624   4.887   8.154  0.4817  0.4204  1.1335
 1285TIP3    H225415   2.621   4.911   8.303 -1.7555  0.6170  1.0881
 1286TIP3   OH225416   4.204   0.955   6.601 -0.6254  0.4525 -0.8575
 1286TIP3    H125417   4.240   0.893   6.537  0.7424  0.5706 -0.2280
 1286TIP3    H225418   4.221   1.041   6.563  1.6753  0.6061  0.3245
 1287TIP3   OH225419   3.906   3.665   1.274  0.4213 -0.7533  0.0939
 1287TIP3    H125420   3.856   3.621   1.206  0.3889 -0.5251 -0.0305
 1287TIP3    H225421   3.996   3.634   1.261  0.7263  0.5278 -1.0984
 1288TIP3   OH225422   4.685   5.579   1.466  0.3201 -0.6672 -0.5366
 1288TIP3    H125423   4.704   5.513   1.533  2.2249 -1.9260 -2.1623
 1288TIP3    H225424   4.631   5.532   1.402 -0.3692  0.1191 -0.5472
 1289TIP3   OH225425   5.421   6.280   6.598  0.2957 -0.1726 -0.8596
 1289TIP3    H125426   5.363   6.207   6.621  0.4729  0.4414  1.9529
 1289TIP3    H225427   5.361   6.353   6.582  0.1140  0.4701  2.0740
 1290TIP3   OH225428   0.691   4.781   1.456  0.1611 -0.6210 -0.6744
 1290TIP3    H125429   0.638   4.711   1.417 -0.4579 -0.2361 -0.5265
 1290TIP3    H225430   0.733   4.824   1.381  0.6571 -1.2282 -0.7600
 1291TIP3   OH225431   6.053   6.674   7.205  0.4073  0.5034 -0.5668
 1291TIP3    H125432   5.975   6.726   7.189 -0.4648 -0.3085  0.8583
 1291TIP3    H225433   6.051   6.605   7.138  0.0184  0.5948 -0.6475
 1292TIP3   OH225434   3.219   1.547   1.063  0.2590 -0.1542  0.0143
 1292TIP3    H125435   3.231   1.616   1.128  0.5482 -1.1910  1.1067
 1292TIP3    H225436   3.127   1.523   1.070  0.3550 -0.4567  0.2319
 1293TIP3   OH225437   1.511   3.695   6.472  0.4424 -0.0192 -0.2163
 1293TIP3    H125438   1.470   3.610   6.463  1.3595 -0.4025 -0.9106
 1293TIP3    H225439   1.576   3.683   6.542 -0.4081  0.5098  0.6917
 1294TIP3   OH225440   6.475   4.097   8.066  0.1515  0.5386  0.6100
 1294TIP3    H125441   6.428   4.157   8.124 -1.0530  1.5103 -1.2512
 1294TIP3    H225442   6.497   4.150   7.989 -1.6622 -1.4865 -1.4670
 1295TIP3   OH225443   0.448   0.752   8.269  0.3490 -0.3832  0.0857
 1295TIP3    H125444   0.398   0.731   8.347 -1.0030  2.6092  0.1740
 1295TIP3    H225445   0.472   0.844   8.280 -0.8143  0.5216 -3.3784
 1296TIP3   OH225446   2.537   1.287   6.891  0.2386 -0.8047  0.0503
 1296TIP3    H125447   2.516   1.264   6.982  1.0463  0.0457  0.4722
 1296TIP3    H225448   2.453   1.308   6.851  0.1173  1.7929  1.4716
 1297TIP3   OH225449   1.807   3.299   0.476 -0.0597  0.4738  0.1898
 1297TIP3    H125450   1.877   3.303   0.541 -1.6112  0.3399  1.9358
 1297TIP3    H225451   1.757   3.379   0.489 -1.0803 -0.1097 -0.0198
 1298TIP3   OH225452   5.821   5.544   7.678  0.4608  0.0704 -0.1330
 1298TIP3    H125453   5.866   5.505   7.753  0.7694 -1.4479 -1.0647
 1298TIP3    H225454   5.892   5.576   7.622  0.2481  0.6716 -0.0672
 1299TIP3   OH225455   3.934   2.998   6.974  0.2056  0.1108 -0.6298
 1299TIP3    H125456   3.938   2.909   6.940 -0.8105  0.4817 -1.7821
 1299TIP3    H225457   3.959   3.053   6.900 -2.9912  0.9931 -1.1853
 1300TIP3   OH225458   4.692   0.418   0.513  0.2288  0.3098  0.5386
 1300TIP3    H125459   4.759   0.350   0.502 -0.1793  0.2342 -2.0730
 1300TIP3    H225460   4.738   0.488   0.560  1.7275 -0.3215  0.0991
 1301TIP3   OH225461   5.986   1.915   2.183  0.5635 -0.1730 -0.0240
 1301TIP3    H125462   5.948   1.989   2.136  2.4745  1.2956  0.6100
 1301TIP3    H225463   5.945   1.917   2.270 -0.8787 -1.1545 -0.6473
 1302TIP3   OH225464   2.634   6.427   0.435  0.3689 -0.2408  0.2434
 1302TIP3    H125465   2.550   6.429   0.389 -0.3869  1.0668  1.5901
 1302TIP3    H225466   2.620   6.369   0.510  0.5101  0.3035  0.7054
 1303TIP3   OH225467   3.992   3.214   0.341 -0.0473  0.3419  0.3191
 1303TIP3    H125468   3.970   3.146   0.277 -1.5401 -0.1106  1.2668
 1303TIP3    H225469   3.979   3.297   0.294  0.2650  0.0141 -0.3663
 1304TIP3   OH225470   0.759   1.761   1.828 -0.2991  0.1793 -0.7443
 1304TIP3    H125471   0.841   1.711   1.834  0.2730  1.2604  1.5974
 1304TIP3    H225472   0.787   1.848   1.801 -0.1072  1.5090  3.1846
 1305TIP3   OH225473   2.876   1.331   6.899 -0.3382  0.2124 -0.5650
 1305TIP3    H125474   2.864   1.265   6.968  1.1092  0.2521 -0.2461
 1305TIP3    H225475   2.868   1.281   6.818  0.7228 -0.3773 -0.3260
 1306TIP3   OH225476   6.726   1.562   7.871 -0.0953  0.2704 -0.0170
 1306TIP3    H125477   6.753   1.514   7.793 -0.4016 -0.1649  0.1403
 1306TIP3    H225478   6.800   1.618   7.893 -0.4082  1.2315 -1.2738
 1307TIP3   OH225479   1.296   3.840   6.713 -0.0423 -0.0917 -0.2112
 1307TIP3    H125480   1.203   3.817   6.716  0.0461 -0.4005  0.3690
 1307TIP3    H225481   1.341   3.757   6.698  0.1140  0.1332 -1.0472
 1308TIP3   OH225482   1.548   5.116   6.794 -0.4005  0.5128 -0.5327
 1308TIP3    H125483   1.632   5.069   6.788 -0.7797 -0.1568 -0.6627
 1308TIP3    H225484   1.564   5.186   6.858  0.0245 -0.1037  0.0456
 1309TIP3   OH225485   0.099   1.404   7.320 -0.3021  0.1122 -0.1271
 1309TIP3    H125486   0.064   1.437   7.237 -0.8478 -0.2378 -0.0447
 1309TIP3    H225487   0.191   1.432   7.321  0.4165 -1.9019 -1.9592
 1310TIP3   OH225488   1.118   2.997   2.169 -0.5337  0.6482 -0.4399
 1310TIP3    H125489   1.158   2.927   2.220 -2.4157  0.4034  0.8162
 1310TIP3    H225490   1.174   3.005   2.092  0.4537 -1.3797 -0.0194
 1311TIP3   OH225491   4.742   6.701   8.665 -0.9208  0.1888  0.3622
 1311TIP3    H125492   4.718   6.629   8.607 -1.3785  0.1265  0.6211
 1311TIP3    H225493   4.779   6.767   8.607 -0.8284 -0.1086  0.0764
 1312TIP3   OH225494   1.795   0.900   0.569  0.3661  0.1667  0.1416
 1312TIP3    H125495   1.882   0.866   0.549  0.5580  0.3413  0.6616
 1312TIP3    H225496   1.735   0.835   0.532  0.7217 -0.3493  0.4570
 1313TIP3   OH225497   1.917   6.491   0.339  0.3474 -0.4041  0.0680
 1313TIP3    H125498   2.002   6.449   0.348  0.4413 -0.0696  0.8081
 1313TIP3    H225499   1.915   6.557   0.409 -0.3635 -0.1553 -0.1794
 1314TIP3   OH225500   4.227   0.390   1.486  0.3426  0.4317 -0.4457
 1314TIP3    H125501   4.291   0.354   1.548  2.3740  1.8002 -1.6504
 1314TIP3    H225502   4.189   0.313   1.444  0.1826 -0.4611  1.2149
 1315TIP3   OH225503   3.937   2.633   0.769  0.2644 -0.7688 -0.9651
 1315TIP3    H125504   3.883   2.684   0.830  0.9487 -0.6067 -0.4808
 1315TIP3    H225505   4.000   2.697   0.735  0.9289 -1.2093 -0.5910
 1316TIP3   OH225506   0.824   2.032   1.974  0.2407 -0.2417 -0.4685
 1316TIP3    H125507   0.782   2.103   1.924  1.4282  0.5739 -0.3490
 1316TIP3    H225508   0.764   2.015   2.047 -1.7503 -1.7402 -2.3153
 1317TIP3   OH225509   6.067   4.438   8.657 -0.1619 -0.3999  0.3166
 1317TIP3    H125510   6.033   4.486   8.582 -1.3814 -0.9494  0.4964
 1317TIP3    H225511   6.157   4.469   8.666 -0.0491 -0.1915 -1.2495
 1318TIP3   OH225512   3.653   6.782   0.218  0.0847  0.2403 -0.5226
 1318TIP3    H125513   3.630   6.698   0.178  1.9473 -1.4068  1.5813
 1318TIP3    H225514   3.660   6.843   0.145 -0.7215 -1.5674 -2.1918
 1319TIP3   OH225515   3.466   5.141   1.513  0.5574 -0.0232  0.3371
 1319TIP3    H125516   3.517   5.062   1.492 -0.4256 -1.1619  2.0184
 1319TIP3    H225517   3.375   5.113   1.508  0.1401  1.3515 -0.2411
 1320TIP3   OH225518   4.588   0.737   7.381  0.1794 -0.3193 -0.0882
 1320TIP3    H125519   4.677   0.772   7.385  0.2612 -0.3938 -0.9875
 1320TIP3    H225520   4.586   0.688   7.299 -0.5345 -0.7578  0.1863
 1321TIP3   OH225521   5.120   4.751   1.779 -0.0082  0.0033 -0.0813
 1321TIP3    H125522   5.143   4.674   1.831  1.6602  1.3984  1.4212
 1321TIP3    H225523   5.196   4.764   1.722 -0.1933  0.6123 -0.1950
 1322TIP3   OH225524   4.796   1.758   7.344 -0.1815  0.0872 -0.4368
 1322TIP3    H125525   4.755   1.756   7.258 -0.3716 -0.1139 -0.3422
 1322TIP3    H225526   4.729   1.796   7.402 -0.9266 -1.9174  0.0783
 1323TIP3   OH225527   2.741   6.163   2.130  0.9365 -0.0757  0.4963
 1323TIP3    H125528   2.662   6.111   2.118 -1.8565  3.8278  0.0083
 1323TIP3    H225529   2.782   6.128   2.209 -2.0514 -1.4289  1.5576
 1324TIP3   OH225530   2.404   5.537   8.268 -0.4076  0.0878  0.3524
 1324TIP3    H125531   2.342   5.503   8.333  0.7879  1.9066  2.5965
 1324TIP3    H225532   2.448   5.459   8.234 -1.7637 -1.0029  0.9847
 1325TIP3   OH225533   0.779   4.315   1.145  0.3706 -0.1718 -0.4568
 1325TIP3    H125534   0.761   4.400   1.185  0.9481 -0.1413 -0.2531
 1325TIP3    H225535   0.819   4.336   1.061 -0.8271 -0.2363 -1.0697
 1326TIP3   OH225536   0.382   3.512   1.730 -0.0043 -0.2688 -0.4251
 1326TIP3    H125537   0.454   3.539   1.673  0.2157  2.7854  1.0448
 1326TIP3    H225538   0.303   3.529   1.678  0.2481  0.2438 -0.6509
 1327TIP3   OH225539   1.992   4.114   0.041  0.0743  0.0767 -0.3503
 1327TIP3    H125540   1.942   4.179  -0.008 -1.6962 -0.7384  0.2884
 1327TIP3    H225541   1.928   4.047   0.064  0.6234  0.6687  3.5537
 1328TIP3   OH225542   3.355   1.420   8.653  0.7614  0.1116  0.2464
 1328TIP3    H125543   3.337   1.396   8.743  0.0265  1.6869  0.5562
 1328TIP3    H225544   3.442   1.460   8.655  0.1419  1.5064  0.5623
 1329TIP3   OH225545   6.582   4.100   0.371  0.4527 -0.5814 -0.4091
 1329TIP3    H125546   6.629   4.058   0.300 -1.1079 -1.2296 -1.0993
 1329TIP3    H225547   6.549   4.028   0.424  2.5002 -0.1241  1.6858
 1330TIP3   OH225548   2.984   2.424   7.317 -0.1288 -0.2127 -0.2509
 1330TIP3    H125549   2.993   2.478   7.395  2.7060 -1.4460  0.4293
 1330TIP3    H225550   2.893   2.393   7.319 -0.2412  0.0805  2.3695
 1331TIP3   OH225551   1.796   5.001   7.267 -0.5219 -0.0129  0.5017
 1331TIP3    H125552   1.834   5.056   7.198 -1.0010 -0.8756 -0.4744
 1331TIP3    H225553   1.838   5.032   7.348  0.7748  0.3765 -0.2935
 1332TIP3   OH225554   6.861   6.226   1.470 -0.2827  0.1475 -0.2009
 1332TIP3    H125555   6.792   6.201   1.532 -0.8579 -1.2707 -1.3649
 1332TIP3    H225556   6.862   6.156   1.405  1.3789  0.8070 -0.9429
 1333TIP3   OH225557   6.240   3.947   1.140  0.1300 -0.5925 -0.0001
 1333TIP3    H125558   6.263   3.862   1.103 -0.9866 -0.3975 -1.2364
 1333TIP3    H225559   6.182   3.986   1.074 -1.3491  0.0994  1.6535
 1334TIP3   OH225560   1.844   6.633   0.110 -0.3500 -0.5473  0.8711
 1334TIP3    H125561   1.830   6.573   0.184 -2.5769  0.3134  1.2269
 1334TIP3    H225562   1.800   6.713   0.136 -0.7006 -0.0308 -1.1746
 1335TIP3   OH225563   3.601   2.199   8.225  0.2403  0.4029 -0.0595
 1335TIP3    H125564   3.573   2.291   8.230 -0.5615  0.1888 -0.4402
 1335TIP3    H225565   3.604   2.179   8.132 -0.2430 -0.1405  0.0315
 1336TIP3   OH225566   2.599   3.784   0.568  0.3048  0.7189 -0.2652
 1336TIP3    H125567   2.626   3.728   0.640  0.1000  0.5737 -0.3012
 1336TIP3    H225568   2.673   3.782   0.506 -1.1283 -2.5629 -2.1006
 1337TIP3   OH225569   1.050   2.737   6.892  0.3763 -0.0186  0.0456
 1337TIP3    H125570   0.970   2.704   6.851 -0.5854  0.6812  1.3198
 1337TIP3    H225571   1.058   2.827   6.859  0.1867  0.1836  0.5472
 1338TIP3   OH225572   3.454   3.645   0.963 -0.0436  0.1267 -0.6210
 1338TIP3    H125573   3.451   3.737   0.938  0.5032  0.2175 -0.3676
 1338TIP3    H225574   3.403   3.600   0.896 -1.0852  0.7194 -0.2476
 1339TIP3   OH225575   4.938   0.127   0.432  0.0337  0.5088 -0.1861
 1339TIP3    H125576   4.996   0.077   0.489 -1.2502  0.3312  1.0239
 1339TIP3    H225577   4.979   0.213   0.426 -0.4669  0.9782  2.1772
 1340TIP3   OH225578   2.113   4.294   2.056 -0.2679 -0.0478 -0.2632
 1340TIP3    H125579   2.151   4.263   2.138 -0.8168  1.2511  0.5173
 1340TIP3    H225580   2.128   4.389   2.057 -0.1588 -0.0294 -1.7401
 1341TIP3   OH225581   4.453   1.974   0.669 -0.1327  0.0881  0.0456
 1341TIP3    H125582   4.483   2.011   0.585 -1.1146  0.6953 -0.0609
 1341TIP3    H225583   4.383   1.913   0.644  1.7164 -2.2197  0.1886
 1342TIP3   OH225584   2.361   5.613   8.662 -0.5598 -0.4006  0.6454
 1342TIP3    H125585   2.342   5.547   8.596  0.3994  1.1966 -1.3370
 1342TIP3    H225586   2.449   5.593   8.692 -0.2757 -0.0616  0.0567
 1343TIP3   OH225587   6.770   0.208   8.635 -0.2340  0.1243  0.0995
 1343TIP3    H125588   6.736   0.138   8.579  0.2565  0.0690 -0.1325
 1343TIP3    H225589   6.834   0.254   8.581  0.8398 -0.4282  0.8489
 1344TIP3   OH225590   6.839   2.074   1.408  0.5131  0.4127  0.5562
 1344TIP3    H125591   6.825   2.157   1.453  0.3144  0.5665  0.2131
 1344TIP3    H225592   6.924   2.044   1.440 -0.6082 -0.6294  2.8187
 1345TIP3   OH225593   1.456   3.182   7.911 -0.1192 -0.1209  0.4882
 1345TIP3    H125594   1.389   3.128   7.869 -0.8093  1.1177 -0.0869
 1345TIP3    H225595   1.521   3.120   7.943 -0.3871 -1.2216 -0.9924
 1346TIP3   OH225596   3.658   4.014   1.540 -0.4157 -0.6319  0.0979
 1346TIP3    H125597   3.754   4.015   1.540 -0.3986  0.7266  1.1384
 1346TIP3    H225598   3.635   3.944   1.479  1.2555 -3.0967  2.0816
 1347TIP3   OH225599   6.787   6.836   7.126 -0.2880  0.2205  0.1583
 1347TIP3    H125600   6.764   6.818   7.217 -0.3210  0.8443  0.2752
 1347TIP3    H225601   6.879   6.862   7.129 -0.1933 -0.0858 -0.0304
 1348TIP3   OH225602   1.222   0.398   8.068  0.1516 -0.1869 -0.1519
 1348TIP3    H125603   1.156   0.332   8.089 -0.4195 -0.1151 -1.6114
 1348TIP3    H225604   1.305   0.358   8.095 -0.2346 -1.3024 -0.5464
 1349TIP3   OH225605   3.217   3.206   7.748  0.5348 -0.1706 -0.3424
 1349TIP3    H125606   3.208   3.195   7.843  0.7517  3.2620  0.2235
 1349TIP3    H225607   3.272   3.284   7.739 -0.4726  0.3157 -3.2644
 1350TIP3   OH225608   5.295   3.714   1.379  0.5184  0.0962  0.4755
 1350TIP3    H125609   5.309   3.641   1.440  1.4143 -0.4882 -0.3969
 1350TIP3    H225610   5.236   3.679   1.312  0.1930  0.4771  0.5587
 1351TIP3   OH225611   0.109   6.284   6.643 -0.7327  0.0001  0.6993
 1351TIP3    H125612   0.112   6.304   6.550 -1.9023 -2.9215 -0.0824
 1351TIP3    H225613   0.114   6.369   6.687 -0.1528  1.4463 -1.9969
 1352TIP3   OH225614   3.043   0.005   7.948  0.3294  0.0944 -0.0951
 1352TIP3    H125615   3.115   0.053   7.908  0.7664 -0.6296 -0.2078
 1352TIP3    H225616   3.006  -0.046   7.877  0.2948 -0.2298  0.1535
 1353TIP3   OH225617   0.629   2.223   8.306  0.0117  0.0984  0.7345
 1353TIP3    H125618   0.657   2.132   8.308 -1.8080 -0.5354 -0.7324
 1353TIP3    H225619   0.683   2.266   8.373  1.5843 -1.8256  0.7762
 1354TIP3   OH225620   3.910   1.393   0.494  0.0389  0.6521 -0.6980
 1354TIP3    H125621   3.824   1.394   0.451 -0.2007 -0.7339 -0.3190
 1354TIP3    H225622   3.931   1.300   0.503  0.4428  0.8998  1.4528
 1355TIP3   OH225623   1.582   5.369   2.760 -0.6340  0.3075  0.2180
 1355TIP3    H125624   1.608   5.277   2.753 -2.5446 -0.4887  2.4453
 1355TIP3    H225625   1.489   5.366   2.782 -0.5880  2.7583  0.9969
 1356TIP3   OH225626   4.822   2.088   7.138 -0.3075 -0.1517 -0.1257
 1356TIP3    H125627   4.741   2.056   7.177 -1.1832  2.5801  0.5123
 1356TIP3    H225628   4.820   2.056   7.048 -2.4299  0.3847 -0.3141
 1357TIP3   OH225629   2.394   4.465   0.456  0.1088 -0.1781  0.3748
 1357TIP3    H125630   2.447   4.532   0.498  2.4086 -0.0879 -2.3573
 1357TIP3    H225631   2.449   4.432   0.384 -0.9893 -4.7527  1.2881
 1358TIP3   OH225632   3.890   0.304   1.725  0.5903  0.1372 -0.1910
 1358TIP3    H125633   3.828   0.234   1.706  1.3908 -0.4517 -0.6591
 1358TIP3    H225634   3.964   0.261   1.767 -0.1794  1.1194  2.3044
 1359TIP3   OH225635   4.313   0.231   0.577  0.2359 -1.1076 -0.4000
 1359TIP3    H125636   4.240   0.170   0.565  0.0336 -0.7376 -1.0995
 1359TIP3    H225637   4.319   0.279   0.495  0.9955 -0.8266 -0.1970
 1360TIP3   OH225638   0.348   5.835   0.935 -0.1870  0.0611  0.7865
 1360TIP3    H125639   0.268   5.873   0.899 -0.9100 -1.1876  1.0027
 1360TIP3    H225640   0.416   5.855   0.870 -1.0749 -0.5333 -0.3623
 1361TIP3   OH225641   1.801   2.199   7.506 -0.1486  0.4351  0.0829
 1361TIP3    H125642   1.790   2.219   7.413 -1.2043  1.1683  0.3461
 1361TIP3    H225643   1.714   2.175   7.536  0.3452 -0.6338  0.7090
 1362TIP3   OH225644   4.430   1.708   2.646 -0.4540 -0.3213 -0.6910
 1362TIP3    H125645   4.459   1.661   2.725 -1.1918 -0.2435 -0.3683
 1362TIP3    H225646   4.351   1.662   2.618 -0.0719 -0.4849 -1.5218
 1363TIP3   OH225647   1.672   3.598   6.668 -0.6856  0.7305  0.3800
 1363TIP3    H125648   1.627   3.521   6.702 -0.6398  0.1863 -0.7421
 1363TIP3    H225649   1.764   3.572   6.661 -0.4457  1.3262  1.2146
 1364TIP3   OH225650   2.945   0.801   8.301 -0.5843 -0.0898  0.3254
 1364TIP3    H125651   2.905   0.879   8.263 -0.1177  0.2412  0.5094
 1364TIP3    H225652   2.926   0.732   8.238 -0.3108  0.3373 -0.2281
 1365TIP3   OH225653   1.743   3.344   0.152  0.0243 -0.4717 -0.1262
 1365TIP3    H125654   1.698   3.309   0.076 -2.4125  0.5605  0.7473
 1365TIP3    H225655   1.679   3.401   0.194  2.5234  2.0318  0.6088
 1366TIP3   OH225656   4.363   1.016   1.522 -0.2620  0.4240 -0.1114
 1366TIP3    H125657   4.323   0.988   1.439 -0.9620 -1.0880  0.6990
 1366TIP3    H225658   4.291   1.053   1.573 -0.4271 -1.1144  0.8410
 1367TIP3   OH225659   5.657   3.772   6.833 -0.9926 -0.2490  0.8211
 1367TIP3    H125660   5.690   3.700   6.887 -1.2400 -0.0782  1.2055
 1367TIP3    H225661   5.735   3.824   6.812 -0.5214 -1.6017 -0.9735
 1368TIP3   OH225662   1.618   1.127   6.724  0.0692 -0.1813 -0.3304
 1368TIP3    H125663   1.534   1.126   6.677 -0.5324  1.5907  0.5934
 1368TIP3    H225664   1.683   1.143   6.656 -0.2205 -2.1533 -1.1468
 1369TIP3   OH225665   2.009   6.209   7.635  0.2622  0.2143 -0.6491
 1369TIP3    H125666   2.036   6.195   7.725 -1.7040 -0.4571 -0.1036
 1369TIP3    H225667   2.087   6.192   7.583  1.6412  1.3444  0.9432
 1370TIP3   OH225668   1.418   5.956   7.004 -0.1772  0.3973  0.2000
 1370TIP3    H125669   1.455   5.937   7.091 -1.1000 -0.1423  0.4875
 1370TIP3    H225670   1.336   6.001   7.022  0.8233  2.6445 -0.4539
 1371TIP3   OH225671   1.134   6.709   0.286  0.0832  0.2825 -0.0880
 1371TIP3    H125672   1.178   6.652   0.349 -0.1977  0.3383  0.1632
 1371TIP3    H225673   1.047   6.669   0.275 -0.7112  1.5470  1.3267
 1372TIP3   OH225674   5.782   3.685   7.204 -0.2427  0.3209  0.3472
 1372TIP3    H125675   5.804   3.633   7.127 -3.7353 -0.4029 -0.3266
 1372TIP3    H225676   5.841   3.760   7.199  0.8562 -0.5902 -2.0225
 1373TIP3   OH225677   1.163   0.862   7.609 -0.4629  0.1173  0.8491
 1373TIP3    H125678   1.116   0.781   7.590 -1.1623  1.2764 -3.6247
 1373TIP3    H225679   1.252   0.846   7.580 -0.7562  1.0056 -0.7028
 1374TIP3   OH225680   6.555   1.588   0.742  0.2036 -0.4093 -0.2380
 1374TIP3    H125681   6.498   1.534   0.798  1.4437 -1.9825 -0.4323
 1374TIP3    H225682   6.642   1.580   0.781  0.2455  2.8303  0.7035
 1375TIP3   OH225683   4.063   5.169   0.835  0.5602  0.0963 -0.1801
 1375TIP3    H125684   4.044   5.237   0.900  1.8578  0.1022  0.2162
 1375TIP3    H225685   4.141   5.200   0.790  0.2495 -0.3932 -1.0709
 1376TIP3   OH225686   0.558   6.683   2.741  0.1463 -0.0129  0.2893
 1376TIP3    H125687   0.480   6.628   2.751 -0.5400  0.9855  0.5604
 1376TIP3    H225688   0.582   6.672   2.649  0.1286 -0.8980  0.3802
 1377TIP3   OH225689   4.713   4.539   2.547 -0.3717  0.4232  0.3377
 1377TIP3    H125690   4.638   4.481   2.547 -1.6952  2.0581 -0.1858
 1377TIP3    H225691   4.684   4.617   2.500  1.7054  1.0490 -0.0261
 1378TIP3   OH225692   5.361   2.916   0.715  0.1631  0.1168 -0.2582
 1378TIP3    H125693   5.281   2.865   0.704  1.0461 -1.4646  0.2832
 1378TIP3    H225694   5.362   2.940   0.807 -0.2540  1.1615 -0.5137
 1379TIP3   OH225695   4.963   3.584   7.384 -0.4896  0.1048 -0.1681
 1379TIP3    H125696   4.955   3.645   7.311  0.9993  1.0766  0.4377
 1379TIP3    H225697   5.024   3.626   7.444  0.0052 -1.6579  0.6254
 1380TIP3   OH225698   4.935   0.875   0.395  0.0239 -0.2472  0.2262
 1380TIP3    H125699   5.002   0.817   0.431  0.8831  0.5517 -0.0404
 1380TIP3    H225700   4.970   0.963   0.409 -0.4015  0.1345 -1.0339
 1381TIP3   OH225701   6.534   1.075   1.603  0.3112 -0.2849  0.0424
 1381TIP3    H125702   6.508   1.167   1.611  0.6331 -0.2815  1.1966
 1381TIP3    H225703   6.543   1.045   1.693  2.6886 -0.7439 -0.2790
 1382TIP3   OH225704   3.182   0.089   2.414 -0.0758 -0.3348  0.6462
 1382TIP3    H125705   3.260   0.110   2.466  0.3151 -0.2540  0.0307
 1382TIP3    H225706   3.197   0.001   2.381  0.2669  0.0980 -0.3937
 1383TIP3   OH225707   1.976   2.899   6.681 -0.0406 -0.1332  0.2550
 1383TIP3    H125708   2.031   2.912   6.604 -0.6494 -0.4817 -0.2515
 1383TIP3    H225709   1.890   2.929   6.654 -0.2513 -0.2310  0.8144
 1384TIP3   OH225710   4.248   4.513   2.285  0.2534 -0.0823  0.2991
 1384TIP3    H125711   4.291   4.565   2.353 -1.5063  0.4068  1.0700
 1384TIP3    H225712   4.161   4.494   2.319 -0.5916 -0.0664 -1.6872
 1385TIP3   OH225713   5.238   0.513   7.617  0.8418  0.1614  0.3887
 1385TIP3    H125714   5.179   0.588   7.609  1.2589  0.6550  1.6280
 1385TIP3    H225715   5.318   0.541   7.572  1.1131  0.5987  1.1340
 1386TIP3   OH225716   0.999   0.472   1.304 -0.2553  0.3436 -0.4829
 1386TIP3    H125717   0.907   0.479   1.328 -0.6091 -1.1113 -1.3389
 1386TIP3    H225718   1.032   0.398   1.354  0.8217  1.6390  0.8211
 1387TIP3   OH225719   3.210   1.355   8.429 -0.5373  0.1058 -0.1884
 1387TIP3    H125720   3.220   1.418   8.358 -1.1984  2.0119  1.3296
 1387TIP3    H225721   3.286   1.370   8.485  0.5341 -2.0912 -0.9180
 1388TIP3   OH225722   0.811   2.940   1.040 -0.3102  0.0373 -0.1342
 1388TIP3    H125723   0.807   2.908   0.950 -1.2218  0.0233 -0.0972
 1388TIP3    H225724   0.720   2.964   1.061 -0.0453  0.3779  0.6561
 1389TIP3   OH225725   0.747   1.313   0.976 -0.4743 -0.7545  0.5495
 1389TIP3    H125726   0.746   1.389   0.918 -1.4276 -1.0278  0.1868
 1389TIP3    H225727   0.838   1.306   1.005 -0.4479  0.7539  0.9122
 1390TIP3   OH225728   0.375   0.396   0.862 -0.2943 -0.2065  0.3801
 1390TIP3    H125729   0.418   0.329   0.915  1.3329  0.2701 -0.2638
 1390TIP3    H225730   0.419   0.391   0.777 -0.5948  1.2095  0.1121
 1391TIP3   OH225731   3.958   2.190   2.250  0.6993  0.2424  0.1234
 1391TIP3    H125732   3.912   2.184   2.167  1.0308  0.4511 -0.0760
 1391TIP3    H225733   3.919   2.266   2.294  2.5199  1.9806 -1.0994
 1392TIP3   OH225734   2.247   6.200   1.464  0.4092 -0.8965  0.8804
 1392TIP3    H125735   2.167   6.231   1.506 -1.0902  0.8051 -2.7538
 1392TIP3    H225736   2.225   6.111   1.434 -0.0837 -0.5303  0.1182
 1393TIP3   OH225737   6.519   2.962   7.734 -0.3673  0.4645 -0.0778
 1393TIP3    H125738   6.455   3.026   7.702  0.6531  2.2285  1.2406
 1393TIP3    H225739   6.465   2.886   7.759 -1.7739  1.2753 -0.5068
 1394TIP3   OH225740   0.476   3.230   0.773  0.7782 -0.2989  0.2018
 1394TIP3    H125741   0.548   3.168   0.780 -0.2839 -1.4029  1.6619
 1394TIP3    H225742   0.436   3.232   0.860  0.8931  2.6129  0.2963
 1395TIP3   OH225743   2.207   1.154   6.505 -0.3534 -0.1612  0.0135
 1395TIP3    H125744   2.267   1.222   6.474 -0.9431  1.0263  1.3729
 1395TIP3    H225745   2.189   1.101   6.427 -0.3743  1.6121 -1.2606
 1396TIP3   OH225746   3.889   4.513   0.792  0.5400  0.1898  0.1344
 1396TIP3    H125747   3.982   4.488   0.793  0.2739 -0.8113  0.3305
 1396TIP3    H225748   3.870   4.534   0.883  0.1112 -1.4072  0.4394
 1397TIP3   OH225749   4.748   1.236   7.187 -0.2612 -0.0631 -0.3037
 1397TIP3    H125750   4.669   1.214   7.237  0.4942  0.0522  0.9885
 1397TIP3    H225751   4.798   1.292   7.246  0.8316 -0.2016 -1.0787
 1398TIP3   OH225752   1.812   3.252   1.828  0.1367 -0.0400  0.0694
 1398TIP3    H125753   1.814   3.274   1.921 -0.5991 -0.4732  0.1927
 1398TIP3    H225754   1.728   3.208   1.815  0.4493 -0.4342 -0.6980
 1399TIP3   OH225755   6.064   0.235   1.225 -0.2055  0.5330  0.0692
 1399TIP3    H125756   6.061   0.222   1.131 -0.0163 -0.2387  0.1697
 1399TIP3    H225757   6.138   0.183   1.255  0.9943  2.3243  0.3944
 1400TIP3   OH225758   1.383   6.379   2.140  0.2334  0.1484 -0.4912
 1400TIP3    H125759   1.297   6.364   2.179 -0.3723 -0.0322 -1.8614
 1400TIP3    H225760   1.380   6.470   2.109  0.3292 -0.0256 -1.0218
 1401TIP3   OH225761   3.335   0.171   0.725  0.1854  0.1614  0.0181
 1401TIP3    H125762   3.306   0.080   0.727  0.4820  0.0732  0.3145
 1401TIP3    H225763   3.260   0.220   0.759 -0.1448  0.0756 -0.5779
 1402TIP3   OH225764   1.429   5.343   0.886  0.3686  0.4278  0.3625
 1402TIP3    H125765   1.475   5.271   0.927  1.1370  0.9166  0.3689
 1402TIP3    H225766   1.425   5.411   0.953  2.8689  1.7802 -0.7105
 1403TIP3   OH225767   1.047   2.098   2.287  0.6353 -0.3746  0.8245
 1403TIP3    H125768   0.972   2.104   2.347 -0.7758  0.1535 -0.9081
 1403TIP3    H225769   1.089   2.184   2.293 -1.3444  0.8257 -1.1545
 1404TIP3   OH225770   6.699   6.545   8.410  0.6617  0.2259  0.0297
 1404TIP3    H125771   6.735   6.456   8.403  0.7102  0.0438  1.9070
 1404TIP3    H225772   6.769   6.595   8.453  0.6341  1.1794 -1.0160
 1405TIP3   OH225773   1.294   3.600   0.695  0.5402 -0.1279 -0.4491
 1405TIP3    H125774   1.245   3.667   0.742  1.9697  1.8670 -1.6256
 1405TIP3    H225775   1.317   3.535   0.762 -3.4074 -1.1523  0.2039
 1406TIP3   OH225776   4.311   0.171   2.498  0.1527 -0.1651  0.0934
 1406TIP3    H125777   4.248   0.174   2.570 -0.0584  1.1590 -0.1242
 1406TIP3    H225778   4.393   0.204   2.536  0.6348 -1.5069  0.2711
 1407TIP3   OH225779   5.584   4.264   1.080 -0.2214  0.4903 -0.5380
 1407TIP3    H125780   5.580   4.307   0.994 -0.4754  2.1865  0.2810
 1407TIP3    H225781   5.632   4.326   1.135 -0.3755 -0.4205  0.6482
 1408TIP3   OH225782   5.258   5.077   8.197  0.7148 -0.4450  0.1095
 1408TIP3    H125783   5.197   5.024   8.145 -0.0444  2.5078 -2.2829
 1408TIP3    H225784   5.315   5.118   8.132  0.3072  2.7611  1.5933
 1409TIP3   OH225785   3.718   2.801   8.637  0.5086 -0.6400 -0.2062
 1409TIP3    H125786   3.665   2.805   8.717 -0.0232  1.0601 -0.6213
 1409TIP3    H225787   3.659   2.764   8.571  0.8490 -1.7385  0.0819
 1410TIP3   OH225788   0.091   1.368   0.037 -0.1511  0.2707 -0.2616
 1410TIP3    H125789   0.004   1.404   0.056  0.5295  1.9858 -0.2401
 1410TIP3    H225790   0.114   1.404  -0.048  0.0875 -1.1012 -0.8121
 1411TIP3   OH225791   3.173   1.919   0.848  0.7443  0.0391  0.0439
 1411TIP3    H125792   3.148   1.842   0.796 -0.5760  0.8890 -0.6383
 1411TIP3    H225793   3.262   1.939   0.819  1.7157 -2.0827  1.3204
 1412TIP3   OH225794   3.602   6.685   7.558  0.0710  0.4443  0.1296
 1412TIP3    H125795   3.638   6.597   7.545  1.6617  1.2557 -1.3560
 1412TIP3    H225796   3.514   6.670   7.593 -0.3910 -1.7948 -1.7276
 1413TIP3   OH225797   2.071   2.321   1.444  0.4402  0.7246  0.3987
 1413TIP3    H125798   2.056   2.234   1.407  1.3988  0.5548  0.3896
 1413TIP3    H225799   2.054   2.310   1.538  1.0169  0.4089  0.4704
 1414TIP3   OH225800   3.628   0.428   2.474  0.2432  0.5375 -0.2885
 1414TIP3    H125801   3.640   0.346   2.524  0.6702  1.2114  0.7607
 1414TIP3    H225802   3.534   0.445   2.478 -0.0896 -0.7244 -1.8937
 1415TIP3   OH225803   4.795   5.846   2.599  0.0489 -0.0087  0.1672
 1415TIP3    H125804   4.858   5.861   2.670  0.6681 -1.8562  0.0603
 1415TIP3    H225805   4.835   5.778   2.546 -1.6256 -0.5412 -0.4594
 1416TIP3   OH225806   6.460   2.456   1.093  0.5185  0.1504 -0.5562
 1416TIP3    H125807   6.445   2.544   1.128 -0.5855  0.2547 -1.2427
 1416TIP3    H225808   6.373   2.417   1.088  0.9931 -0.9775 -0.3021
 1417TIP3   OH225809   2.630   4.784   7.412 -0.1390 -0.0159 -0.0056
 1417TIP3    H125810   2.715   4.818   7.382 -0.3701 -0.2838 -0.9946
 1417TIP3    H225811   2.600   4.728   7.341 -1.4437  0.5783  0.0561
 1418TIP3   OH225812   2.921   2.135   0.014  0.5169 -0.0241 -0.0849
 1418TIP3    H125813   2.916   2.063  -0.049 -0.5553  0.5733 -0.7133
 1418TIP3    H225814   2.836   2.136   0.058  0.4391  0.9550 -0.2171
 1419TIP3   OH225815   5.361   0.752   7.249  0.2471 -0.5402 -0.1915
 1419TIP3    H125816   5.278   0.768   7.295  0.7466 -0.3095  0.6661
 1419TIP3    H225817   5.336   0.738   7.158 -0.7555 -0.6908  0.0923
 1420TIP3   OH225818   6.181   5.191   1.474  0.6999 -0.7835  0.2361
 1420TIP3    H125819   6.192   5.238   1.557 -1.6209  1.9285 -0.8316
 1420TIP3    H225820   6.140   5.255   1.416  0.4025 -3.2113 -2.4143
 1421TIP3   OH225821   4.229   1.918   8.255  0.3873 -0.3887  0.0046
 1421TIP3    H125822   4.198   2.008   8.258  0.6048 -0.3405  1.4384
 1421TIP3    H225823   4.153   1.865   8.281 -0.1360 -0.7665 -2.0997
 1422TIP3   OH225824   6.569   4.776   7.736  0.8847  0.2752 -1.0251
 1422TIP3    H125825   6.540   4.700   7.787  0.4410  0.2682 -1.2843
 1422TIP3    H225826   6.517   4.772   7.656 -1.2028  2.4418  0.1314
 1423TIP3   OH225827   0.083   2.593   1.940 -0.1357 -0.0725 -0.2139
 1423TIP3    H125828   0.010   2.551   1.985 -0.5517  1.7179  0.8963
 1423TIP3    H225829   0.045   2.629   1.860 -0.1798 -0.2421 -0.2692
 1424TIP3   OH225830   5.255   0.725   0.218 -0.3689  0.3883 -0.2508
 1424TIP3    H125831   5.348   0.742   0.201 -0.4283  0.3586 -0.6351
 1424TIP3    H225832   5.209   0.791   0.165 -0.6707 -2.2144 -3.5865
 1425TIP3   OH225833   6.260   2.093   1.917  0.3320 -0.1457  0.3392
 1425TIP3    H125834   6.197   2.135   1.858 -1.6051 -2.3152  0.7409
 1425TIP3    H225835   6.304   2.029   1.862  2.1919  1.2565  0.1011
 1426TIP3   OH225836   2.256   3.981   1.275  0.4139 -0.7186 -0.2943
 1426TIP3    H125837   2.266   3.924   1.198 -1.3943 -0.0997 -1.0318
 1426TIP3    H225838   2.167   4.017   1.267  0.2878 -0.4120  1.9400
 1427TIP3   OH225839   3.114   6.194   7.311  0.0017 -0.7915  0.2385
 1427TIP3    H125840   3.113   6.100   7.297 -1.5586 -1.0544  1.7731
 1427TIP3    H225841   3.033   6.225   7.271 -0.0225 -0.2552  0.6907
 1428TIP3   OH225842   2.408   5.645   6.543 -0.4596  0.2424 -0.3647
 1428TIP3    H125843   2.440   5.734   6.535 -0.9232  0.6449  1.6979
 1428TIP3    H225844   2.429   5.620   6.633 -0.4628 -1.6932 -0.8528
 1429TIP3   OH225845   3.524   5.187   7.769 -0.1133 -0.2786 -0.7599
 1429TIP3    H125846   3.557   5.098   7.758  1.5665 -0.0633  1.6736
 1429TIP3    H225847   3.577   5.240   7.710 -0.5243 -0.7602 -1.5756
 1430TIP3   OH225848   1.203   5.051   0.223  0.2508  0.2172  0.0716
 1430TIP3    H125849   1.280   5.098   0.190  1.0025 -0.8416  0.2388
 1430TIP3    H225850   1.130   5.109   0.205  0.9946  0.9136 -0.8294
 1431TIP3   OH225851   1.490   4.336   0.646 -0.1768  0.0024 -0.5649
 1431TIP3    H125852   1.458   4.296   0.727  0.4261 -0.8059 -0.7163
 1431TIP3    H225853   1.496   4.430   0.667 -0.7611 -0.0912  0.0753
 1432TIP3   OH225854   2.668   3.483   0.525 -0.1440  0.0835  0.3097
 1432TIP3    H125855   2.739   3.525   0.573 -1.2995  2.6681 -0.1018
 1432TIP3    H225856   2.677   3.513   0.435 -1.3371 -0.1167  0.0951
 1433TIP3   OH225857   3.080   3.989   0.192 -0.0317 -0.6701  0.2214
 1433TIP3    H125858   3.166   3.960   0.220 -0.3546 -1.8593  0.0089
 1433TIP3    H225859   3.097   4.053   0.122  0.6709 -3.0054 -1.8818
 1434TIP3   OH225860   2.447   0.081   1.050 -0.1140  0.0094  0.6163
 1434TIP3    H125861   2.362   0.037   1.052 -1.2375  1.0884 -5.0558
 1434TIP3    H225862   2.510   0.010   1.034 -0.6240 -0.3903  0.3473
 1435TIP3   OH225863   4.367   6.785   7.314 -0.3939 -0.3847  0.2281
 1435TIP3    H125864   4.436   6.815   7.373  0.0944  1.2586 -1.0983
 1435TIP3    H225865   4.407   6.788   7.227 -1.9606  0.0461 -0.5091
 1436TIP3   OH225866   1.824   0.260   0.857  0.1406  0.9242 -0.6003
 1436TIP3    H125867   1.776   0.261   0.940  1.8721  0.1030  0.4679
 1436TIP3    H225868   1.764   0.300   0.794 -1.4011  1.1510  0.9389
 1437TIP3   OH225869   6.772   5.281   8.671  0.0596  0.2676  0.4384
 1437TIP3    H125870   6.765   5.357   8.729  2.9068  0.0604  1.1963
 1437TIP3    H225871   6.710   5.218   8.707 -2.7495  2.2535 -0.4850
 1438TIP3   OH225872   0.802   6.524   0.764 -0.7252  0.3387  0.3789
 1438TIP3    H125873   0.740   6.595   0.779 -0.9301  0.1166  0.6061
 1438TIP3    H225874   0.756   6.463   0.707 -0.9078 -0.0633  0.9379
 1439TIP3   OH225875   5.524   4.746   1.947 -0.5894  0.0455 -0.0448
 1439TIP3    H125876   5.585   4.795   2.001 -1.2522 -0.3574  1.0979
 1439TIP3    H225877   5.563   4.746   1.860  1.0793 -0.2746  0.6826
 1440TIP3   OH225878   3.146   5.487   2.455  0.4468 -0.0491  0.1951
 1440TIP3    H125879   3.130   5.422   2.387  1.5480  0.4231 -0.5364
 1440TIP3    H225880   3.238   5.478   2.477  0.3567  0.5353  0.8568
 1441TIP3   OH225881   5.223   0.596   0.509  0.4458 -1.2394 -0.0619
 1441TIP3    H125882   5.225   0.649   0.429 -1.8919 -1.8705 -0.6188
 1441TIP3    H225883   5.212   0.660   0.579 -2.2122 -0.8636 -0.7104
 1442TIP3   OH225884   0.914   5.135   0.541 -0.5368 -0.4431 -0.8091
 1442TIP3    H125885   0.992   5.185   0.519 -0.2140 -0.5555  0.0217
 1442TIP3    H225886   0.896   5.082   0.463  2.3271 -3.1072  0.1265
 1443TIP3   OH225887   3.270   1.019   8.281  0.3314 -0.7490  0.1056
 1443TIP3    H125888   3.229   0.965   8.213 -1.0925 -0.0325  0.3570
 1443TIP3    H225889   3.319   0.957   8.335 -1.1266 -1.7826  0.2848
 1444TIP3   OH225890   0.413   0.783   6.815 -0.4908 -0.1113 -0.0611
 1444TIP3    H125891   0.476   0.750   6.751  0.2398 -0.1733  0.6605
 1444TIP3    H225892   0.329   0.746   6.789 -0.0901 -0.6457 -0.6056
 1445TIP3   OH225893   3.130   6.416   0.858  0.7999 -0.8064 -0.0254
 1445TIP3    H125894   3.185   6.460   0.923  0.3957 -1.2459  0.6245
 1445TIP3    H225895   3.139   6.469   0.779  1.3081 -0.2707  0.3857
 1446TIP3   OH225896   5.412   0.420   0.403 -0.1600  0.2629 -0.3496
 1446TIP3    H125897   5.349   0.471   0.454 -1.2565  0.1939 -1.6047
 1446TIP3    H225898   5.481   0.484   0.381  0.3614  0.2871  1.1929
 1447TIP3   OH225899   5.615   4.848   7.754  0.3474 -0.2268 -0.2603
 1447TIP3    H125900   5.629   4.876   7.844  0.7651  0.1499 -0.4357
 1447TIP3    H225901   5.565   4.920   7.714  1.5585  0.3880 -0.7549
 1448TIP3   OH225902   0.950   4.178   2.708  0.1006 -0.2912 -0.7533
 1448TIP3    H125903   0.980   4.164   2.618  0.5597  0.5631 -0.7366
 1448TIP3    H225904   0.920   4.269   2.709 -0.8727 -0.6067 -0.3106
 1449TIP3   OH225905   2.379   2.331   6.895  0.3138  0.1812 -0.1749
 1449TIP3    H125906   2.333   2.303   6.975 -1.3419  1.1258 -0.7349
 1449TIP3    H225907   2.465   2.359   6.926 -0.9344  2.4121  1.6730
 1450TIP3   OH225908   1.152   6.186   0.546  0.5772  0.1390 -0.1544
 1450TIP3    H125909   1.108   6.166   0.463 -0.5692  2.0853 -0.0799
 1450TIP3    H225910   1.080   6.199   0.608  1.3685  0.5420  0.6914
 1451TIP3   OH225911   0.367   4.435   7.953 -0.1903  0.2166  0.4895
 1451TIP3    H125912   0.288   4.488   7.954 -0.3541 -0.0170 -0.0283
 1451TIP3    H225913   0.348   4.363   8.013 -0.1065  0.5278  0.9004
 1452TIP3   OH225914   1.526   5.089   7.216 -0.7165 -0.1232 -0.4065
 1452TIP3    H125915   1.520   5.153   7.287  1.2029 -0.0685 -0.2419
 1452TIP3    H225916   1.610   5.045   7.230 -0.1423  0.0816 -2.7865
 1453TIP3   OH225917   1.568   3.048   7.397 -0.4561  0.0839  0.9134
 1453TIP3    H125918   1.478   3.066   7.370 -0.5811  0.1932  1.4014
 1453TIP3    H225919   1.561   2.976   7.459  0.1272 -2.4168 -1.7094
 1454TIP3   OH225920   0.050   3.718   7.786 -0.4327  0.4588  0.2701
 1454TIP3    H125921   0.080   3.727   7.695  0.4303 -0.4525  0.4450
 1454TIP3    H225922   0.055   3.806   7.822 -0.0758  0.6985 -0.3488
 1455TIP3   OH225923   2.732   2.063   0.489 -0.5006 -0.1617  0.1934
 1455TIP3    H125924   2.691   1.984   0.454  0.9691 -0.0576 -2.0186
 1455TIP3    H225925   2.694   2.134   0.437  2.0267 -0.0360 -1.7082
 1456TIP3   OH225926   3.262   4.418   7.203 -0.1739  0.2539  0.2740
 1456TIP3    H125927   3.175   4.457   7.207 -0.4811 -0.4262  0.3491
 1456TIP3    H225928   3.289   4.427   7.112  0.3931  1.9606  0.5638
 1457TIP3   OH225929   5.776   3.930   1.558  0.2246 -0.6031 -0.0991
 1457TIP3    H125930   5.737   4.007   1.516 -0.6964 -1.4455 -0.8172
 1457TIP3    H225931   5.711   3.901   1.622  0.2479 -1.2254 -0.3530
 1458TIP3   OH225932   3.079   5.936   7.254  0.0498  0.1728 -0.2983
 1458TIP3    H125933   3.154   5.877   7.261  2.1091  2.5775 -0.3523
 1458TIP3    H225934   3.042   5.918   7.168  1.3331 -0.2777 -0.7813
 1459TIP3   OH225935   1.957   1.446   1.516 -0.3437 -0.3143 -0.6948
 1459TIP3    H125936   1.897   1.462   1.589  0.8637 -0.7048  0.4240
 1459TIP3    H225937   2.018   1.380   1.549  0.2117 -0.5427 -2.0924
 1460TIP3   OH225938   4.802   5.907   0.045 -0.9361 -0.2714 -0.3326
 1460TIP3    H125939   4.738   5.836   0.056  0.0753 -1.0872  0.5292
 1460TIP3    H225940   4.864   5.895   0.117  0.4238  0.2521 -1.3656
 1461TIP3   OH225941   2.113   6.228   0.103  0.2566  0.1149 -0.2093
 1461TIP3    H125942   2.149   6.256   0.187  0.6580  2.0904 -0.9833
 1461TIP3    H225943   2.181   6.171   0.066  0.6819  0.3456  0.2108
 1462TIP3   OH225944   4.696   0.100   2.340 -0.7324  0.2642 -0.1572
 1462TIP3    H125945   4.758   0.151   2.289 -0.4360  1.2285  1.1335
 1462TIP3    H225946   4.748   0.028   2.376 -0.8810 -0.2480 -0.9235
 1463TIP3   OH225947   5.297   3.192   6.962  0.2488 -0.3661 -0.1710
 1463TIP3    H125948   5.282   3.282   6.933  1.1465 -0.4826 -1.0465
 1463TIP3    H225949   5.215   3.147   6.946  0.4973 -0.2558 -1.9414
 1464TIP3   OH225950   2.663   2.555   8.043 -0.1050  0.3377 -0.2182
 1464TIP3    H125951   2.614   2.491   8.095 -1.6006  2.7000  1.5306
 1464TIP3    H225952   2.607   2.571   7.967 -0.9011  1.1726  0.5081
 1465TIP3   OH225953   4.103   6.191   0.191 -0.1971 -0.2625  0.3001
 1465TIP3    H125954   4.101   6.226   0.280 -1.5378 -0.4442  0.3630
 1465TIP3    H225955   4.166   6.120   0.194  0.2006  0.1127  0.9641
 1466TIP3   OH225956   0.465   0.781   7.178  0.5329  0.5414  0.0804
 1466TIP3    H125957   0.397   0.731   7.132 -1.0228  0.4472  2.3504
 1466TIP3    H225958   0.546   0.734   7.159 -0.3714 -0.7671 -0.7473
 1467TIP3   OH225959   2.943   3.889   7.123  0.4322  0.3118 -0.6973
 1467TIP3    H125960   2.929   3.982   7.103  0.7880 -0.0500 -2.8643
 1467TIP3    H225961   2.861   3.846   7.097  0.8459 -0.1589 -1.2595
 1468TIP3   OH225962   4.153   0.839   2.418 -0.5020 -0.4203  0.2823
 1468TIP3    H125963   4.183   0.929   2.415 -1.2460 -0.1757 -0.9286
 1468TIP3    H225964   4.222   0.791   2.463  0.7031  0.4673 -0.5661
 1469TIP3   OH225965   2.688   3.091   0.713 -0.5345 -0.4302  0.7302
 1469TIP3    H125966   2.716   3.011   0.758 -0.0016 -1.3554 -1.1312
 1469TIP3    H225967   2.764   3.149   0.718 -0.0833 -0.9582  0.0820
 1470TIP3   OH225968   3.571   2.372   1.455 -0.2460  0.1538 -0.3916
 1470TIP3    H125969   3.615   2.297   1.415 -2.8269 -0.5637 -2.1771
 1470TIP3    H225970   3.526   2.336   1.531 -0.2843  0.1917 -0.3960
 1471TIP3   OH225971   4.411   0.226   1.299 -0.3585 -0.1961 -0.1663
 1471TIP3    H125972   4.324   0.262   1.318 -0.2368  0.1479 -0.2480
 1471TIP3    H225973   4.471   0.284   1.346  0.1872  2.4042 -3.6998
 1472TIP3   OH225974   2.168   4.782   1.421 -0.4196  0.1274 -0.8746
 1472TIP3    H125975   2.184   4.695   1.385  1.3696 -0.0044  0.1081
 1472TIP3    H225976   2.128   4.766   1.507 -1.7191  0.3524 -1.4118
 1473TIP3   OH225977   4.386   0.312   7.711  0.4020 -1.1757  0.1354
 1473TIP3    H125978   4.401   0.369   7.786  2.4271 -1.5758  0.0679
 1473TIP3    H225979   4.428   0.357   7.638 -0.7509 -1.2452 -0.6011
 1474TIP3   OH225980   3.763   5.922   1.569 -0.7410  0.0157  0.0002
 1474TIP3    H125981   3.755   5.889   1.658  3.0183  0.5106  0.7006
 1474TIP3    H225982   3.755   6.017   1.579 -0.6008  0.0488 -0.2018
 1475TIP3   OH225983   4.190   1.136   2.376  0.3179  0.2547 -0.2998
 1475TIP3    H125984   4.277   1.117   2.411  1.6382  1.0458 -2.8269
 1475TIP3    H225985   4.138   1.163   2.451  2.3416  0.0022  1.2610
 1476TIP3   OH225986   5.416   2.329   8.589  0.0268  0.3945  0.2828
 1476TIP3    H125987   5.445   2.413   8.625 -2.1567  1.5329 -0.4432
 1476TIP3    H225988   5.340   2.304   8.642 -0.2614 -0.3695 -0.4579
 1477TIP3   OH225989   6.389   5.255   8.448 -0.1036  0.2571 -0.1691
 1477TIP3    H125990   6.367   5.325   8.510 -1.7871  0.4267 -0.9089
 1477TIP3    H225991   6.424   5.301   8.372 -1.2198  0.3344 -0.6597
 1478TIP3   OH225992   5.111   3.015   6.864  0.4320 -0.7074 -0.1933
 1478TIP3    H125993   5.186   2.991   6.809 -0.5659 -2.4721 -0.8673
 1478TIP3    H225994   5.085   2.933   6.905 -0.6790  0.0257  0.6040
 1479TIP3   OH225995   0.737   2.915   7.757  0.4925  0.2875 -0.1954
 1479TIP3    H125996   0.786   2.847   7.802 -0.5233 -1.1740 -1.1822
 1479TIP3    H225997   0.709   2.975   7.826 -0.4843 -1.5316  1.0838
 1480TIP3   OH225998   3.119   6.131   7.575 -0.5560  0.7977  0.0197
 1480TIP3    H125999   3.166   6.054   7.607 -0.8797  0.6519  0.1463
 1480TIP3    H226000   3.126   6.125   7.480 -1.8313 -0.1938 -0.0423
 1481TIP3   OH226001   1.055   0.296   8.369 -0.1501 -0.3390  0.3933
 1481TIP3    H126002   1.134   0.350   8.364 -0.2341 -0.2444  0.0530
 1481TIP3    H226003   1.047   0.257   8.282 -0.5257 -0.2855  0.4037
 1482TIP3   OH226004   0.371   1.853   7.386  0.3732  0.7961  0.3176
 1482TIP3    H126005   0.446   1.815   7.341  1.2719  0.6032  1.8833
 1482TIP3    H226006   0.408   1.925   7.437 -0.3017  0.0992  1.8690
 1483TIP3   OH226007   4.486   0.569   8.452  0.2407 -0.3904 -0.0695
 1483TIP3    H126008   4.401   0.609   8.471  0.8346  1.6277 -1.3133
 1483TIP3    H226009   4.528   0.558   8.537 -0.3670  0.7452  0.3931
 1484TIP3   OH226010   2.845   3.937   0.066 -0.0045  0.2629  0.3110
 1484TIP3    H126011   2.765   3.976   0.100  0.4650  2.1674 -0.5775
 1484TIP3    H226012   2.915   3.977   0.118  0.3972 -1.4056  1.1023
 1485TIP3   OH226013   3.412   3.584   7.310 -0.2490  0.3673  0.1564
 1485TIP3    H126014   3.473   3.657   7.302 -0.3510  0.5295  0.7523
 1485TIP3    H226015   3.428   3.530   7.233  2.3964 -0.9089  1.4244
 1486TIP3   OH226016   4.211   2.165   6.706  0.2863 -0.0737  0.0349
 1486TIP3    H126017   4.286   2.126   6.662  0.9388  1.2545 -0.0830
 1486TIP3    H226018   4.248   2.202   6.787  0.1812  2.2777 -0.9166
 1487TIP3   OH226019   2.067   4.629   0.071  0.0449 -0.5453  0.5038
 1487TIP3    H126020   2.061   4.707   0.016 -1.8279 -0.4877  0.7328
 1487TIP3    H226021   2.099   4.662   0.155 -3.1179  0.5309  1.4456
 1488TIP3   OH226022   1.774   4.091   0.388  0.0793  0.1798  0.2386
 1488TIP3    H126023   1.824   4.152   0.333 -0.6642  0.1186 -0.5356
 1488TIP3    H226024   1.756   4.017   0.331 -0.2738 -0.1164  0.7298
 1489TIP3   OH226025   4.684   3.073   8.455  0.1288  0.3336  0.6863
 1489TIP3    H126026   4.656   3.083   8.546  1.9747  0.4097  1.2755
 1489TIP3    H226027   4.719   2.984   8.450  1.0302  0.6954  0.3477
 1490TIP3   OH226028   2.927   5.724   8.260 -0.1733 -0.0031  0.0831
 1490TIP3    H126029   2.990   5.755   8.195  0.1334 -0.3822  0.1959
 1490TIP3    H226030   2.842   5.751   8.225  0.0944  1.1346  0.2777
 1491TIP3   OH226031   0.076   2.667   1.662 -0.5551 -0.5123 -0.3244
 1491TIP3    H126032   0.142   2.693   1.598  1.0860  0.0679  1.5256
 1491TIP3    H226033   0.003   2.634   1.609  0.3169  0.8725 -2.5031
 1492TIP3   OH226034   4.780   3.799   8.655  0.0831  0.6590 -0.0695
 1492TIP3    H126035   4.861   3.812   8.704 -0.0013  0.8957  0.0058
 1492TIP3    H226036   4.791   3.713   8.613  0.0068  0.2940  0.6480
 1493TIP3   OH226037   0.835   0.975   0.874  0.8096 -0.6948 -0.5233
 1493TIP3    H126038   0.910   0.984   0.815  1.7422 -0.5318  0.6599
 1493TIP3    H226039   0.762   1.013   0.825  2.1884  2.4026 -0.3868
 1494TIP3   OH226040   6.039   6.115   1.699 -0.3588  0.0756 -0.4693
 1494TIP3    H126041   5.960   6.169   1.702 -0.5590 -0.2596  1.1480
 1494TIP3    H226042   6.009   6.028   1.675 -0.2877  0.2438 -1.1899
 1495TIP3   OH226043   1.198   4.382   6.460  0.3055  0.3369  0.2238
 1495TIP3    H126044   1.287   4.413   6.442  0.7432  0.5678  2.5121
 1495TIP3    H226045   1.144   4.427   6.395  1.7781  0.6255 -0.8496
 1496TIP3   OH226046   4.181   2.693   1.394 -0.4243  1.0309 -0.2432
 1496TIP3    H126047   4.135   2.681   1.312  0.4378  0.1081 -0.6092
 1496TIP3    H226048   4.272   2.669   1.375 -0.1085  1.2905  0.8423
 1497TIP3   OH226049   3.871   6.499   6.668  0.4726  0.0921 -0.1570
 1497TIP3    H126050   3.806   6.495   6.598 -0.0293 -0.6510  0.3387
 1497TIP3    H226051   3.953   6.520   6.624  0.3575 -1.3225 -1.1163
 1498TIP3   OH226052   3.412   5.910   6.487  0.4215  0.0039 -0.5105
 1498TIP3    H126053   3.453   5.991   6.517  0.2714  0.1078 -0.5896
 1498TIP3    H226054   3.348   5.888   6.554 -0.6938  0.8218 -1.2757
 1499TIP3   OH226055   2.867   0.407   0.071 -0.1269 -0.2345 -0.3049
 1499TIP3    H126056   2.828   0.457   0.143  1.5610 -0.2898  0.7070
 1499TIP3    H226057   2.828   0.443  -0.008 -1.8933 -0.0388  0.6100
 1500TIP3   OH226058   2.840   6.355   8.280 -0.0590 -0.8200 -0.5214
 1500TIP3    H126059   2.785   6.296   8.229  0.6657 -2.4985  0.5286
 1500TIP3    H226060   2.813   6.341   8.371  0.9382 -0.4310 -0.1431
 1501TIP3   OH226061   1.709   4.345   1.023  0.3873 -0.3570 -0.5747
 1501TIP3    H126062   1.782   4.320   0.967 -0.0784  0.0773 -1.3984
 1501TIP3    H226063   1.750   4.386   1.099  1.0257 -0.8834 -0.6318
 1502TIP3   OH226064   4.269   0.035   6.690  0.7790 -0.0590 -0.1041
 1502TIP3    H126065   4.201   0.011   6.627 -0.8836  1.3536  1.0387
 1502TIP3    H226066   4.260  -0.028   6.761  0.1599  0.5201  0.3523
 1503TIP3   OH226067   2.164   6.703   5.822  0.1585  0.6052  0.6005
 1503TIP3    H126068   2.099   6.700   5.751  0.3183  1.0493  0.4351
 1503TIP3    H226069   2.123   6.655   5.894 -0.0648  0.2731  0.2562
 1504TIP3   OH226070   3.610   4.495   0.911  0.2876  0.6320 -0.1186
 1504TIP3    H126071   3.614   4.590   0.904  1.8272  0.6846  0.9316
 1504TIP3    H226072   3.603   4.477   1.004 -1.7594 -0.2902 -0.4003
 1505TIP3   OH226073   6.356   4.602   0.953 -0.3411  0.0647  0.6499
 1505TIP3    H126074   6.332   4.634   1.039  1.7123 -2.3757  2.3001
 1505TIP3    H226075   6.445   4.634   0.939  0.8695 -2.6751  1.3196
 1506TIP3   OH226076   6.724   2.272   0.139  0.1473 -0.5376  0.2363
 1506TIP3    H126077   6.652   2.278   0.076  0.8318  1.1688 -0.4601
 1506TIP3    H226078   6.681   2.256   0.223 -1.1851  1.3318 -0.0087
 1507TIP3   OH226079   5.531   2.236   8.375  0.9627 -0.0128  0.1087
 1507TIP3    H126080   5.502   2.280   8.455  0.9573  1.8931 -0.8935
 1507TIP3    H226081   5.539   2.144   8.400  1.0609  0.5473  2.3290
 1508TIP3   OH226082   4.272   0.336   8.113  0.4553 -0.3266 -0.1989
 1508TIP3    H126083   4.349   0.366   8.064  0.3684  0.4268  0.1086
 1508TIP3    H226084   4.210   0.409   8.107  0.4609 -0.2019  1.0830
 1509TIP3   OH226085   2.891   5.489   0.385  0.5314  0.0393  0.0371
 1509TIP3    H126086   2.959   5.486   0.452  1.5482  1.2798 -0.8906
 1509TIP3    H226087   2.917   5.561   0.328 -2.3874  1.6595  0.5430
 1510TIP3   OH226088   5.981   6.689   8.600  0.1500 -0.0277 -0.2405
 1510TIP3    H126089   6.040   6.743   8.547 -0.1057  2.2080  1.6097
 1510TIP3    H226090   5.893   6.721   8.578 -0.3123 -2.0736 -1.6035
 1511TIP3   OH226091   1.000   1.463   7.987  0.0811  0.2569  0.1972
 1511TIP3    H126092   0.944   1.494   8.059  0.2670  0.5856  0.2003
 1511TIP3    H226093   1.008   1.539   7.929 -0.3044 -0.0948 -0.3180
 1512TIP3   OH226094   2.355   4.924   0.633  0.1583  0.0755 -0.1399
 1512TIP3    H126095   2.364   4.842   0.584 -0.3103  0.5905 -1.1158
 1512TIP3    H226096   2.435   4.930   0.685  0.8137 -0.3508 -1.0728
 1513TIP3   OH226097   3.481   0.720   1.366 -0.3434  0.1232 -0.0821
 1513TIP3    H126098   3.529   0.791   1.408  0.2228  0.6685 -1.5743
 1513TIP3    H226099   3.394   0.722   1.406 -0.1318  1.2399  0.3481
 1514TIP3   OH226100   1.382   4.020   1.472 -0.4432 -0.0904 -0.1664
 1514TIP3    H126101   1.421   4.078   1.537 -0.2699 -0.7714  0.3484
 1514TIP3    H226102   1.415   4.052   1.388  3.0440 -1.9478  0.3447
 1515TIP3   OH226103   3.734   5.926   1.831 -0.0432 -0.0446  0.8111
 1515TIP3    H126104   3.812   5.979   1.849 -0.1045 -0.2571  1.7863
 1515TIP3    H226105   3.700   5.905   1.918  0.6939 -2.7742  0.5162
 1516TIP3   OH226106   2.320   2.990   8.487 -0.1545 -0.8886  0.2672
 1516TIP3    H126107   2.229   2.971   8.467 -0.8406  0.3692  2.0092
 1516TIP3    H226108   2.370   2.942   8.420 -2.1113 -0.3370 -1.6733
 1517TIP3   OH226109   0.049   1.455   0.341 -0.0731 -0.6044 -0.4325
 1517TIP3    H126110   0.056   1.416   0.254 -0.3051  0.4786 -0.9537
 1517TIP3    H226111   0.067   1.383   0.401 -2.3503 -1.9985 -1.2893
 1518TIP3   OH226112   4.722   0.206   0.973 -0.6269  0.3012 -0.0750
 1518TIP3    H126113   4.811   0.240   0.983 -0.8356  1.1359 -0.8827
 1518TIP3    H226114   4.725   0.119   1.013 -0.6637  2.0543  4.2643
 1519TIP3   OH226115   3.904   1.791   1.154  0.0385  0.1800 -0.2112
 1519TIP3    H126116   3.846   1.765   1.082 -1.1608 -0.4960  0.9504
 1519TIP3    H226117   3.955   1.712   1.173 -0.6075 -0.0691  0.5455
 1520TIP3   OH226118   3.559   1.037   7.212 -0.2695  0.1962 -0.2010
 1520TIP3    H126119   3.615   0.973   7.256 -1.2398 -0.0775  0.6977
 1520TIP3    H226120   3.562   1.012   7.119  0.6402 -0.1424 -0.0869
 1521TIP3   OH226121   5.572   3.569   1.643  0.2802 -0.0609 -0.3688
 1521TIP3    H126122   5.644   3.564   1.706  0.3062 -1.2316 -0.4714
 1521TIP3    H226123   5.568   3.482   1.605 -0.3878  0.3539 -1.2724
 1522TIP3   OH226124   3.262   4.629   1.088 -0.4551 -0.2978  0.7904
 1522TIP3    H126125   3.350   4.668   1.089 -0.2450 -0.7716  1.8593
 1522TIP3    H226126   3.275   4.541   1.124 -1.2781 -0.5802  0.4107
 1523TIP3   OH226127   0.248   6.350   7.079 -0.3733  0.0399 -0.0927
 1523TIP3    H126128   0.286   6.435   7.059 -0.6580  0.0356 -0.6722
 1523TIP3    H226129   0.248   6.303   6.995 -1.5611  0.0169 -0.0962
 1524TIP3   OH226130   2.517   4.392   0.228 -0.0497  0.0455 -0.3172
 1524TIP3    H126131   2.593   4.349   0.189 -0.4161 -0.7048 -0.2289
 1524TIP3    H226132   2.444   4.370   0.169  0.0990  2.3352 -1.4714
 1525TIP3   OH226133   1.269   5.927   0.457  0.1106  0.4318  0.0124
 1525TIP3    H126134   1.213   5.966   0.389 -0.3547  0.7179  0.5485
 1525TIP3    H226135   1.243   5.972   0.538  0.3670 -0.1955  0.4500
 1526TIP3   OH226136   3.495   3.179   8.204 -0.0347 -0.1436  0.5361
 1526TIP3    H126137   3.577   3.158   8.161 -0.6669 -0.5220 -0.5173
 1526TIP3    H226138   3.466   3.261   8.164  0.3500  0.5782  1.6767
 1527TIP3   OH226139   3.551   1.092   1.268  0.4569  0.3876  0.0651
 1527TIP3    H126140   3.471   1.053   1.232  0.1250 -0.6323  1.7937
 1527TIP3    H226141   3.521   1.163   1.324  0.5450 -1.2659  2.3306
 1528TIP3   OH226142   1.736   5.172   5.794 -0.1801  0.2125  0.2088
 1528TIP3    H126143   1.771   5.114   5.727  0.4637  0.7370  0.0773
 1528TIP3    H226144   1.813   5.201   5.843 -0.3217  1.8828 -0.4752
 1529TIP3   OH226145   1.711   5.269   0.348  0.5876 -0.7222  0.1920
 1529TIP3    H126146   1.744   5.200   0.290  1.2699 -0.0887 -0.1947
 1529TIP3    H226147   1.690   5.341   0.290  1.8203  0.1328  0.7677
 1530TIP3   OH226148   1.096   5.153   8.147  0.2711 -0.4494 -0.4316
 1530TIP3    H126149   1.140   5.155   8.062  0.8097  2.6845 -0.1728
 1530TIP3    H226150   1.167   5.137   8.210  0.9525  2.8948 -0.1720
 1531TIP3   OH226151   5.893   0.413   7.958 -0.9298  0.1668  0.3374
 1531TIP3    H126152   5.829   0.402   8.029 -2.5412 -1.0357 -1.2313
 1531TIP3    H226153   5.845   0.458   7.889  0.2668  0.2672 -0.4507
 1532TIP3   OH226154   0.594   4.087   8.405  0.3057 -0.0396 -0.1497
 1532TIP3    H126155   0.583   4.058   8.496  0.6935  1.6270  0.4716
 1532TIP3    H226156   0.505   4.087   8.369  0.2358 -1.4204 -0.0182
 1533TIP3   OH226157   1.338   1.144   0.562  0.3968  0.3424  0.2638
 1533TIP3    H126158   1.338   1.113   0.653 -0.7584  2.3114  0.9975
 1533TIP3    H226159   1.395   1.221   0.563  1.7376 -0.5764 -1.1016
 1534TIP3   OH226160   1.699   3.211   1.340 -0.7330  0.5360 -0.1171
 1534TIP3    H126161   1.698   3.189   1.246  1.5571  0.0942 -0.0959
 1534TIP3    H226162   1.782   3.174   1.372 -0.9224  1.6939  1.8383
 1535TIP3   OH226163   3.679   6.489   6.472  0.0803 -0.8026 -0.1561
 1535TIP3    H126164   3.681   6.487   6.376  1.8145 -0.7802 -0.1531
 1535TIP3    H226165   3.592   6.520   6.494 -0.7292 -1.8617 -1.7022
 1536TIP3   OH226166   4.406   3.386   0.467  1.2354  0.2530  0.6560
 1536TIP3    H126167   4.391   3.459   0.527  1.5260  1.9132 -1.1717
 1536TIP3    H226168   4.346   3.318   0.495  0.3668  1.5025  1.9370
 1537TIP3   OH226169   6.101   1.110   0.158  0.2199 -0.0078  0.0922
 1537TIP3    H126170   6.006   1.118   0.164  0.3627  0.7975  2.0587
 1537TIP3    H226171   6.134   1.177   0.218  2.0221 -0.4764 -0.3374
 1538TIP3   OH226172   0.960   1.764   0.360 -0.3629 -0.0207 -0.2241
 1538TIP3    H126173   1.043   1.765   0.312  0.5323  1.2991  1.2371
 1538TIP3    H226174   0.958   1.677   0.402 -0.5823 -0.7170 -1.6142
 1539TIP3   OH226175   4.815   6.514   0.547  0.0080 -0.0943  0.4486
 1539TIP3    H126176   4.743   6.462   0.514 -0.4050  0.3404  0.6494
 1539TIP3    H226177   4.774   6.582   0.601  0.5775  0.0181  0.7586
 1540TIP3   OH226178   3.443   5.155   0.019 -0.4603 -0.1720  0.3219
 1540TIP3    H126179   3.352   5.145   0.048 -0.3415  0.5380  0.9841
 1540TIP3    H226180   3.490   5.083   0.061 -1.2541 -2.6979 -2.7464
 1541TIP3   OH226181   2.071   5.531   0.360  0.0213  0.5826 -0.4584
 1541TIP3    H126182   1.998   5.563   0.306 -0.0667  0.5309 -0.3715
 1541TIP3    H226183   2.139   5.507   0.297  0.6294  2.2475 -0.4747
 1542TIP3   OH226184   5.666   5.259   0.849 -0.6301 -0.6820 -0.3152
 1542TIP3    H126185   5.655   5.169   0.818  1.8380 -1.0687 -0.2222
 1542TIP3    H226186   5.722   5.300   0.784  0.5770 -0.0491  1.0775
 1543TIP3   OH226187   5.984   2.756   8.100 -0.1397 -0.9260 -0.6574
 1543TIP3    H126188   6.050   2.809   8.144  0.0724  0.0478 -2.0845
 1543TIP3    H226189   5.917   2.819   8.073  1.3028 -0.8302 -4.6133
 1544TIP3   OH226190   3.335   2.237   2.354  0.1594 -0.4600  0.2753
 1544TIP3    H126191   3.290   2.318   2.330 -2.4769 -1.7296  0.5175
 1544TIP3    H226192   3.416   2.239   2.304 -2.1123  0.0088 -3.8502
 1545TIP3   OH226193   5.578   4.828   7.159 -0.1509 -0.0980 -0.1986
 1545TIP3    H126194   5.492   4.853   7.194 -0.9874 -1.9075 -0.8049
 1545TIP3    H226195   5.567   4.736   7.134  1.7212 -0.1162 -1.1031
 1546TIP3   OH226196   4.462   5.611   0.073  0.2526 -0.6928  0.5863
 1546TIP3    H126197   4.485   5.546   0.007 -0.1108  0.1525 -0.3998
 1546TIP3    H226198   4.383   5.653   0.038 -0.4535 -0.8129  1.9719
 1547TIP3   OH226199   0.466   5.267   8.186  0.1211 -0.0978 -0.4163
 1547TIP3    H126200   0.536   5.222   8.140  2.3647  0.3916  2.2214
 1547TIP3    H226201   0.419   5.197   8.231 -0.6942 -0.3641 -1.6440
 1548TIP3   OH226202   4.556   4.534   8.663 -0.5433  0.0544  0.2288
 1548TIP3    H126203   4.490   4.601   8.679 -3.1427 -1.9433 -1.1899
 1548TIP3    H226204   4.567   4.533   8.568 -1.2204 -1.9660  0.1050
 1549TIP3   OH226205   6.174   5.503   8.429  0.6496  0.4063  0.1589
 1549TIP3    H126206   6.181   5.565   8.357  1.2236 -1.1755 -1.2153
 1549TIP3    H226207   6.211   5.549   8.504  0.1738  2.0484 -0.5532
 1550TIP3   OH226208   3.005   4.218   1.895  0.3892  0.0286  0.0162
 1550TIP3    H126209   3.084   4.186   1.940 -0.4795  0.1264  1.7043
 1550TIP3    H226210   2.933   4.189   1.951 -0.7237  0.7320 -1.0113
 1551TIP3   OH226211   0.711   3.371   6.278  0.3204 -0.3953  0.1051
 1551TIP3    H126212   0.708   3.432   6.351  1.7818 -0.4312  0.2192
 1551TIP3    H226213   0.694   3.425   6.201 -0.2994 -0.1981  0.3697
 1552TIP3   OH226214   4.685   1.099   2.048  0.2916 -0.2498 -0.2455
 1552TIP3    H126215   4.648   1.080   1.961 -0.3286  0.4443 -0.1424
 1552TIP3    H226216   4.715   1.014   2.080  1.0615 -0.4269 -1.3798
 1553TIP3   OH226217   6.146   1.407   0.957 -0.2324 -0.4191 -0.4667
 1553TIP3    H126218   6.178   1.459   1.031  1.2097 -2.2297  0.2550
 1553TIP3    H226219   6.199   1.327   0.959 -1.2460 -1.2085 -2.5200
 1554TIP3   OH226220   1.791   3.905   0.809  0.4780  0.0256  0.0712
 1554TIP3    H126221   1.847   3.877   0.881 -0.1694 -0.1485  0.5206
 1554TIP3    H226222   1.707   3.923   0.850 -0.5933 -2.2630 -0.9177
 1555TIP3   OH226223   1.535   3.455   1.742 -0.1071 -0.3340 -0.1133
 1555TIP3    H126224   1.509   3.380   1.688 -0.6804 -0.7003  0.6498
 1555TIP3    H226225   1.612   3.490   1.698 -1.1561  0.0339 -1.7748
 1556TIP3   OH226226   3.562   1.540   7.672 -0.5218  0.0500  0.2707
 1556TIP3    H126227   3.654   1.561   7.688 -0.7190  0.9982  0.1982
 1556TIP3    H226228   3.560   1.505   7.583 -0.5162  1.9768 -0.5181
 1557TIP3   OH226229   3.960   1.312   0.996 -0.1651 -0.1476 -0.4649
 1557TIP3    H126230   3.924   1.267   1.072  1.4219 -0.5221  0.1204
 1557TIP3    H226231   3.885   1.356   0.955 -1.0466  0.1259  1.3517
 1558TIP3   OH226232   1.238   4.255   8.452 -0.6681 -0.3647  0.5726
 1558TIP3    H126233   1.258   4.311   8.527  1.3536 -2.3029  1.5933
 1558TIP3    H226234   1.315   4.262   8.396 -0.1158 -2.4398  0.9792
 1559TIP3   OH226235   3.463   1.946   7.809  0.1863  0.6062 -0.4572
 1559TIP3    H126236   3.467   2.027   7.859  0.8224  1.1773 -1.4193
 1559TIP3    H226237   3.554   1.924   7.791 -0.0076  0.0015 -0.7310
 1560TIP3   OH226238   6.385   4.907   0.056  0.3295 -0.7521 -0.0421
 1560TIP3    H126239   6.363   4.851   0.131  2.4088  0.3499  1.5193
 1560TIP3    H226240   6.362   4.856  -0.021 -0.2505 -2.6769  1.3524
 1561TIP3   OH226241   6.376   3.098   8.182  0.6347  0.4032  0.0976
 1561TIP3    H126242   6.303   3.036   8.193  0.8653  0.1419  0.1651
 1561TIP3    H226243   6.362   3.164   8.250  1.0939 -0.2687  0.8515
 1562TIP3   OH226244   4.751   6.802   0.669  0.3945  0.4893 -0.5016
 1562TIP3    H126245   4.685   6.761   0.613  0.3611  0.1198 -0.1964
 1562TIP3    H226246   4.743   6.896   0.651  0.5236  0.3631 -1.2672
 1563TIP3   OH226247   1.121   3.868   0.519  0.1927 -0.2986 -0.0095
 1563TIP3    H126248   1.101   3.846   0.611 -1.3046 -1.7122 -0.6136
 1563TIP3    H226249   1.073   3.949   0.503 -0.3122 -0.5525  0.1961
 1564TIP3   OH226250   6.204   5.816   0.528  0.8345 -0.1326 -0.1282
 1564TIP3    H126251   6.220   5.899   0.573  2.2915  0.4824 -1.6514
 1564TIP3    H226252   6.154   5.764   0.590  2.1177  0.9235  1.9034
 1565TIP3   OH226253   1.913   6.671   0.538  0.1677  0.4532  0.5331
 1565TIP3    H126254   2.005   6.658   0.563  0.1630  0.7055  0.6838
 1565TIP3    H226255   1.907   6.764   0.517 -0.3495  0.7062  1.7656
 1566TIP3   OH226256   1.936   6.560   7.187 -0.2433 -0.1427 -0.0565
 1566TIP3    H126257   1.923   6.634   7.246  0.9057 -0.1066  0.1658
 1566TIP3    H226258   2.029   6.542   7.190 -0.4231 -1.2583 -0.5390
 1567TIP3   OH226259   2.958   2.635   6.729  0.4030 -0.2410  0.0010
 1567TIP3    H126260   2.946   2.610   6.638 -1.4244 -0.2311  0.1933
 1567TIP3    H226261   2.972   2.730   6.727  1.4836 -0.4011 -0.3308
 1568TIP3   OH226262   0.555   4.680   2.142  0.6164  0.2697  0.4446
 1568TIP3    H126263   0.476   4.637   2.175  1.4911 -0.8497  1.1516
 1568TIP3    H226264   0.571   4.751   2.204  0.2770  0.3856  0.4024
 1569TIP3   OH226265   2.074   1.521   1.190 -0.5150 -0.0682 -0.0755
 1569TIP3    H126266   2.157   1.547   1.150  0.4150 -1.8891  0.5739
 1569TIP3    H226267   2.015   1.594   1.172  1.6368  2.0010  0.7806
 1570TIP3   OH226268   5.615   2.145   7.013 -0.5758  0.2613 -0.9914
 1570TIP3    H126269   5.598   2.077   7.077  2.3607  1.0841  0.8687
 1570TIP3    H226270   5.701   2.124   6.977 -0.7674  1.5707 -2.3336
 1571TIP3   OH226271   6.851   1.776   8.633  0.2212 -1.0287  0.4226
 1571TIP3    H126272   6.831   1.826   8.712  0.4495 -0.8228  0.3509
 1571TIP3    H226273   6.828   1.836   8.561  1.0281 -0.8165  0.3373
 1572TIP3   OH226274   1.663   4.371   7.944 -0.2818  0.0575  0.1126
 1572TIP3    H126275   1.669   4.418   8.027 -0.1038 -1.4350  0.9900
 1572TIP3    H226276   1.736   4.308   7.947 -1.0179 -0.8591 -0.6196
 1573TIP3   OH226277   5.185   2.546   0.790 -0.3395 -0.3007 -0.5412
 1573TIP3    H126278   5.240   2.503   0.856 -2.2101 -0.1796  1.2231
 1573TIP3    H226279   5.199   2.496   0.710  2.3266 -0.2258 -0.2148
 1574TIP3   OH226280   0.315   4.965   7.689 -0.0398  0.4233  0.3348
 1574TIP3    H126281   0.275   4.968   7.776 -0.9709 -0.1914 -0.0497
 1574TIP3    H226282   0.316   4.872   7.667  2.0934  0.3627  0.5221
 1575TIP3   OH226283   6.524   4.831   1.623 -0.0175  0.1812  0.1848
 1575TIP3    H126284   6.527   4.775   1.701  2.4436 -0.8156 -0.5315
 1575TIP3    H226285   6.511   4.919   1.657  0.7428 -0.2710  1.7159
 1576TIP3   OH226286   3.162   0.699   0.313 -0.1892 -0.6313  0.1357
 1576TIP3    H126287   3.123   0.615   0.336 -1.1680 -0.1806  0.1899
 1576TIP3    H226288   3.256   0.682   0.310 -0.3808 -1.7468  0.0310
 1577TIP3   OH226289   1.953   5.110   7.453 -0.2979 -0.2533  0.4612
 1577TIP3    H126290   2.026   5.053   7.430 -1.6973 -1.9080 -0.0789
 1577TIP3    H226291   1.927   5.081   7.540 -0.3269  0.3208  0.6444
 1578TIP3   OH226292   5.286   1.220   2.994 -0.5059 -0.7677  0.2904
 1578TIP3    H126293   5.252   1.243   3.081 -1.2748 -0.8728  0.0278
 1578TIP3    H226294   5.208   1.210   2.940 -0.1072 -2.0496 -0.0839
 1579TIP3   OH226295   0.748   3.174   7.283 -0.7340  0.7879 -1.0609
 1579TIP3    H126296   0.727   3.084   7.260 -0.8391  0.6493 -0.4602
 1579TIP3    H226297   0.818   3.166   7.348 -1.1029  1.1155 -0.6182
 1580TIP3   OH226298   1.934   1.248   7.066 -0.1325 -0.3693  0.2078
 1580TIP3    H126299   1.877   1.301   7.121  1.1517  1.6691 -0.3426
 1580TIP3    H226300   1.900   1.259   6.977  0.5087  0.0698  0.0089
 1581TIP3   OH226301   6.607   4.416   6.345  0.1943 -0.2977 -0.1277
 1581TIP3    H126302   6.572   4.394   6.432 -0.3724  0.7116 -0.0869
 1581TIP3    H226303   6.618   4.511   6.347  1.0424 -0.3720 -0.8535
 1582TIP3   OH226304   0.056   4.651   2.297 -0.8378 -0.4805 -0.3672
 1582TIP3    H126305   0.141   4.609   2.285 -0.4415  0.6341 -1.6758
 1582TIP3    H226306   0.032   4.684   2.211 -1.0650  2.0433  0.5572
 1583TIP3   OH226307   1.283   1.834   6.834 -0.2761  0.2124  0.2553
 1583TIP3    H126308   1.358   1.795   6.880  0.0157 -0.7251 -0.9699
 1583TIP3    H226309   1.321   1.905   6.782 -0.4471  0.5792  0.6245
 1584TIP3   OH226310   0.209   5.854   8.434  0.1274 -0.0244  0.0561
 1584TIP3    H126311   0.256   5.786   8.385 -1.4834 -1.3816  0.3291
 1584TIP3    H226312   0.200   5.926   8.371  0.2130 -0.7971 -0.8721
 1585TIP3   OH226313   2.999   0.607   8.497 -0.2400  0.5427  0.1846
 1585TIP3    H126314   2.929   0.616   8.562 -0.8679 -0.0689 -0.3889
 1585TIP3    H226315   2.972   0.665   8.425 -0.0662  0.4510  0.0435
 1586TIP3   OH226316   0.863   4.423   1.781  0.6830  0.0870 -0.2562
 1586TIP3    H126317   0.866   4.510   1.743 -2.5998  1.0173  1.2018
 1586TIP3    H226318   0.777   4.389   1.755 -0.7188 -0.1824  3.9797
 1587TIP3   OH226319   3.208   2.695   8.341 -0.1836  0.2549  0.0178
 1587TIP3    H126320   3.181   2.638   8.413  0.1101 -0.2527 -0.2620
 1587TIP3    H226321   3.209   2.637   8.265  5.1482 -0.8731  0.5450
 1588TIP3   OH226322   6.050   2.068   1.184 -0.0005 -0.3713 -0.2486
 1588TIP3    H126323   6.141   2.041   1.195 -0.5006 -1.1951  2.8440
 1588TIP3    H226324   6.001   1.987   1.173 -0.8913 -0.6063  3.7907
 1589TIP3   OH226325   3.375   4.650   7.423  0.0225  0.0279 -0.2079
 1589TIP3    H126326   3.359   4.568   7.375 -0.8455 -1.0826  1.8556
 1589TIP3    H226327   3.405   4.711   7.356 -0.2495 -1.6901 -1.9963
 1590TIP3   OH226328   4.073   5.261   2.124 -0.0725 -0.4300 -0.0764
 1590TIP3    H126329   4.059   5.324   2.194  0.4553  1.5586 -1.6740
 1590TIP3    H226330   4.149   5.210   2.152  0.7733  1.0242  0.3516
 1591TIP3   OH226331   0.558   5.102   0.897  1.1749  0.2672  0.1544
 1591TIP3    H126332   0.561   5.195   0.872 -0.7293  0.5577  0.8818
 1591TIP3    H226333   0.646   5.084   0.931  1.2303  2.1548  1.1424
 1592TIP3   OH226334   2.061   3.697   1.787  0.1707  0.6522 -0.6735
 1592TIP3    H126335   2.145   3.685   1.744  0.7669  0.7418  0.4208
 1592TIP3    H226336   2.060   3.631   1.857 -1.2819 -0.3015 -1.5383
 1593TIP3   OH226337   5.605   6.320   7.529  0.3652 -0.4926  0.5078
 1593TIP3    H126338   5.690   6.294   7.565  0.3407  1.0164  1.7494
 1593TIP3    H226339   5.541   6.276   7.585  0.3377 -0.1737  0.7325
 1594TIP3   OH226340   2.565   3.487   8.337  0.1595 -0.5384 -0.8192
 1594TIP3    H126341   2.475   3.506   8.312  0.2852  0.2050 -0.7206
 1594TIP3    H226342   2.616   3.507   8.259  0.6233  2.3486  0.1041
 1595TIP3   OH226343   1.210   0.367   0.632  0.1751  0.2131  0.4368
 1595TIP3    H126344   1.211   0.450   0.678 -0.4850  1.3003 -1.3879
 1595TIP3    H226345   1.278   0.376   0.565 -1.5899  0.3434 -1.4296
 1596TIP3   OH226346   0.063   0.779   7.727 -0.0417 -0.2013  0.3624
 1596TIP3    H126347   0.030   0.697   7.762 -2.2960  0.4587  0.0023
 1596TIP3    H226348   0.011   0.846   7.771  1.7739  1.0689  0.6841
 1597TIP3   OH226349   4.106   1.134   0.857 -0.2783  0.2573  0.6666
 1597TIP3    H126350   4.081   1.151   0.767  0.1814 -2.3619 -0.0527
 1597TIP3    H226351   4.049   1.191   0.909 -0.3213  2.0747 -1.2357
 1598TIP3   OH226352   3.045   6.401   6.308 -0.8666 -0.5291  0.5155
 1598TIP3    H126353   3.121   6.432   6.357  0.4475 -0.0242 -1.6735
 1598TIP3    H226354   3.036   6.464   6.236 -0.7116 -2.8242 -1.6747
 1599TIP3   OH226355   2.862   1.266   8.548  0.2425  0.1612  0.0059
 1599TIP3    H126356   2.906   1.237   8.468  1.2345 -0.8470  0.8858
 1599TIP3    H226357   2.890   1.357   8.558 -0.6995  0.6347 -1.3033
 1600TIP3   OH226358   3.992   4.522   7.416  0.8840 -0.3376  0.1032
 1600TIP3    H126359   3.982   4.563   7.330  1.6260 -0.9123 -0.2679
 1600TIP3    H226360   3.950   4.437   7.407  1.2463 -0.5299  0.2058
 1601TIP3   OH226361   3.780   4.124   2.187 -0.5264  0.1225  0.2767
 1601TIP3    H126362   3.837   4.157   2.257  1.7062 -1.4384 -0.6897
 1601TIP3    H226363   3.840   4.100   2.117 -2.2835 -2.4246 -0.4877
 1602TIP3   OH226364   2.946   2.067   2.208 -0.5981 -0.2698  0.1985
 1602TIP3    H126365   2.965   2.132   2.140 -0.2796 -1.1455 -0.5733
 1602TIP3    H226366   3.027   2.058   2.257 -1.0469  0.9238  1.2129
 1603TIP3   OH226367   3.302   3.143   1.254  0.3071 -0.2112 -0.5909
 1603TIP3    H126368   3.243   3.099   1.316  0.8293  1.0473  0.8688
 1603TIP3    H226369   3.390   3.119   1.284  0.5782 -0.3419 -1.4533
 1604TIP3   OH226370   4.741   1.682   8.484  0.2197 -0.4095 -0.2906
 1604TIP3    H126371   4.655   1.718   8.462 -0.4799 -2.2357 -0.7361
 1604TIP3    H226372   4.752   1.700   8.577  0.6613  2.3509 -0.7891
 1605TIP3   OH226373   0.916   0.016   0.990 -0.0457  0.0318  0.0665
 1605TIP3    H126374   1.002  -0.021   1.008 -0.0991 -0.4648 -0.6750
 1605TIP3    H226375   0.935   0.101   0.949  0.0779  1.1660  2.3201
 1606TIP3   OH226376   3.670   0.458   7.039 -0.3336  0.1625  0.1518
 1606TIP3    H126377   3.617   0.505   6.975  1.3033  0.7011 -0.8694
 1606TIP3    H226378   3.625   0.472   7.122 -2.2801 -0.2107 -0.7852
 1607TIP3   OH226379   0.371   6.385   0.654  0.4733  0.2220  0.3145
 1607TIP3    H126380   0.307   6.443   0.613  0.1349  0.4133  1.1060
 1607TIP3    H226381   0.322   6.306   0.675  0.6147  0.1750  0.4690
 1608TIP3   OH226382   0.483   5.906   0.705  0.0383  0.4425 -0.2468
 1608TIP3    H126383   0.496   5.957   0.625 -1.4867  0.7163 -0.3502
 1608TIP3    H226384   0.508   5.817   0.681  2.8790  1.0764 -0.0292
 1609TIP3   OH226385   4.728   5.076   1.802 -0.2453 -0.1227  0.1877
 1609TIP3    H126386   4.646   5.081   1.754  0.7757 -0.2107 -1.6342
 1609TIP3    H226387   4.785   5.141   1.760  1.1773 -1.2784  0.2484
 1610TIP3   OH226388   5.587   5.951   2.537  0.4043  0.2874  0.4719
 1610TIP3    H126389   5.628   5.971   2.453 -0.8688  2.4792  0.2673
 1610TIP3    H226390   5.580   6.036   2.581 -3.7573  0.1882  0.4569
 1611TIP3   OH226391   4.861   6.254   1.540  0.1972 -0.1345 -0.4992
 1611TIP3    H126392   4.812   6.253   1.622  0.8759  0.1422 -0.0792
 1611TIP3    H226393   4.948   6.286   1.565  0.2035  0.6179 -1.4390
 1612TIP3   OH226394   2.499   3.162   7.309  0.0930 -0.5470 -0.2486
 1612TIP3    H126395   2.508   3.098   7.380 -0.8905  0.4592  0.8281
 1612TIP3    H226396   2.430   3.221   7.339 -0.9564 -0.5779 -2.4283
 1613TIP3   OH226397   6.815   6.174   0.678  0.4197  0.1270  0.1129
 1613TIP3    H126398   6.793   6.085   0.653  2.3617 -0.3271 -0.1476
 1613TIP3    H226399   6.830   6.219   0.595 -1.4385  1.0033  0.1913
 1614TIP3   OH226400   3.854   2.788   1.029 -0.3822  0.1206 -0.2778
 1614TIP3    H126401   3.831   2.821   1.116  1.2563 -1.0640  0.6522
 1614TIP3    H226402   3.859   2.867   0.974 -4.0206  0.7075 -0.0345
 1615TIP3   OH226403   6.777   2.729   0.284  0.1654 -0.1491  0.2991
 1615TIP3    H126404   6.787   2.682   0.367  0.7347  0.6172  0.6723
 1615TIP3    H226405   6.710   2.680   0.237 -0.5931 -0.2576  1.4565
 1616TIP3   OH226406   5.777   1.227   0.935  0.2539  0.7030  0.6325
 1616TIP3    H126407   5.798   1.159   0.998  1.6268  0.6165  0.1009
 1616TIP3    H226408   5.840   1.216   0.864 -2.1642 -0.1705 -1.5449
 1617TIP3   OH226409   5.235   6.259   7.918 -0.5120 -0.3605  0.0479
 1617TIP3    H126410   5.315   6.208   7.931  0.0850  0.9947  2.3956
 1617TIP3    H226411   5.210   6.286   8.006 -2.9565  0.1933 -0.7520
 1618TIP3   OH226412   6.876   4.383   2.392 -0.6107  0.5287  0.5295
 1618TIP3    H126413   6.844   4.465   2.353  0.1203  0.5135 -0.1392
 1618TIP3    H226414   6.970   4.398   2.403 -0.5692 -0.0234  0.9083
 1619TIP3   OH226415   6.391   2.762   6.603 -0.8888 -0.3017 -0.1753
 1619TIP3    H126416   6.317   2.726   6.553 -2.3575  0.3563  1.4148
 1619TIP3    H226417   6.351   2.828   6.660  0.8610 -0.2927  1.1039
 1620TIP3   OH226418   4.507   0.191   6.295 -0.0105  0.1324 -0.3817
 1620TIP3    H126419   4.441   0.129   6.327 -0.5620 -0.2691 -2.1764
 1620TIP3    H226420   4.471   0.222   6.212  1.7628  0.4282 -1.0683
 1621TIP3   OH226421   2.570   2.023   1.749 -0.3296 -0.0553  0.1773
 1621TIP3    H126422   2.650   1.995   1.794 -0.7915 -1.4425  0.1911
 1621TIP3    H226423   2.510   2.048   1.818  0.0923  1.0499  0.1650
 1622TIP3   OH226424   4.198   5.324   1.598  0.7821 -0.1960  0.2414
 1622TIP3    H126425   4.240   5.385   1.537  1.1828 -0.8195 -0.1248
 1622TIP3    H226426   4.140   5.378   1.651 -0.8303  0.1717 -1.7588
 1623TIP3   OH226427   4.738   6.376   0.973 -0.5931  0.7148 -0.3422
 1623TIP3    H126428   4.715   6.413   0.888 -0.0940  1.8638 -0.0028
 1623TIP3    H226429   4.659   6.387   1.026 -0.8384  0.1829 -0.5964
 1624TIP3   OH226430   4.825   1.327   6.922 -0.3053 -0.2587  0.4638
 1624TIP3    H126431   4.783   1.293   7.001  1.0916 -2.2607  0.4029
 1624TIP3    H226432   4.874   1.404   6.952  0.0030 -0.8482  1.4917
 1625TIP3   OH226433   0.357   4.050   0.482 -0.4410 -0.0899  0.6160
 1625TIP3    H126434   0.372   4.121   0.545 -4.4877  1.9392 -0.3879
 1625TIP3    H226435   0.284   4.000   0.519 -0.3308 -1.2415 -0.6562
 1626TIP3   OH226436   0.143   5.764   1.188  0.1256 -0.1657  0.4822
 1626TIP3    H126437   0.177   5.852   1.205 -1.2216  0.7266 -1.1072
 1626TIP3    H226438   0.054   5.765   1.223  0.8516 -1.7283  2.5676
 1627TIP3   OH226439   6.349   4.552   7.578  0.2122  0.1252  0.1741
 1627TIP3    H126440   6.265   4.595   7.592 -0.4909 -1.3966  0.7783
 1627TIP3    H226441   6.358   4.548   7.483 -0.0736  0.8543  0.1041
 1628TIP3   OH226442   0.825   4.603   8.028 -0.3779 -0.3826  0.5217
 1628TIP3    H126443   0.863   4.574   8.111  1.5947  2.2169  0.6291
 1628TIP3    H226444   0.762   4.534   8.006  2.1690 -3.4184  1.9081
 1629TIP3   OH226445   5.581   0.628   0.401  0.0818  0.6957 -0.0185
 1629TIP3    H126446   5.666   0.584   0.408  0.5079  1.5773  0.5636
 1629TIP3    H226447   5.577   0.657   0.310 -0.6613 -1.3940 -0.7028
 1630TIP3   OH226448   6.333   4.286   2.483  0.5023  0.2187  0.0199
 1630TIP3    H126449   6.333   4.378   2.454 -0.2886  0.5176  0.8861
 1630TIP3    H226450   6.368   4.289   2.572  1.2818 -0.4440 -0.2616
 1631TIP3   OH226451   2.423   2.040   7.380 -0.4876 -0.0180  0.2071
 1631TIP3    H126452   2.377   2.024   7.298 -0.2675 -1.2975  0.3196
 1631TIP3    H226453   2.424   1.955   7.424  1.9743 -0.0278  0.2246
 1632TIP3   OH226454   6.425   3.780   8.259  0.7673 -0.0328  0.1027
 1632TIP3    H126455   6.339   3.791   8.218  1.3434  0.3762 -1.0321
 1632TIP3    H226456   6.409   3.723   8.334 -0.4424 -0.2069 -0.2748
 1633TIP3   OH226457   2.209   0.910   0.830 -0.6486  0.3323  0.0878
 1633TIP3    H126458   2.120   0.912   0.864 -1.4533 -1.5444 -1.6673
 1633TIP3    H226459   2.201   0.938   0.739  0.5772  0.3346 -0.0377
 1634TIP3   OH226460   5.475   0.551   7.416  0.2672 -1.0108 -1.0108
 1634TIP3    H126461   5.571   0.557   7.413  0.3216 -1.9607 -1.7913
 1634TIP3    H226462   5.445   0.620   7.357  0.4230  0.0191  0.0910
 1635TIP3   OH226463   6.292   3.707   0.556 -0.5092 -0.5616  0.1153
 1635TIP3    H126464   6.273   3.706   0.650 -0.7146  1.7374  0.1584
 1635TIP3    H226465   6.210   3.681   0.515 -0.3825 -1.7019  0.5635
 1636TIP3   OH226466   1.886   5.362   6.756 -0.5461 -0.1054 -0.0806
 1636TIP3    H126467   1.936   5.353   6.837  3.7280  2.1944 -2.1538
 1636TIP3    H226468   1.906   5.283   6.706  0.0320  0.2502 -0.4174
 1637TIP3   OH226469   0.648   1.877   8.561  0.4597  0.2657 -0.2192
 1637TIP3    H126470   0.743   1.889   8.567  0.6613 -0.7888 -0.9808
 1637TIP3    H226471   0.637   1.800   8.505 -0.8087 -0.4337  0.9328
 1638TIP3   OH226472   1.909   0.550   1.445  0.2090 -0.2990  0.5529
 1638TIP3    H126473   1.971   0.597   1.501  0.3215  0.8458 -0.4626
 1638TIP3    H226474   1.824   0.561   1.488  0.2068  1.0345  0.2656
 1639TIP3   OH226475   6.198   4.803   1.995  0.0575  0.3994 -0.5803
 1639TIP3    H126476   6.198   4.887   2.041  0.0150  0.8291 -1.3478
 1639TIP3    H226477   6.282   4.763   2.019  1.0636  1.6162 -1.8762
 1640TIP3   OH226478   5.437   1.906   7.568 -0.0318  0.3951 -0.1232
 1640TIP3    H126479   5.455   1.948   7.652  0.2193  1.0814 -0.5137
 1640TIP3    H226480   5.438   1.977   7.505 -2.0920  0.1699 -0.4658
 1641TIP3   OH226481   0.338   0.695   1.787  0.7816  0.4878 -0.8166
 1641TIP3    H126482   0.252   0.738   1.796 -0.3199 -1.6839 -0.3061
 1641TIP3    H226483   0.391   0.732   1.857 -0.6924 -0.2436  0.7412
 1642TIP3   OH226484   2.699   1.936   2.323  0.1299 -0.1460 -0.0142
 1642TIP3    H126485   2.744   2.019   2.340 -0.0814 -0.6184  3.3874
 1642TIP3    H226486   2.767   1.869   2.332 -0.3134 -0.5385  0.5177
 1643TIP3   OH226487   4.359   6.459   7.696 -0.3411 -0.2452 -0.0293
 1643TIP3    H126488   4.448   6.448   7.662 -0.1312  0.4048  0.2843
 1643TIP3    H226489   4.350   6.393   7.764 -0.3443 -0.7621 -0.5215
 1644TIP3   OH226490   4.003   6.770   8.172  0.4237 -0.2933 -0.0809
 1644TIP3    H126491   3.955   6.711   8.114  2.3506 -0.4920 -1.5833
 1644TIP3    H226492   4.031   6.714   8.245 -0.3852 -0.4766  0.1070
 1645TIP3   OH226493   4.898   2.311   8.192 -0.3706 -0.3394  0.4594
 1645TIP3    H126494   4.846   2.240   8.231  0.6762 -1.8892 -0.8075
 1645TIP3    H226495   4.858   2.326   8.106  0.5215 -0.7487 -0.0493
 1646TIP3   OH226496   5.052   0.730   7.198  0.0698 -0.0220 -0.0871
 1646TIP3    H126497   4.967   0.770   7.212 -0.2422 -0.5252 -0.5153
 1646TIP3    H226498   5.033   0.637   7.183  0.9470 -1.0911  4.0419
 1647TIP3   OH226499   2.261   6.762   1.090  0.2140 -0.5075 -0.2257
 1647TIP3    H126500   2.183   6.707   1.090  0.7003 -1.1998 -0.9096
 1647TIP3    H226501   2.326   6.713   1.040  1.4774 -0.4904  1.3049
 1648TIP3   OH226502   5.866   1.784   7.419 -0.2215  0.3967 -0.3884
 1648TIP3    H126503   5.945   1.731   7.416 -0.3962  0.1681 -1.0670
 1648TIP3    H226504   5.851   1.810   7.328 -0.7954  0.6280 -0.2303
 1649TIP3   OH226505   3.344   6.138   1.478  0.3449 -0.0708  0.4689
 1649TIP3    H126506   3.421   6.169   1.431  0.1344  0.8052  0.6697
 1649TIP3    H226507   3.273   6.192   1.445 -0.5781 -2.1064 -1.0876
 1650TIP3   OH226508   6.499   1.163   7.526  0.1050  0.2845 -0.2803
 1650TIP3    H126509   6.414   1.120   7.513  0.1234  0.3210 -0.5259
 1650TIP3    H226510   6.541   1.111   7.594 -0.5138  0.8561  0.5651
 1651TIP3   OH226511   4.520   3.681   8.671  0.0181  0.3321 -0.1714
 1651TIP3    H126512   4.589   3.747   8.662  0.1906 -0.0903 -2.6207
 1651TIP3    H226513   4.484   3.672   8.582 -1.7942 -0.9593  0.6406
 1652TIP3   OH226514   0.594   0.079   2.564  0.5024  0.2077  0.7885
 1652TIP3    H126515   0.645   0.048   2.639 -0.5044 -1.3410  0.8761
 1652TIP3    H226516   0.507   0.043   2.577  0.6220 -1.2723 -1.7904
 1653TIP3   OH226517   1.055   0.014   1.265  0.0713 -0.5966  0.2480
 1653TIP3    H126518   0.964   0.009   1.292 -0.8959 -0.6560 -2.6665
 1653TIP3    H226519   1.086  -0.077   1.266 -1.0561 -1.0812 -2.0414
 1654TIP3   OH226520   0.018   1.759   7.924  0.0965  0.3421 -0.2167
 1654TIP3    H126521   0.053   1.824   7.864 -0.1224  1.1385  0.4992
 1654TIP3    H226522   0.007   1.806   8.006 -0.6771 -0.4339  0.1371
 1655TIP3   OH226523   1.365   1.914   7.899  0.0280 -0.5073 -0.7448
 1655TIP3    H126524   1.393   1.830   7.862 -0.2962 -0.4664 -1.0812
 1655TIP3    H226525   1.397   1.980   7.838 -1.6053 -0.5054 -1.6556
 1656TIP3   OH226526   4.987   3.876   1.829  0.2120 -0.0517 -0.2137
 1656TIP3    H126527   5.054   3.926   1.876  1.2708 -1.3600 -0.2838
 1656TIP3    H226528   5.036   3.817   1.772 -1.0247  0.8395 -2.3071
 1657TIP3   OH226529   1.123   5.451   1.999  0.3958  0.0621  0.0113
 1657TIP3    H126530   1.076   5.435   1.918 -2.6405  0.8016  1.4739
 1657TIP3    H226531   1.139   5.545   2.000 -2.3741  0.6436  1.4817
 1658TIP3   OH226532   4.364   5.091   1.798 -1.0273 -0.4468  0.2614
 1658TIP3    H126533   4.358   5.023   1.865  0.5446 -0.5724  0.2970
 1658TIP3    H226534   4.286   5.078   1.744 -0.4914 -2.6649 -0.0825
 1659TIP3   OH226535   4.930   5.300   0.146  0.3073  0.5384  0.7746
 1659TIP3    H126536   4.992   5.233   0.175  0.4349  0.1691 -0.3062
 1659TIP3    H226537   4.851   5.251   0.121 -0.3064  0.9728  1.8097
 1660TIP3   OH226538   6.550   4.305   7.142 -0.1409 -0.0468  0.2288
 1660TIP3    H126539   6.464   4.263   7.152 -0.0752 -0.5730 -1.2085
 1660TIP3    H226540   6.576   4.285   7.053  1.3567  0.3767  0.5475
 1661TIP3   OH226541   5.241   4.796   0.099 -0.2651  0.0679 -0.2192
 1661TIP3    H126542   5.224   4.726   0.161 -0.3233 -0.0070 -0.3180
 1661TIP3    H226543   5.283   4.753   0.024 -4.7970 -0.8596 -2.5850
 1662TIP3   OH226544   6.371   0.284   0.737  0.1592 -0.2360 -0.1585
 1662TIP3    H126545   6.377   0.257   0.645 -0.1284  2.4017 -1.0396
 1662TIP3    H226546   6.460   0.307   0.761 -0.2457  2.7175 -1.0912
 1663TIP3   OH226547   4.906   3.929   7.468 -0.1908 -0.2099 -0.3677
 1663TIP3    H126548   4.972   3.915   7.400 -1.5751 -0.3421 -1.7462
 1663TIP3    H226549   4.951   3.981   7.535  1.0920  0.3572 -1.6094
 1664TIP3   OH226550   3.370   0.843   7.396  0.0562 -0.4002  0.3428
 1664TIP3    H126551   3.430   0.791   7.450  1.6501  2.1945  1.2556
 1664TIP3    H226552   3.347   0.784   7.323  0.4948 -2.8547  2.0452
 1665TIP3   OH226553   1.599   0.888   7.724  0.6517 -0.4131  0.7493
 1665TIP3    H126554   1.553   0.850   7.649  0.3888 -0.4932  0.9486
 1665TIP3    H226555   1.618   0.813   7.781  0.0876 -0.2511  1.1684
 1666TIP3   OH226556   4.480   1.781   8.352 -0.4712 -0.5562  0.0318
 1666TIP3    H126557   4.385   1.775   8.342 -0.3567  0.4919 -2.7505
 1666TIP3    H226558   4.497   1.875   8.361  0.3741 -0.4458 -1.9968
 1667TIP3   OH226559   0.962   1.553   6.582  0.5634  0.1967 -0.0314
 1667TIP3    H126560   0.936   1.492   6.651 -0.8786  1.5720  0.7028
 1667TIP3    H226561   0.910   1.526   6.506  0.9435 -0.3220 -0.1097
 1668TIP3   OH226562   0.843   2.168   6.641 -0.0161 -0.1252  0.2698
 1668TIP3    H126563   0.908   2.098   6.644  0.4739  0.2807 -0.6052
 1668TIP3    H226564   0.895   2.249   6.646 -0.4403  0.2023 -0.5451
 1669TIP3   OH226565   1.865   3.540   0.013  0.3988  0.1122  0.3037
 1669TIP3    H126566   1.852   3.536   0.108  0.5769 -0.5065  0.3041
 1669TIP3    H226567   1.844   3.452  -0.018  1.1402  0.0778 -0.1329
 1670TIP3   OH226568   0.847   4.888   7.317 -0.5837  0.2199  0.0645
 1670TIP3    H126569   0.909   4.895   7.390  0.5145 -3.2552 -0.3758
 1670TIP3    H226570   0.764   4.867   7.359 -0.8112  1.8484  0.4791
 1671TIP3   OH226571   4.873   0.213   1.253 -0.2508 -0.2989 -0.6233
 1671TIP3    H126572   4.918   0.139   1.295  2.5510  1.6357  0.0930
 1671TIP3    H226573   4.785   0.213   1.290 -0.3016 -3.1382 -0.5625
 1672TIP3   OH226574   0.880   5.871   0.400  0.0089  0.4851 -0.3700
 1672TIP3    H126575   0.955   5.830   0.357  0.5073  2.5223 -1.5730
 1672TIP3    H226576   0.803   5.833   0.357  0.3632 -0.5732 -0.1026
 1673TIP3   OH226577   6.801   1.926   2.501  0.3863  0.1748  0.2249
 1673TIP3    H126578   6.757   2.010   2.488  0.9614  0.0986 -2.9857
 1673TIP3    H226579   6.730   1.862   2.501  0.0762  0.4938  1.1515
 1674TIP3   OH226580   0.057   6.070   1.868 -0.0502  0.1567 -0.2611
 1674TIP3    H126581  -0.030   6.099   1.894  0.3246  2.2620 -1.1486
 1674TIP3    H226582   0.065   6.097   1.776  1.4196 -0.2963 -0.2935
 1675TIP3   OH226583   3.222   3.134   1.743 -0.0550 -0.5890 -0.4937
 1675TIP3    H126584   3.175   3.172   1.817  0.4582  0.6570 -0.7816
 1675TIP3    H226585   3.311   3.169   1.751  0.2012 -1.0306 -1.2887
 1676TIP3   OH226586   4.075   0.077   1.769 -0.1305  0.3248  0.1688
 1676TIP3    H126587   4.021   0.011   1.725 -0.5831  1.4781 -1.0690
 1676TIP3    H226588   4.165   0.045   1.757 -0.2874  0.2933 -1.0832
 1677TIP3   OH226589   2.229   4.552   2.052  0.3681 -0.0058  0.1540
 1677TIP3    H126590   2.254   4.620   1.989  1.5912  0.7351  1.3859
 1677TIP3    H226591   2.275   4.575   2.132  1.9128 -3.0136  0.2714
 1678TIP3   OH226592   2.375   2.125   7.792 -0.1728 -0.2829 -0.2278
 1678TIP3    H126593   2.330   2.042   7.777  0.6977 -0.8218  0.0388
 1678TIP3    H226594   2.428   2.109   7.871  1.1589  0.0233 -1.0153
 1679TIP3   OH226595   5.661   0.598   7.831  0.5169  0.4386  0.6302
 1679TIP3    H126596   5.695   0.644   7.754 -1.3061  1.7347  0.5448
 1679TIP3    H226597   5.594   0.656   7.866 -1.1593 -1.6897  1.1532
 1680TIP3   OH226598   1.679   0.300   8.472  0.0558 -0.5549 -0.4625
 1680TIP3    H126599   1.762   0.279   8.515 -0.7482 -0.3304  1.2908
 1680TIP3    H226600   1.612   0.273   8.534 -1.1717  0.1646 -1.4223
 1681TIP3   OH226601   6.702   4.369   8.113 -0.2838  0.3218  0.0628
 1681TIP3    H126602   6.630   4.420   8.151 -0.8763 -0.0862 -0.4995
 1681TIP3    H226603   6.727   4.418   8.034 -0.6328 -0.0761 -0.2981
 1682TIP3   OH226604   0.846   4.052   1.928  0.1524  0.4497  0.2455
 1682TIP3    H126605   0.763   4.073   1.886  0.3126  0.7348  0.0720
 1682TIP3    H226606   0.822   4.032   2.019 -0.3366 -1.2088 -0.2024
 1683TIP3   OH226607   3.191   0.262   8.351  0.2937  0.4502 -0.1990
 1683TIP3    H126608   3.148   0.341   8.317  1.9124  1.3221 -0.3099
 1683TIP3    H226609   3.205   0.208   8.273 -4.4053 -1.9266  0.2733
 1684TIP3   OH226610   3.540   6.281   1.365 -0.2897  0.3937  0.6341
 1684TIP3    H126611   3.517   6.367   1.330  1.4998  1.4226  1.7926
 1684TIP3    H226612   3.618   6.255   1.317 -1.2033 -0.9543 -0.1915
 1685TIP3   OH226613   4.642   0.129   1.811 -0.1551 -0.0582  0.0655
 1685TIP3    H126614   4.594   0.204   1.848 -0.6502  0.0350 -0.7477
 1685TIP3    H226615   4.639   0.063   1.880 -2.0119 -0.2833 -0.1632
 1686TIP3   OH226616   2.536   5.081   7.976 -0.0898 -0.1365  0.3111
 1686TIP3    H126617   2.532   4.995   7.934  1.3050  0.7324 -1.7754
 1686TIP3    H226618   2.591   5.068   8.053 -1.8520 -1.5686  1.3889
 1687TIP3   OH226619   4.996   1.302   6.712 -0.5118 -0.4645  0.0330
 1687TIP3    H126620   4.946   1.291   6.793 -1.7876 -0.2720 -0.7132
 1687TIP3    H226621   4.935   1.280   6.642 -0.7303  3.2220 -1.1436
 1688TIP3   OH226622   0.368   1.416   7.829  0.5001  0.0169 -0.3076
 1688TIP3    H126623   0.445   1.444   7.779  0.6101 -1.2448 -0.9054
 1688TIP3    H226624   0.320   1.360   7.768 -0.1170 -0.4077  0.5464
 1689TIP3   OH226625   3.478   3.912   0.950  0.1782 -0.2607 -0.1987
 1689TIP3    H126626   3.404   3.972   0.955 -0.5694 -1.0667 -1.2639
 1689TIP3    H226627   3.549   3.958   0.996 -0.5896  1.0869 -0.3078
 1690TIP3   OH226628   6.813   4.119   0.530 -0.6937  0.2825 -0.0476
 1690TIP3    H126629   6.730   4.129   0.485 -0.0835  2.0269 -0.8803
 1690TIP3    H226630   6.802   4.167   0.613 -0.4636  0.7130 -0.2607
 1691TIP3   OH226631   0.768   1.831   6.917  0.4926 -0.1105 -0.1006
 1691TIP3    H126632   0.838   1.771   6.894 -1.4763 -2.9276  0.7064
 1691TIP3    H226633   0.755   1.885   6.839  2.7118 -0.3171 -0.6668
 1692TIP3   OH226634   2.491   5.018   7.494  0.0098  0.3981 -0.2583
 1692TIP3    H126635   2.546   5.041   7.569  0.0306  1.2664 -0.5264
 1692TIP3    H226636   2.516   4.928   7.473  0.9589  0.5961 -0.0445
 1693TIP3   OH226637   6.413   5.843   1.284 -0.1294 -0.0353  0.4212
 1693TIP3    H126638   6.412   5.854   1.189 -0.9595  0.9939  0.5276
 1693TIP3    H226639   6.421   5.932   1.318 -2.6414 -0.0649  1.3176
 1694TIP3   OH226640   0.799   0.897   8.224  0.0597  0.1902 -0.3071
 1694TIP3    H126641   0.856   0.886   8.148  1.8235  1.9893  0.6779
 1694TIP3    H226642   0.834   0.836   8.289  0.3348  0.6626 -0.0042
 1695TIP3   OH226643   1.081   4.068   1.572  0.3284  0.0803  0.0361
 1695TIP3    H126644   1.166   4.107   1.552 -0.2180  0.9013 -0.7803
 1695TIP3    H226645   1.022   4.105   1.507 -0.7035 -0.3017  0.7294
 1696TIP3   OH226646   2.678   4.609   0.288  0.3080 -0.3894 -0.0896
 1696TIP3    H126647   2.713   4.614   0.377 -1.3417 -0.1043  0.5676
 1696TIP3    H226648   2.644   4.520   0.280  3.6801 -1.7504 -1.7787
 1697TIP3   OH226649   2.699   5.899   8.480  0.5679  0.4875 -0.0396
 1697TIP3    H126650   2.768   5.941   8.429  1.6626 -0.4093  0.6779
 1697TIP3    H226651   2.627   5.889   8.418  1.2095  1.0742 -0.9047
 1698TIP3   OH226652   3.622   4.258   0.163  0.0315 -0.3826 -0.3952
 1698TIP3    H126653   3.625   4.163   0.176 -1.7192 -0.5769 -1.1982
 1698TIP3    H226654   3.604   4.293   0.251  1.5645 -0.6995  0.0746
 1699TIP3   OH226655   0.565   1.827   1.610 -0.1345  0.1790  0.3085
 1699TIP3    H126656   0.623   1.836   1.686  0.1494 -0.8677  0.2268
 1699TIP3    H226657   0.607   1.761   1.555 -0.4742  0.7307 -0.6412
 1700TIP3   OH226658   0.736   1.587   0.172 -0.6338  0.5777  0.3142
 1700TIP3    H126659   0.712   1.494   0.163 -1.8673  0.8565  0.5517
 1700TIP3    H226660   0.756   1.597   0.265  1.9338  0.0304 -0.1000
 1701TIP3   OH226661   2.871   0.863   6.959  0.5262 -0.1620  0.1727
 1701TIP3    H126662   2.815   0.853   6.882 -1.8118  1.1243  1.5915
 1701TIP3    H226663   2.912   0.777   6.970 -0.6707 -0.9813 -1.3158
 1702TIP3   OH226664   1.387   4.267   7.581 -0.1623 -0.2966  0.8855
 1702TIP3    H126665   1.341   4.313   7.511 -1.6304 -0.8326  1.4552
 1702TIP3    H226666   1.453   4.329   7.611 -0.9052  0.7378  0.4351
 1703TIP3   OH226667   4.043   2.611   6.260  0.2026 -0.4681 -0.2053
 1703TIP3    H126668   3.963   2.645   6.221 -0.0851  0.2220  0.9437
 1703TIP3    H226669   4.107   2.681   6.250  0.6460 -0.9769 -1.0242
 1704TIP3   OH226670   1.706   2.503   1.601  0.2736  0.5379 -0.1597
 1704TIP3    H126671   1.706   2.408   1.616  0.6594  0.1169 -2.3960
 1704TIP3    H226672   1.791   2.520   1.559  0.4209  1.9800  0.6637
 1705TIP3   OH226673   6.285   6.493   0.911 -0.0792  0.2501  0.0612
 1705TIP3    H126674   6.252   6.575   0.874  2.4670  0.5054 -1.9988
 1705TIP3    H226675   6.322   6.518   0.995 -2.1051  0.5509  0.9039
 1706TIP3   OH226676   3.908   4.279   7.613  0.2496  0.0676  0.5936
 1706TIP3    H126677   3.962   4.258   7.537 -0.8152  0.5095 -0.3088
 1706TIP3    H226678   3.969   4.324   7.673  1.4122 -1.4275  0.5925
 1707TIP3   OH226679   4.128   6.211   8.288  0.1759 -0.0272 -0.6539
 1707TIP3    H126680   4.123   6.121   8.257  0.5423 -0.1670 -0.3083
 1707TIP3    H226681   4.127   6.204   8.383 -0.2954  0.3645 -0.6209
 1708TIP3   OH226682   5.058   4.862   0.449  0.3044  0.2068  0.7264
 1708TIP3    H126683   5.001   4.798   0.407 -0.3945  0.2725  1.5397
 1708TIP3    H226684   5.014   4.883   0.531  0.5951  1.6403  0.5366
 1709TIP3   OH226685   3.513   3.195   1.094 -0.0085  0.0726  0.2656
 1709TIP3    H126686   3.586   3.138   1.120 -1.5770 -1.5599  1.2447
 1709TIP3    H226687   3.436   3.155   1.133 -1.1969  3.0376  1.2089
 1710TIP3   OH226688   2.100   3.345   6.620  0.0987  0.0166 -0.1238
 1710TIP3    H126689   2.017   3.361   6.577 -1.2698 -3.1125  1.0423
 1710TIP3    H226690   2.084   3.363   6.712  0.1802 -1.9455  0.3308
 1711TIP3   OH226691   5.318   4.959   1.751  0.8692  0.2913 -0.4829
 1711TIP3    H126692   5.242   4.978   1.806  0.0624 -1.6319 -0.8704
 1711TIP3    H226693   5.286   4.971   1.661  0.6411 -1.6972 -0.6957
 1712TIP3   OH226694   3.359   4.538   0.328  0.6297  0.1420 -0.1862
 1712TIP3    H126695   3.369   4.598   0.255 -0.6649  1.9490  1.0388
 1712TIP3    H226696   3.308   4.465   0.292 -0.1147  1.0732 -1.0783
 1713TIP3   OH226697   3.303   1.662   1.714 -0.4698 -0.3254  0.0624
 1713TIP3    H126698   3.237   1.595   1.732  0.4388 -0.8370  1.7028
 1713TIP3    H226699   3.383   1.613   1.695 -0.6094  0.2723 -2.4696
 1714TIP3   OH226700   1.035   0.884   8.021 -0.5105  0.0192  0.2298
 1714TIP3    H126701   1.074   0.826   7.956  3.0659  1.1963  1.1208
 1714TIP3    H226702   1.077   0.968   8.007 -2.2839  1.2551  1.8181
 1715TIP3   OH226703   3.514   0.724   7.981 -0.2248  0.0780 -0.5491
 1715TIP3    H126704   3.440   0.713   7.921 -0.6591 -0.2946  0.0448
 1715TIP3    H226705   3.534   0.636   8.012  0.5029  0.1693 -0.7306
 1716TIP3   OH226706   0.944   3.112   6.430 -0.2850  0.0740  1.0351
 1716TIP3    H126707   0.892   3.119   6.350  1.5270  1.9291 -0.0735
 1716TIP3    H226708   0.915   3.030   6.470 -1.9656 -0.4065 -0.9860
 1717TIP3   OH226709   1.460   4.267   0.945 -0.0149  0.4350  0.4156
 1717TIP3    H126710   1.542   4.307   0.976  0.0367 -0.3280  1.3073
 1717TIP3    H226711   1.391   4.322   0.982  0.0555 -0.2604  1.6080
 1718TIP3   OH226712   5.167   1.826   2.435  0.2378 -0.7513 -0.3339
 1718TIP3    H126713   5.089   1.879   2.445  0.9168  0.3961 -0.9142
 1718TIP3    H226714   5.139   1.737   2.456 -0.4764  0.0734  2.7268
 1719TIP3   OH226715   0.493   1.092   0.124 -0.1014 -0.1957  0.1013
 1719TIP3    H126716   0.455   1.176   0.148  0.3356  0.0875 -0.1809
 1719TIP3    H226717   0.552   1.071   0.196  0.1256 -0.0437 -0.0398
 1720TIP3   OH226718   1.954   1.069   0.859  0.4955 -0.8603 -0.3676
 1720TIP3    H126719   1.938   1.117   0.940  0.4470  0.5552 -1.1942
 1720TIP3    H226720   1.896   0.992   0.866  0.0694 -0.4749  0.6740
 1721TIP3   OH226721   5.846   0.926   7.060 -0.3116  0.0683 -0.0647
 1721TIP3    H126722   5.921   0.868   7.053 -1.1187 -1.4801  2.6649
 1721TIP3    H226723   5.804   0.921   6.974  0.9882 -1.4417 -0.6712
 1722TIP3   OH226724   1.833   4.314   8.617  0.4777 -0.0447  0.1272
 1722TIP3    H126725   1.828   4.379   8.548  0.0086 -1.2364 -1.0008
 1722TIP3    H226726   1.809   4.362   8.697 -1.5606  0.8036 -0.9256
 1723TIP3   OH226727   0.002   5.064   0.277  0.0202 -0.2369  0.3914
 1723TIP3    H126728   0.004   5.008   0.200 -3.5593  1.2738 -0.9817
 1723TIP3    H226729   0.077   5.122   0.266 -0.0676 -0.4415 -1.6750
 1724TIP3   OH226730   1.181   4.201   7.986 -0.0730  0.4870  0.6166
 1724TIP3    H126731   1.263   4.211   7.938 -0.2514 -1.0779 -0.0892
 1724TIP3    H226732   1.122   4.265   7.948  0.8550  1.7726  1.2716
 1725TIP3   OH226733   2.382   6.090   6.846  0.3995 -0.2825 -0.1916
 1725TIP3    H126734   2.448   6.084   6.916 -0.7255 -1.4232  0.8215
 1725TIP3    H226735   2.335   6.171   6.865  0.2760 -0.4480  0.2445
 1726TIP3   OH226736   3.060   3.541   8.116  0.2856 -0.1513 -0.5520
 1726TIP3    H126737   3.155   3.538   8.109  0.3038  0.0892 -0.4135
 1726TIP3    H226738   3.029   3.499   8.035  0.5025  0.4574 -0.9540
 1727TIP3   OH226739   3.941   5.909   7.624  0.5785 -0.0905  0.0816
 1727TIP3    H126740   3.927   5.983   7.565  1.7026 -0.1875 -0.3267
 1727TIP3    H226741   3.957   5.950   7.709 -2.4468  0.0284  0.7221
 1728TIP3   OH226742   2.369   5.494   2.771  0.1890  0.1970 -0.3615
 1728TIP3    H126743   2.331   5.443   2.842  0.7744  0.4514  0.1522
 1728TIP3    H226744   2.352   5.444   2.692 -0.3184 -0.1778 -0.0138
 1729TIP3   OH226745   1.445   1.056   7.306  0.0900  0.3873 -0.0122
 1729TIP3    H126746   1.514   1.017   7.359 -0.8448 -0.5658  0.5436
 1729TIP3    H226747   1.487   1.131   7.264  1.1410  0.5625  1.2680
 1730TIP3   OH226748   2.738   6.777   6.762  0.7818 -0.0884  0.0351
 1730TIP3    H126749   2.807   6.826   6.718 -0.3216  0.5749 -1.0022
 1730TIP3    H226750   2.710   6.712   6.698 -0.4274  0.4922 -0.0519
 1731TIP3   OH226751   1.129   4.074   0.909 -0.4315  0.0261  0.2856
 1731TIP3    H126752   1.121   4.108   0.998  1.3324  0.7521  0.2165
 1731TIP3    H226753   1.184   4.139   0.863  1.9342 -2.1566 -0.2343
 1732TIP3   OH226754   5.385   6.397   0.264 -0.0109  0.0331 -0.8928
 1732TIP3    H126755   5.383   6.456   0.338 -0.0269 -1.9483  0.7841
 1732TIP3    H226756   5.466   6.419   0.218 -0.0209  1.3189 -0.3275
 1733TIP3   OH226757   5.461   2.306   1.339  0.0124 -0.5622 -0.0297
 1733TIP3    H126758   5.375   2.306   1.381  0.8706  1.0931  1.8718
 1733TIP3    H226759   5.460   2.384   1.284  1.0957  0.8998  1.9104
 1734TIP3   OH226760   0.910   1.661   7.561 -0.1503  0.7274  0.5700
 1734TIP3    H126761   1.001   1.663   7.532 -0.8264  2.9697 -1.7757
 1734TIP3    H226762   0.889   1.568   7.569  2.1300  0.1588  0.5469
 1735TIP3   OH226763   6.239   3.483   1.583  0.5882 -0.1818  0.2813
 1735TIP3    H126764   6.194   3.506   1.503 -0.4471  0.7484  1.1074
 1735TIP3    H226765   6.273   3.394   1.567  0.5261  0.0396 -1.2050
 1736TIP3   OH226766   6.869   1.640   6.448  0.0886  0.4687 -0.3893
 1736TIP3    H126767   6.914   1.692   6.515  0.2411  0.2710 -0.3356
 1736TIP3    H226768   6.798   1.597   6.495  1.2805 -1.1216  0.0697
 1737TIP3   OH226769   5.860   6.619   1.567 -0.2622 -0.5068 -0.5022
 1737TIP3    H126770   5.855   6.525   1.553  0.8080 -0.7827  0.7867
 1737TIP3    H226771   5.917   6.629   1.643  1.7614  1.2702 -2.1156
 1738TIP3   OH226772   5.037   0.542   0.861 -0.3705 -0.4842  0.2498
 1738TIP3    H126773   5.127   0.573   0.871 -1.1813  1.7891  1.2204
 1738TIP3    H226774   5.045   0.448   0.845  2.1828 -0.2187 -0.3603
 1739TIP3   OH226775   1.407   6.710   8.574 -0.1188 -0.2197  0.0587
 1739TIP3    H126776   1.447   6.784   8.620 -0.3697  0.9758 -1.5436
 1739TIP3    H226777   1.478   6.649   8.559  0.4878  0.5187 -0.1371
 1740TIP3   OH226778   2.714   1.612   6.286 -0.0698  0.2708  0.0269
 1740TIP3    H126779   2.776   1.669   6.332  0.0802 -1.0495  1.5676
 1740TIP3    H226780   2.694   1.543   6.349 -1.6717 -0.3764 -1.1131
 1741TIP3   OH226781   5.752   5.712   7.376  0.3229  0.3486  0.3321
 1741TIP3    H126782   5.740   5.771   7.451  0.7484  0.6422  0.1794
 1741TIP3    H226783   5.701   5.752   7.306 -0.0857  0.0667  0.4664
 1742TIP3   OH226784   2.153   1.666   7.012  0.0098 -0.1026  0.1819
 1742TIP3    H126785   2.224   1.686   7.074 -0.2127  2.5305 -0.3214
 1742TIP3    H226786   2.192   1.603   6.951  2.7072  2.7595 -1.3146
 1743TIP3   OH226787   4.038   2.667   0.091  1.2061 -0.3342  0.5320
 1743TIP3    H126788   4.112   2.607   0.100  0.8249 -0.7117  1.1936
 1743TIP3    H226789   4.077   2.754   0.097  1.6293 -0.5297  0.6324
 1744TIP3   OH226790   5.453   3.784   1.776  0.5661  0.2386 -0.0508
 1744TIP3    H126791   5.463   3.728   1.699  0.0698  1.5266 -1.0946
 1744TIP3    H226792   5.446   3.723   1.850  2.3220 -1.0113 -0.8510
 1745TIP3   OH226793   4.002   5.203   2.496 -0.4029 -0.4878  0.1355
 1745TIP3    H126794   4.010   5.283   2.548 -1.1687 -0.6983  0.5885
 1745TIP3    H226795   4.089   5.165   2.498 -0.0632  0.2549  0.0429
 1746TIP3   OH226796   3.690   1.659   6.643  0.2558  0.0505 -0.3377
 1746TIP3    H126797   3.598   1.672   6.623  0.5396  0.9418 -1.1693
 1746TIP3    H226798   3.702   1.703   6.728 -0.1427 -0.3346 -0.0799
 1747TIP3   OH226799   2.254   4.207   8.380 -0.4853 -0.3136 -0.3009
 1747TIP3    H126800   2.220   4.282   8.331  0.0054  0.7005  0.8838
 1747TIP3    H226801   2.296   4.245   8.457  1.0906 -1.6924 -0.4223
 1748TIP3   OH226802   3.529   0.591   2.146 -0.5979 -0.7226 -0.4884
 1748TIP3    H126803   3.442   0.624   2.166  0.3030  1.2751  0.3222
 1748TIP3    H226804   3.585   0.626   2.216  0.7833 -2.4138 -0.6740
 1749TIP3   OH226805   6.854   1.093   7.883  0.0624 -0.5297 -0.4937
 1749TIP3    H126806   6.838   1.172   7.935  0.0117 -0.6971 -0.2517
 1749TIP3    H226807   6.844   1.022   7.945 -1.2480 -0.8128 -0.9951
 1750TIP3   OH226808   3.266   2.871   1.342 -0.4591  0.2785  0.2929
 1750TIP3    H126809   3.316   2.878   1.424  0.8087  1.5993 -0.5431
 1750TIP3    H226810   3.210   2.794   1.355 -0.4157  0.5350  2.4484
 1751TIP3   OH226811   1.027   5.277   1.423  0.6822  0.1836  0.3787
 1751TIP3    H126812   0.949   5.306   1.470  0.3785  0.5878 -0.3678
 1751TIP3    H226813   1.098   5.286   1.487 -0.0692 -1.5713  1.5754
 1752TIP3   OH226814   0.139   0.470   7.267 -0.3244 -0.3845 -0.1344
 1752TIP3    H126815   0.075   0.536   7.294  0.3967  0.6317 -0.8047
 1752TIP3    H226816   0.107   0.388   7.304 -1.4526  0.2781  0.4047
 1753TIP3   OH226817   6.477   0.551   2.262 -0.0802  0.5295  0.7790
 1753TIP3    H126818   6.570   0.565   2.245  0.4379 -0.7113  2.3805
 1753TIP3    H226819   6.449   0.630   2.309 -0.4409  1.9120 -1.5633
 1754TIP3   OH226820   0.554   0.938   0.394  0.0015  0.4808  0.2733
 1754TIP3    H126821   0.564   0.877   0.321  0.4394  0.1965  0.5636
 1754TIP3    H226822   0.574   0.886   0.471  0.2728  0.9637  0.5355
 1755TIP3   OH226823   0.790   0.496   1.690  0.1888 -0.2622  0.1792
 1755TIP3    H126824   0.739   0.503   1.609  1.7479 -0.6617 -0.8832
 1755TIP3    H226825   0.781   0.582   1.731 -0.3947  0.0429 -0.5598
 1756TIP3   OH226826   2.264   1.281   6.032  0.1953  0.0523 -0.0950
 1756TIP3    H126827   2.353   1.244   6.034  0.2073 -0.1360 -2.3469
 1756TIP3    H226828   2.211   1.215   5.987 -1.2836 -0.1081  1.7453
 1757TIP3   OH226829   6.315   0.662   7.467 -0.1305 -0.0501  0.2634
 1757TIP3    H126830   6.219   0.663   7.469 -0.3405 -2.8985 -2.1399
 1757TIP3    H226831   6.337   0.670   7.374  2.0495  1.1421  0.8198
 1758TIP3   OH226832   6.208   0.157   0.531  0.0138 -0.7614 -0.4884
 1758TIP3    H126833   6.173   0.246   0.526  1.1426 -0.3411 -1.0403
 1758TIP3    H226834   6.147   0.112   0.590 -0.7227  0.2930 -0.4011
 1759TIP3   OH226835   3.817   2.175   8.575  0.4882 -0.7488 -0.5544
 1759TIP3    H126836   3.796   2.188   8.668  2.4334 -0.0336 -0.1659
 1759TIP3    H226837   3.804   2.262   8.535  0.9848 -0.7221 -0.6596
 1760TIP3   OH226838   1.196   6.751   8.369 -0.4075 -0.3288 -0.2517
 1760TIP3    H126839   1.249   6.709   8.437  0.5840  1.0896 -0.0930
 1760TIP3    H226840   1.155   6.825   8.413 -0.7008 -0.0905 -0.9221
 1761TIP3   OH226841   0.223   3.842   8.119 -0.1018  0.2774  0.0283
 1761TIP3    H126842   0.142   3.863   8.073 -0.1567  1.0944  0.4810
 1761TIP3    H226843   0.216   3.748   8.138 -0.8958  0.3243 -0.0184
 1762TIP3   OH226844   4.935   1.399   1.683  0.5843 -0.0373 -0.8488
 1762TIP3    H126845   4.942   1.309   1.713  0.5901  0.2522  0.0659
 1762TIP3    H226846   4.996   1.405   1.610 -0.0896 -1.0010 -1.5122
 1763TIP3   OH226847   1.429   6.348   0.997  0.2755 -0.0474  0.4353
 1763TIP3    H126848   1.502   6.370   0.940 -0.3037  0.7728 -0.0079
 1763TIP3    H226849   1.351   6.368   0.945 -0.2649  0.7964  1.5197
 1764TIP3   OH226850   3.543   2.885   7.894 -0.0983  0.1770  0.3094
 1764TIP3    H126851   3.467   2.828   7.910  0.5651 -1.2263 -1.2760
 1764TIP3    H226852   3.544   2.897   7.799  2.0439 -0.4111  0.2062
 1765TIP3   OH226853   2.678   6.599   0.736 -0.1430  0.1771  0.4002
 1765TIP3    H126854   2.736   6.623   0.808  0.7694  0.7963 -0.5175
 1765TIP3    H226855   2.736   6.587   0.661 -1.0195 -0.9117 -0.1462
 1766TIP3   OH226856   3.113   5.296   6.415 -0.3200 -0.5572 -0.6720
 1766TIP3    H126857   3.171   5.347   6.472 -0.7798 -1.1220  0.3327
 1766TIP3    H226858   3.117   5.207   6.449 -1.6574 -0.6374 -0.6503
 1767TIP3   OH226859   4.875   2.577   1.509  0.8660 -0.4265 -0.0403
 1767TIP3    H126860   4.927   2.649   1.473  0.2912  0.9792  1.7918
 1767TIP3    H226861   4.934   2.532   1.569  0.7399 -0.4775  0.0448
 1768TIP3   OH226862   0.870   2.029   2.480 -0.1483 -0.1189  0.0445
 1768TIP3    H126863   0.861   1.934   2.480 -0.1589 -0.1351  1.1030
 1768TIP3    H226864   0.785   2.061   2.509 -0.6527  0.3026 -1.7940
 1769TIP3   OH226865   6.430   0.916   1.414  0.2404  0.9008  0.1208
 1769TIP3    H126866   6.465   0.945   1.499  0.6641 -0.3543  0.3876
 1769TIP3    H226867   6.367   0.848   1.437 -0.2232  1.1035 -0.5421
 1770TIP3   OH226868   3.668   6.868   1.668 -0.0266  0.8902  0.3063
 1770TIP3    H126869   3.592   6.919   1.638 -0.2774 -0.1780 -1.0073
 1770TIP3    H226870   3.640   6.777   1.659  1.0426  0.4909  0.8698
 1771TIP3   OH226871   6.509   5.661   8.121  0.8651  0.2830 -0.0167
 1771TIP3    H126872   6.588   5.715   8.129  0.6317  0.5402  0.6511
 1771TIP3    H226873   6.516   5.621   8.035  2.6489 -1.1819  0.7614
 1772TIP3   OH226874   6.016   0.464   1.374  0.3111 -0.2525  0.6647
 1772TIP3    H126875   6.107   0.480   1.400  0.2121 -0.4024  1.1105
 1772TIP3    H226876   6.018   0.380   1.328  0.7071  0.6327 -1.0114
 1773TIP3   OH226877   4.155   0.187   6.963 -0.1147 -0.6858  0.7845
 1773TIP3    H126878   4.177   0.127   6.892  0.3308  0.3788 -0.0035
 1773TIP3    H226879   4.062   0.169   6.981 -0.3751 -0.6435 -0.4133
 1774TIP3   OH226880   6.529   2.446   1.911 -0.3688 -0.1948 -0.7701
 1774TIP3    H126881   6.486   2.527   1.938 -0.3858 -0.0109 -1.3379
 1774TIP3    H226882   6.608   2.442   1.966 -1.1330 -0.5808  0.3270
 1775TIP3   OH226883   2.304   3.352   0.135 -0.3088  0.3618 -0.3450
 1775TIP3    H126884   2.323   3.264   0.169  0.5728 -0.2101 -2.1792
 1775TIP3    H226885   2.365   3.363   0.062 -2.2632  1.3788 -1.9243
 1776TIP3   OH226886   6.000   3.725   0.491  0.7219 -0.4511  0.0643
 1776TIP3    H126887   6.028   3.759   0.406  0.0386  1.1794  0.4436
 1776TIP3    H226888   5.931   3.663   0.470  1.8393 -1.4904 -0.6501
 1777TIP3   OH226889   0.669   6.643   2.502  0.0452 -0.5065  0.5591
 1777TIP3    H126890   0.703   6.733   2.510 -1.9288  0.6773 -2.5133
 1777TIP3    H226891   0.747   6.591   2.483  0.9735  1.0490 -0.2041
 1778TIP3   OH226892   3.287   1.397   8.069 -0.2740  0.0050 -0.4334
 1778TIP3    H126893   3.328   1.318   8.103  0.1143 -0.1305 -1.2001
 1778TIP3    H226894   3.353   1.465   8.080  0.8484 -0.5375 -3.1625
 1779TIP3   OH226895   4.740   1.942   0.044 -0.1740  0.0169  0.1133
 1779TIP3    H126896   4.726   1.858   0.087 -1.8052 -0.6511 -1.6017
 1779TIP3    H226897   4.661   1.992   0.063  1.1883  1.6639  1.9927
 1780TIP3   OH226898   3.556   1.515   8.001  0.4147  0.3971  0.4775
 1780TIP3    H126899   3.555   1.437   7.945  1.6524  0.8657 -0.2335
 1780TIP3    H226900   3.646   1.545   7.999  0.7968 -0.2032  3.7009
 1781TIP3   OH226901   2.806   4.127   0.926  0.0524 -0.4333 -0.3212
 1781TIP3    H126902   2.817   4.124   1.021  0.3858  1.4909 -0.2641
 1781TIP3    H226903   2.722   4.171   0.913  1.5208  2.4132 -0.8743
 1782TIP3   OH226904   2.232   2.365   0.423 -0.0132 -0.1663  0.1631
 1782TIP3    H126905   2.228   2.272   0.399  0.9004 -0.0283 -0.6052
 1782TIP3    H226906   2.297   2.368   0.493  0.1011 -0.0814  0.0534
 1783TIP3   OH226907   4.496   6.294   2.449 -0.1837  0.0160  0.0584
 1783TIP3    H126908   4.551   6.219   2.473  1.4903  1.3749  0.6753
 1783TIP3    H226909   4.407   6.261   2.457  0.4350 -1.4079  2.2062
 1784TIP3   OH226910   6.314   0.221   7.853 -0.4498 -0.4013 -0.7611
 1784TIP3    H126911   6.235   0.172   7.830 -0.7246 -0.1912 -0.2579
 1784TIP3    H226912   6.298   0.309   7.819  0.2381 -0.7570 -2.0858
 1785TIP3   OH226913   4.211   4.287   1.770 -0.8386  0.0441 -0.2525
 1785TIP3    H126914   4.258   4.274   1.853 -0.6608  0.8622 -0.2128
 1785TIP3    H226915   4.155   4.210   1.762  1.4070 -1.6415 -0.9226
 1786TIP3   OH226916   0.496   3.863   8.151 -0.2193 -0.1066 -0.3719
 1786TIP3    H126917   0.404   3.858   8.128  0.4675 -1.9641 -3.2879
 1786TIP3    H226918   0.514   3.781   8.197  0.4789 -1.2320 -2.4812
 1787TIP3   OH226919   5.565   2.616   7.415  0.5322 -0.3270 -0.6076
 1787TIP3    H126920   5.564   2.556   7.490 -2.3804 -0.9561 -1.0319
 1787TIP3    H226921   5.626   2.577   7.353  0.1461 -1.8483 -0.0723
 1788TIP3   OH226922   6.473   1.084   7.102 -0.0696  0.4573  0.4058
 1788TIP3    H126923   6.412   1.074   7.029 -0.5645 -1.7269  1.0587
 1788TIP3    H226924   6.552   1.038   7.075  0.4665  1.3095  0.4843
 1789TIP3   OH226925   0.739   2.794   1.508 -0.2220  0.0600 -0.1290
 1789TIP3    H126926   0.775   2.766   1.424 -0.2623 -0.7458  0.1093
 1789TIP3    H226927   0.645   2.786   1.498 -0.2001 -0.7356  0.2164
 1790TIP3   OH226928   3.086   6.052   2.459 -0.3729  0.1517 -0.2517
 1790TIP3    H126929   3.142   5.986   2.499 -0.6693  0.1258  0.1251
 1790TIP3    H226930   3.130   6.135   2.475 -0.2695  0.0987 -0.2609
 1791TIP3   OH226931   4.952   5.229   1.312 -0.1892 -0.2589 -0.3559
 1791TIP3    H126932   4.950   5.139   1.344  0.5820 -0.8542 -1.8858
 1791TIP3    H226933   5.014   5.227   1.240  0.2769  1.6377 -0.0557
 1792TIP3   OH226934   5.093   6.283   0.495 -0.2173  0.9280 -0.0867
 1792TIP3    H126935   5.147   6.360   0.513  0.4344  0.3781  0.3470
 1792TIP3    H226936   5.040   6.308   0.419  1.4941  1.0459 -1.2800
 1793TIP3   OH226937   3.271   0.666   2.203  0.1689 -0.0853 -0.1071
 1793TIP3    H126938   3.215   0.658   2.126  0.8898 -0.3766 -0.6193
 1793TIP3    H226939   3.280   0.760   2.217  1.2040  0.0269 -1.2855
 1794TIP3   OH226940   0.910   3.395   1.641 -0.4792  0.6976  0.0958
 1794TIP3    H126941   0.867   3.390   1.727 -1.5273  1.6550 -0.3506
 1794TIP3    H226942   0.980   3.459   1.653  0.9465 -0.9089  0.8404
 1795TIP3   OH226943   2.583   2.419   7.059  0.1143 -0.7434  0.0778
 1795TIP3    H126944   2.624   2.373   7.133  2.6908 -1.3013 -1.5748
 1795TIP3    H226945   2.611   2.510   7.069 -0.7780 -0.4962  0.5349
 1796TIP3   OH226946   6.157   2.920   8.251 -0.1169 -0.4996  0.1576
 1796TIP3    H126947   6.105   3.000   8.247 -1.1224 -1.1199  0.3402
 1796TIP3    H226948   6.159   2.898   8.344  0.0056 -0.7664  0.0924
 1797TIP3   OH226949   4.414   0.746   7.868  0.0425 -0.6122 -0.4455
 1797TIP3    H126950   4.432   0.838   7.887 -0.3995 -0.7263  0.6001
 1797TIP3    H226951   4.454   0.731   7.782 -1.5210  1.0490 -1.5308
 1798TIP3   OH226952   2.873   3.100   0.113  0.0709  0.8546 -0.0236
 1798TIP3    H126953   2.816   3.172   0.141 -1.1291 -0.5982  1.5426
 1798TIP3    H226954   2.962   3.132   0.127 -0.4404  1.9759  0.7675
 1799TIP3   OH226955   0.335   3.395   6.766  0.2119 -0.2453 -0.0445
 1799TIP3    H126956   0.430   3.403   6.752 -0.0301  0.1332 -1.6724
 1799TIP3    H226957   0.308   3.481   6.798  0.0973  0.4308 -1.8379
 1800TIP3   OH226958   4.826   2.409   0.701  0.3955  0.4231 -0.3274
 1800TIP3    H126959   4.733   2.387   0.699  0.8410 -1.6675 -0.3093
 1800TIP3    H226960   4.831   2.495   0.659 -1.5602  0.7303 -0.0356
 1801TIP3   OH226961   0.635   0.651   8.519  0.3421  0.2483  0.9050
 1801TIP3    H126962   0.627   0.746   8.515  0.0625  0.1883 -0.2977
 1801TIP3    H226963   0.690   0.628   8.445 -1.2075 -0.6713 -0.0177
 1802TIP3   OH226964   3.656   6.249   7.124  0.1463  1.0251 -0.3394
 1802TIP3    H126965   3.749   6.261   7.144  0.0865  0.1343  0.5017
 1802TIP3    H226966   3.621   6.201   7.199 -1.1446  1.9310 -0.3341
 1803TIP3   OH226967   3.788   4.500   0.077 -0.3564  0.2708 -0.0302
 1803TIP3    H126968   3.802   4.535   0.165 -4.1897  1.0766  0.4104
 1803TIP3    H226969   3.731   4.424   0.091  1.8330 -1.8048 -1.6227
 1804TIP3   OH226970   3.402   5.317   7.992  0.3626  0.4864  0.3877
 1804TIP3    H126971   3.444   5.274   7.917  0.6434 -0.4030  1.0501
 1804TIP3    H226972   3.443   5.404   7.995  1.0566  0.1774  0.0968
 1805TIP3   OH226973   1.629   1.242   7.939  0.2569 -0.2891 -0.2932
 1805TIP3    H126974   1.605   1.334   7.944  0.8949 -0.0909 -0.7148
 1805TIP3    H226975   1.704   1.240   7.880  1.9239 -0.7646  1.7390
 1806TIP3   OH226976   1.114   4.971   2.829 -0.3479  0.1150  0.2896
 1806TIP3    H126977   1.083   5.018   2.752  0.8283  0.2832 -0.1004
 1806TIP3    H226978   1.066   4.888   2.828 -2.0942  1.0725  0.7208
 1807TIP3   OH226979   1.055   1.803   6.493  0.5238  0.2891 -0.6845
 1807TIP3    H126980   1.046   1.856   6.573 -2.0724 -3.4422  1.8090
 1807TIP3    H226981   1.035   1.714   6.521 -1.1118 -1.2187 -5.6652
 1808TIP3   OH226982   6.426   6.837   6.812 -0.8725  0.3067  0.8281
 1808TIP3    H126983   6.361   6.769   6.795  0.0416 -0.8186  1.6683
 1808TIP3    H226984   6.462   6.815   6.897 -2.5414  3.4868  2.5750
 1809TIP3   OH226985   5.708   1.121   1.279 -0.1336 -0.2185 -0.5255
 1809TIP3    H126986   5.621   1.158   1.262  0.3004  1.4518  0.5898
 1809TIP3    H226987   5.765   1.197   1.289  1.1208 -1.2347  0.4566
 1810TIP3   OH226988   5.333   0.234   1.370 -0.1356  0.1963 -0.1217
 1810TIP3    H126989   5.415   0.279   1.351 -0.5370  0.8256 -0.3745
 1810TIP3    H226990   5.346   0.145   1.336 -0.1936  0.7803 -1.7536
 1811TIP3   OH226991   1.991   6.565   5.996 -0.5818  0.3392 -0.4690
 1811TIP3    H126992   2.073   6.556   6.045 -0.2904  1.2069 -0.7720
 1811TIP3    H226993   1.925   6.528   6.053 -0.1074  0.4725  0.1799
 1812TIP3   OH226994   1.876   4.943   8.435 -0.0702 -0.0116  0.1273
 1812TIP3    H126995   1.951   4.936   8.495  0.2864  0.1723 -0.2914
 1812TIP3    H226996   1.805   4.977   8.489 -0.1539 -1.1747  0.7786
 1813TIP3   OH226997   2.569   4.053   0.435  0.5701 -0.1477  0.1404
 1813TIP3    H126998   2.577   3.959   0.447 -0.6040 -0.2315  0.4292
 1813TIP3    H226999   2.521   4.083   0.513 -1.2965  0.2870 -1.1030
 1814TIP3   OH227000   0.062   5.562   7.413  0.0333 -0.7147  0.6199
 1814TIP3    H127001   0.021   5.596   7.334 -0.6060  0.1728  1.3148
 1814TIP3    H227002   0.072   5.639   7.470  0.4920 -1.3334  1.4000
 1815TIP3   OH227003   1.829   0.208   1.981  0.5011  0.2177  0.5093
 1815TIP3    H127004   1.820   0.289   1.930 -2.3953  0.5356  1.3464
 1815TIP3    H227005   1.759   0.213   2.045  1.2346 -2.2831  1.5930
 1816TIP3   OH227006   4.638   2.028   2.467  0.2725 -0.2129  0.1161
 1816TIP3    H127007   4.568   1.973   2.502  0.1703 -0.3997 -0.3592
 1816TIP3    H227008   4.596   2.111   2.447 -0.6661 -1.3212 -3.2388
 1817TIP3   OH227009   0.820   1.604   7.054  0.0355  0.7064  0.3936
 1817TIP3    H127010   0.905   1.582   7.016 -0.6232  0.9091 -1.2892
 1817TIP3    H227011   0.801   1.692   7.021 -1.7567 -0.1514 -1.0056
 1818TIP3   OH227012   6.493   5.550   7.579  0.2252 -0.3365  0.3502
 1818TIP3    H127013   6.462   5.470   7.537  0.3760  0.9397 -2.3610
 1818TIP3    H227014   6.588   5.547   7.570  0.1437  1.1110 -1.8716
 1819TIP3   OH227015   5.859   2.795   0.556 -0.0639 -0.0693 -0.3266
 1819TIP3    H127016   5.850   2.864   0.490  1.4633 -0.8369 -1.3948
 1819TIP3    H227017   5.807   2.723   0.522  1.0064 -0.5894 -0.8932
 1820TIP3   OH227018   3.293   1.363   0.250 -0.0517  0.1032  0.0507
 1820TIP3    H127019   3.265   1.449   0.219  2.3613  1.0477  0.2277
 1820TIP3    H227020   3.287   1.369   0.345 -0.5566 -0.2108  0.0457
 1821TIP3   OH227021   1.220   0.729   0.099  1.0946  0.1393  0.7058
 1821TIP3    H127022   1.290   0.667   0.078  2.3264  2.0390 -1.1809
 1821TIP3    H227023   1.263   0.801   0.143  0.3595  1.2995 -0.3897
 1822TIP3   OH227024   1.786   2.696   7.295  0.8572  0.0659 -1.0943
 1822TIP3    H127025   1.874   2.661   7.292  0.4297 -1.0130 -1.3244
 1822TIP3    H227026   1.740   2.653   7.223  0.2234  0.8499 -1.1775
 1823TIP3   OH227027   6.609   5.559   7.139 -0.2620  0.0522 -0.5151
 1823TIP3    H127028   6.517   5.545   7.114 -0.5336  2.0537 -0.7778
 1823TIP3    H227029   6.610   5.647   7.178  1.1252 -0.8325  1.6709
 1824TIP3   OH227030   3.765   1.343   6.790  0.1753 -0.7940  0.1753
 1824TIP3    H127031   3.744   1.283   6.718 -0.5384  0.2407 -0.4930
 1824TIP3    H227032   3.850   1.380   6.766 -0.4480  0.1887 -0.5907
 1825TIP3   OH227033   6.527   3.723   0.799 -0.0245 -0.3947 -0.1261
 1825TIP3    H127034   6.441   3.729   0.840  0.6367  0.4957  1.1632
 1825TIP3    H227035   6.585   3.696   0.869  0.6777 -1.6474 -1.1301
 1826TIP3   OH227036   4.665   4.284   7.445  0.0132  0.4197 -0.3278
 1826TIP3    H127037   4.580   4.266   7.484 -0.7947 -1.7851 -2.8165
 1826TIP3    H227038   4.651   4.362   7.391 -0.1326  0.6445  0.0296
 1827TIP3   OH227039   4.220   1.511   8.317 -0.5595 -0.5543 -0.1711
 1827TIP3    H127040   4.143   1.542   8.269 -0.7632 -0.6647  0.0804
 1827TIP3    H227041   4.218   1.559   8.400  0.4698  0.5485 -0.7483
 1828TIP3   OH227042   5.866   5.289   2.253 -0.1326  0.1079 -0.2495
 1828TIP3    H127043   5.907   5.203   2.246 -0.2752  0.0925 -0.9264
 1828TIP3    H227044   5.774   5.274   2.228 -0.4772  0.2147  0.8771
 1829TIP3   OH227045   6.495   1.418   2.114  0.2848  0.0089 -0.1796
 1829TIP3    H127046   6.547   1.457   2.044  3.5686 -1.7367  1.0578
 1829TIP3    H227047   6.532   1.454   2.194 -2.1738  0.5739  0.8038
 1830TIP3   OH227048   0.346   0.434   6.688 -0.2286 -0.2628 -0.2412
 1830TIP3    H127049   0.308   0.519   6.710 -1.0296 -0.6731 -0.0138
 1830TIP3    H227050   0.431   0.434   6.732 -0.1479  0.4861 -0.3859
 1831TIP3   OH227051   3.501   0.531   7.241 -0.0034 -0.1951  0.3287
 1831TIP3    H127052   3.415   0.562   7.214 -0.6754 -1.1558  1.3017
 1831TIP3    H227053   3.500   0.538   7.336  0.4777 -1.5027  0.4513
 1832TIP3   OH227054   2.032   3.760   2.620 -0.9470 -0.2797  0.1374
 1832TIP3    H127055   2.120   3.733   2.590 -0.8514  0.9986 -0.7905
 1832TIP3    H227056   2.049   3.830   2.683 -1.2954 -0.0435 -0.0298
 1833TIP3   OH227057   6.586   5.714   1.525  0.1878 -0.0085 -0.4588
 1833TIP3    H127058   6.679   5.714   1.549  0.6927 -2.6932 -2.0055
 1833TIP3    H227059   6.586   5.729   1.430 -1.1622  2.1178 -0.1823
 1834TIP3   OH227060   3.810   5.780   0.705  0.0641 -0.3924 -0.3859
 1834TIP3    H127061   3.835   5.834   0.780  0.8295 -0.1228 -0.8261
 1834TIP3    H227062   3.824   5.690   0.735  1.0390 -0.2641 -0.4319
 1835TIP3   OH227063   4.938   0.357   8.614 -0.1076  0.1671  0.4559
 1835TIP3    H127064   5.014   0.402   8.651  0.4173  0.9857 -1.5094
 1835TIP3    H227065   4.875   0.427   8.596 -0.5410 -0.2714  0.2406
 1836TIP3   OH227066   5.758   5.015   0.755  0.2850  0.3479  0.5654
 1836TIP3    H127067   5.713   4.931   0.759 -2.5933  1.7143 -0.2882
 1836TIP3    H227068   5.809   5.019   0.835  0.1529 -2.0072  0.8294
 1837TIP3   OH227069   1.113   3.613   0.946  0.0978 -0.5916 -0.2327
 1837TIP3    H127070   1.134   3.523   0.972 -0.8246 -1.1234 -1.2254
 1837TIP3    H227071   1.102   3.660   1.029  0.1191 -1.5094  0.3096
 1838TIP3   OH227072   0.786   4.995   6.694 -0.0468  0.7809  0.6141
 1838TIP3    H127073   0.739   5.079   6.692 -0.1799  0.6890 -0.8967
 1838TIP3    H227074   0.879   5.020   6.691 -0.0613  0.9127 -3.0977
 1839TIP3   OH227075   3.199   0.373   6.870 -0.4856  0.0788 -0.3572
 1839TIP3    H127076   3.138   0.304   6.896  1.0518  0.1684  4.5008
 1839TIP3    H227077   3.285   0.339   6.893  0.8486  1.8064 -2.4465
 1840TIP3   OH227078   5.037   4.817   2.467  0.0414  0.1950  0.4391
 1840TIP3    H127079   5.030   4.722   2.467  2.5600 -0.0612  1.4846
 1840TIP3    H227080   5.010   4.843   2.555 -0.5230  0.4655  0.1932
 1841TIP3   OH227081   2.733   6.465   1.366 -0.1388  0.2799  0.6281
 1841TIP3    H127082   2.702   6.386   1.411 -1.2489  0.3240 -0.0347
 1841TIP3    H227083   2.708   6.537   1.424 -1.4261  0.3234  0.0533
 1842TIP3   OH227084   5.320   2.447   1.012 -0.2558 -0.1375  0.0378
 1842TIP3    H127085   5.411   2.444   0.983 -0.0806 -0.7901  0.6207
 1842TIP3    H227086   5.319   2.516   1.078 -0.0715 -0.4496  0.3738
 1843TIP3   OH227087   0.218   1.639   2.592  0.6169  0.8451  0.7525
 1843TIP3    H127088   0.281   1.572   2.617 -3.3512 -3.0189  1.5675
 1843TIP3    H227089   0.163   1.652   2.669 -2.3485  0.4986 -1.1425
 1844TIP3   OH227090   2.054   3.226   0.231  0.1382 -0.0849  0.1499
 1844TIP3    H127091   2.136   3.187   0.261  0.5924 -0.0700 -1.0260
 1844TIP3    H227092   2.079   3.281   0.157 -0.7895  0.7951  0.4760
 1845TIP3   OH227093   3.602   4.479   2.092  0.4518  0.7145  0.0133
 1845TIP3    H127094   3.552   4.560   2.094 -1.5754 -0.4692  1.3341
 1845TIP3    H227095   3.681   4.497   2.143 -1.7197  0.9206  3.6505
 1846TIP3   OH227096   1.067   4.674   8.572  0.5978 -0.1679  0.7305
 1846TIP3    H127097   1.157   4.704   8.558  1.1892 -2.1799 -0.1277
 1846TIP3    H227098   1.044   4.630   8.490 -0.2899 -1.7581  1.7941
 1847TIP3   OH227099   6.558   4.830   8.186  0.3400 -0.9392 -0.6417
 1847TIP3    H127100   6.644   4.843   8.147  0.2802 -0.0273 -0.4760
 1847TIP3    H227101   6.499   4.886   8.135 -0.0108 -0.9370 -0.2448
 1848TIP3   OH227102   6.390   6.195   1.156 -0.1799 -0.2818 -0.2723
 1848TIP3    H127103   6.486   6.198   1.151 -0.2407  0.1504 -1.3640
 1848TIP3    H227104   6.371   6.219   1.247  0.7340  0.0997 -0.1640
 1849TIP3   OH227105   1.248   1.134   1.029 -0.7866  0.3909 -0.2709
 1849TIP3    H127106   1.204   1.073   1.088  0.2174 -0.9374 -0.8374
 1849TIP3    H227107   1.331   1.092   1.008  0.9358  2.9431  0.9738
 1850TIP3   OH227108   5.469   5.937   0.610  0.1779 -0.8150 -0.0313
 1850TIP3    H127109   5.492   6.029   0.596 -0.0194 -0.8975 -1.0457
 1850TIP3    H227110   5.476   5.898   0.523 -1.4467 -1.3598  0.0514
 1851TIP3   OH227111   1.337   3.787   0.097 -0.5868  0.3769  0.3487
 1851TIP3    H127112   1.429   3.769   0.080 -0.3989  1.1320  0.5099
 1851TIP3    H227113   1.323   3.876   0.064 -2.1059 -0.8867 -2.7726
 1852TIP3   OH227114   0.595   3.617   1.204 -0.2694 -0.5792  0.1173
 1852TIP3    H127115   0.633   3.613   1.117 -1.3307 -1.3589 -0.3402
 1852TIP3    H227116   0.583   3.710   1.221 -2.4873 -0.4479 -1.7236
 1853TIP3   OH227117   6.141   4.336   7.428  0.1321  0.0026 -0.1418
 1853TIP3    H127118   6.056   4.304   7.459  0.3989 -1.1718 -0.5738
 1853TIP3    H227119   6.202   4.314   7.499  0.0863  0.8240  0.1581
 1854TIP3   OH227120   6.845   4.686   6.601  0.3709 -0.5188  0.0686
 1854TIP3    H127121   6.880   4.752   6.660  0.0612  0.7866 -1.1305
 1854TIP3    H227122   6.799   4.624   6.658  2.3304 -0.8230  1.4073
 1855TIP3   OH227123   3.453   2.283   6.103  0.2445 -0.4499 -0.3171
 1855TIP3    H127124   3.546   2.295   6.124  0.3122 -0.0099 -0.8375
 1855TIP3    H227125   3.410   2.276   6.188  0.5322  1.1396 -0.0113
 1856TIP3   OH227126   2.700   5.342   0.265  0.3399  0.3904  0.4074
 1856TIP3    H127127   2.685   5.265   0.320  4.1255 -1.7541 -1.1956
 1856TIP3    H227128   2.763   5.394   0.315 -0.8364  1.6585  0.6579
 1857TIP3   OH227129   2.599   1.880   0.842 -0.3296 -0.9279 -0.0927
 1857TIP3    H127130   2.553   1.935   0.779  0.0939 -2.4037 -1.7928
 1857TIP3    H227131   2.656   1.825   0.788  1.9806 -0.5237  1.7742
 1858TIP3   OH227132   6.582   1.114   8.219  0.0932 -0.0548  0.6823
 1858TIP3    H127133   6.538   1.057   8.282 -1.8868 -0.7166 -1.1952
 1858TIP3    H227134   6.605   1.056   8.146 -3.5818  1.6221 -2.1120
 1859TIP3   OH227135   5.228   4.468   1.683 -0.7904 -0.1728  0.1697
 1859TIP3    H127136   5.255   4.470   1.775 -1.0909 -3.2716  0.4239
 1859TIP3    H227137   5.303   4.503   1.635 -0.1190  0.2726  1.4885
 1860TIP3   OH227138   1.079   6.442   6.601 -0.1687  0.7569  0.3043
 1860TIP3    H127139   1.001   6.431   6.655 -1.0695  0.4535 -0.9882
 1860TIP3    H227140   1.050   6.498   6.529 -0.1517 -1.8930 -1.9435
 1861TIP3   OH227141   5.917   4.982   2.465 -0.3332 -0.5353  0.0356
 1861TIP3    H127142   5.862   4.909   2.436 -0.5518 -0.3551 -0.0113
 1861TIP3    H227143   5.966   5.007   2.386 -2.6437  1.4868 -0.8926
 1862TIP3   OH227144   2.370   4.251   1.451 -0.2112  0.1973 -0.2819
 1862TIP3    H127145   2.397   4.228   1.362 -0.1005 -1.0597  0.0566
 1862TIP3    H227146   2.345   4.168   1.490  0.3710  0.6415  1.0826
 1863TIP3   OH227147   2.759   6.157   0.962 -0.0798  0.3687  0.2521
 1863TIP3    H127148   2.739   6.164   1.055 -0.7465  3.4974 -0.0085
 1863TIP3    H227149   2.855   6.157   0.959 -0.0457 -0.1610  0.9280
 1864TIP3   OH227150   1.627   5.678   8.291 -0.8419 -0.7469  0.2102
 1864TIP3    H127151   1.624   5.582   8.292  0.8313 -0.8318  0.1394
 1864TIP3    H227152   1.596   5.702   8.203 -0.5127 -1.2801 -0.0582
 1865TIP3   OH227153   3.099   5.470   7.966  0.4189 -0.4924 -0.0626
 1865TIP3    H127154   3.136   5.508   8.045  0.8649 -0.9442 -0.0530
 1865TIP3    H227155   3.057   5.389   7.995  0.6459 -0.6961 -0.3021
 1866TIP3   OH227156   3.311   1.929   8.200  0.2399  0.0079  0.6856
 1866TIP3    H127157   3.361   1.904   8.278  0.6739  0.4185  0.5419
 1866TIP3    H227158   3.360   1.893   8.127 -0.4945 -0.9105  0.6271
 1867TIP3   OH227159   6.794   5.740   0.342  0.3930  0.1440 -0.2618
 1867TIP3    H127160   6.740   5.750   0.264  2.0182 -0.2226 -1.4818
 1867TIP3    H227161   6.784   5.648   0.367  3.6307 -1.1815 -3.0558
 1868TIP3   OH227162   2.912   5.660   7.182 -0.0716 -0.5356  0.0208
 1868TIP3    H127163   2.991   5.699   7.143  0.4515 -0.4465  1.1334
 1868TIP3    H227164   2.895   5.582   7.130 -1.0047  1.0048 -2.1208
 1869TIP3   OH227165   1.587   4.800   8.647 -0.4597 -0.0821 -0.4316
 1869TIP3    H127166   1.649   4.806   8.719  0.7716 -1.5593 -1.3125
 1869TIP3    H227167   1.603   4.880   8.596  0.0409  0.0191 -0.1293
 1870TIP3   OH227168   0.160   3.437   7.749 -0.4760  0.2773  0.4966
 1870TIP3    H127169   0.105   3.427   7.671 -0.7443 -2.4643  0.9123
 1870TIP3    H227170   0.139   3.524   7.783 -1.3503  1.0012 -1.7150
 1871TIP3   OH227171   2.857   2.423   0.415  0.2158  0.5115 -0.1315
 1871TIP3    H127172   2.940   2.467   0.402 -0.3774  2.4095  1.8977
 1871TIP3    H227173   2.831   2.394   0.328  2.6223  0.4988 -0.9073
 1872TIP3   OH227174   1.105   3.431   1.420 -0.2074 -0.1145  0.5426
 1872TIP3    H127175   1.030   3.438   1.480  0.2195 -1.9765  1.3605
 1872TIP3    H227176   1.170   3.381   1.469  0.9152 -0.0131 -0.7998
 1873TIP3   OH227177   1.647   2.623   1.270 -0.0556  0.7483 -0.2305
 1873TIP3    H127178   1.560   2.588   1.292 -0.4109  1.7835  0.0301
 1873TIP3    H227179   1.644   2.634   1.175  0.4154 -0.8418 -0.4643
 1874TIP3   OH227180   5.567   3.954   7.305 -0.5686  0.2428  0.3005
 1874TIP3    H127181   5.631   3.984   7.240  0.3714  0.5907  1.3442
 1874TIP3    H227182   5.482   3.966   7.263 -0.0460  1.4946 -0.4631
 1875TIP3   OH227183   0.075   5.915   7.193 -0.9156  0.2392  0.5645
 1875TIP3    H127184   0.161   5.876   7.178 -0.8961  0.4524  0.0941
 1875TIP3    H227185   0.044   5.939   7.105 -0.9589  1.2025  0.8227
 1876TIP3   OH227186   1.447   4.667   0.444 -0.1132  0.1642  0.4828
 1876TIP3    H127187   1.358   4.703   0.451 -0.6605 -1.2923  1.5831
 1876TIP3    H227188   1.468   4.639   0.533  1.2038 -0.1220  0.1007
 1877TIP3   OH227189   3.955   0.652   7.089  0.0674 -0.5008 -0.3909
 1877TIP3    H127190   3.925   0.643   6.999 -0.7050 -1.4215 -0.0552
 1877TIP3    H227191   3.926   0.572   7.133 -0.9648  0.6048  1.0536
 1878TIP3   OH227192   1.866   6.714   8.503  0.1887  0.3174  0.5699
 1878TIP3    H127193   1.795   6.667   8.545  0.7446  1.1936  2.6193
 1878TIP3    H227194   1.943   6.658   8.515  0.0996 -0.0545 -0.5280
 1879TIP3   OH227195   5.071   4.518   8.327  0.4090  0.2462 -0.2232
 1879TIP3    H127196   5.057   4.464   8.249  1.2404  0.8966 -0.8419
 1879TIP3    H227197   5.014   4.593   8.315  1.0718  0.7002 -0.5634
 1880TIP3   OH227198   3.900   1.584   0.720  0.3388  0.0795  0.2344
 1880TIP3    H127199   3.868   1.532   0.794 -0.5052  0.9511  0.5141
 1880TIP3    H227200   3.917   1.520   0.651 -0.6604 -0.5702  0.5685
 1881TIP3   OH227201   1.203   1.713   6.246  0.2373 -0.7536 -0.3503
 1881TIP3    H127202   1.208   1.622   6.277  0.1592  0.1626  2.6174
 1881TIP3    H227203   1.118   1.745   6.278  1.1099  0.9305  0.3881
 1882TIP3   OH227204   4.539   1.986   0.378 -0.5685  0.5410  0.1447
 1882TIP3    H127205   4.613   2.028   0.422 -0.3701 -0.6347  0.9698
 1882TIP3    H227206   4.566   1.982   0.286  0.6404 -0.3617  0.5187
 1883TIP3   OH227207   1.731   3.408   7.023  0.3402  0.7092 -0.3731
 1883TIP3    H127208   1.721   3.502   7.034 -0.0006  0.7721 -1.1681
 1883TIP3    H227209   1.674   3.370   7.089 -0.5433  1.0720 -0.9047
 1884TIP3   OH227210   5.733   5.254   7.571 -0.3428  0.1764 -0.0882
 1884TIP3    H127211   5.788   5.286   7.643  2.2321 -0.1312 -1.8055
 1884TIP3    H227212   5.768   5.298   7.493 -2.4452 -0.2097 -1.3265
 1885TIP3   OH227213   6.100   4.219   1.861  0.0711  0.3839  0.0203
 1885TIP3    H127214   6.040   4.177   1.800  0.5142  0.3343 -0.3915
 1885TIP3    H227215   6.111   4.308   1.826  1.7797 -0.2016 -1.0662
 1886TIP3   OH227216   4.375   4.388   0.618 -0.2477  0.1166  0.0945
 1886TIP3    H127217   4.459   4.402   0.661 -1.3399 -0.7025  2.7350
 1886TIP3    H227218   4.353   4.297   0.637 -1.0316 -0.1860 -1.9643
 1887TIP3   OH227219   0.491   0.795   2.302  0.2765 -0.1418 -0.1694
 1887TIP3    H127220   0.540   0.874   2.323  0.7043 -0.3486 -0.3776
 1887TIP3    H227221   0.399   0.818   2.317  0.3705  0.4967 -0.5414
 1888TIP3   OH227222   5.223   1.902   7.838  0.1163  0.0835  0.3575
 1888TIP3    H127223   5.254   1.812   7.824 -0.6596 -0.0175 -0.8659
 1888TIP3    H227224   5.162   1.918   7.766  0.8897  1.8992  0.0580
 1889TIP3   OH227225   1.906   5.893   0.595 -0.0210  0.0482  0.4544
 1889TIP3    H127226   1.897   5.877   0.501 -0.5397  1.0699  0.3149
 1889TIP3    H227227   1.920   5.806   0.633  0.0616 -0.3900 -0.5466
 1890TIP3   OH227228   4.672   4.832   7.234  0.3686 -0.8649  0.0996
 1890TIP3    H127229   4.716   4.907   7.195 -0.8684 -0.7915 -1.2580
 1890TIP3    H227230   4.582   4.862   7.250  0.1685 -1.6956  0.6027
 1891TIP3   OH227231   4.233   4.660   0.585  0.8621  0.0281  0.4053
 1891TIP3    H127232   4.224   4.652   0.490 -0.7833 -1.3053  0.6337
 1891TIP3    H227233   4.296   4.593   0.609  2.0543  1.0239  0.1902
 1892TIP3   OH227234   3.492   0.153   0.487  0.7972  0.1017 -0.3572
 1892TIP3    H127235   3.414   0.159   0.542  0.1855  1.9517 -1.3463
 1892TIP3    H227236   3.478   0.217   0.418  2.6006 -0.4883 -1.3419
 1893TIP3   OH227237   3.549   4.906   1.393  0.2930  0.3284  0.2443
 1893TIP3    H127238   3.591   4.828   1.356  1.2137  0.9786 -0.1224
 1893TIP3    H227239   3.542   4.966   1.319  0.0011  0.7615  0.6229
 1894TIP3   OH227240   6.437   2.241   0.053 -0.0268 -0.3697  0.0152
 1894TIP3    H127241   6.407   2.156   0.022  2.2288 -1.7601  1.3694
 1894TIP3    H227242   6.395   2.251   0.139  0.1563 -0.4064  0.1103
 1895TIP3   OH227243   4.300   1.379   7.031  0.3179  0.2570  0.0514
 1895TIP3    H127244   4.258   1.311   7.084 -3.0960  1.0701 -1.3402
 1895TIP3    H227245   4.349   1.331   6.965  1.1582 -0.7649  1.3633
 1896TIP3   OH227246   6.546   1.762   7.939  0.3975 -0.0109  0.3815
 1896TIP3    H127247   6.534   1.714   8.021 -0.5679 -1.6066 -0.6452
 1896TIP3    H227248   6.613   1.713   7.892 -0.7066 -0.4857 -0.7452
 1897TIP3   OH227249   4.186   2.335   1.296 -0.1689 -0.4147  0.2101
 1897TIP3    H127250   4.090   2.339   1.299 -0.2283  2.2040 -2.0046
 1897TIP3    H227251   4.206   2.282   1.219  0.2521 -1.7100  1.1634
 1898TIP3   OH227252   4.936   3.293   7.698 -0.2021  0.6666  0.6454
 1898TIP3    H127253   4.881   3.236   7.645 -0.0838  0.9051  0.2601
 1898TIP3    H227254   4.875   3.360   7.731 -0.1069  1.0680  0.0245
 1899TIP3   OH227255   2.059   6.078   2.542 -0.2760 -0.9113  0.4222
 1899TIP3    H127256   2.062   6.037   2.628 -0.3145 -0.6606  0.5438
 1899TIP3    H227257   2.131   6.141   2.543 -0.5629 -0.5795  0.4410
 1900TIP3   OH227258   1.131   3.390   6.795  0.3199 -0.2346  0.2264
 1900TIP3    H127259   1.169   3.339   6.866 -1.5354 -0.3228  1.2266
 1900TIP3    H227260   1.102   3.324   6.731 -1.4370 -0.4579  1.1914
 1901TIP3   OH227261   1.961   0.090   0.538  0.0664 -0.4546 -0.1958
 1901TIP3    H127262   1.890   0.152   0.552  0.3261 -0.3075  0.5411
 1901TIP3    H227263   1.975   0.089   0.444 -1.4066 -1.0397 -0.4340
 1902TIP3   OH227264   0.721   0.311   2.448  0.0597  0.1443  0.2519
 1902TIP3    H127265   0.683   0.396   2.469  1.2696  0.5947  0.7107
 1902TIP3    H227266   0.672   0.248   2.501  0.0123  0.7155  0.8981
 1903TIP3   OH227267   4.253   5.669   7.132  0.3894 -0.1345  0.0338
 1903TIP3    H127268   4.329   5.717   7.098 -0.0687 -1.3079 -3.0174
 1903TIP3    H227269   4.277   5.576   7.122 -1.2655 -0.5243 -0.6472
 1904TIP3   OH227270   5.767   1.276   8.077  0.2613 -0.6604  0.7124
 1904TIP3    H127271   5.691   1.248   8.128 -0.7865  1.0924  0.1831
 1904TIP3    H227272   5.810   1.342   8.133  0.0570  0.0393  0.0649
 1905TIP3   OH227273   1.550   4.871   0.684  0.6798 -0.0683 -0.0615
 1905TIP3    H127274   1.593   4.868   0.769  0.7676  1.8289  0.0217
 1905TIP3    H227275   1.462   4.905   0.703  0.8579  0.8254 -0.7371
 1906TIP3   OH227276   0.404   6.223   7.817  0.9764 -0.0320 -0.0681
 1906TIP3    H127277   0.345   6.295   7.796 -0.3770 -0.7033  1.2687
 1906TIP3    H227278   0.435   6.192   7.732 -0.2386  0.6245 -0.7737
 1907TIP3   OH227279   2.797   4.895   1.571  0.6341 -0.4238  0.1984
 1907TIP3    H127280   2.744   4.913   1.648  0.4510  3.8944 -0.6787
 1907TIP3    H227281   2.887   4.893   1.603  0.5288  0.9811  0.6346
 1908TIP3   OH227282   0.889   5.932   2.484 -0.0410 -0.3793  0.2413
 1908TIP3    H127283   0.951   5.886   2.427  0.0228  0.1583 -0.1295
 1908TIP3    H227284   0.916   6.023   2.480 -0.1621 -0.3012  0.9790
 1909TIP3   OH227285   6.510   0.172   7.288  0.2111 -0.0810  0.0623
 1909TIP3    H127286   6.492   0.117   7.364 -2.4894 -0.7349 -0.9718
 1909TIP3    H227287   6.462   0.253   7.305  0.3085  0.1145 -0.5720
 1910TIP3   OH227288   4.319   5.459   8.499  0.1547 -0.5799 -0.2418
 1910TIP3    H127289   4.265   5.538   8.492 -0.3758 -0.7791  1.2393
 1910TIP3    H227290   4.312   5.417   8.413  2.4585  2.2012 -1.9517
 1911TIP3   OH227291   3.250   1.637   8.375 -0.3641 -0.1540 -0.1866
 1911TIP3    H127292   3.263   1.728   8.346 -0.4530 -0.2571 -0.5510
 1911TIP3    H227293   3.258   1.641   8.470 -0.4157  0.2451 -0.1984
 1912TIP3   OH227294   2.442   2.477   7.322  0.1895  0.1906  0.2113
 1912TIP3    H127295   2.535   2.478   7.301  0.5023  3.4878  1.1424
 1912TIP3    H227296   2.430   2.400   7.378  2.6764  0.4741  1.2469
 1913TIP3   OH227297   4.245   3.455   0.971 -0.1352 -0.2039  0.5080
 1913TIP3    H127298   4.258   3.548   0.988 -0.5017  0.2044 -1.2527
 1913TIP3    H227299   4.150   3.443   0.970 -0.0948 -0.5523  0.5017
 1914TIP3   OH227300   4.085   0.763   1.135  0.6077 -0.0331  0.0886
 1914TIP3    H127301   4.149   0.694   1.116 -0.6045 -0.9811 -0.6681
 1914TIP3    H227302   4.126   0.843   1.103  0.4943 -0.9509 -2.5927
 1915TIP3   OH227303   2.099   0.331   1.298  0.3511 -0.0971  0.0138
 1915TIP3    H127304   2.106   0.238   1.276  0.2824 -0.0168 -0.3536
 1915TIP3    H227305   2.011   0.355   1.272  0.8631  0.4374 -1.3281
 1916TIP3   OH227306   2.943   2.644   0.240 -0.1878 -0.5366 -0.0335
 1916TIP3    H127307   2.886   2.720   0.225  2.7463  1.2429 -3.8663
 1916TIP3    H227308   2.898   2.572   0.196 -1.3925 -0.2109  0.6239
 1917TIP3   OH227309   1.556   0.107   7.436 -0.2315  0.1136  0.3740
 1917TIP3    H127310   1.561   0.188   7.387 -0.1554 -0.2806 -0.2854
 1917TIP3    H227311   1.503   0.128   7.513 -1.8416  0.3143 -0.7419
 1918TIP3   OH227312   5.042   4.531   2.489 -0.1747  0.1817  0.2504
 1918TIP3    H127313   5.134   4.549   2.508 -0.0664 -0.1273  0.0449
 1918TIP3    H227314   5.006   4.499   2.571 -0.7097  2.5391  0.9934
 1919TIP3   OH227315   2.240   3.607   2.020  0.1807  0.1855  0.0767
 1919TIP3    H127316   2.321   3.565   2.049 -0.6148  0.2586  2.6436
 1919TIP3    H227317   2.172   3.542   2.039 -0.5814  0.9110 -0.1336
 1920TIP3   OH227318   6.671   3.030   8.218 -0.0335  0.3038  0.4983
 1920TIP3    H127319   6.578   3.015   8.201  0.1121 -1.7723  1.2394
 1920TIP3    H227320   6.716   2.989   8.144  0.3367 -1.0843  1.4599
 1921TIP3   OH227321   3.184   5.261   1.976  0.6476  0.2539  0.0813
 1921TIP3    H127322   3.234   5.246   2.056 -1.2303 -0.6109  1.1635
 1921TIP3    H227323   3.107   5.310   2.005 -0.3535 -0.5664 -1.0711
 1922TIP3   OH227324   6.189   3.254   0.217 -0.0053  0.4548 -0.2150
 1922TIP3    H127325   6.213   3.282   0.306  0.7114  0.1515 -0.3075
 1922TIP3    H227326   6.267   3.272   0.165 -1.0679  2.5358 -1.2302
 1923TIP3   OH227327   3.619   6.746   7.020  0.2395 -0.4797 -0.3856
 1923TIP3    H127328   3.678   6.671   7.011 -0.3471 -1.0276  0.1992
 1923TIP3    H227329   3.665   6.805   7.081  0.6113 -0.4545 -0.6852
 1924TIP3   OH227330   3.498   3.281   7.836  0.3814  0.3058 -0.3364
 1924TIP3    H127331   3.482   3.300   7.744 -2.8759 -1.2275 -0.2376
 1924TIP3    H227332   3.501   3.185   7.841 -0.6047  0.3058  1.2211
 1925TIP3   OH227333   5.574   0.373   8.491 -0.0602  0.1930 -0.0026
 1925TIP3    H127334   5.630   0.448   8.472  1.4680 -0.6483  1.0136
 1925TIP3    H227335   5.554   0.335   8.405 -1.9918  2.4770 -0.6778
 1926TIP3   OH227336   2.954   5.988   2.031 -0.2184  0.3292  0.1860
 1926TIP3    H127337   2.939   6.081   2.048  0.3595  0.5301 -0.3667
 1926TIP3    H227338   3.039   5.970   2.071 -1.5023 -0.6354  2.7166
 1927TIP3   OH227339   4.534   4.490   8.404  0.0695 -0.1617  0.3213
 1927TIP3    H127340   4.440   4.495   8.388  0.2086  0.3298 -0.3902
 1927TIP3    H227341   4.555   4.398   8.392  0.0986  0.0995 -2.1397
 1928TIP3   OH227342   4.818   3.490   1.887  0.5894  0.4948  0.0065
 1928TIP3    H127343   4.759   3.548   1.936  1.5223  1.5052 -0.0350
 1928TIP3    H227344   4.833   3.416   1.945 -0.0367  0.6398  0.3634
 1929TIP3   OH227345   3.952   3.170   1.765 -0.7751  0.0101 -0.9681
 1929TIP3    H127346   3.951   3.114   1.843 -0.1794 -0.3524 -1.2181
 1929TIP3    H227347   3.995   3.250   1.794 -1.2040  0.1600 -0.7355
 1930TIP3   OH227348   3.190   2.008   2.401  0.3247 -0.0399 -0.4094
 1930TIP3    H127349   3.231   2.095   2.406  1.4267 -0.4279 -2.0720
 1930TIP3    H227350   3.226   1.961   2.476  2.1183 -0.0054 -1.1930
 1931TIP3   OH227351   2.191   1.643   8.308 -0.0103  0.3822  0.9701
 1931TIP3    H127352   2.124   1.583   8.343  0.8510 -0.0749  1.8758
 1931TIP3    H227353   2.232   1.594   8.237 -0.0673  0.3253  0.9759
 1932TIP3   OH227354   5.801   6.001   8.473 -0.7186 -0.3878  0.4545
 1932TIP3    H127355   5.856   6.038   8.542  0.4367 -1.4725  0.1486
 1932TIP3    H227356   5.767   6.077   8.425  3.1300  0.3883 -1.3977
 1933TIP3   OH227357   6.510   3.622   7.580 -0.0529 -0.2497  0.1163
 1933TIP3    H127358   6.567   3.673   7.637  0.3140 -0.8977  0.3400
 1933TIP3    H227359   6.459   3.567   7.640  0.0660 -0.6602 -0.1559
 1934TIP3   OH227360   5.672   1.237   2.093 -0.2814 -0.5576 -0.2685
 1934TIP3    H127361   5.747   1.184   2.121 -0.4589 -0.6219  0.0907
 1934TIP3    H227362   5.597   1.196   2.136 -0.4545 -0.1698 -0.1994
 1935TIP3   OH227363   4.774   2.517   6.349  0.0841  0.1525 -0.4692
 1935TIP3    H127364   4.801   2.486   6.262 -3.0816 -1.2380 -1.1007
 1935TIP3    H227365   4.751   2.437   6.396 -3.5682  1.0566 -0.3886
 1936TIP3   OH227366   6.615   1.017   7.747 -0.3260 -0.6138  0.4396
 1936TIP3    H127367   6.557   0.996   7.820 -0.3174  0.4481  0.7731
 1936TIP3    H227368   6.692   1.056   7.788  0.7898 -2.2835  0.0274
 1937TIP3   OH227369   2.733   1.737   7.631  0.0333 -0.5824 -0.4371
 1937TIP3    H127370   2.823   1.767   7.622  0.0879  0.5528  2.6543
 1937TIP3    H227371   2.720   1.677   7.558  2.0848  1.9153 -3.1083
 1938TIP3   OH227372   3.944   6.072   7.129  0.5675 -0.3544 -0.0235
 1938TIP3    H127373   3.900   6.000   7.083  1.1663 -1.5056  1.1627
 1938TIP3    H227374   4.032   6.039   7.147 -0.0891 -0.6541  3.3559
 1939TIP3   OH227375   3.996   5.622   1.049  0.7927  0.3433  0.0061
 1939TIP3    H127376   4.040   5.667   1.121 -0.7020  0.0280  1.1588
 1939TIP3    H227377   3.920   5.677   1.029  0.9387  0.1852 -1.0129
 1940TIP3   OH227378   1.853   0.000   7.621 -0.1500 -0.3274 -0.1668
 1940TIP3    H127379   1.892   0.037   7.700 -1.0855  1.0979 -0.3387
 1940TIP3    H227380   1.856   0.072   7.557 -0.7514 -0.9928 -0.9704
 1941TIP3   OH227381   3.817   4.496   6.791 -0.2713  0.3218  0.1293
 1941TIP3    H127382   3.885   4.523   6.730  0.5253  0.0052  0.8622
 1941TIP3    H227383   3.860   4.494   6.877 -1.3563  0.7352  0.7158
 1942TIP3   OH227384   3.672   4.653   7.712  0.1144  0.1890 -0.8686
 1942TIP3    H127385   3.694   4.580   7.654  1.3549  0.3001 -0.5683
 1942TIP3    H227386   3.578   4.665   7.700  0.1032 -0.6640 -1.8412
 1943TIP3   OH227387   4.577   4.498   8.054 -0.5547  0.4006 -0.3960
 1943TIP3    H127388   4.518   4.573   8.050  0.1489  1.0059  0.3792
 1943TIP3    H227389   4.654   4.530   8.101  0.2489 -0.4779 -1.0790
 1944TIP3   OH227390   2.474   0.016   7.301  0.3910  0.4977  1.0011
 1944TIP3    H127391   2.531   0.093   7.297 -0.1894  0.8840 -1.7807
 1944TIP3    H227392   2.520  -0.045   7.359  1.6057  2.3270  2.0602
 1945TIP3   OH227393   5.504   5.028   7.953  0.6259  0.5118  0.6262
 1945TIP3    H127394   5.537   4.984   8.032  1.3630  0.7884  0.4850
 1945TIP3    H227395   5.495   5.120   7.979 -1.3160  0.2419  1.0461
 1946TIP3   OH227396   1.478   6.731   7.381 -0.6203 -0.1439 -0.5251
 1946TIP3    H127397   1.523   6.816   7.391 -0.0400 -0.5553  0.5577
 1946TIP3    H227398   1.412   6.731   7.450 -0.2685 -0.7741 -0.1779
 1947TIP3   OH227399   1.228   5.394   7.898 -0.5188  0.0509  0.3133
 1947TIP3    H127400   1.308   5.405   7.847 -0.3964 -0.1653  0.4533
 1947TIP3    H227401   1.228   5.302   7.922  0.1090  0.4015  1.7962
 1948TIP3   OH227402   4.349   5.279   8.185  0.6837  0.4271 -0.1831
 1948TIP3    H127403   4.293   5.220   8.236  0.4499  0.5328 -0.3221
 1948TIP3    H227404   4.430   5.229   8.173 -0.3635 -0.9045 -2.4153
 1949TIP3   OH227405   1.577   5.160   1.043  0.7026  0.5924 -0.7491
 1949TIP3    H127406   1.642   5.130   0.980  1.3783 -2.9920  1.3778
 1949TIP3    H227407   1.625   5.167   1.125 -1.2089 -0.7426  0.5879
 1950TIP3   OH227408   0.567   1.802   0.143  0.6507  1.0479 -0.5176
 1950TIP3    H127409   0.607   1.715   0.147 -3.0418 -0.8648 -0.0408
 1950TIP3    H227410   0.591   1.835   0.057  2.0710 -0.4989 -0.7656
 1951TIP3   OH227411   2.437   3.250   6.285 -0.0933 -0.8362 -0.5011
 1951TIP3    H127412   2.497   3.240   6.211 -0.2842  0.2809 -0.8217
 1951TIP3    H227413   2.482   3.311   6.344 -0.3977 -0.9131 -0.1867
 1952TIP3   OH227414   2.073   4.950   1.009  0.0840  0.0338 -0.3637
 1952TIP3    H127415   2.146   5.007   1.032 -1.1048  1.9670 -1.1921
 1952TIP3    H227416   2.113   4.864   0.995  2.2121  1.0491 -0.8587
 1953TIP3   OH227417   6.745   6.271   8.323 -0.0674 -0.4788  0.0207
 1953TIP3    H127418   6.745   6.180   8.294  0.5338 -0.3794 -0.3174
 1953TIP3    H227419   6.838   6.293   8.331 -0.0794  1.0238 -2.8172
 1954TIP3   OH227420   2.745   2.940   7.825 -1.1046  0.1949 -0.5044
 1954TIP3    H127421   2.677   2.920   7.889 -1.3357  0.6672 -0.5996
 1954TIP3    H227422   2.701   2.990   7.757 -0.8024 -0.0685 -0.9044
 1955TIP3   OH227423   6.024   0.455   1.882  0.0577  0.9426 -0.0512
 1955TIP3    H127424   5.979   0.437   1.799  3.0890 -1.5505 -1.3616
 1955TIP3    H227425   5.979   0.400   1.946 -0.5159  0.6914 -0.6580
 1956TIP3   OH227426   1.054   3.720   7.381 -0.6845  0.2000 -0.0060
 1956TIP3    H127427   1.054   3.645   7.441 -1.3924 -0.5395 -0.8943
 1956TIP3    H227428   0.990   3.780   7.418 -0.4725  0.1436  0.4547
 1957TIP3   OH227429   3.201   5.769   7.874 -0.3430  0.5954 -0.0396
 1957TIP3    H127430   3.211   5.682   7.912 -0.1499  0.0268 -1.3296
 1957TIP3    H227431   3.145   5.817   7.936 -1.3703 -0.7961  0.1368
 1958TIP3   OH227432   4.336   6.876   1.772  0.9135  0.7724 -0.3169
 1958TIP3    H127433   4.409   6.845   1.717  1.1662 -0.5963  0.7471
 1958TIP3    H227434   4.363   6.856   1.861 -1.7044 -1.9798  0.0160
 1959TIP3   OH227435   6.672   6.419   6.744  0.0335 -0.2328 -0.6545
 1959TIP3    H127436   6.736   6.472   6.791  2.3802 -4.3556  1.2649
 1959TIP3    H227437   6.592   6.427   6.795  0.3941  1.1769 -0.2791
 1960TIP3   OH227438   4.141   6.700   0.724  0.0593 -0.4206 -0.0169
 1960TIP3    H127439   4.199   6.663   0.657  0.2140  0.1620 -0.2119
 1960TIP3    H227440   4.105   6.779   0.683 -0.7711 -0.7048  0.1555
 1961TIP3   OH227441   5.852   2.924   1.298  0.0627 -0.2430  0.2533
 1961TIP3    H127442   5.764   2.960   1.286 -0.5136 -0.6338  2.6901
 1961TIP3    H227443   5.881   2.901   1.210 -2.7675 -1.2366 -0.5363
 1962TIP3   OH227444   4.216   2.227   8.662  0.4161 -0.1208 -0.3216
 1962TIP3    H127445   4.262   2.187   8.589  2.4928  3.0332 -0.9226
 1962TIP3    H227446   4.133   2.257   8.625  0.2381 -0.9772 -0.6384
 1963TIP3   OH227447   1.464   5.245   5.851  0.0402 -0.0723  0.1606
 1963TIP3    H127448   1.550   5.248   5.810 -0.0363  0.1585  0.0160
 1963TIP3    H227449   1.480   5.210   5.938  0.4451  1.0787  0.5623
 1964TIP3   OH227450   0.156   3.339   0.375  0.1658 -0.2568  0.0031
 1964TIP3    H127451   0.212   3.293   0.312 -2.1562 -2.2352 -0.7487
 1964TIP3    H227452   0.182   3.431   0.366  1.3249 -0.7247 -2.3552
 1965TIP3   OH227453   1.883   5.856   6.984  0.5604 -0.2713 -0.2130
 1965TIP3    H127454   1.851   5.922   6.923 -0.2132  0.5729  1.0559
 1965TIP3    H227455   1.830   5.778   6.966 -0.6952  0.4226  0.3479
 1966TIP3   OH227456   3.539   0.836   6.049  0.2030  0.5005 -0.2478
 1966TIP3    H127457   3.560   0.752   6.091  0.4008 -0.1919 -1.6803
 1966TIP3    H227458   3.614   0.892   6.068  0.6923 -0.0855 -0.4063
 1967TIP3   OH227459   1.705   0.568   1.005 -0.8440 -0.7406  0.4828
 1967TIP3    H127460   1.788   0.566   0.956 -0.9909 -2.1224  0.2384
 1967TIP3    H227461   1.732   0.574   1.096 -0.4653 -0.9691  0.3927
 1968TIP3   OH227462   5.718   6.788   8.543 -0.0069  0.4164  0.2039
 1968TIP3    H127463   5.653   6.790   8.473 -0.0964  1.1982  0.2978
 1968TIP3    H227464   5.765   6.871   8.535  0.2497  0.3395  0.8145
 1969TIP3   OH227465   6.051   5.339   1.289 -0.3042  0.7766 -0.4827
 1969TIP3    H127466   5.994   5.318   1.215 -2.3561  1.2313  0.8617
 1969TIP3    H227467   5.990   5.369   1.357  1.4747  0.1904  1.4520
 1970TIP3   OH227468   3.596   0.598   1.704 -0.2526 -0.0964 -0.0346
 1970TIP3    H127469   3.665   0.631   1.761  2.0162 -1.5964 -1.7493
 1970TIP3    H227470   3.642   0.561   1.629 -2.9129 -1.5739 -1.0807
 1971TIP3   OH227471   5.807   3.884   1.051  0.0877 -0.8566 -0.7574
 1971TIP3    H127472   5.794   3.874   0.956  0.8442 -0.2201 -0.9401
 1971TIP3    H227473   5.840   3.974   1.061 -2.3376  0.0032  0.3491
 1972TIP3   OH227474   2.506   1.016   7.752 -0.1523 -0.1094  0.4857
 1972TIP3    H127475   2.426   1.069   7.756  0.9673  1.6906  0.3471
 1972TIP3    H227476   2.547   1.030   7.838 -0.0317 -1.1256  0.6031
 1973TIP3   OH227477   6.801   4.922   7.984 -0.3506 -0.7602  0.3520
 1973TIP3    H127478   6.881   4.912   8.036  0.0460 -0.8656 -0.2578
 1973TIP3    H227479   6.781   5.015   7.988  0.4206 -0.5464 -0.3555
 1974TIP3   OH227480   5.668   2.286   0.131 -0.6713  0.0391 -0.1446
 1974TIP3    H127481   5.618   2.206   0.114  0.5327 -0.7613 -0.0522
 1974TIP3    H227482   5.714   2.302   0.049 -2.0337  1.5197 -0.6781
 1975TIP3   OH227483   3.248   4.627   0.582  0.4471  0.4095 -0.3074
 1975TIP3    H127484   3.157   4.624   0.553  0.4144 -1.5249 -0.1836
 1975TIP3    H227485   3.300   4.611   0.503  0.5993  0.2303 -0.1747
 1976TIP3   OH227486   5.121   1.541   2.454  0.6108  0.5169 -0.3417
 1976TIP3    H127487   5.109   1.454   2.494  2.1312  0.3253 -0.2509
 1976TIP3    H227488   5.195   1.530   2.395  1.9381  2.1375  0.9187
 1977TIP3   OH227489   6.617   0.055   1.399  0.4347  0.1919 -0.2800
 1977TIP3    H127490   6.529   0.068   1.366 -0.0972  0.5216  1.1841
 1977TIP3    H227491   6.629   0.126   1.463  0.8574 -1.2123  1.2677
 1978TIP3   OH227492   5.284   2.727   0.199 -0.0830  0.5006  0.2182
 1978TIP3    H127493   5.200   2.738   0.241  0.2215 -0.4736  1.1348
 1978TIP3    H227494   5.263   2.697   0.110 -0.6968 -0.3727  0.6521
 1979TIP3   OH227495   1.328   1.534   0.377 -0.3757  0.2401  0.0885
 1979TIP3    H127496   1.424   1.541   0.377 -0.3125 -0.3136  1.7037
 1979TIP3    H227497   1.312   1.440   0.367 -0.7446  0.3075  0.0681
 1980TIP3   OH227498   3.845   0.806   2.115  0.3556 -0.2367 -0.1155
 1980TIP3    H127499   3.862   0.800   2.209  0.8954 -2.0009 -0.2945
 1980TIP3    H227500   3.785   0.880   2.106 -2.6923 -2.2346  2.0407
 1981TIP3   OH227501   1.676   6.338   7.010  0.6093  0.3481  0.2230
 1981TIP3    H127502   1.583   6.357   7.015  0.8655  1.7956  0.1915
 1981TIP3    H227503   1.686   6.281   6.934 -0.3946 -0.9630  1.0504
 1982TIP3   OH227504   0.205   6.544   7.454  0.2456 -0.1909 -1.2723
 1982TIP3    H127505   0.295   6.510   7.460 -0.2236 -1.1764  1.6530
 1982TIP3    H227506   0.155   6.490   7.514 -1.9315  1.6041 -1.3544
 1983TIP3   OH227507   3.740   0.930   8.453  0.1459  0.1301  0.2403
 1983TIP3    H127508   3.747   0.987   8.530 -2.7543 -0.1120  0.7996
 1983TIP3    H227509   3.795   0.855   8.475  0.1062  0.4846  1.6739
 1984TIP3   OH227510   2.575   2.953   6.851  0.4791 -0.5874 -0.0829
 1984TIP3    H127511   2.621   2.990   6.926  1.6165  0.2517 -1.1653
 1984TIP3    H227512   2.484   2.982   6.862  0.3561 -1.4623  1.5597
 1985TIP3   OH227513   3.591   1.826   6.017  0.4616 -0.1197  0.6232
 1985TIP3    H127514   3.566   1.914   6.044  0.8620  0.0933  0.3171
 1985TIP3    H227515   3.510   1.776   6.019  0.1479  0.3688  0.3766
 1986TIP3   OH227516   1.165   3.418   8.204 -0.0018 -0.2705 -0.1729
 1986TIP3    H127517   1.120   3.472   8.139  0.8915  0.5851 -0.1093
 1986TIP3    H227518   1.095   3.383   8.258 -0.6931 -0.1999 -0.9879
 1987TIP3   OH227519   1.536   0.118   7.977 -0.1783  0.7453  0.4855
 1987TIP3    H127520   1.625   0.083   7.981  0.6735  2.7234  0.0357
 1987TIP3    H227521   1.508   0.102   7.887 -0.6469 -0.6564  0.8577
 1988TIP3   OH227522   6.636   6.308   7.556 -0.2415  0.3907 -0.3575
 1988TIP3    H127523   6.578   6.262   7.495  0.5328 -0.0054 -0.8109
 1988TIP3    H227524   6.614   6.400   7.544 -2.3348  0.1515  1.0917
 1989TIP3   OH227525   5.983   3.140   0.632  0.4940 -0.9075 -0.3196
 1989TIP3    H127526   5.990   3.203   0.703  0.8711 -1.9829  0.6305
 1989TIP3    H227527   6.055   3.079   0.646  0.0316 -1.6672 -1.0864
 1990TIP3   OH227528   0.192   3.959   6.834  0.4359  0.0023 -0.1539
 1990TIP3    H127529   0.098   3.963   6.814  0.5861  1.2170 -0.6851
 1990TIP3    H227530   0.196   3.966   6.929  0.0096  0.5691 -0.1685
 1991TIP3   OH227531   6.747   6.460   1.679 -0.2354  0.0620 -0.3919
 1991TIP3    H127532   6.722   6.515   1.754  0.1196 -0.3225  0.0143
 1991TIP3    H227533   6.749   6.371   1.714  1.2011  0.0193 -0.5262
 1992TIP3   OH227534   5.999   5.675   7.534 -0.2621  0.3636  0.0360
 1992TIP3    H127535   6.066   5.742   7.551 -0.2888  0.0585  1.4010
 1992TIP3    H227536   5.923   5.725   7.505  0.1273  0.8221 -0.2130
 1993TIP3   OH227537   2.411   5.793   0.424  0.1900  0.0016 -0.0050
 1993TIP3    H127538   2.461   5.713   0.409 -0.4622 -0.2616 -0.8909
 1993TIP3    H227539   2.337   5.786   0.363  0.1886  1.3361 -0.1723
 1994TIP3   OH227540   0.138   6.227   2.802 -0.0715  0.1907  0.1149
 1994TIP3    H127541   0.231   6.238   2.820 -0.1464 -0.9557  1.4406
 1994TIP3    H227542   0.134   6.178   2.720  0.3972  2.1827 -1.1657
 1995TIP3   OH227543   5.968   2.787   1.490  0.2077  0.0074 -0.3528
 1995TIP3    H127544   5.941   2.865   1.440 -0.8268 -0.6107 -0.7842
 1995TIP3    H227545   6.061   2.801   1.506 -0.0872  1.6377  0.1266
 1996TIP3   OH227546   2.009   5.934   7.217  0.3376  0.2166  0.1762
 1996TIP3    H127547   1.941   5.914   7.152 -0.6958  1.8758  0.6963
 1996TIP3    H227548   2.015   5.854   7.269 -0.8805 -0.1353 -0.1771
 1997TIP3   OH227549   2.123   1.982   8.525 -0.1030 -0.0279  0.3757
 1997TIP3    H127550   2.112   1.908   8.585 -0.7329  1.3243  1.9792
 1997TIP3    H227551   2.133   2.058   8.581 -1.7851  1.4588 -1.1950
 1998TIP3   OH227552   1.923   0.653   8.390  0.0339 -0.2980  0.3096
 1998TIP3    H127553   2.010   0.649   8.431 -0.1741 -0.0749  0.7852
 1998TIP3    H227554   1.938   0.633   8.298  1.1202  3.0794 -0.4004
 1999TIP3   OH227555   6.576   6.794   0.050 -0.3825 -0.1082  0.1157
 1999TIP3    H127556   6.631   6.819  -0.024  0.5385 -0.7980  0.5432
 1999TIP3    H227557   6.514   6.731   0.014 -0.4499  0.1507 -0.2274
 2000TIP3   OH227558   3.763   6.298   0.925 -0.0919 -0.5791  0.0761
 2000TIP3    H127559   3.798   6.248   0.852  1.7493  0.5566  0.1184
 2000TIP3    H227560   3.670   6.307   0.906  0.3849 -0.0538 -2.2920
 2001TIP3   OH227561   6.533   5.808   1.933  0.8140 -0.5078  0.5168
 2001TIP3    H127562   6.482   5.741   1.977  1.3969 -0.0996  1.8526
 2001TIP3    H227563   6.608   5.761   1.897  1.5713 -0.5127  2.0223
 2002TIP3   OH227564   5.912   6.343   0.199 -0.4121  0.2290  0.9707
 2002TIP3    H127565   5.942   6.391   0.276  0.9934 -2.5726  2.3230
 2002TIP3    H227566   5.828   6.305   0.225 -0.7183  0.5809  0.5132
 2003TIP3   OH227567   6.673   5.131   8.164  0.3483 -0.6236 -0.2114
 2003TIP3    H127568   6.684   5.124   8.259  0.8114  0.7019 -0.1430
 2003TIP3    H227569   6.579   5.142   8.151  0.3749  0.1016  0.1695
 2004TIP3   OH227570   2.203   5.141   7.689  0.1455  0.0428  0.5975
 2004TIP3    H127571   2.198   5.216   7.749 -2.7047 -0.2203  0.8442
 2004TIP3    H227572   2.191   5.065   7.745 -2.4317 -0.2102 -0.1804
 2005TIP3   OH227573   1.156   6.695   8.086  0.2721 -0.0770  0.2465
 2005TIP3    H127574   1.064   6.702   8.060  0.0767  1.5866  1.2305
 2005TIP3    H227575   1.153   6.674   8.179  0.9364 -1.4525 -0.0094
 2006TIP3   OH227576   1.289   2.579   7.865  0.4622 -0.2158 -0.0507
 2006TIP3    H127577   1.194   2.578   7.875  0.4434  0.7134 -0.0803
 2006TIP3    H227578   1.309   2.499   7.816 -0.0815 -1.5319  1.7854
 2007TIP3   OH227579   6.281   3.889   7.542  0.1741  0.0267 -0.3894
 2007TIP3    H127580   6.291   3.864   7.634  0.6918 -0.2807 -0.5244
 2007TIP3    H227581   6.360   3.939   7.522  0.6563 -0.9491 -1.0000
 2008TIP3   OH227582   5.211   5.557   1.024 -0.3890  0.1212  0.0384
 2008TIP3    H127583   5.176   5.563   0.935 -0.6498 -0.7370  0.0751
 2008TIP3    H227584   5.251   5.643   1.040 -1.9607  0.9392 -0.2291
 2009TIP3   OH227585   3.923   6.471   0.614 -0.7535 -0.1606  0.0571
 2009TIP3    H127586   3.873   6.400   0.656  0.1540 -0.9432 -0.1598
 2009TIP3    H227587   4.012   6.460   0.647 -0.7081  1.2386  0.4631
 2010TIP3   OH227588   2.624   0.182   7.777  1.1173 -0.6700  0.0853
 2010TIP3    H127589   2.681   0.239   7.828  0.7455  0.3377 -0.6058
 2010TIP3    H227590   2.657   0.094   7.795  2.1195 -0.2003  0.6510
 2011TIP3   OH227591   1.062   5.062   7.009  0.1352 -0.1128  0.0481
 2011TIP3    H127592   1.145   5.109   7.019  0.1843  0.6609 -2.9483
 2011TIP3    H227593   1.064   5.029   6.919 -2.1405 -1.4546  0.4058
 2012TIP3   OH227594   6.845   0.414   1.345  0.2279 -0.4400  0.4107
 2012TIP3    H127595   6.774   0.412   1.281  1.2113  0.4708 -0.7576
 2012TIP3    H227596   6.800   0.420   1.429 -1.1167  1.6238 -0.3519
 2013TIP3   OH227597   2.769   0.686   2.383  0.6513 -0.0663 -0.2074
 2013TIP3    H127598   2.733   0.610   2.427  0.6114 -0.2354 -0.5253
 2013TIP3    H227599   2.726   0.761   2.424  0.0050 -0.2595 -0.5099
 2014TIP3   OH227600   3.318   0.539   1.722  0.6764 -0.3168  0.1872
 2014TIP3    H127601   3.281   0.598   1.657  1.4767 -0.1741 -0.1513
 2014TIP3    H227602   3.412   0.557   1.720  0.6235  0.3664  2.0418
 2015TIP3   OH227603   2.678   6.223   8.060  0.1330 -0.1786  0.5580
 2015TIP3    H127604   2.730   6.235   7.980 -2.4252 -1.3444 -1.4291
 2015TIP3    H227605   2.597   6.269   8.043 -0.5465 -0.5751  2.4717
 2016TIP3   OH227606   3.591   0.779   7.090 -0.0079 -0.4241 -0.0537
 2016TIP3    H127607   3.684   0.761   7.103 -0.4868 -2.3376  1.1564
 2016TIP3    H227608   3.547   0.696   7.111 -1.9103  0.0320 -1.8552
 2017TIP3   OH227609   4.534   6.459   2.210 -0.3021  0.2996 -0.7876
 2017TIP3    H127610   4.512   6.434   2.299  1.8398 -1.8415 -0.7481
 2017TIP3    H227611   4.514   6.381   2.158  1.4173  0.3550 -1.6182
 2018TIP3   OH227612   1.694   1.739   0.281  0.4734 -0.5423  0.3463
 2018TIP3    H127613   1.773   1.774   0.323  0.5390  1.8982 -1.5652
 2018TIP3    H227614   1.724   1.709   0.196 -0.5193 -0.2661 -0.1147
 2019TIP3   OH227615   3.747   1.917   7.788  0.0302 -0.2587 -0.8050
 2019TIP3    H127616   3.811   1.859   7.746  0.9552  1.3146 -1.6391
 2019TIP3    H227617   3.789   1.944   7.870  0.8957  1.4858 -1.7654
 2020TIP3   OH227618   4.027   3.223   0.782  0.0210  0.1171 -0.2681
 2020TIP3    H127619   4.051   3.301   0.732 -2.0706  0.2155 -1.2478
 2020TIP3    H227620   3.951   3.187   0.735 -0.0913 -1.5674  1.1048
 2021TIP3   OH227621   3.010   6.200   2.214 -0.2433 -0.5056 -0.1627
 2021TIP3    H127622   2.997   6.294   2.222  0.3992 -0.3952 -0.3790
 2021TIP3    H227623   3.086   6.181   2.269 -0.8951 -1.0367  0.5707
 2022TIP3   OH227624   5.625   1.469   8.337 -0.0145  0.0224  0.2737
 2022TIP3    H127625   5.591   1.551   8.374  1.7569  1.2652 -0.6758
 2022TIP3    H227626   5.632   1.486   8.243 -2.4484 -2.3350 -0.4470
 2023TIP3   OH227627   2.056   1.169   6.238  0.3683  0.3104 -0.1300
 2023TIP3    H127628   2.095   1.120   6.165 -0.3426 -0.9666  0.3202
 2023TIP3    H227629   2.054   1.259   6.207 -0.8715 -0.3416 -2.1434
 2024TIP3   OH227630   4.159   3.001   8.536 -0.5650 -0.1670 -0.2399
 2024TIP3    H127631   4.236   3.058   8.535  0.4806 -1.5327  0.1725
 2024TIP3    H227632   4.111   3.025   8.457  0.5783  0.3184 -0.8088
 2025TIP3   OH227633   5.006   5.558   0.123  0.1884 -0.5974 -0.1383
 2025TIP3    H127634   4.931   5.618   0.122  0.9563  0.3656 -0.6438
 2025TIP3    H227635   4.979   5.488   0.183 -0.7353  0.2120  0.4248
 2026TIP3   OH227636   1.469   1.680   7.770  0.2082 -0.3829 -0.1125
 2026TIP3    H127637   1.501   1.596   7.736 -0.8085 -1.8396  2.2047
 2026TIP3    H227638   1.411   1.714   7.702  1.4658 -1.0295 -1.5358
 2027TIP3   OH227639   4.708   3.469   8.671  0.3111  0.5376 -0.3122
 2027TIP3    H127640   4.735   3.403   8.736 -2.1456 -0.0160  0.2651
 2027TIP3    H227641   4.637   3.517   8.715  0.0923  1.6240 -1.8049
 2028TIP3   OH227642   3.693   2.635   1.472  0.2051  0.1668  0.0430
 2028TIP3    H127643   3.637   2.636   1.550 -0.6227 -1.3886 -0.4945
 2028TIP3    H227644   3.685   2.546   1.438  3.3384 -0.2369  0.1238
 2029TIP3   OH227645   6.664   6.874   8.208 -0.1261 -0.0149  0.6602
 2029TIP3    H127646   6.702   6.906   8.126 -1.6592  0.2780  0.0399
 2029TIP3    H227647   6.649   6.781   8.193  0.4761 -0.1649  0.9632
 2030TIP3   OH227648   0.281   3.888   0.253  0.0513  0.2678 -0.1923
 2030TIP3    H127649   0.196   3.889   0.299  0.3955 -1.8364  0.6091
 2030TIP3    H227650   0.335   3.949   0.303  0.0333 -1.0355  1.5269
 2031TIP3   OH227651   2.978   1.793   0.315  0.2633 -0.0957 -0.2440
 2031TIP3    H127652   2.949   1.710   0.355 -0.8494  0.9322  1.2067
 2031TIP3    H227653   3.042   1.828   0.377  0.3374  0.3677 -0.5802
 2032TIP3   OH227654   2.123   5.533   6.657 -0.2309 -0.2989  0.6030
 2032TIP3    H127655   2.086   5.446   6.674  1.7211 -1.1508  0.8764
 2032TIP3    H227656   2.104   5.549   6.565 -0.5849 -1.0383  0.5346
 2033TIP3   OH227657   0.831   1.280   0.241 -0.1641 -1.0585 -0.5044
 2033TIP3    H127658   0.769   1.274   0.314 -0.4990  0.6365 -0.5991
 2033TIP3    H227659   0.808   1.207   0.183 -1.4756 -1.0037 -0.0847
 2034TIP3   OH227660   5.108   6.691   7.307  0.2833  0.4008  0.4817
 2034TIP3    H127661   5.044   6.753   7.273  1.3659  0.6435 -1.2551
 2034TIP3    H227662   5.193   6.730   7.285  0.9979 -1.6947 -0.7631
 2035TIP3   OH227663   1.506   5.443   6.829 -0.3768 -0.2908  0.2035
 2035TIP3    H127664   1.575   5.410   6.886  0.9078  0.0328 -1.0996
 2035TIP3    H227665   1.500   5.536   6.850 -2.9885 -0.9335  2.8502
 2036TIP3   OH227666   3.190   2.200   7.191  0.7483 -0.3625 -0.4733
 2036TIP3    H127667   3.259   2.188   7.125  2.4361  0.5118  1.0360
 2036TIP3    H227668   3.225   2.160   7.270 -1.2598 -1.4378 -0.0583
 2037TIP3   OH227669   3.499   4.555   0.621 -0.0023  0.0763  0.1066
 2037TIP3    H127670   3.550   4.608   0.682  0.0544 -1.5506  1.5469
 2037TIP3    H227671   3.408   4.580   0.638  0.0612  0.1835  0.2850
 2038TIP3   OH227672   1.119   5.613   2.318  0.9692  0.0271 -0.4600
 2038TIP3    H127673   1.033   5.599   2.356  1.1533  0.5431  0.1439
 2038TIP3    H227674   1.137   5.706   2.330  1.2219  0.1119 -1.4074
 2039TIP3   OH227675   3.763   2.776   7.718 -0.6373  0.4110  0.6728
 2039TIP3    H127676   3.760   2.866   7.686  0.2980  0.3063  0.2528
 2039TIP3    H227677   3.733   2.781   7.809  0.4772  1.3161  1.0108
 2040TIP3   OH227678   0.426   5.662   6.719 -0.1118 -0.2939  0.1997
 2040TIP3    H127679   0.346   5.678   6.768 -0.8456 -1.7657 -0.4562
 2040TIP3    H227680   0.396   5.626   6.636  1.1117  1.6495 -1.1854
 2041TIP3   OH227681   2.992   1.922   6.129 -0.3148  0.0912  0.6143
 2041TIP3    H127682   2.971   1.961   6.214  0.4535  0.0765  0.8161
 2041TIP3    H227683   3.076   1.879   6.143  0.6789  1.5536 -0.6076
 2042TIP3   OH227684   2.849   6.161   7.041 -0.1992 -0.4005  0.1314
 2042TIP3    H127685   2.882   6.213   6.968  0.2047  0.2528  0.7578
 2042TIP3    H227686   2.879   6.072   7.023 -0.3947 -0.3128 -0.6614
 2043TIP3   OH227687   0.359   2.913   1.301  0.1482  0.0487 -0.3014
 2043TIP3    H127688   0.374   2.915   1.395 -0.7808 -1.3538 -0.0991
 2043TIP3    H227689   0.349   2.821   1.280 -1.4917  0.4381 -1.4654
 2044TIP3   OH227690   0.605   4.312   1.737 -1.1151 -0.3574  1.0284
 2044TIP3    H127691   0.579   4.401   1.759 -2.2278 -0.2926 -0.3924
 2044TIP3    H227692   0.581   4.302   1.645  1.6057 -1.1902  0.3185
 2045TIP3   OH227693   2.560   4.568   1.274 -0.0648 -0.1019 -0.2097
 2045TIP3    H127694   2.640   4.593   1.320 -0.2254  1.5289 -0.7634
 2045TIP3    H227695   2.585   4.568   1.181  0.1178 -2.8330 -0.2583
 2046TIP3   OH227696   4.098   2.002   1.407 -0.5495 -0.3655  0.2167
 2046TIP3    H127697   4.109   2.055   1.328  0.4393  0.8468  1.1433
 2046TIP3    H227698   4.174   1.944   1.408 -0.7938 -0.6985  0.0707
 2047TIP3   OH227699   6.390   1.372   8.198 -0.3060  0.4446 -0.3869
 2047TIP3    H127700   6.397   1.403   8.289  0.1635  1.0644 -0.6244
 2047TIP3    H227701   6.464   1.312   8.188 -1.3321 -0.9545  0.1350
 2048TIP3   OH227702   5.858   3.817   1.925  0.1645 -0.2986  0.2062
 2048TIP3    H127703   5.938   3.790   1.971  0.4504  1.7582  1.0222
 2048TIP3    H227704   5.888   3.875   1.855 -0.4171 -2.0432 -1.5919
 2049TIP3   OH227705   2.337   2.941   8.169 -0.3066 -0.5417 -0.0360
 2049TIP3    H127706   2.305   2.860   8.208 -2.2940  0.0715 -0.2391
 2049TIP3    H227707   2.257   2.991   8.149  0.8249  1.2578 -0.3562
 2050TIP3   OH227708   4.802   3.107   0.173 -0.0056 -0.3143 -0.2726
 2050TIP3    H127709   4.801   3.180   0.236  0.1469 -0.0356 -0.5899
 2050TIP3    H227710   4.834   3.032   0.223 -0.0887 -0.1439  0.0365
 2051TIP3   OH227711   3.819   1.799   6.224 -0.1524  0.3287 -0.0329
 2051TIP3    H127712   3.884   1.869   6.226 -0.6158  0.7585  0.4339
 2051TIP3    H227713   3.746   1.835   6.174 -0.9445  0.7024  1.3137
 2052TIP3   OH227714   4.684   2.695   0.175  0.1143 -0.0847 -0.4079
 2052TIP3    H127715   4.679   2.700   0.270 -0.2628  1.2794 -0.4805
 2052TIP3    H227716   4.605   2.740   0.144  1.0365  0.9478 -1.3603
 2053TIP3   OH227717   0.407   6.010   2.221  0.3000 -0.2017  0.3682
 2053TIP3    H127718   0.334   5.981   2.276 -0.7277 -1.4034 -1.5201
 2053TIP3    H227719   0.425   5.935   2.165  1.6170  0.8135 -0.6087
 2054TIP3   OH227720   1.677   2.543   0.333  0.5086  0.2556 -0.2320
 2054TIP3    H127721   1.734   2.477   0.373 -0.1429  0.6866  1.5122
 2054TIP3    H227722   1.604   2.551   0.394  0.2670  2.1565 -0.7081
 2055TIP3   OH227723   3.708   4.021   0.270  0.1242  0.1607  0.3364
 2055TIP3    H127724   3.804   4.025   0.272  0.0867  0.6815  0.9895
 2055TIP3    H227725   3.686   3.939   0.315  0.2627 -0.0417  0.0413
 2056TIP3   OH227726   0.866   6.856   0.701  0.3015  0.1037 -0.2403
 2056TIP3    H127727   0.928   6.923   0.729 -0.4299 -0.0045  1.8385
 2056TIP3    H227728   0.871   6.789   0.769  0.6636 -1.7838 -2.0085
 2057TIP3   OH227729   5.301   3.826   8.300  0.0173  0.2266  0.1737
 2057TIP3    H127730   5.304   3.771   8.378  0.7186 -0.0856 -0.0626
 2057TIP3    H227731   5.367   3.894   8.316 -1.7062  1.7859  1.0142
 2058TIP3   OH227732   4.693   5.178   0.098 -0.2758 -0.5117  0.1543
 2058TIP3    H127733   4.643   5.241   0.150  0.0510 -0.0158 -0.1299
 2058TIP3    H227734   4.716   5.108   0.160 -1.7401 -0.9960  0.1823
 2059TIP3   OH227735   3.355   4.154   0.502 -0.7626  0.2247  0.2426
 2059TIP3    H127736   3.408   4.130   0.578 -0.3087 -1.2748 -0.5089
 2059TIP3    H227737   3.416   4.201   0.444 -0.9508  0.8313  0.5331
 2060TIP3   OH227738   0.411   2.894   7.793 -0.1590 -0.1333 -0.1036
 2060TIP3    H127739   0.462   2.967   7.828 -0.4676 -0.2375  0.5929
 2060TIP3    H227740   0.441   2.884   7.703 -0.0839  0.8246 -0.1897
 2061TIP3   OH227741   6.800   6.595   0.348  0.0651 -0.1639 -0.2528
 2061TIP3    H127742   6.778   6.592   0.255 -0.1713 -0.2906 -0.1949
 2061TIP3    H227743   6.875   6.653   0.353  0.1549 -0.2514 -0.5392
 2062TIP3   OH227744   2.338   6.599   7.648 -0.1418 -0.0883  0.2556
 2062TIP3    H127745   2.421   6.585   7.603 -0.0803  0.6578  0.1215
 2062TIP3    H227746   2.351   6.563   7.736 -0.3794 -1.8686 -0.4097
 2063TIP3   OH227747   1.252   6.210   0.079  0.3595 -0.2782  0.7256
 2063TIP3    H127748   1.164   6.225   0.047  0.4999 -1.5958 -0.3638
 2063TIP3    H227749   1.243   6.137   0.141  0.5015  0.4536  1.6302
 2064TIP3   OH227750   6.218   4.783   7.206 -0.1710  0.3185 -0.5108
 2064TIP3    H127751   6.276   4.859   7.204  0.0740  0.1204 -1.7763
 2064TIP3    H227752   6.130   4.819   7.204 -0.2346  0.6910  2.9276
 2065TIP3   OH227753   3.306   2.204   1.433  0.4979  0.1744 -0.0396
 2065TIP3    H127754   3.343   2.116   1.426  0.1882 -0.0011  0.4295
 2065TIP3    H227755   3.283   2.228   1.343 -0.9721 -0.9238  0.0078
 2066TIP3   OH227756   2.172   6.476   7.492 -0.2050 -0.2691  0.0775
 2066TIP3    H127757   2.082   6.504   7.505  0.5170  2.1392  0.4539
 2066TIP3    H227758   2.224   6.542   7.537  1.7356 -2.3485  1.1117
 2067TIP3   OH227759   2.791   4.663   1.400 -0.5992 -0.2514 -0.8445
 2067TIP3    H127760   2.876   4.657   1.357  0.0715 -0.2294  0.4252
 2067TIP3    H227761   2.791   4.751   1.438 -0.3776 -0.9180  0.7559
 2068TIP3   OH227762   0.427   6.130   7.537  0.4482  0.2638 -0.1004
 2068TIP3    H127763   0.359   6.129   7.469  1.1417 -1.3985 -0.8271
 2068TIP3    H227764   0.491   6.193   7.506  0.0133  0.6543 -0.2144
 2069TIP3   OH227765   2.915   3.879   0.905  0.7320 -0.5233  0.0056
 2069TIP3    H127766   2.884   3.969   0.899  2.1365 -0.0525 -0.6162
 2069TIP3    H227767   2.836   3.826   0.893  0.2448  0.6101 -2.7073
 2070TIP3   OH227768   1.137   2.670   1.364  0.0236 -0.3062  0.3427
 2070TIP3    H127769   1.102   2.757   1.343  1.4172  0.7433  2.0398
 2070TIP3    H227770   1.077   2.636   1.431 -0.4893 -0.6471 -0.2802
 2071TIP3   OH227771   5.665   1.383   7.412  0.3512  0.1926  0.2364
 2071TIP3    H127772   5.675   1.354   7.502 -1.4318  0.0337  0.4090
 2071TIP3    H227773   5.617   1.465   7.417  1.8065  1.1405 -0.4943
 2072TIP3   OH227774   0.721   6.483   1.945 -0.4917  0.0112 -0.2078
 2072TIP3    H127775   0.782   6.555   1.929  0.2243 -0.4417  0.4186
 2072TIP3    H227776   0.673   6.474   1.863  0.3367  0.3334 -0.7448
 2073TIP3   OH227777   5.103   1.481   6.318  0.0124  0.0263 -0.2241
 2073TIP3    H127778   5.068   1.561   6.280  0.5805  0.1787 -0.4403
 2073TIP3    H227779   5.033   1.416   6.309 -0.0575  0.2071 -1.0295
 2074TIP3   OH227780   2.807   6.806   7.244  0.4921 -0.3577  0.1201
 2074TIP3    H127781   2.896   6.810   7.209 -0.0828  0.8118 -1.2831
 2074TIP3    H227782   2.760   6.877   7.201 -0.5956  0.4539  2.4347
 2075TIP3   OH227783   3.727   2.883   1.994 -0.3898  0.2177 -0.2980
 2075TIP3    H127784   3.707   2.971   2.025  2.7135 -0.2872  4.0883
 2075TIP3    H227785   3.645   2.835   2.005 -1.4267  1.9121 -0.1828
 2076TIP3   OH227786   2.006   1.427   7.742 -0.0791 -0.7160  0.4392
 2076TIP3    H127787   1.944   1.363   7.705 -0.4590 -1.6491  2.5256
 2076TIP3    H227788   1.984   1.509   7.699  0.1636 -1.8541 -2.0622
 2077TIP3   OH227789   0.358   6.835   2.609  0.3261  0.5537  0.0655
 2077TIP3    H127790   0.305   6.778   2.552 -0.2991 -1.3474  2.4008
 2077TIP3    H227791   0.375   6.782   2.687  3.0474  2.2511  0.7620
 2078TIP3   OH227792   0.132   2.741   8.099  0.6460  0.1887  0.2860
 2078TIP3    H127793   0.128   2.699   8.013 -1.5975 -2.2579  1.4341
 2078TIP3    H227794   0.177   2.678   8.155  0.3722  0.8770  1.3150
 2079TIP3   OH227795   4.633   4.269   6.953 -0.3762  0.3862  0.1390
 2079TIP3    H127796   4.690   4.231   6.885  1.8476  0.5021  1.8385
 2079TIP3    H227797   4.605   4.193   7.005 -0.8587  0.4615 -0.0058
 2080TIP3   OH227798   4.887   2.903   7.795  0.2969 -0.2098 -0.3125
 2080TIP3    H127799   4.935   2.980   7.825  0.3577 -0.3785  0.0329
 2080TIP3    H227800   4.911   2.894   7.703  2.3776 -1.3070  0.2543
 2081TIP3   OH227801   2.393   6.762   1.602 -0.7250 -0.3138 -0.1976
 2081TIP3    H127802   2.334   6.691   1.626 -1.1626  0.4231  1.0080
 2081TIP3    H227803   2.387   6.767   1.506  0.0339 -2.4711 -0.4002
 2082TIP3   OH227804   4.083   3.345   1.360 -0.0973 -0.2036  0.1434
 2082TIP3    H127805   4.121   3.433   1.372 -1.2469  0.1556  1.4510
 2082TIP3    H227806   4.049   3.346   1.271  0.1501  0.6023  0.0447
 2083TIP3   OH227807   6.715   0.063   0.393  0.5083  0.4183  0.1285
 2083TIP3    H127808   6.730   0.013   0.473  0.4864 -1.7893 -1.1814
 2083TIP3    H227809   6.641   0.120   0.415  2.1835  1.8653  2.4737
 2084TIP3   OH227810   5.334   5.419   6.833  0.6442  0.2787 -0.4871
 2084TIP3    H127811   5.362   5.454   6.748 -1.4302  0.4573 -1.1403
 2084TIP3    H227812   5.356   5.326   6.828  1.9033  0.5604 -0.5922
 2085TIP3   OH227813   1.751   5.926   0.821 -0.3211 -0.5576 -0.3108
 2085TIP3    H127814   1.791   5.956   0.739 -1.4626 -0.7478 -0.9644
 2085TIP3    H227815   1.658   5.917   0.800 -0.6010 -0.8124  0.9593
 2086TIP3   OH227816   1.608   6.167   1.928  0.6579  1.0494  0.2756
 2086TIP3    H127817   1.701   6.177   1.907  0.6988 -0.8541 -0.6659
 2086TIP3    H227818   1.566   6.243   1.889  1.5401  0.7163 -1.3905
 2087TIP3   OH227819   5.144   6.391   7.283 -0.0248  0.4681  0.1100
 2087TIP3    H127820   5.126   6.451   7.355 -1.1218  0.0944  0.1571
 2087TIP3    H227821   5.198   6.443   7.223 -1.6172  1.7990 -0.2421
 2088TIP3   OH227822   3.949   3.816   7.756 -0.0603  0.1591 -0.0594
 2088TIP3    H127823   3.915   3.903   7.776 -1.3855 -0.5173  0.7640
 2088TIP3    H227824   4.027   3.832   7.703 -0.3526  1.8339 -0.0253
 2089TIP3   OH227825   0.752   6.849   1.687 -0.2739  0.1848  0.4840
 2089TIP3    H127826   0.753   6.945   1.696 -0.0512  0.2018  0.3000
 2089TIP3    H227827   0.675   6.831   1.632 -1.0651  0.1536  1.5774
 2090TIP3   OH227828   1.607   0.878   6.357 -0.8898  0.6043 -0.2471
 2090TIP3    H127829   1.680   0.933   6.330 -0.3052  1.2854  2.4249
 2090TIP3    H227830   1.529   0.933   6.347 -0.2806  2.1956  2.7053
 2091TIP3   OH227831   1.236   3.051   7.777 -0.5837 -0.1705  0.3865
 2091TIP3    H127832   1.157   3.022   7.822  0.0683 -0.7032  1.2098
 2091TIP3    H227833   1.279   2.970   7.749  0.1065  0.0774  0.7148
 2092TIP3   OH227834   6.760   4.185   7.543 -0.5210 -0.0999  0.2132
 2092TIP3    H127835   6.766   4.213   7.452  0.5486  0.8765  0.5595
 2092TIP3    H227836   6.712   4.256   7.586  1.6515  0.9802  0.9777
 2093TIP3   OH227837   0.564   5.792   8.567 -0.1732  0.3642  0.8256
 2093TIP3    H127838   0.607   5.715   8.605 -0.0534  0.2461  0.4561
 2093TIP3    H227839   0.470   5.771   8.572 -0.1066 -0.2004 -0.0956
 2094TIP3   OH227840   5.778   6.669   7.471 -0.1840 -0.2219 -0.4541
 2094TIP3    H127841   5.810   6.746   7.518 -1.5122  0.2004 -0.1988
 2094TIP3    H227842   5.788   6.691   7.378  0.6176 -0.2670 -0.3847
 2095TIP3   OH227843   1.176   6.859   7.217 -0.1091  0.4731 -0.2747
 2095TIP3    H127844   1.253   6.817   7.177 -0.4536 -0.3247 -0.1355
 2095TIP3    H227845   1.107   6.849   7.152 -0.8399 -1.3779  0.6867
 2096TIP3   OH227846   0.274   0.911   0.869  0.1030  0.4072  0.3108
 2096TIP3    H127847   0.343   0.849   0.845 -0.6948 -0.5618  0.4809
 2096TIP3    H227848   0.306   0.953   0.948  0.8610  0.5591 -0.0673
 2097TIP3   OH227849   5.031   1.714   0.522  0.3140  0.3890  0.2403
 2097TIP3    H127850   5.057   1.725   0.613  0.6602 -0.6075  0.2741
 2097TIP3    H227851   4.950   1.663   0.526  0.1438  0.6415  0.0079
 2098TIP3   OH227852   5.966   5.952   0.841 -0.0787 -0.4256  0.0860
 2098TIP3    H127853   5.929   5.891   0.777  1.9198 -0.4577 -1.1317
 2098TIP3    H227854   5.963   5.904   0.924 -0.4162 -1.3821 -0.4585
 2099TIP3   OH227855   0.631   3.796   7.916  0.8961 -0.2210 -0.2687
 2099TIP3    H127856   0.597   3.840   7.994  1.2800  2.0162 -1.3001
 2099TIP3    H227857   0.560   3.801   7.852  1.3639 -0.0580 -0.7843
 2100TIP3   OH227858   4.418   1.788   2.053 -0.0799  1.0540 -0.3700
 2100TIP3    H127859   4.386   1.878   2.054 -0.7776  0.8141 -0.7540
 2100TIP3    H227860   4.386   1.749   2.134 -1.3156  0.6358 -1.0333
 2101TIP3   OH227861   1.263   0.062   0.763  0.1115  0.5147 -0.0604
 2101TIP3    H127862   1.216   0.096   0.687 -1.5165 -1.3565  0.0244
 2101TIP3    H227863   1.225   0.108   0.837  0.9676  1.5898 -0.2726
 2102TIP3   OH227864   2.975   5.114   1.133 -0.2282  0.1583  0.4219
 2102TIP3    H127865   2.894   5.093   1.179 -0.7109  0.0160 -0.4699
 2102TIP3    H227866   2.963   5.204   1.102 -0.9435 -0.5235 -1.4824
 2103TIP3   OH227867   2.535   1.439   6.524  0.2784 -0.0528  0.5284
 2103TIP3    H127868   2.588   1.359   6.526 -0.9318 -0.8850  1.6756
 2103TIP3    H227869   2.458   1.415   6.472  0.7952  1.0174 -0.7923
 2104TIP3   OH227870   0.608   2.231   6.508 -0.0723 -0.2422  0.0373
 2104TIP3    H127871   0.576   2.316   6.477  0.1048  0.3721  1.4350
 2104TIP3    H227872   0.683   2.253   6.563  0.5601 -1.3916 -0.3386
 2105TIP3   OH227873   1.187   2.054   8.169 -0.1052  0.4275  0.4124
 2105TIP3    H127874   1.233   2.108   8.105  0.4976 -0.2777  0.2346
 2105TIP3    H227875   1.160   1.977   8.120 -0.4229  0.2920  0.8016
 2106TIP3   OH227876   6.721   1.041   0.460 -0.5678  0.1261 -0.6531
 2106TIP3    H127877   6.730   0.948   0.479  0.6227  0.2686 -0.4400
 2106TIP3    H227878   6.754   1.051   0.371 -0.6342  0.3555 -0.6548
 2107TIP3   OH227879   3.163   6.362   7.718  0.4264  0.1496 -0.2741
 2107TIP3    H127880   3.131   6.335   7.804  0.9492  1.6132  0.4111
 2107TIP3    H227881   3.138   6.290   7.660 -2.1889  0.2307  0.5995
 2108TIP3   OH227882   1.883   1.301   7.351  0.3437  0.1635  0.0718
 2108TIP3    H127883   1.965   1.293   7.398  0.9000 -0.1614 -0.9179
 2108TIP3    H227884   1.820   1.334   7.416  0.9398 -0.7882  1.1630
 2109TIP3   OH227885   6.844   1.697   1.453 -0.1607  0.7072 -0.1726
 2109TIP3    H127886   6.808   1.681   1.541 -1.4315 -1.7940 -1.0710
 2109TIP3    H227887   6.795   1.772   1.420  0.3838  1.7299  1.2340
 2110TIP3   OH227888   6.018   1.227   7.374 -0.3409 -0.3441 -0.3768
 2110TIP3    H127889   6.047   1.318   7.373 -1.1096 -0.0825 -0.1063
 2110TIP3    H227890   6.020   1.203   7.467 -0.4954 -0.4827 -0.4097
 2111TIP3   OH227891   4.810   1.411   8.474  0.1170 -0.2248  0.5024
 2111TIP3    H127892   4.754   1.359   8.531  0.6300 -1.9890 -0.5264
 2111TIP3    H227893   4.764   1.495   8.465 -3.0615 -1.9537 -1.2720
 2112TIP3   OH227894   5.199   0.991   1.704 -0.3478  0.2147  0.5436
 2112TIP3    H127895   5.159   0.927   1.762  1.6953  0.5584  2.4515
 2112TIP3    H227896   5.155   1.074   1.724  1.5595  0.7396  3.1334
 2113TIP3   OH227897   4.750   2.985   6.790  0.1140  0.0327  0.6131
 2113TIP3    H127898   4.741   2.993   6.885 -0.6933 -0.9268  0.6396
 2113TIP3    H227899   4.775   3.072   6.760 -0.6901  0.6105  1.5886
 2114TIP3   OH227900   4.318   0.706   2.589  0.5728  0.1658  0.3093
 2114TIP3    H127901   4.371   0.634   2.556  0.6485 -0.7177  2.2190
 2114TIP3    H227902   4.237   0.664   2.618  0.9772  0.6743  2.2891
 2115TIP3   OH227903   5.696   6.142   0.963 -0.2946  0.1131 -0.1555
 2115TIP3    H127904   5.725   6.227   0.930 -0.9673  0.9569  1.3215
 2115TIP3    H227905   5.689   6.087   0.886  0.2631  1.3757 -1.1336
 2116TIP3   OH227906   5.125   3.956   1.284 -0.2482 -0.4945 -0.2494
 2116TIP3    H127907   5.217   3.932   1.272 -0.8102 -2.2346 -1.5181
 2116TIP3    H227908   5.097   3.908   1.362 -0.0089  0.3551  0.3781
 2117TIP3   OH227909   4.295   6.551   1.995  0.3412  0.7254  0.1636
 2117TIP3    H127910   4.269   6.493   2.066 -0.9425 -0.1652 -0.9964
 2117TIP3    H227911   4.303   6.637   2.037  1.6339 -0.1114  1.7817
 2118TIP3   OH227912   3.886   0.490   2.500 -0.4277 -0.1801 -0.3376
 2118TIP3    H127913   3.790   0.485   2.498 -0.4147 -1.7912  0.6591
 2118TIP3    H227914   3.913   0.408   2.542  1.2779  1.3410  1.7520
 2119TIP3   OH227915   3.581   1.280   6.984  0.2387  0.4201  0.7719
 2119TIP3    H127916   3.525   1.355   6.964 -0.2293 -0.0925  0.1496
 2119TIP3    H227917   3.662   1.296   6.936  1.5097  2.2144  3.2975
 2120TIP3   OH227918   4.811   4.903   8.266  0.1643  0.3297 -0.0996
 2120TIP3    H127919   4.727   4.948   8.257 -0.1133 -0.3204 -0.8769
 2120TIP3    H227920   4.841   4.925   8.354 -0.7012  0.7739  0.0922
 2121TIP3   OH227921   2.221   0.472   0.908 -0.0663  0.1242 -0.3332
 2121TIP3    H127922   2.129   0.473   0.882 -0.1169 -2.2861 -0.4263
 2121TIP3    H227923   2.219   0.457   1.002  0.2522  0.9159 -0.1885
 2122TIP3   OH227924   6.513   4.771   7.465 -0.0464 -0.0453 -0.2458
 2122TIP3    H127925   6.600   4.760   7.426  0.4552 -0.1677  0.8806
 2122TIP3    H227926   6.504   4.865   7.477 -0.7044  0.1098 -1.7364
 2123TIP3   OH227927   0.790   3.506   7.402  0.2926  0.6744  0.4901
 2123TIP3    H127928   0.800   3.472   7.313 -1.7181  0.4265  0.3161
 2123TIP3    H227929   0.741   3.588   7.390  2.6189  2.2440  1.1491
 2124TIP3   OH227930   1.937   4.295   7.930 -0.6334  0.3559  0.6422
 2124TIP3    H127931   1.893   4.295   7.845 -0.6067  0.0570  0.6288
 2124TIP3    H227932   2.012   4.236   7.919  1.4572  2.9894 -0.2010
 2125TIP3   OH227933   6.447   0.910   2.217 -0.0576  0.1070 -0.1342
 2125TIP3    H127934   6.491   0.853   2.153  0.7405  0.4282  0.1121
 2125TIP3    H227935   6.465   0.869   2.301  2.1756  1.6677  0.2628
 2126TIP3   OH227936   0.858   2.082   1.117 -0.2059 -0.1989 -0.2519
 2126TIP3    H127937   0.851   2.167   1.072  1.4538  0.4553  0.6176
 2126TIP3    H227938   0.789   2.085   1.183  0.2086  0.7522  0.1609
 2127TIP3   OH227939   5.027   2.995   0.576  0.2980 -0.1542  0.0223
 2127TIP3    H127940   5.055   2.930   0.640 -0.0368 -0.7537 -0.4247
 2127TIP3    H227941   5.036   3.079   0.621  0.1961 -0.5519  0.8034
 2128TIP3   OH227942   2.361   3.995   7.502  0.0526 -0.1032  0.0242
 2128TIP3    H127943   2.387   4.086   7.516 -2.7123  0.9083 -0.8912
 2128TIP3    H227944   2.284   3.983   7.557 -1.2101 -1.0392 -1.8632
 2129TIP3   OH227945   3.324   3.814   1.762  0.4455 -0.1148  0.4514
 2129TIP3    H127946   3.332   3.725   1.728  0.2032 -0.2808  0.8292
 2129TIP3    H227947   3.234   3.821   1.792  0.2336  0.5219 -0.3132
 2130TIP3   OH227948   2.369   6.183   7.228 -0.1227  0.1734 -0.0109
 2130TIP3    H127949   2.453   6.192   7.183  0.4098  0.0170  0.9060
 2130TIP3    H227950   2.321   6.263   7.206  0.3001  0.2995 -0.4904
 2131TIP3   OH227951   3.943   2.343   6.246 -0.1707 -0.2009 -0.1725
 2131TIP3    H127952   3.998   2.422   6.245  0.3006 -0.4962  0.8035
 2131TIP3    H227953   3.976   2.293   6.321  0.5133 -2.0287 -1.6285
 2132TIP3   OH227954   5.745   6.487   8.623  0.0066 -0.5963 -0.8596
 2132TIP3    H127955   5.707   6.491   8.711  0.7023 -0.0033 -0.5769
 2132TIP3    H227956   5.710   6.565   8.579 -0.8205 -1.2094 -1.3201
 2133TIP3   OH227957   3.146   1.649   8.044  0.0859  0.1613  0.1135
 2133TIP3    H127958   3.212   1.717   8.028 -0.2860  0.1189 -1.7445
 2133TIP3    H227959   3.195   1.567   8.042  0.1508  0.2061 -0.1963
 2134TIP3   OH227960   1.885   6.859   6.161 -0.6414 -0.1322 -0.0925
 2134TIP3    H127961   1.961   6.884   6.212 -1.0754  0.9383  0.0590
 2134TIP3    H227962   1.910   6.777   6.118  1.1100  0.8885 -1.1439
 2135TIP3   OH227963   2.191   6.322   1.853  0.2313  0.4351 -0.0963
 2135TIP3    H127964   2.197   6.292   1.762 -0.4874  0.6378 -0.2164
 2135TIP3    H227965   2.107   6.290   1.883  1.8521 -2.6376  1.6356
 2136TIP3   OH227966   1.008   2.988   2.473 -0.7309  0.3167 -0.4415
 2136TIP3    H127967   0.958   2.993   2.392 -0.2766 -0.7695 -0.7975
 2136TIP3    H227968   1.093   2.953   2.448 -0.3323  0.6367  0.4016
 2137TIP3   OH227969   1.885   2.900   2.035 -0.1341 -0.4376  0.3999
 2137TIP3    H127970   1.944   2.904   2.110  0.7677  2.7727 -0.3150
 2137TIP3    H227971   1.828   2.977   2.045 -1.0984 -0.8737 -1.3157
 2138TIP3   OH227972   3.927   0.317   0.028 -0.3476  0.4252 -0.1779
 2138TIP3    H127973   3.946   0.255  -0.042 -1.5035  1.6626 -1.6338
 2138TIP3    H227974   3.960   0.274   0.107 -0.8940 -1.9413 -1.1556
 2139TIP3   OH227975   2.224   5.776   0.203 -0.0663 -0.6681  0.3490
 2139TIP3    H127976   2.221   5.858   0.153 -1.5763 -1.2469 -0.5775
 2139TIP3    H227977   2.262   5.713   0.143  0.4429 -0.8238  0.8234
 2140TIP3   OH227978   1.614   5.685   7.969 -0.1155 -0.5306 -0.2867
 2140TIP3    H127979   1.635   5.778   7.970  0.1624 -0.5943 -0.2483
 2140TIP3    H227980   1.522   5.682   7.942  0.1966 -0.3093 -1.4097
 2141TIP3   OH227981   3.228   1.080   1.583 -0.3154  0.0145 -0.5718
 2141TIP3    H127982   3.233   1.167   1.624  1.9956  0.3117 -1.3228
 2141TIP3    H227983   3.243   1.097   1.490  0.9862 -1.2463 -0.6185
 2142TIP3   OH227984   1.372   4.695   7.847 -0.1983 -0.4165 -0.4473
 2142TIP3    H127985   1.468   4.695   7.841 -0.2123  0.5048 -0.9232
 2142TIP3    H227986   1.352   4.637   7.921  0.7599 -0.0297  0.1315
 2143TIP3   OH227987   0.941   4.378   0.941  0.1434 -0.1840  0.0098
 2143TIP3    H127988   0.971   4.290   0.919 -1.1721 -0.2465 -1.8070
 2143TIP3    H227989   1.005   4.437   0.902 -0.2201 -0.3363 -0.8310
 2144TIP3   OH227990   4.114   6.618   1.780  0.6089  0.5030 -0.2950
 2144TIP3    H127991   4.161   6.622   1.864 -1.6223 -2.6154  1.3139
 2144TIP3    H227992   4.068   6.701   1.774  1.4684  1.1218  1.1530
 2145TIP3   OH227993   2.292   4.986   1.577  0.1481 -0.1919  0.3182
 2145TIP3    H127994   2.319   5.061   1.525 -0.6252 -0.3034 -0.2603
 2145TIP3    H227995   2.251   4.927   1.514  0.6546 -1.0566  0.7809
 2146TIP3   OH227996   1.371   5.651   0.822 -0.0214 -0.2612  0.7270
 2146TIP3    H127997   1.428   5.601   0.764  1.7183  0.2257  1.9295
 2146TIP3    H227998   1.403   5.631   0.910 -1.0317  0.8692  1.3909
 2147TIP3   OH227999   2.253   3.538   8.567  0.3178  0.1263 -0.4282
 2147TIP3    H128000   2.262   3.443   8.563 -1.0873 -0.0762  0.5786
 2147TIP3    H228001   2.276   3.568   8.479  0.5526 -1.1564 -0.8238
 2148TIP3   OH228002   2.667   6.722   7.463 -0.0959  0.4643 -0.6627
 2148TIP3    H128003   2.728   6.755   7.397 -1.2238 -1.0591 -2.5667
 2148TIP3    H228004   2.678   6.627   7.461 -1.7718  0.2318 -0.3161
 2149TIP3   OH228005   1.707   5.296   2.388  1.1600 -0.1964 -0.2745
 2149TIP3    H128006   1.729   5.327   2.476  0.5345 -1.2128  0.2510
 2149TIP3    H228007   1.722   5.202   2.391 -1.3024 -0.6546 -0.4675
 2150TIP3   OH228008   1.158   4.711   6.975  0.7665 -0.1374 -0.2440
 2150TIP3    H128009   1.083   4.683   6.922  0.0409  0.6258  0.3360
 2150TIP3    H228010   1.202   4.778   6.922 -0.0669  0.7619  0.1644
 2151TIP3   OH228011   4.527   3.462   7.503 -0.5224  0.0091 -0.9154
 2151TIP3    H128012   4.465   3.388   7.503  0.1370 -0.5562 -1.5432
 2151TIP3    H228013   4.484   3.529   7.450 -0.7720 -0.2213 -1.0085
 2152TIP3   OH228014   4.473   4.725   8.246 -0.2310 -0.1579 -0.0061
 2152TIP3    H128015   4.478   4.802   8.302 -3.4435 -0.6698  1.2105
 2152TIP3    H228016   4.516   4.656   8.296 -0.7723 -0.0049  0.6907
 2153TIP3   OH228017   6.179   3.970   7.299 -0.3617  0.6872  0.1911
 2153TIP3    H128018   6.202   3.899   7.239 -0.4678  0.7915  0.0279
 2153TIP3    H228019   6.202   3.936   7.386 -0.5225  0.4102  0.1257
 2154TIP3   OH228020   2.331   1.991   7.127  0.1779  0.1104 -0.7615
 2154TIP3    H128021   2.392   1.920   7.106  0.9125  0.3214  0.5400
 2154TIP3    H228022   2.261   1.983   7.061  0.9258 -0.9680 -1.4608
 2155TIP3   OH228023   5.626   4.877   8.173 -0.4037 -0.4107 -0.3752
 2155TIP3    H128024   5.590   4.790   8.193  0.0268 -1.2279 -2.8338
 2155TIP3    H228025   5.720   4.869   8.192 -0.5381 -0.1182  0.4454
 2156TIP3   OH228026   4.761   0.559   6.579 -0.0211  0.1545  0.2445
 2156TIP3    H128027   4.831   0.607   6.534  0.3415  0.1879  0.8289
 2156TIP3    H228028   4.772   0.468   6.552 -0.1016  0.2509 -0.1074
 2157TIP3   OH228029   5.035   4.717   7.960  0.9495 -0.5514 -0.2915
 2157TIP3    H128030   5.085   4.738   7.881 -0.1511 -1.9776 -1.4197
 2157TIP3    H228031   5.031   4.621   7.962  1.1343 -0.5598  1.6359
 2158TIP3   OH228032   4.074   4.845   2.662  0.1363 -0.2726 -0.7382
 2158TIP3    H128033   4.102   4.756   2.682 -0.2842 -0.3320 -0.3869
 2158TIP3    H228034   4.146   4.900   2.690  1.1952 -0.6003 -2.6390
 2159TIP3   OH228035   5.941   6.345   1.167 -0.0358 -0.8246  0.3040
 2159TIP3    H128036   6.001   6.393   1.223  0.4395 -0.9401 -0.1007
 2159TIP3    H228037   5.992   6.271   1.134 -0.2738 -0.7080 -0.3509
 2160TIP3   OH228038   3.410   6.291   8.517 -0.1359 -0.4789 -0.2306
 2160TIP3    H128039   3.464   6.322   8.590 -0.2308 -1.1632  0.1399
 2160TIP3    H228040   3.328   6.265   8.558 -0.2320 -0.7631 -0.5986
 2161TIP3   OH228041   2.796   5.543   0.980 -0.0866  0.4227 -0.1057
 2161TIP3    H128042   2.832   5.627   1.011  0.3524  0.0786  0.3400
 2161TIP3    H228043   2.873   5.486   0.975 -0.3255  0.1519 -0.7794
 2162TIP3   OH228044   5.439   0.962   1.556  0.4980  0.4444  0.2130
 2162TIP3    H128045   5.405   0.971   1.467  0.8162 -2.0008 -0.2307
 2162TIP3    H228046   5.366   0.988   1.612 -1.4953 -2.5898 -0.7357
 2163TIP3   OH228047   0.286   0.200   8.512 -0.4229  0.0681 -0.5105
 2163TIP3    H128048   0.203   0.224   8.470 -0.4406  0.3819 -0.2967
 2163TIP3    H228049   0.312   0.278   8.560 -1.1970 -0.7902  1.3728
 2164TIP3   OH228050   2.127   1.874   7.376  0.3056 -0.4101  0.1565
 2164TIP3    H128051   2.103   1.925   7.298 -1.1027 -1.5182 -0.1751
 2164TIP3    H228052   2.078   1.915   7.447  1.0958  0.2067  0.3548
 2165TIP3   OH228053   1.888   4.348   0.817  0.3935  0.2323  0.4394
 2165TIP3    H128054   1.873   4.265   0.773  0.4959  0.8163 -0.7226
 2165TIP3    H228055   1.954   4.392   0.764  0.0492  1.2224  0.8114
 2166TIP3   OH228056   0.091   5.691   1.920  0.4162  0.0523  0.3945
 2166TIP3    H128057   0.167   5.723   1.871 -0.0164  2.1058  0.9401
 2166TIP3    H228058   0.087   5.749   1.997 -1.6754 -0.0206  0.3827
 2167TIP3   OH228059   0.127   6.682   0.106  0.3794 -0.0554  0.0690
 2167TIP3    H128060   0.113   6.733   0.186 -1.6590  1.5379 -1.2089
 2167TIP3    H228061   0.205   6.722   0.066 -1.8368  3.0702 -1.4996
 2168TIP3   OH228062   2.482   3.493   6.894 -0.0015  0.1014  0.1986
 2168TIP3    H128063   2.521   3.513   6.979 -0.6380  0.0119  0.5192
 2168TIP3    H228064   2.498   3.399   6.882 -1.9534 -0.4523  1.3403
 2169TIP3   OH228065   4.417   3.563   7.750 -0.6705 -0.1046 -0.2137
 2169TIP3    H128066   4.492   3.585   7.695 -0.1541 -0.9667  0.1336
 2169TIP3    H228067   4.341   3.577   7.694 -0.4651  2.9574  0.0610
 2170TIP3   OH228068   0.652   3.318   2.120 -0.3448  0.0512 -0.4048
 2170TIP3    H128069   0.570   3.276   2.147 -0.7156  2.2447  2.2229
 2170TIP3    H228070   0.712   3.303   2.193  0.2176  2.0563 -0.4160
 2171TIP3   OH228071   2.839   0.572   7.858 -0.0802 -0.9603  0.4625
 2171TIP3    H128072   2.871   0.659   7.832 -0.1174 -1.2031 -0.4292
 2171TIP3    H228073   2.744   0.578   7.847 -0.2142 -0.7249  1.6260
 2172TIP3   OH228074   4.389   0.184   1.023 -0.1483  0.6001 -0.2448
 2172TIP3    H128075   4.319   0.249   1.023 -0.1186  0.6597 -1.4704
 2172TIP3    H228076   4.428   0.190   1.110 -1.2600  0.9979  0.2509
 2173TIP3   OH228077   2.630   1.920   6.582 -0.0098 -0.0045  0.0744
 2173TIP3    H128078   2.542   1.951   6.558 -0.0119  0.7215  0.9861
 2173TIP3    H228079   2.687   1.956   6.514 -0.2135  0.8086  0.3295
 2174TIP3   OH228080   5.576   3.948   7.858 -0.8889 -0.1872  0.3098
 2174TIP3    H128081   5.584   3.895   7.937 -1.6154 -1.4515 -0.4450
 2174TIP3    H228082   5.482   3.963   7.848 -0.8464 -0.4368 -0.5593
 2175TIP3   OH228083   0.332   1.558   2.021 -0.4305 -0.0253 -0.0576
 2175TIP3    H128084   0.319   1.624   2.090  0.7389  1.1478 -0.9012
 2175TIP3    H228085   0.342   1.476   2.068 -1.4028  0.4647  1.0699
 2176TIP3   OH228086   3.157   2.882   2.424 -0.3794 -0.5953  0.3629
 2176TIP3    H128087   3.145   2.956   2.484 -2.7561 -0.8059  0.2353
 2176TIP3    H228088   3.070   2.867   2.387  0.9043 -0.7212 -2.9143
 2177TIP3   OH228089   0.379   5.867   7.485  0.1657 -0.4234  0.2768
 2177TIP3    H128090   0.415   5.937   7.540  0.4798 -0.8086  0.5691
 2177TIP3    H228091   0.441   5.860   7.412 -1.2775  1.4598 -1.2642
 2178TIP3   OH228092   3.849   5.959   2.154  0.3190  0.4714 -0.3886
 2178TIP3    H128093   3.904   5.884   2.130  1.4075  0.8872  0.6822
 2178TIP3    H228094   3.909   6.018   2.199 -1.4745 -0.1293  3.0647
 2179TIP3   OH228095   5.823   0.151   7.008 -0.0344 -0.4696  0.1902
 2179TIP3    H128096   5.751   0.202   6.971  0.8568  0.9785  0.3828
 2179TIP3    H228097   5.804   0.061   6.982 -2.3602 -0.2674  0.9780
 2180TIP3   OH228098   4.397   1.941   7.242 -0.3166  0.2959  0.0484
 2180TIP3    H128099   4.435   1.980   7.163  0.2778 -0.2541  0.0616
 2180TIP3    H228100   4.426   1.998   7.313 -0.9117  0.8339 -0.1265
 2181TIP3   OH228101   4.571   0.208   0.672 -0.0282  0.3082 -0.6762
 2181TIP3    H128102   4.623   0.286   0.651  1.2992  0.5037  2.6837
 2181TIP3    H228103   4.489   0.221   0.625  0.2081  3.6777 -0.4321
 2182TIP3   OH228104   4.669   5.058   7.471  0.5387 -0.0770 -0.2667
 2182TIP3    H128105   4.675   5.110   7.551  0.1816 -1.5793  0.7911
 2182TIP3    H228106   4.590   5.005   7.483  0.3763 -0.2036 -1.7120
 2183TIP3   OH228107   1.107   3.665   8.022 -0.0087 -0.1717 -0.0655
 2183TIP3    H128108   1.034   3.716   7.987  1.2594  1.0174 -1.0915
 2183TIP3    H228109   1.163   3.730   8.065  0.8674 -0.9245 -0.0312
 2184TIP3   OH228110   1.597   5.597   7.647  0.6429 -0.3675 -0.5101
 2184TIP3    H128111   1.564   5.687   7.655  1.4910  0.1559 -2.3186
 2184TIP3    H228112   1.687   5.601   7.680  1.1504 -0.2001 -1.8498
 2185TIP3   OH228113   6.681   1.518   1.271 -0.0208 -0.0977  0.0024
 2185TIP3    H128114   6.745   1.457   1.307 -0.8045 -0.3849  0.9443
 2185TIP3    H228115   6.728   1.563   1.201  1.4820  0.3015  1.2064
 2186TIP3   OH228116   3.120   4.357   0.762  0.1836 -0.1012 -0.0842
 2186TIP3    H128117   3.120   4.452   0.778  0.0411 -0.2463  0.8199
 2186TIP3    H228118   3.211   4.336   0.743  0.2438  0.1926 -0.1291
 2187TIP3   OH228119   2.393   3.104   7.872 -0.4215  0.4142  0.2418
 2187TIP3    H128120   2.312   3.118   7.920 -0.9299 -0.1463 -0.4264
 2187TIP3    H228121   2.423   3.017   7.899 -1.5149 -0.5828 -1.5154
 2188TIP3   OH228122   4.136   4.549   2.598  0.2621 -0.2156 -0.2377
 2188TIP3    H128123   4.225   4.559   2.566 -0.3176  0.3212 -1.7849
 2188TIP3    H228124   4.083   4.535   2.519 -0.9587 -1.0460  0.6853
 2189TIP3   OH228125   5.251   1.114   8.580 -0.1772  0.8335  0.8390
 2189TIP3    H128126   5.190   1.148   8.515  0.0682  1.2728  0.8283
 2189TIP3    H228127   5.279   1.029   8.545 -0.8162  0.6082  0.8717
 2190TIP3   OH228128   5.461   3.091   7.416 -0.5919  0.5129  0.2384
 2190TIP3    H128129   5.443   3.048   7.332 -0.1425  0.4900  0.1520
 2190TIP3    H228130   5.381   3.079   7.467  0.2785 -2.5268  1.1150
 2191TIP3   OH228131   3.507   1.574   7.358 -0.0135  0.0890 -0.1802
 2191TIP3    H128132   3.470   1.491   7.388  1.3799 -0.2406  0.6678
 2191TIP3    H228133   3.550   1.552   7.275 -0.5533  0.2055 -0.5002
 2192TIP3   OH228134   0.328   4.071   8.346 -0.0185 -0.2431 -0.4277
 2192TIP3    H128135   0.310   3.999   8.285 -1.8530 -0.0234 -0.2248
 2192TIP3    H228136   0.271   4.054   8.421  0.4346  0.7540  0.1635
 2193TIP3   OH228137   5.058   1.892   8.157  0.4135 -0.3599 -0.0057
 2193TIP3    H128138   4.984   1.909   8.216 -0.7419 -0.3626 -1.4027
 2193TIP3    H228139   5.029   1.818   8.104  2.0788 -1.4064  0.4668
 2194TIP3   OH228140   4.467   5.736   2.709 -0.6876  0.0593  0.5068
 2194TIP3    H128141   4.429   5.698   2.630 -0.5792 -0.7643  0.8346
 2194TIP3    H228142   4.535   5.673   2.735  0.5617  1.2466  0.2025
 2195TIP3   OH228143   2.248   3.813   1.039  0.6277  0.3352 -0.1203
 2195TIP3    H128144   2.211   3.803   0.951 -0.0280  0.4954  0.1310
 2195TIP3    H228145   2.269   3.723   1.066  1.5702  0.3535 -0.7428
 2196TIP3   OH228146   1.079   2.246   1.724 -0.7614  0.3083  0.0188
 2196TIP3    H128147   1.011   2.204   1.670 -0.5375  1.0593 -0.8792
 2196TIP3    H228148   1.042   2.246   1.812 -1.3660 -0.4853 -0.2173
 2197TIP3   OH228149   6.243   1.104   1.603 -0.7461 -0.2236 -0.2325
 2197TIP3    H128150   6.296   1.077   1.528  0.0970 -2.8551  1.1803
 2197TIP3    H228151   6.298   1.166   1.651 -0.9444  0.7893 -1.2660
 2198TIP3   OH228152   0.875   2.007   0.562  0.4814  0.0097  0.4462
 2198TIP3    H128153   0.870   1.934   0.500 -0.3489  0.3561  0.0878
 2198TIP3    H228154   0.963   2.043   0.549  0.4166 -0.0859 -0.3540
 2199TIP3   OH228155   5.515   2.732   7.817 -0.3075 -0.3710  0.0461
 2199TIP3    H128156   5.484   2.682   7.893  0.5323 -1.2313 -0.1540
 2199TIP3    H228157   5.569   2.669   7.768 -0.4565  0.3124 -1.0116
 2200TIP3   OH228158   5.504   6.043   1.669  0.4116 -0.1869  0.0891
 2200TIP3    H128159   5.419   6.000   1.678  0.2776  0.2559  1.0199
 2200TIP3    H228160   5.500   6.087   1.584  0.4326 -1.7090 -0.7425
 2201TIP3   OH228161   3.459   5.912   0.972  0.0275 -0.0330  0.7884
 2201TIP3    H128162   3.498   5.844   0.917 -0.4899 -0.7263  1.2701
 2201TIP3    H228163   3.487   5.890   1.061 -1.3735 -0.4990  1.1352
 2202TIP3   OH228164   3.992   2.394   8.667 -0.4466  0.0714 -0.9719
 2202TIP3    H128165   3.942   2.379   8.747  0.0215  1.7041 -0.3250
 2202TIP3    H228166   3.956   2.475   8.631  0.6333  0.4120 -1.3480
 2203TIP3   OH228167   3.948   5.211   8.078 -0.0098  0.0875 -0.4983
 2203TIP3    H128168   4.037   5.206   8.044  0.1030 -0.6690 -0.1093
 2203TIP3    H228169   3.938   5.132   8.132 -1.1308 -0.1784 -1.0647
 2204TIP3   OH228170   3.887   1.798   2.160  0.4208  0.3233 -0.0395
 2204TIP3    H128171   3.951   1.780   2.229 -0.1770 -1.6139  0.0574
 2204TIP3    H228172   3.921   1.753   2.083 -1.4076 -1.8839  0.3475
 2205TIP3   OH228173   0.456   6.586   2.313 -0.1710  0.8399  0.0968
 2205TIP3    H128174   0.535   6.598   2.366  0.5455 -0.7051 -0.5331
 2205TIP3    H228175   0.465   6.497   2.277 -2.9025  0.0135  1.1523
 2206TIP3   OH228176   1.681   5.594   2.595  0.3299  0.0751  0.1204
 2206TIP3    H128177   1.770   5.572   2.567  1.7652  2.0798  2.6158
 2206TIP3    H228178   1.653   5.520   2.648  0.3950 -0.6681 -0.8571
 2207TIP3   OH228179   1.614   5.561   0.368  0.1966 -0.1424 -0.0037
 2207TIP3    H128180   1.610   5.496   0.438  0.1683 -0.4427 -0.2848
 2207TIP3    H228181   1.592   5.644   0.411  2.4837  0.0909  0.8714
 2208TIP3   OH228182   0.901   6.374   8.432 -0.3185 -0.1933  0.3078
 2208TIP3    H128183   0.890   6.413   8.345  0.1615 -1.4401 -0.3267
 2208TIP3    H228184   0.820   6.324   8.445  0.0610 -0.8561  0.1269
 2209TIP3   OH228185   3.449   6.594   0.598 -0.1208  0.0833  0.6351
 2209TIP3    H128186   3.445   6.642   0.515  0.5132 -0.7859  0.0870
 2209TIP3    H228187   3.423   6.505   0.575 -1.5353  0.1863  1.6830
 2210TIP3   OH228188   4.442   2.765   0.005  0.1430 -0.3643  0.3084
 2210TIP3    H128189   4.389   2.722   0.072  0.0303  0.0611  0.4965
 2210TIP3    H228190   4.416   2.723  -0.077 -1.6381  0.8588  0.1771
 2211TIP3   OH228191   1.451   2.974   0.822 -0.0182  0.0043 -0.2027
 2211TIP3    H128192   1.374   2.978   0.879  0.0817 -0.8770  0.0093
 2211TIP3    H228193   1.515   2.924   0.872 -0.4243 -2.0524 -1.6285
 2212TIP3   OH228194   1.925   0.517   0.860  0.6743 -0.8673 -0.0745
 2212TIP3    H128195   1.912   0.425   0.884  2.3700 -1.2191 -0.3322
 2212TIP3    H228196   1.920   0.517   0.764  1.7967 -0.9166 -0.1445
 2213TIP3   OH228197   6.768   3.889   7.965  0.6556 -0.2150  0.3919
 2213TIP3    H128198   6.749   3.964   7.909  0.4777  0.5206  1.4278
 2213TIP3    H228199   6.730   3.911   8.050 -1.2396 -2.3608  0.1803
 2214TIP3   OH228200   1.617   2.184   0.522 -0.3084 -0.0757 -0.1837
 2214TIP3    H128201   1.541   2.221   0.567 -0.0241  1.8030 -1.1506
 2214TIP3    H228202   1.627   2.097   0.560 -1.1164  0.7491  2.1337
 2215TIP3   OH228203   6.033   1.300   1.568 -0.1216  0.1699  0.2316
 2215TIP3    H128204   6.062   1.331   1.654 -0.7243  0.7831  0.2300
 2215TIP3    H228205   6.096   1.233   1.543  0.2062  0.1710  1.0393
 2216TIP3   OH228206   0.666   3.061   0.687 -0.2937  0.1447  0.4417
 2216TIP3    H128207   0.739   3.104   0.733  0.0350 -2.2329  2.3588
 2216TIP3    H228208   0.705   2.982   0.650 -1.6416 -0.5950  0.5399
 2217TIP3   OH228209   6.635   5.001   7.265  0.1962  0.4893 -0.4076
 2217TIP3    H128210   6.714   5.023   7.217  0.2948  0.4426 -0.2659
 2217TIP3    H228211   6.660   4.927   7.320 -0.0806  0.1365 -0.7441
 2218TIP3   OH228212   4.728   4.357   2.283  0.3968 -0.7368  0.3643
 2218TIP3    H128213   4.663   4.399   2.340  1.0364 -0.5989  1.0097
 2218TIP3    H228214   4.685   4.277   2.252 -0.6230  0.0954 -0.4240
 2219TIP3   OH228215   6.783   6.058   2.190  0.2911 -0.3694 -0.3628
 2219TIP3    H128216   6.743   6.140   2.164  2.8587  1.6851  1.6461
 2219TIP3    H228217   6.720   6.019   2.251 -1.4089 -0.4999 -2.1167
 2220TIP3   OH228218   2.089   4.546   1.062  0.0893  0.5078  0.0708
 2220TIP3    H128219   2.153   4.477   1.080  0.5240  0.4062 -1.6859
 2220TIP3    H228220   2.131   4.626   1.093  0.2347  0.1863  0.7200
 2221TIP3   OH228221   2.827   0.268   8.183  0.1773  0.0599  0.1667
 2221TIP3    H128222   2.808   0.254   8.091 -1.7151  2.0476  0.1625
 2221TIP3    H228223   2.900   0.329   8.185  0.3641 -0.1591 -0.0098
 2222TIP3   OH228224   1.069   5.888   1.672 -0.0807  0.3134  0.2914
 2222TIP3    H128225   1.057   5.794   1.656 -0.7008  0.3556  0.4498
 2222TIP3    H228226   1.112   5.921   1.593  1.0057 -0.2646  0.6248
 2223TIP3   OH228227   6.412   3.347   0.914 -0.1700  0.5744  0.2466
 2223TIP3    H128228   6.324   3.357   0.878  0.3852  0.3176 -1.2754
 2223TIP3    H228229   6.419   3.254   0.936 -0.4607  0.7049  0.9280
 2224TIP3   OH228230   1.315   6.054   6.509 -0.0374 -0.3442 -0.3795
 2224TIP3    H128231   1.370   6.050   6.588 -3.0825  0.2876  1.9714
 2224TIP3    H228232   1.327   5.968   6.468  0.1885 -1.4816  1.9018
 2225TIP3   OH228233   0.162   0.065   7.880  0.0727  1.0980 -0.4044
 2225TIP3    H128234   0.248   0.033   7.908  0.2900  1.6886 -0.3811
 2225TIP3    H228235   0.154   0.032   7.790  0.2889  0.9719 -0.3803
 2226TIP3   OH228236   6.203   0.789   2.151 -0.5768  0.3998 -0.0600
 2226TIP3    H128237   6.266   0.858   2.172  0.1118 -0.7752  2.0229
 2226TIP3    H228238   6.167   0.763   2.236 -1.8572 -0.8451 -0.9424
 2227TIP3   OH228239   6.743   0.779   1.663  0.5662 -0.2733 -0.6887
 2227TIP3    H128240   6.727   0.823   1.579  0.4207 -1.3426 -1.2295
 2227TIP3    H228241   6.655   0.761   1.697  0.5263  2.3365  0.9219
 2228TIP3   OH228242   1.284   1.453   1.892  0.5560 -0.3170 -0.0680
 2228TIP3    H128243   1.337   1.522   1.930  0.9072 -0.4424 -0.3296
 2228TIP3    H228244   1.274   1.388   1.962  0.7822 -0.3121 -0.0325
 2229TIP3   OH228245   0.098   2.355   0.556  0.0125 -0.0310  0.6838
 2229TIP3    H128246   0.126   2.305   0.478 -1.2765 -0.3395  0.3961
 2229TIP3    H228247   0.106   2.292   0.628 -0.5455 -0.3199  0.4994
 2230TIP3   OH228248   1.926   0.829   6.755 -0.1257 -0.0217  0.2814
 2230TIP3    H128249   1.891   0.795   6.673  1.0924  1.5468 -0.9394
 2230TIP3    H228250   1.861   0.892   6.785  0.3740  0.9247 -0.5862
 2231TIP3   OH228251   3.838   2.106   6.062 -0.4542  0.0776  0.5007
 2231TIP3    H128252   3.748   2.101   6.094 -1.1927  1.6001 -1.1666
 2231TIP3    H228253   3.873   2.185   6.103 -0.8968  1.1568 -1.1195
 2232TIP3   OH228254   6.419   2.302   1.689  0.3066 -0.2192  0.8709
 2232TIP3    H128255   6.377   2.374   1.641 -0.2644 -0.9727  0.2213
 2232TIP3    H228256   6.435   2.339   1.776 -0.9400  0.3807  0.8825
 2233TIP3   OH228257   6.355   2.359   8.133 -0.0752  0.2281 -0.4433
 2233TIP3    H128258   6.309   2.288   8.089 -1.3484  0.5606  0.3253
 2233TIP3    H228259   6.380   2.418   8.062  0.8276 -0.8557 -1.0721
 2234TIP3   OH228260   6.301   3.136   8.508 -0.3932  0.1069 -0.5183
 2234TIP3    H128261   6.346   3.186   8.575 -0.2625  0.0625 -0.5714
 2234TIP3    H228262   6.248   3.200   8.460 -0.1036  0.2187 -0.6866
 2235TIP3   OH228263   4.920   3.781   1.401  0.1269 -0.6583 -0.5507
 2235TIP3    H128264   4.882   3.831   1.473  1.9333  0.0173 -0.0000
 2235TIP3    H228265   4.874   3.811   1.323  0.5123  1.1892 -0.0989
 2236TIP3   OH228266   6.152   2.676   2.174 -0.1304  0.0430  0.2450
 2236TIP3    H128267   6.203   2.692   2.254 -0.2995 -0.0122  0.3659
 2236TIP3    H228268   6.090   2.749   2.171  0.6711  0.7153 -0.4895
 2237TIP3   OH228269   5.260   3.106   1.549 -0.6443  0.3648  0.5310
 2237TIP3    H128270   5.285   3.098   1.641  1.5933  0.5525  0.0067
 2237TIP3    H228271   5.252   3.016   1.518 -0.8538  0.2977  0.7784
 2238TIP3   OH228272   2.976   0.247   0.295 -0.4046 -0.3102 -0.1912
 2238TIP3    H128273   2.998   0.156   0.275  1.6174 -0.1465  0.9905
 2238TIP3    H228274   2.955   0.286   0.210  0.9823 -1.3212 -1.0344
 2239TIP3   OH228275   3.311   2.310   0.594  0.5364 -0.0686 -0.0616
 2239TIP3    H128276   3.381   2.300   0.530  0.4236  0.8795 -0.3437
 2239TIP3    H228277   3.315   2.230   0.647  1.4136 -0.3069 -0.4791
 2240TIP3   OH228278   2.216   4.636   7.859 -0.1709  0.1040 -0.1342
 2240TIP3    H128279   2.266   4.639   7.940 -1.0248  1.0764  0.3872
 2240TIP3    H228280   2.124   4.635   7.887 -0.5182  1.7690 -1.0705
 2241TIP3   OH228281   6.163   3.418   0.814  0.3117 -0.1686 -0.3764
 2241TIP3    H128282   6.145   3.511   0.828 -0.0942 -0.2280 -0.4819
 2241TIP3    H228283   6.088   3.373   0.852 -0.0176 -0.4030 -1.2700
 2242TIP3   OH228284   2.388   6.757   2.512 -0.5403  0.2229  0.8039
 2242TIP3    H128285   2.300   6.724   2.499 -1.1280  1.9022  0.2133
 2242TIP3    H228286   2.443   6.705   2.454 -1.5575  0.8162 -0.7607
 2243TIP3   OH228287   0.567   3.027   1.148  0.1797  0.0062  0.4597
 2243TIP3    H128288   0.503   2.995   1.212  0.2140 -1.0188  0.0017
 2243TIP3    H228289   0.590   3.115   1.179 -0.3952 -0.1639  1.4116
 2244TIP3   OH228290   0.875   4.962   7.910 -0.2316  0.2717  0.4190
 2244TIP3    H128291   0.956   4.923   7.942 -1.1397 -0.4656  1.9672
 2244TIP3    H228292   0.894   5.056   7.903  0.7036  0.1345  0.9141
 2245TIP3   OH228293   0.043   5.033   0.555  0.0926 -0.1426  0.3924
 2245TIP3    H128294   0.005   5.029   0.467 -2.6522  1.4164  1.3878
 2245TIP3    H228295   0.034   5.125   0.581  1.8095 -0.3572  1.9415
 2246TIP3   OH228296   1.534   0.354   0.949 -0.5028  0.3076  0.4402
 2246TIP3    H128297   1.539   0.339   0.855 -0.1846 -3.2663  0.9170
 2246TIP3    H228298   1.582   0.436   0.962 -0.4816  0.8640 -2.4583
 2247TIP3   OH228299   5.796   1.499   6.484 -0.2536  0.6054  0.1635
 2247TIP3    H128300   5.759   1.586   6.499 -4.1463 -0.7742 -0.4697
 2247TIP3    H228301   5.775   1.479   6.393  1.5329 -0.6359 -0.0297
 2248TIP3   OH228302   3.324   2.074   7.396  0.5505  0.0856 -0.2831
 2248TIP3    H128303   3.344   1.993   7.351  0.9053  1.1366 -2.1255
 2248TIP3    H228304   3.407   2.102   7.434  0.3333 -0.6075  0.7424
 2249TIP3   OH228305   3.842   3.168   0.604 -0.0126 -0.4678 -0.0410
 2249TIP3    H128306   3.780   3.222   0.653  0.8027 -0.2290  0.7550
 2249TIP3    H228307   3.867   3.223   0.530  1.5794  0.7418  1.2899
 2250TIP3   OH228308   1.396   2.260   8.513 -0.2531  0.3993  0.0057
 2250TIP3    H128309   1.450   2.188   8.543  0.4000  0.6795 -0.4771
 2250TIP3    H228310   1.458   2.326   8.482 -0.8752  0.5168 -1.0523
 2251TIP3   OH228311   4.582   2.274   0.154  0.6947  0.0498  0.5274
 2251TIP3    H128312   4.677   2.260   0.156  0.8199  0.5630 -0.9448
 2251TIP3    H228313   4.567   2.339   0.223  1.5074  0.4405  0.3550
 2252TIP3   OH228314   6.373   5.205   1.874  0.5210  0.1368 -0.4295
 2252TIP3    H128315   6.385   5.245   1.960 -0.1923 -1.8424  0.6627
 2252TIP3    H228316   6.296   5.149   1.884  2.2092 -2.5280 -1.4153
 2253TIP3   OH228317   1.435   4.500   6.397 -0.1862 -0.3148  0.5659
 2253TIP3    H128318   1.387   4.583   6.391 -0.6334 -0.4631  1.8548
 2253TIP3    H228319   1.526   4.525   6.408 -0.3793  0.0266  1.4705
 2254TIP3   OH228320   5.054   3.635   6.551  0.1253 -0.0476 -0.0724
 2254TIP3    H128321   5.046   3.595   6.465  1.6635 -2.6631  0.8838
 2254TIP3    H228322   5.122   3.584   6.595  0.2926  1.9878  2.2755
 2255TIP3   OH228323   4.218   1.244   8.288  0.1674  0.6325 -0.3530
 2255TIP3    H128324   4.302   1.197   8.289 -0.1007 -0.0158 -2.4970
 2255TIP3    H228325   4.241   1.335   8.303  1.0764  0.2693  0.5610
 2256TIP3   OH228326   0.813   2.382   8.455 -0.3903 -0.3473 -0.4743
 2256TIP3    H128327   0.885   2.391   8.517  0.0922  0.9955 -1.1847
 2256TIP3    H228328   0.777   2.471   8.447 -1.6688 -0.8689 -0.6579
 2257TIP3   OH228329   0.887   3.229   7.574 -0.4059 -0.3666 -0.3669
 2257TIP3    H128330   0.836   3.173   7.633  0.9852  1.1533  2.4519
 2257TIP3    H228331   0.970   3.183   7.563  0.3485  0.5758  1.1193
 2258TIP3   OH228332   1.394   0.314   1.200  0.5977  0.3816  0.0160
 2258TIP3    H128333   1.445   0.334   1.122  0.5076 -1.0610 -0.4397
 2258TIP3    H228334   1.307   0.350   1.181  0.0841 -1.3870 -1.3148
 2259TIP3   OH228335   5.536   2.548   0.052 -0.0037 -0.3504  0.2830
 2259TIP3    H128336   5.581   2.466   0.073  2.4371  0.4515 -1.4522
 2259TIP3    H228337   5.596   2.595  -0.006 -2.5224  1.4661 -1.0361
 2260TIP3   OH228338   5.087   5.468   7.220  0.4248 -0.0226  0.1657
 2260TIP3    H128339   5.146   5.489   7.148 -1.4909  0.8610 -1.2530
 2260TIP3    H228340   5.091   5.545   7.277 -1.7773  1.6416 -1.7076
 2261TIP3   OH228341   4.425   6.653   8.069 -0.9192 -0.5502  0.1583
 2261TIP3    H128342   4.441   6.743   8.097  0.3252 -1.1266  1.4574
 2261TIP3    H228343   4.507   6.626   8.029 -1.1761 -1.2143  0.0722
 2262TIP3   OH228344   5.877   2.386   8.584  0.1919 -0.2022 -0.3113
 2262TIP3    H128345   5.935   2.445   8.631  0.3908 -0.5391 -0.1293
 2262TIP3    H228346   5.872   2.422   8.496  2.5577 -1.4337 -1.0287
 2263TIP3   OH228347   3.462   0.726   0.291 -0.0585 -0.2622  0.0968
 2263TIP3    H128348   3.449   0.818   0.317  3.2441  0.5093 -0.5912
 2263TIP3    H228349   3.464   0.729   0.195 -2.0461 -1.4702 -0.0302
 2264TIP3   OH228350   5.960   4.479   0.665  0.4366 -0.4964  0.8149
 2264TIP3    H128351   6.052   4.499   0.677  0.2944 -0.1485  1.3583
 2264TIP3    H228352   5.925   4.552   0.615 -0.0952  0.7356  2.8500
 2265TIP3   OH228353   0.898   6.126   1.137 -0.1504  0.5384 -0.1184
 2265TIP3    H128354   0.930   6.118   1.227 -0.7699 -0.7017  0.0007
 2265TIP3    H228355   0.963   6.183   1.094 -0.0641  1.4725  1.1923
 2266TIP3   OH228356   4.974   2.831   7.540  0.9262  0.2728  0.3069
 2266TIP3    H128357   5.009   2.770   7.475  1.7464 -0.2180  1.1798
 2266TIP3    H228358   4.922   2.893   7.489 -2.1488 -2.5987 -0.3898
 2267TIP3   OH228359   6.227   0.266   8.599  0.4389  0.3884 -0.3544
 2267TIP3    H128360   6.205   0.314   8.679  1.5423  0.7316 -0.2447
 2267TIP3    H228361   6.251   0.179   8.630 -2.6766 -0.6946 -0.6428
 2268TIP3   OH228362   1.053   0.251   0.383  0.2717 -0.6603  0.2619
 2268TIP3    H128363   1.085   0.286   0.466 -1.0515  1.8129 -0.1809
 2268TIP3    H228364   1.132   0.232   0.333  1.1055  1.0774  0.8330
 2269TIP3   OH228365   0.560   3.616   8.274  0.0557 -0.3291 -0.3326
 2269TIP3    H128366   0.517   3.541   8.234 -0.0428 -0.2840 -0.3101
 2269TIP3    H228367   0.653   3.594   8.272  0.0177 -0.4963 -0.2305
 2270TIP3   OH228368   3.219   2.649   0.473  0.0259 -0.1115 -0.2227
 2270TIP3    H128369   3.225   2.583   0.404  1.0001  0.0419 -0.2908
 2270TIP3    H228370   3.144   2.703   0.448 -0.6459 -1.0464 -0.2826
 2271TIP3   OH228371   1.334   6.438   7.733  0.2049 -0.6317  0.3437
 2271TIP3    H128372   1.358   6.495   7.806  2.8442 -1.6745  0.4293
 2271TIP3    H228373   1.278   6.371   7.773  0.6159 -0.5042  1.1676
 2272TIP3   OH228374   0.297   2.038   0.530 -0.7136  0.3689  0.4047
 2272TIP3    H128375   0.312   2.131   0.544  0.8058  0.3281 -0.6338
 2272TIP3    H228376   0.309   2.026   0.435 -0.3260 -0.9523  0.5941
 2273TIP3   OH228377   1.584   0.855   2.451  0.1141 -0.6049  0.0511
 2273TIP3    H128378   1.532   0.788   2.407  0.0577  0.1502 -1.0775
 2273TIP3    H228379   1.588   0.927   2.388 -0.8275  0.9273  1.6683
 2274TIP3   OH228380   1.088   6.236   8.127  0.5299 -0.3756 -0.2318
 2274TIP3    H128381   1.057   6.164   8.182  0.0539 -1.0239 -1.3143
 2274TIP3    H228382   1.026   6.307   8.142 -0.9027 -1.2873 -1.5325
 2275TIP3   OH228383   4.812   5.322   0.487  0.0780 -0.1646 -0.2627
 2275TIP3    H128384   4.856   5.380   0.425  1.6963 -2.1611 -1.0955
 2275TIP3    H228385   4.881   5.265   0.520 -1.4604 -1.8116  0.2805
 2276TIP3   OH228386   3.927   6.795   1.585 -0.7106 -0.2052 -0.2182
 2276TIP3    H128387   3.836   6.814   1.607 -0.7603 -0.2959 -0.3469
 2276TIP3    H228388   3.945   6.848   1.507 -0.2640  0.8095  0.5431
 2277TIP3   OH228389   6.234   3.741   0.958 -0.3658  0.6957  0.0311
 2277TIP3    H128390   6.174   3.709   0.891 -2.0496  2.4247  0.6141
 2277TIP3    H228391   6.253   3.664   1.012 -1.9111  0.0561 -0.2872
 2278TIP3   OH228392   6.039   6.651   8.200  0.3894 -0.1925 -0.0184
 2278TIP3    H128393   6.084   6.675   8.281 -0.7070 -0.1319  0.5804
 2278TIP3    H228394   6.009   6.562   8.216  1.3482 -0.6969 -0.8923
 2279TIP3   OH228395   6.520   4.553   7.929  0.0006  0.2135 -0.3942
 2279TIP3    H128396   6.613   4.545   7.906  0.6608  2.2316  1.2756
 2279TIP3    H228397   6.520   4.555   8.025 -1.8979 -0.7740 -0.3432
 2280TIP3   OH228398   4.031   0.894   1.964  0.3486 -0.6680  0.5167
 2280TIP3    H128399   4.036   0.984   1.997  4.3935 -0.7599  0.6191
 2280TIP3    H228400   3.959   0.855   2.014  0.0938  1.8130  2.2925
 2281TIP3   OH228401   6.347   2.147   7.942  0.0599 -0.0797 -0.6642
 2281TIP3    H128402   6.421   2.114   7.890  0.4138  1.0701 -0.9333
 2281TIP3    H228403   6.270   2.130   7.887 -0.0249 -2.1465  0.0258
 2282TIP3   OH228404   6.344   3.224   1.573 -0.2996 -0.5470  0.5361
 2282TIP3    H128405   6.410   3.184   1.516 -1.5368 -0.6271 -0.8961
 2282TIP3    H228406   6.375   3.206   1.662  1.6996 -0.3997 -0.0853
 2283TIP3   OH228407   5.300   2.295   6.818  0.1445  0.0483  0.0133
 2283TIP3    H128408   5.350   2.369   6.783 -0.2115 -0.5599 -1.9007
 2283TIP3    H228409   5.266   2.251   6.740 -2.4702 -0.1976  1.2082
 2284TIP3   OH228410   4.571   3.162   0.812 -0.0087  0.1154  0.1350
 2284TIP3    H128411   4.597   3.080   0.853 -1.0794 -0.2092  0.2066
 2284TIP3    H228412   4.546   3.137   0.723  1.7880  0.7309 -0.5694
 2285TIP3   OH228413   5.449   0.533   1.723  0.7237 -0.2141  0.0352
 2285TIP3    H128414   5.441   0.452   1.672 -0.2392  0.3324 -0.7069
 2285TIP3    H228415   5.536   0.567   1.700  0.3485 -0.0393 -1.1556
 2286TIP3   OH228416   1.011   2.950   7.910  0.2735  0.0044 -0.5528
 2286TIP3    H128417   0.952   3.025   7.910 -0.7345 -0.7638  0.2163
 2286TIP3    H228418   1.021   2.928   8.003  0.9464 -0.5197 -0.7468
 2287TIP3   OH228419   3.777   1.587   6.054 -0.7689  0.0572  0.0360
 2287TIP3    H128420   3.715   1.654   6.024 -1.6678 -1.4056 -1.5876
 2287TIP3    H228421   3.760   1.578   6.148 -0.4293  2.2411  0.3541
 2288TIP3   OH228422   1.066   2.620   0.980  0.2101 -0.6240 -0.5559
 2288TIP3    H128423   1.054   2.711   0.951  0.9371  0.0849  1.1943
 2288TIP3    H228424   0.980   2.594   1.014  0.1524 -0.3579 -0.4939
 2289TIP3   OH228425   3.421   2.524   1.266  0.0235  0.1603  0.9037
 2289TIP3    H128426   3.487   2.468   1.308 -0.6545 -1.6131 -0.2642
 2289TIP3    H228427   3.472   2.596   1.228  1.2778 -0.9240  0.4066
 2290TIP3   OH228428   1.293   1.378   0.003  0.4739 -0.4849 -0.0041
 2290TIP3    H128429   1.264   1.345  -0.082 -1.1433  2.2420 -0.6336
 2290TIP3    H228430   1.214   1.411   0.045  1.5663  0.1836  1.6501
 2291TIP3   OH228431   1.973   5.421   7.697  0.0812 -0.0444  0.0181
 2291TIP3    H128432   1.931   5.497   7.737 -1.3713 -0.2027 -1.1428
 2291TIP3    H228433   2.017   5.457   7.619  0.2605 -0.2212  0.0399
 2292TIP3   OH228434   4.378   0.220   8.535 -0.0601  0.0106  0.1942
 2292TIP3    H128435   4.351   0.134   8.502 -0.3328 -0.7194  2.1501
 2292TIP3    H228436   4.302   0.276   8.519 -0.3724 -0.4457  0.0499
 2293TIP3   OH228437   5.313   4.481   0.696 -0.0136  0.4224 -0.3168
 2293TIP3    H128438   5.296   4.540   0.770  0.0467  0.6341 -0.4697
 2293TIP3    H228439   5.408   4.475   0.691 -0.0221  0.1858 -0.2042
 2294TIP3   OH228440   2.462   3.635   0.133 -0.1724 -0.3044  0.0113
 2294TIP3    H128441   2.467   3.724   0.098  1.0576 -0.3974 -0.0929
 2294TIP3    H228442   2.380   3.633   0.182 -1.1881  0.2923 -1.5911
 2295TIP3   OH228443   6.337   0.336   7.582  0.3962  0.4338  0.9303
 2295TIP3    H128444   6.392   0.410   7.557  0.9878 -0.2173  0.2539
 2295TIP3    H228445   6.251   0.356   7.543  1.2347 -0.4464 -1.5442
 2296TIP3   OH228446   5.866   6.819   0.521  0.3285  0.5251  0.5722
 2296TIP3    H128447   5.819   6.902   0.531  0.8354  0.7881  0.8052
 2296TIP3    H228448   5.894   6.796   0.610 -1.4770 -0.9077  0.8443
 2297TIP3   OH228449   5.696   0.586   1.627 -0.2919 -0.0501  0.0660
 2297TIP3    H128450   5.759   0.658   1.635 -1.8152  1.4330 -0.6391
 2297TIP3    H228451   5.679   0.578   1.534 -2.1120  0.4925  0.3165
 2298TIP3   OH228452   6.699   5.245   1.442 -0.3933 -0.5010 -0.0430
 2298TIP3    H128453   6.626   5.197   1.481 -0.0015 -1.5489 -0.5529
 2298TIP3    H228454   6.773   5.184   1.447  0.4784  0.5726  0.5469
 2299TIP3   OH228455   4.673   2.646   0.439  0.3376  0.0522  0.1328
 2299TIP3    H128456   4.752   2.644   0.494 -0.2993 -0.8564  1.0643
 2299TIP3    H228457   4.670   2.559   0.399  0.9798  0.8101 -1.6737
 2300TIP3   OH228458   5.846   0.652   2.738 -0.6676 -0.2347 -0.4981
 2300TIP3    H128459   5.812   0.590   2.803 -0.3221 -0.0019 -0.0939
 2300TIP3    H228460   5.850   0.736   2.784 -1.0078  0.0646 -1.0056
 2301TIP3   OH228461   0.815   4.215   8.197 -0.0757  0.1645  0.1680
 2301TIP3    H128462   0.789   4.177   8.113  0.0763  0.0720  0.1608
 2301TIP3    H228463   0.766   4.165   8.262 -2.4516  2.1215  0.0120
 2302TIP3   OH228464   3.877   4.517   1.069 -0.0984  0.0474  0.0245
 2302TIP3    H128465   3.920   4.602   1.078 -1.0683  0.5848 -0.3338
 2302TIP3    H228466   3.886   4.476   1.155 -2.5533  1.9153  1.2866
 2303TIP3   OH228467   3.551   4.553   1.497 -0.5369  0.1556 -0.2192
 2303TIP3    H128468   3.464   4.522   1.472 -0.0876 -1.4594  0.0816
 2303TIP3    H228469   3.582   4.487   1.560  1.1182  0.4099 -0.7329
 2304TIP3   OH228470   6.177   5.551   1.108 -0.0273  0.1454 -0.0171
 2304TIP3    H128471   6.173   5.577   1.200  2.4375 -2.1294  0.8812
 2304TIP3    H228472   6.203   5.459   1.111 -1.6474 -0.5398 -3.0207
 2305TIP3   OH228473   5.208   4.371   1.025 -0.1526  0.0091 -0.4597
 2305TIP3    H128474   5.226   4.460   0.993 -2.0104 -0.0697 -1.9366
 2305TIP3    H228475   5.255   4.314   0.964 -0.5007 -0.0479 -0.6799
 2306TIP3   OH228476   4.804   1.155   1.646  0.0412 -0.3700 -0.1264
 2306TIP3    H128477   4.832   1.092   1.713 -0.4545 -1.0726 -0.5618
 2306TIP3    H228478   4.821   1.110   1.563  1.2085  0.7219 -0.5083
 2307TIP3   OH228479   4.321   5.469   6.766 -0.1660 -0.3328 -0.1008
 2307TIP3    H128480   4.359   5.498   6.683 -1.1761 -3.2902 -1.7460
 2307TIP3    H228481   4.241   5.522   6.775  0.5380  0.8109 -0.3756
 2308TIP3   OH228482   5.865   0.118   7.266  0.1167  0.3749  0.5066
 2308TIP3    H128483   5.845   0.146   7.176 -1.8957  0.7192  1.0173
 2308TIP3    H228484   5.848   0.024   7.265  0.2972  0.3421  0.4825
 2309TIP3   OH228485   4.234   4.097   0.360 -0.6907  0.2927  0.7298
 2309TIP3    H128486   4.304   4.081   0.423 -0.5636  0.1393  0.5495
 2309TIP3    H228487   4.256   4.181   0.319 -0.0721 -0.2276 -0.0419
 2310TIP3   OH228488   4.495   4.066   0.476  0.1550 -0.7974  0.5431
 2310TIP3    H128489   4.530   4.146   0.438  0.1363 -1.0186  0.0491
 2310TIP3    H228490   4.567   4.002   0.467 -0.5614 -1.4377 -1.0787
 2311TIP3   OH228491   0.628   5.207   0.585  0.4981 -0.3081  0.0192
 2311TIP3    H128492   0.662   5.185   0.499  0.1541 -0.5885 -0.0430
 2311TIP3    H228493   0.593   5.125   0.620 -1.8350  0.3179 -0.6771
 2312TIP3   OH228494   5.525   1.333   0.181 -0.0464  0.1497  0.3321
 2312TIP3    H128495   5.535   1.347   0.087 -0.1889  1.4062  0.4880
 2312TIP3    H228496   5.485   1.414   0.213 -1.7909 -0.9937  1.1864
 2313TIP3   OH228497   5.205   2.656   8.616  0.1638  0.6719  0.8118
 2313TIP3    H128498   5.113   2.673   8.631  0.4367  1.5871  1.4999
 2313TIP3    H228499   5.223   2.696   8.531 -0.0651  0.4914  0.6761
 2314TIP3   OH228500   5.254   5.923   1.721  0.4992 -0.3020 -0.1746
 2314TIP3    H128501   5.230   5.970   1.801  0.8085 -0.1585 -0.1645
 2314TIP3    H228502   5.191   5.953   1.656  1.6911  1.3819 -0.6027
 2315TIP3   OH228503   6.162   2.148   1.653 -0.1632 -0.1151  0.1518
 2315TIP3    H128504   6.091   2.170   1.592 -0.1411  1.2647  0.5966
 2315TIP3    H228505   6.226   2.218   1.641  1.2983 -1.4813 -0.4491
 2316TIP3   OH228506   4.158   1.239   6.696  0.2692  0.1301 -0.8350
 2316TIP3    H128507   4.095   1.168   6.711 -0.0670  0.6165  0.1278
 2316TIP3    H228508   4.235   1.212   6.746 -0.1017  0.7418  0.1108
 2317TIP3   OH228509   0.596   5.406   6.828 -0.8511  0.4148 -0.3578
 2317TIP3    H128510   0.625   5.426   6.917  0.1373  0.3011 -0.6423
 2317TIP3    H228511   0.620   5.483   6.777  0.8152 -0.4799 -0.9897
 2318TIP3   OH228512   3.610   4.291   7.311 -0.4363  0.4374  0.5098
 2318TIP3    H128513   3.570   4.361   7.259 -0.9192 -0.4372 -0.3396
 2318TIP3    H228514   3.701   4.289   7.283 -1.1415 -1.5114 -2.1362
 2319TIP3   OH228515   0.820   5.254   6.160  0.5560 -0.1337  0.4001
 2319TIP3    H128516   0.910   5.284   6.149  0.5521  0.1003  0.9608
 2319TIP3    H228517   0.821   5.162   6.134  1.4896 -0.8300  2.6314
 2320TIP3   OH228518   4.406   6.056   7.544 -0.0663  0.3449 -0.8901
 2320TIP3    H128519   4.342   6.127   7.550 -0.4700 -0.0682 -0.0379
 2320TIP3    H228520   4.472   6.077   7.610 -0.0635  0.0588 -0.7981
 2321TIP3   OH228521   6.022   4.045   2.064 -0.0675 -0.2356  0.0435
 2321TIP3    H128522   5.933   4.054   2.097  0.5013  2.0042  1.1487
 2321TIP3    H228523   6.017   4.082   1.975 -0.0985  0.7481  0.4333
 2322TIP3   OH228524   3.674   4.310   8.535  0.7723  0.1317 -0.1934
 2322TIP3    H128525   3.607   4.306   8.468 -0.1724  0.8091  0.6781
 2322TIP3    H228526   3.630   4.285   8.616  1.9046 -0.7469  0.1820
 2323TIP3   OH228527   1.699   3.507   0.612  0.2939 -0.2581 -0.3721
 2323TIP3    H128528   1.700   3.598   0.581 -0.1819  0.3695  1.3219
 2323TIP3    H228529   1.629   3.505   0.678  0.9060 -1.6224  0.2822
 2324TIP3   OH228530   1.476   1.751   1.354 -0.4111  0.5728  0.1603
 2324TIP3    H128531   1.498   1.673   1.405  0.2529 -0.1441 -1.1713
 2324TIP3    H228532   1.424   1.719   1.281  1.4100  1.0600 -1.4488
 2325TIP3   OH228533   1.832   4.584   6.762  0.5355 -0.3985  0.0839
 2325TIP3    H128534   1.781   4.503   6.765  0.8996 -0.6552  3.2518
 2325TIP3    H228535   1.774   4.649   6.802 -0.1474  1.2943 -3.3056
 2326TIP3   OH228536   0.154   1.228   0.446  0.0230 -0.9595 -0.1274
 2326TIP3    H128537   0.124   1.247   0.535  2.6139  1.5499  0.3504
 2326TIP3    H228538   0.162   1.132   0.444  0.1493 -1.0739  2.4350
 2327TIP3   OH228539   2.969   6.686   0.028 -0.1252 -0.3658 -0.3039
 2327TIP3    H128540   2.961   6.779   0.048 -0.3999 -0.0026 -1.9609
 2327TIP3    H228541   2.879   6.655   0.020 -0.0349 -0.5463 -0.6727
 2328TIP3   OH228542   1.044   6.479   8.670 -0.3426 -0.6942 -0.0225
 2328TIP3    H128543   1.005   6.483   8.583 -0.8653 -2.2049  0.0994
 2328TIP3    H228544   0.970   6.461   8.729 -0.1053  0.9780  0.8534
 2329TIP3   OH228545   1.190   1.810   1.691 -0.0722 -0.2166  0.1620
 2329TIP3    H128546   1.182   1.894   1.645 -1.7918  0.7060  2.0289
 2329TIP3    H228547   1.135   1.820   1.768 -0.0171 -2.9626  0.6227
 2330TIP3   OH228548   6.535   5.118   1.677  0.6681  0.5241 -0.3831
 2330TIP3    H128549   6.486   5.149   1.754 -0.4461 -1.0367 -0.4260
 2330TIP3    H228550   6.627   5.127   1.703  0.3593  1.8702  0.3673
 2331TIP3   OH228551   5.232   3.254   1.301 -0.2284  0.4435 -0.0242
 2331TIP3    H128552   5.246   3.212   1.385 -1.4853  0.6775  0.3232
 2331TIP3    H228553   5.319   3.283   1.274  0.8313 -2.9169 -0.6279
 2332TIP3   OH228554   4.786   2.635   6.593 -0.1810 -0.2098  0.1504
 2332TIP3    H128555   4.794   2.598   6.505  1.3699  0.9910 -0.2491
 2332TIP3    H228556   4.691   2.637   6.609 -0.4372 -1.4446 -1.0315
 2333TIP3   OH228557   4.389   5.068   7.724 -0.1475  0.2720 -0.0929
 2333TIP3    H128558   4.374   5.114   7.642  2.2518  0.6052 -0.4114
 2333TIP3    H228559   4.457   5.004   7.704  2.2048  1.9175  2.0848
 2334TIP3   OH228560   4.836   0.498   6.289 -0.5626  0.0120  0.0082
 2334TIP3    H128561   4.920   0.494   6.334 -0.5433  1.9682  0.1945
 2334TIP3    H228562   4.780   0.437   6.338  0.6495 -1.1454  0.0114
 2335TIP3   OH228563   0.367   5.715   8.232  0.2610  0.1049  0.2022
 2335TIP3    H128564   0.450   5.755   8.206 -0.3027  0.9333 -0.3716
 2335TIP3    H228565   0.391   5.628   8.262  1.4832  0.7468  1.1689
 2336TIP3   OH228566   2.857   5.893   0.597 -0.0753  0.2087  0.3125
 2336TIP3    H128567   2.830   5.802   0.587 -0.5950  0.2672  1.1220
 2336TIP3    H228568   2.876   5.922   0.508 -0.4886 -0.5104 -0.0207
 2337TIP3   OH228569   0.153   4.684   1.255 -0.2614  0.1653 -0.0719
 2337TIP3    H128570   0.204   4.755   1.294 -2.1001  1.1623  0.6388
 2337TIP3    H228571   0.071   4.682   1.305 -1.1829 -0.9834 -1.5191
 2338TIP3   OH228572   2.484   2.127   1.068  0.5055 -0.1623 -0.4205
 2338TIP3    H128573   2.543   2.187   1.115  0.2787 -1.0008  0.9891
 2338TIP3    H228574   2.540   2.085   1.003  1.3731 -0.5769  0.5654
 2339TIP3   OH228575   4.818   2.195   0.262  0.3441 -0.2379  0.0499
 2339TIP3    H128576   4.875   2.167   0.190  0.6595  2.7385 -0.9995
 2339TIP3    H228577   4.866   2.172   0.341 -0.4885 -4.6129 -0.4707
 2340TIP3   OH228578   4.607   4.524   0.269  0.1016  0.0421  0.4620
 2340TIP3    H128579   4.623   4.615   0.295  1.3998  0.0016 -0.1226
 2340TIP3    H228580   4.607   4.526   0.174  2.7941 -0.9246  0.3523
 2341TIP3   OH228581   0.573   1.679   7.792  0.2330  0.4969 -0.4606
 2341TIP3    H128582   0.599   1.596   7.833  0.4947  0.0499 -1.4912
 2341TIP3    H228583   0.512   1.653   7.723 -0.9247  1.3118  0.2179
 2342TIP3   OH228584   6.827   2.175   8.246  0.3568 -0.0372  0.2414
 2342TIP3    H128585   6.769   2.135   8.311 -0.1895  0.4806  0.0766
 2342TIP3    H228586   6.890   2.224   8.298  0.6562 -0.6047  0.4236
 2343TIP3   OH228587   2.193   6.006   1.248 -0.6287 -0.3851 -0.1401
 2343TIP3    H128588   2.259   6.046   1.191 -0.5075 -1.5861 -0.8830
 2343TIP3    H228589   2.164   5.928   1.201 -1.0287 -1.0453  1.1337
 2344TIP3   OH228590   4.116   6.155   0.936 -0.5638  0.2325 -0.0153
 2344TIP3    H128591   4.210   6.139   0.940 -0.7702 -0.9866  0.8110
 2344TIP3    H228592   4.092   6.133   0.846 -0.3842 -1.7038  0.3667
 2345TIP3   OH228593   5.839   0.987   1.062 -0.0635 -0.8534 -0.4386
 2345TIP3    H128594   5.774   1.017   1.125  0.2864  1.3415 -1.0237
 2345TIP3    H228595   5.918   0.973   1.114 -0.2684 -0.8333 -0.1229
 2346TIP3   OH228596   3.371   1.912   1.599  0.0741 -0.1133 -0.0142
 2346TIP3    H128597   3.297   1.962   1.632 -0.5556 -0.2998 -1.0953
 2346TIP3    H228598   3.357   1.824   1.633  0.0324 -0.0420  0.1507
 2347TIP3   OH228599   3.008   2.179   0.306  0.4262  0.3642 -0.2573
 2347TIP3    H128600   3.001   2.153   0.398 -1.5865  1.9174  0.1266
 2347TIP3    H228601   3.022   2.098   0.258 -1.8254 -0.9622  1.1491
 2348TIP3   OH228602   6.454   5.290   1.219 -0.2860  0.0984  0.1825
 2348TIP3    H128603   6.465   5.207   1.266  0.9345  0.0546 -0.1310
 2348TIP3    H228604   6.421   5.350   1.286  0.1551 -0.2942  0.7741
 2349TIP3   OH228605   2.784   1.723   0.704  0.7374  0.5648 -0.2132
 2349TIP3    H128606   2.866   1.718   0.753  0.6716 -1.9679 -0.2540
 2349TIP3    H228607   2.779   1.640   0.657 -1.3213  1.1356 -1.0948
 2350TIP3   OH228608   3.335   6.172   1.018  0.1082  0.0945  0.7353
 2350TIP3    H128609   3.270   6.163   1.088  0.9359  0.9454  1.6453
 2350TIP3    H228610   3.404   6.109   1.041  1.1945  1.5581  1.6696
 2351TIP3   OH228611   2.961   0.639   1.704  0.4255  0.6772  0.0658
 2351TIP3    H128612   2.980   0.733   1.698  2.8720  0.1600 -2.3583
 2351TIP3    H228613   2.925   0.616   1.618 -0.7659 -0.5420  0.8443
 2352TIP3   OH228614   3.702   1.041   6.157 -0.1034 -0.2426  0.1970
 2352TIP3    H128615   3.642   1.064   6.228 -0.7967  0.5236 -0.6011
 2352TIP3    H228616   3.785   1.082   6.181 -0.1352 -0.5794  0.8962
 2353TIP3   OH228617   5.104   4.145   8.267 -0.0336  0.5881 -0.1510
 2353TIP3    H128618   5.143   4.147   8.355  2.1081  0.3582 -1.0452
 2353TIP3    H228619   5.014   4.174   8.281  0.2682  0.6547  2.1051
 2354TIP3   OH228620   0.182   2.491   7.798 -0.1044 -0.4616 -0.4907
 2354TIP3    H128621   0.178   2.405   7.756  0.6497 -1.5741  1.5952
 2354TIP3    H228622   0.155   2.476   7.888  0.4209  1.4299  0.0355
 2355TIP3   OH228623   5.219   2.352   1.426 -0.2256 -0.1374  0.3319
 2355TIP3    H128624   5.186   2.366   1.515 -0.1548 -1.4712  0.6008
 2355TIP3    H228625   5.144   2.368   1.370 -0.8667 -1.3055  0.8065
 2356TIP3   OH228626   4.102   0.950   8.056 -0.1596 -0.7514  0.0418
 2356TIP3    H128627   4.043   0.993   8.118  0.5688 -0.2564  0.4016
 2356TIP3    H228628   4.111   1.012   7.984  0.8803 -0.2962  0.5538
 2357TIP3   OH228629   2.834   4.762   1.047 -0.3542  0.0460  0.1037
 2357TIP3    H128630   2.904   4.714   1.092 -1.1762 -0.2868  1.0786
 2357TIP3    H228631   2.819   4.839   1.102  0.6090  1.1970 -1.1834
 2358TIP3   OH228632   4.641   3.609   2.038  0.0370 -0.5392 -0.0385
 2358TIP3    H128633   4.548   3.614   2.015  0.0502  3.3504  0.0143
 2358TIP3    H228634   4.650   3.527   2.086 -3.1760 -1.4564 -0.7832
 2359TIP3   OH228635   3.254   6.218   0.607 -0.3063 -0.2418  0.5637
 2359TIP3    H128636   3.294   6.265   0.534 -1.3158 -0.0357  0.1272
 2359TIP3    H228637   3.159   6.230   0.594 -0.5011  0.5779  2.3957
 2360TIP3   OH228638   0.340   1.315   0.707 -0.1092  0.0998  0.2109
 2360TIP3    H128639   0.253   1.276   0.705 -0.0569 -0.0686  0.8319
 2360TIP3    H228640   0.324   1.409   0.718 -0.2160  0.0912  0.1265
 2361TIP3   OH228641   1.279   6.527   0.526  0.3296  0.0703  0.0104
 2361TIP3    H128642   1.374   6.532   0.514  0.2560 -1.3961 -1.5814
 2361TIP3    H228643   1.252   6.451   0.474 -1.7243  0.4316  0.4525
 2362TIP3   OH228644   4.481   0.257   6.683  0.4868  0.0391 -0.0201
 2362TIP3    H128645   4.467   0.165   6.706 -0.0475  0.2002  0.3348
 2362TIP3    H228646   4.418   0.305   6.738 -0.4767  0.4898 -1.4605
 2363TIP3   OH228647   0.796   5.580   1.824 -0.3915 -0.0592 -0.8001
 2363TIP3    H128648   0.805   5.588   1.918  2.2837  1.9310 -1.1014
 2363TIP3    H228649   0.708   5.612   1.805  0.0368  2.2586  0.8067
 2364TIP3   OH228650   5.367   6.765   2.530 -0.0256 -0.0862 -0.5490
 2364TIP3    H128651   5.380   6.704   2.602  0.7151  1.3216  0.5589
 2364TIP3    H228652   5.276   6.750   2.502 -1.0220  0.6875  2.0013
 2365TIP3   OH228653   1.292   5.918   7.719  0.1946 -0.0423 -0.3737
 2365TIP3    H128654   1.309   5.894   7.810 -0.3624 -0.0105 -0.2563
 2365TIP3    H228655   1.199   5.939   7.717  0.1568 -0.2495 -1.0003
 2366TIP3   OH228656   1.169   2.025   1.514  0.0821  0.2602  0.0985
 2366TIP3    H128657   1.147   2.108   1.471  1.3987  0.6194  0.0638
 2366TIP3    H228658   1.153   1.958   1.447 -0.4501  0.5406 -0.0585
 2367TIP3   OH228659   2.422   6.447   7.851  0.0107 -0.1290 -1.2082
 2367TIP3    H128660   2.337   6.420   7.885 -0.7444 -0.3875 -3.2093
 2367TIP3    H228661   2.441   6.529   7.897 -1.3590 -0.0187 -0.7969
 2368TIP3   OH228662   2.559   3.451   8.636  0.1077 -0.8608 -0.0491
 2368TIP3    H128663   2.538   3.517   8.702  1.7947 -0.0099 -0.3088
 2368TIP3    H228664   2.532   3.490   8.553  0.6067 -0.7258 -0.1481
 2369TIP3   OH228665   6.849   4.298   1.314  0.0507 -0.2417 -0.0983
 2369TIP3    H128666   6.830   4.392   1.308  0.6027 -0.0323  1.1222
 2369TIP3    H228667   6.836   4.277   1.407 -1.8043 -1.7710 -0.6441
 2370TIP3   OH228668   5.993   2.184   0.104 -0.0666 -0.3029  0.2816
 2370TIP3    H128669   5.985   2.161   0.011 -1.3703 -0.3646  0.3795
 2370TIP3    H228670   6.002   2.279   0.104  3.2287 -0.5254 -0.0280
 2371TIP3   OH228671   6.681   0.384   1.581 -0.0829 -0.4643 -0.0837
 2371TIP3    H128672   6.733   0.428   1.648  2.3544 -2.0041 -0.8423
 2371TIP3    H228673   6.680   0.292   1.608 -0.1655 -0.8943 -1.4656
 2372TIP3   OH228674   6.468   4.057   7.411 -0.2110 -0.2183 -0.7309
 2372TIP3    H128675   6.440   4.056   7.319  0.5437  0.4030 -0.9828
 2372TIP3    H228676   6.563   4.048   7.407 -0.1728 -0.1805 -0.0098
 2373TIP3   OH228677   2.063   6.052   1.932  0.3460 -0.0252  0.0263
 2373TIP3    H128678   2.093   6.029   1.844 -0.2370 -1.0404  0.0703
 2373TIP3    H228679   2.143   6.068   1.982  0.7624 -1.0110 -0.2940
 2374TIP3   OH228680   5.118   2.686   7.357  0.1006  0.2986  0.6830
 2374TIP3    H128681   5.139   2.752   7.290 -0.9536  0.1829  0.2177
 2374TIP3    H228682   5.138   2.603   7.315  0.4261  0.2635  0.8986
 2375TIP3   OH228683   4.046   6.649   2.170 -0.3471 -0.4853  0.5747
 2375TIP3    H128684   4.103   6.574   2.189 -1.0388 -1.3844 -0.7652
 2375TIP3    H228685   4.106   6.721   2.152  0.3432 -0.3481  3.0201
 2376TIP3   OH228686   3.997   1.711   8.335  0.1054 -0.1951 -0.3549
 2376TIP3    H128687   3.935   1.725   8.264 -1.3554  1.9444  1.2181
 2376TIP3    H228688   3.943   1.694   8.412  1.5280  0.1881  0.7795
 2377TIP3   OH228689   4.698   3.655   0.312  0.7072 -0.0826 -0.2674
 2377TIP3    H128690   4.712   3.592   0.383  0.0741 -0.1395 -0.1914
 2377TIP3    H228691   4.775   3.645   0.256  1.8070  0.7738  1.0175
 2378TIP3   OH228692   0.731   0.259   0.513 -0.3716  0.0591  0.0529
 2378TIP3    H128693   0.769   0.344   0.492 -0.3566  0.5508  1.8526
 2378TIP3    H228694   0.765   0.200   0.446  1.5334  0.9965  0.1200
 2379TIP3   OH228695   5.835   0.147   0.999 -0.4716 -0.1805 -0.4641
 2379TIP3    H128696   5.746   0.178   0.983 -0.5421  0.3310  0.7704
 2379TIP3    H228697   5.891   0.212   0.955 -0.6134  1.9251  2.2043
 2380TIP3   OH228698   1.949   1.926   0.152  0.0844  0.3953 -0.0101
 2380TIP3    H128699   1.959   2.010   0.195  0.8191  0.7472 -0.8321
 2380TIP3    H228700   1.962   1.861   0.221  1.9176  0.9351  0.1916
 2381TIP3   OH228701   1.371   1.875   1.905 -0.3827 -0.1109 -0.2481
 2381TIP3    H128702   1.364   1.784   1.935 -0.2183  0.1966  0.7500
 2381TIP3    H228703   1.294   1.887   1.849  0.8301 -1.5703 -2.4045
 2382TIP3   OH228704   5.570   1.886   2.361 -0.1864 -0.3114 -0.6332
 2382TIP3    H128705   5.599   1.978   2.359 -0.3600 -0.2616 -0.9154
 2382TIP3    H228706   5.651   1.836   2.373 -0.3156 -0.0044  1.9648
 2383TIP3   OH228707   5.174   6.422   1.407 -0.1908 -0.4373 -0.2256
 2383TIP3    H128708   5.196   6.337   1.445 -1.9453 -0.5265  0.6377
 2383TIP3    H228709   5.256   6.471   1.412  0.2004 -1.2005  1.6421
 2384TIP3   OH228710   5.794   5.611   0.816 -0.0643 -0.4483 -0.4375
 2384TIP3    H128711   5.882   5.584   0.842  0.0562 -1.2418 -1.5939
 2384TIP3    H228712   5.780   5.571   0.730 -1.1720  0.4910 -0.7356
 2385TIP3   OH228713   5.452   3.356   7.634 -0.4134 -0.1486 -0.0023
 2385TIP3    H128714   5.414   3.405   7.707 -1.3486  0.6318 -0.9713
 2385TIP3    H228715   5.388   3.286   7.618 -0.4273 -0.0602 -0.3346
 2386TIP3   OH228716   6.509   2.028   1.149  0.1867  0.2683  0.1943
 2386TIP3    H128717   6.473   2.032   1.061 -0.3497 -0.5873  0.3649
 2386TIP3    H228718   6.600   2.000   1.137  0.7423  2.0808 -0.2089
 2387TIP3   OH228719   0.428   2.866   8.206 -0.2707  0.4790 -0.2114
 2387TIP3    H128720   0.355   2.887   8.148 -0.3743  1.0430  0.1106
 2387TIP3    H228721   0.429   2.771   8.211 -0.0411  0.4016 -1.4071
 2388TIP3   OH228722   6.403   6.248   7.813  0.3983 -0.0837 -0.1113
 2388TIP3    H128723   6.493   6.216   7.825 -0.1504 -1.6340  0.0446
 2388TIP3    H228724   6.373   6.271   7.901  0.6434  0.4794 -0.1689
 2389TIP3   OH228725   1.895   2.028   8.386  0.7373 -0.5313 -0.7781
 2389TIP3    H128726   1.854   2.108   8.419  2.7627  0.6793 -1.0045
 2389TIP3    H228727   1.985   2.033   8.418  1.4265 -1.7744 -2.3903
 2390TIP3   OH228728   3.990   2.898   1.908 -0.4645 -0.2957  0.1251
 2390TIP3    H128729   3.986   2.811   1.869 -0.3627 -0.8977  1.4201
 2390TIP3    H228730   3.908   2.906   1.957 -1.3977  1.1306 -1.5346
 2391TIP3   OH228731   4.927   1.724   7.975 -0.4773  0.6636  0.1250
 2391TIP3    H128732   4.981   1.651   8.004  0.6557  1.1876 -0.6012
 2391TIP3    H228733   4.838   1.687   7.969 -0.6986  0.3500  3.4804
 2392TIP3   OH228734   3.556   6.621   8.231  0.1025  0.3203 -0.4893
 2392TIP3    H128735   3.496   6.674   8.283 -1.6976 -1.4272 -0.6621
 2392TIP3    H228736   3.552   6.659   8.144 -1.7635 -0.4873 -0.7956
 2393TIP3   OH228737   2.627   5.387   6.452  0.6418 -0.2576 -0.1066
 2393TIP3    H128738   2.698   5.379   6.515  1.3170  1.8222 -0.4988
 2393TIP3    H228739   2.667   5.368   6.367  0.4768 -0.1321 -0.2137
 2394TIP3   OH228740   1.636   6.867   0.466 -0.1311 -0.1337 -0.5738
 2394TIP3    H128741   1.693   6.944   0.457 -0.7328  0.3855 -0.0466
 2394TIP3    H228742   1.603   6.872   0.555  0.7033 -1.6510 -0.1521
 2395TIP3   OH228743   4.817   4.045   8.401  0.3839  0.5659  0.3954
 2395TIP3    H128744   4.757   4.090   8.461  0.2406  0.9559 -0.0363
 2395TIP3    H228745   4.887   4.012   8.457 -0.0686  0.3779  0.8664
 2396TIP3   OH228746   1.941   4.795   6.528  0.5160 -0.2718  0.1511
 2396TIP3    H128747   2.004   4.868   6.530  0.3548  0.0484 -2.4353
 2396TIP3    H228748   1.900   4.796   6.614  3.9042 -0.3999  1.9310
 2397TIP3   OH228749   5.569   5.583   7.682 -0.1197 -0.4071  0.2353
 2397TIP3    H128750   5.656   5.546   7.669 -0.2671  0.0444 -2.8925
 2397TIP3    H228751   5.577   5.638   7.760  2.0167 -1.4188  0.7746
 2398TIP3   OH228752   6.464   4.365   1.874 -0.3519  0.2910  0.4050
 2398TIP3    H128753   6.437   4.389   1.963 -1.0842 -0.7085  0.4661
 2398TIP3    H228754   6.532   4.298   1.887 -0.5913  0.0086  0.2123
 2399TIP3   OH228755   6.322   4.849   1.371 -0.2948 -0.2162  0.1110
 2399TIP3    H128756   6.373   4.768   1.381  2.1955  1.3229  0.8966
 2399TIP3    H228757   6.375   4.916   1.415 -2.2117  1.8788 -0.5810
 2400TIP3   OH228758   6.648   5.931   2.387  0.1194 -0.0009  0.0247
 2400TIP3    H128759   6.568   5.890   2.354 -1.2282  1.6258  1.0802
 2400TIP3    H228760   6.672   5.880   2.464 -1.5829  1.1186  1.3754
 2401TIP3   OH228761   3.812   1.651   6.934 -0.1355  0.0379  0.3691
 2401TIP3    H128762   3.813   1.568   6.887  1.3053 -0.8412  1.8856
 2401TIP3    H228763   3.875   1.706   6.887 -0.3712 -0.0362 -0.0442
 2402TIP3   OH228764   6.821   1.338   8.004  0.2094  0.1275 -0.4070
 2402TIP3    H128765   6.750   1.399   7.988  1.4602  1.8421  0.2738
 2402TIP3    H228766   6.901   1.391   8.000  1.3109 -1.3026  0.9665
 2403TIP3   OH228767   4.936   3.377   1.468 -0.7707  0.1822 -0.1935
 2403TIP3    H128768   4.951   3.299   1.523 -1.4650  1.1498  1.4237
 2403TIP3    H228769   4.851   3.362   1.427 -0.0753 -0.7238 -1.3866
 2404TIP3   OH228770   5.320   1.034   8.210 -0.0514 -0.5188 -1.0197
 2404TIP3    H128771   5.230   1.049   8.182 -0.1828  1.7357  0.3373
 2404TIP3    H228772   5.312   0.969   8.280 -0.6521 -0.2214 -0.8015
 2405TIP3   OH228773   4.025   3.131   8.311  0.1179 -0.0169 -0.0951
 2405TIP3    H128774   3.977   3.064   8.262  0.0341  0.4868 -0.7160
 2405TIP3    H228775   4.001   3.214   8.269  1.4197  0.2687 -0.3351
 2406TIP3   OH228776   6.464   2.543   7.610 -0.2915 -0.2528 -0.5594
 2406TIP3    H128777   6.414   2.614   7.571 -0.6052 -0.0799  0.1299
 2406TIP3    H228778   6.490   2.488   7.537  1.2349  1.3511 -1.2775
 2407TIP3   OH228779   5.133   0.100   0.140  0.5793 -0.2897  0.1264
 2407TIP3    H128780   5.056   0.090   0.196  1.7233 -0.1927  1.8108
 2407TIP3    H228781   5.134   0.022   0.086 -0.0758 -0.8533  0.9037
 2408TIP3   OH228782   3.486   0.107   2.239  0.0617 -0.1491 -0.3135
 2408TIP3    H128783   3.534   0.112   2.322  0.8924  1.2698 -0.8577
 2408TIP3    H228784   3.440   0.023   2.244  0.0554 -0.0870  1.5973
 2409TIP3   OH228785   6.321   0.476   2.044 -0.0246 -0.4366 -0.4130
 2409TIP3    H128786   6.324   0.381   2.033  0.4037 -0.3795 -0.7913
 2409TIP3    H228787   6.409   0.500   2.073  0.2386 -0.0086 -1.5411
 2410TIP3   OH228788   4.525   4.580   7.559  0.2015  0.0396 -0.4826
 2410TIP3    H128789   4.556   4.588   7.468 -0.3257  2.5041 -0.5309
 2410TIP3    H228790   4.565   4.655   7.604 -1.1571  0.0337  0.8080
 2411TIP3   OH228791   0.098   4.467   8.331  0.5169 -0.3365 -0.3156
 2411TIP3    H128792   0.182   4.506   8.356  0.6773 -0.6314 -0.3798
 2411TIP3    H228793   0.033   4.515   8.382  0.8694 -1.2418  1.0519
 2412TIP3   OH228794   4.112   5.131   7.876 -0.1223  0.4296 -0.4063
 2412TIP3    H128795   4.109   5.200   7.809  0.9355  0.0079 -0.9040
 2412TIP3    H228796   4.205   5.109   7.884 -0.3494 -0.2898  0.4308
 2413TIP3   OH228797   1.939   2.521   1.090  0.0152 -0.0060 -0.2970
 2413TIP3    H128798   1.854   2.506   1.048 -0.7253 -0.6538  1.3395
 2413TIP3    H228799   1.964   2.436   1.125  0.4365  0.5645  0.8229
 2414TIP3   OH228800   5.250   5.498   8.042 -0.0657 -0.2095 -0.5360
 2414TIP3    H128801   5.188   5.477   7.972 -1.0508 -2.5110  0.9343
 2414TIP3    H228802   5.198   5.499   8.121  1.5957 -1.2988  0.6471
 2415TIP3   OH228803   3.754   0.293   6.835  0.1563  0.0123  0.1960
 2415TIP3    H128804   3.747   0.338   6.919  1.2189 -0.5117  0.5882
 2415TIP3    H228805   3.732   0.359   6.770 -0.1342  0.5770  0.8584
 2416TIP3   OH228806   6.129   0.028   7.776  0.0815 -0.3638  0.3938
 2416TIP3    H128807   6.084   0.072   7.848 -0.2829  0.6291 -0.4102
 2416TIP3    H228808   6.170  -0.049   7.816  2.6549  1.8404  2.3785
 2417TIP3   OH228809   0.151   3.962   1.583  0.0241  0.6266  0.2470
 2417TIP3    H128810   0.147   4.055   1.604  1.8115  0.9183 -0.4953
 2417TIP3    H228811   0.123   3.918   1.663 -0.4342  1.8006  0.7439
 2418TIP3   OH228812   0.816   3.919   7.123  0.7671 -0.1916  0.1937
 2418TIP3    H128813   0.837   3.825   7.125  0.8825 -0.1785 -0.1679
 2418TIP3    H228814   0.724   3.923   7.097  0.3669 -0.2424  1.5616
 2419TIP3   OH228815   4.022   6.551   8.352  0.4083 -0.2323 -0.1942
 2419TIP3    H128816   3.932   6.520   8.344  0.5314 -0.2330 -2.3951
 2419TIP3    H228817   4.052   6.519   8.437 -2.1671  1.1736  1.3605
 2420TIP3   OH228818   6.470   3.946   0.572 -0.0777  0.0765 -0.6743
 2420TIP3    H128819   6.401   3.886   0.544  0.1277  0.1693 -1.3918
 2420TIP3    H228820   6.527   3.892   0.627  1.0557 -0.8762 -2.6862
 2421TIP3   OH228821   1.498   5.183   6.107 -0.1337  0.2858  0.4976
 2421TIP3    H128822   1.458   5.146   6.186  0.7043 -1.5865  0.1105
 2421TIP3    H228823   1.592   5.173   6.122  0.0181 -0.9470 -1.1036
 2422TIP3   OH228824   5.204   5.670   8.382 -0.0732  0.1427 -0.2268
 2422TIP3    H128825   5.129   5.710   8.427  0.7330  1.3154  0.1372
 2422TIP3    H228826   5.174   5.582   8.359 -1.4370  0.4590  0.2169
 2423TIP3   OH228827   1.947   6.616   7.615  0.5192  0.7034 -0.6984
 2423TIP3    H128828   1.955   6.711   7.624  2.0055  0.5231  0.1463
 2423TIP3    H228829   1.902   6.588   7.695 -0.8768  0.7645 -1.4171
 2424TIP3   OH228830   1.269   5.384   1.542 -0.0463 -0.1566  0.2145
 2424TIP3    H128831   1.288   5.315   1.606 -0.1812 -0.0546  0.3654
 2424TIP3    H228832   1.354   5.419   1.519  0.1159 -1.0825 -0.6555
 2425TIP3   OH228833   4.987   4.178   2.919  0.4589 -0.1589 -0.6878
 2425TIP3    H128834   5.027   4.196   2.834  1.2791 -2.5653 -0.9032
 2425TIP3    H228835   4.941   4.095   2.907  0.4155 -0.4566  1.1504
 2426TIP3   OH228836   0.587   6.476   1.721  0.1833  0.4999  0.2869
 2426TIP3    H128837   0.499   6.501   1.693 -0.9741 -4.0781 -1.0328
 2426TIP3    H228838   0.631   6.450   1.640  0.9509 -1.9229  1.4030
 2427TIP3   OH228839   3.476   6.380   7.693  0.9805  0.5584 -0.0574
 2427TIP3    H128840   3.496   6.336   7.776 -0.9482 -1.2728 -0.4731
 2427TIP3    H228841   3.395   6.428   7.711 -0.3793 -1.1853 -1.2422
 2428TIP3   OH228842   4.397   6.156   8.155  0.0087  0.3588 -0.5031
 2428TIP3    H128843   4.467   6.219   8.175  0.4863 -0.1144 -0.6533
 2428TIP3    H228844   4.317   6.199   8.184  0.3807  0.8548 -0.1949
 2429TIP3   OH228845   0.105   4.857   8.173 -0.4498 -0.0459 -0.4141
 2429TIP3    H128846   0.186   4.834   8.219 -0.0035 -0.0731 -1.1977
 2429TIP3    H228847   0.040   4.865   8.243  0.3878  0.7124  0.3043
 2430TIP3   OH228848   4.456   1.605   7.056  0.2405 -0.3902 -0.5148
 2430TIP3    H128849   4.411   1.521   7.053  1.1996 -0.9279 -0.3944
 2430TIP3    H228850   4.386   1.670   7.068 -0.5611 -1.1095 -1.1858
 2431TIP3   OH228851   0.485   0.974   6.969 -0.3667  0.2926 -0.2222
 2431TIP3    H128852   0.509   0.923   7.046 -0.7336 -0.7039 -0.7553
 2431TIP3    H228853   0.467   0.909   6.902 -2.3716  1.0593 -0.4863
 2432TIP3   OH228854   0.131   4.581   8.042 -0.2320 -0.9153  0.1478
 2432TIP3    H128855   0.099   4.535   8.120  0.3663  0.6570  1.3948
 2432TIP3    H228856   0.085   4.665   8.043 -1.2397 -1.3685 -2.0141
 2433TIP3   OH228857   1.604   2.545   8.588  0.6001 -0.0423  0.3906
 2433TIP3    H128858   1.612   2.460   8.632  3.2782 -0.0278  0.0875
 2433TIP3    H228859   1.603   2.609   8.659  1.7590 -0.1778  0.5402
 2434TIP3   OH228860   2.154   0.887   7.824  0.2116 -0.2626 -0.0632
 2434TIP3    H128861   2.221   0.819   7.814 -0.9293 -1.8192  2.0358
 2434TIP3    H228862   2.173   0.926   7.909  0.3096  1.4996 -0.8539
 2435TIP3   OH228863   4.228   3.865   0.764  0.3263 -0.1258 -0.1225
 2435TIP3    H128864   4.246   3.953   0.731  1.4598 -0.3330 -0.1164
 2435TIP3    H228865   4.186   3.820   0.692 -0.0894  0.3588 -0.1922
 2436TIP3   OH228866   1.205   0.726   7.868 -0.6595 -0.7124  0.7089
 2436TIP3    H128867   1.294   0.691   7.876 -0.6783 -0.5263  2.0566
 2436TIP3    H228868   1.201   0.764   7.780 -0.3919 -3.3590 -0.5289
 2437TIP3   OH228869   0.347   4.066   7.835  0.1428  0.1353 -0.1090
 2437TIP3    H128870   0.253   4.048   7.824  0.6294 -3.1381  0.1562
 2437TIP3    H228871   0.377   4.091   7.748 -0.6934 -0.3353 -0.5459
 2438TIP3   OH228872   6.621   0.728   8.629  0.1208  0.4140  0.2611
 2438TIP3    H128873   6.555   0.660   8.642 -1.4000  1.5018 -1.3692
 2438TIP3    H228874   6.672   0.699   8.554  0.3248  0.4505  0.3849
 2439TIP3   OH228875   5.265   2.443   0.548 -0.3168  0.1297 -0.2454
 2439TIP3    H128876   5.290   2.452   0.455 -0.8138 -2.5535 -0.7235
 2439TIP3    H228877   5.311   2.364   0.577  1.0036  1.7175  2.2843
 2440TIP3   OH228878   2.093   5.131   8.358  0.1567 -0.2559  0.1482
 2440TIP3    H128879   2.027   5.062   8.358 -0.7338  0.4506  3.3460
 2440TIP3    H228880   2.048   5.207   8.321 -0.3129 -0.2106  0.8031
 2441TIP3   OH228881   0.996   6.554   0.515  0.1529 -0.1456  0.1999
 2441TIP3    H128882   0.946   6.541   0.595 -0.4989 -3.1602 -0.5785
 2441TIP3    H228883   1.078   6.595   0.545 -0.8615  0.6272  2.0955
 2442TIP3   OH228884   2.613   3.834   2.398 -0.0767 -0.6813  0.4720
 2442TIP3    H128885   2.649   3.873   2.318 -2.5238 -0.7627 -0.7634
 2442TIP3    H228886   2.588   3.909   2.451  1.6314 -0.6263  1.2395
 2443TIP3   OH228887   6.853   3.136   7.833  0.2804 -0.2998  0.6549
 2443TIP3    H128888   6.865   3.106   7.743  2.3235  0.1963  0.7106
 2443TIP3    H228889   6.933   3.184   7.854 -0.7156  0.7773  2.2987
 2444TIP3   OH228890   2.233   2.712   1.560 -0.2122 -0.2916  0.1086
 2444TIP3    H128891   2.212   2.730   1.652 -0.0081  0.5187  0.0056
 2444TIP3    H228892   2.306   2.650   1.564  0.7654  0.8528  0.5203
 2445TIP3   OH228893   3.890   2.631   8.520  0.6997  0.4750  0.3731
 2445TIP3    H128894   3.856   2.697   8.581 -0.3438  0.3300 -0.0298
 2445TIP3    H228895   3.968   2.672   8.481 -0.6568  2.0353 -0.8412
 2446TIP3   OH228896   5.146   6.736   8.565 -0.0436  0.1243 -0.0134
 2446TIP3    H128897   5.241   6.740   8.557 -0.1168  1.4182 -0.5153
 2446TIP3    H228898   5.113   6.784   8.489 -1.1860 -2.5984 -1.3918
 2447TIP3   OH228899   0.582   1.172   0.753 -0.3888 -0.7849 -0.1020
 2447TIP3    H128900   0.612   1.239   0.815  0.7911 -0.6260 -0.8257
 2447TIP3    H228901   0.490   1.194   0.737  0.1381  1.0953 -0.8380
 2448TIP3   OH228902   1.084   3.035   8.371  0.6662  0.2726  0.4738
 2448TIP3    H128903   1.029   2.995   8.303  0.4993  2.8753 -1.0401
 2448TIP3    H228904   1.172   3.002   8.354  0.4145 -0.0475 -0.2380
 2449TIP3   OH228905   2.883   0.826   1.150 -0.1558  0.0127  0.3348
 2449TIP3    H128906   2.886   0.915   1.187 -1.7994  0.1918  0.1290
 2449TIP3    H228907   2.974   0.805   1.131  0.2799  1.6576  0.4084
 2450TIP3   OH228908   0.834   0.081   1.411  0.8381  0.2743  0.1597
 2450TIP3    H128909   0.844   0.072   1.505  1.8358  0.7874  0.1214
 2450TIP3    H228910   0.770   0.152   1.400 -0.8563 -1.1414  0.4254
 2451TIP3   OH228911   4.750   2.807   8.333  0.5495 -0.3415  0.3863
 2451TIP3    H128912   4.710   2.749   8.398 -2.8322  0.3803 -0.8428
 2451TIP3    H228913   4.772   2.750   8.259  0.2472 -0.5304  0.4422
 2452TIP3   OH228914   2.430   5.516   7.677 -0.2601  0.1755 -0.2790
 2452TIP3    H128915   2.406   5.593   7.626  0.3201  0.5451 -0.0021
 2452TIP3    H228916   2.475   5.459   7.614 -0.4115  0.1970 -0.4087
 2453TIP3   OH228917   6.024   4.940   8.575 -0.6095 -0.5171 -0.0700
 2453TIP3    H128918   6.021   4.987   8.659 -1.5103 -0.6192 -0.0446
 2453TIP3    H228919   6.107   4.892   8.578 -0.4839 -0.2716  0.6285
 2454TIP3   OH228920   6.713   6.137   7.270 -0.1033  0.3120  0.3619
 2454TIP3    H128921   6.805   6.162   7.270  0.3985 -1.4247  0.5943
 2454TIP3    H228922   6.703   6.078   7.344 -1.1380 -0.4139 -0.3176
 2455TIP3   OH228923   5.032   4.649   0.682  0.3044 -0.0886 -0.2086
 2455TIP3    H128924   5.024   4.596   0.761 -0.4552 -0.4553 -0.5178
 2455TIP3    H228925   5.027   4.740   0.712  0.7930 -0.2076  0.2384
 2456TIP3   OH228926   1.037   2.671   0.540  0.2838  0.4666  0.1566
 2456TIP3    H128927   1.039   2.623   0.457 -2.1135 -0.6897  0.6925
 2456TIP3    H228928   1.095   2.621   0.597  0.0407 -0.1421 -0.1208
 2457TIP3   OH228929   5.766   2.036   2.054 -0.0176 -0.0518  0.2537
 2457TIP3    H128930   5.672   2.057   2.056 -0.0552  0.2213 -1.9345
 2457TIP3    H228931   5.810   2.120   2.054  0.1283 -0.1136 -0.4958
 2458TIP3   OH228932   5.924   1.572   0.864 -0.0600  0.0390 -0.0667
 2458TIP3    H128933   6.002   1.525   0.891 -0.6533  0.2295  2.2601
 2458TIP3    H228934   5.945   1.664   0.878 -0.0628  0.2436 -1.3045
 2459TIP3   OH228935   6.787   4.018   7.097 -0.3450 -0.3610  0.0593
 2459TIP3    H128936   6.755   4.039   7.009  1.3862 -0.0677 -0.5359
 2459TIP3    H228937   6.708   3.994   7.146 -1.5051  0.7561 -1.1913
 2460TIP3   OH228938   5.136   1.436   0.941 -0.0604 -0.3135 -0.5236
 2460TIP3    H128939   5.055   1.404   0.902 -0.5839  0.6540 -0.2659
 2460TIP3    H228940   5.113   1.522   0.977  0.3802 -1.1259  1.9117
 2461TIP3   OH228941   5.412   0.779   7.612  0.2052 -0.4455 -0.6720
 2461TIP3    H128942   5.321   0.800   7.592  0.9425  2.7212 -1.2370
 2461TIP3    H228943   5.419   0.787   7.707 -0.1303 -0.9005 -0.6063
 2462TIP3   OH228944   3.218   5.847   7.612  0.1858  0.1935  0.5095
 2462TIP3    H128945   3.222   5.801   7.695  0.0135 -2.7294 -0.9783
 2462TIP3    H228946   3.306   5.839   7.575 -0.1176  0.1595 -0.2321
 2463TIP3   OH228947   3.641   6.713   0.798  0.2912 -0.6591  0.2426
 2463TIP3    H128948   3.727   6.689   0.831  0.3950 -1.2579 -0.4494
 2463TIP3    H228949   3.626   6.655   0.723 -0.8802 -0.8557  0.6005
 2464TIP3   OH228950   4.216   6.138   0.461  0.1512  0.5524 -0.0783
 2464TIP3    H128951   4.150   6.206   0.470 -0.5086 -0.2290  1.2301
 2464TIP3    H228952   4.255   6.131   0.548  0.6455 -0.3111 -0.3568
 2465TIP3   OH228953   1.290   0.236   7.289  0.1365  0.4528  0.1784
 2465TIP3    H128954   1.247   0.303   7.342 -1.5059 -0.4756  0.0684
 2465TIP3    H228955   1.261   0.153   7.327  1.8187 -0.2279  0.0633
 2466TIP3   OH228956   3.110   0.147   8.582  0.0904  0.1615  0.6587
 2466TIP3    H128957   3.135   0.208   8.652 -1.2017  2.0136 -0.4236
 2466TIP3    H228958   3.124   0.196   8.501  0.9318 -1.7181 -0.3975
 2467TIP3   OH228959   2.220   2.522   6.742 -0.3056 -0.0673  0.3731
 2467TIP3    H128960   2.275   2.470   6.801  2.1904  2.0380  0.1203
 2467TIP3    H228961   2.252   2.499   6.654 -0.9408  0.0281  0.1158
 2468TIP3   OH228962   0.490   3.510   0.772 -0.6511  0.5122 -0.3233
 2468TIP3    H128963   0.573   3.473   0.742 -0.8183  1.8689 -2.7090
 2468TIP3    H228964   0.438   3.434   0.798  0.5995 -0.5337 -0.7783
 2469TIP3   OH228965   6.462   6.436   6.923 -0.0629 -0.3313 -0.5217
 2469TIP3    H128966   6.412   6.474   6.850 -0.6782  1.2387  0.6640
 2469TIP3    H228967   6.409   6.362   6.953 -1.1340  0.6118 -0.0203
 2470TIP3   OH228968   4.947   1.693   1.718  0.5500  0.2308  0.3040
 2470TIP3    H128969   4.991   1.712   1.801  2.2366 -0.7066 -0.3248
 2470TIP3    H228970   4.994   1.746   1.654 -1.1112  1.3879 -0.0044
 2471TIP3   OH228971   2.089   0.646   1.657 -0.0203  0.3238  0.3321
 2471TIP3    H128972   2.126   0.733   1.675 -0.4611  0.5268  0.2522
 2471TIP3    H228973   2.098   0.599   1.740  2.0014 -0.2207 -0.1256
 2472TIP3   OH228974   0.442   0.374   0.556 -0.0493  0.1431 -0.2339
 2472TIP3    H128975   0.376   0.315   0.519 -0.7764  0.8397 -0.0717
 2472TIP3    H228976   0.526   0.335   0.530 -0.5271 -0.2127 -1.3154
 2473TIP3   OH228977   4.446   6.614   0.554  0.0858 -0.3550  0.5797
 2473TIP3    H128978   4.383   6.656   0.495  1.0002 -0.5590 -0.5896
 2473TIP3    H228979   4.485   6.544   0.502  0.2494 -1.1645  1.7494
 2474TIP3   OH228980   4.088   1.064   8.445 -0.1447 -0.1236 -0.6730
 2474TIP3    H128981   4.090   1.146   8.396  2.9834  0.5097  0.3150
 2474TIP3    H228982   4.162   1.069   8.505 -1.8616 -2.2614  1.8581
 2475TIP3   OH228983   5.041   4.354   8.114  0.0840  0.2326  0.3202
 2475TIP3    H128984   4.956   4.350   8.070 -0.1889 -0.0134  0.8511
 2475TIP3    H228985   5.071   4.263   8.115 -0.8762 -0.1426  2.4380
 2476TIP3   OH228986   5.348   6.065   2.686 -0.1716 -0.2923  0.4233
 2476TIP3    H128987   5.342   5.976   2.651 -0.3409 -1.3781  2.9607
 2476TIP3    H228988   5.440   6.075   2.709 -0.2297  0.0447  0.5046
 2477TIP3   OH228989   6.793   5.889   0.580 -0.3781  0.0394  0.0825
 2477TIP3    H128990   6.700   5.908   0.596 -0.5944 -1.2134  0.4046
 2477TIP3    H228991   6.793   5.827   0.508  0.1122 -1.0809  1.0095
 2478TIP3   OH228992   5.716   3.669   2.196 -0.2650  0.4281  0.3570
 2478TIP3    H128993   5.798   3.706   2.229  0.3676  1.2432 -1.9469
 2478TIP3    H228994   5.743   3.592   2.146 -0.5225  2.1564 -2.6405
 2479TIP3   OH228995   0.377   2.009   0.871  0.4136 -0.0412 -0.4657
 2479TIP3    H128996   0.413   1.939   0.817  0.1295 -1.8849  1.5780
 2479TIP3    H228997   0.445   2.077   0.870  0.4160  0.0111 -3.0257
 2480TIP3   OH228998   2.625   1.649   6.672 -0.8111 -0.4793  0.1132
 2480TIP3    H128999   2.594   1.577   6.618  0.7523 -0.7155 -0.5353
 2480TIP3    H229000   2.637   1.722   6.610 -1.1003 -0.0695  0.5325
 2481TIP3   OH229001   4.889   2.629   2.196  0.8746 -0.1611 -0.1081
 2481TIP3    H129002   4.821   2.675   2.146 -0.0947 -2.4360 -1.0058
 2481TIP3    H229003   4.916   2.692   2.263 -3.3634  0.3071  1.4530
 2482TIP3   OH229004   0.877   2.364   0.667  0.0126  0.0663  0.9935
 2482TIP3    H129005   0.870   2.459   0.675 -1.4698 -0.1577  3.1321
 2482TIP3    H229006   0.852   2.346   0.576 -0.1992  1.6482  0.6995
 2483TIP3   OH229007   5.526   1.294   8.570  0.4844  0.0052 -0.5674
 2483TIP3    H129008   5.598   1.355   8.553  0.7248 -0.1395 -0.0851
 2483TIP3    H229009   5.544   1.219   8.513  0.7350 -0.0468 -0.4193
 2484TIP3   OH229010   3.937   3.404   1.961 -0.0843 -0.0071 -0.3759
 2484TIP3    H129011   3.969   3.363   2.041  0.8457  0.4100 -0.5214
 2484TIP3    H229012   4.010   3.460   1.932 -1.1519  1.4240 -0.3996
 2485TIP3   OH229013   2.267   2.094   0.439  0.0067  0.4309 -0.2365
 2485TIP3    H129014   2.244   2.002   0.420 -0.5610  0.3139  0.8973
 2485TIP3    H229015   2.331   2.088   0.510  0.6237  0.9018 -0.7434
 2486TIP3   OH229016   3.313   0.291   1.494 -0.0077  0.5746 -0.3862
 2486TIP3    H129017   3.233   0.243   1.475  0.4483  0.2656 -1.6446
 2486TIP3    H229018   3.288   0.353   1.563 -1.4091  0.7311 -0.9981
 2487TIP3   OH229019   1.100   6.871   7.479 -0.0944 -0.1644 -0.4558
 2487TIP3    H129020   1.131   6.834   7.396 -0.7590  0.4882 -1.0151
 2487TIP3    H229021   1.176   6.915   7.516  0.1524 -0.2782 -0.8201
 2488TIP3   OH229022   2.024   6.560   7.962  0.0352  0.1328 -0.2751
 2488TIP3    H129023   2.082   6.485   7.956 -0.0626 -0.1271  1.5885
 2488TIP3    H229024   1.937   6.522   7.974 -0.4093  0.5315 -1.9968
 2489TIP3   OH229025   4.919   1.969   0.663 -0.2260 -0.4371  0.0782
 2489TIP3    H129026   4.944   1.961   0.755 -0.3127  1.8217  0.3584
 2489TIP3    H229027   5.002   1.981   0.617 -0.2783 -0.1444  0.0582
 2490TIP3   OH229028   1.022   1.206   1.789 -0.5583 -0.5033  0.3748
 2490TIP3    H129029   1.026   1.200   1.884  1.6082  0.0281  0.3876
 2490TIP3    H229030   1.107   1.244   1.764 -1.2910 -0.1019 -1.7248
 2491TIP3   OH229031   2.041   4.584   7.309  0.5023  0.1020  0.4352
 2491TIP3    H129032   2.133   4.590   7.282  0.3534  3.5198  0.3047
 2491TIP3    H229033   1.999   4.536   7.238  2.1370 -1.7253  0.5938
 2492TIP3   OH229034   0.263   6.224   1.968  0.0069 -0.2456  0.6453
 2492TIP3    H129035   0.240   6.316   1.954  0.9824 -0.0669  0.1084
 2492TIP3    H229036   0.179   6.180   1.980 -0.4262  0.8757  1.9841
 2493TIP3   OH229037   0.581   4.686   7.571 -0.4319  0.6718 -0.1807
 2493TIP3    H129038   0.575   4.764   7.515  1.8055 -0.5679 -2.3106
 2493TIP3    H229039   0.650   4.707   7.634  0.4742  0.2979 -1.0275
 2494TIP3   OH229040   4.622   4.408   0.750  0.4869  0.2948 -0.5907
 2494TIP3    H129041   4.685   4.364   0.808  0.7958  0.3248 -0.9053
 2494TIP3    H229042   4.642   4.502   0.760 -0.4250  0.4117  0.3793
 2495TIP3   OH229043   2.889   3.603   8.432 -0.2446 -0.5224 -0.8753
 2495TIP3    H129044   2.969   3.633   8.476 -1.0059 -0.8534  0.7639
 2495TIP3    H229045   2.820   3.659   8.468 -0.9388 -1.0300 -1.4112
 2496TIP3   OH229046   2.293   0.835   1.452  0.2184  0.5119  0.8414
 2496TIP3    H129047   2.378   0.808   1.416 -0.1241 -0.0613  0.4460
 2496TIP3    H229048   2.229   0.809   1.386 -0.0848  3.1955 -0.0218
 2497TIP3   OH229049   5.881   3.547   7.623 -0.0462 -0.5727 -0.0313
 2497TIP3    H129050   5.878   3.642   7.617  1.5147 -0.4845  0.1129
 2497TIP3    H229051   5.805   3.524   7.676  1.2445  0.8963  2.6717
 2498TIP3   OH229052   4.553   1.674   0.421 -0.6747 -0.5016  0.1385
 2498TIP3    H129053   4.544   1.582   0.444  1.4072 -0.4556  1.3713
 2498TIP3    H229054   4.575   1.718   0.504  1.4510  0.5799 -0.9028
 2499TIP3   OH229055   1.962   6.239   7.158  0.3598  0.3602  0.0830
 2499TIP3    H129056   2.053   6.256   7.181  0.9156 -1.6195 -0.4834
 2499TIP3    H229057   1.952   6.145   7.166 -1.8276  0.5896  0.7069
 2500TIP3   OH229058   2.980   5.094   7.945  0.2582 -0.3529  0.6668
 2500TIP3    H129059   2.928   5.158   7.897 -0.7879 -1.1802  0.6676
 2500TIP3    H229060   3.063   5.089   7.896 -1.0275 -1.7063 -1.5480
 2501TIP3   OH229061   5.421   1.440   1.275  0.5387  0.1265 -0.1037
 2501TIP3    H129062   5.506   1.482   1.263 -1.0655  3.4798 -1.1668
 2501TIP3    H229063   5.358   1.503   1.238 -2.2482 -3.2119 -1.6631
 2502TIP3   OH229064   0.072   1.319   6.806  0.1786  0.9245 -0.1446
 2502TIP3    H129065   0.112   1.402   6.780  0.6928  0.1912 -1.9163
 2502TIP3    H229066  -0.018   1.341   6.829  0.4522  2.0367 -0.0880
 2503TIP3   OH229067   2.401   3.923   0.738 -0.5744  0.6685  0.9957
 2503TIP3    H129068   2.316   3.880   0.729 -0.1811  0.1029 -0.4420
 2503TIP3    H229069   2.458   3.873   0.679  0.6369  1.3263  1.5870
 2504TIP3   OH229070   1.313   1.084   2.312 -0.5912  0.1920 -0.4197
 2504TIP3    H129071   1.297   0.992   2.294 -2.4882  0.2551  0.7197
 2504TIP3    H229072   1.405   1.088   2.339  0.5738 -0.7921 -3.7231
 2505TIP3   OH229073   3.425   3.911   7.352 -0.3946  0.0669 -0.3668
 2505TIP3    H129074   3.472   3.992   7.372 -1.2825  0.7618 -1.0080
 2505TIP3    H229075   3.341   3.941   7.315 -1.2566 -1.1262  0.5527
 2506TIP3   OH229076   2.625   0.026   1.653  0.3380  0.4314 -0.2178
 2506TIP3    H129077   2.693  -0.041   1.645 -0.0175 -0.0308  0.5073
 2506TIP3    H229078   2.543  -0.023   1.646  0.0764  0.9756 -0.9977
 2507TIP3   OH229079   6.301   5.595   8.669 -0.0320 -0.0979 -0.0885
 2507TIP3    H129080   6.320   5.535   8.741  2.0443  0.4956 -0.0615
 2507TIP3    H229081   6.259   5.670   8.711  1.3638  0.3420  0.5891
 2508TIP3   OH229082   6.220   1.139   1.005 -0.0932  0.0805 -0.1428
 2508TIP3    H129083   6.151   1.075   0.990  0.5291 -0.4536 -0.8280
 2508TIP3    H229084   6.269   1.105   1.080  0.2071 -0.2332 -0.4757
 2509TIP3   OH229085   6.074   3.180   7.058 -0.2368  0.3679 -0.3777
 2509TIP3    H129086   6.083   3.264   7.014 -1.1673  0.9507  0.4930
 2509TIP3    H229087   6.161   3.141   7.056  0.0705  1.0838 -1.3076
 2510TIP3   OH229088   2.995   1.723   1.401 -0.4605 -0.3265 -0.0565
 2510TIP3    H129089   2.975   1.673   1.481 -0.7364  0.8718  0.6600
 2510TIP3    H229090   2.984   1.815   1.428  4.0426  0.4670 -0.1115
 2511TIP3   OH229091   6.032   1.782   8.175 -0.4020 -0.2672  0.0524
 2511TIP3    H129092   6.051   1.845   8.106 -0.2563  0.8085  1.0457
 2511TIP3    H229093   6.089   1.808   8.248  0.2095 -1.9973  0.2529
 2512TIP3   OH229094   6.388   6.871   2.609 -0.5661 -0.7808 -0.0719
 2512TIP3    H129095   6.350   6.924   2.679 -1.5636  0.7464 -1.6663
 2512TIP3    H229096   6.478   6.902   2.603 -1.5784  2.2862 -2.1692
 2513TIP3   OH229097   4.686   1.887   1.351 -0.2886 -0.2872 -0.2049
 2513TIP3    H129098   4.673   1.947   1.424 -0.7057  0.8895 -1.2154
 2513TIP3    H229099   4.640   1.928   1.277  0.3326 -1.3067 -1.1925
 2514TIP3   OH229100   2.126   0.260   0.120 -0.0749  0.6109 -0.5342
 2514TIP3    H129101   2.142   0.290   0.030  0.1842  0.6748 -0.4663
 2514TIP3    H229102   2.187   0.310   0.173  0.0783  0.2498 -0.3703
 2515TIP3   OH229103   6.607   4.642   0.277 -0.3791  0.2200  0.0522
 2515TIP3    H129104   6.536   4.578   0.285  0.1947 -0.6417 -1.3139
 2515TIP3    H229105   6.684   4.597   0.312 -0.1071  0.4072 -0.2932
 2516TIP3   OH229106   2.469   2.840   0.322 -0.0818 -0.2208 -0.1375
 2516TIP3    H129107   2.505   2.928   0.308  0.7620 -0.7896 -1.8205
 2516TIP3    H229108   2.523   2.803   0.390  0.4486  0.0837 -0.3873
 2517TIP3   OH229109   3.289   1.379   0.544 -0.5758 -0.2279 -0.2855
 2517TIP3    H129110   3.197   1.376   0.569 -0.3682  1.6134  0.8588
 2517TIP3    H229111   3.325   1.452   0.594  1.8501 -1.8220  0.4661
 2518TIP3   OH229112   5.618   4.123   1.447 -0.1724 -0.8180 -0.0592
 2518TIP3    H129113   5.559   4.176   1.500  0.0841  0.6330 -1.1720
 2518TIP3    H229114   5.563   4.055   1.409 -0.8185 -0.3931  0.1127
 2519TIP3   OH229115   2.784   0.672   0.030 -0.0625  0.8742 -0.3196
 2519TIP3    H129116   2.817   0.714   0.109  0.5728 -0.8985  0.4066
 2519TIP3    H229117   2.707   0.724   0.006  0.4888  2.2265  0.7011
 2520TIP3   OH229118   4.668   1.711   0.177 -0.1305  0.0583 -0.0321
 2520TIP3    H129119   4.713   1.627   0.186 -2.8120 -1.2954  2.4755
 2520TIP3    H229120   4.622   1.723   0.261 -1.4110  3.1045 -1.0172
 2521TIP3   OH229121   6.144   3.976   6.721  0.0057 -0.7653  0.4085
 2521TIP3    H129122   6.145   4.066   6.689  0.4575 -0.0909  2.2210
 2521TIP3    H229123   6.200   3.929   6.660 -0.0474  0.2176 -0.4305
 2522TIP3   OH229124   5.266   3.749   0.406  0.3618 -0.1614 -0.8489
 2522TIP3    H129125   5.268   3.825   0.349  0.7224 -0.4453 -1.2200
 2522TIP3    H229126   5.357   3.734   0.430  0.0380  1.3263  1.6711
 2523TIP3   OH229127   5.417   6.246   7.329  0.0835 -0.4720 -0.6025
 2523TIP3    H129128   5.460   6.283   7.406 -0.9368 -1.7537  0.6329
 2523TIP3    H229129   5.324   6.264   7.343 -0.0205  0.4372 -2.2124
 2524TIP3   OH229130   3.931   3.989   6.552  0.2324 -0.1469 -0.4266
 2524TIP3    H129131   4.002   4.000   6.615 -0.0995  0.6282 -0.1653
 2524TIP3    H229132   3.940   3.900   6.520  0.2993 -0.6273  0.8651
 2525TIP3   OH229133   4.217   0.642   8.124 -0.2374  0.3121  0.5601
 2525TIP3    H129134   4.207   0.734   8.099 -0.3331  0.2783  0.4708
 2525TIP3    H229135   4.130   0.604   8.109 -0.0905  0.1124  0.2038
 2526TIP3   OH229136   2.088   2.996   1.152  0.8386  0.3889 -0.1665
 2526TIP3    H129137   2.047   2.923   1.199  2.0184  0.5708  1.2313
 2526TIP3    H229138   2.170   2.960   1.118 -0.3138  0.0652 -2.8064
 2527TIP3   OH229139   0.979   3.223   6.671  0.5231 -0.8754  0.0577
 2527TIP3    H129140   0.980   3.175   6.589  2.0725  1.1193 -1.2042
 2527TIP3    H229141   0.914   3.292   6.658  1.6898  0.2441 -0.0425
 2528TIP3   OH229142   1.413   1.041   1.568 -0.7075 -0.3862 -0.3301
 2528TIP3    H129143   1.466   1.090   1.505  0.2722  0.0682  0.7889
 2528TIP3    H229144   1.369   1.109   1.619  1.4593 -0.5118  1.9235
 2529TIP3   OH229145   2.474   0.107   1.354  0.3509 -0.2747  0.0480
 2529TIP3    H129146   2.470   0.088   1.261 -0.4381 -0.5782  0.1376
 2529TIP3    H229147   2.559   0.151   1.366  0.0528  0.6064 -0.9552
 2530TIP3   OH229148   2.738   3.940   8.494 -0.3520 -0.1581 -0.4000
 2530TIP3    H129149   2.772   3.925   8.582 -1.3511 -0.9675 -0.1295
 2530TIP3    H229150   2.815   3.939   8.437  0.1442 -1.3103  0.2587
 2531TIP3   OH229151   5.639   4.223   0.729  0.1201  0.3381  0.3040
 2531TIP3    H129152   5.694   4.194   0.656 -1.7585 -0.7129 -0.7961
 2531TIP3    H229153   5.635   4.318   0.720 -0.4812  0.1952 -1.3301
 2532TIP3   OH229154   1.369   6.454   1.274  0.8205  0.0598 -0.5723
 2532TIP3    H129155   1.459   6.482   1.295  0.6179  0.6149 -0.4165
 2532TIP3    H229156   1.377   6.411   1.189  1.1335  0.7482 -0.9049
 2533TIP3   OH229157   5.915   0.376   1.656 -0.5828  0.0794  0.5112
 2533TIP3    H129158   5.827   0.362   1.621 -0.2392  1.2566 -1.0059
 2533TIP3    H229159   5.964   0.297   1.632 -0.9069 -0.0260  0.1876
 2534TIP3   OH229160   1.851   4.679   8.092  0.2891  0.1522  0.5491
 2534TIP3    H129161   1.884   4.590   8.106  0.3547 -0.3487 -2.1633
 2534TIP3    H229162   1.926   4.735   8.111  1.9251 -0.7807 -2.4807
 2535TIP3   OH229163   1.229   3.922   2.393 -0.0313 -0.5783 -0.4634
 2535TIP3    H129164   1.300   3.858   2.384 -0.1974 -0.6367 -1.5797
 2535TIP3    H229165   1.174   3.907   2.316 -0.0096  0.9780 -0.8138
 2536TIP3   OH229166   6.569   2.636   0.130 -0.3394 -0.2532  0.9840
 2536TIP3    H129167   6.537   2.548   0.149 -1.1727 -1.6982 -5.1373
 2536TIP3    H229168   6.491   2.685   0.104  0.6232  0.9617  0.2824
 2537TIP3   OH229169   1.157   0.426   1.073 -0.4910 -0.8897 -0.6796
 2537TIP3    H129170   1.091   0.455   1.136  1.3482  2.6809 -0.1335
 2537TIP3    H229171   1.153   0.491   1.003  3.3380  0.5176  0.1479
 2538TIP3   OH229172   4.883   0.993   7.141 -0.0926 -0.0892  0.0110
 2538TIP3    H129173   4.832   1.068   7.171  3.0904  1.4424  2.0855
 2538TIP3    H229174   4.964   1.031   7.107  0.5730 -2.4837 -1.3177
 2539TIP3   OH229175   2.980   6.540   1.223 -0.3538  0.2669  0.5309
 2539TIP3    H129176   2.890   6.512   1.240 -0.2030 -0.3056  0.3981
 2539TIP3    H229177   3.030   6.506   1.297  0.0165 -0.7756 -0.1680
 2540TIP3   OH229178   2.901   1.213   0.138 -0.5334  0.2969 -0.7768
 2540TIP3    H129179   2.950   1.130   0.134 -0.4679  0.3144 -0.3726
 2540TIP3    H229180   2.872   1.227   0.048  0.7460  0.6034 -1.1690
 2541TIP3   OH229181   4.485   0.637   6.575  0.0174  0.3703 -0.0460
 2541TIP3    H129182   4.455   0.597   6.494  0.5285 -0.0059 -0.0570
 2541TIP3    H229183   4.578   0.614   6.580  0.4410  1.9182 -0.2614
 2542TIP3   OH229184   0.533   0.433   7.871 -0.6974 -0.0006 -0.1151
 2542TIP3    H129185   0.517   0.482   7.951 -3.3651  0.8471 -1.0562
 2542TIP3    H229186   0.550   0.501   7.805 -1.6821 -0.4740 -0.8754
 2543TIP3   OH229187   6.122   5.002   0.154 -0.2083 -0.4567 -0.4267
 2543TIP3    H129188   6.207   4.967   0.180  0.5365  0.2345 -1.8182
 2543TIP3    H229189   6.059   4.954   0.207  0.7960 -3.4363 -1.6958
 2544TIP3   OH229190   6.357   1.410   0.544  0.1659  0.1763  0.4441
 2544TIP3    H129191   6.428   1.383   0.603  0.8381  3.2769  1.2231
 2544TIP3    H229192   6.288   1.441   0.603 -1.5601 -1.9069 -0.3405
 2545TIP3   OH229193   3.478   6.041   7.638  0.1887  0.1225 -0.3785
 2545TIP3    H129194   3.523   6.045   7.553 -0.4131 -0.7711 -0.7474
 2545TIP3    H229195   3.527   5.975   7.688  0.2430  0.2906 -0.2093
 2546TIP3   OH229196   5.492   3.316   1.217  0.0034  0.2765 -0.1756
 2546TIP3    H129197   5.566   3.376   1.224 -0.5020  0.7675  1.3184
 2546TIP3    H229198   5.525   3.241   1.168  1.7811  0.0380  1.3000
 2547TIP3   OH229199   0.980   6.401   1.160  0.3492  0.0815 -0.4260
 2547TIP3    H129200   0.947   6.423   1.073  2.3321 -1.8339 -1.7703
 2547TIP3    H229201   1.031   6.477   1.187 -1.2154  1.1635 -0.3656
 2548TIP3   OH229202   5.469   5.294   8.024  0.7090  0.1471  0.8301
 2548TIP3    H129203   5.406   5.354   8.064  0.1730 -0.3850  0.7764
 2548TIP3    H229204   5.552   5.342   8.029  0.0999  1.3936 -0.2446
 2549TIP3   OH229205   1.836   0.696   6.995 -0.1463 -0.0865 -0.4329
 2549TIP3    H129206   1.831   0.736   7.082 -1.2382 -0.1518 -0.4571
 2549TIP3    H229207   1.895   0.754   6.946 -0.2835  0.4942  0.0699
 2550TIP3   OH229208   2.018   2.348   8.493  0.0745 -0.3029  0.0214
 2550TIP3    H129209   2.031   2.310   8.580 -0.1944 -2.1786 -0.7158
 2550TIP3    H229210   2.097   2.401   8.478 -0.0053  0.2712  1.4944
 2551TIP3   OH229211   4.090   6.027   1.245 -0.2855 -0.2780  0.6477
 2551TIP3    H129212   4.157   6.029   1.314  0.4048 -2.2817  0.1180
 2551TIP3    H229213   4.078   6.118   1.219  4.2299  0.0599 -1.1039
 2552TIP3   OH229214   0.701   6.494   7.298 -0.4923 -0.6116  0.0882
 2552TIP3    H129215   0.793   6.509   7.272 -0.0876 -1.9033  0.6948
 2552TIP3    H229216   0.663   6.447   7.224 -0.7181  0.0231 -0.2119
 2553TIP3   OH229217   3.853   0.281   1.256  0.5162 -0.1005  0.8065
 2553TIP3    H129218   3.769   0.324   1.268  0.2686 -0.3334 -0.0769
 2553TIP3    H229219   3.864   0.274   1.161  1.0742 -0.9557  0.9222
 2554TIP3   OH229220   0.478   4.745   7.922 -0.4182 -0.3880  0.3410
 2554TIP3    H129221   0.426   4.818   7.956 -1.8113 -1.1350 -0.1075
 2554TIP3    H229222   0.437   4.724   7.838  0.6298 -1.0028 -0.0334
 2555TIP3   OH229223   2.556   3.112   1.501 -0.1962 -0.1286 -0.1860
 2555TIP3    H129224   2.592   3.023   1.508 -2.1222 -0.8188  2.7035
 2555TIP3    H229225   2.485   3.103   1.437 -2.2126 -1.5128  2.0539
 2556TIP3   OH229226   1.473   2.537   0.891  0.5324  0.2376 -0.3207
 2556TIP3    H129227   1.459   2.487   0.972  0.3747  2.2490  0.9924
 2556TIP3    H229228   1.462   2.628   0.918  0.0910  0.9650 -2.7279
 2557TIP3   OH229229   5.819   6.131   8.004 -0.2796 -0.4657 -0.0053
 2557TIP3    H129230   5.873   6.080   7.943  0.0554 -0.2782  0.1306
 2557TIP3    H229231   5.795   6.210   7.954 -0.4148 -0.5399 -0.0590
 2558TIP3   OH229232   2.646   0.116   2.620  0.4692 -0.2620  0.0950
 2558TIP3    H129233   2.570   0.057   2.619  1.7064 -1.9321  0.6788
 2558TIP3    H229234   2.719   0.060   2.644  1.6583  1.6283  1.0551
 2559TIP3   OH229235   0.764   2.533   1.366  0.0126  0.1941  0.2649
 2559TIP3    H129236   0.706   2.474   1.413 -1.0457  0.2343 -0.9423
 2559TIP3    H229237   0.850   2.521   1.408 -0.1054 -2.3296 -0.0632
 2560TIP3   OH229238   4.475   0.353   1.862  0.1509 -0.4616 -1.0115
 2560TIP3    H129239   4.531   0.390   1.930 -1.2550 -2.4003  1.3872
 2560TIP3    H229240   4.422   0.427   1.832 -1.1799  0.0355  2.1571
 2561TIP3   OH229241   6.222   2.303   1.180  0.0920  0.2183 -0.3869
 2561TIP3    H129242   6.289   2.298   1.248 -0.1221  1.1860 -0.0791
 2561TIP3    H229243   6.264   2.266   1.102 -0.0865 -2.0875  0.5490
 2562TIP3   OH229244   6.455   3.841   7.983 -0.5777 -0.1348 -0.0196
 2562TIP3    H129245   6.474   3.932   8.006  1.1637  0.0085 -1.6951
 2562TIP3    H229246   6.499   3.789   8.050 -0.0388  0.2742 -0.0516
 2563TIP3   OH229247   5.675   3.096   0.725  0.4516 -0.1556 -0.3630
 2563TIP3    H129248   5.701   3.187   0.709  1.6187 -0.3609  0.2964
 2563TIP3    H229249   5.634   3.069   0.643  0.7620  0.7374 -0.8314
 2564TIP3   OH229250   6.708   6.867   8.482 -0.1709  0.3203  0.6290
 2564TIP3    H129251   6.791   6.820   8.488 -0.4526 -0.2660  0.0176
 2564TIP3    H229252   6.689   6.871   8.388  0.2276  2.3374  0.5914
 2565TIP3   OH229253   6.242   3.629   1.347 -0.1802  0.0770  0.2021
 2565TIP3    H129254   6.282   3.582   1.274  2.5889  2.8089 -0.2682
 2565TIP3    H229255   6.169   3.677   1.307  0.2517  0.2209 -0.4321
 2566TIP3   OH229256   0.334   4.399   0.502  0.6074 -0.0236  0.2513
 2566TIP3    H129257   0.294   4.485   0.487 -0.5140 -0.6600 -0.5916
 2566TIP3    H229258   0.395   4.388   0.429 -0.1156 -0.4110 -0.3162
 2567TIP3   OH229259   0.365   5.511   0.217 -0.7495  0.3658  0.2063
 2567TIP3    H129260   0.346   5.577   0.151 -0.3395  0.9541  0.6715
 2567TIP3    H229261   0.314   5.536   0.293 -1.4620 -0.4859  0.0241
 2568TIP3   OH229262   6.423   5.682   0.660 -0.4092  0.3711  0.7404
 2568TIP3    H129263   6.467   5.627   0.595 -1.9877 -2.0681  1.5806
 2568TIP3    H229264   6.359   5.731   0.610  0.5422  0.9621  0.0620
 2569TIP3   OH229265   1.193   3.396   1.147 -0.4450 -0.8078 -0.1698
 2569TIP3    H129266   1.280   3.393   1.186  0.4879  2.0050 -1.7874
 2569TIP3    H229267   1.135   3.416   1.220  0.4412 -1.2441  0.6790
 2570TIP3   OH229268   1.067   2.143   7.662 -0.2010 -0.1990  0.3426
 2570TIP3    H129269   0.976   2.160   7.684  0.2520  1.0505  1.3610
 2570TIP3    H229270   1.105   2.229   7.646  1.5751 -0.3206  3.1680
 2571TIP3   OH229271   5.037   6.538   1.200 -0.1961  0.0303 -0.2170
 2571TIP3    H129272   5.094   6.498   1.266 -1.5690  1.5462  2.0397
 2571TIP3    H229273   5.086   6.615   1.170 -0.0269 -0.0253 -0.0865
 2572TIP3   OH229274   0.720   4.872   8.156  0.0273  0.0140  0.1347
 2572TIP3    H129275   0.704   4.778   8.154 -1.9627  0.2907 -2.0309
 2572TIP3    H229276   0.795   4.885   8.098  2.1130 -0.3819  2.5572
 2573TIP3   OH229277   3.173   6.650   0.363 -0.1884  0.2227 -0.3157
 2573TIP3    H129278   3.162   6.587   0.293  1.0982  1.1779 -1.4439
 2573TIP3    H229279   3.263   6.682   0.352  0.2191  0.0843  2.0446
 2574TIP3   OH229280   2.100   2.539   0.611  0.4790 -0.2141 -0.2460
 2574TIP3    H129281   2.087   2.490   0.692  0.5500 -0.2395 -0.2501
 2574TIP3    H229282   2.132   2.474   0.548 -0.1172 -0.3097 -0.4524
 2575TIP3   OH229283   0.480   0.520   2.277  0.6731  0.2880 -0.0404
 2575TIP3    H129284   0.497   0.614   2.275  3.1016 -0.0845 -0.8381
 2575TIP3    H229285   0.468   0.500   2.370 -1.9373  1.6298 -0.0132
 2576TIP3   OH229286   6.674   0.363   8.086  0.0594  0.1176 -0.0838
 2576TIP3    H129287   6.677   0.432   8.020  0.0259  0.3038  0.1078
 2576TIP3    H229288   6.713   0.287   8.043 -0.0023  0.2254 -0.3322
 2577TIP3   OH229289   4.679   1.439   1.823 -0.8041 -0.7074 -0.3528
 2577TIP3    H129290   4.595   1.485   1.828 -1.4345 -1.7182 -1.1294
 2577TIP3    H229291   4.694   1.406   1.911 -0.0838  1.3304  0.3659
 2578TIP3   OH229292   0.564   3.102   7.908 -0.2512 -0.0403 -0.0631
 2578TIP3    H129293   0.538   3.082   7.998 -1.0471 -0.2706 -0.3379
 2578TIP3    H229294   0.494   3.158   7.875 -0.4942 -0.8023 -0.8656
 2579TIP3   OH229295   2.058   5.023   7.908 -0.2695  0.6748 -0.2515
 2579TIP3    H129296   2.122   5.003   7.977 -0.6724 -0.3866 -0.1723
 2579TIP3    H229297   2.006   5.095   7.944 -1.3348 -0.7403  1.1290
 2580TIP3   OH229298   0.836   0.152   0.157 -0.1268  0.7257 -0.1941
 2580TIP3    H129299   0.819   0.091   0.228 -0.1936  2.8424  1.7045
 2580TIP3    H229300   0.920   0.192   0.178 -0.2224  1.5237 -1.2125
 2581TIP3   OH229301   3.066   5.849   6.427 -0.3876 -0.5870  0.4792
 2581TIP3    H129302   3.072   5.932   6.475  1.1727 -0.7991  0.7302
 2581TIP3    H229303   3.156   5.834   6.395 -0.8252 -1.7742 -0.2541
 2582TIP3   OH229304   2.513   6.612   2.332 -0.3020  0.1406 -0.6168
 2582TIP3    H129305   2.556   6.542   2.284 -0.0644 -0.7574  0.8624
 2582TIP3    H229306   2.439   6.637   2.276 -0.8498 -1.8193 -0.8232
 2583TIP3   OH229307   0.845   3.704   7.690 -0.1774  0.4621 -0.2505
 2583TIP3    H129308   0.916   3.767   7.698 -0.4487  0.9494 -1.4446
 2583TIP3    H229309   0.789   3.739   7.621 -0.1267 -1.2679 -1.2442
 2584TIP3   OH229310   4.886   4.990   8.506 -0.0742  0.2388  0.1075
 2584TIP3    H129311   4.981   4.993   8.514 -0.1002  0.1694  0.4803
 2584TIP3    H229312   4.857   5.081   8.516  0.0636  0.5044 -1.6509
 2585TIP3   OH229313   0.612   1.787   7.288 -0.5040  0.2690 -0.0831
 2585TIP3    H129314   0.686   1.845   7.306  0.1805 -0.1328 -1.4652
 2585TIP3    H229315   0.650   1.700   7.278 -1.1310  0.0786 -0.9727
 2586TIP3   OH229316   1.881   3.610   7.374  0.3296  0.1772  0.0333
 2586TIP3    H129317   1.938   3.685   7.390 -0.8343  1.0390  0.2374
 2586TIP3    H229318   1.873   3.605   7.279 -1.1245  1.5230  0.0556
 2587TIP3   OH229319   5.688   3.332   2.765  0.2986 -0.0605 -0.1003
 2587TIP3    H129320   5.649   3.304   2.848  0.8103 -1.4097 -0.2924
 2587TIP3    H229321   5.632   3.404   2.736  0.4580  0.8475  1.6950
 2588TIP3   OH229322   4.719   1.875   1.902  0.8824 -0.3739  0.0348
 2588TIP3    H129323   4.694   1.963   1.873  0.2953 -0.7629 -0.6497
 2588TIP3    H229324   4.646   1.819   1.876  0.5450 -0.8301  1.8389
 2589TIP3   OH229325   5.131   6.604   8.296 -0.2462  0.1746  0.1791
 2589TIP3    H129326   5.051   6.599   8.350  1.1711  0.5088  2.4375
 2589TIP3    H229327   5.138   6.697   8.274 -0.7074  0.0715 -0.4425
 2590TIP3   OH229328   1.024   3.847   6.793 -0.2139  0.1435  0.0733
 2590TIP3    H129329   1.046   3.907   6.865 -0.7138 -0.9606  1.1778
 2590TIP3    H229330   1.008   3.763   6.836 -1.6358 -0.2803 -1.2101
 2591TIP3   OH229331   4.145   3.733   2.277 -0.3125  0.4094 -0.5686
 2591TIP3    H129332   4.174   3.643   2.261 -0.4154  0.0143  1.2563
 2591TIP3    H229333   4.182   3.755   2.362 -0.7608  1.9032 -0.7371
 2592TIP3   OH229334   3.759   1.107   1.074 -0.6295 -0.3165 -1.0664
 2592TIP3    H129335   3.798   1.020   1.081 -0.7684 -0.2984  0.2480
 2592TIP3    H229336   3.705   1.115   1.153  0.3856  1.4365 -0.4887
 2593TIP3   OH229337   6.521   3.505   1.643  0.5575  0.0644  0.1231
 2593TIP3    H129338   6.428   3.510   1.619  0.8728 -2.6771 -2.2280
 2593TIP3    H229339   6.521   3.466   1.730 -0.4733  1.1609  0.6461
 2594TIP3   OH229340   5.836   2.111   1.758 -0.7983 -0.2913  0.1156
 2594TIP3    H129341   5.818   2.161   1.838 -0.0991 -1.4051  1.0074
 2594TIP3    H229342   5.882   2.033   1.789  0.1957 -0.3725 -1.4698
 2595TIP3   OH229343   2.350   1.146   8.447  0.2995 -0.4148  0.0967
 2595TIP3    H129344   2.369   1.083   8.377 -2.3488  2.4878 -3.6789
 2595TIP3    H229345   2.424   1.206   8.446  0.7711 -0.9745  0.6108
 2596TIP3   OH229346   4.244   2.275   7.955 -0.5337  0.1205 -0.3025
 2596TIP3    H129347   4.187   2.334   7.906  1.9937  2.6634 -0.4283
 2596TIP3    H229348   4.255   2.199   7.898 -0.9634  1.1632 -1.8289
 2597TIP3   OH229349   0.679   4.596   2.429 -0.3511  0.0020 -0.2258
 2597TIP3    H129350   0.774   4.594   2.430 -0.3453  0.2985  0.0219
 2597TIP3    H229351   0.657   4.685   2.398 -0.5396  0.3703  0.9272
 2598TIP3   OH229352   3.666   6.512   6.862 -0.2313  0.2501 -0.1226
 2598TIP3    H129353   3.649   6.419   6.879 -1.5194  0.6099  0.7170
 2598TIP3    H229354   3.728   6.512   6.789 -0.1060 -1.2663 -0.0556
 2599TIP3   OH229355   5.004   1.946   0.936 -0.0701 -0.2540  0.4070
 2599TIP3    H129356   4.937   1.898   0.985  1.0398 -1.4923  0.7846
 2599TIP3    H229357   5.042   2.007   0.999  1.5830 -2.0726  1.2940
 2600TIP3   OH229358   0.571   3.825   6.784  0.0832 -0.0935 -1.1686
 2600TIP3    H129359   0.516   3.846   6.708  1.2246  0.3597 -1.9011
 2600TIP3    H229360   0.614   3.743   6.761 -1.4487 -1.3153  0.0816
 2601TIP3   OH229361   5.728   3.825   0.386 -0.0137  0.4616 -0.4685
 2601TIP3    H129362   5.788   3.838   0.459  0.0034  1.1513 -0.6012
 2601TIP3    H229363   5.701   3.733   0.393 -1.1990  0.9109  1.2968
 2602TIP3   OH229364   2.781   5.897   0.322  0.1171  0.2902 -0.3946
 2602TIP3    H129365   2.723   5.974   0.321 -0.4134 -0.0921  0.3253
 2602TIP3    H229366   2.793   5.876   0.229  0.2031  1.1898 -0.5984
 2603TIP3   OH229367   4.989   0.373   8.015  0.1906 -0.2974 -0.3875
 2603TIP3    H129368   5.059   0.332   7.966  0.2647 -0.9007  0.2081
 2603TIP3    H229369   5.006   0.349   8.106 -1.2333 -1.1183 -0.3141
 2604TIP3   OH229370   2.558   1.487   2.053 -0.1081  0.3125  0.3162
 2604TIP3    H129371   2.641   1.453   2.085  1.0256  2.5231 -0.0944
 2604TIP3    H229372   2.498   1.413   2.058  2.0134 -1.5182  0.0490
 2605TIP3   OH229373   3.414   0.071   7.641 -0.3154 -0.1282  0.2095
 2605TIP3    H129374   3.379  -0.002   7.588  2.2460 -0.0675 -1.7399
 2605TIP3    H229375   3.422   0.143   7.579 -1.9097  1.6030  1.9075
 2606TIP3   OH229376   1.724   2.828   6.410 -0.1621  0.3623  0.7475
 2606TIP3    H129377   1.740   2.876   6.492  0.6961 -0.5442  1.1417
 2606TIP3    H229378   1.637   2.790   6.421  0.2389 -0.3634  1.5751
 2607TIP3   OH229379   1.351   4.498   8.044  0.2663  0.7413 -0.0398
 2607TIP3    H129380   1.334   4.406   8.061 -1.5246  1.3839  2.0838
 2607TIP3    H229381   1.443   4.510   8.067  0.3700 -0.4054  0.1839
 2608TIP3   OH229382   0.979   2.272   1.976  0.0577  0.0777 -0.1372
 2608TIP3    H129383   0.997   2.331   2.050  1.3120 -2.1088  1.4345
 2608TIP3    H229384   0.929   2.200   2.014 -0.0778 -0.6586 -1.6374
 2609TIP3   OH229385   5.930   4.846   7.199 -0.0051 -0.4064  0.0972
 2609TIP3    H129386   5.952   4.793   7.123  0.6872  0.0079  0.0034
 2609TIP3    H229387   5.920   4.935   7.166 -0.9465 -0.4247  0.2907
 2610TIP3   OH229388   0.030   5.083   1.381 -0.1208  0.5461 -0.2707
 2610TIP3    H129389   0.042   5.124   1.295 -1.1352  0.8441 -0.2869
 2610TIP3    H229390   0.007   4.993   1.361 -0.1358  0.5583 -0.3095
 2611TIP3   OH229391   0.204   1.585   1.375  0.0641 -0.6724 -0.3040
 2611TIP3    H129392   0.124   1.630   1.402 -0.5859 -2.3692  0.7781
 2611TIP3    H229393   0.252   1.571   1.457  0.2553 -1.8714 -0.6008
 2612TIP3   OH229394   5.403   6.065   8.044 -0.1774 -0.0587  0.0417
 2612TIP3    H129395   5.331   6.048   8.106 -1.0366 -1.6007 -1.3040
 2612TIP3    H229396   5.448   5.981   8.036  0.2502  0.2583 -1.0151
 2613TIP3   OH229397   4.037   4.113   8.160 -0.3500  0.1657  0.1403
 2613TIP3    H129398   3.968   4.145   8.218 -1.7160 -0.2569 -1.1885
 2613TIP3    H229399   4.024   4.019   8.157 -0.7553  0.2360 -1.3467
 2614TIP3   OH229400   1.747   2.341   1.326  0.4757 -0.3476  0.0763
 2614TIP3    H129401   1.837   2.329   1.298 -0.2782 -0.4045 -2.5198
 2614TIP3    H229402   1.731   2.435   1.317 -0.0889 -0.5140 -0.7122
 2615TIP3   OH229403   5.350   2.720   1.083 -0.1156 -0.0967  0.3150
 2615TIP3    H129404   5.268   2.766   1.065  0.0029  1.0104  2.3264
 2615TIP3    H229405   5.418   2.787   1.073  0.5953 -1.0249 -1.4313
 2616TIP3   OH229406   2.030   5.423   1.741  1.1895  0.4143  0.0862
 2616TIP3    H129407   2.061   5.346   1.693  1.5323 -0.6160  1.8706
 2616TIP3    H229408   1.936   5.407   1.754  1.5027 -0.3811  1.5786
 2617TIP3   OH229409   3.568   2.395   7.567  0.0073  0.0608  0.0146
 2617TIP3    H129410   3.592   2.304   7.554  0.6756  0.2782 -0.3465
 2617TIP3    H229411   3.504   2.414   7.497 -0.1936 -0.1492  0.1408
 2618TIP3   OH229412   5.509   5.142   1.191 -0.0602  0.2790  0.7377
 2618TIP3    H129413   5.542   5.213   1.246  1.8551 -1.8880  2.6130
 2618TIP3    H229414   5.559   5.065   1.219 -1.0482 -1.5600 -2.1322
 2619TIP3   OH229415   2.327   1.952   1.259  0.2386 -0.3047 -0.4098
 2619TIP3    H129416   2.370   1.994   1.185  2.1923  0.3453  0.9914
 2619TIP3    H229417   2.386   1.968   1.333 -1.5507 -1.0238  1.2715
 2620TIP3   OH229418   1.504   5.365   6.542  0.4090 -0.1314 -0.5689
 2620TIP3    H129419   1.501   5.407   6.628  3.0851  1.3208 -1.0496
 2620TIP3    H229420   1.499   5.438   6.480  1.2380 -0.8695 -1.5432
 2621TIP3   OH229421   0.402   3.302   1.027  0.0101 -0.4365 -0.2477
 2621TIP3    H129422   0.492   3.306   1.059 -0.8537  2.6287  2.3664
 2621TIP3    H229423   0.351   3.276   1.104 -1.5853  0.6399 -0.8893
 2622TIP3   OH229424   4.234   4.175   7.033 -0.0799 -0.2953 -0.4018
 2622TIP3    H129425   4.225   4.165   7.128 -1.4074 -0.7925 -0.5641
 2622TIP3    H229426   4.317   4.132   7.012  0.5262  0.3356  0.6008
 2623TIP3   OH229427   2.429   0.782   0.294 -0.0388 -0.2639  0.0551
 2623TIP3    H129428   2.446   0.869   0.257 -2.0721  0.0223 -0.3217
 2623TIP3    H229429   2.444   0.793   0.388  1.1791  0.0863 -0.1678
 2624TIP3   OH229430   2.479   3.543   8.039 -0.6489  0.1253  0.1229
 2624TIP3    H129431   2.543   3.611   8.058 -0.9507  0.5718 -0.4061
 2624TIP3    H229432   2.423   3.582   7.972 -0.0693 -1.0873 -1.1208
 2625TIP3   OH229433   1.258   2.562   6.950  0.2605  0.0393 -0.1589
 2625TIP3    H129434   1.349   2.572   6.923  0.2286  1.2050  0.0796
 2625TIP3    H229435   1.222   2.651   6.947 -0.8730 -0.3953 -0.2482
 2626TIP3   OH229436   3.347   0.445   2.417 -0.2041  0.0974 -0.5379
 2626TIP3    H129437   3.307   0.509   2.476  0.2476  0.3564 -0.5020
 2626TIP3    H229438   3.314   0.468   2.330 -0.2278  0.2337 -0.4926
 2627TIP3   OH229439   0.396   2.720   8.582 -0.2967  0.0088  0.3191
 2627TIP3    H129440   0.313   2.708   8.536  0.7263  0.0963 -1.6593
 2627TIP3    H229441   0.374   2.776   8.657 -1.7412  1.6247 -1.2081
 2628TIP3   OH229442   3.299   4.934   7.962  0.3497 -0.5509 -0.8783
 2628TIP3    H129443   3.244   4.907   7.889 -1.6662 -3.0400  1.3070
 2628TIP3    H229444   3.237   4.965   8.028  2.1378  2.4033 -0.4043
 2629TIP3   OH229445   4.476   1.713   1.295  0.6253  0.2554  0.3514
 2629TIP3    H129446   4.548   1.657   1.269  1.0384 -0.1920  2.3471
 2629TIP3    H229447   4.441   1.747   1.212  2.2984 -0.5076 -0.7120
 2630TIP3   OH229448   6.364   1.942   1.690 -0.2099  0.2575 -0.1369
 2630TIP3    H129449   6.286   1.991   1.664  0.8075  1.0172 -1.9911
 2630TIP3    H229450   6.380   1.882   1.617  1.1269  0.3838  0.0127
 2631TIP3   OH229451   6.352   6.122   0.155  0.1568 -0.1388 -0.4615
 2631TIP3    H129452   6.362   6.119   0.250 -0.6067 -2.4102 -0.3919
 2631TIP3    H229453   6.381   6.035   0.126 -0.2185  0.3026 -2.2373
 2632TIP3   OH229454   5.302   3.026   7.772 -0.4441  0.0822  0.5995
 2632TIP3    H129455   5.236   2.983   7.827  0.5772 -0.4704  1.4175
 2632TIP3    H229456   5.254   3.096   7.728 -2.0693 -1.5837 -0.4414
 2633TIP3   OH229457   1.418   6.379   7.003 -0.1473  0.7303  0.8088
 2633TIP3    H129458   1.355   6.374   6.931 -1.0517 -1.0337  1.6482
 2633TIP3    H229459   1.382   6.445   7.062  0.0480  1.4258  0.1636
 2634TIP3   OH229460   6.456   3.262   0.046 -0.3559  0.5079  0.1125
 2634TIP3    H129461   6.481   3.254   0.138  0.9866 -1.1237 -0.3407
 2634TIP3    H229462   6.477   3.352   0.023  0.3242  0.6241  1.1211
 2635TIP3   OH229463   2.622   2.764   1.086  0.1938  0.3150  0.6858
 2635TIP3    H129464   2.591   2.674   1.076  1.5455 -0.0539 -0.5507
 2635TIP3    H229465   2.715   2.756   1.108  0.4970  1.4031 -0.0944
 2636TIP3   OH229466   1.583   3.497   0.938  0.1061  0.5660 -0.6568
 2636TIP3    H129467   1.673   3.530   0.925 -0.2653  2.1691  0.4412
 2636TIP3    H229468   1.589   3.442   1.016  0.4877 -0.9835 -1.7500
 2637TIP3   OH229469   5.475   6.784   1.024 -0.9067  0.1093  0.3521
 2637TIP3    H129470   5.511   6.868   0.997 -0.6662  0.8603  2.8279
 2637TIP3    H229471   5.505   6.722   0.957  1.3905  1.4529  0.0639
 2638TIP3   OH229472   2.674   0.365   2.457 -0.2577 -0.1827 -0.6164
 2638TIP3    H129473   2.657   0.290   2.515 -0.2009 -0.3281 -0.7857
 2638TIP3    H229474   2.598   0.367   2.398 -1.0551  0.8705  0.4023
 2639TIP3   OH229475   6.495   6.385   0.133 -0.2728  0.0805 -0.2885
 2639TIP3    H129476   6.587   6.378   0.108 -0.3177  0.5048 -0.5885
 2639TIP3    H229477   6.478   6.306   0.183  0.8141  0.9609  1.5852
 2640TIP3   OH229478   6.174   3.352   8.417 -0.0156 -0.1892  0.3378
 2640TIP3    H129479   6.140   3.423   8.472  1.0710  0.8831 -0.3291
 2640TIP3    H229480   6.099   3.325   8.365 -0.0812  1.6377 -0.5843
 2641TIP3   OH229481   2.514   2.314   8.119  0.0120  0.0860  0.2928
 2641TIP3    H129482   2.572   2.267   8.178  0.2267  0.5993  0.4976
 2641TIP3    H229483   2.504   2.257   8.043  0.9769  0.0997  0.1526
 2642TIP3   OH229484   1.619   2.339   0.120  0.2201  0.1262  0.0798
 2642TIP3    H129485   1.647   2.373   0.204 -1.7674  0.8858  0.4927
 2642TIP3    H229486   1.609   2.245   0.134 -0.0181  0.2367  0.6694
 2643TIP3   OH229487   4.085   1.181   0.577  0.4387 -0.0007 -0.5481
 2643TIP3    H129488   4.159   1.193   0.517 -0.8274  0.9216 -1.9809
 2643TIP3    H229489   4.058   1.090   0.562  0.7826 -0.1013 -0.5888
 2644TIP3   OH229490   0.242   4.584   7.148 -0.6443  0.3569  0.0446
 2644TIP3    H129491   0.163   4.589   7.202 -0.9509 -1.2904 -0.1894
 2644TIP3    H229492   0.210   4.570   7.059 -0.1094  1.8493 -0.4127
 2645TIP3   OH229493   4.935   4.214   7.895  0.2797  0.0298  0.4223
 2645TIP3    H129494   4.894   4.178   7.974 -0.9796 -1.3483 -0.8063
 2645TIP3    H229495   4.877   4.189   7.824  1.3601  1.2889 -0.9604
 2646TIP3   OH229496   0.639   2.976   2.098  0.1053  0.4955  0.2170
 2646TIP3    H129497   0.573   3.035   2.135 -0.8771 -1.2312  1.3351
 2646TIP3    H229498   0.639   2.996   2.004 -0.8065  1.6705  0.4458
 2647TIP3   OH229499   5.441   6.192   0.506 -0.0166  0.1338  0.0315
 2647TIP3    H129500   5.511   6.255   0.492 -2.1978  2.5757 -0.7682
 2647TIP3    H229501   5.404   6.177   0.419 -0.4488 -1.1901  0.4086
 2648TIP3   OH229502   3.174   4.907   7.728  0.3710  0.2712  0.1828
 2648TIP3    H129503   3.202   4.962   7.656 -0.9721  1.4356  0.4899
 2648TIP3    H229504   3.091   4.869   7.699 -0.2581  0.8588  1.1198
 2649TIP3   OH229505   1.265   4.794   1.625  0.0008  0.0437 -0.0124
 2649TIP3    H129506   1.190   4.849   1.603 -0.0853  0.2877  0.8561
 2649TIP3    H229507   1.332   4.818   1.561 -0.9054 -0.7537 -1.3211
 2650TIP3   OH229508   5.535   3.513   2.349 -0.3117  0.0253  0.1664
 2650TIP3    H129509   5.512   3.473   2.266  0.8891 -0.5039  0.0762
 2650TIP3    H229510   5.589   3.589   2.326 -0.1209 -0.0213  0.4547
 2651TIP3   OH229511   3.619   4.351   1.171 -0.0291 -0.0737 -0.2997
 2651TIP3    H129512   3.590   4.310   1.253 -0.9762 -0.0732 -0.6274
 2651TIP3    H229513   3.714   4.355   1.180  0.0843 -2.0181 -0.0923
 2652TIP3   OH229514   3.663   2.370   6.262 -0.0284  0.6435  0.1737
 2652TIP3    H129515   3.658   2.422   6.342 -0.5262  1.0036 -0.0863
 2652TIP3    H229516   3.756   2.346   6.254 -0.0242  0.3386  1.0215
 2653TIP3   OH229517   4.651   5.921   0.405  0.1695 -0.5184 -0.0658
 2653TIP3    H129518   4.659   5.910   0.499  2.3679 -0.1862 -0.1640
 2653TIP3    H229519   4.721   5.982   0.381 -2.7467  2.6768 -1.4075
 2654TIP3   OH229520   6.858   1.262   1.634  0.3268  0.1475  0.2905
 2654TIP3    H129521   6.849   1.265   1.729 -1.9063  0.2994  0.1218
 2654TIP3    H229522   6.777   1.301   1.601  1.6466  1.3575 -1.6852
 2655TIP3   OH229523   0.910   4.808   0.093 -0.6044  0.0105  0.1713
 2655TIP3    H129524   0.967   4.764   0.029 -0.6175  1.1427 -0.6490
 2655TIP3    H229525   0.835   4.750   0.103  0.7192 -1.5934  1.3836
 2656TIP3   OH229526   1.353   3.950   0.687 -0.3367 -0.0254 -0.3923
 2656TIP3    H129527   1.279   3.894   0.708  0.1272 -0.1986  0.8825
 2656TIP3    H229528   1.405   3.900   0.625  0.1289 -1.0657  0.8125
 2657TIP3   OH229529   4.053   2.013   6.890 -0.4959 -0.4089 -0.0450
 2657TIP3    H129530   4.096   2.079   6.836  2.5941 -3.2742 -1.4586
 2657TIP3    H229531   4.115   1.996   6.961 -1.3269 -1.5748  0.4398
 2658TIP3   OH229532   0.203   4.814   6.910  0.4584  0.2681 -0.7626
 2658TIP3    H129533   0.114   4.829   6.878 -0.6037  0.1970  1.8985
 2658TIP3    H229534   0.221   4.722   6.892 -0.0652  0.2435 -1.1607
 2659TIP3   OH229535   1.882   5.387   1.181  0.0871 -0.3696  0.5845
 2659TIP3    H129536   1.828   5.316   1.215 -2.2080  0.4110 -1.1635
 2659TIP3    H229537   1.882   5.453   1.251 -1.9044 -0.0867  0.3743
 2660TIP3   OH229538   5.257   1.714   7.631 -0.2882 -0.3388  0.4497
 2660TIP3    H129539   5.254   1.635   7.577 -2.0778 -1.2372  1.7340
 2660TIP3    H229540   5.325   1.768   7.592  0.5399 -2.2365 -0.8645
 2661TIP3   OH229541   2.485   1.227   8.051  0.1768 -0.1827  0.5317
 2661TIP3    H129542   2.532   1.304   8.019 -1.4610  0.9656  0.7499
 2661TIP3    H229543   2.521   1.212   8.139  1.0919 -0.2013  0.1675
 2662TIP3   OH229544   0.943   1.291   7.752 -0.0148 -0.7131 -0.2058
 2662TIP3    H129545   0.987   1.320   7.832  1.8651  2.7027 -2.2401
 2662TIP3    H229546   0.991   1.214   7.724  0.7308 -0.6233  0.7863
 2663TIP3   OH229547   6.673   6.157   1.146  0.1358  0.4390  0.1760
 2663TIP3    H129548   6.691   6.104   1.068 -1.5333 -1.1632  0.7951
 2663TIP3    H229549   6.675   6.094   1.218 -1.9993  1.1563  0.9259
 2664TIP3   OH229550   4.294   3.106   7.867  0.2092 -0.6151  0.1255
 2664TIP3    H129551   4.249   3.025   7.843  0.3869 -0.7851  0.3563
 2664TIP3    H229552   4.336   3.086   7.950 -2.2992  0.6800  1.8060
 2665TIP3   OH229553   1.873   2.467   7.683  0.4349  0.0879 -1.2028
 2665TIP3    H129554   1.967   2.449   7.689  0.3804 -0.2755 -1.4258
 2665TIP3    H229555   1.842   2.411   7.612 -0.1028 -0.4032 -0.5983
 2666TIP3   OH229556   6.755   4.826   0.160  0.3321  0.4986 -0.0489
 2666TIP3    H129557   6.697   4.759   0.196  0.7944  1.1533  2.0356
 2666TIP3    H229558   6.843   4.791   0.174  0.5142  0.4653 -1.2160
 2667TIP3   OH229559   4.448   0.450   7.933  0.0031 -0.3834  0.7237
 2667TIP3    H129560   4.528   0.440   7.985  1.6243  2.5027 -0.9556
 2667TIP3    H229561   4.444   0.543   7.913 -0.1874 -1.2498 -4.6833
 2668TIP3   OH229562   4.474   6.457   1.068 -0.1846  0.5159  0.5118
 2668TIP3    H129563   4.405   6.459   1.134  0.3663  0.3898  1.0986
 2668TIP3    H229564   4.481   6.548   1.039  0.1970  0.7535  1.3034
 2669TIP3   OH229565   4.158   1.974   2.265 -0.1670 -0.2985 -0.0043
 2669TIP3    H129566   4.108   1.900   2.297 -1.1271  0.0225 -0.7071
 2669TIP3    H229567   4.093   2.044   2.254  0.2647 -0.1075 -1.6883
 2670TIP3   OH229568   0.944   5.695   7.888 -0.4677 -0.5027 -0.1692
 2670TIP3    H129569   0.912   5.607   7.870 -1.0151 -0.8116  2.0299
 2670TIP3    H229570   1.000   5.685   7.965  0.6195  0.8747 -0.7377
 2671TIP3   OH229571   2.006   1.200   0.324 -0.3342  0.2704  0.6035
 2671TIP3    H129572   1.971   1.170   0.408 -1.0549  0.7041  0.4645
 2671TIP3    H229573   1.929   1.225   0.273  0.0108 -1.1827 -0.6803
 2672TIP3   OH229574   2.380   0.785   1.975  0.1252 -0.2253  0.6018
 2672TIP3    H129575   2.318   0.849   2.011 -0.6714 -0.4486 -0.3415
 2672TIP3    H229576   2.446   0.839   1.932  0.0956 -0.0050  0.8290
 2673TIP3   OH229577   6.634   4.532   2.287  0.6286  0.3638  0.1532
 2673TIP3    H129578   6.606   4.613   2.245  0.9191  1.0685  1.2847
 2673TIP3    H229579   6.557   4.502   2.336  1.6356  2.1986  3.1039
 2674TIP3   OH229580   6.444   5.250   7.133  0.3218  0.0626  0.2185
 2674TIP3    H129581   6.362   5.291   7.161 -0.4481 -0.9357 -0.4986
 2674TIP3    H229582   6.452   5.274   7.041  0.2422 -0.7703 -0.0137
 2675TIP3   OH229583   4.107   2.085   0.207 -0.3968  0.5304  0.2447
 2675TIP3    H129584   4.163   2.008   0.199 -1.4084 -0.0604 -1.6054
 2675TIP3    H229585   4.153   2.152   0.156  0.3830  1.1449  1.6911
 2676TIP3   OH229586   3.466   0.567   6.919 -0.4216 -0.3134 -0.1285
 2676TIP3    H129587   3.413   0.645   6.930 -1.7977 -1.0357 -1.2763
 2676TIP3    H229588   3.458   0.545   6.826  0.5836 -1.3553  0.0058
 2677TIP3   OH229589   6.267   0.354   2.305 -0.4203 -0.1812 -0.6545
 2677TIP3    H129590   6.324   0.430   2.315  0.1168 -0.8276  2.3967
 2677TIP3    H229591   6.305   0.304   2.233  2.8102 -0.3939  1.0204
 2678TIP3   OH229592   3.361   4.545   8.416  0.1465  0.3601  0.7466
 2678TIP3    H129593   3.391   4.626   8.458  0.1243  0.4212  0.6449
 2678TIP3    H229594   3.269   4.538   8.439  0.1506  0.3601  0.7624
 2679TIP3   OH229595   2.964   6.807   0.349  0.2011 -0.2962 -0.1306
 2679TIP3    H129596   2.934   6.816   0.259  1.8339  1.3188 -0.5797
 2679TIP3    H229597   3.024   6.733   0.348 -0.7271 -1.0601 -0.0788
 2680TIP3   OH229598   4.945   1.032   0.841  0.2448  0.0574  0.5264
 2680TIP3    H129599   4.916   1.120   0.816  0.2421 -0.3940 -1.2168
 2680TIP3    H229600   5.036   1.044   0.868  1.2501  0.2613 -2.5388
 2681TIP3   OH229601   4.972   3.936   0.791  0.2297 -0.3841 -0.0402
 2681TIP3    H129602   5.067   3.925   0.800  0.3294 -0.8116 -1.3924
 2681TIP3    H229603   4.959   3.953   0.698 -1.0233 -0.2272  0.1508
 2682TIP3   OH229604   4.207   0.606   8.458 -0.3875 -0.5625 -0.2031
 2682TIP3    H129605   4.163   0.530   8.420 -0.7727 -0.9862  1.0426
 2682TIP3    H229606   4.200   0.593   8.552  1.0010  0.1903  0.0338
 2683TIP3   OH229607   3.315   3.518   7.770  0.0476 -0.3833  0.2242
 2683TIP3    H129608   3.362   3.488   7.693 -0.7191  0.3017 -0.5290
 2683TIP3    H229609   3.233   3.553   7.737 -0.4589 -0.4046  1.3893
 2684TIP3   OH229610   2.696   1.949   2.061 -0.2998 -0.5764 -0.1965
 2684TIP3    H129611   2.686   1.963   2.155  1.5748 -0.0153 -0.0486
 2684TIP3    H229612   2.744   1.867   2.053  1.5371  0.4773 -0.5425
 2685TIP3   OH229613   6.444   0.062   1.835  0.1721 -0.7731 -0.5310
 2685TIP3    H129614   6.443   0.123   1.761 -1.3560 -0.1877 -0.0524
 2685TIP3    H229615   6.480  -0.019   1.798 -2.0962 -1.0299 -2.3828
 2686TIP3   OH229616   1.574   4.370   1.684 -0.1721 -0.1148  0.1451
 2686TIP3    H129617   1.601   4.283   1.714  0.6259 -0.1707 -0.7069
 2686TIP3    H229618   1.591   4.369   1.590 -0.4416  0.8685  0.0767
 2687TIP3   OH229619   3.637   4.673   1.266 -0.5275 -0.9140 -0.4313
 2687TIP3    H129620   3.607   4.608   1.329 -1.0218 -0.6842 -0.4230
 2687TIP3    H229621   3.727   4.647   1.245 -0.5929 -1.3782 -0.1456
 2688TIP3   OH229622   0.879   4.396   6.491 -0.2242  0.0513  0.3081
 2688TIP3    H129623   0.889   4.444   6.573  1.5231 -0.7189  0.5843
 2688TIP3    H229624   0.947   4.329   6.493 -0.1938 -0.0506 -1.7365
 2689TIP3   OH229625   1.019   1.674   0.689 -0.1298 -0.4892 -0.1704
 2689TIP3    H129626   1.022   1.655   0.595 -0.6105  0.6041 -0.4126
 2689TIP3    H229627   1.107   1.652   0.720  0.4307  0.3393 -1.1127
 2690TIP3   OH229628   5.256   5.969   8.251 -0.2721  0.1960 -0.1402
 2690TIP3    H129629   5.294   6.003   8.332 -0.2462  2.6335 -1.0986
 2690TIP3    H229630   5.300   5.885   8.238  3.1799  1.8127  0.0237
 2691TIP3   OH229631   4.872   5.073   7.276 -0.7908  0.2394  0.0485
 2691TIP3    H129632   4.948   5.015   7.285  0.6291  2.0719  0.7062
 2691TIP3    H229633   4.808   5.040   7.339 -0.8864 -1.8253 -1.0850
 2692TIP3   OH229634   4.203   0.329   7.296  0.2523 -0.6034  0.3592
 2692TIP3    H129635   4.265   0.313   7.224  1.1803  0.5528  0.8737
 2692TIP3    H229636   4.176   0.242   7.324 -0.4198 -1.0928 -1.6111
 2693TIP3   OH229637   6.645   0.174   7.012 -0.1793 -0.1675  0.1920
 2693TIP3    H129638   6.677   0.101   7.066  0.5524  0.8142  1.1196
 2693TIP3    H229639   6.556   0.190   7.044  0.1607  0.2428  0.9531
 2694TIP3   OH229640   2.676   1.755   7.307  0.5356 -0.0498  0.3265
 2694TIP3    H129641   2.766   1.764   7.337  1.2000 -1.4068 -1.1568
 2694TIP3    H229642   2.626   1.814   7.364  2.5206  1.7613  0.3162
 2695TIP3   OH229643   4.079   5.776   0.291  0.0747  0.7276  0.2104
 2695TIP3    H129644   3.989   5.781   0.323 -0.6290 -0.6692 -1.3691
 2695TIP3    H229645   4.081   5.696   0.237  2.0391  1.1745 -0.4768
 2696TIP3   OH229646   0.643   0.957   6.080 -0.1697  0.0928  0.9046
 2696TIP3    H129647   0.551   0.933   6.071 -0.3613  0.9742  0.3680
 2696TIP3    H229648   0.691   0.886   6.037 -0.7002  0.4672 -0.3448
 2697TIP3   OH229649   0.188   3.033   0.919  0.6544  0.1936 -0.3116
 2697TIP3    H129650   0.148   3.079   0.845  1.5382  1.3147 -0.1185
 2697TIP3    H229651   0.245   2.968   0.879  0.4579  0.1998 -0.6043
 2698TIP3   OH229652   0.404   2.552   2.549  0.4903  0.8721 -0.0390
 2698TIP3    H129653   0.412   2.493   2.624 -0.9089  0.3380 -0.2836
 2698TIP3    H229654   0.494   2.565   2.518  0.8849 -0.5444  0.4684
 2699TIP3   OH229655   3.846   4.463   1.353 -0.3146 -0.0366 -0.5443
 2699TIP3    H129656   3.785   4.403   1.396  0.5603 -0.4710  0.1116
 2699TIP3    H229657   3.889   4.510   1.425  1.6630 -1.2524 -0.8462
 2700TIP3   OH229658   4.921   2.235   2.191  0.0736  0.2623  0.4449
 2700TIP3    H129659   4.845   2.251   2.135  0.3823  1.9568  0.4597
 2700TIP3    H229660   4.887   2.184   2.265 -0.9389  0.6013  0.2182
 2701TIP3   OH229661   6.366   2.123   1.383  1.1825  0.0560 -0.6163
 2701TIP3    H129662   6.313   2.045   1.393  0.1110  0.6552 -1.4406
 2701TIP3    H229663   6.408   2.113   1.298  0.8791  0.4673 -0.8168
 2702TIP3   OH229664   0.681   0.728   1.826  0.2081 -0.0770 -0.5251
 2702TIP3    H129665   0.612   0.730   1.891  0.8081 -0.8386  0.1522
 2702TIP3    H229666   0.690   0.819   1.797 -1.3926 -0.0412 -0.9858
 2703TIP3   OH229667   5.169   0.198   1.721  0.0788  0.1713 -0.2672
 2703TIP3    H129668   5.091   0.253   1.730 -0.1958 -0.1903 -0.4230
 2703TIP3    H229669   5.136   0.108   1.725  0.7181 -0.0280  1.8727
 2704TIP3   OH229670   2.364   5.285   7.095  0.8582 -0.3629  0.1304
 2704TIP3    H129671   2.354   5.322   7.007 -2.5473 -0.9813  0.1117
 2704TIP3    H229672   2.334   5.355   7.153 -2.5001 -1.7371  0.2925
 2705TIP3   OH229673   0.972   3.927   7.551 -0.3968 -0.2266  0.5723
 2705TIP3    H129674   0.891   3.978   7.546 -1.1998 -1.4376  1.0901
 2705TIP3    H229675   1.038   3.992   7.577 -1.2348  0.7149  0.4467
 2706TIP3   OH229676   1.437   3.823   0.369 -0.2007  0.0381 -0.4175
 2706TIP3    H129677   1.448   3.916   0.347 -1.4748  0.8601  2.0232
 2706TIP3    H229678   1.489   3.811   0.448  0.1864 -1.4370 -0.8673
 2707TIP3   OH229679   5.258   6.540   0.507  0.7294  0.0671 -0.2553
 2707TIP3    H129680   5.293   6.593   0.580  0.2897 -1.9302  1.5109
 2707TIP3    H229681   5.181   6.589   0.478  0.7508  0.8017  0.8242
 2708TIP3   OH229682   2.746   2.971   0.955 -0.6834  0.0714 -0.5834
 2708TIP3    H129683   2.675   2.925   1.001 -1.4028 -0.7014 -2.3526
 2708TIP3    H229684   2.795   2.901   0.912  1.5009  0.5489  0.9795
 2709TIP3   OH229685   1.881   2.799   7.861  0.0006  0.9169 -0.3580
 2709TIP3    H129686   1.799   2.847   7.872 -0.4001  0.6537 -1.9072
 2709TIP3    H229687   1.885   2.782   7.767  0.8571 -0.7951 -0.0377
 2710TIP3   OH229688   4.100   0.085   8.008  0.3478  0.5480  0.0311
 2710TIP3    H129689   4.060   0.017   8.061  0.4806  0.3733 -0.0911
 2710TIP3    H229690   4.146   0.141   8.071  1.2666 -0.1765  0.0268
 2711TIP3   OH229691   2.265   2.500   6.468  0.5972 -0.5076  0.3403
 2711TIP3    H129692   2.289   2.579   6.420  3.9962 -1.2273  0.6251
 2711TIP3    H229693   2.286   2.428   6.408  1.9598 -1.3039  1.6935
 2712TIP3   OH229694   0.237   4.861   0.606 -1.0602  0.2895  0.0753
 2712TIP3    H129695   0.173   4.928   0.585 -1.8638 -0.0786  1.2533
 2712TIP3    H229696   0.197   4.811   0.677  0.4537 -0.0606  0.7152
 2713TIP3   OH229697   0.509   1.538   7.095  0.0514 -0.1675  0.4364
 2713TIP3    H129698   0.595   1.497   7.084  0.3631  0.5109  0.2428
 2713TIP3    H229699   0.521   1.627   7.061 -1.3123 -0.7164 -1.6799
 2714TIP3   OH229700   2.680   6.824   5.848 -0.1589 -0.0131  0.6317
 2714TIP3    H129701   2.591   6.858   5.838  0.4841  2.3268  2.1071
 2714TIP3    H229702   2.722   6.843   5.764 -0.3081  1.3702  0.8504
 2715TIP3   OH229703   4.338   1.857   0.230 -0.3154 -0.1533  0.4556
 2715TIP3    H129704   4.414   1.884   0.179  0.1613  0.6232  1.5458
 2715TIP3    H229705   4.362   1.876   0.321 -0.8044 -2.2632  1.0836
 2716TIP3   OH229706   5.106   5.053   2.314 -0.5515 -0.3689  0.4459
 2716TIP3    H129707   5.076   4.976   2.363 -0.5276 -1.1259 -0.6833
 2716TIP3    H229708   5.034   5.116   2.322 -1.1978 -1.0580  0.1793
 2717TIP3   OH229709   6.037   0.347   7.290 -0.0546  0.2208  0.5931
 2717TIP3    H129710   5.976   0.418   7.269  0.1183  1.1184  2.8773
 2717TIP3    H229711   5.982   0.270   7.303 -0.6023  0.7279  1.3655
 2718TIP3   OH229712   6.438   6.861   1.088  0.5099 -0.7419  0.2112
 2718TIP3    H129713   6.371   6.793   1.087  0.6388 -0.8666  0.0181
 2718TIP3    H229714   6.399   6.932   1.140  0.0153 -0.5958 -0.3384
 2719TIP3   OH229715   5.756   0.148   7.753 -0.1272 -0.5312  0.4067
 2719TIP3    H129716   5.806   0.213   7.705  0.4674 -0.5802  0.9540
 2719TIP3    H229717   5.820   0.104   7.809 -0.8176 -0.4088  1.3227
 2720TIP3   OH229718   1.391   1.934   0.922 -0.6613  0.3479  0.1733
 2720TIP3    H129719   1.330   1.906   0.854  1.7268 -0.1047 -1.9734
 2720TIP3    H229720   1.444   1.857   0.939  1.5593  1.5598 -0.7278
 2721TIP3   OH229721   0.335   6.346   1.043  0.0640  0.1311 -0.3591
 2721TIP3    H129722   0.259   6.307   1.000  0.7224 -0.6343 -0.8370
 2721TIP3    H229723   0.313   6.345   1.136 -0.8167  0.6007 -0.5437
 2722TIP3   OH229724   3.129   6.282   0.224 -0.1083  0.5405  0.1090
 2722TIP3    H129725   3.116   6.272   0.130 -0.3389 -1.9382  0.3421
 2722TIP3    H229726   3.042   6.271   0.262  0.3593 -1.6142  0.7397
 2723TIP3   OH229727   5.267   6.297   1.680  0.1700  0.5870  0.5453
 2723TIP3    H129728   5.362   6.289   1.679  0.0820 -0.8473  1.4644
 2723TIP3    H229729   5.236   6.229   1.620 -0.3129  0.3829  1.0228
 2724TIP3   OH229730   0.716   4.321   2.468  0.4054 -0.0273 -0.1591
 2724TIP3    H129731   0.684   4.411   2.464  0.4352  0.0386  0.8557
 2724TIP3    H229732   0.809   4.327   2.447  0.2556  0.0877 -0.7872
 2725TIP3   OH229733   0.706   1.909   7.686  0.0638  0.4736 -0.4080
 2725TIP3    H129734   0.677   1.846   7.752  1.2876 -0.5899 -0.8435
 2725TIP3    H229735   0.730   1.856   7.611  2.3663  1.3254 -0.3458
 2726TIP3   OH229736   2.969   3.574   0.675 -0.2907 -0.2171 -0.0817
 2726TIP3    H129737   3.056   3.542   0.696 -0.0330 -0.9580 -2.0116
 2726TIP3    H229738   2.985   3.654   0.624 -0.7652  0.0220  0.1396
 2727TIP3   OH229739   5.628   5.726   0.196 -0.2329  0.2131 -0.0706
 2727TIP3    H129740   5.664   5.814   0.185  1.0044 -0.2685 -0.0707
 2727TIP3    H229741   5.595   5.725   0.286 -2.2364  1.3342 -0.7350
 2728TIP3   OH229742   5.083   1.561   6.813  0.7360 -0.0272 -0.2028
 2728TIP3    H129743   5.051   1.475   6.787  1.5551 -0.6394  0.7226
 2728TIP3    H229744   5.172   1.565   6.779  0.3423  0.8990 -1.1558
 2729TIP3   OH229745   5.081   3.739   8.138 -0.2440 -0.3256 -0.2678
 2729TIP3    H129746   5.009   3.683   8.168 -1.5261  1.0557 -0.6161
 2729TIP3    H229747   5.127   3.764   8.217  0.3453 -1.8435 -0.1090
 2730TIP3   OH229748   5.791   2.445   1.505  0.2738 -0.4891 -0.6222
 2730TIP3    H129749   5.826   2.429   1.417 -0.2218  0.2562 -0.9643
 2730TIP3    H229750   5.753   2.361   1.531  0.0784 -0.6149 -1.2845
 2731TIP3   OH229751   1.948   5.600   8.309  0.6782  0.5252 -0.1830
 2731TIP3    H129752   1.878   5.662   8.327 -0.2054 -0.7491  1.0142
 2731TIP3    H229753   1.944   5.585   8.214 -0.7990  0.3609 -0.1149
 2732TIP3   OH229754   6.648   3.744   7.775 -0.0926  0.2522 -0.2778
 2732TIP3    H129755   6.572   3.745   7.833 -0.0204 -1.2605 -0.1153
 2732TIP3    H229756   6.722   3.768   7.832 -0.2130  0.0697 -0.0408
 2733TIP3   OH229757   3.661   6.025   8.074  0.0160 -0.1998 -0.1997
 2733TIP3    H129758   3.582   5.975   8.094 -0.2972  0.6161  0.6656
 2733TIP3    H229759   3.631   6.094   8.014  0.4150 -0.9132 -1.2555
 2734TIP3   OH229760   0.292   3.294   2.038  0.0970  0.0608 -0.0464
 2734TIP3    H129761   0.205   3.261   2.014  1.3780 -1.6080 -2.8494
 2734TIP3    H229762   0.290   3.299   2.133 -2.0591 -2.9827  0.2091
 2735TIP3   OH229763   6.684   3.953   8.232  0.1466  0.2842 -0.0065
 2735TIP3    H129764   6.595   3.984   8.216 -0.1134 -0.6375 -0.4189
 2735TIP3    H229765   6.728   4.027   8.273  0.4049  2.2978 -3.4968
 2736TIP3   OH229766   4.890   0.210   7.141  0.2314  0.3065  0.0513
 2736TIP3    H129767   4.832   0.286   7.130  2.3925  2.0540  0.0865
 2736TIP3    H229768   4.918   0.215   7.232  0.6942 -0.3160 -0.0571
 2737TIP3   OH229769   5.955   5.530   8.173  0.0411  0.3864 -0.1645
 2737TIP3    H129770   5.973   5.622   8.155  2.2044 -0.2761 -1.8008
 2737TIP3    H229771   6.017   5.506   8.242 -1.4733  0.4274  1.2918
 2738TIP3   OH229772   0.389   3.801   7.796 -0.2072  0.0875 -0.4935
 2738TIP3    H129773   0.367   3.803   7.703  1.5142  2.2160 -0.9548
 2738TIP3    H229774   0.358   3.885   7.829  1.3222  0.3786  0.2671
 2739TIP3   OH229775   2.090   4.946   8.625 -0.1709  0.1982 -0.0834
 2739TIP3    H129776   2.118   4.993   8.702 -1.2504 -0.9730  1.0898
 2739TIP3    H229777   2.159   4.960   8.560  0.5439  1.5514  0.9452
 2740TIP3   OH229778   3.211   5.021   1.198 -0.5180  0.5704  0.3132
 2740TIP3    H129779   3.126   5.052   1.168 -0.5953  0.1278  0.0604
 2740TIP3    H229780   3.264   5.014   1.118 -0.3291  0.5889  0.4347
 2741TIP3   OH229781   5.072   5.787   1.555  0.2308 -0.2696  0.1420
 2741TIP3    H129782   4.982   5.809   1.579  0.1658  1.6092 -1.5992
 2741TIP3    H229783   5.110   5.753   1.636 -0.9742  2.4025  1.9774
 2742TIP3   OH229784   6.608   2.893   7.229 -1.3077  0.2100 -0.1294
 2742TIP3    H129785   6.623   2.904   7.323 -0.8198 -1.6792  0.0639
 2742TIP3    H229786   6.611   2.982   7.193  1.5572  0.7838  1.2195
 2743TIP3   OH229787   6.427   6.785   0.298 -0.4601  0.5550  0.2392
 2743TIP3    H129788   6.495   6.796   0.232 -1.1274  0.0350 -0.5588
 2743TIP3    H229789   6.366   6.723   0.259 -0.2228 -0.7748  1.8683
 2744TIP3   OH229790   3.351   3.331   0.165  0.1048 -0.7546 -0.7401
 2744TIP3    H129791   3.322   3.331   0.256 -0.5821  0.0569 -0.9470
 2744TIP3    H229792   3.425   3.392   0.164 -1.0624  0.6954 -1.0637
 2745TIP3   OH229793   3.660   2.011   7.257  0.0406 -0.6492  0.6285
 2745TIP3    H129794   3.589   1.950   7.276 -1.5108  0.9051  0.1493
 2745TIP3    H229795   3.713   1.967   7.191 -1.6440 -1.0763 -0.5096
 2746TIP3   OH229796   2.813   1.414   8.184 -0.2017  0.1177  0.1645
 2746TIP3    H129797   2.726   1.452   8.200  0.0999  0.6789  0.5222
 2746TIP3    H229798   2.873   1.472   8.231  0.4364  0.1327 -0.6417
 2747TIP3   OH229799   5.557   6.341   1.653  0.1319 -0.3818 -0.1360
 2747TIP3    H129800   5.631   6.294   1.690  1.7948  1.0958 -1.4243
 2747TIP3    H229801   5.575   6.433   1.672 -0.6604  0.1147 -1.6357
 2748TIP3   OH229802   6.188   4.048   1.582 -0.1239 -0.1865 -0.1138
 2748TIP3    H129803   6.192   4.144   1.590  3.7283 -0.3307  4.0852
 2748TIP3    H229804   6.255   4.027   1.517  0.3313 -0.0191  0.2901
 2749TIP3   OH229805   4.179   0.681   2.180 -0.1221 -1.1388 -0.9567
 2749TIP3    H129806   4.148   0.718   2.097 -0.9502 -0.6061 -0.4276
 2749TIP3    H229807   4.163   0.750   2.244 -0.4918 -1.9414 -0.1653
 2750TIP3   OH229808   0.552   3.287   0.405 -0.8028  0.0128  0.5301
 2750TIP3    H129809   0.563   3.382   0.403 -0.5441 -0.0170 -1.1104
 2750TIP3    H229810   0.580   3.258   0.318 -0.9600 -1.5606  0.9691
 2751TIP3   OH229811   6.792   2.637   8.638  0.0789 -0.4835 -0.6794
 2751TIP3    H129812   6.711   2.602   8.673  0.4245 -1.0808 -0.4529
 2751TIP3    H229813   6.780   2.731   8.638  0.3125 -0.3973  1.7085
 2752TIP3   OH229814   5.583   4.324   7.241  0.1417 -0.2070  0.3925
 2752TIP3    H129815   5.560   4.237   7.210  1.5951 -0.8267  0.9959
 2752TIP3    H229816   5.555   4.325   7.332 -0.3922  0.1826  0.2355
 2753TIP3   OH229817   3.311   3.942   0.333 -0.6441  0.7024  0.2697
 2753TIP3    H129818   3.332   3.996   0.409 -2.5357  0.5253  0.9612
 2753TIP3    H229819   3.330   3.852   0.361  0.7151  0.7878 -0.2530
 2754TIP3   OH229820   6.128   6.764   0.460  0.1514  0.1946  0.1878
 2754TIP3    H129821   6.037   6.790   0.474 -0.2095 -0.3415 -1.0719
 2754TIP3    H229822   6.167   6.839   0.416 -0.0204 -0.0727 -0.4266
 2755TIP3   OH229823   4.232   4.273   7.713 -0.0661 -0.0020 -0.1918
 2755TIP3    H129824   4.173   4.230   7.775 -0.0921  0.3737  0.0453
 2755TIP3    H229825   4.193   4.256   7.627  0.0981 -0.7349 -0.1338
 2756TIP3   OH229826   6.318   0.617   7.092  0.2774 -0.1959 -0.1743
 2756TIP3    H129827   6.291   0.695   7.139 -0.5470 -1.7071  2.0098
 2756TIP3    H229828   6.271   0.621   7.008  0.0358  1.4674  0.0184
 2757TIP3   OH229829   5.054   5.128   0.325 -0.6628  0.0355  0.3205
 2757TIP3    H129830   5.061   5.035   0.345 -0.5735  0.3802  2.0920
 2757TIP3    H229831   5.109   5.171   0.391  1.0788  1.2434 -1.7956
 2758TIP3   OH229832   4.723   3.472   7.293  0.0163 -0.4250  0.1902
 2758TIP3    H129833   4.792   3.519   7.340  0.2234  0.1823 -0.6988
 2758TIP3    H229834   4.646   3.480   7.349  0.2906  0.1770  0.4858
 2759TIP3   OH229835   5.550   4.043   1.782 -0.5032  0.0169 -0.1651
 2759TIP3    H129836   5.532   3.949   1.788 -1.4724  0.0855 -1.5991
 2759TIP3    H229837   5.475   4.085   1.823  1.1498  0.2034  2.9898
 2760TIP3   OH229838   6.786   1.125   0.198  0.5060  0.6603  0.1257
 2760TIP3    H129839   6.702   1.081   0.189  0.7708  0.3662 -1.0998
 2760TIP3    H229840   6.782   1.198   0.136  1.9313 -0.6338 -1.6089
 2761TIP3   OH229841   2.860   6.225   7.598 -0.4355 -0.3973 -0.1276
 2761TIP3    H129842   2.951   6.195   7.594 -0.3135 -0.0890  0.2772
 2761TIP3    H229843   2.815   6.158   7.650 -0.1768  0.0765  0.7193
 2762TIP3   OH229844   6.377   3.203   7.618  0.1634  0.2923  0.3255
 2762TIP3    H129845   6.404   3.286   7.579 -1.0379  0.5458  0.0155
 2762TIP3    H229846   6.332   3.157   7.547 -1.9734  0.7167  1.3486
 2763TIP3   OH229847   4.502   6.693   0.950 -0.1165 -0.1571  0.1084
 2763TIP3    H129848   4.585   6.742   0.947 -1.1846  1.9502  1.7203
 2763TIP3    H229849   4.443   6.750   1.000 -1.9092 -2.5478  0.9070
 2764TIP3   OH229850   3.213   6.563   0.060  0.1500 -0.5782 -0.4804
 2764TIP3    H129851   3.269   6.635   0.033  0.7537 -1.2405 -1.0481
 2764TIP3    H229852   3.126   6.602   0.072  0.9735  0.7336  1.7269
 2765TIP3   OH229853   6.603   6.178   2.462  0.5549  0.3087  0.5484
 2765TIP3    H129854   6.599   6.239   2.389 -1.6619 -0.8367 -0.3807
 2765TIP3    H229855   6.635   6.096   2.424  0.0928 -0.0909  1.0036
 2766TIP3   OH229856   4.147   2.769   1.644  0.9205 -0.1253 -0.2016
 2766TIP3    H129857   4.082   2.717   1.691  2.9995  0.0183  3.1910
 2766TIP3    H229858   4.136   2.745   1.552 -3.6695 -0.2159  0.1677
 2767TIP3   OH229859   6.729   4.183   6.487 -0.3411  0.6308 -0.1981
 2767TIP3    H129860   6.793   4.209   6.421 -1.5727 -0.1091 -1.7682
 2767TIP3    H229861   6.710   4.263   6.535  0.1963  1.3227 -1.1077
 2768TIP3   OH229862   3.182   5.327   7.268  0.0380 -0.1153  0.4250
 2768TIP3    H129863   3.145   5.415   7.282  0.8262  0.2948 -0.0111
 2768TIP3    H229864   3.169   5.310   7.175  1.3951  0.2564  0.1499
 2769TIP3   OH229865   4.592   0.935   1.373  0.2290  0.7449  0.7099
 2769TIP3    H129866   4.688   0.938   1.381  0.2343  0.2631  0.8535
 2769TIP3    H229867   4.561   0.994   1.442  0.4504  2.5378 -0.6291
 2770TIP3   OH229868   5.386   5.706   7.523 -0.1849 -0.0017  0.4322
 2770TIP3    H129869   5.305   5.705   7.574 -0.4565  1.1949  0.0572
 2770TIP3    H229870   5.447   5.654   7.575 -1.5848 -2.1966 -0.0019
 2771TIP3   OH229871   5.027   5.903   0.219 -0.5842  0.2100 -0.1507
 2771TIP3    H129872   5.072   5.955   0.152 -1.7804  2.9087  1.0039
 2771TIP3    H229873   5.074   5.819   0.219  1.1150  1.0318 -2.5033
 2772TIP3   OH229874   3.282   2.346   6.629 -0.0519  0.1178  0.1686
 2772TIP3    H129875   3.189   2.321   6.632 -0.3663  1.2406  0.4490
 2772TIP3    H229876   3.326   2.279   6.680 -0.4251 -1.5028 -1.5210
 2773TIP3   OH229877   5.915   3.839   6.780 -0.3546 -0.4097  0.3472
 2773TIP3    H129878   5.932   3.745   6.774  0.5815 -0.2443  0.2640
 2773TIP3    H229879   5.995   3.880   6.748 -0.8361  0.4198  0.1821
 2774TIP3   OH229880   2.148   0.949   1.661 -0.1729 -0.3788  0.1036
 2774TIP3    H129881   2.203   0.959   1.739  1.2744 -0.9295 -0.8096
 2774TIP3    H229882   2.210   0.937   1.589 -1.4955 -0.7880 -1.0094
 2775TIP3   OH229883   5.835   2.800   0.818  0.3747 -0.1119  0.0183
 2775TIP3    H129884   5.862   2.804   0.726  0.2540  0.6614  0.0149
 2775TIP3    H229885   5.777   2.875   0.830  0.4077 -0.1917  0.7343
 2776TIP3   OH229886   2.546   0.363   0.060  0.1896  0.0997  0.4012
 2776TIP3    H129887   2.491   0.323   0.127 -1.0350  1.5639  0.3148
 2776TIP3    H229888   2.596   0.430   0.107  0.3058  0.2413  0.0763
 2777TIP3   OH229889   4.802   6.284   6.728 -0.2688 -0.1259 -0.0669
 2777TIP3    H129890   4.771   6.344   6.795 -1.0593  0.1041 -0.6210
 2777TIP3    H229891   4.759   6.313   6.648 -0.5973 -1.3602 -0.3688
 2778TIP3   OH229892   6.134   4.159   8.367 -0.2197  0.4947  0.5706
 2778TIP3    H129893   6.164   4.177   8.278  0.2328 -0.7097  0.4586
 2778TIP3    H229894   6.166   4.234   8.418  0.3798  0.7097 -0.1006
 2779TIP3   OH229895   3.701   4.164   7.998  0.0023  0.0352 -0.3023
 2779TIP3    H129896   3.774   4.193   8.052 -0.5274  1.7591 -0.4403
 2779TIP3    H229897   3.640   4.238   7.998 -0.8325 -0.5924 -1.8108
 2780TIP3   OH229898   3.465   3.402   7.050 -0.3377 -0.3910 -0.1752
 2780TIP3    H129899   3.488   3.365   6.965  1.8036  0.2890  0.0315
 2780TIP3    H229900   3.387   3.455   7.034  0.3525  0.1772 -1.8545
 2781TIP3   OH229901   2.397   3.135   6.944 -0.3125  0.5371  0.0917
 2781TIP3    H129902   2.475   3.182   6.914  0.3416  0.7729  2.0010
 2781TIP3    H229903   2.326   3.198   6.932  0.0811  0.9693 -0.0121
 2782TIP3   OH229904   2.165   0.548   0.473  0.1572 -0.3271  0.1209
 2782TIP3    H129905   2.200   0.613   0.533  1.1326 -1.1562  0.4864
 2782TIP3    H229906   2.137   0.476   0.529 -0.1700 -0.5575 -0.3270
 2783TIP3   OH229907   6.335   4.543   0.092  1.0886 -0.4568 -0.0844
 2783TIP3    H129908   6.376   4.474   0.145  2.0681 -1.1192 -1.6312
 2783TIP3    H229909   6.327   4.617   0.152  0.7572 -1.6421  1.3978
 2784TIP3   OH229910   5.609   5.669   0.493 -0.1847  0.0598  0.1715
 2784TIP3    H129911   5.597   5.589   0.441  0.5631 -0.0207  0.1026
 2784TIP3    H229912   5.701   5.665   0.521 -0.8779 -0.4976  2.5294
 2785TIP3   OH229913   1.130   4.859   7.929  0.2541 -0.2876  0.5126
 2785TIP3    H129914   1.195   4.797   7.895  1.9017  0.8971  1.3732
 2785TIP3    H229915   1.179   4.939   7.946 -1.9820  1.6893 -1.5170
 2786TIP3   OH229916   2.092   3.403   7.552  0.3133  0.0803  0.3085
 2786TIP3    H129917   2.107   3.441   7.639  1.6791  2.4732 -0.8717
 2786TIP3    H229918   2.028   3.462   7.512 -0.8452 -1.4061 -0.1262
 2787TIP3   OH229919   6.077   3.665   2.276  0.2696  0.2588 -0.2697
 2787TIP3    H129920   6.095   3.668   2.182  0.0729 -0.3498 -0.3307
 2787TIP3    H229921   6.047   3.753   2.298 -1.5760 -0.1011 -1.1673
 2788TIP3   OH229922   3.057   0.921   1.425  0.3681 -0.2103 -0.4648
 2788TIP3    H129923   3.002   0.843   1.423 -1.7680  1.1672 -2.9566
 2788TIP3    H229924   2.998   0.991   1.453  1.0150  1.1755 -2.3049
 2789TIP3   OH229925   6.581   5.247   0.318  0.1264  0.0175 -0.0598
 2789TIP3    H129926   6.612   5.175   0.262 -0.5920  0.4496 -1.0416
 2789TIP3    H229927   6.544   5.202   0.394  0.9983 -0.5893  0.0238
 2790TIP3   OH229928   5.492   5.015   0.901  0.4953 -0.9527 -0.3619
 2790TIP3    H129929   5.516   5.095   0.949 -0.5414  1.6809 -3.7984
 2790TIP3    H229930   5.406   4.992   0.936  1.1287 -1.0873  1.2029
 2791TIP3   OH229931   2.542   5.090   7.140  0.2689  0.5109  0.4141
 2791TIP3    H129932   2.500   5.017   7.185  0.2672 -0.4574 -1.1031
 2791TIP3    H229933   2.470   5.149   7.118  0.0116  0.0367 -0.0320
 2792TIP3   OH229934   6.458   4.110   8.514 -0.1118 -0.0195 -0.2477
 2792TIP3    H129935   6.453   4.158   8.431 -0.5853 -1.8817 -1.3491
 2792TIP3    H229936   6.552   4.094   8.526 -0.1927 -2.1568 -1.9415
 2793TIP3   OH229937   2.650   4.245   7.823 -0.1321  0.5934  0.3541
 2793TIP3    H129938   2.701   4.326   7.814 -1.1149  0.9636 -3.7658
 2793TIP3    H229939   2.712   4.175   7.803 -0.3604  0.7979 -1.2239
 2794TIP3   OH229940   0.194   0.395   0.088 -0.3990 -0.1982 -0.1660
 2794TIP3    H129941   0.144   0.402   0.170  1.3734 -1.2030  1.0842
 2794TIP3    H229942   0.272   0.448   0.104 -0.2758  0.0195 -1.4385
 2795TIP3   OH229943   6.134   1.732   8.439 -0.3021  0.5691  0.2088
 2795TIP3    H129944   6.214   1.705   8.482  0.5284 -0.8358 -2.0280
 2795TIP3    H229945   6.070   1.664   8.461 -0.2627  0.5648  0.3054
 2796TIP3   OH229946   2.674   0.148   8.601  1.0109 -0.2989  0.4530
 2796TIP3    H129947   2.767   0.169   8.593  0.8680 -0.2568 -1.2898
 2796TIP3    H229948   2.639   0.218   8.658  1.6240  0.9982 -0.7175
 2797TIP3   OH229949   5.425   4.370   2.703  0.3145  0.1731  0.0822
 2797TIP3    H129950   5.416   4.451   2.653  1.7663 -0.8546 -1.9697
 2797TIP3    H229951   5.340   4.359   2.747 -0.4467  1.9715 -0.8351
 2798TIP3   OH229952   1.056   5.994   7.609 -0.2122  0.5851  0.4691
 2798TIP3    H129953   0.995   6.065   7.632 -0.0897  0.8547 -0.0067
 2798TIP3    H229954   1.079   6.012   7.518  0.2666  0.2514  0.5216
 2799TIP3   OH229955   5.583   4.067   0.446  0.1340  0.3885  0.0948
 2799TIP3    H129956   5.653   4.121   0.411  0.1298 -0.0734 -0.6460
 2799TIP3    H229957   5.618   3.978   0.445 -0.6484  0.0729 -0.7970
 2800TIP3   OH229958   6.282   1.362   6.141 -0.6083  0.3751 -0.5762
 2800TIP3    H129959   6.195   1.371   6.180 -1.8534 -1.1992 -2.7828
 2800TIP3    H229960   6.307   1.272   6.159 -0.0091  0.4406 -1.0718
 2801TIP3   OH229961   3.837   3.809   7.436 -0.7008  0.0894 -0.1799
 2801TIP3    H129962   3.877   3.889   7.469 -0.2057 -0.4297  0.4824
 2801TIP3    H229963   3.751   3.807   7.478 -0.4698 -0.0478  0.2882
 2802TIP3   OH229964   6.159   1.652   2.803  0.0891 -0.1479 -0.3389
 2802TIP3    H129965   6.105   1.632   2.727  1.4554 -2.5839 -0.7496
 2802TIP3    H229966   6.225   1.584   2.804  2.7403  2.2432  0.5811
 2803TIP3   OH229967   1.906   5.274   7.986 -0.0307  0.0612 -0.4838
 2803TIP3    H129968   1.815   5.247   7.991  0.2394 -0.6381  1.7710
 2803TIP3    H229969   1.903   5.361   7.948 -1.5078 -0.4006 -1.5391
 2804TIP3   OH229970   4.588   6.391   0.439  0.1822  0.3910 -0.1189
 2804TIP3    H129971   4.596   6.296   0.436 -0.8766  0.1802  1.9317
 2804TIP3    H229972   4.597   6.419   0.348 -0.2971 -1.7249 -0.8743
 2805TIP3   OH229973   2.384   2.340   1.275 -0.0028  0.3021  0.0529
 2805TIP3    H129974   2.307   2.283   1.276  0.8117 -0.8616 -0.9226
 2805TIP3    H229975   2.445   2.300   1.337  0.3215  0.4873 -0.1413
 2806TIP3   OH229976   0.330   5.572   0.884 -0.1872  0.0842 -0.0309
 2806TIP3    H129977   0.240   5.544   0.902 -0.8968  1.6114 -0.9910
 2806TIP3    H229978   0.337   5.658   0.924  1.2103 -0.4379  0.9228
 2807TIP3   OH229979   0.485   2.217   7.774 -0.5110 -0.1227 -0.0221
 2807TIP3    H129980   0.410   2.192   7.828 -0.0986 -1.7022 -0.1268
 2807TIP3    H229981   0.523   2.292   7.819 -0.5027 -1.0473  1.5854
 2808TIP3   OH229982   1.603   1.508   7.095  0.9254 -0.1068  0.4361
 2808TIP3    H129983   1.568   1.420   7.078  1.7886 -0.1823 -1.1499
 2808TIP3    H229984   1.696   1.493   7.114  0.7717  0.3544  1.6781
 2809TIP3   OH229985   0.285   1.892   8.245 -0.2191 -0.6072 -0.3685
 2809TIP3    H129986   0.263   1.803   8.274 -0.4743  0.1442  1.9495
 2809TIP3    H229987   0.381   1.892   8.241 -0.1564 -0.7263  0.6728
 2810TIP3   OH229988   1.500   3.806   8.266 -0.7112 -0.4770 -0.1161
 2810TIP3    H129989   1.531   3.876   8.323 -1.0363 -0.0990 -0.3968
 2810TIP3    H229990   1.444   3.850   8.202 -1.1324 -1.0287 -0.1343
 2811TIP3   OH229991   6.481   3.070   0.925 -0.6934  0.3880  0.0738
 2811TIP3    H129992   6.550   3.096   0.863 -1.6428 -1.7343 -2.0132
 2811TIP3    H229993   6.499   2.978   0.944 -2.5352 -0.0137  0.0597
 2812TIP3   OH229994   1.030   3.668   8.485  0.1154  0.0224 -0.2612
 2812TIP3    H129995   1.085   3.740   8.455  1.3848 -0.8390 -0.0661
 2812TIP3    H229996   1.067   3.644   8.570 -0.3184 -0.8257 -0.3034
 2813TIP3   OH229997   0.979   5.757   7.432  0.1995  0.7628 -0.7344
 2813TIP3    H129998   1.035   5.834   7.437 -0.5160  1.3855 -1.8581
 2813TIP3    H229999   0.917   5.767   7.504  0.0545  1.2786 -0.9330
 2814TIP3   OH230000   4.728   6.604   2.091  0.0991 -0.3357  0.1952
 2814TIP3    H130001   4.649   6.562   2.124 -0.0192  0.4160  0.9136
 2814TIP3    H230002   4.789   6.532   2.075  1.2148 -0.7638  4.8058
 2815TIP3   OH230003   0.410   0.345   2.098  0.0167 -0.3280 -0.3345
 2815TIP3    H130004   0.453   0.371   2.017  1.7982  0.3656  0.7657
 2815TIP3    H230005   0.433   0.414   2.161 -1.5982 -0.6597  0.7039
 2816TIP3   OH230006   1.880   3.201   8.296  0.2054  0.8563 -0.3100
 2816TIP3    H130007   1.831   3.278   8.266  1.8005  1.6216 -1.0863
 2816TIP3    H230008   1.910   3.225   8.383 -0.3828  0.5731 -0.0234
 2817TIP3   OH230009   4.392   2.640   0.884 -0.2189  0.9669  0.3882
 2817TIP3    H130010   4.345   2.558   0.898  1.9631 -0.3574  0.4321
 2817TIP3    H230011   4.336   2.690   0.824 -0.8612 -1.2700 -0.9982
 2818TIP3   OH230012   4.622   5.471   0.586  0.0627 -0.4624 -0.5067
 2818TIP3    H130013   4.700   5.423   0.558  1.6290  1.2456  0.6603
 2818TIP3    H230014   4.618   5.457   0.680  0.1373  1.0626 -0.2591
 2819TIP3   OH230015   4.815   0.847   8.022 -0.5528  0.0750 -0.4468
 2819TIP3    H130016   4.810   0.899   7.942 -1.3704  1.6929  0.5955
 2819TIP3    H230017   4.907   0.847   8.046 -0.5759  1.3513 -0.2969
 2820TIP3   OH230018   2.007   2.214   0.552  0.5937  0.6465  0.1351
 2820TIP3    H130019   2.103   2.212   0.555  0.7272 -0.8890 -2.6087
 2820TIP3    H230020   1.980   2.160   0.626  1.8681  0.1059  0.2330
 2821TIP3   OH230021   5.082   1.965   0.376 -0.1596  0.1503  0.4227
 2821TIP3    H130022   5.141   1.977   0.451 -0.7695  0.5026  0.8510
 2821TIP3    H230023   5.050   1.875   0.385  0.3296 -0.0569  0.1662
 2822TIP3   OH230024   0.193   0.851   8.150  0.6556  0.1734 -0.7102
 2822TIP3    H130025   0.217   0.944   8.145  0.4453  0.6185  3.1519
 2822TIP3    H230026   0.277   0.805   8.154  0.7580  0.2589 -1.6490
 2823TIP3   OH230027   0.005   1.958   0.499  0.4030 -0.7693 -0.6492
 2823TIP3    H130028   0.086   2.007   0.510 -1.0036  1.6126 -0.1395
 2823TIP3    H230029   0.033   1.868   0.481  3.1286  0.1476 -1.4275
 2824TIP3   OH230030   6.117   3.554   7.807 -1.0696  0.1507  0.7221
 2824TIP3    H130031   6.054   3.554   7.735  1.0657 -3.3373 -1.4022
 2824TIP3    H230032   6.171   3.631   7.791 -1.7614  0.4503 -0.2880
 2825TIP3   OH230033   1.554   6.689   1.964 -0.3585  0.3113 -0.5876
 2825TIP3    H130034   1.622   6.749   1.933 -1.4833  2.2308  0.4980
 2825TIP3    H230035   1.522   6.728   2.045 -0.5369 -2.2553  0.6887
 2826TIP3   OH230036   6.655   1.347   7.707 -0.9299 -0.1036 -0.0423
 2826TIP3    H130037   6.571   1.336   7.663 -1.0264 -5.1054  0.8097
 2826TIP3    H230038   6.633   1.341   7.801  0.2999 -1.6802  0.1800
 2827TIP3   OH230039   3.206   5.237   1.712  0.1912  0.2516  0.3565
 2827TIP3    H130040   3.300   5.223   1.699 -0.0274  0.0985 -1.2300
 2827TIP3    H230041   3.197   5.253   1.806  1.8189  0.4197  0.5106
 2828TIP3   OH230042   2.234   0.171   7.250  0.2696  0.3451 -0.1680
 2828TIP3    H130043   2.204   0.222   7.326  0.5541  0.2753 -0.0050
 2828TIP3    H230044   2.304   0.116   7.285  0.0403 -0.0788 -0.3673
 2829TIP3   OH230045   0.601   3.043   8.359  0.5222  0.3466  0.7626
 2829TIP3    H130046   0.543   2.978   8.319 -0.3628  1.7186 -0.2830
 2829TIP3    H230047   0.564   3.060   8.445  0.6928 -0.4404  0.9926
 2830TIP3   OH230048   0.631   0.251   1.450 -0.5474  0.1154 -0.1183
 2830TIP3    H130049   0.565   0.292   1.505 -0.3174  0.2106  0.0859
 2830TIP3    H230050   0.651   0.316   1.382 -1.3342 -0.2630 -0.7285
 2831TIP3   OH230051   0.695   0.770   6.928  0.2660 -0.2879  0.6761
 2831TIP3    H130052   0.662   0.742   6.843 -0.2603  1.0856  0.4008
 2831TIP3    H230053   0.669   0.700   6.988  2.3150 -2.2454 -0.5628
 2832TIP3   OH230054   5.004   0.772   8.246  0.6037  0.1160 -0.2338
 2832TIP3    H130055   5.066   0.716   8.199 -0.6103 -2.2546  0.8349
 2832TIP3    H230056   4.998   0.734   8.333 -0.8995  1.4465  0.2993
 2833TIP3   OH230057   5.023   2.491   1.188  0.1495 -0.1999 -0.3008
 2833TIP3    H130058   5.009   2.511   1.096 -1.5925  2.8662  0.4899
 2833TIP3    H230059   4.942   2.449   1.217 -0.0021  0.4105  0.1855
 2834TIP3   OH230060   0.582   2.583   7.227  0.1452 -0.1332 -0.1045
 2834TIP3    H130061   0.537   2.663   7.200 -0.0956 -0.7459 -1.6872
 2834TIP3    H230062   0.527   2.545   7.295 -1.4841 -0.5469 -1.5708
 2835TIP3   OH230063   2.193   2.562   7.091  0.3070  0.5623  0.2079
 2835TIP3    H130064   2.205   2.633   7.028  1.1392  0.0973 -0.1827
 2835TIP3    H230065   2.281   2.549   7.128  0.4382 -1.0238 -0.5735
 2836TIP3   OH230066   4.246   6.429   0.091  0.0527 -0.4411  0.4623
 2836TIP3    H130067   4.191   6.356   0.120  0.6004 -0.6358  1.0474
 2836TIP3    H230068   4.184   6.493   0.056 -0.4841 -0.9527  0.4463
 2837TIP3   OH230069   6.070   6.430   8.659 -0.0788 -0.5850  0.8524
 2837TIP3    H130070   6.004   6.423   8.728 -1.0084  0.9009  0.1752
 2837TIP3    H230071   6.043   6.506   8.608 -0.3615 -2.5608 -2.1538
 2838TIP3   OH230072   5.137   6.011   0.004  0.3150 -0.5868 -0.4701
 2838TIP3    H130073   5.097   5.937  -0.044  2.2370 -1.1203 -1.3283
 2838TIP3    H230074   5.211   6.038  -0.050  1.2930  0.1966  1.1762
 2839TIP3   OH230075   0.964   0.396   6.767 -0.1524  0.1091  0.5961
 2839TIP3    H130076   0.897   0.442   6.716  0.3880 -0.3171 -0.5394
 2839TIP3    H230077   1.007   0.338   6.704  0.2693 -0.7532  1.6372
 2840TIP3   OH230078   4.135   6.148   8.585  0.0811  0.3122  0.1018
 2840TIP3    H130079   4.230   6.147   8.573  0.0720  2.1081 -0.4430
 2840TIP3    H230080   4.122   6.194   8.668 -0.3107  0.2948  0.0512
 2841TIP3   OH230081   1.892   4.483   0.244 -0.4688  0.0850  0.3106
 2841TIP3    H130082   1.957   4.492   0.313 -0.8526  0.6019  0.6096
 2841TIP3    H230083   1.938   4.512   0.165 -0.1568 -0.1253  0.4097
 2842TIP3   OH230084   5.934   2.826   7.814 -0.1542 -0.0752  0.0030
 2842TIP3    H130085   5.964   2.735   7.810  1.8116  0.4369  1.4753
 2842TIP3    H230086   6.014   2.877   7.832 -1.0106  2.0870 -1.7236
 2843TIP3   OH230087   0.963   2.739   0.226 -0.1365  0.1806 -0.1144
 2843TIP3    H130088   1.044   2.738   0.276 -0.5827 -0.9578  0.6290
 2843TIP3    H230089   0.979   2.679   0.152 -0.0951  0.4317 -0.3099
 2844TIP3   OH230090   6.712   5.732   1.243  0.3622 -0.5002  0.4732
 2844TIP3    H130091   6.640   5.748   1.182  0.9426 -1.5746 -0.5364
 2844TIP3    H230092   6.713   5.637   1.254  0.6802 -0.3765  1.6739
 2845TIP3   OH230093   3.038   0.883   1.708 -0.0333 -0.4180  0.0924
 2845TIP3    H130094   3.061   0.897   1.800 -1.0505 -1.3208  0.4957
 2845TIP3    H230095   3.090   0.948   1.661  0.0633  0.4485  1.3488
 2846TIP3   OH230096   2.186   1.008   1.126  0.3639 -0.0954  1.0638
 2846TIP3    H130097   2.101   1.052   1.122  0.3108  0.2357  4.0110
 2846TIP3    H230098   2.165   0.915   1.132  0.2767 -0.1197  0.4368
 2847TIP3   OH230099   2.345   4.489   7.642  0.4379 -0.9874  0.0422
 2847TIP3    H130100   2.306   4.519   7.725  0.8466 -1.1429  0.2909
 2847TIP3    H230101   2.439   4.502   7.654  0.9104 -4.3395  0.9979
 2848TIP3   OH230102   3.479   4.049   7.096 -0.4111 -0.0254  0.3684
 2848TIP3    H130103   3.427   4.092   7.028 -1.1160  0.0356  0.9268
 2848TIP3    H230104   3.428   3.971   7.119 -0.5563  0.3427  1.3369
 2849TIP3   OH230105   6.799   3.576   8.000  0.2341  0.2464 -0.3438
 2849TIP3    H130106   6.708   3.553   8.019  0.7023 -0.7582  0.7716
 2849TIP3    H230107   6.799   3.600   7.908 -0.8172 -1.5931 -0.8585
 2850TIP3   OH230108   2.624   5.673   0.121 -0.2612  0.0215  0.2134
 2850TIP3    H130109   2.588   5.631   0.199 -0.7061 -0.3705 -0.1954
 2850TIP3    H230110   2.698   5.617   0.097 -0.1442  0.1236  0.3374
 2851TIP3   OH230111   3.005   0.233   6.602  0.4148 -0.0778  0.7365
 2851TIP3    H130112   3.037   0.147   6.574  0.7723  0.5183 -0.8187
 2851TIP3    H230113   3.048   0.295   6.543 -2.6253  0.8709 -0.7177
 2852TIP3   OH230114   2.756   3.513   8.132  0.2535 -0.1898  0.1424
 2852TIP3    H130115   2.848   3.517   8.157  0.6066 -1.0715 -0.9457
 2852TIP3    H230116   2.756   3.474   8.045 -1.1989 -0.8200  0.3956
 2853TIP3   OH230117   6.329   0.998   0.044  0.0557 -0.0767  0.3308
 2853TIP3    H130118   6.293   1.078   0.083 -0.7747 -0.3499  0.1494
 2853TIP3    H230119   6.262   0.931   0.061  0.6379 -0.6844  0.2856
 2854TIP3   OH230120   5.404   5.716   8.535  0.2507 -1.1297 -0.0654
 2854TIP3    H130121   5.429   5.629   8.565 -0.3793 -1.7208 -1.1799
 2854TIP3    H230122   5.324   5.702   8.485 -1.6299  0.5049  2.2638
 2855TIP3   OH230123   4.973   5.595   6.809  0.0272 -0.1118 -0.1787
 2855TIP3    H130124   4.940   5.507   6.794 -0.2746  0.1686 -1.2888
 2855TIP3    H230125   4.908   5.652   6.768  0.1333  0.6399  0.6644
 2856TIP3   OH230126   6.694   4.245   1.989  0.0009 -0.3396 -0.3209
 2856TIP3    H130127   6.781   4.282   1.998 -0.4210  0.3030  1.3886
 2856TIP3    H230128   6.677   4.202   2.072 -0.9540 -1.2904 -0.9766
 2857TIP3   OH230129   6.242   4.716   1.151 -0.0745  0.1922 -0.1060
 2857TIP3    H130130   6.293   4.781   1.200  0.8027 -0.7774  0.3230
 2857TIP3    H230131   6.194   4.669   1.218  0.8000 -0.8628 -0.1937
 2858TIP3   OH230132   5.580   6.582   0.179  0.4164  0.2883  0.0050
 2858TIP3    H130133   5.520   6.646   0.218  1.0714  1.3159 -0.6319
 2858TIP3    H230134   5.656   6.583   0.237 -0.3455 -1.3891  1.0996
 2859TIP3   OH230135   1.369   3.341   7.051 -0.2503 -0.4606  0.0391
 2859TIP3    H130136   1.424   3.404   7.006 -1.2029  0.1108 -0.3608
 2859TIP3    H230137   1.361   3.374   7.140  1.0738 -1.2281  0.4758
 2860TIP3   OH230138   2.933   5.965   1.768 -0.2772  0.1939  0.2792
 2860TIP3    H130139   2.944   5.961   1.863  0.7061  0.8105  0.2036
 2860TIP3    H230140   2.853   6.016   1.754  0.9810  2.3982  0.7531
 2861TIP3   OH230141   1.554   4.769   2.317  0.4782  0.1984 -0.5723
 2861TIP3    H130142   1.613   4.836   2.281  1.4226 -0.9107 -1.1697
 2861TIP3    H230143   1.601   4.734   2.392 -0.4345  0.8298  0.3183
 2862TIP3   OH230144   5.328   6.838   7.286  0.6227 -0.7946 -0.4907
 2862TIP3    H130145   5.328   6.827   7.381 -0.4779  1.2635 -0.2146
 2862TIP3    H230146   5.418   6.817   7.260  0.5577 -2.8783  0.7659
 2863TIP3   OH230147   4.494   0.471   0.335 -0.5334  0.3754 -0.0255
 2863TIP3    H130148   4.494   0.567   0.332 -1.1156  0.3559 -1.2211
 2863TIP3    H230149   4.545   0.450   0.413 -2.4004  1.6805  1.6352
 2864TIP3   OH230150   2.409   6.399   1.568 -0.0997 -0.6954 -0.0830
 2864TIP3    H130151   2.344   6.331   1.549 -1.4111  0.5786 -0.3795
 2864TIP3    H230152   2.404   6.458   1.493  0.3946  0.1677  0.5413
 2865TIP3   OH230153   4.515   2.626   7.727  0.0629 -0.1995  0.0273
 2865TIP3    H130154   4.528   2.675   7.808 -1.1447 -1.1593  0.8305
 2865TIP3    H230155   4.582   2.559   7.728 -0.1612 -0.4188  0.4012
 2866TIP3   OH230156   3.283   2.064   6.811 -0.5143  0.0759 -0.0601
 2866TIP3    H130157   3.287   2.131   6.879 -1.1093  0.6444 -0.5814
 2866TIP3    H230158   3.367   2.018   6.818 -0.5958  0.0767  1.1051
 2867TIP3   OH230159   1.802   3.095   8.061 -0.4228  0.4897  0.1916
 2867TIP3    H130160   1.823   3.140   8.143  0.4135  1.1530 -0.3686
 2867TIP3    H230161   1.832   3.155   7.993 -0.7225 -0.2420 -0.5957
 2868TIP3   OH230162   4.278   2.193   1.068 -0.3536 -0.0324 -0.9166
 2868TIP3    H130163   4.285   2.166   0.977  0.5738 -1.4436 -0.4703
 2868TIP3    H230164   4.344   2.140   1.114 -0.4233  1.0347  0.4843
 2869TIP3   OH230165   5.023   1.250   8.047  0.1244  0.2120 -0.2170
 2869TIP3    H130166   5.044   1.336   8.083 -1.9021  0.2154  1.0778
 2869TIP3    H230167   5.024   1.191   8.123 -0.0134 -0.6280 -0.8467
 2870TIP3   OH230168   1.601   0.735   6.846 -0.2115  0.4988  0.1008
 2870TIP3    H130169   1.681   0.706   6.891 -0.7637 -1.8706 -0.3007
 2870TIP3    H230170   1.605   0.690   6.761 -1.6508  0.8548 -0.1689
 2871TIP3   OH230171   3.155   5.293   1.451  0.0519  0.0135 -0.4567
 2871TIP3    H130172   3.077   5.252   1.413 -0.8288  1.5606 -0.3829
 2871TIP3    H230173   3.157   5.259   1.541  0.2763 -1.1137 -0.8700
 2872TIP3   OH230174   5.552   3.834   0.179 -0.2283  0.0238  0.2459
 2872TIP3    H130175   5.604   3.841   0.259 -1.2575 -0.8501  1.0194
 2872TIP3    H230176   5.593   3.763   0.130  1.5340  1.7531 -0.9191
 2873TIP3   OH230177   4.041   0.582   1.864  0.1692 -0.4661 -0.1645
 2873TIP3    H130178   4.134   0.560   1.862 -0.1355 -1.8835 -0.0934
 2873TIP3    H230179   4.007   0.554   1.779 -0.1945  0.0383 -0.1922
 2874TIP3   OH230180   3.589   4.782   0.825  0.3527  0.5272 -0.2891
 2874TIP3    H130181   3.552   4.825   0.902  0.9846  0.2554  0.1717
 2874TIP3    H230182   3.664   4.836   0.801  0.8064  0.0080 -0.0536
 2875TIP3   OH230183   5.297   2.262   7.121 -0.0660 -0.0122 -0.0357
 2875TIP3    H130184   5.291   2.271   7.026  0.4279  1.6971  0.0511
 2875TIP3    H230185   5.217   2.303   7.154 -0.2367 -0.6034  0.2892
 2876TIP3   OH230186   3.067   3.151   0.747 -0.4850  0.0249  0.0088
 2876TIP3    H130187   2.998   3.217   0.744 -0.8442 -0.3122  0.6699
 2876TIP3    H230188   3.020   3.068   0.746 -0.0282 -0.2500 -1.2169
 2877TIP3   OH230189   4.872   4.717   7.406 -0.1764  0.3903  0.1664
 2877TIP3    H130190   4.913   4.772   7.338 -0.5632 -1.8245 -1.9943
 2877TIP3    H230191   4.778   4.736   7.398 -0.0438  2.8525  2.7389
 2878TIP3   OH230192   2.096   5.652   2.803 -0.2128  0.0942  0.1880
 2878TIP3    H130193   2.160   5.599   2.757 -0.0508  0.9648 -0.6151
 2878TIP3    H230194   2.014   5.603   2.796 -0.5263  0.8196 -2.2743
 2879TIP3   OH230195   2.106   5.367   8.183  0.4660 -0.3262 -0.0530
 2879TIP3    H130196   2.043   5.354   8.112  1.4498  0.8878 -1.2128
 2879TIP3    H230197   2.076   5.447   8.227  0.8252 -0.0873 -0.2292
 2880TIP3   OH230198   4.436   5.086   7.131  0.6799  0.2500  0.0303
 2880TIP3    H130199   4.369   5.045   7.076  0.6713 -1.4077  1.2002
 2880TIP3    H230200   4.414   5.058   7.220  1.8816  1.1786  0.6491
 2881TIP3   OH230201   0.943   4.606   8.330  0.3808 -0.0660 -0.4341
 2881TIP3    H130202   0.851   4.606   8.355  0.2410  0.3407 -0.9310
 2881TIP3    H230203   0.957   4.521   8.288  0.3129 -0.2566 -0.0667
 2882TIP3   OH230204   4.416   0.650   0.543  0.3853 -0.2694 -0.0249
 2882TIP3    H130205   4.389   0.645   0.635 -0.1318 -2.0710 -0.2236
 2882TIP3    H230206   4.512   0.656   0.547  0.3452  0.0138  0.6430
 2883TIP3   OH230207   4.145   4.397   0.816 -0.3854 -0.6913 -0.0223
 2883TIP3    H130208   4.151   4.322   0.757  1.8174 -2.7112  2.5099
 2883TIP3    H230209   4.233   4.437   0.814 -0.2848 -0.7269  1.6561
 2884TIP3   OH230210   0.044   2.168   7.789 -0.3580 -0.3429 -0.4547
 2884TIP3    H130211   0.030   2.228   7.716 -0.3627 -0.3420 -0.4533
 2884TIP3    H230212  -0.010   2.204   7.860 -0.7307 -0.6142 -0.5975
 2885TIP3   OH230213   0.072   2.467   8.045  0.0534  0.3972  0.0186
 2885TIP3    H130214   0.066   2.377   8.075 -1.1407  0.9018  1.4343
 2885TIP3    H230215  -0.012   2.506   8.070  0.6316  1.9668 -0.3587
 2886TIP3   OH230216   3.535   5.732   1.533  0.0105 -0.8527 -0.0836
 2886TIP3    H130217   3.580   5.817   1.537  0.1361 -0.6083 -3.6718
 2886TIP3    H230218   3.442   5.755   1.531 -0.0494 -0.9626  1.0496
 2887TIP3   OH230219   6.176   0.433   0.492  0.3815  0.2513  0.1617
 2887TIP3    H130220   6.272   0.427   0.485  0.3278 -1.9705  0.4854
 2887TIP3    H230221   6.161   0.462   0.582  0.7392  2.3181 -0.4079
 2888TIP3   OH230222   0.304   1.780   1.607  0.4117 -0.3103  0.2310
 2888TIP3    H130223   0.400   1.780   1.609  0.4470 -0.7708 -0.9830
 2888TIP3    H230224   0.282   1.775   1.514 -0.7920 -1.0882  0.5453
 2889TIP3   OH230225   4.365   4.134   1.532  0.6605  0.2330 -0.6802
 2889TIP3    H130226   4.408   4.155   1.615 -1.2105  0.5547  0.2511
 2889TIP3    H230227   4.390   4.205   1.473  1.9580  0.0348 -0.3992
 2890TIP3   OH230228   3.744   0.796   0.188  0.4275  0.0567  0.0571
 2890TIP3    H130229   3.811   0.847   0.235 -0.9320  1.1301  0.9154
 2890TIP3    H230230   3.751   0.708   0.225  0.6956  0.4041  0.8540
 2891TIP3   OH230231   4.072   0.229   0.253 -0.4731  0.5480 -0.3016
 2891TIP3    H130232   4.033   0.286   0.320  0.3714  3.1339 -1.8867
 2891TIP3    H230233   4.166   0.240   0.264 -0.3242  0.9598 -1.8736
 2892TIP3   OH230234   0.407   1.989   8.515  0.0204 -0.4715 -0.3633
 2892TIP3    H130235   0.499   1.961   8.521  0.1383 -0.2527 -1.0478
 2892TIP3    H230236   0.357   1.909   8.522  0.2014 -0.4629  1.3526
 2893TIP3   OH230237   3.185   2.573   7.173 -0.0060  0.2241 -0.4762
 2893TIP3    H130238   3.121   2.625   7.221 -0.2374  1.2870 -1.8872
 2893TIP3    H230239   3.252   2.552   7.238 -0.6515  1.0297  0.4741
 2894TIP3   OH230240   3.519   0.118   7.178  0.3974  0.2962 -0.4843
 2894TIP3    H130241   3.471   0.140   7.099  3.3777 -0.1504 -2.6194
 2894TIP3    H230242   3.497   0.026   7.195 -0.0869  0.3238 -0.9604
 2895TIP3   OH230243   1.460   4.595   0.716 -0.1127  0.9783  0.2337
 2895TIP3    H130244   1.544   4.633   0.693  0.2679  0.8674  1.3685
 2895TIP3    H230245   1.442   4.627   0.804 -2.0116  2.2402 -0.5565
 2896TIP3   OH230246   5.698   4.802   0.418  0.0341 -0.4226  0.0916
 2896TIP3    H130247   5.717   4.896   0.408  1.2491 -0.6991 -0.4924
 2896TIP3    H230248   5.606   4.793   0.393 -0.0341  0.5849 -0.0722
 2897TIP3   OH230249   6.095   5.376   0.853  0.2929 -0.3959 -0.1578
 2897TIP3    H130250   6.017   5.348   0.902  0.0593  0.9010  0.2430
 2897TIP3    H230251   6.168   5.341   0.904 -0.0058 -1.9255 -0.7275
 2898TIP3   OH230252   3.600   1.417   8.265 -0.0243 -0.0373  0.1490
 2898TIP3    H130253   3.571   1.329   8.241  1.2735 -0.4815  0.1429
 2898TIP3    H230254   3.543   1.475   8.214 -1.0511 -0.8570  0.3301
 2899TIP3   OH230255   4.893   1.390   7.412  0.1237 -0.1411  0.2665
 2899TIP3    H130256   4.841   1.454   7.460 -0.7113 -0.8376  0.3190
 2899TIP3    H230257   4.941   1.441   7.347 -1.1293  0.4516 -0.2121
 2900TIP3   OH230258   0.275   0.272   8.049 -0.4390  0.0737  0.7878
 2900TIP3    H130259   0.258   0.345   7.989 -0.3969 -0.6188 -0.0870
 2900TIP3    H230260   0.217   0.202   8.018  0.1933 -0.5674  1.0391
 2901TIP3   OH230261   4.164   1.496   1.363  0.6914 -0.1126 -0.6377
 2901TIP3    H130262   4.079   1.454   1.374  0.2961  0.5254 -1.1386
 2901TIP3    H230263   4.171   1.554   1.439  0.7734 -0.3170 -0.4883
 2902TIP3   OH230264   4.636   4.895   0.778  0.2779  0.6638  0.1435
 2902TIP3    H130265   4.694   4.824   0.807  0.2372  0.7652  0.4801
 2902TIP3    H230266   4.550   4.854   0.770  0.1248  0.8035  0.9400
 2903TIP3   OH230267   2.897   1.774   6.852  0.1545  0.1547 -0.0135
 2903TIP3    H130268   2.809   1.813   6.854  0.4973  0.9274  0.4401
 2903TIP3    H230269   2.952   1.841   6.812  0.7301  0.0730  0.6398
 2904TIP3   OH230270   2.766   4.015   6.881  0.2487 -0.0150 -0.3296
 2904TIP3    H130271   2.759   3.921   6.864  1.1368 -0.5411  1.8627
 2904TIP3    H230272   2.676   4.044   6.895 -0.0178 -0.5604 -0.8542
 2905TIP3   OH230273   1.255   5.396   1.219  0.5033 -0.1892 -0.4742
 2905TIP3    H130274   1.170   5.394   1.175  0.5788  0.3891 -0.6488
 2905TIP3    H230275   1.237   5.364   1.307  0.1619 -0.3610 -0.6035
 2906TIP3   OH230276   2.519   5.781   6.830 -0.3880  0.2785  0.5981
 2906TIP3    H130277   2.543   5.694   6.861 -2.4467  0.2765  2.4093
 2906TIP3    H230278   2.535   5.838   6.905  0.7184  1.4662 -0.4891
 2907TIP3   OH230279   0.552   2.944   7.532  0.3798 -0.2098  0.4495
 2907TIP3    H130280   0.527   3.031   7.501  1.6704 -0.1399 -0.4754
 2907TIP3    H230281   0.629   2.959   7.587  0.8322 -0.7922 -0.0109
 2908TIP3   OH230282   4.601   6.842   2.025  0.6641 -0.2228  0.1803
 2908TIP3    H130283   4.631   6.864   2.114  0.1030 -0.3953  0.4149
 2908TIP3    H230284   4.638   6.755   2.008  0.2956 -0.4414  0.4749
 2909TIP3   OH230285   2.448   4.858   8.602 -0.4479 -0.2304 -0.1605
 2909TIP3    H130286   2.370   4.868   8.547 -0.0644  0.5334 -0.5821
 2909TIP3    H230287   2.476   4.948   8.619  0.2165 -0.4988  0.1740
 2910TIP3   OH230288   4.881   3.189   7.022  0.3241 -0.2904  0.1300
 2910TIP3    H130289   4.885   3.237   7.104 -1.0918  0.7170 -0.3413
 2910TIP3    H230290   4.838   3.107   7.044 -3.3877  1.4060 -0.1044
 2911TIP3   OH230291   5.229   3.314   7.263 -0.9561  0.1667 -0.7067
 2911TIP3    H130292   5.140   3.285   7.241 -0.7108  0.3796 -2.1166
 2911TIP3    H230293   5.270   3.239   7.304 -1.3941 -0.3501 -1.1990
 2912TIP3   OH230294   2.886   2.124   8.056 -0.2005  0.5364  0.0038
 2912TIP3    H130295   2.980   2.138   8.048 -0.4861  1.4069 -2.6196
 2912TIP3    H230296   2.878   2.035   8.091  1.5921 -0.1083 -1.1109
 2913TIP3   OH230297   0.469   6.066   8.252 -0.3324 -0.0957  0.3317
 2913TIP3    H130298   0.436   5.980   8.226 -0.0898 -0.4812  1.2873
 2913TIP3    H230299   0.507   6.102   8.171 -1.0725 -0.5749 -0.2420
 2914TIP3   OH230300   0.132   5.137   1.128 -0.3677  0.6890 -0.2915
 2914TIP3    H130301   0.220   5.169   1.106 -0.1768 -0.0151 -0.5733
 2914TIP3    H230302   0.101   5.096   1.048 -0.4609 -0.1517  0.1685
 2915TIP3   OH230303   0.888   6.807   2.469 -0.2327  0.8359 -0.1440
 2915TIP3    H130304   0.929   6.871   2.411 -0.2723  0.9743 -0.0233
 2915TIP3    H230305   0.942   6.729   2.462 -0.2021  0.8720 -0.3182
 2916TIP3   OH230306   2.556   3.654   2.592 -0.2491 -0.5020 -0.3446
 2916TIP3    H130307   2.648   3.632   2.606  0.6267  3.4238  1.4139
 2916TIP3    H230308   2.557   3.714   2.517 -1.0626  0.8698  0.6816
 2917TIP3   OH230309   3.427   2.491   7.301 -0.9457 -0.2545  0.0347
 2917TIP3    H130310   3.445   2.430   7.229  0.1627 -2.6145  2.1515
 2917TIP3    H230311   3.497   2.556   7.294 -0.4710 -0.8121 -0.6384
 2918TIP3   OH230312   0.464   4.304   8.205  0.4141  0.0926  0.7052
 2918TIP3    H130313   0.544   4.258   8.177  0.3251 -0.8123  1.8553
 2918TIP3    H230314   0.428   4.248   8.274 -1.2780  0.4359  0.1367
 2919TIP3   OH230315   2.850   4.720   8.576 -0.0323  0.1017 -0.1636
 2919TIP3    H130316   2.866   4.791   8.514  0.2638  0.6262  0.5072
 2919TIP3    H230317   2.780   4.752   8.632  0.9577  0.3916  0.9442
 2920TIP3   OH230318   6.843   1.553   2.241 -0.5032  0.2643  0.3891
 2920TIP3    H130319   6.756   1.546   2.278  0.3551 -0.3963  2.4143
 2920TIP3    H230320   6.878   1.634   2.277  0.7573 -0.9522  2.0274
 2921TIP3   OH230321   2.535   5.706   0.765  0.2631  0.6740 -0.5335
 2921TIP3    H130322   2.579   5.784   0.798  1.6966 -0.7573  1.1832
 2921TIP3    H230323   2.605   5.642   0.753 -1.1125 -1.1729  0.6454
 2922TIP3   OH230324   4.019   5.885   8.300 -0.1149 -0.5623 -0.2751
 2922TIP3    H130325   3.970   5.842   8.370  0.5332 -1.3790 -0.3094
 2922TIP3    H230326   4.062   5.813   8.253  0.5288  0.0788 -0.6888
 2923TIP3   OH230327   2.649   3.438   0.938 -0.3206 -0.5394  0.3775
 2923TIP3    H130328   2.578   3.373   0.942  0.2017 -1.0760  2.2809
 2923TIP3    H230329   2.621   3.506   1.000 -0.6450  0.8806 -1.2557
 2924TIP3   OH230330   4.605   3.308   6.915 -0.1560  0.1682 -0.1976
 2924TIP3    H130331   4.580   3.219   6.940  1.3167 -0.4661 -0.8389
 2924TIP3    H230332   4.615   3.354   6.998 -0.3893 -0.4237  0.1691
 2925TIP3   OH230333   0.840   5.684   7.132  0.1937  0.0993 -0.0386
 2925TIP3    H130334   0.894   5.704   7.208  0.1354 -0.1675  0.0721
 2925TIP3    H230335   0.842   5.764   7.079  0.2455  0.2785  0.2360
 2926TIP3   OH230336   2.671   3.144   7.603 -0.5919  0.0074  0.7087
 2926TIP3    H130337   2.718   3.103   7.531  0.8204 -1.1578  2.2308
 2926TIP3    H230338   2.579   3.134   7.580 -0.2780 -3.0662  0.4652
 2927TIP3   OH230339   1.076   5.488   7.104 -0.5839  0.1011 -0.1677
 2927TIP3    H130340   1.157   5.535   7.126 -0.0662 -0.9396  0.2015
 2927TIP3    H230341   1.039   5.464   7.189 -1.4031  0.7442 -0.3258
 2928TIP3   OH230342   6.458   2.392   1.387 -0.4092 -0.1278  0.8507
 2928TIP3    H130343   6.469   2.309   1.432 -1.1590  0.3205  1.8923
 2928TIP3    H230344   6.399   2.443   1.443  1.3720  1.7618  1.1341
 2929TIP3   OH230345   1.897   3.937   7.970 -0.0032  0.1013  0.0674
 2929TIP3    H130346   1.819   3.962   8.019  0.2887 -0.0651  0.6222
 2929TIP3    H230347   1.966   3.994   8.003  0.0578  0.4246 -0.6046
 2930TIP3   OH230348   3.402   3.322   0.833 -0.0188  0.0044  0.3272
 2930TIP3    H130349   3.473   3.283   0.885 -1.6630 -3.0000  0.5633
 2930TIP3    H230350   3.322   3.300   0.882 -1.2434  2.7201 -0.2498
 2931TIP3   OH230351   6.826   2.819   0.995 -0.2553 -0.3378  0.3235
 2931TIP3    H130352   6.760   2.851   1.056 -1.1402 -1.6531  0.0752
 2931TIP3    H230353   6.883   2.895   0.980 -2.2517  1.1348 -0.1950
 2932TIP3   OH230354   2.125   3.790   8.619  0.5801  0.3876 -0.4359
 2932TIP3    H130355   2.171   3.709   8.595 -0.1820 -0.1023 -0.2961
 2932TIP3    H230356   2.156   3.855   8.556 -1.0091 -0.7273 -2.4979
 2933TIP3   OH230357   0.773   6.026   8.167  0.0640  0.2316  0.1052
 2933TIP3    H130358   0.720   6.052   8.243  0.2003 -0.3391  0.4064
 2933TIP3    H230359   0.859   6.007   8.204  0.2441  0.3381 -0.2555
 2934TIP3   OH230360   6.815   5.888   8.507  0.0542  0.7432  0.4082
 2934TIP3    H130361   6.887   5.856   8.453  0.0818  0.5305  0.5703
 2934TIP3    H230362   6.808   5.981   8.485  0.5306  0.8182  0.5646
 2935TIP3   OH230363   5.204   5.839   6.798  0.2552  0.0150 -0.3783
 2935TIP3    H130364   5.127   5.879   6.839  0.8600  1.1001 -0.2513
 2935TIP3    H230365   5.205   5.749   6.831 -0.9797 -0.0330 -0.4264
 2936TIP3   OH230366   3.328   0.112   1.191 -0.1063  0.1246 -0.4157
 2936TIP3    H130367   3.397   0.170   1.157 -0.0891  0.3479 -0.0104
 2936TIP3    H230368   3.347   0.027   1.152 -0.3106  0.4557 -1.2623
 2937TIP3   OH230369   2.222   5.007   7.408 -0.6819  0.3668  0.0675
 2937TIP3    H130370   2.222   4.913   7.424 -2.1695 -0.0520 -2.0128
 2937TIP3    H230371   2.296   5.040   7.460  0.5816 -2.0867 -0.0270
 2938TIP3   OH230372   4.981   1.135   0.361 -0.1676  0.3137 -0.1096
 2938TIP3    H130373   4.979   1.159   0.454  0.3164  2.2691 -0.5544
 2938TIP3    H230374   4.985   1.219   0.315 -2.4171 -0.5265 -1.9938
 2939TIP3   OH230375   1.290   2.998   6.870  0.1225 -0.2268  0.2473
 2939TIP3    H130376   1.304   2.938   6.944  0.7315 -1.6174 -0.9516
 2939TIP3    H230377   1.377   3.015   6.835 -0.2292 -0.2966 -0.6942
 2940TIP3   OH230378   2.819   0.258   6.793 -0.1498 -0.3091 -0.3279
 2940TIP3    H130379   2.730   0.231   6.773 -0.0693 -1.4382  0.7717
 2940TIP3    H230380   2.867   0.242   6.712 -0.7673 -0.4786 -0.6658
 2941TIP3   OH230381   0.347   3.889   6.616  0.0362 -0.2048  0.2385
 2941TIP3    H130382   0.292   3.927   6.684  1.3104  0.5759  0.8744
 2941TIP3    H230383   0.326   3.940   6.537  1.0763  1.2637  0.8761
 2942TIP3   OH230384   1.981   4.357   1.742 -0.0546 -0.2905 -0.8283
 2942TIP3    H130385   1.963   4.267   1.715  1.6830 -0.2964 -2.1335
 2942TIP3    H230386   2.024   4.348   1.828 -4.1586 -0.3558  1.4562
 2943TIP3   OH230387   6.063   1.594   7.719 -0.0462  0.2916 -0.1790
 2943TIP3    H130388   6.030   1.525   7.776  2.2784 -0.5470  0.2328
 2943TIP3    H230389   6.128   1.640   7.772  1.4911  0.0924 -1.8247
 2944TIP3   OH230390   1.273   5.636   7.231 -0.1749 -0.0327  0.2845
 2944TIP3    H130391   1.251   5.576   7.302 -0.4763  1.6678  1.6957
 2944TIP3    H230392   1.304   5.716   7.276 -2.3489  1.8865 -1.3768
 2945TIP3   OH230393   0.484   2.540   1.696  0.1138  0.2493 -0.1997
 2945TIP3    H130394   0.504   2.621   1.744  0.7287  0.5538 -0.9504
 2945TIP3    H230395   0.410   2.563   1.640 -0.5108 -0.0660  0.4788
 2946TIP3   OH230396   3.234   3.110   6.070 -0.4605 -0.8990  0.2227
 2946TIP3    H130397   3.238   3.051   5.995 -1.0210  0.5337 -0.9751
 2946TIP3    H230398   3.142   3.132   6.079 -0.0560  1.8038 -1.0579
 2947TIP3   OH230399   0.572   0.392   1.889 -0.3753  0.3303 -0.1955
 2947TIP3    H130400   0.637   0.457   1.861 -1.8929  2.0677  0.1306
 2947TIP3    H230401   0.557   0.338   1.812  0.8996  0.3517 -0.4850
 2948TIP3   OH230402   5.643   5.825   1.559 -0.4916 -0.5564  0.5056
 2948TIP3    H130403   5.604   5.891   1.617  0.4055  0.2407  0.2450
 2948TIP3    H230404   5.606   5.742   1.587 -0.8053 -0.0628  1.5832
 2949TIP3   OH230405   6.605   4.731   1.197  0.2230 -0.2056  0.3258
 2949TIP3    H130406   6.554   4.698   1.271 -0.6606 -0.2092 -0.2681
 2949TIP3    H230407   6.644   4.812   1.229 -0.4146 -0.0383  0.6996
 2950TIP3   OH230408   4.281   5.746   2.278  0.0708  0.1851  0.4027
 2950TIP3    H130409   4.235   5.829   2.288 -0.7020 -0.2607  0.6107
 2950TIP3    H230410   4.236   5.703   2.205 -1.3429 -1.2159  2.0048
 2951TIP3   OH230411   3.397   4.676   0.085 -0.3491  0.2062  0.8068
 2951TIP3    H130412   3.350   4.748   0.044  2.0319  2.2733  1.5213
 2951TIP3    H230413   3.467   4.654   0.023 -2.1264 -2.9847 -0.3569
 2952TIP3   OH230414   0.585   4.913   7.427 -0.4467  0.3310 -0.0878
 2952TIP3    H130415   0.513   4.882   7.372 -1.5237  0.4687  1.1980
 2952TIP3    H230416   0.548   4.985   7.478  0.1682 -0.4925  1.6108
 2953TIP3   OH230417   4.711   3.431   0.500 -0.4426 -0.0983  0.4672
 2953TIP3    H130418   4.635   3.400   0.451  0.1780 -0.4564 -0.2933
 2953TIP3    H230419   4.757   3.351   0.526  0.2906  0.1209 -0.0901
 2954TIP3   OH230420   6.677   4.155   2.265 -0.5827 -0.1836  0.2038
 2954TIP3    H130421   6.581   4.159   2.270 -0.6444  2.5429 -1.3465
 2954TIP3    H230422   6.706   4.242   2.291  1.3387 -0.3169 -1.2774
 2955TIP3   OH230423   5.911   0.899   0.804 -0.0622 -0.3217 -0.1694
 2955TIP3    H130424   5.989   0.878   0.857 -1.1960 -0.5225  1.5043
 2955TIP3    H230425   5.856   0.951   0.863 -1.7348 -1.2122 -0.8862
 2956TIP3   OH230426   4.084   5.177   8.576 -0.3218 -0.5035  0.3651
 2956TIP3    H130427   4.010   5.131   8.614 -1.9306  0.3197 -1.5584
 2956TIP3    H230428   4.059   5.270   8.580  0.3312 -0.2599 -0.8130
 2957TIP3   OH230429   2.498   4.514   7.955  0.6357 -0.5234 -0.2849
 2957TIP3    H130430   2.473   4.426   7.927 -0.3226  0.1112 -1.5354
 2957TIP3    H230431   2.592   4.510   7.968  0.4239 -2.0687  0.9743
 2958TIP3   OH230432   3.627   3.703   1.191  0.2123 -0.1317  0.4971
 2958TIP3    H130433   3.640   3.619   1.236  1.8924 -1.0820 -1.5466
 2958TIP3    H230434   3.567   3.682   1.119  1.4980  0.1062 -0.6899
 2959TIP3   OH230435   4.454   3.759   0.320  0.2605 -0.3734  0.2081
 2959TIP3    H130436   4.481   3.837   0.369 -1.0245 -0.3875  0.9813
 2959TIP3    H230437   4.536   3.713   0.303  0.7897 -0.3226  2.3230
 2960TIP3   OH230438   5.934   2.510   2.177 -0.8627  0.4220  0.1512
 2960TIP3    H130439   6.016   2.558   2.184 -0.4555  0.0298 -1.4915
 2960TIP3    H230440   5.934   2.451   2.252  1.0051 -0.4905 -0.5015
 2961TIP3   OH230441   6.608   0.449   0.052  0.4085 -0.2176  0.3006
 2961TIP3    H130442   6.687   0.493   0.021  1.1004 -2.0381 -0.6895
 2961TIP3    H230443   6.632   0.356   0.057 -1.5636 -0.7807  0.3212
 2962TIP3   OH230444   0.489   0.107   6.062  0.4228  0.7568 -0.3616
 2962TIP3    H130445   0.456   0.085   5.975 -0.8822 -1.0268  0.5509
 2962TIP3    H230446   0.411   0.116   6.116  1.2546  1.2278  0.7915
 2963TIP3   OH230447   0.321   0.856   7.699  0.4872 -0.4828  0.7999
 2963TIP3    H130448   0.232   0.826   7.715  0.9376 -1.8108  0.9645
 2963TIP3    H230449   0.330   0.936   7.750 -0.2767 -0.9247  1.6411
 2964TIP3   OH230450   2.711   2.185   6.772 -0.1521  0.0925  0.0836
 2964TIP3    H130451   2.759   2.175   6.690 -2.1579  0.2821 -1.1870
 2964TIP3    H230452   2.671   2.272   6.765 -2.3729 -0.8739  0.0887
 2965TIP3   OH230453   6.853   4.782   7.746  0.2011 -0.1587 -0.1151
 2965TIP3    H130454   6.759   4.768   7.739 -0.0317  1.5984 -1.1737
 2965TIP3    H230455   6.864   4.829   7.828  0.2318 -0.7958  0.2532
 2966TIP3   OH230456   1.285   5.273   7.018 -0.8029  0.2887  0.0538
 2966TIP3    H130457   1.332   5.278   7.101  1.6356  0.5772 -1.2475
 2966TIP3    H230458   1.227   5.349   7.018  1.0496  1.7793  0.4619
 2967TIP3   OH230459   3.617   0.100   8.645 -0.0998 -0.8048  0.0356
 2967TIP3    H130460   3.676   0.119   8.572  2.0937 -2.6351  1.1992
 2967TIP3    H230461   3.590   0.187   8.677 -0.3435  0.0465 -2.2543
 2968TIP3   OH230462   0.525   0.576   1.591 -0.3844 -0.1048 -0.2088
 2968TIP3    H130463   0.465   0.561   1.518 -0.2405  0.2111 -0.3943
 2968TIP3    H230464   0.474   0.628   1.653 -0.9090 -1.3737  0.4691
 2969TIP3   OH230465   4.554   5.831   1.729  0.3255 -0.4172  0.1666
 2969TIP3    H130466   4.483   5.886   1.696  0.8853  0.6742  0.7000
 2969TIP3    H230467   4.510   5.762   1.778 -0.4840 -1.6645 -2.1848
 2970TIP3   OH230468   2.061   3.171   0.642 -0.1425  0.0593 -0.0921
 2970TIP3    H130469   2.141   3.185   0.591 -0.3164 -0.4202 -0.5093
 2970TIP3    H230470   2.047   3.076   0.638 -1.8917  0.3320 -1.8076
 2971TIP3   OH230471   1.893   5.827   0.339 -0.2088 -0.0890  0.3346
 2971TIP3    H130472   1.932   5.870   0.263  0.9761 -1.2448  0.2439
 2971TIP3    H230473   1.886   5.735   0.313  2.8134 -1.1149  2.4973
 2972TIP3   OH230474   6.133   4.127   0.229 -0.5932  0.4013  0.0546
 2972TIP3    H130475   6.063   4.151   0.168 -0.2312  2.4080  0.3648
 2972TIP3    H230476   6.214   4.140   0.180 -0.3452  0.7821  0.5529
 2973TIP3   OH230477   1.660   0.809   0.145 -0.0442  0.2041 -0.1259
 2973TIP3    H130478   1.694   0.879   0.201 -1.5490  0.0930  0.9997
 2973TIP3    H230479   1.657   0.732   0.201  0.0654 -0.3572 -0.8767
 2974TIP3   OH230480   4.228   5.720   0.870 -0.0541 -0.3383  0.5141
 2974TIP3    H130481   4.160   5.704   0.935 -0.8076  0.2299 -0.1196
 2974TIP3    H230482   4.201   5.800   0.826  0.9272 -0.2124  0.1099
 2975TIP3   OH230483   1.325   1.850   0.540 -0.2134 -0.3378  0.2974
 2975TIP3    H130484   1.353   1.759   0.531 -0.2672 -0.1799 -1.9435
 2975TIP3    H230485   1.248   1.845   0.598  0.8797 -1.4538  1.7338
 2976TIP3   OH230486   4.475   5.340   0.200  0.0141  0.6119  0.3498
 2976TIP3    H130487   4.411   5.367   0.134 -0.2803 -0.2897  0.2501
 2976TIP3    H230488   4.433   5.358   0.284 -0.9778 -1.2572  0.3005
 2977TIP3   OH230489   0.866   3.145   1.739 -0.4919  0.1074 -0.0405
 2977TIP3    H130490   0.893   3.215   1.679  3.2308 -1.7901 -0.9302
 2977TIP3    H230491   0.921   3.157   1.816  1.3759 -2.5277 -0.8288
 2978TIP3   OH230492   2.158   3.783   0.746 -0.3806  0.6070  0.0970
 2978TIP3    H130493   2.178   3.759   0.655 -1.5998  0.6168 -0.1924
 2978TIP3    H230494   2.064   3.768   0.754  0.0221 -1.3869  1.9836
 2979TIP3   OH230495   1.873   5.485   7.156  0.2419 -0.3239  0.5604
 2979TIP3    H130496   1.932   5.428   7.204  0.8549 -0.8134 -0.7177
 2979TIP3    H230497   1.785   5.458   7.184  0.5991  0.2092  2.2461
 2980TIP3   OH230498   0.763   0.406   2.164  0.3078 -0.3870 -0.2830
 2980TIP3    H130499   0.697   0.461   2.121 -0.4938 -0.6524  0.5773
 2980TIP3    H230500   0.727   0.390   2.251  1.7825 -0.0683  0.4073
 2981TIP3   OH230501   5.224   2.934   8.439  0.0412  0.0362  0.2972
 2981TIP3    H130502   5.166   2.918   8.364  0.2390  0.1804  0.1104
 2981TIP3    H230503   5.177   2.998   8.492 -0.3582 -0.4983  0.5950
 2982TIP3   OH230504   1.487   0.772   0.934 -0.5196 -0.2146  0.4595
 2982TIP3    H130505   1.426   0.787   1.005 -1.8233 -0.5155 -0.5474
 2982TIP3    H230506   1.538   0.695   0.961 -2.8237 -2.0354 -0.0103
 2983TIP3   OH230507   0.282   4.246   1.079  0.4571 -0.8002  0.2709
 2983TIP3    H130508   0.289   4.321   1.021  1.5480 -0.3300  0.9885
 2983TIP3    H230509   0.188   4.227   1.082  0.2468  0.0651 -0.4914
 2984TIP3   OH230510   6.235   5.729   7.866  0.2922  0.6187 -0.0636
 2984TIP3    H130511   6.163   5.669   7.886  0.2713  0.6460 -0.0567
 2984TIP3    H230512   6.310   5.672   7.851  0.9555  0.6684  2.5630
 2985TIP3   OH230513   3.631   3.766   7.212  0.1347  0.8825 -0.1577
 2985TIP3    H130514   3.716   3.775   7.256  0.0746  0.8609 -0.0343
 2985TIP3    H230515   3.577   3.835   7.250 -0.7252 -0.7158  1.7561
 2986TIP3   OH230516   5.004   3.182   0.779 -0.6199 -0.2852 -0.1951
 2986TIP3    H130517   5.026   3.122   0.850  0.7694 -0.3359 -0.6306
 2986TIP3    H230518   4.953   3.251   0.821 -1.5965 -1.3574  0.4476
 2987TIP3   OH230519   5.944   4.560   1.561  0.2046  0.2352 -0.8926
 2987TIP3    H130520   5.923   4.615   1.636  1.6630 -0.1563 -0.1609
 2987TIP3    H230521   5.872   4.498   1.554  0.6451 -0.5133  0.9442
 2988TIP3   OH230522   5.425   6.419   1.949  0.7844  0.6775 -0.3799
 2988TIP3    H130523   5.475   6.356   2.001  0.9670  0.1297 -1.1952
 2988TIP3    H230524   5.333   6.397   1.965  0.8114  1.1704  0.4973
 2989TIP3   OH230525   1.552   2.118   7.589 -0.6858  0.5101  1.0349
 2989TIP3    H130526   1.560   2.118   7.685  0.7856 -1.1577  0.9774
 2989TIP3    H230527   1.512   2.033   7.569  1.8929 -0.5861  0.0757
 2990TIP3   OH230528   2.833   0.551   7.425 -0.1459  0.0563 -0.2425
 2990TIP3    H130529   2.818   0.561   7.519 -0.6270  1.9278 -0.4895
 2990TIP3    H230530   2.816   0.637   7.388  1.5475 -0.2379 -1.8711
 2991TIP3   OH230531   4.962   4.430   2.753  0.2557 -0.0973  0.1619
 2991TIP3    H130532   4.999   4.346   2.726 -2.0001 -0.6896 -1.3476
 2991TIP3    H230533   4.887   4.406   2.808  0.8672  1.0113  1.5426
 2992TIP3   OH230534   0.443   6.069   0.462 -0.0654  0.4893 -0.4810
 2992TIP3    H130535   0.358   6.106   0.488 -0.2709  0.6026 -1.2771
 2992TIP3    H230536   0.423   6.017   0.384  0.5348  0.1852 -0.4370
 2993TIP3   OH230537   2.954   0.872   0.244  0.2464  0.9778  0.1874
 2993TIP3    H130538   2.958   0.868   0.149  0.8853 -0.6271  0.2568
 2993TIP3    H230539   3.027   0.818   0.274 -0.5696  0.6046  1.5902
 2994TIP3   OH230540   5.494   0.282   2.304  0.0450  0.1360 -0.5436
 2994TIP3    H130541   5.511   0.224   2.378 -1.2146  0.8539  0.3530
 2994TIP3    H230542   5.580   0.309   2.273  0.5886 -0.1092  0.7288
 2995TIP3   OH230543   3.787   0.192   7.171 -0.3919 -0.5908 -0.1916
 2995TIP3    H130544   3.692   0.189   7.166 -0.3867 -0.5999 -0.2807
 2995TIP3    H230545   3.817   0.141   7.096 -0.3072  1.1050 -1.3743
 2996TIP3   OH230546   3.379   5.269   1.276 -0.2273 -0.1982  0.4129
 2996TIP3    H130547   3.287   5.282   1.301 -0.7855 -1.2723 -0.9540
 2996TIP3    H230548   3.420   5.231   1.354 -1.1933 -0.6821  0.7021
 2997TIP3   OH230549   6.153   1.344   0.348 -0.3236 -0.0900 -0.5935
 2997TIP3    H130550   6.223   1.382   0.401 -0.6783  1.3907 -1.1119
 2997TIP3    H230551   6.075   1.350   0.405 -0.0241 -1.9714  0.0808
 2998TIP3   OH230552   2.208   0.068   1.306 -0.0481  0.0191  0.2779
 2998TIP3    H130553   2.233   0.009   1.235 -1.5694  0.9227 -1.0876
 2998TIP3    H230554   2.290   0.105   1.338  0.8842 -2.2449  0.6895
 2999TIP3   OH230555   1.488   6.152   7.847 -0.1351  0.1328  0.2192
 2999TIP3    H130556   1.399   6.173   7.878 -0.2272  0.6873 -0.4110
 2999TIP3    H230557   1.516   6.081   7.905 -0.8434  0.2031  0.6742
 3000TIP3   OH230558   2.030   6.220   7.906  0.4124  0.0432 -0.2882
 3000TIP3    H130559   1.988   6.179   7.982 -0.7205  0.7200 -0.5268
 3000TIP3    H230560   2.115   6.249   7.939  0.4451 -0.7773  0.3832
 3001TIP3   OH230561   5.190   6.122   7.466  0.5126  0.7622 -0.1333
 3001TIP3    H130562   5.126   6.135   7.396  1.3768 -0.2601 -1.1568
 3001TIP3    H230563   5.155   6.172   7.540 -2.9111 -1.9242  0.3048
 3002TIP3   OH230564   1.083   5.510   0.116  0.2356  0.7520  0.6153
 3002TIP3    H130565   1.133   5.485   0.038 -0.7046  3.3167 -0.9305
 3002TIP3    H230566   1.042   5.429   0.145  0.7128 -0.3112 -1.4902
 3003TIP3   OH230567   4.701   0.240   6.904 -0.2066 -0.2020  0.0564
 3003TIP3    H130568   4.665   0.210   6.820  2.6979  1.1228 -1.8118
 3003TIP3    H230569   4.748   0.164   6.939  0.5424 -0.1120 -0.7274
 3004TIP3   OH230570   0.400   5.673   7.674 -0.1118  0.0963  0.6754
 3004TIP3    H130571   0.432   5.603   7.617  0.0679 -0.2678  1.2217
 3004TIP3    H230572   0.372   5.742   7.613 -1.3464 -0.8849  0.0816
 3005TIP3   OH230573   1.278   3.825   6.989  0.3290  0.4791 -0.2707
 3005TIP3    H130574   1.268   3.824   6.893  0.9874 -0.1173 -0.3455
 3005TIP3    H230575   1.210   3.884   7.020 -1.2888 -0.9257 -0.9438
 3006TIP3   OH230576   3.839   1.957   7.042  0.3327  0.6106  0.1544
 3006TIP3    H130577   3.908   1.989   6.984 -0.7450  2.2315 -0.3268
 3006TIP3    H230578   3.816   1.871   7.007  2.0224  0.0553  0.3012
 3007TIP3   OH230579   4.695   0.988   7.669  0.1871  0.1309 -0.5119
 3007TIP3    H130580   4.720   1.019   7.582 -0.1266 -0.1911 -0.7188
 3007TIP3    H230581   4.675   0.895   7.657 -1.8385  0.5366 -0.5180
 3008TIP3   OH230582   4.404   1.082   2.071  0.0392  0.2754 -0.4753
 3008TIP3    H130583   4.498   1.066   2.061  0.2326  1.7856 -1.3035
 3008TIP3    H230584   4.365   1.041   1.994  0.1197  0.4311 -0.5997
 3009TIP3   OH230585   1.957   3.797   0.986  0.5650 -0.1354  0.0370
 3009TIP3    H130586   1.914   3.713   1.001  1.0902 -0.9156 -2.3579
 3009TIP3    H230587   2.019   3.806   1.059  0.0317 -1.5029  0.6886
 3010TIP3   OH230588   3.520   5.934   2.580  0.4678 -0.0335 -0.2263
 3010TIP3    H130589   3.606   5.892   2.575  2.2608  2.9544  2.1200
 3010TIP3    H230590   3.511   5.980   2.497  0.9709 -0.6052 -0.6104
 3011TIP3   OH230591   1.318   1.271   0.315  0.8501 -0.1293 -0.2898
 3011TIP3    H130592   1.272   1.216   0.378  1.9678  0.1180  0.7698
 3011TIP3    H230593   1.270   1.259   0.233 -0.8541 -0.2011  0.6652
 3012TIP3   OH230594   2.508   2.501   6.225  0.2812 -0.1119 -0.2202
 3012TIP3    H130595   2.447   2.431   6.249 -0.9211  0.2240 -2.1297
 3012TIP3    H230596   2.455   2.580   6.223  1.3649  0.6833  0.6445
 3013TIP3   OH230597   2.800   5.669   7.702 -0.3928  0.0088  0.0500
 3013TIP3    H130598   2.829   5.736   7.640  0.1148  0.4108  0.7064
 3013TIP3    H230599   2.783   5.592   7.648 -0.6832  0.5684 -0.6799
 3014TIP3   OH230600   3.945   4.737   7.674  0.3825 -0.3866  0.1589
 3014TIP3    H130601   3.867   4.683   7.683  0.5114 -0.3735  1.5826
 3014TIP3    H230602   3.939   4.799   7.747  1.4756 -0.0708 -0.0081
 3015TIP3   OH230603   4.237   2.792   6.747 -0.7245  0.0094 -0.0042
 3015TIP3    H130604   4.198   2.828   6.668 -0.0067 -1.8994 -1.3169
 3015TIP3    H230605   4.330   2.783   6.726 -0.6442 -1.2148  0.7506
 3016TIP3   OH230606   0.194   2.612   7.301  0.0899  0.3837 -0.1871
 3016TIP3    H130607   0.269   2.653   7.343 -1.4562  1.7481  1.3910
 3016TIP3    H230608   0.124   2.677   7.307 -0.9711 -0.4369 -2.5204
 3017TIP3   OH230609   1.435   4.506   0.216  0.7792  0.3061  0.6929
 3017TIP3    H130610   1.426   4.427   0.271 -1.0676  0.5575  0.8359
 3017TIP3    H230611   1.433   4.579   0.279  0.0379  0.5430  0.4061
 3018TIP3   OH230612   1.150   5.706   2.004  0.1730  0.3084  0.2181
 3018TIP3    H130613   1.199   5.773   1.955 -1.1127 -0.5567 -2.3657
 3018TIP3    H230614   1.120   5.752   2.083  0.3198  2.4563 -0.9065
 3019TIP3   OH230615   5.607   6.866   7.591  0.3923 -0.1821  0.7553
 3019TIP3    H130616   5.618   6.905   7.505  0.6060 -0.0747  0.8308
 3019TIP3    H230617   5.638   6.933   7.652 -0.9631  0.2621  0.9968
 3020TIP3   OH230618   3.205   0.325   7.180  0.6243  0.8381 -0.1244
 3020TIP3    H130619   3.155   0.306   7.101  2.8553 -1.4354 -1.1313
 3020TIP3    H230620   3.295   0.333   7.150  1.4695  0.3980  2.1323
 3021TIP3   OH230621   0.615   5.822   8.080  0.5544  0.3004  0.7498
 3021TIP3    H130622   0.682   5.889   8.092  1.3592 -0.4202  0.4148
 3021TIP3    H230623   0.658   5.754   8.027 -1.4126  1.2694 -2.3186
 3022TIP3   OH230624   6.718   2.105   7.412  0.0456  0.0218 -0.2818
 3022TIP3    H130625   6.758   2.098   7.498 -0.8818  0.4164  0.1988
 3022TIP3    H230626   6.783   2.069   7.352  0.4680 -0.8060  0.6429
 3023TIP3   OH230627   3.714   3.029   8.077 -0.4786 -0.2980 -0.3336
 3023TIP3    H130628   3.781   3.067   8.020  1.7753 -1.4130  1.4360
 3023TIP3    H230629   3.660   2.975   8.018  0.3034  0.4188 -1.7572
 3024TIP3   OH230630   2.734   4.191   1.572 -0.1653 -0.3290 -0.3829
 3024TIP3    H130631   2.683   4.177   1.492  0.1862 -0.7187 -0.5410
 3024TIP3    H230632   2.769   4.105   1.594 -0.1513 -0.1985  0.1177
 3025TIP3   OH230633   0.072   6.605   0.680  0.0028  0.2809  0.1359
 3025TIP3    H130634   0.125   6.608   0.760  0.1717  2.0231 -0.0039
 3025TIP3    H230635   0.135   6.587   0.610  0.2069  0.9009  0.1511
 3026TIP3   OH230636   6.244   4.574   0.659 -0.0781 -0.1057  0.7745
 3026TIP3    H130637   6.198   4.657   0.653  1.8503  1.0114  0.4333
 3026TIP3    H230638   6.280   4.572   0.748  3.2287  1.4363 -0.3596
 3027TIP3   OH230639   5.706   5.011   6.991 -0.6130 -0.1190 -0.7959
 3027TIP3    H130640   5.665   4.947   7.049 -2.2637  2.0012  0.5393
 3027TIP3    H230641   5.675   4.988   6.903 -3.0162  0.1118 -0.0714
 3028TIP3   OH230642   4.509   2.255   8.561  0.0491  0.2193 -0.7785
 3028TIP3    H130643   4.559   2.281   8.639  1.6870 -0.0508 -1.7010
 3028TIP3    H230644   4.464   2.335   8.533  1.9986  1.1539 -1.3796
 3029TIP3   OH230645   3.576   4.098   0.704  0.9119 -0.0550 -0.4682
 3029TIP3    H130646   3.602   4.009   0.729  2.8857  0.7096  0.4407
 3029TIP3    H230647   3.659   4.143   0.688 -0.0798  1.3955 -1.8207
 3030TIP3   OH230648   6.184   1.188   6.413 -0.0755 -0.2382 -0.4523
 3030TIP3    H130649   6.146   1.251   6.474  1.9878 -0.9445  1.7232
 3030TIP3    H230650   6.155   1.103   6.445  0.4954 -0.6014 -0.8748
 3031TIP3   OH230651   6.304   2.908   1.398 -0.0375  0.0600 -0.3137
 3031TIP3    H130652   6.328   2.844   1.332  0.3424  1.2140 -1.3329
 3031TIP3    H230653   6.387   2.932   1.439  0.1515  1.4787 -1.4431
 3032TIP3   OH230654   4.055   4.974   1.122  0.2481 -0.3314 -0.1176
 3032TIP3    H130655   4.034   4.902   1.063  2.0369 -0.2578 -0.9243
 3032TIP3    H230656   4.090   5.042   1.064  2.5514 -0.4444  1.0224
 3033TIP3   OH230657   4.236   6.265   7.524 -0.2098  0.6552  0.1766
 3033TIP3    H130658   4.252   6.351   7.563  0.1122  0.4692  0.4624
 3033TIP3    H230659   4.141   6.262   7.512 -0.1326  1.4549 -0.7863
 3034TIP3   OH230660   3.494   1.445   1.683 -0.3367 -0.3808  0.3673
 3034TIP3    H130661   3.554   1.458   1.756 -2.5901  1.6852  1.9805
 3034TIP3    H230662   3.428   1.385   1.716 -1.4459  0.6633  0.1131
 3035TIP3   OH230663   0.922   4.488   6.757 -0.2755 -0.1331  0.0631
 3035TIP3    H130664   0.884   4.552   6.817  0.5764 -1.2893  1.9186
 3035TIP3    H230665   1.016   4.505   6.760 -0.2246 -0.0734 -1.1579
 3036TIP3   OH230666   4.511   6.341   0.122 -0.0935 -0.2010 -0.3566
 3036TIP3    H130667   4.496   6.283   0.197 -1.4982 -1.9370 -1.8539
 3036TIP3    H230668   4.424   6.375   0.101  0.6711  2.3802  0.3379
 3037TIP3   OH230669   0.794   4.906   1.239 -0.5157 -0.6023 -0.7015
 3037TIP3    H130670   0.866   4.968   1.243 -0.4167 -0.6910 -1.1004
 3037TIP3    H230671   0.792   4.876   1.148 -0.6322 -1.0967 -0.5405
 3038TIP3   OH230672   1.990   3.341   7.165  0.2026 -0.2848  0.0930
 3038TIP3    H130673   1.921   3.332   7.098 -0.2379  0.1170  0.4828
 3038TIP3    H230674   2.009   3.435   7.167  1.2705 -0.4725 -0.5021
 3039TIP3   OH230675   4.163   0.333   8.359 -0.5472 -0.3226  0.1884
 3039TIP3    H130676   4.078   0.309   8.322 -0.6845  0.0401  0.2591
 3039TIP3    H230677   4.224   0.325   8.286 -0.5788 -0.9407  0.2279
 3040TIP3   OH230678   2.488   3.785   1.317  0.4221  0.3763 -0.0283
 3040TIP3    H130679   2.533   3.791   1.401 -2.1468 -0.2177  1.4945
 3040TIP3    H230680   2.412   3.843   1.326 -1.0198 -1.2297 -1.1372
 3041TIP3   OH230681   0.534   4.379   0.339 -0.5836 -0.3388 -0.1397
 3041TIP3    H130682   0.621   4.389   0.377  0.3167 -0.1914 -2.1096
 3041TIP3    H230683   0.550   4.360   0.246 -2.6544  2.1652 -1.1422
 3042TIP3   OH230684   4.316   6.025   1.877  0.1688  0.2441  0.4270
 3042TIP3    H130685   4.358   6.044   1.962 -1.2216  1.0970  0.9641
 3042TIP3    H230686   4.294   6.111   1.842  0.9651 -0.0931 -0.9526
 3043TIP3   OH230687   2.387   0.124   0.745  0.5337  0.0126 -0.7970
 3043TIP3    H130688   2.464   0.172   0.777  1.7730 -0.9934 -2.1601
 3043TIP3    H230689   2.313   0.180   0.767  1.5179  0.4784  1.6134
 3044TIP3   OH230690   0.722   1.507   2.608 -0.4108 -0.1378 -0.2075
 3044TIP3    H130691   0.697   1.436   2.550  0.6739 -0.3485 -0.4433
 3044TIP3    H230692   0.786   1.468   2.667  2.1441  1.1704 -1.9190
 3045TIP3   OH230693   2.422   3.093   0.794 -0.1819  0.1305 -0.6427
 3045TIP3    H130694   2.382   3.032   0.732  1.5654 -2.2983  0.4318
 3045TIP3    H230695   2.514   3.096   0.768 -0.1587  2.1084 -0.4424
 3046TIP3   OH230696   5.081   5.070   1.911  0.0248  0.1504  0.1374
 3046TIP3    H130697   5.141   5.045   1.981 -1.5307 -1.3051  1.0132
 3046TIP3    H230698   5.017   4.999   1.908 -1.1013  1.1772 -1.4165
 3047TIP3   OH230699   6.544   4.793   8.456  0.0998 -0.5205  0.9394
 3047TIP3    H130700   6.532   4.820   8.365  1.4722 -0.2487  0.8068
 3047TIP3    H230701   6.456   4.790   8.493 -0.3734  0.5523 -0.0599
 3048TIP3   OH230702   6.770   2.756   7.604 -0.4835 -0.1832 -0.0498
 3048TIP3    H130703   6.769   2.682   7.543 -0.2600 -1.0379  0.9705
 3048TIP3    H230704   6.722   2.825   7.558 -1.8596 -1.3861 -0.4907
 3049TIP3   OH230705   3.450   6.491   1.251 -0.1898  0.2896 -0.4478
 3049TIP3    H130706   3.393   6.567   1.266  0.6765  0.5635  1.9077
 3049TIP3    H230707   3.517   6.524   1.191 -0.0848  1.3038  0.1823
 3050TIP3   OH230708   5.675   0.720   1.037 -0.3020 -0.4628 -0.5505
 3050TIP3    H130709   5.771   0.716   1.035 -0.0914  2.1065 -3.2243
 3050TIP3    H230710   5.655   0.797   1.090 -0.8262 -0.3417 -0.9165
 3051TIP3   OH230711   3.349   2.476   0.053 -0.2575  0.6161 -0.4825
 3051TIP3    H130712   3.313   2.559   0.082 -2.0251 -1.3148  3.7071
 3051TIP3    H230713   3.274   2.428   0.017  0.0642 -0.1722 -0.1453
 3052TIP3   OH230714   3.014   4.628   1.210  0.5676 -0.5451 -0.0832
 3052TIP3    H130715   3.005   4.540   1.246  0.4268 -0.5017 -0.0102
 3052TIP3    H230716   3.085   4.621   1.146 -0.9465 -1.2585 -1.7622
 3053TIP3   OH230717   4.322   0.639   1.076 -0.2395 -0.2493 -0.1091
 3053TIP3    H130718   4.326   0.544   1.082 -0.4342 -0.3287 -1.2091
 3053TIP3    H230719   4.400   0.669   1.124 -0.2981 -0.9367  0.4362
 3054TIP3   OH230720   3.265   0.487   6.609  0.6691 -0.2788  0.2820
 3054TIP3    H130721   3.268   0.411   6.667 -1.5631  0.3455  1.3179
 3054TIP3    H230722   3.219   0.457   6.531  1.8333 -0.5567 -0.3281
 3055TIP3   OH230723   5.281   2.792   6.320 -0.2098  0.5217  0.1698
 3055TIP3    H130724   5.195   2.828   6.295 -0.4416  0.2958  0.6375
 3055TIP3    H230725   5.266   2.698   6.331  0.3558  0.2968 -0.8598
 3056TIP3   OH230726   5.783   1.668   0.664 -0.0233  0.0477 -0.2342
 3056TIP3    H130727   5.850   1.642   0.728 -0.1671  0.1106 -0.0565
 3056TIP3    H230728   5.761   1.587   0.619 -0.3398 -0.1123  0.1958
 3057TIP3   OH230729   6.062   2.216   8.015 -0.0153 -0.0118 -0.3757
 3057TIP3    H130730   6.054   2.183   8.105 -0.4159 -0.0058 -0.4082
 3057TIP3    H230731   6.043   2.309   8.021  0.1734  0.0327 -0.4367
 3058TIP3   OH230732   4.268   5.807   2.868  0.6614 -0.1465 -0.1436
 3058TIP3    H130733   4.202   5.771   2.808  1.2176  0.2643 -1.0192
 3058TIP3    H230734   4.352   5.786   2.827  1.0469  0.3333  0.3877
 3059TIP3   OH230735   2.745   0.027   1.235 -0.3414  0.1789  0.7529
 3059TIP3    H130736   2.820  -0.000   1.288 -0.7522 -2.0162  0.3045
 3059TIP3    H230737   2.688  -0.050   1.233 -0.6612  0.3702 -2.3184
 3060TIP3   OH230738   1.412   2.132   7.064  0.6209  0.2918 -0.0306
 3060TIP3    H130739   1.351   2.156   6.995 -0.6655 -1.3222  0.4610
 3060TIP3    H230740   1.499   2.138   7.024 -0.1022 -0.9706 -1.9356
 3061TIP3   OH230741   1.814   3.642   8.003  0.3755 -0.4657 -0.1052
 3061TIP3    H130742   1.829   3.733   7.978 -0.3819 -0.0742  0.7847
 3061TIP3    H230743   1.739   3.615   7.951 -0.2221 -0.1480  0.5697
 3062TIP3   OH230744   3.134   0.594   0.641  0.5762  0.0563  0.2451
 3062TIP3    H130745   3.095   0.553   0.564 -0.5449 -0.2472  0.9513
 3062TIP3    H230746   3.204   0.534   0.666  1.0857  0.2606 -0.6469
 3063TIP3   OH230747   0.077   1.529   8.484 -0.3511  0.3067 -0.0724
 3063TIP3    H130748   0.044   1.602   8.536  0.5567  0.1188  0.7917
 3063TIP3    H230749  -0.001   1.494   8.441 -0.8986  1.3743  0.0045
 3064TIP3   OH230750   3.738   0.118   0.604 -0.3901 -0.3693  0.3289
 3064TIP3    H130751   3.662   0.109   0.546 -1.7003 -1.2502  2.0779
 3064TIP3    H230752   3.700   0.141   0.689  1.2896 -0.9269  1.2716
 3065TIP3   OH230753   1.648   5.794   1.102  0.2916  0.0777 -0.1395
 3065TIP3    H130754   1.733   5.771   1.065  0.1776 -0.8964  0.1914
 3065TIP3    H230755   1.606   5.847   1.034  0.8819 -0.0096 -0.5779
 3066TIP3   OH230756   1.176   2.283   0.839  0.5829 -0.4084  0.3004
 3066TIP3    H130757   1.128   2.365   0.827  0.2835 -0.8715 -2.2150
 3066TIP3    H230758   1.109   2.215   0.831  1.1085 -0.9532  0.4534
 3067TIP3   OH230759   5.546   1.463   7.107  0.2301  0.3616 -0.5271
 3067TIP3    H130760   5.466   1.468   7.054  0.9905 -2.6381 -2.1811
 3067TIP3    H230761   5.527   1.396   7.172  0.4504  1.7471  1.0313
 3068TIP3   OH230762   4.639   6.565   7.897  0.3233  0.1316 -0.4981
 3068TIP3    H130763   4.616   6.584   7.806  0.7664 -0.1557 -0.6728
 3068TIP3    H230764   4.731   6.591   7.904  1.3450 -2.9024 -1.0703
 3069TIP3   OH230765   1.581   5.241   1.777  0.6263 -0.4312 -0.4112
 3069TIP3    H130766   1.564   5.159   1.823 -1.1425 -0.0564 -0.3211
 3069TIP3    H230767   1.566   5.219   1.684  1.8768 -0.6204 -0.5769
 3070TIP3   OH230768   5.559   5.602   6.899 -0.6973  0.4975 -0.0451
 3070TIP3    H130769   5.539   5.695   6.907 -0.1154  0.6692 -0.5582
 3070TIP3    H230770   5.496   5.569   6.835 -1.0410  0.4858  0.2916
 3071TIP3   OH230771   0.731   5.696   6.804  1.1027 -0.0732 -0.5811
 3071TIP3    H130772   0.773   5.768   6.852 -0.0919  1.3501 -1.5526
 3071TIP3    H230773   0.637   5.712   6.816  0.7424 -2.8660  1.1278
 3072TIP3   OH230774   4.738   5.005   6.889 -0.2523  0.1920 -0.3389
 3072TIP3    H130775   4.678   4.971   6.822  0.8705  1.5330 -2.0959
 3072TIP3    H230776   4.680   5.046   6.954 -1.4391 -2.2950  0.2914
 3073TIP3   OH230777   3.317   0.776   6.868  0.0809 -0.1434 -0.1156
 3073TIP3    H130778   3.235   0.755   6.824  0.0266 -1.8375  0.6934
 3073TIP3    H230779   3.295   0.847   6.928  0.0011  1.7241 -2.2400
 3074TIP3   OH230780   3.315   2.837   0.623  0.1553  0.1379 -0.7904
 3074TIP3    H130781   3.266   2.819   0.704 -0.7308  0.5735 -1.2226
 3074TIP3    H230782   3.292   2.765   0.565 -0.5402  0.7166 -1.2433
 3075TIP3   OH230783   1.708   3.168   1.065 -0.0056  0.1368 -0.3407
 3075TIP3    H130784   1.716   3.073   1.052  0.0236  0.0563  0.2332
 3075TIP3    H230785   1.788   3.204   1.027 -0.2582 -0.0171 -1.0323
 3076TIP3   OH230786   3.142   1.111   0.727  0.0578 -0.4468  0.6896
 3076TIP3    H130787   3.211   1.164   0.687 -0.1453  0.6381  1.7239
 3076TIP3    H230788   3.171   1.021   0.716 -0.1443 -0.2600 -2.2086
 3077TIP3   OH230789   1.414   4.354   6.665 -0.2554  0.0781 -0.1687
 3077TIP3    H130790   1.435   4.431   6.612 -2.1371 -0.3217 -1.5896
 3077TIP3    H230791   1.450   4.280   6.616 -0.3782 -0.1313  0.0539
 3078TIP3   OH230792   1.682   3.541   1.987  0.3382  0.3193 -0.4300
 3078TIP3    H130793   1.719   3.460   2.023 -0.2012 -0.8850 -2.4036
 3078TIP3    H230794   1.625   3.511   1.916  0.1725  2.4612 -1.2615
 3079TIP3   OH230795   1.197   6.646   0.801 -0.4478  0.4728  0.3566
 3079TIP3    H130796   1.235   6.614   0.719 -1.3545  1.2539 -0.3907
 3079TIP3    H230797   1.246   6.726   0.820 -0.0910  0.1756  0.7021
 3080TIP3   OH230798   5.117   3.991   8.047  0.5727  0.7775  0.1357
 3080TIP3    H130799   5.103   4.038   8.129  1.1923 -0.2766  0.8808
 3080TIP3    H230800   5.103   3.899   8.070  2.0553  0.3258 -0.6102
 3081TIP3   OH230801   3.019   1.152   8.339  0.2686  0.2706  0.5947
 3081TIP3    H130802   3.064   1.233   8.364 -0.0521  0.4057  0.7393
 3081TIP3    H230803   3.088   1.087   8.335  0.8476  0.9503 -1.3898
 3082TIP3   OH230804   4.382   1.401   1.244  0.1656  1.1249 -0.4328
 3082TIP3    H130805   4.315   1.351   1.291 -0.3948  0.8396 -1.5053
 3082TIP3    H230806   4.378   1.489   1.282  0.1759  0.7422  0.4827
 3083TIP3   OH230807   5.212   6.874   6.597  0.1744 -0.2208  0.1251
 3083TIP3    H130808   5.303   6.846   6.589  0.2664 -0.2395  1.0356
 3083TIP3    H230809   5.170   6.803   6.646 -0.0960  0.2269  0.5500
 3084TIP3   OH230810   0.343   6.160   8.486 -0.5423 -0.8266  0.7913
 3084TIP3    H130811   0.421   6.170   8.541  0.7489  0.8326 -1.1902
 3084TIP3    H230812   0.374   6.112   8.409 -1.4032  0.0700 -0.1390
 3085TIP3   OH230813   4.512   0.951   8.464 -0.4011  0.1160  0.1710
 3085TIP3    H130814   4.498   1.027   8.408  1.0540  0.3184  0.0402
 3085TIP3    H230815   4.429   0.905   8.464 -0.5700  0.3633 -1.7966
 3086TIP3   OH230816   5.177   6.117   1.482  0.7618  0.5065 -0.2055
 3086TIP3    H130817   5.251   6.071   1.441 -0.1923 -0.7092 -0.5969
 3086TIP3    H230818   5.099   6.073   1.448 -0.1253  0.9942  1.1329
 3087TIP3   OH230819   0.361   6.786   7.378 -0.0915  0.5546 -0.2555
 3087TIP3    H130820   0.355   6.694   7.402  1.1024  0.4558 -0.2492
 3087TIP3    H230821   0.329   6.833   7.454 -1.0265  0.1430 -0.3850
 3088TIP3   OH230822   1.040   1.444   0.100  0.0772 -0.3111  0.0673
 3088TIP3    H130823   1.011   1.527   0.063 -0.4494 -0.7827 -0.6080
 3088TIP3    H230824   0.966   1.412   0.151  0.0353 -0.6696 -0.2073
 3089TIP3   OH230825   1.692   4.343   6.784  0.1574  0.2475  0.6613
 3089TIP3    H130826   1.667   4.291   6.708  1.1027  1.0554 -0.2311
 3089TIP3    H230827   1.759   4.290   6.828  2.0240  1.1667 -0.9228
 3090TIP3   OH230828   3.892   5.640   7.968 -0.0569 -0.1393  0.0600
 3090TIP3    H130829   3.859   5.642   7.878  0.9908 -0.4640 -0.3461
 3090TIP3    H230830   3.840   5.573   8.011  1.1299 -1.8325 -1.0222
 3091TIP3   OH230831   6.068   2.078   6.678  0.3210  0.7471  0.2031
 3091TIP3    H130832   6.014   2.155   6.694  2.3274  1.7888  2.7517
 3091TIP3    H230833   6.130   2.105   6.610 -0.8076  0.3363 -1.0225
 3092TIP3   OH230834   2.091   1.411   7.987  0.0646  0.3397 -0.2373
 3092TIP3    H130835   2.059   1.412   7.897  0.1782 -1.1011 -0.3110
 3092TIP3    H230836   2.126   1.323   7.999  0.7107  0.7423  0.9921
 3093TIP3   OH230837   3.571   1.805   2.507  0.4328 -0.5788  0.1064
 3093TIP3    H130838   3.592   1.770   2.420  1.5366  0.0042  0.1237
 3093TIP3    H230839   3.650   1.852   2.534 -0.0714 -0.3363  1.2227
 3094TIP3   OH230840   4.413   0.978   7.189 -0.6567  0.1304 -0.0796
 3094TIP3    H130841   4.425   0.890   7.226 -1.2868  0.2219  0.3463
 3094TIP3    H230842   4.436   0.968   7.097  1.7257  0.0685  0.4577
 3095TIP3   OH230843   3.061   0.383   7.400  0.0312 -0.1961  0.2487
 3095TIP3    H130844   3.103   0.359   7.317 -0.4598  0.4025 -0.1814
 3095TIP3    H230845   3.011   0.462   7.379 -0.0004  0.0305  1.1465
 3096TIP3   OH230846   6.734   4.032   1.538 -0.2950 -0.1506  0.0310
 3096TIP3    H130847   6.680   4.010   1.462  0.2808  1.5408 -0.9285
 3096TIP3    H230848   6.798   3.962   1.543  1.3945  1.0259 -2.7908
 3097TIP3   OH230849   3.770   3.000   8.361  0.2204  0.1090  0.0080
 3097TIP3    H130850   3.736   3.000   8.272  2.7559  2.4293 -1.1313
 3097TIP3    H230851   3.804   2.911   8.374 -2.2128 -0.9578 -0.3511
 3098TIP3   OH230852   3.019   3.919   0.511  0.0985 -0.2834  0.3000
 3098TIP3    H130853   3.023   3.967   0.428  2.4925 -1.0268 -0.0906
 3098TIP3    H230854   2.976   3.979   0.572 -1.5866  0.3463 -1.3964
 3099TIP3   OH230855   1.679   4.616   6.488  0.5090  0.2906 -0.6008
 3099TIP3    H130856   1.678   4.575   6.574 -0.5415  1.3288 -0.1055
 3099TIP3    H230857   1.758   4.670   6.488  0.9882 -0.3917 -0.6379
 3100TIP3   OH230858   0.853   3.623   8.258 -0.1550  0.4083 -0.5057
 3100TIP3    H130859   0.916   3.617   8.329 -0.6262 -1.1885 -0.1697
 3100TIP3    H230860   0.858   3.714   8.228  1.5671  0.5699  0.1593
 3101TIP3   OH230861   3.408   1.745   8.004 -0.1321  0.2188 -0.0453
 3101TIP3    H130862   3.458   1.663   8.002 -1.5421 -0.6939  0.4180
 3101TIP3    H230863   3.428   1.787   7.920  0.4890 -0.6787 -0.3659
 3102TIP3   OH230864   1.958   6.714   0.993 -0.1381 -0.1867 -0.5813
 3102TIP3    H130865   1.939   6.706   1.087  1.6477  0.8178 -0.0749
 3102TIP3    H230866   1.879   6.752   0.955 -1.1023 -1.1256  0.4058
 3103TIP3   OH230867   4.399   6.681   8.617 -0.5444  0.2037 -0.2879
 3103TIP3    H130868   4.359   6.603   8.578  0.2419 -0.0669 -0.5738
 3103TIP3    H230869   4.417   6.656   8.708 -2.1247  0.7421  0.2108
 3104TIP3   OH230870   3.149   2.641   1.033 -0.6057 -0.2822 -0.3815
 3104TIP3    H130871   3.156   2.622   1.126 -1.3667 -2.2297 -0.6845
 3104TIP3    H230872   3.056   2.635   1.013 -0.3385 -1.1840 -1.4942
 3105TIP3   OH230873   1.417   3.650   7.497 -0.3989  0.6056  0.4009
 3105TIP3    H130874   1.350   3.681   7.558 -0.3214  0.6206  0.4781
 3105TIP3    H230875   1.500   3.670   7.539 -0.3460 -0.3718  0.8007
 3106TIP3   OH230876   0.952   3.832   1.722 -0.1991 -0.0663  0.4606
 3106TIP3    H130877   0.940   3.926   1.735  1.3212  0.1324  0.5938
 3106TIP3    H230878   0.865   3.800   1.696 -1.5104  0.8501  3.3235
 3107TIP3   OH230879   3.368   6.763   8.366  0.4388 -0.0985  0.7368
 3107TIP3    H130880   3.377   6.842   8.312 -0.2617 -1.0319 -0.8031
 3107TIP3    H230881   3.275   6.741   8.361  0.9707 -2.2850 -0.7473
 3108TIP3   OH230882   3.272   4.488   1.908  0.2841  0.1596  0.4624
 3108TIP3    H130883   3.180   4.515   1.903  0.2517  0.6476  2.7537
 3108TIP3    H230884   3.318   4.549   1.850 -0.5966  1.2310  0.8514
 3109TIP3   OH230885   1.046   5.401   6.838 -0.8511  0.5720  0.0266
 3109TIP3    H130886   1.068   5.424   6.928 -1.5016  0.6831  0.1594
 3109TIP3    H230887   0.964   5.446   6.821 -0.6396  0.7084 -0.6893
 3110TIP3   OH230888   4.178   4.973   0.064  0.1653 -0.1764  0.3872
 3110TIP3    H130889   4.090   4.966   0.102  0.4013 -1.0936  0.7807
 3110TIP3    H230890   4.164   5.012  -0.022 -0.8032 -1.8068 -0.2254
 3111TIP3   OH230891   0.774   1.541   8.173  0.1162  0.6628 -0.4647
 3111TIP3    H130892   0.811   1.453   8.182 -1.8473  0.0208  2.4998
 3111TIP3    H230893   0.711   1.533   8.102 -0.1261 -0.3622 -0.1542
 3112TIP3   OH230894   1.775   6.129   1.357  0.2306  0.0461 -0.1502
 3112TIP3    H130895   1.830   6.054   1.378 -0.4153 -0.5938 -0.6827
 3112TIP3    H230896   1.708   6.094   1.298 -0.1100  1.0303 -0.3710
 3113TIP3   OH230897   2.802   6.389   6.871 -0.0593 -0.2182  0.3010
 3113TIP3    H130898   2.758   6.416   6.790  0.4026  0.4181  0.2541
 3113TIP3    H230899   2.801   6.467   6.926 -1.6959 -1.0481  1.5252
 3114TIP3   OH230900   5.498   3.886   2.129 -0.0323  0.0405  0.1009
 3114TIP3    H130901   5.451   3.811   2.092  0.2133  0.6238 -1.4663
 3114TIP3    H230902   5.583   3.850   2.155 -0.2429 -0.3972  0.2152
 3115TIP3   OH230903   6.147   0.197   0.937  0.0004  0.2634 -0.4879
 3115TIP3    H130904   6.238   0.218   0.916  1.1136 -2.5402  0.9850
 3115TIP3    H230905   6.105   0.185   0.852  1.2858  0.5523 -1.1939
 3116TIP3   OH230906   3.137   3.057   7.297  0.2020 -0.1974  0.4466
 3116TIP3    H130907   3.205   3.124   7.300 -1.3325  1.4672 -0.3061
 3116TIP3    H230908   3.097   3.068   7.211 -0.4863 -1.7187  0.5444
 3117TIP3   OH230909   1.520   4.385   8.427  0.2628  0.0738 -0.3062
 3117TIP3    H130910   1.569   4.425   8.498  0.9198 -0.8992 -0.2038
 3117TIP3    H230911   1.524   4.291   8.444 -0.8259 -0.0871 -0.8205
 3118TIP3   OH230912   6.682   2.297   6.651 -0.2287  0.3563  0.1365
 3118TIP3    H130913   6.755   2.342   6.609 -1.2026  0.1897 -1.8517
 3118TIP3    H230914   6.605   2.350   6.629 -1.0174 -0.7313  0.1776
 3119TIP3   OH230915   0.458   0.850   1.483  0.4261  0.0501  0.5319
 3119TIP3    H130916   0.390   0.793   1.449  0.3626 -0.8065  2.0023
 3119TIP3    H230917   0.417   0.936   1.491 -0.1088 -0.1822  0.2789
 3120TIP3   OH230918   0.970   5.274   0.185 -0.0184  0.5362  0.3106
 3120TIP3    H130919   0.913   5.222   0.128  0.6378 -1.1979  1.1487
 3120TIP3    H230920   0.918   5.292   0.262 -0.3090  1.3076 -0.0602
 3121TIP3   OH230921   1.538   3.895   1.915  0.4876  0.4206  0.2060
 3121TIP3    H130922   1.476   3.822   1.910  0.5175  0.4250 -0.2515
 3121TIP3    H230923   1.614   3.858   1.960  0.6770  0.0359 -0.4085
 3122TIP3   OH230924   2.094   5.409   1.420 -1.0432  0.3381  0.2946
 3122TIP3    H130925   2.159   5.393   1.351 -0.9866  0.0294  0.4161
 3122TIP3    H230926   2.078   5.323   1.458 -1.6681  0.3853  0.1416
 3123TIP3   OH230927   0.270   2.584   8.343 -0.4546 -0.0323  0.2197
 3123TIP3    H130928   0.293   2.500   8.382 -0.6370  0.7766  2.1949
 3123TIP3    H230929   0.175   2.585   8.343 -0.4533  0.2260  0.3427
 3124TIP3   OH230930   6.422   1.914   0.909  0.0724 -0.0958  0.0854
 3124TIP3    H130931   6.387   1.883   0.993 -0.3698 -1.4567 -0.5821
 3124TIP3    H230932   6.375   1.863   0.843  1.1656  0.2107 -0.9550
 3125TIP3   OH230933   0.787   6.409   0.102 -0.2262 -0.0513 -0.4943
 3125TIP3    H130934   0.751   6.323   0.126  1.1760 -0.0591  1.9366
 3125TIP3    H230935   0.751   6.469   0.167  0.5807  0.7800 -0.7997
 3126TIP3   OH230936   6.071   3.621   1.750  0.1409  0.3225  0.3035
 3126TIP3    H130937   6.036   3.683   1.685  0.6226 -0.6495 -0.9402
 3126TIP3    H230938   6.123   3.559   1.698 -0.2257 -1.0590  1.5049
 3127TIP3   OH230939   0.709   0.611   0.872  0.2956  0.3438  0.0278
 3127TIP3    H130940   0.766   0.627   0.797  0.0579  0.9788 -0.0264
 3127TIP3    H230941   0.763   0.632   0.948  0.1809  0.8329 -0.0189
 3128TIP3   OH230942   3.325   6.690   7.925 -0.0034  0.4054 -0.5283
 3128TIP3    H130943   3.303   6.783   7.930 -1.6797  0.1582 -2.3134
 3128TIP3    H230944   3.413   6.685   7.961 -0.6075  2.3748  1.4459
 3129TIP3   OH230945   2.572   3.441   6.398 -1.0762 -0.3412 -0.1198
 3129TIP3    H130946   2.636   3.474   6.335 -2.4289 -1.0535 -1.9717
 3129TIP3    H230947   2.576   3.502   6.471  1.8880 -0.5291 -0.0037
 3130TIP3   OH230948   4.435   4.910   7.480  0.0219 -0.4184 -0.3005
 3130TIP3    H130949   4.391   4.852   7.543 -1.3081  3.0617  2.3545
 3130TIP3    H230950   4.425   4.866   7.396 -2.6573 -3.0504  1.1856
 3131TIP3   OH230951   0.546   0.397   7.058 -0.5406 -0.2405 -0.8957
 3131TIP3    H130952   0.461   0.374   7.022 -0.9741  1.3217 -0.9040
 3131TIP3    H230953   0.607   0.385   6.985 -0.9674  0.0588 -1.3062
 3132TIP3   OH230954   3.274   3.016   6.702 -0.0022 -0.4090  0.1995
 3132TIP3    H130955   3.199   2.986   6.651  0.3025  0.3105 -0.6964
 3132TIP3    H230956   3.258   3.109   6.717  0.4136 -0.3855  0.5499
 3133TIP3   OH230957   5.406   3.306   8.639  0.1969 -0.0610 -0.0889
 3133TIP3    H130958   5.339   3.357   8.594  0.0151  0.6020  0.9105
 3133TIP3    H230959   5.358   3.229   8.672  0.1397 -0.0841 -0.2243
 3134TIP3   OH230960   5.199   3.638   0.700 -0.2269 -0.0222  0.2764
 3134TIP3    H130961   5.249   3.709   0.740 -0.4421  0.5910 -0.5201
 3134TIP3    H230962   5.252   3.560   0.715  1.2437  0.6705 -0.9414
 3135TIP3   OH230963   4.363   1.033   0.517 -0.6048  0.0488  1.2782
 3135TIP3    H130964   4.360   1.128   0.527  1.8121  0.5440 -1.3179
 3135TIP3    H230965   4.417   1.003   0.590  0.9709  1.0642  0.5806
 3136TIP3   OH230966   2.531   0.348   0.918 -0.0416  0.1469 -0.1356
 3136TIP3    H130967   2.466   0.334   0.987 -0.1393  1.3589  0.0394
 3136TIP3    H230968   2.581   0.267   0.916 -2.8631 -1.7506 -1.7459
 3137TIP3   OH230969   1.783   0.354   1.749  0.3048  0.0760  0.0602
 3137TIP3    H130970   1.767   0.431   1.696  1.7172  0.4164  0.1149
 3137TIP3    H230971   1.700   0.305   1.745  0.1944  0.3527 -1.9774
 3138TIP3   OH230972   4.220   6.615   0.359 -0.0401  0.5474 -0.0887
 3138TIP3    H130973   4.288   6.602   0.292 -0.0470 -0.7041  0.1207
 3138TIP3    H230974   4.169   6.689   0.328  0.3221  0.3579 -1.1772
 3139TIP3   OH230975   6.310   2.219   0.328 -0.3193 -0.5704 -0.0080
 3139TIP3    H130976   6.254   2.142   0.318  0.2175 -0.9694  0.0172
 3139TIP3    H230977   6.286   2.255   0.413 -1.3570 -0.0627 -0.5014
 3140TIP3   OH230978   2.038   0.051   0.256 -0.0468 -0.0283 -0.0087
 3140TIP3    H130979   2.037   0.008   0.171  1.4482 -0.8722  0.3559
 3140TIP3    H230980   2.079   0.136   0.240 -0.7339  0.2566 -0.2973
 3141TIP3   OH230981   5.852   4.994   1.035  0.6242 -0.0251 -0.3066
 3141TIP3    H130982   5.913   4.923   1.057  1.6546  0.9283 -0.0035
 3141TIP3    H230983   5.776   4.976   1.090  0.8551 -0.9119 -0.2491
 3142TIP3   OH230984   3.371   1.614   0.650 -0.7355 -0.6366  0.5204
 3142TIP3    H130985   3.393   1.609   0.743 -0.7977 -1.5198  0.5026
 3142TIP3    H230986   3.456   1.621   0.606 -0.6976 -0.3696  0.6350
 3143TIP3   OH230987   0.596   1.222   7.766 -0.4276  0.2843 -0.3245
 3143TIP3    H130988   0.643   1.154   7.718  0.3587  2.5324 -2.9930
 3143TIP3    H230989   0.503   1.200   7.754 -0.1847 -0.9929  0.0029
 3144TIP3   OH230990   4.753   5.763   1.284 -0.5120  0.6514 -0.0491
 3144TIP3    H130991   4.742   5.699   1.354  0.0245  0.4561 -0.1406
 3144TIP3    H230992   4.698   5.729   1.213 -0.7064  0.6159  0.1151
 3145TIP3   OH230993   4.988   1.673   7.696  0.2579  0.1581  0.1521
 3145TIP3    H130994   4.991   1.755   7.745  1.0438 -0.1914  0.7021
 3145TIP3    H230995   5.076   1.664   7.658  0.4006 -0.7614  0.6649
 3146TIP3   OH230996   3.153   1.625   6.434 -0.3888 -0.8946  0.0974
 3146TIP3    H130997   3.152   1.597   6.343 -1.9265 -0.7382  0.0470
 3146TIP3    H230998   3.103   1.707   6.435  1.2944  0.1806  0.7726
 3147TIP3   OH230999   3.735   5.797   7.441 -0.1393  0.2065 -0.7893
 3147TIP3    H131000   3.774   5.861   7.501  0.9911 -1.1744  0.0118
 3147TIP3    H231001   3.744   5.837   7.354 -0.3580  1.5451 -0.2141
 3148TIP3   OH231002   4.336   3.525   0.230 -0.1920 -0.2656  0.3902
 3148TIP3    H131003   4.342   3.476   0.147  2.1583  2.0951 -0.9678
 3148TIP3    H231004   4.371   3.464   0.296 -0.1067 -1.4398 -0.6940
 3149TIP3   OH231005   3.159   6.548   1.590  0.0256  0.3615 -0.2768
 3149TIP3    H131006   3.219   6.596   1.648  1.2512 -0.8413 -0.5011
 3149TIP3    H231007   3.081   6.533   1.643  0.6669  0.3272  0.6800
 3150TIP3   OH231008   5.631   1.860   1.667 -0.1934  0.7259  0.0118
 3150TIP3    H131009   5.613   1.781   1.616  2.1452  0.7851 -1.0503
 3150TIP3    H231010   5.546   1.886   1.701 -1.3291 -1.2135 -1.1171
 3151TIP3   OH231011   3.955   6.691   7.087  0.1878 -0.1801 -0.3119
 3151TIP3    H131012   3.892   6.753   7.051  1.6836  1.0406 -0.9530
 3151TIP3    H231013   3.948   6.702   7.182  0.1940  0.7262 -0.4095
 3152TIP3   OH231014   0.037   2.088   2.234 -0.1824 -0.4781  0.0492
 3152TIP3    H131015  -0.033   2.154   2.228  0.5508  0.2272 -1.2392
 3152TIP3    H231016   0.085   2.111   2.313 -1.6929 -1.3033  1.2738
 3153TIP3   OH231017   1.365   4.912   7.403  0.0886 -0.2668  0.5177
 3153TIP3    H131018   1.329   4.865   7.327  0.6589 -1.4322  0.9337
 3153TIP3    H231019   1.391   4.997   7.369 -3.9019  1.1143  0.3594
 3154TIP3   OH231020   0.351   5.542   1.802 -0.3555  0.1015 -0.0182
 3154TIP3    H131021   0.413   5.614   1.807 -0.1070 -0.0024 -1.2327
 3154TIP3    H231022   0.350   5.504   1.890  1.8486 -0.3460 -0.1421
 3155TIP3   OH231023   4.394   2.854   1.739  0.3600  0.1980 -0.1232
 3155TIP3    H131024   4.317   2.801   1.716  1.0408 -0.6847 -0.4066
 3155TIP3    H231025   4.388   2.864   1.834 -0.1119  0.1464 -0.1431
 3156TIP3   OH231026   5.521   1.224   0.563  0.3906  0.0098 -0.0915
 3156TIP3    H131027   5.510   1.269   0.647  0.5409  0.3458 -0.2490
 3156TIP3    H231028   5.438   1.239   0.518 -0.4886 -1.8873  0.7872
 3157TIP3   OH231029   2.852   3.340   0.764 -0.0235 -0.7111  0.1175
 3157TIP3    H131030   2.790   3.374   0.828 -2.4479 -0.8869 -1.9907
 3157TIP3    H231031   2.891   3.419   0.725  0.3862 -0.5844  0.7564
 3158TIP3   OH231032   2.551   2.857   1.886 -1.4654  0.0968  0.4711
 3158TIP3    H131033   2.548   2.763   1.869 -0.4706 -0.1924  1.7102
 3158TIP3    H231034   2.620   2.867   1.952  0.8197  2.0849 -1.9947
 3159TIP3   OH231035   6.172   6.813   7.424 -0.1102  0.0424 -0.2838
 3159TIP3    H131036   6.168   6.747   7.355 -0.4639 -0.4638  0.2125
 3159TIP3    H231037   6.084   6.851   7.427 -0.9530 -1.8289  1.6837
 3160TIP3   OH231038   1.924   2.903   0.818 -0.3744  0.0191 -0.4402
 3160TIP3    H131039   1.872   2.967   0.768  0.2530 -0.0609 -1.2185
 3160TIP3    H231040   1.893   2.818   0.787 -2.2604 -0.1512  1.6570
 3161TIP3   OH231041   5.885   3.237   0.329  0.1329  0.1032  0.6518
 3161TIP3    H131042   5.845   3.156   0.297  0.5769  0.2177 -0.2451
 3161TIP3    H231043   5.930   3.212   0.409 -0.1714 -0.4246  0.6601
 3162TIP3   OH231044   2.007   1.786   1.683 -0.2122 -0.5376  0.4636
 3162TIP3    H131045   1.923   1.812   1.645  0.4781  0.4377 -0.4427
 3162TIP3    H231046   1.983   1.728   1.755 -1.6999  0.4893  0.8441
 3163TIP3   OH231047   0.560   0.570   7.631  0.0425 -0.1585 -0.0967
 3163TIP3    H131048   0.479   0.577   7.580  0.6923 -1.1911 -1.3344
 3163TIP3    H231049   0.619   0.634   7.589  0.5627 -0.9750 -0.6475
 3164TIP3   OH231050   6.858   0.670   0.211  0.4438 -0.4981 -0.2972
 3164TIP3    H131051   6.834   0.666   0.119 -2.1623 -0.3350  0.2935
 3164TIP3    H231052   6.877   0.762   0.227  0.4757 -0.4544 -0.5880
 3165TIP3   OH231053   0.540   6.631   0.747  0.1197 -0.1839  0.1487
 3165TIP3    H131054   0.464   6.575   0.760  0.2314 -0.2047  0.7380
 3165TIP3    H231055   0.504   6.712   0.710 -0.2266 -0.0925  0.6758
 3166TIP3   OH231056   5.925   6.805   1.143  0.3116  0.2243  0.2514
 3166TIP3    H131057   5.923   6.886   1.091 -0.2829 -0.8922 -1.5439
 3166TIP3    H231058   5.892   6.738   1.084  2.5703 -1.7175  1.0655
 3167TIP3   OH231059   0.346   4.974   7.995  0.2390  0.4853 -0.5694
 3167TIP3    H131060   0.306   4.955   8.079 -0.9874  0.8481 -1.0414
 3167TIP3    H231061   0.304   5.055   7.966  0.5752  0.3293 -1.5618
 3168TIP3   OH231062   5.493   0.055   0.772 -0.2551  0.5988 -0.2940
 3168TIP3    H131063   5.564   0.062   0.708 -1.6809 -0.6542 -2.1027
 3168TIP3    H231064   5.456   0.143   0.776  1.7954  1.4743  1.2550
 3169TIP3   OH231065   6.738   4.493   2.641 -0.2133  0.1638  0.1492
 3169TIP3    H131066   6.655   4.454   2.668 -0.3969  1.0265  0.8784
 3169TIP3    H231067   6.763   4.445   2.562 -0.7883 -0.9249  0.6061
 3170TIP3   OH231068   6.190   0.024   2.223 -0.2606  0.1875 -0.3095
 3170TIP3    H131069   6.116   0.053   2.169 -1.5477  0.1595  1.3631
 3170TIP3    H231070   6.191   0.085   2.297  1.1595 -0.0640 -0.0855
 3171TIP3   OH231071   0.884   1.865   7.371 -0.5398 -0.0648  0.3697
 3171TIP3    H131072   0.880   1.805   7.445  0.4953  1.1918  1.4810
 3171TIP3    H231073   0.972   1.902   7.374 -0.3576 -0.2244 -1.6983
 3172TIP3   OH231074   2.730   4.975   6.994 -0.2100  0.3176 -0.1634
 3172TIP3    H131075   2.708   4.887   7.024 -0.3053  0.2257 -0.4979
 3172TIP3    H231076   2.659   5.030   7.027 -1.0882 -0.0165 -1.4295
 3173TIP3   OH231077   6.347   5.015   7.222  0.1581  0.2095  0.0970
 3173TIP3    H131078   6.330   5.100   7.181 -0.5736 -0.1349 -0.3289
 3173TIP3    H231079   6.440   5.018   7.245 -0.1077  1.5700  1.1435
 3174TIP3   OH231080   2.969   2.682   2.217  0.3842 -0.0094 -0.4426
 3174TIP3    H131081   2.949   2.673   2.310 -0.1693 -0.3946 -0.5948
 3174TIP3    H231082   2.884   2.690   2.175  0.6625  1.5053 -0.7941
 3175TIP3   OH231083   1.863   3.543   0.896 -0.0876  0.4749 -0.0265
 3175TIP3    H131084   1.852   3.448   0.888 -0.5941  0.3769  1.4818
 3175TIP3    H231085   1.925   3.566   0.827  0.7011 -1.0889  0.1182
 3176TIP3   OH231086   2.889   2.323   0.772 -0.5840  0.1242  0.0802
 3176TIP3    H131087   2.828   2.321   0.846  1.0223 -0.9272  1.4562
 3176TIP3    H231088   2.877   2.239   0.728 -1.0548  0.4695 -0.4650
 3177TIP3   OH231089   6.272   3.919   7.007  0.1616  0.2901 -0.4301
 3177TIP3    H131090   6.295   3.890   6.919  1.1249  0.7098 -0.3227
 3177TIP3    H231091   6.297   4.011   7.010  2.4834 -0.3053  1.0594
 3178TIP3   OH231092   0.445   3.583   7.264 -0.3392 -0.5169  0.5038
 3178TIP3    H131093   0.394   3.647   7.216 -0.8053  0.2144  1.9130
 3178TIP3    H231094   0.535   3.617   7.262 -0.0683 -1.2290 -1.0151
 3179TIP3   OH231095   0.431   5.833   0.271 -0.2472 -0.3988 -0.8336
 3179TIP3    H131096   0.349   5.813   0.316 -0.0417 -1.0813 -0.7546
 3179TIP3    H231097   0.407   5.838   0.178  0.0277 -3.1642 -1.1411
 3180TIP3   OH231098   2.343   3.410   0.795  0.1228  0.1023  0.2109
 3180TIP3    H131099   2.332   3.315   0.789  0.1904  0.1289 -0.3914
 3180TIP3    H231100   2.287   3.444   0.726  0.1514  0.5019  0.3836
 3181TIP3   OH231101   1.042   1.857   8.068  0.1878  0.1247  0.3446
 3181TIP3    H131102   1.026   1.806   8.148  0.6201 -1.6909 -0.6622
 3181TIP3    H231103   0.984   1.817   8.002  0.9086  0.6128 -0.6128
 3182TIP3   OH231104   5.730   3.374   0.757  0.4450  0.0554  0.1308
 3182TIP3    H131105   5.776   3.447   0.717  0.3644 -0.9942 -2.0198
 3182TIP3    H231106   5.794   3.335   0.817  0.7621  1.3418  0.6482
 3183TIP3   OH231107   0.793   5.118   7.557 -0.0094  0.1401 -0.2652
 3183TIP3    H131108   0.861   5.052   7.575 -0.0694 -0.1161 -0.9410
 3183TIP3    H231109   0.764   5.146   7.643  1.6687  0.9924  0.0687
 3184TIP3   OH231110   5.544   4.340   7.515  0.0753  0.2346 -0.0087
 3184TIP3    H131111   5.563   4.287   7.593  1.1296 -0.5820 -0.7748
 3184TIP3    H231112   5.624   4.392   7.503  0.4534 -0.5994 -1.2571
 3185TIP3   OH231113   2.523   1.418   1.243 -0.3436 -0.5184 -0.0516
 3185TIP3    H131114   2.478   1.381   1.319 -3.1498  0.1241 -1.2634
 3185TIP3    H231115   2.498   1.510   1.243 -0.6226 -0.5487 -1.8351
 3186TIP3   OH231116   3.954   0.921   1.326  0.0204 -0.6008  0.4400
 3186TIP3    H131117   3.899   0.875   1.390 -0.3624 -0.3245  0.3127
 3186TIP3    H231118   3.992   0.851   1.272 -2.7527 -0.7398 -1.5691
 3187TIP3   OH231119   6.725   3.464   7.186 -0.2665  0.0090 -0.1576
 3187TIP3    H131120   6.672   3.433   7.113 -0.7585 -0.9977  0.5909
 3187TIP3    H231121   6.671   3.531   7.229  0.3254  1.1272 -1.1188
 3188TIP3   OH231122   0.349   1.738   2.240  0.2172 -0.0376 -0.4744
 3188TIP3    H131123   0.376   1.828   2.259 -0.6233  0.4497 -1.5165
 3188TIP3    H231124   0.258   1.734   2.269 -0.5756  0.2398 -2.7185
 3189TIP3   OH231125   3.947   3.314   8.119 -0.3016 -0.7739  0.0927
 3189TIP3    H131126   4.033   3.318   8.079 -0.2180  0.7004  0.3606
 3189TIP3    H231127   3.886   3.308   8.046 -0.0628  0.2346 -0.2010
 3190TIP3   OH231128   0.395   5.404   7.936  0.0729  0.6963  0.4238
 3190TIP3    H131129   0.383   5.344   7.862  1.6502  1.7463 -0.7311
 3190TIP3    H231130   0.448   5.355   7.998 -0.8617 -0.0190  0.6869
 3191TIP3   OH231131   0.268   2.180   1.508 -0.4192  0.3048  0.5648
 3191TIP3    H131132   0.250   2.274   1.504 -1.3908  0.0929 -0.6267
 3191TIP3    H231133   0.209   2.147   1.575 -1.8786  0.1974 -0.7204
 3192TIP3   OH231134   6.597   1.174   1.322 -0.5683  0.3741 -0.5137
 3192TIP3    H131135   6.554   1.116   1.386 -0.5145 -0.4539 -1.2099
 3192TIP3    H231136   6.524   1.219   1.278 -0.6167  0.7188 -0.0927
 3193TIP3   OH231137   5.260   4.504   6.986 -0.2182 -0.0103  0.2292
 3193TIP3    H131138   5.204   4.563   6.936 -0.3942 -0.8576 -0.5937
 3193TIP3    H231139   5.201   4.437   7.021  0.1590 -0.4523  0.0367
 3194TIP3   OH231140   5.050   3.119   2.075  0.0956 -1.2001 -0.7373
 3194TIP3    H131141   5.139   3.114   2.039  1.0031  2.0846  0.6844
 3194TIP3    H231142   5.040   3.211   2.101 -3.8522 -1.3840 -1.0622
 3195TIP3   OH231143   0.184   2.256   7.065  0.6132 -0.2728  0.3223
 3195TIP3    H131144   0.175   2.350   7.050 -1.5234 -0.5476 -0.3239
 3195TIP3    H231145   0.143   2.214   6.989  1.1198 -1.7384  0.8097
 3196TIP3   OH231146   1.280   0.486   6.649 -0.0138  0.1892  0.2772
 3196TIP3    H131147   1.359   0.540   6.648 -0.3852  0.7408 -0.8113
 3196TIP3    H231148   1.287   0.433   6.569 -1.4540  1.3359 -0.6567
 3197TIP3   OH231149   2.709   0.631   1.228 -0.2975  0.0137  0.0473
 3197TIP3    H131150   2.786   0.687   1.223 -0.2191 -0.0467  0.5181
 3197TIP3    H231151   2.697   0.599   1.139 -0.5785  1.0821 -0.3014
 3198TIP3   OH231152   0.575   4.883   7.047  0.3472 -0.0437 -0.4912
 3198TIP3    H131153   0.667   4.911   7.048  1.0330 -2.0385  1.6653
 3198TIP3    H231154   0.526   4.963   7.027  2.5247  1.1091 -1.5655
 3199TIP3   OH231155   4.219   6.402   0.690 -0.4241  0.4305  0.1291
 3199TIP3    H131156   4.256   6.319   0.660  0.8065  0.6489  0.9340
 3199TIP3    H231157   4.284   6.468   0.662 -1.0616  1.0473  0.0715
 3200TIP3   OH231158   5.543   3.064   7.860 -0.3568  0.1339  0.2864
 3200TIP3    H131159   5.463   3.028   7.822 -0.0250 -1.6780  1.1992
 3200TIP3    H231160   5.512   3.124   7.928 -0.9908 -1.0782  1.1164
 3201TIP3   OH231161   2.183   5.758   7.729  0.1778  0.0659  0.4945
 3201TIP3    H131162   2.226   5.729   7.648  0.7253  0.1357  0.7528
 3201TIP3    H231163   2.212   5.695   7.795 -0.4173 -0.1003  0.5994
 3202TIP3   OH231164   4.313   3.912   8.370 -0.3953  0.1548 -0.3987
 3202TIP3    H131165   4.217   3.906   8.377 -0.3070 -0.7092  0.3105
 3202TIP3    H231166   4.328   3.963   8.291 -1.4468 -0.3193 -0.9275
 3203TIP3   OH231167   6.600   1.279   0.530 -0.6423  0.2009 -0.0579
 3203TIP3    H131168   6.651   1.199   0.514  0.0928  0.5319  0.5784
 3203TIP3    H231169   6.647   1.347   0.483  1.5099  1.1819  3.1878
 3204TIP3   OH231170   2.590   0.841   8.614  0.0247 -0.1207  0.3667
 3204TIP3    H131171   2.527   0.905   8.647  1.2419  0.6948  1.1914
 3204TIP3    H231172   2.557   0.817   8.528 -2.1013 -0.6830  1.2491
 3205TIP3   OH231173   4.740   0.585   8.144 -0.6793 -0.1272  0.3559
 3205TIP3    H131174   4.685   0.663   8.138 -0.8888 -0.3110 -0.1731
 3205TIP3    H231175   4.829   0.618   8.141 -0.7398  0.2106  1.6513
 3206TIP3   OH231176   3.941   5.157   0.577 -0.1457  0.1955  0.2929
 3206TIP3    H131177   4.013   5.176   0.638  0.3293 -0.8844  0.1008
 3206TIP3    H231178   3.862   5.180   0.624  0.3346  1.9066  0.3247
 3207TIP3   OH231179   0.060   3.611   0.520 -0.3521  0.0112 -0.3978
 3207TIP3    H131180   0.014   3.673   0.463  0.7079 -0.0704 -1.3586
 3207TIP3    H231181   0.152   3.637   0.515 -0.1115 -0.6173  0.5119
 3208TIP3   OH231182   1.669   6.483   0.839  0.6054 -0.4631 -0.1553
 3208TIP3    H131183   1.705   6.572   0.828 -1.3563  0.3285 -0.6065
 3208TIP3    H231184   1.674   6.445   0.752 -1.4170  0.3981 -0.6968
 3209TIP3   OH231185   1.116   2.097   0.455  0.1382 -0.2479 -0.0265
 3209TIP3    H131186   1.077   2.177   0.419 -0.5535 -1.0649 -1.1668
 3209TIP3    H231187   1.095   2.029   0.391 -0.7500 -1.6924  1.6863
 3210TIP3   OH231188   5.556   6.759   8.337 -0.2130 -0.2263  0.1109
 3210TIP3    H131189   5.515   6.846   8.337  1.1498  0.4468 -0.2394
 3210TIP3    H231190   5.496   6.704   8.285  0.1652  1.1679 -1.9402
 3211TIP3   OH231191   0.167   6.754   1.302 -0.0780 -0.2953 -0.3707
 3211TIP3    H131192   0.257   6.787   1.303  0.4117 -1.3500 -2.7976
 3211TIP3    H231193   0.113   6.831   1.320  1.2853  0.2555  1.6426
 3212TIP3   OH231194   0.349   1.497   1.152 -0.3830  0.1376  0.0556
 3212TIP3    H131195   0.415   1.432   1.178 -0.7356 -0.4378 -0.4658
 3212TIP3    H231196   0.328   1.543   1.234 -1.4584 -1.6208  0.8399
 3213TIP3   OH231197   6.792   4.283   7.237 -0.2638  0.2773 -0.1102
 3213TIP3    H131198   6.702   4.276   7.205 -0.1547 -0.9356 -0.2034
 3213TIP3    H231199   6.847   4.256   7.163  0.1350  0.2640  0.1824
 3214TIP3   OH231200   4.152   1.925   1.130 -0.6472  0.0437 -0.2587
 3214TIP3    H131201   4.064   1.890   1.144 -0.2262 -0.0478  2.6426
 3214TIP3    H231202   4.207   1.848   1.113 -0.3906 -0.4646  2.4405
 3215TIP3   OH231203   1.355   3.545   6.721 -0.5967  0.1253  0.7823
 3215TIP3    H131204   1.360   3.528   6.627  1.3991 -1.9661  1.1656
 3215TIP3    H231205   1.283   3.490   6.752 -1.6746  1.3051  0.4129
 3216TIP3   OH231206   5.248   0.848   0.673 -0.2753 -0.3064 -0.1385
 3216TIP3    H131207   5.286   0.878   0.590 -2.0086 -0.8387 -1.1700
 3216TIP3    H231208   5.321   0.850   0.734  1.7939 -2.6458 -2.3143
 3217TIP3   OH231209   5.102   2.090   1.621 -0.2503 -0.2593 -0.2967
 3217TIP3    H131210   5.135   2.179   1.639  2.6915 -1.1135 -0.9546
 3217TIP3    H231211   5.055   2.066   1.701  0.1370  1.3464  0.4619
 3218TIP3   OH231212   6.019   1.840   0.916 -0.0683 -0.2185 -0.1127
 3218TIP3    H131213   5.944   1.881   0.874 -0.0892 -2.1600 -2.1444
 3218TIP3    H231214   6.095   1.875   0.869  0.0855 -0.4452 -0.0357
 3219TIP3   OH231215   1.489   3.325   1.136  0.1843 -0.3621  0.0259
 3219TIP3    H131216   1.567   3.270   1.134  0.0517 -0.5407 -0.2303
 3219TIP3    H231217   1.483   3.355   1.227 -0.0100 -1.1478  0.2740
 3220TIP3   OH231218   3.967   2.894   0.631 -0.3624 -0.1509  0.0641
 3220TIP3    H131219   3.943   2.985   0.614  0.4056  0.3830  1.6984
 3220TIP3    H231220   3.953   2.850   0.547 -3.2017  0.9096 -0.1218
 3221TIP3   OH231221   5.012   0.047   0.855  0.4913 -0.0682  0.8889
 3221TIP3    H131222   5.039   0.033   0.946  0.7668 -1.0363  0.6696
 3221TIP3    H231223   5.044  -0.030   0.809 -0.3576  0.0267  0.1239
 3222TIP3   OH231224   3.595   2.480   1.817 -0.1799 -0.0255  0.7241
 3222TIP3    H131225   3.685   2.451   1.802 -0.3106  0.8660 -2.4600
 3222TIP3    H231226   3.591   2.567   1.778 -2.5144 -0.2187  0.4252
 3223TIP3   OH231227   4.477   0.753   1.600 -0.1315  0.4141  0.0010
 3223TIP3    H131228   4.452   0.845   1.604 -1.4921  0.0565  0.9119
 3223TIP3    H231229   4.537   0.741   1.673  0.7063  0.7489 -0.6290
 3224TIP3   OH231230   2.291   6.026   0.021  0.2916  0.3578 -0.2424
 3224TIP3    H131231   2.373   5.977   0.019 -0.1593 -0.5941  1.8205
 3224TIP3    H231232   2.240   5.990  -0.051  1.6097  0.8856 -1.4883
 3225TIP3   OH231233   5.644   3.121   1.610 -0.3910  0.6467  0.0803
 3225TIP3    H131234   5.712   3.184   1.636  0.6389 -0.4759  0.1771
 3225TIP3    H231235   5.643   3.056   1.680 -0.3215 -0.2986 -0.7760
 3226TIP3   OH231236   0.438   3.237   1.784 -0.2649  0.3761  0.1578
 3226TIP3    H131237   0.405   3.253   1.873 -0.0984 -0.2560  0.3385
 3226TIP3    H231238   0.411   3.315   1.735 -1.5913  0.1205  0.4226
 3227TIP3   OH231239   1.051   0.552   8.194  0.5258  0.0452  0.4254
 3227TIP3    H131240   1.105   0.521   8.121  0.2670  0.2224  0.1554
 3227TIP3    H231241   0.998   0.477   8.219 -0.0013  0.2232 -0.1365
 3228TIP3   OH231242   5.837   6.249   8.563 -0.0296 -0.5325 -0.0192
 3228TIP3    H131243   5.821   6.334   8.605  0.8864 -0.6401  0.5701
 3228TIP3    H231244   5.821   6.265   8.470 -0.7683  0.0453  0.1927
 3229TIP3   OH231245   2.680   5.461   1.381 -0.1310  0.1036 -0.1242
 3229TIP3    H131246   2.691   5.380   1.430 -0.9031  0.8701  1.3690
 3229TIP3    H231247   2.767   5.480   1.346  0.9281  0.4619  2.4724
 3230TIP3   OH231248   4.168   5.736   7.749  0.2076 -0.5619  0.5922
 3230TIP3    H131249   4.076   5.725   7.725  0.5685 -2.4401 -0.1005
 3230TIP3    H231250   4.174   5.826   7.781 -1.3365  0.4425 -1.7013
 3231TIP3   OH231251   6.261   5.714   8.242 -0.3100 -1.1322  0.0117
 3231TIP3    H131252   6.332   5.688   8.184  0.1209 -1.7882  0.8162
 3231TIP3    H231253   6.225   5.793   8.201  1.0555 -0.6243 -0.2767
 3232TIP3   OH231254   4.051   0.884   0.056  0.3950 -0.0265  0.2725
 3232TIP3    H131255   4.139   0.920   0.071  0.5149 -0.1714 -0.0774
 3232TIP3    H231256   4.054   0.797   0.097  0.3964 -0.0065  0.3148
 3233TIP3   OH231257   6.335   0.401   7.257 -0.6408  0.0271  0.1025
 3233TIP3    H131258   6.242   0.410   7.279 -1.0302 -1.2834 -0.9060
 3233TIP3    H231259   6.347   0.458   7.181 -0.8405 -0.4918 -0.3231
 3234TIP3   OH231260   5.353   1.974   0.965 -0.5453 -0.4326  0.2797
 3234TIP3    H131261   5.445   1.985   0.989 -0.0374 -0.1842 -1.6336
 3234TIP3    H231262   5.304   2.004   1.041  0.9491  0.7319  0.8096
 3235TIP3   OH231263   0.868   3.188   0.811 -0.0095 -0.4247 -0.4864
 3235TIP3    H131264   0.939   3.219   0.755  0.3957 -3.4679 -1.8190
 3235TIP3    H231265   0.891   3.220   0.899  2.2148 -0.0835 -1.1329
 3236TIP3   OH231266   3.561   5.064   1.157 -0.1268 -0.1469 -0.3072
 3236TIP3    H131267   3.506   5.141   1.144 -0.2452  0.1924  1.8374
 3236TIP3    H231268   3.645   5.087   1.117  0.1851  1.5731  1.2263
 3237TIP3   OH231269   4.602   0.720   7.666 -1.0551 -0.5604  0.5031
 3237TIP3    H131270   4.628   0.629   7.676 -0.6728 -0.6681 -1.1505
 3237TIP3    H231271   4.592   0.732   7.572  1.3644  1.7585  0.4183
 3238TIP3   OH231272   1.607   1.711   8.445  0.4067  0.2514  1.1952
 3238TIP3    H131273   1.641   1.754   8.524 -0.2280 -0.0009  1.6117
 3238TIP3    H231274   1.602   1.618   8.468  0.3566  0.1568  0.8094
 3239TIP3   OH231275   5.070   5.209   7.444  0.0091  0.0990 -0.5270
 3239TIP3    H131276   5.123   5.183   7.368  1.0850 -0.5347  0.4176
 3239TIP3    H231277   5.022   5.129   7.469  0.5179 -0.0046  0.1386
 3240TIP3   OH231278   2.801   5.199   8.453 -0.1894  0.6711  0.9867
 3240TIP3    H131279   2.811   5.176   8.546 -0.0230 -0.4840  0.7071
 3240TIP3    H231280   2.878   5.160   8.411 -0.0973  1.4693  0.4089
 3241TIP3   OH231281   4.299   1.955   8.552  0.6211  0.4894  0.5822
 3241TIP3    H131282   4.286   1.860   8.543  1.8475  0.4350 -1.2540
 3241TIP3    H231283   4.214   1.992   8.528  0.6902 -0.1089 -0.6803
 3242TIP3   OH231284   0.315   0.896   0.041 -0.1538  0.7381  0.4059
 3242TIP3    H131285   0.270   0.953  -0.021  1.3053  0.7896 -0.6542
 3242TIP3    H231286   0.389   0.948   0.072  0.5423 -0.1569  0.2899
 3243TIP3   OH231287   5.499   3.770   2.579 -0.4283  0.2695 -0.2154
 3243TIP3    H131288   5.482   3.855   2.619  0.0742  0.5301 -0.5462
 3243TIP3    H231289   5.453   3.773   2.495 -0.5939  0.1283 -0.1313
 3244TIP3   OH231290   4.749   3.506   7.779 -0.0777 -0.1243 -0.0690
 3244TIP3    H131291   4.786   3.575   7.833  2.3849 -0.2120 -1.4888
 3244TIP3    H231292   4.747   3.543   7.690 -3.5001 -0.1659 -0.1170
 3245TIP3   OH231293   2.845   0.054   8.383 -0.7490  0.2257 -0.0110
 3245TIP3    H131294   2.849   0.117   8.312  0.5849  0.8765  0.6092
 3245TIP3    H231295   2.933   0.018   8.389 -0.3555  1.3903  2.3367
 3246TIP3   OH231296   6.878   5.293   8.091 -0.0203 -0.3357 -0.3180
 3246TIP3    H131297   6.884   5.330   8.179 -0.6746  0.7798 -0.7175
 3246TIP3    H231298   6.800   5.237   8.093 -1.4003  1.4723 -0.7685
 3247TIP3   OH231299   2.851   6.638   0.945  0.2247  0.4280  0.7258
 3247TIP3    H131300   2.890   6.699   0.883 -1.1774  1.3564  0.7064
 3247TIP3    H231301   2.863   6.678   1.031  0.9555 -0.1954  0.9249
 3248TIP3   OH231302   2.819   4.157   0.465  0.0341 -0.5232 -0.2271
 3248TIP3    H131303   2.736   4.110   0.475  0.2403 -0.4181  2.6459
 3248TIP3    H231304   2.855   4.163   0.554  2.2139  1.1123 -1.1199
 3249TIP3   OH231305   0.206   3.848   2.310 -0.1317 -0.2521  0.3454
 3249TIP3    H131306   0.158   3.931   2.312  0.7937  0.4190 -2.0534
 3249TIP3    H231307   0.282   3.863   2.366 -0.7317 -0.0096  1.1093
 3250TIP3   OH231308   4.504   0.670   7.092 -0.4714  0.3596  0.2367
 3250TIP3    H131309   4.533   0.582   7.072  1.7391  1.1451 -0.2719
 3250TIP3    H231310   4.452   0.697   7.016  0.1798  0.0532 -0.3247
 3251TIP3   OH231311   3.547   0.132   6.740  0.1211  0.0322  0.6855
 3251TIP3    H131312   3.640   0.147   6.755 -0.2131  0.9746  2.0282
 3251TIP3    H231313   3.535   0.038   6.751  0.6458  0.1272  2.1707
 3252TIP3   OH231314   3.893   1.361   5.979 -0.0172  0.2183 -0.3504
 3252TIP3    H131315   3.843   1.357   5.897 -0.5710 -0.2071  0.0064
 3252TIP3    H231316   3.870   1.446   6.017 -0.1259  0.2130 -0.4032
 3253TIP3   OH231317   0.402   4.923   1.173 -0.6767 -0.0354 -0.2916
 3253TIP3    H131318   0.404   5.017   1.153  1.5849  0.6827  2.5382
 3253TIP3    H231319   0.358   4.918   1.258 -1.8701 -1.7416 -0.9625
 3254TIP3   OH231320   4.321   5.428   7.209  0.1170 -0.5201 -0.2720
 3254TIP3    H131321   4.349   5.440   7.300 -1.1455 -0.2184  0.0880
 3254TIP3    H231322   4.279   5.342   7.208 -1.1346  0.0690 -0.2292
 3255TIP3   OH231323   0.089   3.061   7.350 -0.3477  0.5048  0.2932
 3255TIP3    H131324   0.060   2.981   7.307 -0.2672 -0.1150  1.3353
 3255TIP3    H231325   0.065   3.131   7.291 -0.1877 -0.3117 -0.7674
 3256TIP3   OH231326   3.262   0.423   7.937  0.3162 -0.3247  0.3443
 3256TIP3    H131327   3.197   0.439   7.869  1.1927 -2.3057 -1.0699
 3256TIP3    H231328   3.346   0.438   7.893  0.8782 -1.0667  1.1381
 3257TIP3   OH231329   5.448   0.426   7.880 -0.0027  0.5850 -0.6078
 3257TIP3    H131330   5.438   0.383   7.796 -0.0350 -2.5522  0.8551
 3257TIP3    H231331   5.527   0.479   7.871  0.8700 -0.8793 -2.1807
 3258TIP3   OH231332   1.510   5.175   0.522 -0.5487 -0.1310 -0.2260
 3258TIP3    H131333   1.482   5.109   0.457  0.4856 -0.9181  0.1060
 3258TIP3    H231334   1.597   5.202   0.493 -0.3131 -0.0699  0.5135
 3259TIP3   OH231335   1.068   3.136   0.053 -0.0454  0.4634 -0.3212
 3259TIP3    H131336   1.013   3.208   0.084  0.1495  0.8909 -0.9638
 3259TIP3    H231337   1.148   3.177   0.022  0.7406 -0.1753  0.8009
 3260TIP3   OH231338   1.532   3.966   0.897 -0.3322 -0.5347 -0.7018
 3260TIP3    H131339   1.463   3.934   0.839  0.9807  0.0171 -2.6723
 3260TIP3    H231340   1.523   4.061   0.897 -1.1711 -0.5600  1.1989
 3261TIP3   OH231341   5.544   3.003   6.889  0.4228 -0.7636 -0.0112
 3261TIP3    H131342   5.585   2.950   6.957 -0.2366 -0.1968  0.8510
 3261TIP3    H231343   5.457   3.023   6.924  0.9496  1.6289  0.1264
 3262TIP3   OH231344   6.022   1.918   7.656 -0.0107 -0.5083  0.6979
 3262TIP3    H131345   6.036   1.957   7.570 -1.8288 -0.7176  0.2664
 3262TIP3    H231346   5.988   1.830   7.637  0.7123 -1.0029  1.6413
 3263TIP3   OH231347   2.948   1.861   2.472  0.0374  0.1578  0.0589
 3263TIP3    H131348   3.011   1.912   2.421  0.1553 -0.2662 -0.2190
 3263TIP3    H231349   2.995   1.781   2.495 -0.7534 -0.6667 -1.0993
 3264TIP3   OH231350   3.520   4.055   8.638  0.4701  0.2104 -0.7693
 3264TIP3    H131351   3.498   3.968   8.672  0.9826  0.7055  0.9296
 3264TIP3    H231352   3.438   4.104   8.645  0.5798  0.3174 -0.2020
 3265TIP3   OH231353   0.407   6.160   0.135  0.3897  0.3053  0.1260
 3265TIP3    H131354   0.405   6.250   0.102  2.3658  0.3607  0.0298
 3265TIP3    H231355   0.413   6.170   0.230  1.4125  0.3009  0.0653
 3266TIP3   OH231356   5.124   6.367   8.172 -0.2578 -0.7058 -0.4812
 3266TIP3    H131357   5.122   6.457   8.206  1.9040 -0.7348 -0.1133
 3266TIP3    H231358   5.152   6.315   8.247  2.6405 -1.0577 -1.6746
 3267TIP3   OH231359   6.216   1.208   2.296  0.3665  0.3039 -0.0851
 3267TIP3    H131360   6.194   1.279   2.357 -0.6403 -0.3085  0.2900
 3267TIP3    H231361   6.222   1.131   2.351  0.8580 -0.0154 -0.5781
 3268TIP3   OH231362   4.446   6.815   7.044  0.3580 -0.2516  0.1377
 3268TIP3    H131363   4.400   6.780   6.968  0.8906  1.5756 -1.1064
 3268TIP3    H231364   4.531   6.771   7.043 -0.0555 -1.0740  0.3741
 3269TIP3   OH231365   6.164   0.158   2.480  0.3888 -0.1282  0.3190
 3269TIP3    H131366   6.255   0.148   2.509  0.1069  1.2435  1.8675
 3269TIP3    H231367   6.159   0.248   2.448 -0.0501 -0.7127 -1.3255
 3270TIP3   OH231368   1.506   4.896   1.496  0.0781 -0.0208  0.2196
 3270TIP3    H131369   1.533   4.986   1.512 -1.1108  0.1762  1.3048
 3270TIP3    H231370   1.575   4.859   1.440  2.2479  0.5962  2.3273
 3271TIP3   OH231371   6.167   2.562   0.390  0.1501 -0.6076 -0.3089
 3271TIP3    H131372   6.195   2.487   0.442  1.4525  0.7628  1.0719
 3271TIP3    H231373   6.240   2.580   0.332  0.4392  0.3956  0.3322
 3272TIP3   OH231374   0.523   0.216   8.121 -0.5549  0.1489  0.1394
 3272TIP3    H131375   0.468   0.197   8.044 -1.7514 -0.1942  1.0536
 3272TIP3    H231376   0.465   0.263   8.180  0.3264  0.3007  0.8909
 3273TIP3   OH231377   0.192   5.395   0.405 -0.3759  0.5608 -0.0999
 3273TIP3    H131378   0.117   5.392   0.464  0.9054 -1.3428  1.5757
 3273TIP3    H231379   0.267   5.375   0.460  0.9188 -1.3229 -2.3220
 3274TIP3   OH231380   2.945   1.261   1.524 -0.5960  0.1816  0.6576
 3274TIP3    H131381   2.909   1.329   1.466  4.2419  0.5317 -2.5442
 3274TIP3    H231382   2.875   1.196   1.531 -2.8515  1.9781 -2.4330
 3275TIP3   OH231383   6.096   6.008   8.205 -0.0851  0.2187 -0.8482
 3275TIP3    H131384   6.139   5.967   8.279 -0.3926  0.6591 -0.4173
 3275TIP3    H231385   6.037   6.073   8.244  1.8883  2.5713 -1.5648
 3276TIP3   OH231386   2.692   2.630   6.579 -0.4855  0.1314 -0.4601
 3276TIP3    H131387   2.689   2.652   6.672  0.6907 -0.3291 -0.2982
 3276TIP3    H231388   2.665   2.710   6.534  2.2169  1.4944  0.1571
 3277TIP3   OH231389   2.100   1.699   1.423  0.1151  0.6965 -0.3091
 3277TIP3    H131390   2.065   1.619   1.384  0.3687  0.1378  0.5665
 3277TIP3    H231391   2.069   1.696   1.514 -1.0674  2.3093 -0.6152
 3278TIP3   OH231392   6.346   6.177   0.444 -0.5467 -0.3688 -0.0663
 3278TIP3    H131393   6.273   6.183   0.506  1.5574 -0.3956  2.6405
 3278TIP3    H231394   6.393   6.260   0.455  1.4626 -1.5138  0.6088
 3279TIP3   OH231395   4.725   5.519   0.239 -0.3451  0.3941  0.5111
 3279TIP3    H131396   4.636   5.488   0.255  0.0485 -1.1561 -0.1416
 3279TIP3    H231397   4.739   5.505   0.145  0.5286  0.7869  0.5752
 3280TIP3   OH231398   3.649   1.571   7.137 -0.6638  0.4935  0.0678
 3280TIP3    H131399   3.566   1.571   7.090 -0.5825  0.1408 -0.0773
 3280TIP3    H231400   3.713   1.602   7.073 -0.5562  0.0316 -0.0534
 3281TIP3   OH231401   6.613   0.104   6.645 -0.2383  0.6903  0.1170
 3281TIP3    H131402   6.641   0.185   6.687  0.7818  0.0553  0.7154
 3281TIP3    H231403   6.567   0.056   6.713 -0.1954  0.4588 -0.0165
 3282TIP3   OH231404   0.965   2.537   1.553  0.7350  0.6045  0.0657
 3282TIP3    H131405   0.899   2.578   1.609 -1.2988 -0.2554 -1.5534
 3282TIP3    H231406   0.970   2.447   1.586 -2.3952 -0.6923 -2.5033
 3283TIP3   OH231407   2.181   1.589   0.714 -0.0205  0.0186 -0.3785
 3283TIP3    H131408   2.143   1.676   0.725  0.6630  0.1441  1.2209
 3283TIP3    H231409   2.253   1.586   0.777  0.9284 -1.1738 -1.4704
 3284TIP3   OH231410   0.012   1.148   7.577  0.5963 -0.1712  0.0726
 3284TIP3    H131411  -0.021   1.130   7.665 -0.0419  2.0920  0.3686
 3284TIP3    H231412  -0.035   1.086   7.521 -1.0899  0.1722  1.0165
 3285TIP3   OH231413   0.210   0.120   2.367 -0.1459  0.5191  0.0801
 3285TIP3    H131414   0.191   0.179   2.441 -0.4337  0.4545  0.0563
 3285TIP3    H231415   0.232   0.036   2.409 -3.9418 -0.6505  0.0601
 3286TIP3   OH231416   0.487   1.996   6.480  0.0577 -0.2874  0.6139
 3286TIP3    H131417   0.521   2.085   6.474  0.1717 -0.0614  3.3438
 3286TIP3    H231418   0.501   1.959   6.392  1.4873  1.8368 -0.1360
 3287TIP3   OH231419   2.329   5.707   7.495  0.3466 -0.1009 -0.3060
 3287TIP3    H131420   2.333   5.659   7.412  3.6486 -0.8793  0.1812
 3287TIP3    H231421   2.383   5.785   7.481 -1.7868  1.5773  0.1641
 3288TIP3   OH231422   3.750   5.400   8.015  0.2421 -0.2191 -0.5959
 3288TIP3    H131423   3.748   5.387   8.109  0.0030 -0.2964 -0.6108
 3288TIP3    H231424   3.800   5.326   7.981  0.0675 -0.3551 -0.5573
 3289TIP3   OH231425   2.910   2.782   8.010 -0.0940  0.0515 -0.2057
 3289TIP3    H131426   2.835   2.723   8.016  0.0281 -0.1488 -0.6187
 3289TIP3    H231427   2.887   2.844   7.940 -1.3373  2.1179  1.9058
 3290TIP3   OH231428   3.870   0.373   8.341 -0.5832 -0.3724 -0.2058
 3290TIP3    H131429   3.818   0.294   8.328 -0.1753 -0.4454 -1.5850
 3290TIP3    H231430   3.823   0.422   8.409 -0.2649 -2.2527  1.4275
 3291TIP3   OH231431   3.138   2.818   0.850  0.5093  0.2045 -0.4381
 3291TIP3    H131432   3.132   2.867   0.931  1.3957 -1.9022  1.0011
 3291TIP3    H231433   3.172   2.732   0.876  1.0781 -0.4757 -3.0713
 3292TIP3   OH231434   2.776   6.843   0.155 -0.2693 -0.2554  0.2236
 3292TIP3    H131435   2.696   6.794   0.172 -1.8320  2.0593 -0.0675
 3292TIP3    H231436   2.752   6.905   0.086  2.5662 -1.3443 -1.9292
 3293TIP3   OH231437   5.689   0.756   7.607  0.5454 -0.0606 -0.3144
 3293TIP3    H131438   5.607   0.792   7.574  1.4116  0.1241 -2.4543
 3293TIP3    H231439   5.747   0.832   7.614  0.5168 -0.1702  1.2933
 3294TIP3   OH231440   0.831   6.155   2.208  0.0021  0.2071  0.6376
 3294TIP3    H131441   0.901   6.152   2.273 -0.2230  0.5465  0.9014
 3294TIP3    H231442   0.763   6.209   2.248 -1.1364 -1.4862  1.0926
 3295TIP3   OH231443   6.212   4.466   7.900 -0.6262 -0.0833 -0.3957
 3295TIP3    H131444   6.159   4.530   7.854 -1.7249 -0.3921  0.3986
 3295TIP3    H231445   6.301   4.503   7.899 -1.1508  1.2455 -0.3284
 3296TIP3   OH231446   3.120   2.340   0.987  0.1875 -0.2350 -0.4661
 3296TIP3    H131447   3.158   2.416   0.942  1.2799 -0.7026 -0.3680
 3296TIP3    H231448   3.104   2.276   0.917 -0.3866 -0.0549 -0.5009
 3297TIP3   OH231449   2.626   0.538   8.200  0.6960 -0.1502  0.0107
 3297TIP3    H131450   2.613   0.464   8.260 -0.7940 -0.0804 -0.1996
 3297TIP3    H231451   2.720   0.537   8.181  0.8307 -1.4912  0.6570
 3298TIP3   OH231452   4.761   2.892   6.280 -0.5852 -0.1671 -0.2877
 3298TIP3    H131453   4.691   2.847   6.232 -0.7547 -2.3333  1.8260
 3298TIP3    H231454   4.718   2.966   6.322 -1.3649 -0.7594 -0.0158
 3299TIP3   OH231455   1.806   5.993   1.806  0.4474 -0.6024  0.3327
 3299TIP3    H131456   1.883   6.019   1.857 -0.8695  0.8709  1.6980
 3299TIP3    H231457   1.835   5.918   1.754  2.3151 -1.2068  2.1225
 3300TIP3   OH231458   5.330   4.018   1.064  0.8039  0.5391  0.0236
 3300TIP3    H131459   5.290   4.105   1.060  1.9258  1.0594 -0.1714
 3300TIP3    H231460   5.421   4.034   1.086  1.0725 -0.5828 -0.1873
 3301TIP3   OH231461   0.500   6.819   1.023  0.0023  0.5222  0.5397
 3301TIP3    H131462   0.515   6.725   1.012  0.9317  0.6497  0.6349
 3301TIP3    H231463   0.587   6.855   1.045 -0.1466  1.5394 -0.4557
 3302TIP3   OH231464   6.741   5.499   7.945 -0.1610  0.1481  0.0451
 3302TIP3    H131465   6.706   5.543   7.867  0.4143  0.7420  0.1112
 3302TIP3    H231466   6.722   5.407   7.930 -0.1967  0.2665 -0.7340
 3303TIP3   OH231467   2.570   1.451   7.923 -0.0293 -0.0032 -0.1301
 3303TIP3    H131468   2.659   1.481   7.902 -0.5577  0.7225 -1.4277
 3303TIP3    H231469   2.522   1.457   7.841 -1.1580 -0.8972  0.4330
 3304TIP3   OH231470   1.774   6.703   1.205 -0.1785 -0.7256  0.4733
 3304TIP3    H131471   1.687   6.694   1.166 -0.2202  0.4749  0.2268
 3304TIP3    H231472   1.785   6.625   1.258 -0.3442 -2.1499 -1.4880
 3305TIP3   OH231473   2.948   0.688   1.410  0.2204 -0.1958  0.4823
 3305TIP3    H131474   3.018   0.631   1.376  0.5112 -0.3977  1.4053
 3305TIP3    H231475   2.869   0.658   1.365  0.5193 -0.7628  0.3271
 3306TIP3   OH231476   0.029   6.698   2.203 -0.3321  0.4801  0.2436
 3306TIP3    H131477   0.032   6.756   2.127 -2.0155 -0.0984 -0.2980
 3306TIP3    H231478  -0.063   6.672   2.210  0.0726 -0.7059  1.5520
 3307TIP3   OH231479   5.645   6.345   1.199 -0.0130  0.3722 -0.1678
 3307TIP3    H131480   5.662   6.427   1.244 -0.4716 -0.1167  0.9392
 3307TIP3    H231481   5.732   6.313   1.173  0.1385  1.3692 -0.9377
 3308TIP3   OH231482   2.966   6.176   0.616  0.1563 -0.0175  0.0681
 3308TIP3    H131483   2.882   6.211   0.644  0.1888 -1.0588  1.6036
 3308TIP3    H231484   2.951   6.082   0.608  1.2684 -0.2917  0.8549
 3309TIP3   OH231485   2.604   0.818   1.558 -0.2741 -0.1243  0.0371
 3309TIP3    H131486   2.610   0.731   1.598  1.2195 -0.3121 -0.5367
 3309TIP3    H231487   2.584   0.801   1.466  1.1260  0.0749 -0.3147
 3310TIP3   OH231488   4.596   1.697   1.592 -0.4511 -0.2623 -0.7471
 3310TIP3    H131489   4.506   1.666   1.598 -0.6361  0.2226 -1.0007
 3310TIP3    H231490   4.595   1.762   1.522 -0.3325  1.2070  0.5626
 3311TIP3   OH231491   0.981   2.896   1.609  0.3825  0.0699 -0.6035
 3311TIP3    H131492   0.937   2.956   1.670  0.0126  0.1513 -0.9409
 3311TIP3    H231493   0.909   2.857   1.559  0.7324  0.6924 -1.6159
 3312TIP3   OH231494   2.586   6.231   7.051 -0.2804  0.1804  0.3008
 3312TIP3    H131495   2.556   6.281   6.975  1.2497  2.4464  1.0552
 3312TIP3    H231496   2.680   6.246   7.054 -0.2518 -0.0775  2.4561
 3313TIP3   OH231497   3.058   5.768   2.359 -0.7011  0.1845  0.1700
 3313TIP3    H131498   3.057   5.681   2.400 -2.1496 -0.4307 -1.0856
 3313TIP3    H231499   3.006   5.823   2.418 -0.2762  0.0649  0.6624
 3314TIP3   OH231500   0.050   3.890   8.467  0.1189 -0.3717 -0.5448
 3314TIP3    H131501  -0.012   3.837   8.417  0.1894 -0.6020 -0.3913
 3314TIP3    H231502   0.111   3.826   8.505  0.0898 -0.1996 -0.1994
 3315TIP3   OH231503   5.406   0.991   7.383 -0.0744 -0.0556 -0.3386
 3315TIP3    H131504   5.380   0.972   7.293  0.6238  2.0545 -1.0567
 3315TIP3    H231505   5.418   0.905   7.424 -0.3703 -1.0533 -2.2506
 3316TIP3   OH231506   3.335   0.613   8.290 -0.0865 -0.6648  0.0141
 3316TIP3    H131507   3.393   0.549   8.249  0.5857  0.1596 -0.3448
 3316TIP3    H231508   3.385   0.694   8.290 -1.1314 -0.0065 -0.0257
 3317TIP3   OH231509   5.172   1.445   7.822  0.2386  0.3585  0.1251
 3317TIP3    H131510   5.110   1.469   7.891 -0.2044 -0.2487 -0.0492
 3317TIP3    H231511   5.129   1.471   7.740  0.9736  1.5221  0.0935
 3318TIP3   OH231512   6.243   0.110   8.364 -0.0806  0.3270 -0.3790
 3318TIP3    H131513   6.318   0.145   8.317 -2.6849  1.1429 -4.4029
 3318TIP3    H231514   6.241   0.158   8.447  2.9512  1.2110 -0.7204
 3319TIP3   OH231515   1.542   3.510   8.612 -0.4290 -0.2147  0.5204
 3319TIP3    H131516   1.561   3.426   8.571  0.2638 -1.0797  2.4892
 3319TIP3    H231517   1.469   3.546   8.561  0.3064 -1.2417 -1.3380
 3320TIP3   OH231518   1.041   4.115   2.449 -0.0342 -0.0358  0.1630
 3320TIP3    H131519   0.956   4.085   2.417 -0.1968 -0.4649  0.9730
 3320TIP3    H231520   1.101   4.044   2.428  0.2754  0.5396 -1.0013
 3321TIP3   OH231521   1.326   3.626   8.397  0.2366  0.4329 -0.2399
 3321TIP3    H131522   1.285   3.591   8.317  1.0704 -0.5793 -0.2461
 3321TIP3    H231523   1.392   3.687   8.364 -0.9660  1.7922 -0.2391
 3322TIP3   OH231524   3.045   5.649   8.509  0.1912  0.2588  0.1258
 3322TIP3    H131525   3.062   5.557   8.486  0.9485  0.5340 -0.4449
 3322TIP3    H231526   3.008   5.687   8.429  2.5494  1.1424 -0.6275
 3323TIP3   OH231527   5.941   5.006   0.464 -0.9103  0.4390  0.6790
 3323TIP3    H131528   5.950   5.092   0.505 -0.3709  1.1527 -0.8737
 3323TIP3    H231529   5.919   4.948   0.537  1.5218  1.3282  2.2650
 3324TIP3   OH231530   6.543   0.750   0.628  0.4710 -0.3535  0.3372
 3324TIP3    H131531   6.635   0.724   0.634  1.2061  1.9714  0.1561
 3324TIP3    H231532   6.532   0.779   0.538 -1.1961 -2.8864 -0.4038
 3325TIP3   OH231533   6.008   3.822   7.063  0.4445 -0.5499 -0.0247
 3325TIP3    H131534   6.085   3.876   7.049  1.1585 -1.3571  0.6604
 3325TIP3    H231535   5.951   3.842   6.989  1.0377  0.5183 -0.2110
 3326TIP3   OH231536   2.374   0.678   7.583  0.5783  0.0197  0.5366
 3326TIP3    H131537   2.458   0.723   7.582  1.0393 -0.6871  2.5613
 3326TIP3    H231538   2.350   0.674   7.675 -1.1744 -0.7380  0.0913
 3327TIP3   OH231539   0.046   0.454   7.570  0.1995  0.3131 -0.0918
 3327TIP3    H131540  -0.024   0.391   7.554  1.1092 -0.7535  0.0184
 3327TIP3    H231541   0.039   0.474   7.664 -1.4555  2.0885 -0.5381
 3328TIP3   OH231542   4.158   3.980   1.661 -0.0999  0.8819 -0.5118
 3328TIP3    H131543   4.202   3.916   1.717  0.0929  0.0793 -1.5452
 3328TIP3    H231544   4.228   4.038   1.631 -0.0420  0.7202 -0.6916
 3329TIP3   OH231545   2.691   1.537   6.894  0.4017 -0.1383 -0.0010
 3329TIP3    H131546   2.681   1.583   6.810  1.7033 -1.2498 -0.8199
 3329TIP3    H231547   2.655   1.449   6.878  2.3862 -0.9913 -0.0347
 3330TIP3   OH231548   3.965   6.385   7.323  0.0016  0.5671 -0.1332
 3330TIP3    H131549   4.032   6.454   7.323  0.5018  0.1029  0.8427
 3330TIP3    H231550   3.885   6.430   7.351  0.0997  0.9453 -0.4411
 3331TIP3   OH231551   1.532   6.565   0.178 -0.1797 -0.0252 -0.0828
 3331TIP3    H131552   1.525   6.588   0.271 -0.5307  0.8957 -0.3254
 3331TIP3    H231553   1.443   6.572   0.145 -0.0119 -0.0858 -0.5515
 3332TIP3   OH231554   3.487   5.301   1.786  0.0307 -0.1445  0.0548
 3332TIP3    H131555   3.547   5.362   1.742 -0.9555 -0.2396 -1.5036
 3332TIP3    H231556   3.534   5.218   1.786  1.3227  0.5211  2.0556
 3333TIP3   OH231557   0.689   6.380   2.300 -0.0263 -0.3051 -0.0888
 3333TIP3    H131558   0.641   6.321   2.241  0.2276 -1.0942  0.4777
 3333TIP3    H231559   0.644   6.372   2.384  0.3474 -0.1004  0.1316
 3334TIP3   OH231560   5.943   1.862   7.136 -0.0166 -1.3597 -0.4823
 3334TIP3    H131561   5.944   1.863   7.040  0.3155  0.7660 -0.5140
 3334TIP3    H231562   6.011   1.798   7.160  1.9309  0.1158 -1.7286
 3335TIP3   OH231563   4.823   2.360   7.104 -0.1904  0.0360  0.6326
 3335TIP3    H131564   4.834   2.383   7.012  0.5363  1.4128  1.0281
 3335TIP3    H231565   4.796   2.268   7.104  0.5102 -0.1861 -0.9093
 3336TIP3   OH231566   4.332   4.708   8.665 -0.0956 -0.2976 -0.6663
 3336TIP3    H131567   4.246   4.681   8.698  0.5291 -0.8097  0.6194
 3336TIP3    H231568   4.355   4.784   8.718 -0.3322  0.7013 -1.9423
 3337TIP3   OH231569   0.873   4.745   6.887  0.5159  0.4296 -0.4240
 3337TIP3    H131570   0.889   4.827   6.839 -0.5665  0.6400 -0.4487
 3337TIP3    H231571   0.780   4.729   6.875  0.0584  0.8133  2.1224
 3338TIP3   OH231572   5.693   4.041   2.343 -0.4510  0.2222  0.6084
 3338TIP3    H131573   5.715   4.134   2.354  1.1068 -0.0225 -0.0367
 3338TIP3    H231574   5.598   4.039   2.341 -0.6191  2.3601 -3.1428
 3339TIP3   OH231575   2.416   4.550   8.488  0.4399  0.3484 -0.4465
 3339TIP3    H131576   2.323   4.536   8.470  0.8215 -1.7012 -1.0576
 3339TIP3    H231577   2.429   4.644   8.474 -1.4866  0.6482 -0.5051
 3340TIP3   OH231578   4.452   3.768   8.160  0.2406  0.0252 -0.3899
 3340TIP3    H131579   4.417   3.805   8.241 -1.5922 -1.5256 -0.3951
 3340TIP3    H231580   4.497   3.841   8.118 -1.7079  1.7975  0.4069
 3341TIP3   OH231581   4.188   4.378   8.230 -0.3556  0.2708  0.1465
 3341TIP3    H131582   4.160   4.316   8.297 -0.2343  0.3306  0.2527
 3341TIP3    H231583   4.165   4.464   8.266  0.8289  0.3871  0.6607
 3342TIP3   OH231584   1.216   2.835   0.054 -0.2726 -0.4012 -0.7335
 3342TIP3    H131585   1.149   2.876  -0.000  1.2318  1.1260 -1.5045
 3342TIP3    H231586   1.267   2.781  -0.006  0.3709 -0.0335 -0.5283
 3343TIP3   OH231587   2.793   2.556   7.724 -0.2798  0.7210 -0.5633
 3343TIP3    H131588   2.818   2.467   7.748  0.1355  0.8141 -0.6413
 3343TIP3    H231589   2.810   2.561   7.630  2.2848  1.7152 -0.1118
 3344TIP3   OH231590   5.802   4.380   7.863  0.5404  0.3806 -0.1821
 3344TIP3    H131591   5.856   4.306   7.892 -0.8420 -0.9212 -0.7879
 3344TIP3    H231592   5.805   4.442   7.936  1.1200 -0.6180  0.6768
 3345TIP3   OH231593   2.764   2.704   6.298 -0.3521 -0.3518  0.0583
 3345TIP3    H131594   2.850   2.677   6.268 -1.4884 -4.3431 -0.1743
 3345TIP3    H231595   2.781   2.760   6.374  2.3716  0.8536 -1.3251
 3346TIP3   OH231596   1.942   3.118   1.368  0.3208  0.2124 -0.0769
 3346TIP3    H131597   2.006   3.097   1.299  1.1550 -1.1316  1.0434
 3346TIP3    H231598   1.989   3.177   1.427  0.9466 -1.5143  1.2580
 3347TIP3   OH231599   4.518   3.182   8.115  0.0400 -0.6006 -0.0969
 3347TIP3    H131600   4.540   3.257   8.060  0.9749 -0.6303  0.2206
 3347TIP3    H231601   4.588   3.118   8.098 -0.7652 -1.4232 -0.3949
 3348TIP3   OH231602   2.612   2.735   7.516  0.1757 -0.4214  0.0558
 3348TIP3    H131603   2.648   2.698   7.597  1.5738  0.9347  0.0937
 3348TIP3    H231604   2.527   2.770   7.542  0.3931 -0.4475  0.8324
 3349TIP3   OH231605   6.136   1.546   7.450  0.4312  0.1907 -0.2011
 3349TIP3    H131606   6.231   1.539   7.461  0.5243 -0.5814 -1.3533
 3349TIP3    H231607   6.102   1.544   7.540  1.4600 -0.1326  0.2033
 3350TIP3   OH231608   1.682   4.060   8.076 -0.0272 -0.1800  0.1562
 3350TIP3    H131609   1.601   4.080   8.123  0.6959  0.0126  1.3460
 3350TIP3    H231610   1.654   4.044   7.986 -1.2892  0.7104  0.3717
 3351TIP3   OH231611   2.713   1.469   1.778 -0.5106  0.1003  0.6287
 3351TIP3    H131612   2.687   1.453   1.869  2.1671 -0.2802  1.4002
 3351TIP3    H231613   2.633   1.500   1.735 -2.4516 -1.9937  2.4984
 3352TIP3   OH231614   1.760   3.584   1.614  0.3518 -0.5029 -0.3652
 3352TIP3    H131615   1.843   3.588   1.661  1.8904  0.0908 -2.8854
 3352TIP3    H231616   1.724   3.673   1.622 -0.9202 -1.1512  2.0217
 3353TIP3   OH231617   3.718   3.366   7.954  0.2383 -0.5218  0.4438
 3353TIP3    H131618   3.746   3.446   7.909 -0.0776 -0.6239  0.0544
 3353TIP3    H231619   3.639   3.339   7.907  1.2814 -2.0060 -0.5711
 3354TIP3   OH231620   6.791   1.970   1.749 -0.5403 -0.1342 -0.1407
 3354TIP3    H131621   6.709   2.018   1.743 -1.0409 -0.6394  1.9011
 3354TIP3    H231622   6.859   2.037   1.757 -0.8657  0.2591 -0.6625
 3355TIP3   OH231623   0.747   1.042   7.621 -0.5411  0.1184 -0.1688
 3355TIP3    H131624   0.684   0.978   7.588  1.3821 -2.7022  1.1467
 3355TIP3    H231625   0.818   1.041   7.556 -0.6732  1.2926 -0.3485
 3356TIP3   OH231626   3.384   5.371   0.850  0.0794 -0.1138 -0.0866
 3356TIP3    H131627   3.420   5.379   0.939 -1.5200  0.3076  0.5619
 3356TIP3    H231628   3.452   5.326   0.801  0.8739 -0.6717  1.4449
 3357TIP3   OH231629   4.001   6.023   7.866  0.4846  0.0083  0.2629
 3357TIP3    H131630   3.969   6.042   7.954  0.2299  1.5944 -0.1469
 3357TIP3    H231631   4.090   6.060   7.865  1.0222 -1.2467  0.2841
 3358TIP3   OH231632   1.638   2.102   0.265  0.2579  0.0161  0.0682
 3358TIP3    H131633   1.627   2.146   0.349 -1.9088 -0.4140  0.0878
 3358TIP3    H231634   1.583   2.024   0.272  0.3388 -0.2260 -1.6109
 3359TIP3   OH231635   1.354   0.124   1.539 -0.5629 -0.6371  0.4235
 3359TIP3    H131636   1.298   0.079   1.601  0.3583  0.1717  1.8954
 3359TIP3    H231637   1.429   0.154   1.591  0.0668  0.3898 -0.9988
 3360TIP3   OH231638   2.011   2.016   7.570  0.3701  0.2082  0.3078
 3360TIP3    H131639   1.930   2.067   7.569  0.4383  0.3400 -1.4511
 3360TIP3    H231640   2.075   2.073   7.611 -0.5670 -0.2027  2.4973
 3361TIP3   OH231641   1.309   1.262   1.360 -0.5423  0.3318 -0.0596
 3361TIP3    H131642   1.231   1.208   1.348 -0.0240  0.1265 -3.9230
 3361TIP3    H231643   1.277   1.352   1.357 -0.7530  0.2401 -0.8268
 3362TIP3   OH231644   2.475   0.823   0.998 -0.2287  0.4514  0.4326
 3362TIP3    H131645   2.496   0.729   0.990  1.1925  0.6205  1.6212
 3362TIP3    H231646   2.556   0.867   0.970 -1.0911  1.3591 -0.7020
 3363TIP3   OH231647   3.617   0.938   1.505  0.0458 -0.5087 -0.3056
 3363TIP3    H131648   3.618   1.020   1.455 -1.9624  0.4189  1.0400
 3363TIP3    H231649   3.709   0.916   1.518  0.6171  1.0065 -1.5087
 3364TIP3   OH231650   4.872   0.210   8.377 -0.1505 -0.2695 -0.7312
 3364TIP3    H131651   4.778   0.222   8.360 -0.7415 -2.6651  0.4425
 3364TIP3    H231652   4.892   0.271   8.448 -1.0507 -0.3894 -0.3644
 3365TIP3   OH231653   1.770   2.871   1.092 -0.0861 -0.6051 -0.1758
 3365TIP3    H131654   1.825   2.851   1.017  0.6983  0.6660  0.0222
 3365TIP3    H231655   1.828   2.863   1.168 -0.3786 -0.0448  0.1157
 3366TIP3   OH231656   0.376   4.825   8.272 -0.1036  0.6246  0.1360
 3366TIP3    H131657   0.423   4.758   8.221 -1.1496 -0.9453  1.1462
 3366TIP3    H231658   0.341   4.777   8.347 -1.6217  2.1627  0.4488
 3367TIP3   OH231659   1.896   0.003   1.421  0.1210  0.3712 -0.6776
 3367TIP3    H131660   1.867  -0.035   1.338  0.5037 -1.4163 -0.0385
 3367TIP3    H231661   1.984   0.035   1.404  0.1815  0.0537 -0.9573
 3368TIP3   OH231662   2.554   2.682   6.827 -0.4366 -0.2523 -0.3156
 3368TIP3    H131663   2.583   2.765   6.864 -0.4811 -0.7087  0.8023
 3368TIP3    H231664   2.464   2.698   6.799 -0.2321  0.2467 -0.6808
 3369TIP3   OH231665   4.104   5.231   1.293 -0.4150  0.5650 -0.8615
 3369TIP3    H131666   4.037   5.165   1.313  0.0355  0.4480  0.3575
 3369TIP3    H231667   4.083   5.304   1.351  0.2757  0.6793 -0.7464
 3370TIP3   OH231668   0.305   6.832   8.622 -0.0179  0.1460 -0.4874
 3370TIP3    H131669   0.344   6.796   8.542  2.2084  2.1640 -0.4238
 3370TIP3    H231670   0.295   6.925   8.604 -3.5100  0.0436  0.1427
 3371TIP3   OH231671   2.848   0.295   7.885 -0.0532  0.7053  0.4925
 3371TIP3    H131672   2.905   0.258   7.818  0.2367  0.4056  0.9030
 3371TIP3    H231673   2.859   0.390   7.876 -0.5097  0.6953 -0.3093
 3372TIP3   OH231674   3.162   0.613   7.700 -0.8733 -0.5376  0.2976
 3372TIP3    H131675   3.226   0.684   7.699  1.7666 -2.7423 -0.4843
 3372TIP3    H231676   3.085   0.648   7.655  1.1252  1.1657 -2.0596
 3373TIP3   OH231677   5.557   4.398   2.111  0.3834 -0.1351 -0.3565
 3373TIP3    H131678   5.530   4.479   2.154 -0.2604 -1.2891  1.5747
 3373TIP3    H231679   5.479   4.343   2.112  0.2400 -0.1575 -3.4035
 3374TIP3   OH231680   4.194   2.282   2.084 -0.3908 -0.1637  0.6143
 3374TIP3    H131681   4.105   2.315   2.095 -0.9933 -1.7277  0.6869
 3374TIP3    H231682   4.237   2.301   2.167 -0.7757  0.2364  0.7252
 3375TIP3   OH231683   3.532   5.703   0.842 -0.5673  0.0169 -0.3300
 3375TIP3    H131684   3.587   5.627   0.860 -1.0861 -0.5339 -1.0288
 3375TIP3    H231685   3.574   5.745   0.766 -0.0590  0.6673  0.2905
 3376TIP3   OH231686   4.517   1.521   8.253  0.2877  0.2980 -0.6429
 3376TIP3    H131687   4.427   1.515   8.286  1.5308 -0.9924  3.0763
 3376TIP3    H231688   4.541   1.612   8.266  0.0513  0.2745  0.0004
 3377TIP3   OH231689   3.827   4.325   0.341  0.1519  0.1900 -0.2759
 3377TIP3    H131690   3.813   4.233   0.321 -0.5180  0.6518 -2.1345
 3377TIP3    H231691   3.796   4.336   0.431  0.4254 -1.4086  0.0324
 3378TIP3   OH231692   5.623   0.965   0.659  0.0309 -0.4780  0.3826
 3378TIP3    H131693   5.553   0.921   0.612  0.0628 -2.7668  2.2681
 3378TIP3    H231694   5.581   1.040   0.701 -0.2921  0.7101 -1.8998
 3379TIP3   OH231695   0.146   5.973   7.855  0.4551  0.0284 -0.0302
 3379TIP3    H131696   0.122   5.882   7.834  0.3574  0.0377  0.0423
 3379TIP3    H231697   0.236   5.967   7.889  0.7356  0.0489 -0.7449
 3380TIP3   OH231698   1.917   1.149   0.580 -0.1554  0.3630  0.4925
 3380TIP3    H131699   1.966   1.178   0.657  0.8751  2.6088 -0.8993
 3380TIP3    H231700   1.850   1.089   0.614  1.9736 -0.8830  2.7573
 3381TIP3   OH231701   4.751   1.019   1.119  0.4002 -0.5021  0.0392
 3381TIP3    H131702   4.778   1.107   1.092  2.0163 -0.3681  1.9351
 3381TIP3    H231703   4.814   0.960   1.077 -0.6616 -0.8075 -1.2028
 3382TIP3   OH231704   1.756   0.724   6.529 -0.0946 -0.4305  0.1206
 3382TIP3    H131705   1.700   0.654   6.561 -1.8726  1.0564  0.4246
 3382TIP3    H231706   1.703   0.769   6.463  1.7151 -0.5058 -1.4786
 3383TIP3   OH231707   6.710   5.770   0.069 -0.1260  0.1998 -0.6997
 3383TIP3    H131708   6.624   5.809   0.084  0.5848  1.2676  0.8835
 3383TIP3    H231709   6.747   5.822  -0.002 -0.4166  0.3579 -0.7376
 3384TIP3   OH231710   1.202   6.198   7.870  0.3496  0.5717 -0.4429
 3384TIP3    H131711   1.136   6.128   7.869  1.2867 -0.3818  0.8827
 3384TIP3    H231712   1.194   6.237   7.957  0.1264  1.8787 -1.0238
 3385TIP3   OH231713   5.591   5.004   1.747 -0.1320 -0.7821  0.5349
 3385TIP3    H131714   5.500   4.973   1.740 -0.6623  0.7770  0.1287
 3385TIP3    H231715   5.587   5.072   1.814  0.5664 -0.1178 -0.0863
 3386TIP3   OH231716   4.823   4.067   6.839 -0.1287 -0.4300  0.7099
 3386TIP3    H131717   4.908   4.095   6.803 -1.1897 -0.2052 -1.8151
 3386TIP3    H231718   4.822   3.972   6.826 -0.2359 -0.4492  0.8543
 3387TIP3   OH231719   2.598   0.551   1.642  0.7776 -0.2418 -0.3846
 3387TIP3    H131720   2.581   0.506   1.725 -1.6612 -0.9687 -1.2006
 3387TIP3    H231721   2.664   0.497   1.598 -1.1328 -2.3629 -0.7664
 3388TIP3   OH231722   2.680   4.810   0.083  0.1421  0.0017 -0.3752
 3388TIP3    H131723   2.586   4.823   0.068 -0.0873  0.7045  1.4132
 3388TIP3    H231724   2.685   4.735   0.142  0.7860 -0.5982 -1.1658
 3389TIP3   OH231725   6.181   2.874   8.519 -0.1030 -0.0988  0.0476
 3389TIP3    H131726   6.265   2.917   8.503  0.0190  0.1132  1.1970
 3389TIP3    H231727   6.137   2.930   8.583 -1.0540 -0.3001 -0.4013
 3390TIP3   OH231728   6.293   0.688   1.491 -0.1985 -0.4094  0.2561
 3390TIP3    H131729   6.218   0.688   1.550 -1.0732 -0.5528 -0.8178
 3390TIP3    H231730   6.340   0.607   1.511 -0.4218 -0.3939  0.8323
 3391TIP3   OH231731   1.263   0.048   0.099 -0.4571 -0.4941  0.1212
 3391TIP3    H131732   1.222  -0.025   0.146 -0.6161 -0.1126  0.5811
 3391TIP3    H231733   1.198   0.074   0.034 -0.5692 -0.4930  0.2338
 3392TIP3   OH231734   0.641   1.321   2.417 -0.6461  0.0232 -0.0002
 3392TIP3    H131735   0.558   1.279   2.396  0.4480 -0.9201 -2.9239
 3392TIP3    H231736   0.705   1.275   2.363  2.0631 -0.1710  3.0712
 3393TIP3   OH231737   1.962   3.233   8.559 -0.5660 -0.2704  0.3151
 3393TIP3    H131738   2.056   3.245   8.570 -0.9382  1.1216  2.6392
 3393TIP3    H231739   1.940   3.162   8.619 -1.1624  0.3515  0.8548
 3394TIP3   OH231740   5.196   4.399   2.896  0.1731 -0.5972 -0.1184
 3394TIP3    H131741   5.152   4.328   2.943  0.9546 -1.2449 -0.3435
 3394TIP3    H231742   5.124   4.452   2.860 -0.4694  0.1731  2.1185
 3395TIP3   OH231743   0.898   0.233   1.660  0.2206 -0.5913 -0.1446
 3395TIP3    H131744   0.952   0.256   1.584 -0.3603 -1.0734 -0.7129
 3395TIP3    H231745   0.843   0.310   1.674 -0.2794 -0.8336 -0.7582
 3396TIP3   OH231746   2.781   0.615   0.527 -0.4050 -0.5794  0.2479
 3396TIP3    H131747   2.821   0.698   0.553 -2.0696  0.7112 -1.0839
 3396TIP3    H231748   2.727   0.590   0.602  0.6812 -0.9104  0.9567
 3397TIP3   OH231749   6.352   2.696   7.128  0.1054  0.3215 -0.5994
 3397TIP3    H131750   6.423   2.662   7.183 -0.3538 -1.0443 -0.8062
 3397TIP3    H231751   6.310   2.617   7.092 -0.5676  1.1433 -1.6777
 3398TIP3   OH231752   6.101   3.012   0.075  0.7433  0.0912  0.0692
 3398TIP3    H131753   6.129   3.100   0.100  0.9575 -0.7527  3.2053
 3398TIP3    H231754   6.129   2.956   0.148  0.3089 -2.5479 -1.6465
 3399TIP3   OH231755   5.078   2.515   8.044 -0.3309  0.3079 -0.1407
 3399TIP3    H131756   5.037   2.479   7.965  0.9034 -0.7484 -0.3490
 3399TIP3    H231757   5.028   2.594   8.064 -1.8865 -0.4535 -0.8579
 3400TIP3   OH231758   2.771   2.155   1.898  0.1232  0.4358 -0.2049
 3400TIP3    H131759   2.763   2.064   1.926 -0.3302  0.1987 -1.0558
 3400TIP3    H231760   2.830   2.195   1.961 -1.8773  0.2916  1.8896
 3401TIP3   OH231761   0.210   3.730   1.005 -0.1653 -0.2208 -0.5862
 3401TIP3    H131762   0.259   3.772   0.934 -0.1671  1.0469  0.1513
 3401TIP3    H231763   0.245   3.768   1.085 -1.6916 -0.0051  0.0117
 3402TIP3   OH231764   5.843   3.290   7.236 -0.4639 -0.0022 -0.1323
 3402TIP3    H131765   5.802   3.203   7.233 -0.2599 -0.1012 -0.0444
 3402TIP3    H231766   5.910   3.287   7.168 -1.2980  0.5148 -0.9858
 3403TIP3   OH231767   3.100   1.715   7.548 -0.0637  0.1200  0.2881
 3403TIP3    H131768   3.162   1.783   7.576  2.1577 -1.3890 -0.6694
 3403TIP3    H231769   3.061   1.684   7.630  0.0622  1.4293  0.8819
 3404TIP3   OH231770   1.642   2.769   1.484 -0.1926 -0.2710  0.5787
 3404TIP3    H131771   1.680   2.714   1.415  1.5781  1.4085  0.1173
 3404TIP3    H231772   1.560   2.726   1.507  0.1439 -1.9727 -1.1602
 3405TIP3   OH231773   0.158   4.537   0.010 -0.9451  0.2501 -0.1633
 3405TIP3    H131774   0.112   4.513  -0.070 -0.6401 -0.7363 -0.0597
 3405TIP3    H231775   0.198   4.455   0.040 -0.9446  0.6365  0.9248
 3406TIP3   OH231776   4.980   2.262   0.497  0.7696 -0.4359  0.0083
 3406TIP3    H131777   4.972   2.307   0.582  0.2014  1.5869 -1.0528
 3406TIP3    H231778   5.066   2.289   0.464 -0.1850  1.2024 -1.3075
 3407TIP3   OH231779   5.681   3.230   7.564 -0.1032 -0.1720 -0.3716
 3407TIP3    H131780   5.607   3.238   7.624 -1.0392  1.0376 -1.6401
 3407TIP3    H231781   5.653   3.165   7.499 -1.4544  2.5053 -2.6861
 3408TIP3   OH231782   0.641   6.357   0.624  0.5438  0.6339 -0.2075
 3408TIP3    H131783   0.648   6.273   0.669 -0.5847  1.8870  2.5061
 3408TIP3    H231784   0.549   6.382   0.634  0.7874  2.0477 -1.2494
 3409TIP3   OH231785   3.339   6.784   2.040 -0.0454 -0.4929  0.1473
 3409TIP3    H131786   3.388   6.702   2.031 -1.5993 -1.2726 -2.3029
 3409TIP3    H231787   3.277   6.767   2.111 -0.4589 -1.5722 -0.4314
 3410TIP3   OH231788   3.029   1.008   5.949 -0.1135  0.5569 -0.3835
 3410TIP3    H131789   2.941   0.975   5.931  0.2173 -0.5681 -0.0219
 3410TIP3    H231790   3.084   0.929   5.953  0.9660  1.2544 -0.8981
 3411TIP3   OH231791   3.050   6.513   7.175 -0.2747 -0.2295  0.6468
 3411TIP3    H131792   3.124   6.482   7.227  0.3316 -0.5040 -0.3564
 3411TIP3    H231793   2.973   6.472   7.215  0.1125  0.0205  1.6637
 3412TIP3   OH231794   4.909   1.592   7.047 -0.0712 -0.0275  0.0340
 3412TIP3    H131795   4.861   1.665   7.087  0.9718  0.3355  0.6425
 3412TIP3    H231796   4.940   1.627   6.963 -2.2990 -0.8036 -1.2155
 3413TIP3   OH231797   1.956   2.757   8.282 -0.1765 -0.4401 -0.4398
 3413TIP3    H131798   2.003   2.688   8.328 -1.1244 -1.1643 -0.5141
 3413TIP3    H231799   1.869   2.720   8.266 -0.5391  0.5821 -0.9437
 3414TIP3   OH231800   2.312   2.945   7.140 -0.0541 -0.3423 -0.0033
 3414TIP3    H131801   2.367   3.007   7.093 -2.0386  2.4006  1.0139
 3414TIP3    H231802   2.258   2.905   7.073 -1.2014  1.7519 -0.4104
 3415TIP3   OH231803   4.508   4.038   7.088 -0.1880  0.2725  0.7140
 3415TIP3    H131804   4.572   4.005   7.151  0.6731 -1.5930 -1.0102
 3415TIP3    H231805   4.458   3.960   7.062 -2.2526  1.4519  0.9781
 3416TIP3   OH231806   4.653   1.826   7.599 -0.7085 -0.5037  0.0987
 3416TIP3    H131807   4.636   1.919   7.614  1.9026  0.5297 -2.3794
 3416TIP3    H231808   4.657   1.787   7.687 -3.6148  1.2733  1.1396
 3417TIP3   OH231809   3.860   4.148   8.359  0.0352 -0.4509 -0.2229
 3417TIP3    H131810   3.793   4.204   8.399  0.4171  1.5844 -2.1938
 3417TIP3    H231811   3.822   4.060   8.362 -1.5055  0.2011  1.1687
 3418TIP3   OH231812   5.640   1.531   8.065 -0.1994  0.2113  0.1511
 3418TIP3    H131813   5.734   1.514   8.070 -0.2436  0.3109  1.3740
 3418TIP3    H231814   5.622   1.538   7.971  0.4448 -3.0778 -0.3378
 3419TIP3   OH231815   4.652   1.478   1.250 -0.2208 -0.1423 -0.6040
 3419TIP3    H131816   4.563   1.443   1.241 -0.5205  0.4619 -0.0917
 3419TIP3    H231817   4.687   1.432   1.326  0.4644 -1.4834 -1.6846
 3420TIP3   OH231818   0.751   4.760   7.766 -0.6097 -0.1689  0.7709
 3420TIP3    H131819   0.781   4.839   7.811  0.7959 -0.2175 -0.0215
 3420TIP3    H231820   0.769   4.689   7.828 -1.0332  0.0201  1.1189
 3421TIP3   OH231821   3.155   2.410   0.363 -0.0969 -0.3563  0.0079
 3421TIP3    H131822   3.183   2.375   0.448 -1.8850 -0.1753  0.7219
 3421TIP3    H231823   3.126   2.334   0.314  0.7997 -0.4438 -0.3959
 3422TIP3   OH231824   2.242   5.510   0.577  0.3055 -0.0842  0.0427
 3422TIP3    H131825   2.204   5.553   0.653  0.6277  0.5818 -0.1650
 3422TIP3    H231826   2.180   5.526   0.506  0.5136  0.1992 -0.0777
 3423TIP3   OH231827   0.662   6.876   7.797 -0.2633  0.8173  0.9945
 3423TIP3    H131828   0.734   6.889   7.859 -0.5878  1.8808  1.1793
 3423TIP3    H231829   0.662   6.956   7.744  0.6170 -0.4804 -1.0453
 3424TIP3   OH231830   0.997   2.904   1.264  0.0913  0.0816 -0.3936
 3424TIP3    H131831   0.957   2.900   1.177  0.2371  0.7817 -0.4993
 3424TIP3    H231832   0.981   2.994   1.293  0.1500 -0.1117  0.2533
 3425TIP3   OH231833   4.329   5.786   8.335 -0.2015  0.0845  0.3257
 3425TIP3    H131834   4.331   5.877   8.305 -1.1682 -0.7346 -2.5072
 3425TIP3    H231835   4.389   5.740   8.277 -1.5141 -1.4674  0.1318
 3426TIP3   OH231836   4.998   4.074   0.491 -0.0292 -0.1657  0.3729
 3426TIP3    H131837   5.031   4.093   0.403  0.0293  0.1658  0.4651
 3426TIP3    H231838   5.077   4.065   0.544  0.0391 -2.4459 -0.0036
 3427TIP3   OH231839   1.696   1.529   0.765 -0.6092 -0.4530  0.1016
 3427TIP3    H131840   1.772   1.492   0.721 -1.6745  0.4163 -2.6957
 3427TIP3    H231841   1.729   1.607   0.810  0.2242 -0.2830 -0.7841
 3428TIP3   OH231842   6.037   5.843   7.045 -0.2911 -0.4047 -0.4906
 3428TIP3    H131843   5.946   5.833   7.019 -0.0478 -0.3180 -1.4237
 3428TIP3    H231844   6.038   5.821   7.138 -1.5437  1.2282 -0.0516
 3429TIP3   OH231845   3.142   1.306   7.164  0.2066  0.0782  0.5905
 3429TIP3    H131846   3.191   1.278   7.240  0.7130  0.9133  0.5892
 3429TIP3    H231847   3.050   1.304   7.192  0.3525 -0.1037  1.0555
 3430TIP3   OH231848   1.636   0.816   1.334 -0.2320 -1.2129  0.2356
 3430TIP3    H131849   1.543   0.809   1.356 -0.0212 -1.2129  1.1787
 3430TIP3    H231850   1.674   0.864   1.407  0.3003 -0.0911 -0.7495
 3431TIP3   OH231851   4.403   5.441   7.480 -0.1870  0.8633 -0.1931
 3431TIP3    H131852   4.498   5.442   7.492 -0.0864 -0.0511 -0.8124
 3431TIP3    H231853   4.377   5.352   7.503 -0.8952  1.1097 -0.0376
 3432TIP3   OH231854   4.824   0.581   1.730 -0.1593  0.2152 -0.0630
 3432TIP3    H131855   4.748   0.578   1.788  1.1292 -1.0863  1.6512
 3432TIP3    H231856   4.847   0.489   1.716 -0.2434  0.4753 -2.5022
 3433TIP3   OH231857   0.511   6.291   8.088 -0.0558 -0.9716 -0.7222
 3433TIP3    H131858   0.490   6.311   7.997 -0.9899  0.1474 -0.2811
 3433TIP3    H231859   0.435   6.321   8.137  1.0994 -0.1097  0.5878
 3434TIP3   OH231860   0.128   2.305   8.390  0.2339  0.0615 -0.0746
 3434TIP3    H131861   0.100   2.243   8.458  0.7319  0.4260  0.4766
 3434TIP3    H231862   0.224   2.299   8.391  0.2350 -0.2133 -1.0236
 3435TIP3   OH231863   2.116   0.394   8.524 -0.4819 -0.7986  0.4264
 3435TIP3    H131864   2.188   0.457   8.531 -1.3346  0.3657 -0.8304
 3435TIP3    H231865   2.041   0.439   8.562 -1.6481 -0.0573 -2.4914
 3436TIP3   OH231866   2.070   4.730   0.357  0.5111 -0.2256 -0.0369
 3436TIP3    H131867   2.064   4.740   0.452  2.0837 -0.3307  0.1030
 3436TIP3    H231868   2.023   4.805   0.322  2.2695  1.3563  0.8649
 3437TIP3   OH231869   2.663   2.667   7.120  0.0023  0.2678 -0.1350
 3437TIP3    H131870   2.669   2.670   7.216 -2.7091  0.0112  0.1258
 3437TIP3    H231871   2.645   2.757   7.094 -1.7634 -0.0231 -0.0901
 3438TIP3   OH231872   0.848   6.588   1.497 -0.0366 -0.6285  0.0537
 3438TIP3    H131873   0.776   6.527   1.509 -2.1873  2.1917  3.4215
 3438TIP3    H231874   0.808   6.664   1.454  1.9543 -0.5142 -1.7543
 3439TIP3   OH231875   3.065   3.555   0.950 -0.1768 -0.1816  0.1762
 3439TIP3    H131876   2.998   3.621   0.965 -0.1170 -0.1890  0.4839
 3439TIP3    H231877   3.115   3.553   1.032  0.2686 -0.0926 -0.0952
 3440TIP3   OH231878   1.160   2.471   1.190  0.4167  1.0679  0.2350
 3440TIP3    H131879   1.156   2.544   1.252 -1.0136  1.4297 -0.2411
 3440TIP3    H231880   1.141   2.511   1.105  0.6537  0.3039 -0.1880
 3441TIP3   OH231881   6.369   3.556   1.119  0.6132 -0.2324  0.5148
 3441TIP3    H131882   6.432   3.626   1.134 -0.2510  0.5199  0.6731
 3441TIP3    H231883   6.418   3.491   1.069  1.4392  0.4528  0.4039
 3442TIP3   OH231884   2.099   6.804   7.436  0.2921 -0.2417 -0.3494
 3442TIP3    H131885   2.004   6.794   7.431  0.2067 -0.5318  1.3531
 3442TIP3    H231886   2.127   6.811   7.345 -1.4664  1.0248 -0.8337
 3443TIP3   OH231887   2.065   4.512   0.683  0.5828  0.6126  0.7652
 3443TIP3    H131888   2.017   4.593   0.699 -1.3804 -0.7809  2.4630
 3443TIP3    H231889   2.151   4.526   0.723  0.7284  2.2475 -0.0489
 3444TIP3   OH231890   4.146   3.326   7.953 -0.4966 -0.4220 -0.6987
 3444TIP3    H131891   4.201   3.259   7.914  1.3929  1.1557 -0.9199
 3444TIP3    H231892   4.206   3.398   7.972 -2.3584  1.0661 -0.1276
 3445TIP3   OH231893   2.048   5.679   1.692 -0.0962 -0.1841 -0.2229
 3445TIP3    H131894   2.044   5.586   1.713  0.3278 -0.3623 -0.8682
 3445TIP3    H231895   2.109   5.684   1.618 -1.3996  0.4089 -1.3090
 3446TIP3   OH231896   6.877   1.021   0.813  0.3996  0.0513 -0.2631
 3446TIP3    H131897   6.949   0.964   0.786 -1.4221 -1.8624 -1.3623
 3446TIP3    H231898   6.806   0.962   0.836 -0.8157  1.8619  0.9511
 3447TIP3   OH231899   2.757   4.377   7.103  0.3152  0.1225  0.1260
 3447TIP3    H131900   2.808   4.451   7.136  2.1774 -0.5207 -1.1730
 3447TIP3    H231901   2.813   4.336   7.037 -1.6241 -1.0437 -0.9004
 3448TIP3   OH231902   0.784   3.440   8.575  0.3626 -0.2851  0.5618
 3448TIP3    H131903   0.775   3.399   8.489  1.6504  2.2475 -0.9127
 3448TIP3    H231904   0.700   3.484   8.590  0.3584 -0.1896  0.2617
 3449TIP3   OH231905   2.336   2.495   1.917 -0.2349 -0.4074 -0.2835
 3449TIP3    H131906   2.319   2.427   1.983 -0.0576 -0.4303 -0.2610
 3449TIP3    H231907   2.262   2.556   1.926 -0.0587 -0.2528  0.1378
 3450TIP3   OH231908   2.493   4.242   7.556 -0.2716 -0.0855 -0.1383
 3450TIP3    H131909   2.587   4.262   7.560 -0.3567  0.4373 -0.6191
 3450TIP3    H231910   2.455   4.290   7.630 -0.4163  1.2408 -1.0465
 3451TIP3   OH231911   4.925   5.261   2.016  0.4882  0.1576  0.4120
 3451TIP3    H131912   4.978   5.191   1.979 -0.3781 -0.4507  0.2951
 3451TIP3    H231913   4.890   5.308   1.940 -1.2236 -1.0414  0.4218
 3452TIP3   OH231914   5.071   0.464   6.421  0.4772 -0.3101 -0.0206
 3452TIP3    H131915   5.056   0.391   6.482  0.9392 -1.4927 -1.2755
 3452TIP3    H231916   5.160   0.492   6.441 -0.1924  0.9288  1.4593
 3453TIP3   OH231917   2.092   5.772   2.529  0.4056 -0.0900 -0.0861
 3453TIP3    H131918   2.121   5.777   2.620  1.4590  0.7145 -0.4468
 3453TIP3    H231919   2.043   5.853   2.514  1.9680  0.7551 -0.7935
 3454TIP3   OH231920   3.559   0.477   8.137  0.1931  0.2608  0.4752
 3454TIP3    H131921   3.583   0.391   8.103  0.7982  0.8622 -0.6608
 3454TIP3    H231922   3.642   0.521   8.151 -0.0775  0.3943  1.8350
 3455TIP3   OH231923   4.751   3.494   8.382  0.1104 -0.3893  0.2107
 3455TIP3    H131924   4.756   3.489   8.478 -0.0604 -1.4418  0.1796
 3455TIP3    H231925   4.736   3.586   8.363 -3.4126 -0.6016  1.3727
 3456TIP3   OH231926   1.690   3.695   2.253  0.0312 -0.5341 -1.0737
 3456TIP3    H131927   1.668   3.676   2.162  0.0886  4.1266 -2.3606
 3456TIP3    H231928   1.783   3.673   2.261 -0.6450 -3.8039 -1.0673
 3457TIP3   OH231929   4.087   5.545   0.127  0.6773  0.1831  0.8389
 3457TIP3    H131930   4.118   5.457   0.151  1.1407 -0.2468 -1.1530
 3457TIP3    H231931   4.026   5.530   0.055  0.2744  1.4745  0.8922
 3458TIP3   OH231932   3.751   5.113   8.458 -0.4369 -0.2875  0.5546
 3458TIP3    H131933   3.776   5.112   8.551  2.0300  1.5356  0.0000
 3458TIP3    H231934   3.799   5.039   8.420 -0.9331 -0.6314  0.5823
 3459TIP3   OH231935   1.239   5.108   0.756 -0.1260  0.1198 -0.5403
 3459TIP3    H131936   1.250   5.195   0.795 -0.0544  0.5802 -1.5353
 3459TIP3    H231937   1.314   5.058   0.787 -0.3221  0.3219  0.2760
 3460TIP3   OH231938   0.365   5.147   7.320 -0.3733  0.1997 -0.2890
 3460TIP3    H131939   0.329   5.235   7.328  2.1207  1.4267 -1.5023
 3460TIP3    H231940   0.442   5.157   7.263  0.2904 -2.6756 -0.0687
 3461TIP3   OH231941   5.431   4.863   0.322 -0.1898 -0.0410 -0.0982
 3461TIP3    H131942   5.476   4.947   0.335 -2.9678  1.2825  1.9364
 3461TIP3    H231943   5.371   4.880   0.249 -2.4075  0.6227  1.7587
 3462TIP3   OH231944   0.254   1.221   7.027 -0.3361  0.0228 -0.5130
 3462TIP3    H131945   0.273   1.284   6.958 -0.2235  0.1608 -0.3556
 3462TIP3    H231946   0.158   1.219   7.031 -0.3478 -0.1790 -0.8482
 3463TIP3   OH231947   2.585   4.986   0.744  0.0023  0.1721  0.1895
 3463TIP3    H131948   2.637   4.910   0.769  1.5473  0.3023 -2.3362
 3463TIP3    H231949   2.631   5.061   0.783 -0.8505 -0.0213  1.6595
 3464TIP3   OH231950   0.672   1.452   7.903 -0.3083 -0.0176 -0.1928
 3464TIP3    H131951   0.761   1.448   7.868 -0.2342 -1.4299  0.0971
 3464TIP3    H231952   0.625   1.380   7.861 -0.6465 -0.7676  1.3726
 3465TIP3   OH231953   1.458   6.759   8.180 -0.1549 -0.3691  0.0976
 3465TIP3    H131954   1.374   6.792   8.212 -1.5171 -0.3219 -3.0523
 3465TIP3    H231955   1.523   6.820   8.213 -2.0885  3.1856 -2.0334
 3466TIP3   OH231956   4.332   5.084   1.337 -0.5292 -0.3132 -0.0816
 3466TIP3    H131957   4.273   5.149   1.299  0.4513 -0.5041 -2.0459
 3466TIP3    H231958   4.357   5.121   1.421 -3.9871 -0.5827  1.2216
 3467TIP3   OH231959   2.279   1.399   6.409  0.0989  0.0797  0.2755
 3467TIP3    H131960   2.257   1.450   6.331  0.3395  0.0504  0.1878
 3467TIP3    H231961   2.210   1.419   6.471 -1.8312 -2.2314 -0.9598
 3468TIP3   OH231962   4.200   2.642   7.048 -0.1123  0.0505 -0.1258
 3468TIP3    H131963   4.221   2.577   6.981 -2.5711  0.6599 -1.6177
 3468TIP3    H231964   4.127   2.604   7.097  1.5456 -0.3193  2.2384
 3469TIP3   OH231965   4.799   5.246   8.430 -0.2228  0.2196  0.3212
 3469TIP3    H131966   4.763   5.284   8.350 -1.4610 -1.2019  0.1690
 3469TIP3    H231967   4.867   5.308   8.457 -0.9432  1.5953 -0.8811
 3470TIP3   OH231968   0.093   5.299   7.668 -0.0264  0.2809 -0.1779
 3470TIP3    H131969   0.079   5.368   7.604 -0.0574  0.6166  0.1867
 3470TIP3    H231970   0.007   5.256   7.676 -0.0371  0.2765 -0.3121
 3471TIP3   OH231971   3.434   3.834   1.402 -0.5007 -0.1718  0.0373
 3471TIP3    H131972   3.490   3.785   1.343  0.0257 -0.0746  0.4381
 3471TIP3    H231973   3.353   3.784   1.407 -1.6402  1.1549 -2.8318
 3472TIP3   OH231974   3.852   1.591   8.009 -0.0929  0.2334 -0.4180
 3472TIP3    H131975   3.827   1.667   8.062  0.1896  0.0184  0.0285
 3472TIP3    H231976   3.941   1.570   8.038 -0.7993 -1.3399  0.7372
 3473TIP3   OH231977   0.435   6.130   7.185  0.2683 -0.0442 -0.2921
 3473TIP3    H131978   0.500   6.200   7.177  0.6855 -0.1470  1.6465
 3473TIP3    H231979   0.354   6.176   7.206  0.7262 -0.1150  1.8783
 3474TIP3   OH231980   6.781   4.518   7.876 -0.5645 -0.5166  0.9783
 3474TIP3    H131981   6.871   4.548   7.894 -0.0987 -1.6391  0.5779
 3474TIP3    H231982   6.792   4.440   7.822 -1.8070 -0.3616  0.4713
 3475TIP3   OH231983   5.260   5.243   1.378 -0.6931  1.2312  0.2166
 3475TIP3    H131984   5.261   5.219   1.285 -0.5221  0.7868  0.3312
 3475TIP3    H231985   5.273   5.338   1.378  0.1946  1.1253 -0.1808
 3476TIP3   OH231986   1.162   4.562   6.676 -0.5563  0.2117 -0.3085
 3476TIP3    H131987   1.162   4.553   6.580 -1.2939  0.7728 -0.3685
 3476TIP3    H231988   1.255   4.573   6.699 -0.0867 -2.2023 -0.7126
 3477TIP3   OH231989   5.126   5.022   8.672  0.7227 -0.2474  0.6136
 3477TIP3    H131990   5.194   5.088   8.682 -0.3793  0.7283  2.1027
 3477TIP3    H231991   5.156   4.948   8.723  0.5198  0.3308  1.6007
 3478TIP3   OH231992   1.028   4.933   1.523  0.0365  0.1468  0.2534
 3478TIP3    H131993   1.038   5.011   1.467  0.8056 -0.0834  0.0536
 3478TIP3    H231994   0.984   4.870   1.467  0.9832 -0.1503 -0.1787
 3479TIP3   OH231995   6.370   6.106   1.403 -0.1068 -0.3628 -0.8427
 3479TIP3    H131996   6.387   6.177   1.466 -0.4357  0.7244 -1.9544
 3479TIP3    H231997   6.329   6.037   1.456 -0.9153  0.7487  0.0240
 3480TIP3   OH231998   2.517   6.657   6.937  0.0505 -0.2879  0.7137
 3480TIP3    H131999   2.476   6.731   6.893 -0.9392 -0.7157  0.9003
 3480TIP3    H232000   2.610   6.665   6.914 -0.0635  0.9019  0.5974
 3481TIP3   OH232001   3.786   1.543   0.222 -0.0448  0.0494  0.1783
 3481TIP3    H132002   3.728   1.494   0.165  0.9753 -0.3165 -0.5827
 3481TIP3    H232003   3.866   1.491   0.226  0.0804  0.3019  1.5873
 3482TIP3   OH232004   2.222   2.077   1.646 -0.4437 -0.0896  0.1897
 3482TIP3    H132005   2.215   1.985   1.621 -0.2148 -0.0118 -0.1676
 3482TIP3    H232006   2.174   2.083   1.729 -1.8265 -0.2135 -0.5662
 3483TIP3   OH232007   2.241   3.322   7.322  0.4249  0.1230  0.3013
 3483TIP3    H132008   2.216   3.335   7.413  0.6287  1.7487  0.1612
 3483TIP3    H232009   2.161   3.293   7.278  0.1442  0.0622  0.8532
 3484TIP3   OH232010   2.729   3.722   7.068  0.1904 -0.1782  0.7358
 3484TIP3    H132011   2.773   3.642   7.039 -2.8938 -2.0441  0.7595
 3484TIP3    H232012   2.694   3.761   6.988 -0.2033 -0.0873  0.9501
 3485TIP3   OH232013   6.831   0.091   7.479 -0.0035 -0.3172 -0.7482
 3485TIP3    H132014   6.814   0.156   7.548  0.3316 -1.2426  0.2375
 3485TIP3    H232015   6.745   0.055   7.459  0.1595 -1.8945  1.1014
 3486TIP3   OH232016   1.791   4.998   1.508 -0.8206  0.8321  0.5163
 3486TIP3    H132017   1.804   4.904   1.524  0.6488  1.1837  1.5827
 3486TIP3    H232018   1.793   5.038   1.595 -0.5335  1.9624  0.0052
 3487TIP3   OH232019   4.722   5.879   1.912  0.2281  0.4075  0.0428
 3487TIP3    H132020   4.666   5.863   1.835  0.7731  0.5906 -0.4017
 3487TIP3    H232021   4.796   5.820   1.899 -0.3868 -0.6756  1.2100
 3488TIP3   OH232022   0.896   5.660   1.572 -0.3082  0.0949  0.7226
 3488TIP3    H132023   0.868   5.640   1.661  1.0101 -2.4199  0.6632
 3488TIP3    H232024   0.816   5.655   1.519 -0.6794 -1.1226  1.3758
 3489TIP3   OH232025   2.088   1.860   6.690 -0.4496  0.1945  0.7641
 3489TIP3    H132026   2.056   1.781   6.732  0.2338  0.0042  0.9332
 3489TIP3    H232027   2.046   1.860   6.604 -0.2955 -0.4552  0.6844
 3490TIP3   OH232028   5.829   4.138   1.246 -0.4389  0.0850 -0.5847
 3490TIP3    H132029   5.820   4.233   1.247 -1.1549  0.0204 -0.5107
 3490TIP3    H232030   5.765   4.107   1.311  0.7746 -0.3717  0.4453
 3491TIP3   OH232031   4.284   2.930   6.987  0.5605 -0.2092  0.2673
 3491TIP3    H132032   4.254   2.854   7.035  0.1345  0.0167  0.3576
 3491TIP3    H232033   4.242   2.923   6.901 -0.7877  0.7697  0.8128
 3492TIP3   OH232034   6.082   6.384   7.901 -0.4110  0.2825  0.7243
 3492TIP3    H132035   6.037   6.327   7.839 -1.0145  0.8279  0.6525
 3492TIP3    H232036   6.153   6.330   7.936 -0.4461 -0.2285  0.0255
 3493TIP3   OH232037   3.787   6.701   2.095  0.0630 -0.2676  0.3215
 3493TIP3    H132038   3.875   6.686   2.130 -0.5470 -2.7275  0.9868
 3493TIP3    H232039   3.739   6.741   2.167 -0.2280 -2.0544  1.1728
 3494TIP3   OH232040   3.541   2.416   7.056  0.1785  0.1222  0.2322
 3494TIP3    H132041   3.608   2.387   7.118  1.6183  0.5380 -1.0523
 3494TIP3    H232042   3.561   2.509   7.042  0.5634 -0.1921 -1.6020
 3495TIP3   OH232043   2.036   1.951   6.386 -0.0641 -0.0745 -0.1308
 3495TIP3    H132044   1.976   2.005   6.335 -0.1695  2.9374  2.8473
 3495TIP3    H232045   2.118   2.002   6.388  1.1201 -1.8781 -0.2586
 3496TIP3   OH232046   3.153   3.447   1.246 -0.9728 -0.3857  0.0001
 3496TIP3    H132047   3.194   3.404   1.320 -0.8130  1.5230  1.0762
 3496TIP3    H232048   3.172   3.390   1.171 -1.4601 -2.5580  1.4347
 3497TIP3   OH232049   3.798   5.023   0.877 -0.3588  0.1869  0.0920
 3497TIP3    H132050   3.747   5.092   0.835  0.1098  1.0511  0.9174
 3497TIP3    H232051   3.889   5.043   0.853 -0.2556 -0.3874 -0.0094
 3498TIP3   OH232052   1.957   1.126   6.599 -0.5646  0.2141 -0.1122
 3498TIP3    H132053   1.891   1.142   6.531 -1.0782 -0.0694  0.3035
 3498TIP3    H232054   2.040   1.154   6.560 -0.6571 -1.0911 -1.3163
 3499TIP3   OH232055   4.031   1.975   6.356  0.1038 -0.1170 -0.2887
 3499TIP3    H132056   4.097   1.930   6.409  0.8228 -1.3229 -2.1281
 3499TIP3    H232057   4.021   2.061   6.398  1.2288 -0.7242  1.2996
 3500TIP3   OH232058   0.950   1.685   7.832 -0.6003 -0.1099 -0.2932
 3500TIP3    H132059   0.916   1.666   7.745  0.0630 -0.0027 -0.5813
 3500TIP3    H232060   1.036   1.723   7.817  0.2037 -1.5193  0.4414
 3501TIP3   OH232061   6.072   2.500   0.119 -0.7070 -0.1051  0.3063
 3501TIP3    H132062   6.079   2.498   0.215  0.1037 -0.0846  0.2550
 3501TIP3    H232063   6.149   2.549   0.091 -1.7061  1.1471 -0.2940
 3502TIP3   OH232064   4.910   0.426   7.419  0.0840  0.1606 -0.5663
 3502TIP3    H132065   4.910   0.490   7.491 -1.0232 -1.0780  0.6053
 3502TIP3    H232066   4.958   0.351   7.454  1.3949  0.3129 -1.9358
 3503TIP3   OH232067   3.852   1.557   7.352  0.2752 -0.0503 -0.6730
 3503TIP3    H132068   3.771   1.532   7.308 -1.7266  1.7592  1.7139
 3503TIP3    H232069   3.861   1.651   7.336  1.0593  0.0763  0.3932
 3504TIP3   OH232070   6.078   2.010   8.516 -0.6484 -0.2533  0.3132
 3504TIP3    H132071   6.071   2.084   8.455 -1.4926 -0.3671  0.2531
 3504TIP3    H232072   6.106   1.937   8.462 -1.2101 -0.3086  0.0928
 3505TIP3   OH232073   4.991   6.731   0.123 -0.1416 -0.0256  0.4460
 3505TIP3    H132074   4.903   6.731   0.086 -0.3641  1.0672  0.9509
 3505TIP3    H232075   5.049   6.721   0.047 -0.6289  1.1938 -0.1095
 3506TIP3   OH232076   4.846   4.066   2.114 -0.1033  0.3528 -0.2018
 3506TIP3    H132077   4.824   4.129   2.045 -0.2347 -0.6820 -1.1370
 3506TIP3    H232078   4.767   4.061   2.168 -0.9295 -0.6343 -1.4339
 3507TIP3   OH232079   4.603   6.096   2.026 -0.0009  0.1431 -0.4083
 3507TIP3    H132080   4.672   6.113   2.090  1.2151  0.8342 -1.8423
 3507TIP3    H232081   4.632   6.017   1.980 -1.0682 -0.5862  0.1256
 3508TIP3   OH232082   4.327   4.338   0.328  0.1367  0.1806 -0.0086
 3508TIP3    H132083   4.351   4.352   0.420  0.5051  0.0533 -0.0868
 3508TIP3    H232084   4.406   4.304   0.287  0.1162  0.6951 -0.4817
 3509TIP3   OH232085   0.016   2.805   7.227 -0.0991  0.0104  0.5041
 3509TIP3    H132086  -0.077   2.786   7.239 -0.2492  0.9078  0.8330
 3509TIP3    H232087   0.023   2.831   7.135 -0.0887 -0.4867  0.3593
 3510TIP3   OH232088   0.809   0.042   8.585  0.0150  0.8310 -0.0184
 3510TIP3    H132089   0.823   0.078   8.673  0.7248  0.7845 -0.1061
 3510TIP3    H232090   0.756   0.108   8.541 -0.8287  0.5993  0.6131
 3511TIP3   OH232091   4.084   4.408   0.153  0.1021  0.2006  0.1831
 3511TIP3    H132092   4.044   4.348   0.216  0.7142 -1.2823 -0.8164
 3511TIP3    H232093   4.168   4.431   0.193  0.1141 -0.0516  0.3071
 3512TIP3   OH232094   6.009   5.248   0.575 -0.1480 -0.0353 -0.1463
 3512TIP3    H132095   6.047   5.312   0.515 -1.5296  1.3756  0.4178
 3512TIP3    H232096   6.084   5.214   0.625  0.6381  0.9707 -0.6247
 3513TIP3   OH232097   5.763   3.829   0.806 -0.0399 -0.1727 -0.3010
 3513TIP3    H132098   5.668   3.822   0.795 -0.1047  1.1421 -0.6838
 3513TIP3    H232099   5.787   3.909   0.759  1.0756  0.2342  0.9208
 3514TIP3   OH232100   5.577   1.730   7.027 -0.1392  0.0546 -0.2668
 3514TIP3    H132101   5.565   1.730   6.932  1.9586  0.4070 -0.5926
 3514TIP3    H232102   5.593   1.638   7.049  1.7657  0.2459 -0.6709
 3515TIP3   OH232103   4.137   1.688   7.974  0.2328 -0.0859  0.1085
 3515TIP3    H132104   4.155   1.600   7.941 -1.1386 -0.0861 -0.6900
 3515TIP3    H232105   4.221   1.717   8.012  0.7665 -1.6224  0.1654
 3516TIP3   OH232106   2.149   1.724   7.595  1.4678  0.3459 -0.0365
 3516TIP3    H132107   2.215   1.656   7.588  1.9871  0.8405 -0.0393
 3516TIP3    H232108   2.164   1.781   7.520  0.0624 -0.3586 -0.8957
 3517TIP3   OH232109   5.030   4.626   1.139 -0.0081  0.2703 -0.3342
 3517TIP3    H132110   5.090   4.597   1.208  0.7369 -1.8867 -1.7807
 3517TIP3    H232111   5.074   4.702   1.100  0.9651 -0.2293 -0.2505
 3518TIP3   OH232112   2.089   4.131   7.624 -0.2981  0.3108 -0.7752
 3518TIP3    H132113   2.102   4.121   7.718  0.0486 -0.2096 -0.8738
 3518TIP3    H232114   2.025   4.063   7.602  1.5180 -1.2963 -1.3313
 3519TIP3   OH232115   4.502   0.080   7.654 -0.0358 -0.1829 -0.0682
 3519TIP3    H132116   4.490   0.160   7.603  0.2748  0.0771  0.2576
 3519TIP3    H232117   4.414   0.045   7.666 -0.1522  0.0017 -0.3873
 3520TIP3   OH232118   4.238   0.759   6.309 -0.3829  0.0524  0.3731
 3520TIP3    H132119   4.188   0.746   6.228 -1.9582  1.3176  1.0939
 3520TIP3    H232120   4.232   0.853   6.326  0.4744 -0.0949  1.6383
 3521TIP3   OH232121   0.940   2.707   1.803  0.4911  0.2538 -0.5560
 3521TIP3    H132122   1.005   2.769   1.771 -0.5778  1.6437 -0.1241
 3521TIP3    H232123   0.938   2.721   1.898 -0.4361  0.2421 -0.5648
 3522TIP3   OH232124   1.250   1.250   8.455 -0.4849  0.8663  0.1723
 3522TIP3    H132125   1.191   1.175   8.443 -1.1386  1.1728  1.2585
 3522TIP3    H232126   1.301   1.254   8.374 -1.5457  0.2245 -0.5558
 3523TIP3   OH232127   3.576   4.411   1.790 -0.0498 -0.3216  0.2375
 3523TIP3    H132128   3.493   4.369   1.766  0.9008 -1.1260 -1.8446
 3523TIP3    H232129   3.565   4.432   1.883 -1.8537 -2.1577  0.5221
 3524TIP3   OH232130   5.040   4.921   7.548  0.2192  0.0702  0.1759
 3524TIP3    H132131   5.118   4.916   7.603 -0.0030  2.7667  0.8967
 3524TIP3    H232132   5.062   4.872   7.469  2.6040  0.6523  0.4083
 3525TIP3   OH232133   5.312   5.293   2.612  0.9327 -0.1232 -0.5516
 3525TIP3    H132134   5.381   5.268   2.549  1.4338  1.1755 -0.5328
 3525TIP3    H232135   5.271   5.210   2.635  0.7339 -0.6456 -2.6034
 3526TIP3   OH232136   2.385   0.088   6.091  0.4232 -0.1271  0.3536
 3526TIP3    H132137   2.397   0.062   5.999 -3.0868  0.2086 -0.3258
 3526TIP3    H232138   2.361   0.006   6.135 -1.7040  0.2939  0.0861
 3527TIP3   OH232139   1.512   0.794   8.579  0.5755  0.0204  0.2016
 3527TIP3    H132140   1.559   0.789   8.662  0.9194  1.5928  0.1254
 3527TIP3    H232141   1.487   0.886   8.570 -3.0808 -0.7909  0.5145
 3528TIP3   OH232142   5.386   0.494   2.154  0.2999  0.0101  0.0288
 3528TIP3    H132143   5.410   0.559   2.220  0.3906 -0.2703  0.2723
 3528TIP3    H232144   5.449   0.423   2.166 -0.0771 -0.3223  0.0568
 3529TIP3   OH232145   4.480   1.217   0.282 -0.5111  0.3950  0.3538
 3529TIP3    H132146   4.385   1.206   0.280 -0.4669  0.0984 -0.6152
 3529TIP3    H232147   4.515   1.129   0.265 -0.0665  0.5273  0.5592
 3530TIP3   OH232148   4.541   4.227   8.416 -0.6319  0.0041  0.0679
 3530TIP3    H132149   4.516   4.190   8.330  0.0401 -0.9229  0.2494
 3530TIP3    H232150   4.511   4.161   8.479  0.2439 -0.0569  0.4319
 3531TIP3   OH232151   1.130   6.038   6.998 -0.0596  0.0260  0.2400
 3531TIP3    H132152   1.070   6.062   7.069 -0.3404 -1.7007  0.6389
 3531TIP3    H232153   1.127   5.942   6.996  0.7543  0.0046 -1.4225
 3532TIP3   OH232154   6.675   5.467   1.226  0.3413 -0.5155  0.3803
 3532TIP3    H132155   6.720   5.450   1.308 -0.3004  0.8459  1.0374
 3532TIP3    H232156   6.596   5.412   1.230  1.1890 -1.8166 -0.1502
 3533TIP3   OH232157   2.907   1.171   7.753 -0.0079  0.1237 -0.1000
 3533TIP3    H132158   2.986   1.224   7.761 -0.2041  0.4780 -0.4770
 3533TIP3    H232159   2.861   1.182   7.836 -0.8089  1.7782 -0.7235
 3534TIP3   OH232160   4.395   6.171   0.662  0.5281  0.0784  0.6408
 3534TIP3    H132161   4.438   6.162   0.747  1.1798 -1.5619  0.1745
 3534TIP3    H232162   4.466   6.167   0.598 -0.1337 -0.8333 -0.0600
 3535TIP3   OH232163   2.928   2.556   7.025  0.1121  0.2176 -0.0860
 3535TIP3    H132164   2.931   2.585   6.934  0.6083  1.8201  0.4076
 3535TIP3    H232165   2.861   2.610   7.066 -0.9361 -1.2819  0.2739
 3536TIP3   OH232166   3.660   3.134   6.936 -0.0929 -0.2454  0.1554
 3536TIP3    H132167   3.741   3.183   6.921  0.1250 -0.9001 -0.9428
 3536TIP3    H232168   3.617   3.179   7.008  0.8316  0.6352  0.1722
 3537TIP3   OH232169   3.531   0.877   0.959 -0.3141  0.2942 -0.1118
 3537TIP3    H132170   3.473   0.833   1.021 -0.7559  0.4954 -0.3812
 3537TIP3    H232171   3.619   0.844   0.980 -0.6263 -0.6126 -0.2282
 3538TIP3   OH232172   4.405   2.689   8.127 -0.4644 -0.0292 -0.2052
 3538TIP3    H132173   4.405   2.623   8.195 -0.6236  0.3671  0.1818
 3538TIP3    H232174   4.357   2.763   8.164  1.4717  1.1140  0.1626
 3539TIP3   OH232175   5.652   3.959   8.507  0.1279 -0.3308  0.1367
 3539TIP3    H132176   5.721   4.024   8.500  0.7572 -1.1438 -2.7569
 3539TIP3    H232177   5.591   3.980   8.436 -0.4626 -1.9618  0.1051
 3540TIP3   OH232178   4.820   3.244   8.293 -0.6392  0.1103 -0.5237
 3540TIP3    H132179   4.793   3.330   8.327  0.8387 -0.0968  1.3359
 3540TIP3    H232180   4.756   3.183   8.329  0.7974 -0.0834  2.0164
 3541TIP3   OH232181   0.055   4.530   0.958  0.6739  0.2681 -0.6355
 3541TIP3    H132182   0.123   4.482   0.912  0.5752  2.1225 -2.8824
 3541TIP3    H232183   0.101   4.598   1.006  0.5225  0.5390 -0.8712
 3542TIP3   OH232184   0.368   5.309   0.639 -0.1142  0.3702  0.0329
 3542TIP3    H132185   0.447   5.269   0.604 -0.7918 -0.2765 -0.8037
 3542TIP3    H232186   0.396   5.351   0.720  0.4871 -2.4107  1.3674
 3543TIP3   OH232187   2.676   3.001   7.116 -0.0189  0.0575 -0.1905
 3543TIP3    H132188   2.674   2.979   7.209 -0.2107 -0.3765 -0.2928
 3543TIP3    H232189   2.770   2.999   7.094 -0.0423 -1.0910 -0.2825
 3544TIP3   OH232190   2.781   1.954   7.806 -0.4596 -0.7404 -0.1157
 3544TIP3    H132191   2.873   1.942   7.827 -0.8620  0.6421  2.9511
 3544TIP3    H232192   2.755   1.873   7.762  1.9342 -1.5939 -0.0602
 3545TIP3   OH232193   1.751   3.191   7.562 -0.1906  0.2489  0.4198
 3545TIP3    H132194   1.721   3.274   7.524  1.5245  0.8303  0.2801
 3545TIP3    H232195   1.695   3.125   7.521  0.1152  1.0795 -1.4657
 3546TIP3   OH232196   1.806   0.212   7.881  0.1098 -0.3593  0.1893
 3546TIP3    H132197   1.838   0.289   7.929  0.5282 -0.0223 -0.5999
 3546TIP3    H232198   1.884   0.158   7.867 -0.1342 -0.7964  0.4982
 3547TIP3   OH232199   6.693   3.120   0.748 -0.6191  0.3299  1.0426
 3547TIP3    H132200   6.702   3.034   0.708 -0.0301  1.0910 -0.5442
 3547TIP3    H232201   6.746   3.178   0.694  0.1697  1.4605  2.8975
 3548TIP3   OH232202   2.561   1.688   0.472  0.2264  0.1855 -0.7901
 3548TIP3    H132203   2.614   1.609   0.480 -0.3824 -0.1464  0.2316
 3548TIP3    H232204   2.470   1.657   0.471  0.0112  0.7029 -3.1102
 3549TIP3   OH232205   5.424   1.096   7.945 -0.4986 -0.4507  0.1359
 3549TIP3    H132206   5.386   1.166   7.892  0.5773  0.0040 -0.0481
 3549TIP3    H232207   5.383   1.106   8.031  0.7239  1.3657  0.5660
 3550TIP3   OH232208   4.837   3.474   7.053 -0.4208 -0.0171  0.6330
 3550TIP3    H132209   4.900   3.546   7.064  0.7737 -0.9757  0.3130
 3550TIP3    H232210   4.810   3.454   7.143 -0.5735  0.6504  0.7475
 3551TIP3   OH232211   0.535   1.392   0.285 -0.1842  0.2055  0.0569
 3551TIP3    H132212   0.448   1.367   0.253  0.4105 -2.4937  0.3443
 3551TIP3    H232213   0.522   1.409   0.378 -0.2424 -1.4481  0.3833
 3552TIP3   OH232214   4.620   2.441   1.549  0.0776  0.6008  0.0776
 3552TIP3    H132215   4.630   2.417   1.641  0.6827 -0.6495 -0.2926
 3552TIP3    H232216   4.701   2.489   1.528 -0.8374  2.4991  0.6366
 3553TIP3   OH232217   1.646   6.558   8.296 -0.3151 -0.5801 -0.0728
 3553TIP3    H132218   1.634   6.574   8.389  0.1025  0.7545 -0.2247
 3553TIP3    H232219   1.574   6.605   8.254 -1.0623 -1.9760 -0.3834
 3554TIP3   OH232220   4.758   2.296   6.517 -0.2120 -0.1193 -0.1180
 3554TIP3    H132221   4.689   2.298   6.582  0.8344  1.5966  1.0408
 3554TIP3    H232222   4.838   2.280   6.567  0.3457 -1.5277 -1.3534
 3555TIP3   OH232223   3.193   4.475   0.001 -0.3010  0.4314  0.1659
 3555TIP3    H132224   3.276   4.517   0.026 -0.4072  0.7799 -0.0784
 3555TIP3    H232225   3.130   4.507   0.065  0.0239 -0.8985  1.2263
 3556TIP3   OH232226   3.964   4.082   0.638  0.2529  0.0698  0.1158
 3556TIP3    H132227   3.944   4.125   0.721  0.8332  0.2320  0.1766
 3556TIP3    H232228   3.957   3.988   0.657  0.0979  0.1122  0.2726
 3557TIP3   OH232229   0.904   4.384   0.054 -0.1761  0.4797 -0.5349
 3557TIP3    H132230   0.925   4.335  -0.026  1.9501  0.8907 -0.2891
 3557TIP3    H232231   0.989   4.405   0.093 -1.1377  0.5471  1.7060
 3558TIP3   OH232232   2.174   3.811   2.172  0.3898  0.1914 -0.1101
 3558TIP3    H132233   2.231   3.886   2.157  0.0401  0.6819  0.8749
 3558TIP3    H232234   2.197   3.748   2.104  2.9912 -0.1769  0.9938
 3559TIP3   OH232235   3.946   6.556   6.231 -0.3535  0.1781 -0.4528
 3559TIP3    H132236   3.997   6.634   6.214  1.0512 -0.2163  1.6378
 3559TIP3    H232237   3.855   6.587   6.234  0.0573  1.4797 -0.8441
 3560TIP3   OH232238   4.002   3.595   7.400 -0.1653 -0.6783 -0.4046
 3560TIP3    H132239   3.941   3.668   7.417  0.7570  0.0965 -0.3651
 3560TIP3    H232240   3.959   3.545   7.331 -1.9521 -1.4715  1.1966
 3561TIP3   OH232241   6.640   4.680   6.391  0.1266 -0.2501 -0.0056
 3561TIP3    H132242   6.595   4.758   6.357 -0.7124 -0.4636  0.5891
 3561TIP3    H232243   6.708   4.715   6.449  1.3123  0.1033 -1.5286
 3562TIP3   OH232244   5.739   3.045   7.290 -0.6242  0.2921  0.5458
 3562TIP3    H132245   5.730   2.965   7.238  2.2505  0.8258 -0.9577
 3562TIP3    H232246   5.651   3.083   7.290 -1.4580 -1.4559 -1.0831
 3563TIP3   OH232247   1.322   4.762   8.556  0.4766  0.2687 -0.2531
 3563TIP3    H132248   1.410   4.751   8.590  1.2741  2.4738 -1.4025
 3563TIP3    H232249   1.334   4.802   8.470 -1.6544  1.9333  0.1280
 3564TIP3   OH232250   3.624   0.116   1.974 -0.2422  0.0019  0.7805
 3564TIP3    H132251   3.661   0.033   1.942  3.2486  0.4403  3.0321
 3564TIP3    H232252   3.572   0.091   2.050 -0.5369 -0.2585  0.4933
 3565TIP3   OH232253   1.544   1.273   6.965 -0.4391  0.0884  0.0410
 3565TIP3    H132254   1.587   1.248   6.883  0.1250  1.3927 -0.0872
 3565TIP3    H232255   1.568   1.205   7.027  2.1878  0.9460  0.0712
 3566TIP3   OH232256   1.723   0.295   7.599  0.0787 -0.1126  0.2970
 3566TIP3    H132257   1.740   0.251   7.683  1.7616 -0.4158 -0.1685
 3566TIP3    H232258   1.784   0.254   7.538 -0.2163  1.0025 -0.7850
 3567TIP3   OH232259   3.882   2.279   7.467  0.2517  0.1783  0.0830
 3567TIP3    H132260   3.847   2.332   7.538 -1.3682 -1.8864  0.9422
 3567TIP3    H232261   3.872   2.189   7.497  1.8638 -0.6918 -1.7478
 3568TIP3   OH232262   3.760   0.646   1.902  0.0350  0.3155 -0.3985
 3568TIP3    H132263   3.842   0.599   1.886 -1.5369 -2.3556 -1.2217
 3568TIP3    H232264   3.769   0.681   1.991  2.5108  1.2480 -0.9311
 3569TIP3   OH232265   4.331   5.371   1.930 -0.2564 -0.0717  0.0795
 3569TIP3    H132266   4.367   5.290   1.895 -0.1293 -0.3855  0.9229
 3569TIP3    H232267   4.237   5.366   1.913 -0.1668 -0.1163 -0.4106
 3570TIP3   OH232268   4.055   0.050   0.581  0.1452 -0.0493  0.4853
 3570TIP3    H132269   3.981   0.068   0.639  0.1258 -2.6887  1.4478
 3570TIP3    H232270   4.026  -0.025   0.528  2.2710 -1.6248  1.3686
 3571TIP3   OH232271   1.135   0.955   1.209 -0.2810 -0.4979 -0.0186
 3571TIP3    H132272   1.187   0.972   1.287  1.0836 -0.4768 -0.8917
 3571TIP3    H232273   1.057   1.010   1.219 -0.4607 -1.0105  1.6255
 3572TIP3   OH232274   3.257   1.013   6.619  0.2543  0.6118  0.1977
 3572TIP3    H132275   3.277   1.052   6.704  0.3272 -0.0922  0.5110
 3572TIP3    H232276   3.264   0.918   6.634  1.2106  0.5059 -0.8258
 3573TIP3   OH232277   0.038   1.832   7.006  0.4826 -0.4253 -0.1125
 3573TIP3    H132278  -0.042   1.839   6.954 -0.0878 -1.4403  0.6066
 3573TIP3    H232279   0.104   1.801   6.944  0.1083 -0.4404 -0.5118
 3574TIP3   OH232280   3.912   6.059   8.128  0.3658  0.3292  0.3164
 3574TIP3    H132281   3.826   6.023   8.108  0.5600  0.2826 -0.4698
 3574TIP3    H232282   3.949   5.998   8.192  0.1489 -0.1285  0.0145
 3575TIP3   OH232283   4.835   1.614   1.412  0.0262 -0.3236  0.0027
 3575TIP3    H132284   4.920   1.591   1.374 -0.4436 -0.9743 -0.6981
 3575TIP3    H232285   4.778   1.626   1.336 -0.5532 -0.0826  0.4707
 3576TIP3   OH232286   1.606   5.547   0.684 -0.4459  0.2491 -0.2343
 3576TIP3    H132287   1.675   5.482   0.678 -0.0299  0.0873  3.7361
 3576TIP3    H232288   1.649   5.630   0.663  0.5518 -0.0590  0.5448
 3577TIP3   OH232289   4.826   0.252   2.611  0.1551 -0.1673 -0.0485
 3577TIP3    H132290   4.852   0.320   2.548 -1.2877  0.3420 -0.1261
 3577TIP3    H232291   4.860   0.171   2.574 -0.7703  0.0998 -1.5813
 3578TIP3   OH232292   1.627   0.677   0.558  0.8339 -0.3003 -0.0511
 3578TIP3    H132293   1.561   0.744   0.541  0.3715  0.2018  3.1376
 3578TIP3    H232294   1.645   0.638   0.472 -0.9850  1.9332 -1.5483
 3579TIP3   OH232295   0.884   5.795   8.460 -0.2266  0.0599 -0.2576
 3579TIP3    H132296   0.792   5.814   8.478  0.2792  1.3791  1.1489
 3579TIP3    H232297   0.923   5.776   8.545  0.9805  0.3683 -0.7114
 3580TIP3   OH232298   4.308   3.922   8.648  0.1548 -0.4923 -0.7325
 3580TIP3    H132299   4.219   3.937   8.680  0.7171 -2.1899  1.9251
 3580TIP3    H232300   4.302   3.934   8.554 -2.8123 -0.2408 -0.5963
 3581TIP3   OH232301   6.236   3.062   0.697 -0.5729  0.2775  0.3514
 3581TIP3    H132302   6.263   3.144   0.657  0.4348 -0.1564  0.1043
 3581TIP3    H232303   6.269   3.066   0.786  0.5413 -0.3454 -0.0146
 3582TIP3   OH232304   2.259   6.163   0.937  0.4798 -0.2592  0.0172
 3582TIP3    H132305   2.319   6.095   0.966 -1.9400 -1.9726  1.2707
 3582TIP3    H232306   2.208   6.123   0.867 -1.5749 -0.1115  1.3501
 3583TIP3   OH232307   0.346   5.338   6.954  0.2141  0.4000 -0.1900
 3583TIP3    H132308   0.431   5.362   6.917 -0.8084  1.4878 -1.9656
 3583TIP3    H232309   0.284   5.397   6.912 -1.7148 -1.6695 -0.4300
 3584TIP3   OH232310   0.451   4.498   1.568  0.2460 -0.0725  0.2558
 3584TIP3    H132311   0.418   4.584   1.542  0.1599 -0.4438 -0.9055
 3584TIP3    H232312   0.542   4.498   1.540 -0.3563 -1.1810 -1.8581
 3585TIP3   OH232313   6.418   2.693   0.508  0.3271 -0.5959  0.5545
 3585TIP3    H132314   6.361   2.769   0.525  0.4110 -0.3522 -0.2261
 3585TIP3    H232315   6.403   2.635   0.583 -0.1243 -0.0390  0.9062
 3586TIP3   OH232316   2.770   4.613   1.675  0.5972 -0.1120  0.9684
 3586TIP3    H132317   2.726   4.642   1.595 -0.0910 -2.3698  0.4385
 3586TIP3    H232318   2.721   4.654   1.746 -0.3294  0.0144  0.2733
 3587TIP3   OH232319   3.269   0.096   7.414  0.8546 -0.2207  0.3497
 3587TIP3    H132320   3.346   0.057   7.374  2.3835 -1.3219  3.9862
 3587TIP3    H232321   3.296   0.186   7.436 -0.4762  0.9001 -2.1842
 3588TIP3   OH232322   2.402   5.964   0.669  0.1949  0.0564 -0.1379
 3588TIP3    H132323   2.496   5.954   0.684  0.4503 -0.9929 -2.1130
 3588TIP3    H232324   2.382   5.905   0.596 -1.9097  0.6336 -0.1168
 3589TIP3   OH232325   1.485   2.434   6.837  0.2314  0.2784  0.3767
 3589TIP3    H132326   1.448   2.499   6.778 -0.2620  0.3166  0.7245
 3589TIP3    H232327   1.485   2.353   6.786  2.3940  0.8476 -0.6620
 3590TIP3   OH232328   2.654   1.445   0.598 -0.3308 -0.4954  0.2687
 3590TIP3    H132329   2.626   1.358   0.570  0.5678 -1.2418  1.5834
 3590TIP3    H232330   2.593   1.469   0.668  1.5376 -1.6986  2.4463
 3591TIP3   OH232331   6.514   2.739   8.108  0.4348 -0.4561  0.3001
 3591TIP3    H132332   6.580   2.684   8.065 -1.8748 -0.8177 -3.1282
 3591TIP3    H232333   6.558   2.823   8.121  1.8442 -0.9384 -1.0179
 3592TIP3   OH232334   3.317   2.985   0.282  0.5362 -0.0479 -0.1971
 3592TIP3    H132335   3.263   3.061   0.261  0.0291 -0.8647 -2.0913
 3592TIP3    H232336   3.338   2.994   0.375  1.5723  3.0723 -0.6322
 3593TIP3   OH232337   0.267   4.800   1.925 -0.3385 -0.3082 -0.7730
 3593TIP3    H132338   0.325   4.730   1.956  1.0176  0.2675 -1.9060
 3593TIP3    H232339   0.268   4.865   1.995 -1.2901 -1.2165  0.1138
 3594TIP3   OH232340   5.423   2.098   7.362 -0.2075 -0.2010  0.2773
 3594TIP3    H132341   5.458   2.162   7.424  1.0362 -0.1916 -0.3961
 3594TIP3    H232342   5.387   2.150   7.291  0.3066 -0.2256 -0.0088
 3595TIP3   OH232343   3.542   2.359   0.386 -0.1323 -0.4471 -0.4178
 3595TIP3    H132344   3.630   2.323   0.378  0.6103  1.2241 -0.3175
 3595TIP3    H232345   3.514   2.374   0.296  0.6252  1.0635 -0.4404
 3596TIP3   OH232346   6.115   4.296   6.897  0.0747  0.6324  0.4740
 3596TIP3    H132347   6.191   4.252   6.937 -0.7061 -0.4333  0.8460
 3596TIP3    H232348   6.147   4.383   6.875  1.9110 -0.3019 -0.8850
 3597TIP3   OH232349   3.549   0.797   8.316 -0.2444 -0.7725 -0.3721
 3597TIP3    H132350   3.594   0.823   8.396  0.1597 -0.5371 -0.6729
 3597TIP3    H232351   3.604   0.831   8.245 -0.5638 -1.0347 -0.7496
 3598TIP3   OH232352   5.504   1.239   8.203  0.5433  0.2218  0.2825
 3598TIP3    H132353   5.547   1.227   8.287 -0.2799 -0.8469  0.5710
 3598TIP3    H232354   5.438   1.170   8.199  1.2515 -0.4023 -1.7033
 3599TIP3   OH232355   1.821   3.048   0.066 -1.1000  0.6405 -0.0735
 3599TIP3    H132356   1.774   3.099   0.000  2.6776  2.4468 -1.6972
 3599TIP3    H232357   1.826   2.960   0.030 -1.8645  0.8186 -0.6184
 3600TIP3   OH232358   6.068   2.032   7.382  0.6485 -0.0218 -0.1060
 3600TIP3    H132359   6.151   1.988   7.362  1.4011  1.1433  0.3417
 3600TIP3    H232360   6.003   1.984   7.332  1.5300 -1.2452 -0.1103
 3601TIP3   OH232361   2.937   2.593   0.718 -0.5261  0.1557  0.2505
 3601TIP3    H132362   2.920   2.500   0.729  1.9040 -0.4260 -0.2615
 3601TIP3    H232363   3.033   2.601   0.725 -0.7715  2.8809  2.1666
 3602TIP3   OH232364   6.123   5.111   1.876 -0.1236 -0.2094 -0.4009
 3602TIP3    H132365   6.134   5.036   1.817 -0.2024  0.4022 -1.2092
 3602TIP3    H232366   6.029   5.131   1.873 -0.4479 -1.2596  1.3134
 3603TIP3   OH232367   0.445   0.724   0.810 -0.3180 -0.2469  0.4262
 3603TIP3    H132368   0.487   0.657   0.864 -0.6560 -1.1935 -0.4522
 3603TIP3    H232369   0.400   0.675   0.741 -0.6172  0.8834 -0.2143
 3604TIP3   OH232370   2.075   6.781   0.018 -0.1877 -0.4270  0.4630
 3604TIP3    H132371   1.997   6.729   0.038 -1.0650 -0.0228 -1.5754
 3604TIP3    H232372   2.137   6.718  -0.018 -0.9359 -0.2839 -1.2036
 3605TIP3   OH232373   3.828   0.804   8.159  0.5902 -0.3060 -0.1908
 3605TIP3    H132374   3.900   0.823   8.098  0.5620  1.8783  0.3999
 3605TIP3    H232375   3.870   0.803   8.245  0.0228  0.3578  0.0983
 3606TIP3   OH232376   0.558   5.163   8.499 -0.0092  0.3433 -0.0005
 3606TIP3    H132377   0.627   5.150   8.434 -0.3307  0.7221 -0.4217
 3606TIP3    H232378   0.495   5.221   8.456 -0.2992  0.4755  0.5947
 3607TIP3   OH232379   0.070   1.756   0.705  0.5563  0.3735  0.5077
 3607TIP3    H132380   0.083   1.728   0.615  1.4099  1.3995  0.2825
 3607TIP3    H232381   0.028   1.842   0.698  0.1956  0.2502  1.0916
 3608TIP3   OH232382   3.306   2.424   8.130 -0.4432 -0.0825  0.1513
 3608TIP3    H132383   3.284   2.508   8.090 -0.4520  1.6414  3.3926
 3608TIP3    H232384   3.222   2.389   8.161 -0.3852 -1.1299 -0.8134
 3609TIP3   OH232385   1.460   0.093   6.788  0.5327 -0.3750 -0.4358
 3609TIP3    H132386   1.487   0.179   6.756 -0.3647 -0.2326 -0.8535
 3609TIP3    H232387   1.526   0.069   6.852  0.7012  0.7030 -0.1887
 3610TIP3   OH232388   2.079   1.248   1.677 -0.1793  0.5181  0.0988
 3610TIP3    H132389   2.134   1.288   1.744  0.9305  1.5681 -1.3733
 3610TIP3    H232390   2.138   1.194   1.625 -1.0459 -0.4082  0.0473
 3611TIP3   OH232391   4.351   3.248   7.517 -0.0539  0.1162  0.2252
 3611TIP3    H132392   4.382   3.163   7.486 -0.3586 -0.4078  1.3003
 3611TIP3    H232393   4.256   3.237   7.523 -0.3788  1.3193 -1.9011
 3612TIP3   OH232394   1.754   6.050   7.873 -0.2596  0.3774  0.0690
 3612TIP3    H132395   1.714   6.057   7.959  0.2824  1.4349  0.2500
 3612TIP3    H232396   1.834   5.999   7.887 -0.0890  0.6845  0.2285
 3613TIP3   OH232397   1.480   1.685   8.194  0.5923 -1.0609 -0.2704
 3613TIP3    H132398   1.392   1.666   8.226  0.3571  0.4894  0.0723
 3613TIP3    H232399   1.535   1.686   8.272  0.0668  2.4435  0.2064
 3614TIP3   OH232400   4.982   4.293   8.507 -0.6657  0.0702 -0.4403
 3614TIP3    H132401   4.904   4.342   8.533  0.2617 -0.4000  3.9692
 3614TIP3    H232402   5.043   4.360   8.476 -1.3478  0.9983  0.1739
 3615TIP3   OH232403   3.667   5.575   7.751 -1.1830  0.1210 -0.2898
 3615TIP3    H132404   3.583   5.535   7.729 -1.9170  0.7946  1.1029
 3615TIP3    H232405   3.722   5.502   7.780 -1.3980 -0.2836 -0.8904
 3616TIP3   OH232406   3.011   1.545   6.666 -0.4398 -0.2869  0.2569
 3616TIP3    H132407   3.054   1.608   6.608 -0.4617  0.3295  0.8957
 3616TIP3    H232408   2.940   1.508   6.613  0.8297 -1.3003 -0.8058
 3617TIP3   OH232409   3.848   4.972   8.214 -0.1088 -1.0271  0.2574
 3617TIP3    H132410   3.761   4.992   8.179 -0.5091 -0.7101  1.3857
 3617TIP3    H232411   3.864   4.881   8.188  0.3207 -0.3571 -2.1111
 3618TIP3   OH232412   0.443   3.869   2.436  0.0869  0.0314 -0.0024
 3618TIP3    H132413   0.428   3.956   2.472 -0.4859 -0.2069  0.3408
 3618TIP3    H232414   0.519   3.837   2.484 -0.4914 -0.1652  0.7954
 3619TIP3   OH232415   4.409   5.684   7.660  0.2349  0.7890  0.5494
 3619TIP3    H132416   4.330   5.691   7.712  0.8642 -0.1776  1.6874
 3619TIP3    H232417   4.388   5.620   7.592  0.2695 -0.0754  1.3328
 3620TIP3   OH232418   1.612   6.059   0.546 -0.1311 -0.1378 -0.1981
 3620TIP3    H132419   1.578   6.104   0.469 -1.2194  0.5885  0.6776
 3620TIP3    H232420   1.704   6.085   0.551 -0.1245  0.0227 -1.0953
 3621TIP3   OH232421   3.543   4.571   6.848  0.1953 -0.1637 -0.0541
 3621TIP3    H132422   3.616   4.534   6.799  0.5541  1.0528 -0.4762
 3621TIP3    H232423   3.558   4.665   6.846 -0.1020 -0.0329  1.9104
 3622TIP3   OH232424   4.629   3.623   0.679 -0.0838 -0.1909  0.1726
 3622TIP3    H132425   4.634   3.588   0.768 -0.7210 -0.7544 -0.0059
 3622TIP3    H232426   4.679   3.561   0.626 -1.4199 -1.0129 -0.1830
 3623TIP3   OH232427   2.326   1.886   0.135  0.5929 -0.7203 -0.4790
 3623TIP3    H132428   2.277   1.963   0.105  0.3286 -1.5801 -2.3345
 3623TIP3    H232429   2.280   1.858   0.214  1.1631  1.4540  0.7166
 3624TIP3   OH232430   1.724   3.078   0.645 -0.0698  0.1183 -0.9182
 3624TIP3    H132431   1.749   3.151   0.588  1.8564  1.0282  0.9581
 3624TIP3    H232432   1.635   3.099   0.674  0.4151  1.6722 -0.5085
 3625TIP3   OH232433   3.910   2.809   0.370  0.2112 -0.0351 -0.1090
 3625TIP3    H132434   3.951   2.822   0.285 -0.0440 -1.0246 -0.3921
 3625TIP3    H232435   3.951   2.730   0.405 -0.7770 -0.5204 -0.0024
 3626TIP3   OH232436   6.026   3.220   2.085 -0.2617  0.2412 -0.2317
 3626TIP3    H132437   6.073   3.281   2.028 -0.0374  0.7782  0.5128
 3626TIP3    H232438   6.035   3.135   2.042  0.2755  0.5660 -0.7690
 3627TIP3   OH232439   2.761   1.212   6.660  0.0627 -0.5187 -0.1634
 3627TIP3    H132440   2.671   1.231   6.685  0.1301 -0.3084 -0.0788
 3627TIP3    H232441   2.768   1.117   6.665 -0.3783 -0.5981 -0.9266
 3628TIP3   OH232442   2.751   0.032   0.494  0.0619 -0.2470  0.2227
 3628TIP3    H132443   2.680  -0.025   0.466  0.3046 -0.6473  0.4122
 3628TIP3    H232444   2.822   0.016   0.431  0.9158 -1.7759  1.5011
 3629TIP3   OH232445   3.314   2.448   2.194  0.1173  0.0587  0.3265
 3629TIP3    H132446   3.257   2.526   2.194 -0.0823 -0.0854  0.1805
 3629TIP3    H232447   3.402   2.483   2.185 -0.1227  0.1720 -2.4070
 3630TIP3   OH232448   4.261   4.880   1.969 -0.3104  0.0498  0.1974
 3630TIP3    H132449   4.184   4.917   1.925  0.1030  0.3753 -0.2642
 3630TIP3    H232450   4.234   4.791   1.993 -0.6041 -0.0821 -0.5744
 3631TIP3   OH232451   3.976   6.517   1.526  0.0758 -0.1360  0.4288
 3631TIP3    H132452   3.920   6.591   1.501 -0.1131 -0.3792  0.1101
 3631TIP3    H232453   4.022   6.546   1.604 -0.8994 -0.1265  1.0131
 3632TIP3   OH232454   2.443   4.234   0.627 -0.5095 -0.0200  0.1794
 3632TIP3    H132455   2.352   4.206   0.641 -0.4848  0.6504  1.9953
 3632TIP3    H232456   2.436   4.310   0.569 -0.8284 -1.6280 -2.0436
 3633TIP3   OH232457   5.373   3.920   7.572 -0.3099 -0.7127  0.0418
 3633TIP3    H132458   5.365   4.009   7.536  1.5212  0.1254  1.5367
 3633TIP3    H232459   5.351   3.929   7.664  0.5485 -1.6673  0.3590
 3634TIP3   OH232460   2.341   4.533   1.460 -0.4351 -0.0814  0.4200
 3634TIP3    H132461   2.394   4.553   1.383 -1.7139 -0.2498 -0.5439
 3634TIP3    H232462   2.362   4.442   1.481  0.0780  0.0323  0.4041
 3635TIP3   OH232463   5.828   6.609   0.976  0.1163 -0.1107  0.2762
 3635TIP3    H132464   5.889   6.536   0.987 -0.1157 -0.5496 -1.1228
 3635TIP3    H232465   5.743   6.567   0.962 -0.2479  0.4675  0.6976
 3636TIP3   OH232466   6.826   5.468   1.616  0.1883  0.0580  0.5892
 3636TIP3    H132467   6.897   5.443   1.558 -1.1447  3.3937 -2.8606
 3636TIP3    H232468   6.752   5.412   1.589 -0.4535  1.6606 -1.1859
 3637TIP3   OH232469   6.667   4.553   7.314 -0.3209  0.4810 -0.2333
 3637TIP3    H132470   6.577   4.585   7.305 -0.4799 -0.2522 -1.3374
 3637TIP3    H232471   6.678   4.492   7.242  1.5190  1.5783 -0.9533
 3638TIP3   OH232472   6.575   3.258   7.832  0.6953 -0.2576 -0.3075
 3638TIP3    H132473   6.670   3.269   7.834  0.9554 -1.3551 -2.7454
 3638TIP3    H232474   6.561   3.168   7.802 -1.0166  0.6208 -2.5052
 3639TIP3   OH232475   3.002   4.459   0.497  0.3281 -0.0536 -0.0402
 3639TIP3    H132476   3.083   4.461   0.446  0.0220  1.6002 -0.5064
 3639TIP3    H232477   3.025   4.407   0.575  1.7620  0.1524 -0.2886
 3640TIP3   OH232478   3.951   2.994   7.904 -0.1260  0.2250  0.1294
 3640TIP3    H132479   4.018   2.964   7.843 -0.7336  1.8120 -1.4013
 3640TIP3    H232480   3.987   2.974   7.990  1.2454 -1.1008 -0.6913
 3641TIP3   OH232481   2.144   2.892   7.760 -0.2302 -0.5182 -0.2542
 3641TIP3    H132482   2.064   2.931   7.724 -0.1974 -1.2826 -1.2053
 3641TIP3    H232483   2.119   2.862   7.847 -0.4580  0.9219  0.1989
 3642TIP3   OH232484   3.516   5.416   1.096  0.3277  0.2072  0.0660
 3642TIP3    H132485   3.512   5.507   1.127  1.3536 -0.4135  2.1956
 3642TIP3    H232486   3.468   5.366   1.163 -1.1357 -0.7436 -1.6080
 3643TIP3   OH232487   6.115   1.372   8.157 -0.2929  0.0895  0.2709
 3643TIP3    H132488   6.206   1.400   8.156 -0.0154 -0.5060  2.2802
 3643TIP3    H232489   6.114   1.299   8.219 -2.0954 -0.0934  0.0844
 3644TIP3   OH232490   6.452   5.844   0.210 -0.1504 -0.0584  0.3776
 3644TIP3    H132491   6.375   5.809   0.255  1.3314 -0.9319  2.4094
 3644TIP3    H232492   6.522   5.838   0.275  1.4509  1.5490 -1.0916
 3645TIP3   OH232493   6.003   0.667   8.544  0.9960  0.0486  0.0018
 3645TIP3    H132494   5.932   0.635   8.599  0.7620 -1.2943 -1.0383
 3645TIP3    H232495   6.080   0.667   8.601  0.6560 -0.8340  0.4688
 3646TIP3   OH232496   0.164   4.666   0.434 -0.0851 -0.2144  0.3780
 3646TIP3    H132497   0.232   4.720   0.475  1.1639 -1.2519 -0.2198
 3646TIP3    H232498   0.182   4.672   0.340  1.0356 -2.7425  0.3487
 3647TIP3   OH232499   5.859   0.568   7.222  0.8459 -0.3847 -0.1755
 3647TIP3    H132500   5.775   0.614   7.218  0.2867 -1.1103  1.8823
 3647TIP3    H232501   5.897   0.580   7.135 -0.9697  0.7355 -0.8761
 3648TIP3   OH232502   4.736   0.570   0.112  0.2165 -0.0153 -0.5633
 3648TIP3    H132503   4.653   0.528   0.088 -0.2854 -0.3113  1.4921
 3648TIP3    H232504   4.760   0.622   0.035 -0.5455 -1.9165 -2.1610
 3649TIP3   OH232505   6.719   5.146   7.560 -0.2672  0.1341 -0.0923
 3649TIP3    H132506   6.626   5.129   7.540  0.1580 -3.0240  0.0495
 3649TIP3    H232507   6.767   5.100   7.491  1.1949  0.4932  0.6411
 3650TIP3   OH232508   1.560   3.688   7.840  0.2501  0.0601 -0.1018
 3650TIP3    H132509   1.520   3.618   7.790 -0.2255 -0.3182  0.7815
 3650TIP3    H232510   1.519   3.682   7.927  0.5536  1.1226  0.1282
 3651TIP3   OH232511   6.873   0.555   8.627  0.2608  0.4369  0.5281
 3651TIP3    H132512   6.886   0.619   8.558  1.4618  2.5104  2.5629
 3651TIP3    H232513   6.955   0.505   8.630 -0.0583 -0.1404  0.0427
 3652TIP3   OH232514   6.055   4.222   0.634 -0.0883  0.0120  0.0980
 3652TIP3    H132515   6.059   4.197   0.542 -1.8349  1.5693 -0.4626
 3652TIP3    H232516   5.996   4.297   0.636  2.0869  1.8110  2.1216
 3653TIP3   OH232517   6.514   6.755   7.044 -0.1916  0.5355 -0.5709
 3653TIP3    H132518   6.463   6.687   7.089 -0.4279  0.7497 -0.5094
 3653TIP3    H232519   6.557   6.803   7.115 -1.0678  1.2801 -0.5051
 3654TIP3   OH232520   4.182   5.956   7.149 -0.5210  0.6663  0.7200
 3654TIP3    H132521   4.171   5.861   7.143 -0.2289  0.6499  0.3515
 3654TIP3    H232522   4.261   5.973   7.097 -0.1619  1.0268  1.3710
 3655TIP3   OH232523   1.834   6.033   6.765  0.4472  0.2432 -0.5434
 3655TIP3    H132524   1.812   6.005   6.677 -1.0283  0.2520 -0.1900
 3655TIP3    H232525   1.769   6.099   6.787  1.1418  0.6589  0.3429
 3656TIP3   OH232526   5.533   4.630   8.528 -0.0008 -0.2208  0.2983
 3656TIP3    H132527   5.618   4.673   8.538  0.0729 -0.7102  2.2511
 3656TIP3    H232528   5.471   4.701   8.514  0.6464  0.1716 -0.6939
 3657TIP3   OH232529   3.141   5.275   0.549  0.0818  0.4469 -0.4719
 3657TIP3    H132530   3.155   5.196   0.600 -0.1798  0.4385 -0.4086
 3657TIP3    H232531   3.224   5.291   0.505 -0.3097 -0.7364 -1.7036
 3658TIP3   OH232532   0.676   3.405   7.164  0.3133  0.1807 -0.0882
 3658TIP3    H132533   0.585   3.374   7.168  0.1661  0.6313  0.1186
 3658TIP3    H232534   0.728   3.328   7.186  0.1055 -0.6373 -2.2125
 3659TIP3   OH232535   0.638   4.415   6.359 -0.1575 -0.1660  0.2865
 3659TIP3    H132536   0.728   4.392   6.385  0.3830  0.6985 -0.7337
 3659TIP3    H232537   0.611   4.481   6.424  0.6706  0.9628 -0.4642
 3660TIP3   OH232538   3.037   6.858   1.233 -0.7520  0.4235 -0.2416
 3660TIP3    H132539   3.079   6.868   1.148  2.0062  1.3263  1.0948
 3660TIP3    H232540   3.048   6.765   1.255  0.1070  0.5465 -0.1356
 3661TIP3   OH232541   6.012   1.052   1.365  0.5477 -0.3306 -0.0105
 3661TIP3    H132542   5.997   1.132   1.314 -1.1887 -1.4587 -1.3663
 3661TIP3    H232543   5.948   1.056   1.436  0.9006 -0.2190  0.3050
 3662TIP3   OH232544   4.137   1.963   7.166 -0.6865 -0.4102 -0.2406
 3662TIP3    H132545   4.229   1.941   7.183 -0.0740  2.9958  1.9405
 3662TIP3    H232546   4.087   1.900   7.217  0.4857 -1.2258 -0.0571
 3663TIP3   OH232547   2.428   6.590   7.175 -0.1955 -0.0119 -0.2728
 3663TIP3    H132548   2.463   6.585   7.086 -0.9872  1.8335 -0.7371
 3663TIP3    H232549   2.400   6.681   7.185 -0.0029 -0.1293  1.9284
 3664TIP3   OH232550   2.826   1.843   8.139 -0.5868  0.0202 -0.1929
 3664TIP3    H132551   2.752   1.833   8.079 -1.8102 -0.8232  1.3515
 3664TIP3    H232552   2.811   1.776   8.206  1.2183  0.3070  0.5404
 3665TIP3   OH232553   1.650   5.904   8.116  0.5594  0.0782 -0.1544
 3665TIP3    H132554   1.670   5.862   8.199  0.7759 -0.6876 -0.5858
 3665TIP3    H232555   1.555   5.916   8.117  0.6780  1.2002  0.7121
 3666TIP3   OH232556   3.489   0.629   7.519  0.1295  0.0255 -0.2617
 3666TIP3    H132557   3.580   0.625   7.488 -0.8045 -2.2348 -3.1301
 3666TIP3    H232558   3.482   0.559   7.583  0.4907  0.5829  0.4110
 3667TIP3   OH232559   1.603   3.143   0.307  0.2136  0.2577 -0.7507
 3667TIP3    H132560   1.551   3.110   0.234 -0.5032  1.5005 -0.8374
 3667TIP3    H232561   1.557   3.222   0.334  0.0558 -0.5396  1.5087
 3668TIP3   OH232562   2.804   5.188   7.160 -0.4622  0.7538  0.3257
 3668TIP3    H132563   2.817   5.095   7.146  2.4757  1.4659 -3.3661
 3668TIP3    H232564   2.710   5.198   7.175 -1.0224 -2.6765 -0.2325
 3669TIP3   OH232565   3.047   3.189   0.429 -0.2447  0.1007 -0.2170
 3669TIP3    H132566   2.984   3.117   0.420 -1.6125  1.3031 -0.5872
 3669TIP3    H232567   3.076   3.184   0.520 -1.1764 -0.2604  0.0786
 3670TIP3   OH232568   0.952   1.000   7.415 -0.3924 -0.2849 -0.5249
 3670TIP3    H132569   0.927   0.927   7.359  1.2987 -1.9168  0.7266
 3670TIP3    H232570   0.999   0.959   7.488  1.6631  2.1288 -0.3639
 3671TIP3   OH232571   1.242   1.517   1.279  0.2185 -0.0605  0.0171
 3671TIP3    H132572   1.196   1.578   1.220  0.4285  0.9553  0.8749
 3671TIP3    H232573   1.236   1.558   1.365  1.8894 -0.3889  0.3167
 3672TIP3   OH232574   1.586   3.982   7.825 -0.0570  0.1915  0.0249
 3672TIP3    H132575   1.570   3.888   7.824 -1.6843  0.4225  1.0040
 3672TIP3    H232576   1.613   4.003   7.735 -1.1472 -0.9761 -0.6056
 3673TIP3   OH232577   2.861   0.387   7.092  1.0318  0.6555  0.1264
 3673TIP3    H132578   2.860   0.384   6.997  0.4530  0.5656  0.1302
 3673TIP3    H232579   2.910   0.310   7.119 -0.6726 -0.5541 -0.0675
 3674TIP3   OH232580   1.630   6.507   7.353  0.1966  0.4288 -0.2838
 3674TIP3    H132581   1.594   6.595   7.343 -0.0031  0.2599 -1.2150
 3674TIP3    H232582   1.575   6.466   7.420 -0.1539  0.7873 -0.3435
 3675TIP3   OH232583   6.627   1.915   0.215 -0.4573 -0.5046 -0.4190
 3675TIP3    H132584   6.578   1.939   0.293  0.2714 -0.8684  0.1678
 3675TIP3    H232585   6.632   1.820   0.218 -0.8436 -0.5585 -1.1804
 3676TIP3   OH232586   6.542   0.958   2.647  0.0184 -0.2755 -0.1615
 3676TIP3    H132587   6.485   1.001   2.710 -0.0096  1.9835 -1.6206
 3676TIP3    H232588   6.612   0.920   2.699 -2.1010 -2.1237  1.5725
 3677TIP3   OH232589   4.252   4.605   1.329  0.2358 -0.2565 -0.0774
 3677TIP3    H132590   4.284   4.592   1.240  2.1605 -0.2186  0.5582
 3677TIP3    H232591   4.252   4.700   1.341 -1.8067 -0.1430 -0.6025
 3678TIP3   OH232592   0.862   1.080   1.154  0.7356  0.1383 -0.2494
 3678TIP3    H132593   0.812   1.015   1.204  2.3182  0.0913  1.4065
 3678TIP3    H232594   0.842   1.061   1.063 -1.9045 -0.1222  0.2821
 3679TIP3   OH232595   4.110   0.854   1.711 -0.4742 -0.4216  0.1761
 3679TIP3    H132596   4.175   0.784   1.704  0.7267  0.6828 -0.2108
 3679TIP3    H232597   4.086   0.855   1.804  1.5851  0.4320  0.7507
 3680TIP3   OH232598   6.590   6.099   1.912  0.0701  0.2917 -0.2262
 3680TIP3    H132599   6.598   6.003   1.909  1.1448  0.2877  1.4005
 3680TIP3    H232600   6.531   6.116   1.985  2.1867  0.8875  1.4493
 3681TIP3   OH232601   4.322   1.122   8.577  0.4408  0.2965  0.9829
 3681TIP3    H132602   4.417   1.122   8.567  0.6355  1.9116  2.4516
 3681TIP3    H232603   4.298   1.215   8.576 -0.9153 -0.0128  2.2331
 3682TIP3   OH232604   3.765   0.877   7.320  0.0607  0.1251 -0.7054
 3682TIP3    H132605   3.835   0.931   7.283 -0.4920 -0.0031 -1.9914
 3682TIP3    H232606   3.808   0.796   7.345  0.3815  0.0493 -1.4780
 3683TIP3   OH232607   1.086   5.272   1.001  0.2044 -0.4658  0.6432
 3683TIP3    H132608   1.008   5.290   1.053 -0.2227 -1.7196  0.4700
 3683TIP3    H232609   1.081   5.332   0.927 -0.4758 -0.3879  0.7523
 3684TIP3   OH232610   3.012   2.250   2.021 -0.3393  0.2356 -0.1502
 3684TIP3    H132611   3.107   2.250   2.023 -0.3007  0.2005  2.8848
 3684TIP3    H232612   2.988   2.341   2.003  0.3871  1.0481  2.5814
 3685TIP3   OH232613   5.383   5.986   1.370  0.0126  0.0099  0.0888
 3685TIP3    H132614   5.394   5.975   1.276  0.9835  0.2142  0.1612
 3685TIP3    H232615   5.439   6.061   1.392  1.0600 -1.0004  1.0493
 3686TIP3   OH232616   0.875   6.167   7.678 -0.0010  0.0228  0.1144
 3686TIP3    H132617   0.818   6.135   7.747  0.2605  0.9231  0.7678
 3686TIP3    H232618   0.815   6.200   7.611 -0.2625  0.4015  0.5261
 3687TIP3   OH232619   4.995   4.082   0.043  0.0074  0.0584 -0.3870
 3687TIP3    H132620   4.980   4.164  -0.003  0.2580  0.9603  1.0829
 3687TIP3    H232621   5.042   4.027  -0.020  0.8150  1.4407 -1.0289
 3688TIP3   OH232622   6.254   5.899   8.536  0.2332 -0.1100  0.4729
 3688TIP3    H132623   6.172   5.853   8.555  0.3106 -0.2904  0.3614
 3688TIP3    H232624   6.232   5.992   8.547  0.2121 -0.1958  1.2192
 3689TIP3   OH232625   2.269   2.481   8.519  0.1233  0.0432  0.4941
 3689TIP3    H132626   2.301   2.494   8.430 -0.7555 -0.4288  0.0891
 3689TIP3    H232627   2.263   2.569   8.556  0.1167  0.2751 -0.0597
 3690TIP3   OH232628   5.997   4.173   8.657  0.0847  0.5112 -0.3750
 3690TIP3    H132629   5.940   4.179   8.580  1.9591  0.3504 -1.8588
 3690TIP3    H232630   6.040   4.258   8.662  0.1317  0.4487  0.3859
 3691TIP3   OH232631   5.958   0.008   7.557  0.0378 -0.1298  0.0440
 3691TIP3    H132632   5.915   0.092   7.546 -1.8022 -0.7904  1.6659
 3691TIP3    H232633   6.016   0.020   7.632 -0.0449 -0.2268  0.1241
 3692TIP3   OH232634   2.589   5.838   8.000  0.2824  0.3227  0.7154
 3692TIP3    H132635   2.600   5.913   7.940 -0.6802 -0.8050 -0.9609
 3692TIP3    H232636   2.544   5.772   7.947  0.2035 -1.0817  2.4569
 3693TIP3   OH232637   1.129   1.488   6.360  0.1615  0.5259 -0.2985
 3693TIP3    H132638   1.197   1.426   6.387  2.1113  1.4147 -2.7713
 3693TIP3    H232639   1.048   1.437   6.361  1.4078 -1.5843 -0.5604
 3694TIP3   OH232640   1.800   4.920   0.093 -0.6334 -0.2291 -0.0166
 3694TIP3    H132641   1.735   4.990   0.096 -1.0447 -0.6288  0.3102
 3694TIP3    H232642   1.851   4.931   0.174 -0.4954 -0.1115 -0.1193
 3695TIP3   OH232643   4.662   4.003   7.293  0.0301 -1.1545  0.6288
 3695TIP3    H132644   4.725   4.018   7.222 -0.3271 -3.1980 -0.1949
 3695TIP3    H232645   4.689   4.063   7.362  1.4618 -0.3412 -0.5672
 3696TIP3   OH232646   3.103   3.533   0.022 -0.4233 -0.2869  0.2753
 3696TIP3    H132647   3.159   3.472   0.070  1.4006  0.0608 -1.2726
 3696TIP3    H232648   3.160   3.567  -0.047 -2.5279  0.2850 -1.2460
 3697TIP3   OH232649   1.602   0.354   0.663 -0.2027 -0.0636 -0.7065
 3697TIP3    H132650   1.669   0.415   0.631 -0.3209  2.2426  2.8883
 3697TIP3    H232651   1.520   0.387   0.627 -0.2973  2.2389  1.3681
 3698TIP3   OH232652   0.105   1.746   2.372 -0.4650 -0.4713 -0.2385
 3698TIP3    H132653   0.043   1.805   2.414  1.8698  2.0704 -0.0066
 3698TIP3    H232654   0.161   1.716   2.444  0.2150 -0.4887 -0.7642
 3699TIP3   OH232655   5.619   1.372   1.667 -0.2943  0.2482  0.4051
 3699TIP3    H132656   5.568   1.415   1.735  0.1982  0.9219  0.3664
 3699TIP3    H232657   5.555   1.335   1.607 -0.7435  1.0979  0.3441
 3700TIP3   OH232658   1.395   3.230   0.670 -0.9034  0.5269 -0.0545
 3700TIP3    H132659   1.388   3.306   0.727  0.5142  1.3627 -0.9435
 3700TIP3    H232660   1.416   3.158   0.730  2.0140  1.6454  0.4578
 3701TIP3   OH232661   0.142   2.762   0.099  0.2191 -0.4442 -0.4616
 3701TIP3    H132662   0.102   2.734   0.181  2.0093 -0.9117  0.3155
 3701TIP3    H232663   0.071   2.759   0.035 -1.0033 -0.9944  0.8652
 3702TIP3   OH232664   4.572   0.750   1.137  0.2783  0.2920  0.0788
 3702TIP3    H132665   4.567   0.810   1.212 -0.7941  0.6808 -0.2894
 3702TIP3    H232666   4.661   0.760   1.104  0.7223  0.2240  1.2037
 3703TIP3   OH232667   5.200   4.024   0.311  0.7158  0.4381 -0.2557
 3703TIP3    H132668   5.203   4.090   0.241  2.2858  0.4762 -0.1918
 3703TIP3    H232669   5.260   4.057   0.378 -0.8311  0.4434  1.1841
 3704TIP3   OH232670   2.156   4.593   8.413 -0.1661 -0.1042 -0.0726
 3704TIP3    H132671   2.067   4.558   8.418 -0.0224 -0.3963  0.6461
 3704TIP3    H232672   2.145   4.684   8.385 -0.8089  0.3019  1.4158
 3705TIP3   OH232673   4.840   1.380   7.898  0.2067  0.1123  0.1787
 3705TIP3    H132674   4.902   1.328   7.949  0.1817 -0.2794 -0.1897
 3705TIP3    H232675   4.782   1.316   7.859 -1.8434  0.5433  2.2853
 3706TIP3   OH232676   1.494   1.452   7.520 -0.1962  0.4048 -0.7351
 3706TIP3    H132677   1.471   1.518   7.455  0.3753 -0.8712 -2.2773
 3706TIP3    H232678   1.429   1.383   7.508  0.2972 -0.1279 -0.3876
 3707TIP3   OH232679   2.562   5.512   6.888  0.7035  0.2662  0.1518
 3707TIP3    H132680   2.523   5.454   6.823  0.6298  1.3864 -0.8501
 3707TIP3    H232681   2.525   5.483   6.972 -0.5132 -0.1487 -0.5028
 3708TIP3   OH232682   0.304   0.452   6.404  0.2717 -0.5442 -0.2150
 3708TIP3    H132683   0.343   0.433   6.489  1.8523  0.0325 -0.7730
 3708TIP3    H232684   0.308   0.370   6.356 -0.0289 -0.7078  0.0375
 3709TIP3   OH232685   0.381   5.070   7.009  0.0854 -0.6519  0.2379
 3709TIP3    H132686   0.371   5.163   6.990  3.8058 -0.3936 -1.2079
 3709TIP3    H232687   0.312   5.051   7.072 -2.2483  2.5111 -1.0842
 3710TIP3   OH232688   2.578   2.388   6.647  0.3515  0.0187 -0.0577
 3710TIP3    H132689   2.607   2.475   6.621 -0.0066  0.3505  0.6158
 3710TIP3    H232690   2.501   2.404   6.702 -0.7098 -0.8022 -1.2426
 3711TIP3   OH232691   5.819   0.738   8.070 -0.1219 -0.1664  0.4297
 3711TIP3    H132692   5.879   0.685   8.123 -1.0323  0.3143  1.9945
 3711TIP3    H232693   5.830   0.704   7.981  0.2449 -2.1423  1.1681
 3712TIP3   OH232694   4.679   5.248   1.172 -0.3655  0.5908 -0.0626
 3712TIP3    H132695   4.771   5.265   1.152  0.0757 -0.6825  0.7811
 3712TIP3    H232696   4.644   5.206   1.093  0.3409 -0.8326  0.3544
 3713TIP3   OH232697   3.424   5.869   8.106  0.5660  0.3970  0.6456
 3713TIP3    H132698   3.380   5.918   8.037  0.3779 -1.2958 -0.4980
 3713TIP3    H232699   3.354   5.827   8.155  0.7024  1.5170  1.8854
 3714TIP3   OH232700   1.783   0.863   0.844 -0.2148 -0.0634 -0.2503
 3714TIP3    H132701   1.776   0.866   0.749  0.1472  0.4248 -0.2675
 3714TIP3    H232702   1.707   0.813   0.873 -1.2154  1.1773 -0.6803
 3715TIP3   OH232703   5.974   1.411   7.901  0.0580  0.1175 -0.4590
 3715TIP3    H132704   5.894   1.436   7.947  0.4949  0.9931 -0.1576
 3715TIP3    H232705   6.032   1.376   7.969 -0.6789 -2.1937 -0.9142
 3716TIP3   OH232706   0.568   5.613   7.873  0.2487 -0.0581  0.2212
 3716TIP3    H132707   0.537   5.627   7.783  2.6297  0.6891 -0.5506
 3716TIP3    H232708   0.506   5.550   7.909 -1.2374  0.1945 -1.6712
 3717TIP3   OH232709   2.433   4.730   1.652 -0.0867  0.4145 -0.0252
 3717TIP3    H132710   2.388   4.805   1.614 -0.6815 -0.4447 -1.0877
 3717TIP3    H232711   2.389   4.654   1.614 -0.2869 -0.5082  1.9058
 3718TIP3   OH232712   4.751   2.946   0.714  0.1344  0.6036  0.5013
 3718TIP3    H132713   4.779   2.897   0.791  2.0310 -0.5616 -0.8384
 3718TIP3    H232714   4.672   2.901   0.684 -0.8065  1.2658  1.8843
 3719TIP3   OH232715   2.763   5.446   8.001 -0.0635  0.0927  0.4323
 3719TIP3    H132716   2.780   5.443   8.095 -0.2607  1.7907  0.5671
 3719TIP3    H232717   2.768   5.539   7.979  0.6765 -0.3299 -1.3820
 3720TIP3   OH232718   4.721   4.756   1.776  0.1816 -0.2913 -0.4828
 3720TIP3    H132719   4.640   4.732   1.731 -1.9884  2.1183  1.7966
 3720TIP3    H232720   4.727   4.695   1.849 -1.4307  1.3822  1.1630
 3721TIP3   OH232721   3.590   1.456   1.931 -0.2864  0.3237  0.6014
 3721TIP3    H132722   3.535   1.448   2.009 -1.3605  0.5194 -0.1126
 3721TIP3    H232723   3.663   1.396   1.947  0.8367  2.1142  2.8043
 3722TIP3   OH232724   1.745   2.503   0.911  0.1604 -0.6976  0.0044
 3722TIP3    H132725   1.650   2.514   0.915 -0.0415 -1.8745 -1.0359
 3722TIP3    H232726   1.769   2.535   0.824  0.6751 -0.6797  0.1496
 3723TIP3   OH232727   4.781   6.434   2.706  0.3671  0.0048  0.7679
 3723TIP3    H132728   4.694   6.394   2.703  0.5307 -0.3559 -1.4029
 3723TIP3    H232729   4.841   6.359   2.704  0.6801  0.2577 -1.0083
 3724TIP3   OH232730   3.852   4.400   7.950  0.1592  0.1169 -0.3451
 3724TIP3    H132731   3.824   4.487   7.977 -0.3553  0.2080 -1.1351
 3724TIP3    H232732   3.774   4.360   7.911  0.6797 -0.2647 -1.0307
 3725TIP3   OH232733   5.546   2.917   1.104 -0.6418  0.1378 -0.0853
 3725TIP3    H132734   5.560   2.932   1.198 -2.1145 -0.7658  0.3211
 3725TIP3    H232735   5.563   3.002   1.064 -0.2559  0.6201  1.0414
 3726TIP3   OH232736   3.353   0.858   0.082 -0.2383 -0.5423  0.1407
 3726TIP3    H132737   3.325   0.935   0.132 -0.1338 -0.9817  0.8865
 3726TIP3    H232738   3.279   0.838   0.025 -0.4919 -0.2356  0.3594
 3727TIP3   OH232739   0.650   2.544   7.535 -0.0278  0.3623 -0.5065
 3727TIP3    H132740   0.610   2.507   7.614 -0.9377  1.0315 -0.6376
 3727TIP3    H232741   0.687   2.468   7.490  2.0422  0.1472  1.3566
 3728TIP3   OH232742   1.528   6.341   7.568  0.0072 -0.3958 -0.0206
 3728TIP3    H132743   1.476   6.380   7.637 -2.1959 -2.3755 -0.4307
 3728TIP3    H232744   1.608   6.312   7.612 -0.6222 -0.1480  1.3500
 3729TIP3   OH232745   4.329   4.910   0.795 -0.1760  0.3127  0.6532
 3729TIP3    H132746   4.356   4.999   0.772 -0.1107  0.6558  2.0089
 3729TIP3    H232747   4.280   4.880   0.718  0.8045  1.0699 -0.3050
 3730TIP3   OH232748   5.780   4.293   0.501  0.2148  0.1499  0.6832
 3730TIP3    H132749   5.796   4.291   0.407 -0.8451 -0.1749  0.5003
 3730TIP3    H232750   5.769   4.386   0.522  0.0780  0.1890  0.4289
 3731TIP3   OH232751   1.163   2.993   0.576 -0.2407 -0.6078  0.1972
 3731TIP3    H132752   1.187   2.931   0.508 -1.5990 -1.1579  0.1818
 3731TIP3    H232753   1.171   2.944   0.657 -0.4062 -0.5223  0.2657
 3732TIP3   OH232754   6.781   4.819   7.423  0.4362  0.5111  0.3816
 3732TIP3    H132755   6.793   4.729   7.392 -1.0992  0.4058  0.0071
 3732TIP3    H232756   6.850   4.832   7.488  1.0731 -0.7129 -0.0258
 3733TIP3   OH232757   2.649   6.248   1.502  0.5093  0.0917  0.7817
 3733TIP3    H132758   2.572   6.300   1.526 -1.2444 -2.1454  0.3362
 3733TIP3    H232759   2.664   6.190   1.577 -0.5866 -2.0076 -0.5141
 3734TIP3   OH232760   5.739   3.218   8.068  0.1507  0.2398  0.0033
 3734TIP3    H132761   5.664   3.265   8.106  1.1606  1.2292  0.8655
 3734TIP3    H232762   5.775   3.279   8.004 -1.1465 -1.1635 -2.1845
 3735TIP3   OH232763   3.704   1.107   6.582 -0.2833 -0.0344 -0.0410
 3735TIP3    H132764   3.625   1.161   6.584 -0.9267 -0.9545  0.1601
 3735TIP3    H232765   3.672   1.019   6.559  0.7522 -0.3070 -0.4936
 3736TIP3   OH232766   6.271   5.737   0.911 -0.3751 -0.2064  0.0146
 3736TIP3    H132767   6.306   5.690   0.835  0.4332  1.8285 -0.9519
 3736TIP3    H232768   6.229   5.669   0.963 -0.5556 -1.7713 -2.0070
 3737TIP3   OH232769   4.664   2.079   1.550  0.2990 -0.8301 -0.1800
 3737TIP3    H132770   4.717   2.155   1.527 -1.2800  0.4541  0.2232
 3737TIP3    H232771   4.657   2.084   1.646 -2.7326  0.6887 -0.3491
 3738TIP3   OH232772   1.482   2.977   0.116  0.4460  0.4037 -0.4731
 3738TIP3    H132773   1.532   2.899   0.090 -0.9556  0.1721 -2.7995
 3738TIP3    H232774   1.398   2.942   0.146 -0.1299  0.9753 -1.3747
 3739TIP3   OH232775   5.947   1.290   1.228  0.4819 -0.2648 -0.4052
 3739TIP3    H132776   6.020   1.348   1.249  1.5221 -1.3929 -0.7443
 3739TIP3    H232777   5.928   1.306   1.136  1.9247 -1.6290 -0.9844
 3740TIP3   OH232778   5.387   4.554   7.656 -0.0935  0.0591  0.3434
 3740TIP3    H132779   5.363   4.627   7.599  0.3971  0.1189  0.2161
 3740TIP3    H232780   5.463   4.514   7.615 -1.7125 -2.0064 -0.8875
 3741TIP3   OH232781   0.268   6.123   1.266 -0.2148 -0.4200  0.1632
 3741TIP3    H132782   0.348   6.104   1.217  0.1729 -0.5705  0.8435
 3741TIP3    H232783   0.295   6.187   1.332 -1.4320  2.4950 -1.9333
 3742TIP3   OH232784   5.577   0.577   2.521  0.3700  0.0466  0.1844
 3742TIP3    H132785   5.524   0.508   2.562  0.0179  0.2637  0.1066
 3742TIP3    H232786   5.515   0.623   2.464  0.4665  0.7630  0.6456
 3743TIP3   OH232787   2.748   4.329   7.453  0.0695  0.2827  0.0304
 3743TIP3    H132788   2.811   4.402   7.455 -0.3600  0.6395  1.0742
 3743TIP3    H232789   2.801   4.252   7.436  0.4192  0.9381 -2.2292
 3744TIP3   OH232790   1.856   0.923   2.495  0.2905 -0.1623 -0.4383
 3744TIP3    H132791   1.761   0.911   2.492  0.3112 -0.4243 -0.0626
 3744TIP3    H232792   1.872   1.002   2.444 -0.1839  0.1851 -0.0506
 3745TIP3   OH232793   4.408   3.605   1.461  0.0754 -0.3879  0.4530
 3745TIP3    H132794   4.463   3.534   1.494 -0.4809 -0.7415  0.6447
 3745TIP3    H232795   4.468   3.665   1.418  0.7493 -0.2198  1.5906
 3746TIP3   OH232796   1.418   4.055   1.213 -0.7368 -0.2555  1.0681
 3746TIP3    H132797   1.383   4.122   1.154 -1.3676  0.1253  1.8604
 3746TIP3    H232798   1.409   3.973   1.165 -1.6680 -0.0108  0.8081
 3747TIP3   OH232799   3.804   6.496   7.527  0.0143  0.2145 -0.4234
 3747TIP3    H132800   3.782   6.417   7.576 -2.0808  1.2893  0.4796
 3747TIP3    H232801   3.856   6.548   7.588 -1.6506  1.0636  0.3203
 3748TIP3   OH232802   3.878   0.259   7.685  0.7077  0.1577  0.1470
 3748TIP3    H132803   3.866   0.194   7.617 -0.7963  2.0510 -1.5536
 3748TIP3    H232804   3.944   0.319   7.651  2.4432 -0.6609  1.8938
 3749TIP3   OH232805   4.293   6.617   2.453  0.7085 -0.3420  0.2899
 3749TIP3    H132806   4.340   6.551   2.503  0.4182 -1.1116 -0.4414
 3749TIP3    H232807   4.357   6.688   2.441  1.0864 -0.5762  0.8876
 3750TIP3   OH232808   5.380   2.027   1.264  0.4564  0.4416 -0.5316
 3750TIP3    H132809   5.287   2.008   1.263  0.2183  1.2175  1.7391
 3750TIP3    H232810   5.390   2.098   1.327  2.6499 -0.0607 -0.2084
 3751TIP3   OH232811   3.633   0.241   8.046  0.1776 -0.0424  0.3079
 3751TIP3    H132812   3.728   0.238   8.041  0.1190 -0.8303 -0.6575
 3751TIP3    H232813   3.603   0.223   7.957 -0.8722 -2.1079  1.0104
 3752TIP3   OH232814   0.179   4.232   1.689  0.5128 -0.2512 -0.3527
 3752TIP3    H132815   0.119   4.232   1.763  1.1378 -0.1020  0.1665
 3752TIP3    H232816   0.142   4.295   1.628  1.0050  1.1107  0.7016
 3753TIP3   OH232817   1.482   2.228   8.085  0.2441 -1.1114 -0.4320
 3753TIP3    H132818   1.393   2.246   8.057  0.2168 -0.7949 -0.1473
 3753TIP3    H232819   1.474   2.153   8.144 -0.0209 -0.2042  0.7166
 3754TIP3   OH232820   2.619   6.091   7.413 -0.6997  0.6137  0.1108
 3754TIP3    H132821   2.622   6.159   7.481 -0.5453  0.1495  0.5680
 3754TIP3    H232822   2.699   6.105   7.363  0.4459 -0.5572  1.5087
 3755TIP3   OH232823   6.745   0.924   8.046  0.6939  0.1753 -0.3529
 3755TIP3    H132824   6.670   0.869   8.070  0.5143  0.9065  0.8417
 3755TIP3    H232825   6.820   0.883   8.090  0.8084  0.0700 -0.6440
 3756TIP3   OH232826   0.126   6.546   7.967 -0.7694 -0.1496 -0.0905
 3756TIP3    H132827   0.051   6.502   8.007 -0.7813  0.3810  0.4965
 3756TIP3    H232828   0.136   6.627   8.018  2.1096 -1.5867  1.8476
 3757TIP3   OH232829   2.440   3.828   6.898  0.2259  0.4140  0.1991
 3757TIP3    H132830   2.362   3.827   6.954  0.7820  0.4396  0.9840
 3757TIP3    H232831   2.455   3.920   6.879 -0.4100  0.3590 -0.6468
 3758TIP3   OH232832   1.588   6.854   7.723 -0.3065  0.4835 -0.2499
 3758TIP3    H132833   1.652   6.892   7.664 -1.0979  1.1817 -0.6741
 3758TIP3    H232834   1.629   6.773   7.754  0.6363  0.7574 -0.7569
 3759TIP3   OH232835   5.675   0.447   2.796 -0.3000 -0.1942  0.0597
 3759TIP3    H132836   5.610   0.496   2.747 -1.7190 -0.7977  1.2743
 3759TIP3    H232837   5.702   0.377   2.737  1.6442  1.8227 -1.6381
 3760TIP3   OH232838   5.851   6.440   1.809  0.6267  0.3488 -0.0593
 3760TIP3    H132839   5.797   6.489   1.872 -0.7396 -0.6941 -0.3801
 3760TIP3    H232840   5.857   6.352   1.846  1.7670  0.3251 -0.2601
 3761TIP3   OH232841   3.941   4.942   1.375 -0.2652  0.1255 -0.0110
 3761TIP3    H132842   3.996   4.893   1.436 -1.0011 -1.1447 -0.3193
 3761TIP3    H232843   3.995   4.956   1.298 -0.1125 -0.4292 -0.0089
 3762TIP3   OH232844   3.478   6.325   7.432  0.2981 -0.0076 -0.5045
 3762TIP3    H132845   3.469   6.352   7.523 -0.1423  0.3250 -0.6436
 3762TIP3    H232846   3.520   6.239   7.436 -1.2515 -0.7559  0.0752
 3763TIP3   OH232847   2.376   6.458   0.346  0.1466 -0.3825 -0.4727
 3763TIP3    H132848   2.329   6.500   0.273 -2.4236 -0.3271  1.0985
 3763TIP3    H232849   2.321   6.384   0.371  0.2519  0.3651  2.2314
 3764TIP3   OH232850   6.115   6.577   6.513 -0.5356  0.2964  0.1845
 3764TIP3    H132851   6.044   6.516   6.495 -1.3485  1.0077  0.8994
 3764TIP3    H232852   6.131   6.569   6.607  2.1300 -1.7425 -0.3424
 3765TIP3   OH232853   0.166   1.680   1.851  0.5407  0.4459  0.4359
 3765TIP3    H132854   0.190   1.686   1.758 -0.3410  0.8116  0.2224
 3765TIP3    H232855   0.241   1.637   1.892  0.4432 -0.8456 -0.6470
 3766TIP3   OH232856   4.270   6.470   8.172  0.2044 -0.0025  0.3479
 3766TIP3    H132857   4.180   6.473   8.138  0.7180 -0.2112 -1.0756
 3766TIP3    H232858   4.319   6.528   8.115  0.9145  0.4361  1.3786
 3767TIP3   OH232859   0.482   4.048   7.308  0.0657 -0.5745  0.4066
 3767TIP3    H132860   0.500   3.996   7.229  0.0327  1.1964 -0.8029
 3767TIP3    H232861   0.431   4.122   7.277 -2.4320 -1.2450  2.5451
 3768TIP3   OH232862   3.092   0.635   1.972 -0.5487 -0.4551 -0.3826
 3768TIP3    H132863   3.106   0.729   1.984 -1.4992 -0.5528  2.2332
 3768TIP3    H232864   3.074   0.624   1.879  0.4869  1.8095 -0.9013
 3769TIP3   OH232865   1.608   5.220   1.509  0.6553  0.3282 -0.4064
 3769TIP3    H132866   1.701   5.237   1.495  0.6182 -0.3675 -1.5568
 3769TIP3    H232867   1.566   5.304   1.492  1.0004  0.4822 -0.5111
 3770TIP3   OH232868   3.169   1.305   6.371  0.3520  0.1862 -0.5423
 3770TIP3    H132869   3.153   1.328   6.463 -0.1012  1.5246 -0.9307
 3770TIP3    H232870   3.254   1.345   6.351 -0.0638  0.8713 -0.9969
 3771TIP3   OH232871   5.746   0.206   2.626  0.5888 -0.9642 -0.1530
 3771TIP3    H132872   5.816   0.143   2.645  2.3921  0.7159 -0.8915
 3771TIP3    H232873   5.688   0.160   2.566  0.3850 -2.7907  1.3354
 3772TIP3   OH232874   1.118   4.755   0.492  0.3193  0.7810 -0.2937
 3772TIP3    H132875   1.178   4.822   0.526  1.3884 -0.5815  0.6485
 3772TIP3    H232876   1.141   4.747   0.400  0.8074  1.0948 -0.2057
 3773TIP3   OH232877   5.695   2.122   2.351  0.0340  0.0232  0.2539
 3773TIP3    H132878   5.781   2.151   2.322 -0.0932  1.8838  1.5574
 3773TIP3    H232879   5.634   2.180   2.305 -0.4425 -0.3835  0.3703
 3774TIP3   OH232880   5.054   1.638   8.369  0.3681  0.4069  0.0786
 3774TIP3    H132881   4.975   1.626   8.421 -0.8826  0.2245 -1.7426
 3774TIP3    H232882   5.072   1.732   8.373  0.9947  0.2481  1.7347
 3775TIP3   OH232883   0.828   5.807   7.647 -0.2592  0.3640 -0.1625
 3775TIP3    H132884   0.889   5.859   7.699 -0.1268  0.3146 -0.2697
 3775TIP3    H232885   0.780   5.754   7.712 -0.1745  0.3874 -0.0817
 3776TIP3   OH232886   0.221   6.679   2.406 -0.2893 -0.1448 -0.6578
 3776TIP3    H132887   0.304   6.647   2.373  0.4046  0.8141  0.1078
 3776TIP3    H232888   0.166   6.689   2.328  0.6775  0.2591 -1.3048
 3777TIP3   OH232889   5.977   5.120   8.240 -0.1907 -0.1411  0.0011
 3777TIP3    H132890   5.925   5.049   8.277  0.3759  0.5617  2.3426
 3777TIP3    H232891   5.948   5.127   8.149 -1.6362 -2.0562  0.2608
 3778TIP3   OH232892   6.837   1.734   2.031 -0.3641  0.5678 -0.2243
 3778TIP3    H132893   6.838   1.659   2.091 -1.7651 -0.1138 -0.9846
 3778TIP3    H232894   6.909   1.717   1.970 -0.8272 -0.3208 -0.5449
 3779TIP3   OH232895   6.790   3.807   6.661 -0.3615  0.0514 -0.0396
 3779TIP3    H132896   6.836   3.726   6.683 -1.3050 -0.6558 -0.5595
 3779TIP3    H232897   6.822   3.830   6.574 -0.5136 -0.0978 -0.1375
 3780TIP3   OH232898   6.028   3.735   8.403  0.0116  0.3898  0.5040
 3780TIP3    H132899   6.012   3.657   8.457 -0.6327  0.5588  0.5623
 3780TIP3    H232900   6.119   3.758   8.421  0.3829 -0.6723  0.0748
 3781TIP3   OH232901   3.548   4.306   8.279  0.2932  0.2850 -0.3587
 3781TIP3    H132902   3.633   4.348   8.292  0.7758 -1.1020  1.3219
 3781TIP3    H232903   3.506   4.358   8.210  2.0231  1.6903 -0.4261
 3782TIP3   OH232904   6.515   3.248   1.259  0.0849 -0.2169  0.0653
 3782TIP3    H132905   6.437   3.218   1.213  0.1321 -1.6136  0.8553
 3782TIP3    H232906   6.524   3.188   1.332 -0.6429  2.5522  2.6396
 3783TIP3   OH232907   1.952   6.840   8.277  0.2245 -0.2638  0.3087
 3783TIP3    H132908   1.931   6.799   8.361 -0.6931  1.4226  0.9642
 3783TIP3    H232909   2.012   6.911   8.300  1.1456 -0.6986 -0.6818
 3784TIP3   OH232910   1.876   4.119   0.648  0.3251  0.0856 -0.0735
 3784TIP3    H132911   1.826   4.128   0.567 -1.7353  0.4660  1.1990
 3784TIP3    H232912   1.850   4.034   0.683  0.7098  0.2118  0.5366
 3785TIP3   OH232913   2.961   3.449   0.379 -0.5459  0.2227  0.4108
 3785TIP3    H132914   2.866   3.446   0.363 -0.1005 -0.4786 -2.6807
 3785TIP3    H232915   2.988   3.357   0.380  0.0774  0.4041  1.7409
 3786TIP3   OH232916   3.663   3.457   0.690 -0.3438 -0.3690  0.3577
 3786TIP3    H132917   3.597   3.525   0.680 -0.5695 -0.5829  0.3904
 3786TIP3    H232918   3.626   3.397   0.754 -0.0348 -0.3880  0.5186
 3787TIP3   OH232919   3.860   1.339   1.735 -0.7242 -0.1294 -0.3005
 3787TIP3    H132920   3.843   1.289   1.814 -1.4973  2.1482  1.0687
 3787TIP3    H232921   3.946   1.380   1.750 -0.6258 -0.1161 -0.8708
 3788TIP3   OH232922   3.637   6.510   0.177 -0.7793 -0.1002 -0.0134
 3788TIP3    H132923   3.553   6.467   0.161 -0.5986 -0.3044 -0.4348
 3788TIP3    H232924   3.695   6.441   0.208 -0.0945 -0.5021 -1.9990
 3789TIP3   OH232925   2.312   5.000   8.425  0.2487  0.5558  0.0680
 3789TIP3    H132926   2.399   5.040   8.414 -0.2826  2.2074  1.4192
 3789TIP3    H232927   2.253   5.060   8.380 -0.2282 -0.5403 -0.8052
 3790TIP3   OH232928   4.532   0.409   7.021 -0.2168  0.5654 -0.2576
 3790TIP3    H132929   4.506   0.356   7.097  0.6933 -0.0996 -0.3989
 3790TIP3    H232930   4.608   0.364   6.985 -0.0639  1.4022 -1.0124
 3791TIP3   OH232931   0.849   2.240   1.580  0.1530  0.2422  0.2093
 3791TIP3    H132932   0.762   2.274   1.562  0.5548  1.9004  1.1739
 3791TIP3    H232933   0.899   2.259   1.500 -0.0498  0.4428  0.1283
 3792TIP3   OH232934   6.373   5.824   7.224 -0.4203  0.0074 -0.1227
 3792TIP3    H132935   6.361   5.881   7.148  0.4480 -0.8500 -0.9407
 3792TIP3    H232936   6.284   5.807   7.254 -0.6698  2.9623  1.1190
 3793TIP3   OH232937   3.215   1.343   6.663  0.0816 -0.1946 -0.1300
 3793TIP3    H132938   3.178   1.282   6.727  1.5685  0.1840  1.1410
 3793TIP3    H232939   3.155   1.418   6.665 -1.1661 -1.1165 -0.9316
 3794TIP3   OH232940   1.606   4.421   7.659 -0.4218  0.6424 -0.0905
 3794TIP3    H132941   1.650   4.441   7.742  1.0239 -0.2745 -0.6100
 3794TIP3    H232942   1.601   4.505   7.614 -0.7096  1.0475  0.6704
 3795TIP3   OH232943   0.905   0.686   8.387 -0.0717 -0.0829  0.4872
 3795TIP3    H132944   0.966   0.670   8.458 -0.1824  1.0924  0.8636
 3795TIP3    H232945   0.946   0.647   8.310  0.8308  0.1068  0.8699
 3796TIP3   OH232946   6.443   6.400   0.630 -0.0547 -0.6283 -0.0320
 3796TIP3    H132947   6.402   6.484   0.613  0.1473 -0.6285 -0.5452
 3796TIP3    H232948   6.536   6.415   0.613  0.6572  0.1007  3.6632
 3797TIP3   OH232949   3.975   6.251   7.627  0.1316  0.2648  0.4723
 3797TIP3    H132950   4.044   6.235   7.691  1.1794  3.1748  0.2173
 3797TIP3    H232951   3.894   6.237   7.675  0.8703 -1.3146  1.3254
 3798TIP3   OH232952   2.533   5.980   7.772 -0.5384  0.1472  0.0985
 3798TIP3    H132953   2.457   5.955   7.719 -0.5770  0.8752 -0.2068
 3798TIP3    H232954   2.551   6.070   7.746 -0.0723  0.2523  0.7679
 3799TIP3   OH232955   1.949   3.615   2.322 -0.5001  0.7819 -0.0221
 3799TIP3    H132956   2.023   3.658   2.364 -0.1900  0.4656 -0.2415
 3799TIP3    H232957   1.986   3.575   2.243 -0.5515 -0.8353  0.7453
 3800TIP3   OH232958   1.307   2.994   1.966  0.3270  0.0788  0.0905
 3800TIP3    H132959   1.391   2.992   1.921  0.2760  0.3097 -0.0165
 3800TIP3    H232960   1.274   2.904   1.960  0.7817 -0.1262  0.5483
 3801TIP3   OH232961   1.807   2.399   0.541  0.2065  0.3337 -0.0263
 3801TIP3    H132962   1.747   2.327   0.563  0.0107  0.3345 -0.5273
 3801TIP3    H232963   1.893   2.358   0.539  0.5709  0.7718  2.9108
 3802TIP3   OH232964   4.825   2.081   6.880  0.6244  0.0638 -0.6174
 3802TIP3    H132965   4.873   2.135   6.816  1.1610 -0.8090 -0.9728
 3802TIP3    H232966   4.759   2.036   6.828  0.1283  0.4269 -0.3085
 3803TIP3   OH232967   0.486   4.447   7.127 -0.8595  0.3226 -0.2527
 3803TIP3    H132968   0.449   4.395   7.056 -0.1043 -0.1076 -0.3423
 3803TIP3    H232969   0.414   4.503   7.156 -1.3153  0.1471 -1.0210
 3804TIP3   OH232970   5.185   5.840   8.007  0.1223 -0.5516 -0.1377
 3804TIP3    H132971   5.110   5.894   7.982  0.5915  0.4509  0.5790
 3804TIP3    H232972   5.195   5.855   8.101  2.6760  1.2404 -0.5963
 3805TIP3   OH232973   6.340   6.512   7.750 -0.4451  0.4153  0.2239
 3805TIP3    H132974   6.302   6.514   7.838 -0.5996 -0.9790  0.2107
 3805TIP3    H232975   6.360   6.420   7.735  1.2767  0.8865 -0.5028
 3806TIP3   OH232976   5.214   0.667   1.547  0.1865 -0.0785 -0.6503
 3806TIP3    H132977   5.265   0.654   1.627 -0.8611  0.8006  0.1831
 3806TIP3    H232978   5.175   0.754   1.557  0.3502  0.2261 -2.3057
 3807TIP3   OH232979   1.399   4.941   0.900 -0.5101  0.0977  0.9078
 3807TIP3    H132980   1.349   4.871   0.943  0.1849 -0.3231  1.0437
 3807TIP3    H232981   1.424   4.999   0.971  1.4488 -1.0933  1.2660
 3808TIP3   OH232982   4.206   1.168   7.194 -0.2279 -0.2368  0.1375
 3808TIP3    H132983   4.271   1.098   7.191 -1.2507 -1.1787 -2.1161
 3808TIP3    H232984   4.152   1.154   7.116 -1.1073  2.4649  0.1717
 3809TIP3   OH232985   4.371   0.956   1.824  0.0187  0.4885  0.1474
 3809TIP3    H132986   4.461   0.977   1.800  0.0186  1.8018  1.2024
 3809TIP3    H232987   4.317   0.993   1.754  0.2761 -0.6870 -0.7220
 3810TIP3   OH232988   1.783   2.246   8.558 -0.0445  0.1274 -0.3055
 3810TIP3    H132989   1.759   2.298   8.635  1.7454  2.2134 -1.0276
 3810TIP3    H232990   1.866   2.285   8.529  0.4912 -2.0782 -1.9664
 3811TIP3   OH232991   4.277   6.298   1.749  0.0829 -0.2004  0.4856
 3811TIP3    H132992   4.241   6.354   1.681 -0.7329 -0.9365  0.2767
 3811TIP3    H232993   4.322   6.357   1.809 -0.0496  0.5670 -0.1598
 3812TIP3   OH232994   3.698   4.347   0.632  0.5092  0.2776  0.0981
 3812TIP3    H132995   3.788   4.352   0.663  0.4465  1.9565  0.0842
 3812TIP3    H232996   3.645   4.381   0.703 -0.4198 -2.7593  1.0242
 3813TIP3   OH232997   5.671   0.687   8.440 -0.1291 -0.4610  0.0520
 3813TIP3    H132998   5.640   0.722   8.356  0.9680  0.6805  0.0969
 3813TIP3    H232999   5.740   0.748   8.468  0.3257 -1.4659  1.2238
 3814TIP3   OH233000   0.944   3.596   6.866 -0.6379  0.3821  0.3886
 3814TIP3    H133001   0.868   3.585   6.808 -0.1658 -1.5837  0.0746
 3814TIP3    H233002   1.009   3.534   6.832 -0.2583 -0.7175  2.8834
 3815TIP3   OH233003   5.693   1.519   1.208  0.0092  0.6515  0.6224
 3815TIP3    H133004   5.762   1.478   1.260  1.5128 -0.0336 -1.7666
 3815TIP3    H233005   5.733   1.598   1.173 -0.7836  0.8182  0.0539
 3816TIP3   OH233006   3.502   5.002   0.619 -0.3806  0.1892 -0.7325
 3816TIP3    H133007   3.583   4.957   0.596 -1.0040 -1.9661  0.9265
 3816TIP3    H233008   3.530   5.088   0.651  1.1777 -0.2699 -0.7912
 3817TIP3   OH233009   3.654   4.055   7.452  0.6929 -0.1055  0.0280
 3817TIP3    H133010   3.674   4.083   7.541  0.6958  0.1762 -0.0613
 3817TIP3    H233011   3.640   4.136   7.403  0.5910 -0.2610 -0.2051
 3818TIP3   OH233012   6.265   5.186   0.661  0.1072 -0.2251 -0.5527
 3818TIP3    H133013   6.353   5.162   0.633  0.9945 -0.5117  2.1881
 3818TIP3    H233014   6.274   5.207   0.754 -2.8452 -1.0193  0.0249
 3819TIP3   OH233015   3.516   6.080   0.674 -0.1152  0.2639 -0.2744
 3819TIP3    H133016   3.502   6.076   0.769  0.5110 -0.1495 -0.1975
 3819TIP3    H233017   3.427   6.087   0.638 -0.4544 -0.8229  0.2806
 3820TIP3   OH233018   3.961   4.217   2.363 -0.1245 -0.5026 -0.4842
 3820TIP3    H133019   4.039   4.172   2.393  0.8516  1.4454  0.0562
 3820TIP3    H233020   3.982   4.310   2.370 -1.8186  0.0770 -2.1176
 3821TIP3   OH233021   6.263   1.024   7.563  0.1983  0.2595  0.6410
 3821TIP3    H133022   6.247   0.979   7.646  0.3558  0.3239  0.7061
 3821TIP3    H233023   6.248   0.956   7.496  1.3376 -0.1453  0.7757
 3822TIP3   OH233024   5.078   1.721   0.830  0.1492  0.1471 -0.0152
 3822TIP3    H133025   5.169   1.702   0.851 -0.1685 -0.2383  1.0920
 3822TIP3    H233026   5.064   1.810   0.863  0.3752  0.5918 -1.0665
 3823TIP3   OH233027   2.790   2.147   5.946 -0.7069  0.3226 -0.8256
 3823TIP3    H133028   2.779   2.236   5.980 -1.7656 -0.8175  2.1326
 3823TIP3    H233029   2.701   2.121   5.921 -0.4978 -0.1030 -1.1174
 3824TIP3   OH233030   4.923   6.546   7.148  0.2536 -0.5268 -0.5346
 3824TIP3    H133031   4.991   6.594   7.195  0.5455  1.1000 -2.5149
 3824TIP3    H233032   4.870   6.613   7.106 -0.1657 -1.8752 -2.2809
 3825TIP3   OH233033   2.632   0.646   7.077  0.3162  0.3257 -0.0749
 3825TIP3    H133034   2.641   0.638   6.982 -4.6462 -1.3490 -0.6862
 3825TIP3    H233035   2.650   0.558   7.110  2.1300  0.9264  0.6827
 3826TIP3   OH233036   0.430   1.701   0.984  0.2207 -0.1507  0.4245
 3826TIP3    H133037   0.394   1.641   1.050  2.4510 -1.4382  0.5542
 3826TIP3    H233038   0.486   1.761   1.034 -0.0887  0.5156 -0.0129
 3827TIP3   OH233039   2.658   3.284   0.142  0.2086 -0.4936 -0.0524
 3827TIP3    H133040   2.654   3.359   0.202  1.8715 -0.9083  0.6281
 3827TIP3    H233041   2.628   3.319   0.058 -0.2052  0.6144  0.5353
 3828TIP3   OH233042   4.599   0.321   8.390  0.1071 -0.4883  0.3116
 3828TIP3    H133043   4.575   0.407   8.426 -0.3226 -0.5033  0.0586
 3828TIP3    H233044   4.545   0.259   8.439 -3.2290 -0.2690 -2.7448
 3829TIP3   OH233045   4.006   0.537   0.836 -0.2963 -0.0598 -0.0727
 3829TIP3    H133046   4.014   0.632   0.832  0.6953 -0.1283  0.0347
 3829TIP3    H233047   4.004   0.510   0.744  2.4925 -0.1431 -0.1689
 3830TIP3   OH233048   2.829   5.098   0.050 -0.0068  0.0557 -0.6290
 3830TIP3    H133049   2.857   5.061   0.134 -0.6294  0.4190 -0.2476
 3830TIP3    H233050   2.733   5.091   0.051 -0.1221  1.2787 -0.7077
 3831TIP3   OH233051   6.442   5.938   7.980 -0.8269 -0.3363 -0.4079
 3831TIP3    H133052   6.423   5.856   8.025  0.1436 -0.9234 -1.0384
 3831TIP3    H233053   6.439   6.004   8.049 -1.0755 -0.9752  0.2059
 3832TIP3   OH233054   5.338   3.675   0.103  0.3626 -0.1048  0.0421
 3832TIP3    H133055   5.420   3.720   0.122 -1.0427  2.4629  0.4448
 3832TIP3    H233056   5.307   3.644   0.188 -0.6589  1.8637  0.4258
 3833TIP3   OH233057   1.148   0.664   7.209  0.1481 -0.1258 -0.4012
 3833TIP3    H133058   1.143   0.621   7.123 -0.5631 -1.6506  0.3596
 3833TIP3    H233059   1.070   0.719   7.212  1.3259  1.7218 -1.5889
 3834TIP3   OH233060   3.918   2.305   6.946  0.2992  0.3748 -0.2746
 3834TIP3    H133061   3.975   2.356   6.888  0.9095 -1.2437 -1.1505
 3834TIP3    H233062   3.977   2.246   6.992 -0.2927  1.0231  1.3977
 3835TIP3   OH233063   1.864   4.154   1.941  0.1154  0.6748  0.0646
 3835TIP3    H133064   1.938   4.194   1.988 -0.4771  3.0118 -0.8485
 3835TIP3    H233065   1.904   4.091   1.882  1.3985  1.7840 -0.3011
 3836TIP3   OH233066   2.397   1.673   1.343  0.2790  0.4696  0.6349
 3836TIP3    H133067   2.335   1.672   1.416  1.3305  0.7174  1.5670
 3836TIP3    H233068   2.419   1.766   1.331 -1.2560  0.6621 -1.2526
 3837TIP3   OH233069   4.009   5.169   7.492 -0.3568  0.4784  0.3455
 3837TIP3    H133070   4.103   5.186   7.499 -0.0890 -0.6343 -0.3043
 3837TIP3    H233071   4.003   5.083   7.450 -1.6848  1.5980 -1.9126
 3838TIP3   OH233072   0.256   4.224   7.565 -0.4651  0.3515 -0.1974
 3838TIP3    H133073   0.179   4.275   7.539 -1.2467 -0.2150  0.9591
 3838TIP3    H233074   0.318   4.290   7.596 -1.4283  0.6573  1.1850
 3839TIP3   OH233075   5.835   4.669   1.777 -0.3358  0.0368  0.6226
 3839TIP3    H133076   5.830   4.582   1.818  1.5168 -0.7530 -0.7320
 3839TIP3    H233077   5.869   4.725   1.846 -0.9982 -0.4028  1.3386
 3840TIP3   OH233078   6.024   0.750   8.288 -0.0022  0.3460  0.0101
 3840TIP3    H133079   6.014   0.742   8.383  0.1373 -1.3237 -0.0879
 3840TIP3    H233080   6.112   0.784   8.276 -0.5769  2.1511  0.4895
 3841TIP3   OH233081   6.139   6.151   8.632  0.0031  0.0413 -0.0458
 3841TIP3    H133082   6.064   6.210   8.644  0.5959  1.1130 -1.2559
 3841TIP3    H233083   6.194   6.166   8.709 -1.3980 -1.4032  1.2953
 3842TIP3   OH233084   0.540   4.468   0.692  0.1252 -0.2817  0.5180
 3842TIP3    H133085   0.465   4.437   0.640 -1.2026 -0.7241  2.5762
 3842TIP3    H233086   0.608   4.402   0.678 -0.3005 -0.5465 -0.3871
 3843TIP3   OH233087   6.193   0.940   1.863  0.2841  0.2347  0.3791
 3843TIP3    H133088   6.167   0.992   1.939  0.1615  0.3815  0.2374
 3843TIP3    H233089   6.216   1.005   1.796 -0.1153  0.1094  0.1176
 3844TIP3   OH233090   3.462   1.201   8.195 -0.0924 -0.7678 -1.0888
 3844TIP3    H133091   3.492   1.144   8.124  0.6721 -2.6570  0.6532
 3844TIP3    H233092   3.401   1.146   8.245  1.6415 -0.6022  1.3826
 3845TIP3   OH233093   6.286   2.512   6.730 -0.1695  0.1272  0.0954
 3845TIP3    H133094   6.319   2.598   6.706  0.4818 -0.2222 -0.2714
 3845TIP3    H233095   6.199   2.529   6.766  0.5307  1.0963  1.4062
 3846TIP3   OH233096   3.170   5.210   0.862  0.4262  0.4177  0.5908
 3846TIP3    H133097   3.237   5.278   0.863 -0.8047  1.7585 -0.8418
 3846TIP3    H233098   3.218   5.128   0.856  1.9499  1.2907  0.4569
 3847TIP3   OH233099   6.866   6.617   7.294 -0.5243 -0.5248  0.5489
 3847TIP3    H133100   6.955   6.609   7.329 -0.2463  0.2905  0.0369
 3847TIP3    H233101   6.859   6.545   7.231  0.2939  0.2900 -0.4961
 3848TIP3   OH233102   1.417   4.234   7.865  0.7352 -0.6613 -0.5754
 3848TIP3    H133103   1.407   4.247   7.771  0.1580  1.2662 -0.2827
 3848TIP3    H233104   1.495   4.284   7.889  0.4268 -0.4890  0.0989
 3849TIP3   OH233105   3.705   1.493   1.204  0.0117  0.0996  0.0992
 3849TIP3    H133106   3.731   1.463   1.291  2.0947  1.0945 -0.1137
 3849TIP3    H233107   3.641   1.563   1.221 -0.3039 -0.3475  0.7835
 3850TIP3   OH233108   2.606   4.209   8.494  0.3811 -0.2455 -0.0719
 3850TIP3    H133109   2.653   4.136   8.536 -2.0856 -1.3415  0.9418
 3850TIP3    H233110   2.589   4.178   8.405  0.1582 -0.5148  0.0638
 3851TIP3   OH233111   2.738   3.664   0.787 -0.6259 -0.4856  0.5734
 3851TIP3    H133112   2.833   3.673   0.775 -0.8737  2.4394  0.0544
 3851TIP3    H233113   2.728   3.584   0.837  1.9029 -2.5459 -1.8711
 3852TIP3   OH233114   6.582   2.608   2.485 -0.4175  0.1875 -0.5712
 3852TIP3    H133115   6.593   2.554   2.406 -2.4852  1.5525 -1.8975
 3852TIP3    H233116   6.641   2.569   2.549  0.5871 -1.6191 -2.4631
 3853TIP3   OH233117   1.156   3.191   7.002 -0.0431 -0.2355  0.1644
 3853TIP3    H133118   1.197   3.120   6.953  3.0340 -0.1385  2.3114
 3853TIP3    H233119   1.229   3.245   7.032 -2.1317  2.7883  0.2834
 3854TIP3   OH233120   4.657   0.776   0.287  0.7213 -0.6871  0.2127
 3854TIP3    H133121   4.705   0.703   0.247  0.1582 -0.9746  0.0531
 3854TIP3    H233122   4.716   0.808   0.356  2.4332  0.8830 -1.8515
 3855TIP3   OH233123   4.663   5.113   1.420 -0.0440 -0.6574 -0.1868
 3855TIP3    H133124   4.697   5.152   1.340 -0.0610 -0.5230 -0.1299
 3855TIP3    H233125   4.590   5.170   1.445 -0.5344 -1.1378 -0.4936
 3856TIP3   OH233126   3.327   5.045   7.523 -0.1062 -0.3281  0.0519
 3856TIP3    H133127   3.382   5.016   7.595 -0.7175 -0.5634  0.4332
 3856TIP3    H233128   3.377   5.023   7.444  0.2063 -0.8276  0.3851
 3857TIP3   OH233129   3.495   6.038   8.407 -0.1811  0.3255  0.0825
 3857TIP3    H133130   3.511   6.011   8.497 -0.6676  0.4902  0.2197
 3857TIP3    H233131   3.445   6.119   8.414  1.7622  1.6529 -0.3044
 3858TIP3   OH233132   5.495   2.949   8.671 -0.1376  0.0404  0.4083
 3858TIP3    H133133   5.515   2.920   8.760  0.5342 -2.8065 -0.5721
 3858TIP3    H233134   5.579   2.945   8.625 -0.6493  0.5954 -0.6121
 3859TIP3   OH233135   4.757   5.320   8.162 -0.0638  0.3649 -0.3621
 3859TIP3    H133136   4.705   5.239   8.160  0.5916 -0.0602 -0.4235
 3859TIP3    H233137   4.827   5.305   8.099 -1.5588  2.1207 -2.6272
 3860TIP3   OH233138   0.432   3.025   0.344 -0.3626  0.2005 -0.0029
 3860TIP3    H133139   0.489   2.977   0.284 -1.6071  0.3275 -1.3552
 3860TIP3    H233140   0.351   3.037   0.295 -1.5624  0.0330  1.8251
 3861TIP3   OH233141   6.522   3.520   0.602 -0.0616  0.3100 -0.3819
 3861TIP3    H133142   6.550   3.565   0.682  0.4074 -1.4629  0.5091
 3861TIP3    H233143   6.475   3.587   0.552 -0.1646  1.5327  1.2600
 3862TIP3   OH233144   0.799   2.113   7.270 -0.6179 -0.3037  0.1407
 3862TIP3    H133145   0.818   2.031   7.315  0.3549 -0.5252 -0.6538
 3862TIP3    H233146   0.865   2.119   7.201 -1.5950  0.4152 -0.7588
 3863TIP3   OH233147   6.315   5.292   8.011  0.6146 -0.3358 -0.1032
 3863TIP3    H133148   6.222   5.309   7.995  0.8208  0.8141 -0.1023
 3863TIP3    H233149   6.354   5.284   7.924 -0.2176 -5.5810 -0.3669
 3864TIP3   OH233150   0.799   4.152   0.204 -0.3234  0.2911  0.2723
 3864TIP3    H133151   0.794   4.243   0.177  0.4304 -0.0144 -1.0147
 3864TIP3    H233152   0.857   4.152   0.280  1.0287  0.7225 -0.7227
 3865TIP3   OH233153   6.801   2.925   8.613  0.4722 -0.3210 -0.3482
 3865TIP3    H133154   6.862   2.963   8.676 -0.9732 -0.9739  1.5503
 3865TIP3    H233155   6.763   3.000   8.568  0.7178  0.2421  0.3653
 3866TIP3   OH233156   1.462   5.708   6.943  0.5282  0.1818 -0.1825
 3866TIP3    H133157   1.384   5.676   6.899  0.7607 -1.3514  0.4739
 3866TIP3    H233158   1.444   5.800   6.959 -1.4474 -0.3003  0.6140
 3867TIP3   OH233159   6.623   0.512   8.383  0.3263  0.0334  0.2594
 3867TIP3    H133160   6.666   0.428   8.401  0.4254  0.2897  1.3147
 3867TIP3    H233161   6.534   0.501   8.416  0.3713  0.3672  0.5015
 3868TIP3   OH233162   6.372   1.421   7.666  0.0009  0.3331 -0.8652
 3868TIP3    H133163   6.392   1.501   7.617 -1.0051 -1.2872 -4.2463
 3868TIP3    H233164   6.322   1.367   7.604 -0.7862 -2.2550  1.8091
 3869TIP3   OH233165   4.193   6.449   2.269 -0.4142 -0.2232  0.4331
 3869TIP3    H133166   4.221   6.511   2.337 -0.0781  1.1261 -0.8778
 3869TIP3    H233167   4.209   6.363   2.307  1.2373  0.4957  1.4766
 3870TIP3   OH233168   5.952   4.017   1.735 -0.1101  0.2096  0.5024
 3870TIP3    H133169   5.899   3.972   1.669  1.7575 -2.0769  0.4249
 3870TIP3    H233170   6.039   4.025   1.696  0.0824  2.3866  1.2302
 3871TIP3   OH233171   6.343   1.900   7.592  0.4880 -0.3054 -0.3654
 3871TIP3    H133172   6.290   1.862   7.661 -1.2600 -0.3384 -1.6557
 3871TIP3    H233173   6.331   1.994   7.600  2.5465 -0.0936  1.0597
 3872TIP3   OH233174   3.661   4.648   8.260  0.3839 -0.0441  0.5726
 3872TIP3    H133175   3.716   4.570   8.251  2.8661  1.7105 -0.7028
 3872TIP3    H233176   3.647   4.678   8.170 -0.1857  1.1970  1.0507
 3873TIP3   OH233177   0.839   0.741   0.641  0.7961 -0.1168  0.0254
 3873TIP3    H133178   0.918   0.771   0.687 -0.1247  2.1852  0.2502
 3873TIP3    H233179   0.781   0.817   0.642 -0.1501 -0.6771 -3.0088
 3874TIP3   OH233180   5.325   1.455   6.474 -0.5048  0.1654  0.3938
 3874TIP3    H133181   5.331   1.550   6.471 -1.0938  0.1891 -0.7925
 3874TIP3    H233182   5.240   1.435   6.435 -1.0597 -0.7997  1.9888
 3875TIP3   OH233183   5.364   6.627   1.506  0.0456  0.5729  0.0234
 3875TIP3    H133184   5.309   6.609   1.582  0.8689  2.0601  1.0196
 3875TIP3    H233185   5.450   6.647   1.544  0.8102  0.0689 -1.3859
 3876TIP3   OH233186   6.351   2.738   1.129 -0.2632 -0.1856  1.1040
 3876TIP3    H133187   6.447   2.739   1.137 -0.3633 -0.2886  2.5573
 3876TIP3    H233188   6.334   2.774   1.042  1.1188 -0.7929  0.5428
 3877TIP3   OH233189   3.175   5.815   0.537  0.1342 -0.1087  0.3414
 3877TIP3    H133190   3.085   5.805   0.570 -0.4489 -2.4106 -1.7148
 3877TIP3    H233191   3.223   5.744   0.578  0.4339 -0.3374 -0.3992
 3878TIP3   OH233192   5.198   0.481   1.353 -0.1289  0.1790  0.3762
 3878TIP3    H133193   5.202   0.531   1.435  0.3644 -0.2335  0.6079
 3878TIP3    H233194   5.227   0.393   1.377 -0.4193 -0.0623 -0.1528
 3879TIP3   OH233195   5.717   0.415   2.308  0.1780  0.5083  0.1691
 3879TIP3    H133196   5.678   0.480   2.367 -0.4242 -1.2130  1.7844
 3879TIP3    H233197   5.799   0.392   2.350  1.0587  1.1753 -1.1211
 3880TIP3   OH233198   5.265   2.293   8.147 -0.3351 -0.3684  0.5107
 3880TIP3    H133199   5.357   2.298   8.123 -0.7884  0.1250 -1.2917
 3880TIP3    H233200   5.223   2.252   8.071 -1.6384 -0.3658  1.2017
 3881TIP3   OH233201   0.228   3.297   1.389  0.1755 -0.6029 -0.7222
 3881TIP3    H133202   0.258   3.385   1.365  3.4995 -1.7400 -1.3194
 3881TIP3    H233203   0.210   3.255   1.305  1.5894 -1.3666 -0.6753
 3882TIP3   OH233204   0.289   6.468   7.765  0.0666 -0.2018  0.5624
 3882TIP3    H133205   0.255   6.518   7.839 -0.7383 -0.5754  0.4536
 3882TIP3    H233206   0.211   6.445   7.714  0.3831 -1.7600  0.7291
 3883TIP3   OH233207   3.632   2.506   0.020 -0.3096 -0.0042  0.0338
 3883TIP3    H133208   3.666   2.493  -0.069 -1.7456  3.6446 -1.2747
 3883TIP3    H233209   3.539   2.483   0.013 -0.0387 -1.5374  1.1675
 3884TIP3   OH233210   0.654   3.791   0.494  0.4118  0.2568 -0.2260
 3884TIP3    H133211   0.729   3.799   0.436  0.5276 -2.1460 -0.5022
 3884TIP3    H233212   0.591   3.854   0.461  1.6923  1.1774 -0.9672
 3885TIP3   OH233213   5.967   1.277   6.602  0.3784 -0.0531  0.1157
 3885TIP3    H133214   5.919   1.340   6.548  0.6738 -0.9404 -1.2505
 3885TIP3    H233215   5.899   1.230   6.650  0.0977  0.7054  0.4722
 3886TIP3   OH233216   2.280   5.508   6.905  0.0402  0.2847 -0.4967
 3886TIP3    H133217   2.229   5.452   6.847 -0.3683 -0.7501  0.8182
 3886TIP3    H233218   2.227   5.587   6.914 -0.2555  0.1387 -0.9115
 3887TIP3   OH233219   3.802   6.498   8.634 -0.1542  0.2913 -0.2544
 3887TIP3    H133220   3.722   6.525   8.679 -0.2579  2.7891 -1.8061
 3887TIP3    H233221   3.791   6.527   8.544  0.4326 -3.7610 -1.8804
 3888TIP3   OH233222   1.834   4.184   1.350  0.1609  1.1088  0.0644
 3888TIP3    H133223   1.787   4.138   1.280 -1.9919  0.5636  1.7454
 3888TIP3    H233224   1.901   4.122   1.378  0.4231  0.9556 -0.8641
 3889TIP3   OH233225   4.365   6.203   2.099  0.2370  0.2696  0.1635
 3889TIP3    H133226   4.348   6.187   2.192  2.1631  1.6071  0.8125
 3889TIP3    H233227   4.457   6.181   2.087  0.2585  0.9759 -1.2057
 3890TIP3   OH233228   1.366   4.525   7.367  0.8335 -0.4168  0.3256
 3890TIP3    H133229   1.334   4.598   7.314  1.6120  0.7989  1.4567
 3890TIP3    H233230   1.288   4.473   7.384 -0.4915  1.9526  2.2003
 3891TIP3   OH233231   6.287   1.699   6.726 -0.0792 -0.1414 -0.4148
 3891TIP3    H133232   6.377   1.666   6.724 -1.1167 -3.1814 -0.9619
 3891TIP3    H233233   6.288   1.773   6.664  3.0107  3.0858  2.9671
 3892TIP3   OH233234   2.728   5.515   0.722  0.1695 -0.0853 -0.4490
 3892TIP3    H133235   2.804   5.488   0.670  0.7745 -1.0093  0.8490
 3892TIP3    H233236   2.764   5.529   0.810 -0.6621  2.2128 -0.4007
 3893TIP3   OH233237   4.209   3.673   7.601 -0.4338 -0.7473 -0.1562
 3893TIP3    H133238   4.235   3.700   7.513 -0.4207  2.0881  0.6110
 3893TIP3    H233239   4.121   3.637   7.590 -0.0779 -1.2840 -1.4280
 3894TIP3   OH233240   5.053   3.170   8.450  0.3649  0.4023  0.7296
 3894TIP3    H133241   5.099   3.253   8.444 -0.1202  0.5573 -2.4388
 3894TIP3    H233242   4.976   3.181   8.395  0.2988 -2.1610  0.1794
 3895TIP3   OH233243   1.960   0.474   0.191 -0.7956  0.6893 -0.0122
 3895TIP3    H133244   1.994   0.392   0.156  0.7742  1.6556 -0.8347
 3895TIP3    H233245   1.896   0.447   0.257  0.3918 -1.1977  0.4326
 3896TIP3   OH233246   4.843   2.970   7.344 -0.3043 -0.2618  0.4829
 3896TIP3    H133247   4.776   2.930   7.289 -0.4915  0.5020  0.1373
 3896TIP3    H233248   4.916   2.986   7.284  0.2769 -1.2700  0.8995
 3897TIP3   OH233249   3.587   5.987   0.015  0.0679  0.1772 -0.2399
 3897TIP3    H133250   3.644   5.918   0.048  0.8820  0.2945 -1.3319
 3897TIP3    H233251   3.646   6.051  -0.024 -0.7861  0.2011 -1.6039
 3898TIP3   OH233252   5.041   3.004   7.193 -0.2411 -0.4393  0.1901
 3898TIP3    H133253   5.058   3.067   7.122 -1.1451 -0.0604  0.2913
 3898TIP3    H233254   5.060   2.919   7.154  0.5333 -0.1490 -0.1010
 3899TIP3   OH233255   0.665   0.614   7.159 -0.1398 -0.0579 -0.7373
 3899TIP3    H133256   0.672   0.564   7.240 -2.3298 -1.3621 -1.2789
 3899TIP3    H233257   0.633   0.551   7.095  1.3752  0.9839 -2.6244
 3900TIP3   OH233258   5.504   3.624   0.492  0.4864  0.2246 -0.2639
 3900TIP3    H133259   5.495   3.546   0.436  0.0549 -1.8513  2.4645
 3900TIP3    H233260   5.527   3.589   0.578  3.2842  3.3813  0.4612
 3901TIP3   OH233261   5.418   2.531   2.031 -0.4181 -0.3228 -0.3470
 3901TIP3    H133262   5.353   2.555   2.097  1.2874 -0.4684  1.4581
 3901TIP3    H233263   5.411   2.436   2.024 -0.1151 -0.3879  0.1753
 3902TIP3   OH233264   2.628   5.058   6.472 -0.1356 -0.5244  0.1067
 3902TIP3    H133265   2.658   4.969   6.488 -1.1265 -1.0162 -0.7416
 3902TIP3    H233266   2.634   5.101   6.558  0.5381 -1.3325  0.4722
 3903TIP3   OH233267   3.793   3.203   1.286 -0.2783  0.8402  0.2212
 3903TIP3    H133268   3.833   3.193   1.372  0.7355  3.2906  0.1221
 3903TIP3    H233269   3.783   3.114   1.253  0.8142 -0.0635  2.1944
 3904TIP3   OH233270   5.961   2.098   0.542  0.5649 -0.1998  0.3200
 3904TIP3    H133271   5.921   2.126   0.459  1.3488 -0.5928 -0.1975
 3904TIP3    H233272   5.897   2.123   0.609  0.1996  0.6958 -0.3430
 3905TIP3   OH233273   5.026   1.227   2.911 -0.7842 -0.4146 -0.1402
 3905TIP3    H133274   5.000   1.310   2.870 -2.3808 -0.0900  1.3706
 3905TIP3    H233275   5.007   1.240   3.004  2.0084 -1.3562  0.6462
 3906TIP3   OH233276   5.482   1.251   1.460  0.8159 -0.1705 -0.2596
 3906TIP3    H133277   5.474   1.325   1.400  0.6003 -0.0195 -0.0446
 3906TIP3    H233278   5.405   1.197   1.442 -0.3492  0.9023  1.2849
 3907TIP3   OH233279   4.070   4.214   7.910 -0.0180  0.1144 -0.1091
 3907TIP3    H133280   4.009   4.287   7.919 -0.9444 -0.5882 -0.5000
 3907TIP3    H233281   4.060   4.164   7.990 -0.5078 -0.4029 -0.4870
 3908TIP3   OH233282   5.985   0.191   8.223 -0.5568  0.0624  0.1389
 3908TIP3    H133283   5.918   0.162   8.285  0.2090 -1.2788  0.3776
 3908TIP3    H233284   6.068   0.164   8.262  0.1020  1.1454 -0.4467
 3909TIP3   OH233285   2.350   5.284   7.480  0.2984 -0.4730  0.2085
 3909TIP3    H133286   2.417   5.223   7.450  1.3309 -0.0917  1.6484
 3909TIP3    H233287   2.286   5.230   7.527 -0.2321 -0.7812 -0.8310
 3910TIP3   OH233288   2.045   6.494   8.577  0.0299  0.3871 -0.6782
 3910TIP3    H133289   1.981   6.428   8.604 -0.1859  0.3610 -1.2318
 3910TIP3    H233290   2.113   6.444   8.532  1.1135  0.2566  1.0514
 3911TIP3   OH233291   1.237   3.278   7.630  0.4007  0.2363  0.3637
 3911TIP3    H133292   1.227   3.214   7.701  0.1136  0.7115  0.7611
 3911TIP3    H233293   1.285   3.231   7.562  0.1243 -0.4269  0.6156
 3912TIP3   OH233294   2.068   2.649   2.041 -0.4263 -0.0909  0.2329
 3912TIP3    H133295   2.084   2.683   2.129 -0.1607 -0.7321  0.4347
 3912TIP3    H233296   1.973   2.641   2.035 -0.4145 -0.5874  0.6686
 3913TIP3   OH233297   1.301   2.539   6.641 -0.3881 -0.4319  0.5239
 3913TIP3    H133298   1.238   2.603   6.610 -1.2065 -1.6831 -0.5156
 3913TIP3    H233299   1.259   2.454   6.625  1.5945 -1.3107 -0.3660
 3914TIP3   OH233300   4.132   5.767   7.409  0.1181 -0.5634 -0.2972
 3914TIP3    H133301   4.200   5.834   7.398  0.5425 -0.6437  1.5123
 3914TIP3    H233302   4.112   5.769   7.502 -2.6908 -0.2517 -0.8111
 3915TIP3   OH233303   6.658   6.173   1.653 -0.1744  0.5560 -0.3116
 3915TIP3    H133304   6.618   6.142   1.734  1.0225 -0.2527 -0.0104
 3915TIP3    H233305   6.584   6.208   1.602 -0.9552  0.9859  1.0628
 3916TIP3   OH233306   4.218   1.117   7.858  0.3887 -0.1822  0.0629
 3916TIP3    H133307   4.127   1.133   7.833  1.1146  3.2384 -0.9344
 3916TIP3    H233308   4.262   1.092   7.777  0.7019  0.2722  0.0828
 3917TIP3   OH233309   2.923   1.131   0.889  0.3018 -0.1899  0.3719
 3917TIP3    H133310   2.946   1.201   0.950 -0.8136  0.6791 -0.1655
 3917TIP3    H233311   3.004   1.114   0.841  0.7117  0.4031  0.8338
 3918TIP3   OH233312   1.209   2.956   1.493  0.2571 -0.1112 -0.4450
 3918TIP3    H133313   1.133   2.941   1.549  0.6317 -0.9763 -0.1561
 3918TIP3    H233314   1.222   2.873   1.447  0.8401  0.1251 -0.7188
 3919TIP3   OH233315   5.609   0.199   1.840 -0.0190  0.0036  0.3304
 3919TIP3    H133316   5.668   0.125   1.824  1.8533  1.3714  0.5937
 3919TIP3    H233317   5.546   0.196   1.768 -0.0296 -1.8593  0.3745
 3920TIP3   OH233318   5.364   5.721   1.868 -0.4595 -0.3861  0.2953
 3920TIP3    H133319   5.328   5.794   1.817  1.8134 -0.5405 -1.7166
 3920TIP3    H233320   5.332   5.642   1.823 -0.0474 -0.5545  0.2868
 3921TIP3   OH233321   0.591   3.981   0.262 -0.0866 -0.1049  0.2437
 3921TIP3    H133322   0.664   4.041   0.244 -0.0467 -0.4289 -0.7301
 3921TIP3    H233323   0.516   4.039   0.279  0.3217  0.2249  0.9850
 3922TIP3   OH233324   0.151   3.592   2.261 -0.2626  1.0781  0.1316
 3922TIP3    H133325   0.075   3.555   2.306  0.8075  0.5090  1.5600
 3922TIP3    H233326   0.145   3.686   2.276 -0.4069  0.9812  0.7088
 3923TIP3   OH233327   4.088   1.039   6.979 -0.3514  0.1691 -0.1772
 3923TIP3    H133328   4.041   1.067   6.900 -0.0106  0.9745 -0.1097
 3923TIP3    H233329   4.093   0.944   6.972 -0.5493  0.2126 -1.0068
 3924TIP3   OH233330   1.931   5.927   7.638 -0.2230 -0.4302  0.3511
 3924TIP3    H133331   2.014   5.911   7.682  1.7884 -0.4076 -3.0470
 3924TIP3    H233332   1.932   6.021   7.618 -0.7899 -0.5320 -0.1960
 3925TIP3   OH233333   3.974   5.440   2.326 -0.4619  0.1191  0.2709
 3925TIP3    H133334   3.925   5.373   2.374  0.4795 -1.4324 -0.8710
 3925TIP3    H233335   4.057   5.447   2.372  1.0226 -2.3847 -1.7573
 3926TIP3   OH233336   4.453   5.899   0.881  0.0227 -0.3878 -0.7349
 3926TIP3    H133337   4.399   5.828   0.916  0.0123  0.0237  0.1179
 3926TIP3    H233338   4.448   5.888   0.786  1.5923 -2.6879 -0.6447
 3927TIP3   OH233339   6.053   5.448   7.059 -0.2105  0.5962 -0.5574
 3927TIP3    H133340   5.984   5.496   7.013  0.1062  0.8665 -0.7477
 3927TIP3    H233341   6.025   5.356   7.055 -0.8492  0.7649 -0.1329
 3928TIP3   OH233342   6.160   5.023   1.213 -0.3483 -0.1752 -0.0142
 3928TIP3    H133343   6.131   5.101   1.262  0.5955  0.7568 -0.8813
 3928TIP3    H233344   6.218   4.977   1.275 -1.2251 -0.4302  0.6442
 3929TIP3   OH233345   5.451   1.696   0.581  0.1419  0.0474 -0.0925
 3929TIP3    H133346   5.395   1.673   0.507  1.8264 -1.7661 -0.9178
 3929TIP3    H233347   5.437   1.626   0.644  0.7498  0.0878  0.0957
 3930TIP3   OH233348   6.159   2.346   2.557  0.9639  0.6754  0.6399
 3930TIP3    H133349   6.138   2.257   2.585 -0.0472  0.6509 -0.1127
 3930TIP3    H233350   6.216   2.380   2.626 -0.5292  0.2471  2.1742
 3931TIP3   OH233351   5.536   2.311   8.108  0.1607  0.1431 -0.3739
 3931TIP3    H133352   5.525   2.281   8.198 -1.5630  0.7360 -0.3560
 3931TIP3    H233353   5.564   2.402   8.116 -2.0026  0.8583 -0.3870
 3932TIP3   OH233354   6.280   6.653   2.498 -0.2302  0.0284  0.4789
 3932TIP3    H133355   6.334   6.727   2.527 -1.2618  0.3100  1.7896
 3932TIP3    H233356   6.272   6.598   2.575  1.4040 -2.0926 -0.7496
 3933TIP3   OH233357   5.515   5.571   1.573  0.0889 -0.1607 -0.3491
 3933TIP3    H133358   5.498   5.477   1.564 -2.4440 -0.0915  2.0194
 3933TIP3    H233359   5.470   5.610   1.498 -0.9050 -0.7516 -0.0954
 3934TIP3   OH233360   1.551   4.669   7.534 -0.0147  0.0501 -0.2895
 3934TIP3    H133361   1.515   4.591   7.492 -1.0001  0.8489 -0.9578
 3934TIP3    H233362   1.504   4.742   7.494  2.1409  1.1268 -0.9879
 3935TIP3   OH233363   2.607   2.771   0.584  0.0956 -0.0596 -0.3121
 3935TIP3    H133364   2.530   2.754   0.639  0.2207  0.1952 -0.0531
 3935TIP3    H233365   2.675   2.797   0.646  0.3239 -0.0517 -0.5637
 3936TIP3   OH233366   5.306   4.191   8.458  0.0200 -0.2392 -0.2053
 3936TIP3    H133367   5.307   4.127   8.529 -1.2926 -0.0617  0.0115
 3936TIP3    H233368   5.338   4.143   8.382 -1.3226 -1.3009 -0.1449
 3937TIP3   OH233369   2.362   3.426   6.636  0.4362  0.1956 -0.0679
 3937TIP3    H133370   2.398   3.338   6.628 -0.4778 -0.1001 -1.2680
 3937TIP3    H233371   2.267   3.413   6.635  0.2801  1.1543  0.3683
 3938TIP3   OH233372   0.803   5.459   7.846 -0.3370  0.5380 -0.1436
 3938TIP3    H133373   0.762   5.387   7.798  1.3622  0.2183 -1.2047
 3938TIP3    H233374   0.730   5.515   7.873 -1.7018 -1.3927  0.4441
 3939TIP3   OH233375   1.036   6.468   0.909  0.1068 -0.8961  0.2713
 3939TIP3    H133376   1.102   6.537   0.896 -1.4108  0.2919 -1.7301
 3939TIP3    H233377   0.955   6.505   0.875 -1.1859 -3.0661  0.7561
 3940TIP3   OH233378   6.668   3.160   8.561 -0.0470  0.0330  0.8668
 3940TIP3    H133379   6.657   3.194   8.472  1.2457  0.2308  0.7736
 3940TIP3    H233380   6.594   3.198   8.610  0.6303  1.9809  0.4594
 3941TIP3   OH233381   0.261   0.018   0.895  0.3202 -0.0705  0.1958
 3941TIP3    H133382   0.197  -0.031   0.947 -1.4459  1.4017 -0.4854
 3941TIP3    H233383   0.345  -0.023   0.916 -0.9023 -2.5717  0.5573
 3942TIP3   OH233384   4.445   5.415   7.864 -0.0875 -0.4734  0.3275
 3942TIP3    H133385   4.369   5.388   7.914 -0.2859 -0.0857  0.2395
 3942TIP3    H233386   4.433   5.509   7.850  0.5967 -0.3307  0.6442
 3943TIP3   OH233387   5.922   2.395   7.139  0.4321  0.0489  0.3914
 3943TIP3    H133388   5.898   2.330   7.074 -0.8771  0.2042  0.6839
 3943TIP3    H233389   6.014   2.378   7.158 -0.5351 -3.7315  2.6936
 3944TIP3   OH233390   2.151   0.157   8.393  0.9155  0.5010  0.2290
 3944TIP3    H133391   2.222   0.104   8.429  0.1030 -2.3878 -2.0390
 3944TIP3    H233392   2.170   0.246   8.424  2.2763 -0.9883  4.4331
 3945TIP3   OH233393   5.475   3.505   0.757 -0.0298 -0.1617 -1.0249
 3945TIP3    H133394   5.395   3.452   0.757 -0.8340  0.8182 -4.0291
 3945TIP3    H233395   5.546   3.442   0.759 -0.8846 -1.1345 -0.0380
 3946TIP3   OH233396   2.518   5.528   0.327 -0.3350 -0.2982 -0.4403
 3946TIP3    H133397   2.501   5.502   0.418 -0.3463 -0.4978 -0.4985
 3946TIP3    H233398   2.579   5.461   0.295  1.5183  1.0166  0.1187
 3947TIP3   OH233399   3.660   5.510   1.662  0.0772  0.2030  0.5263
 3947TIP3    H133400   3.630   5.572   1.595  2.3121  0.9038  0.0865
 3947TIP3    H233401   3.687   5.433   1.612  1.4467  0.6019  0.6213
 3948TIP3   OH233402   6.421   6.562   6.663  0.0542 -0.6601  0.2477
 3948TIP3    H133403   6.499   6.543   6.610  0.9476 -1.3738  1.7762
 3948TIP3    H233404   6.373   6.627   6.611  1.3153 -0.6975 -1.0371
 3949TIP3   OH233405   3.741   1.747   0.932  0.9114 -0.1974  0.5101
 3949TIP3    H133406   3.657   1.704   0.915  1.3477 -0.8063 -0.1519
 3949TIP3    H233407   3.783   1.753   0.847  1.5490  0.0876  0.8358
 3950TIP3   OH233408   0.650   6.565   8.510  0.3531 -0.6073 -0.2719
 3950TIP3    H133409   0.682   6.640   8.560  1.0411 -1.9369  1.3849
 3950TIP3    H233410   0.641   6.495   8.575 -1.4065 -1.6507 -1.5378
 3951TIP3   OH233411   3.783   4.329   1.590 -0.1333 -0.3569  0.1966
 3951TIP3    H133412   3.764   4.367   1.675  0.4633 -0.5957  0.4442
 3951TIP3    H233413   3.836   4.251   1.610 -0.7626 -0.9295 -0.3375
 3952TIP3   OH233414   3.885   6.099   7.401  0.3437  0.1251  0.1938
 3952TIP3    H133415   3.930   6.169   7.449  1.2828  0.4277 -1.0739
 3952TIP3    H233416   3.890   6.126   7.309 -2.7904  0.3530 -0.0187
 3953TIP3   OH233417   0.961   2.100   0.811  0.0177  0.3328  0.2821
 3953TIP3    H133418   0.924   2.090   0.723 -0.3591  0.5572  0.4133
 3953TIP3    H233419   0.960   2.011   0.847  1.1843  0.0490 -0.3291
 3954TIP3   OH233420   6.279   2.976   7.081 -0.1692  0.0506 -0.2793
 3954TIP3    H133421   6.274   2.888   7.118  1.5673 -0.8514 -2.0435
 3954TIP3    H233422   6.371   2.999   7.085 -0.6836  2.2201  0.9390
 3955TIP3   OH233423   5.822   5.685   8.374 -0.2510 -0.4597  0.1712
 3955TIP3    H133424   5.844   5.657   8.286  2.0718 -0.7226  0.7470
 3955TIP3    H233425   5.766   5.761   8.362  1.1688  0.3958 -1.5906
 3956TIP3   OH233426   6.049   1.318   1.865 -0.0553  0.1469 -0.5922
 3956TIP3    H133427   6.113   1.377   1.906  2.6042 -2.3987 -0.8000
 3956TIP3    H233428   6.042   1.245   1.926 -0.9741 -0.7078 -1.6900
 3957TIP3   OH233429   0.664   4.589   8.342  0.0989 -0.5753  0.0698
 3957TIP3    H133430   0.597   4.581   8.274 -0.5458  0.5829  0.5342
 3957TIP3    H233431   0.615   4.607   8.422  0.8648 -1.7779  0.8229
 3958TIP3   OH233432   3.100   1.878   1.702 -0.2113 -0.0241 -0.7353
 3958TIP3    H133433   3.120   1.789   1.674 -1.0572  0.3203 -2.5735
 3958TIP3    H233434   3.049   1.915   1.630 -0.0975  1.8700  0.1026
 3959TIP3   OH233435   0.975   4.930   7.627  0.2369 -0.2203  0.0722
 3959TIP3    H133436   0.913   4.895   7.691 -0.9119  0.1175 -0.8169
 3959TIP3    H233437   1.049   4.870   7.630 -0.4243 -1.0424  0.6753
 3960TIP3   OH233438   3.349   6.089   0.100 -0.1404 -0.3202  0.2508
 3960TIP3    H133439   3.339   6.059   0.190 -0.1344 -1.4984 -0.1191
 3960TIP3    H233440   3.426   6.042   0.067  0.7206  1.1809  0.0603
 3961TIP3   OH233441   6.118   1.649   7.189  0.3396  0.2393 -0.4254
 3961TIP3    H133442   6.139   1.597   7.267 -0.1794  0.0190 -0.4307
 3961TIP3    H233443   6.202   1.660   7.145  0.6187  0.2488  0.0946
 3962TIP3   OH233444   2.262   1.053   7.267 -0.7655  0.0324  0.5466
 3962TIP3    H133445   2.289   0.963   7.282 -1.3026 -0.1928  0.1765
 3962TIP3    H233446   2.298   1.101   7.342  0.2226 -0.3337  0.3322
 3963TIP3   OH233447   1.261   2.282   0.223  0.1293 -0.4591 -0.1016
 3963TIP3    H133448   1.226   2.201   0.185  1.5218 -0.3619 -1.7208
 3963TIP3    H233449   1.353   2.262   0.240  0.1508  0.3613  0.8121
 3964TIP3   OH233450   6.502   1.658   1.423  0.0262 -0.9687  0.1059
 3964TIP3    H133451   6.562   1.627   1.354 -0.3978 -0.0154 -0.7180
 3964TIP3    H233452   6.525   1.750   1.434 -0.9374 -0.7319  0.1469
 3965TIP3   OH233453   4.756   6.626   0.256  0.1967  0.7475  0.2799
 3965TIP3    H133454   4.787   6.635   0.166  2.2761  0.8702  0.9603
 3965TIP3    H233455   4.732   6.715   0.283 -1.6351  0.5389 -0.5049
 3966TIP3   OH233456   0.579   1.240   7.398 -0.0231 -0.7204 -0.6325
 3966TIP3    H133457   0.619   1.259   7.313 -0.1416 -0.4272 -0.6217
 3966TIP3    H233458   0.569   1.145   7.398  0.5088 -0.7792 -0.7082
 3967TIP3   OH233459   6.081   2.284   7.739 -0.2457  0.2176  0.1349
 3967TIP3    H133460   6.076   2.259   7.831 -0.9539 -1.9409 -0.4442
 3967TIP3    H233461   5.999   2.255   7.701  0.2364  0.6404 -1.2989
 3968TIP3   OH233462   2.559   4.931   1.404 -0.1608  0.3578 -0.0373
 3968TIP3    H133463   2.489   4.949   1.468 -0.4654 -1.7677  0.2897
 3968TIP3    H233464   2.636   4.915   1.458  0.1958  1.0640 -0.3303
 3969TIP3   OH233465   0.984   4.972   8.497  0.0521  0.7351  0.4401
 3969TIP3    H133466   0.997   4.947   8.405  0.2728  1.9603  0.1161
 3969TIP3    H233467   1.005   4.892   8.546  0.5807  0.2434 -0.5357
 3970TIP3   OH233468   0.137   0.901   1.450  0.0305 -0.1905  0.4417
 3970TIP3    H133469   0.074   0.832   1.429 -0.5761  0.2653  0.7230
 3970TIP3    H233470   0.091   0.982   1.429  0.2740  0.1764  1.3094
 3971TIP3   OH233471   2.765   6.186   0.128  0.8649 -0.1415 -0.5247
 3971TIP3    H133472   2.812   6.208   0.208 -1.4492  0.0640  0.8652
 3971TIP3    H233473   2.783   6.093   0.115  0.2424 -0.5169  1.0373
 3972TIP3   OH233474   4.662   6.342   7.357 -0.0481  0.5368  0.2329
 3972TIP3    H133475   4.701   6.281   7.294  0.8901  0.0821  1.2182
 3972TIP3    H233476   4.699   6.427   7.332 -0.3651  0.5051 -0.3632
 3973TIP3   OH233477   3.684   0.090   6.183  0.1133  0.4503 -0.5590
 3973TIP3    H133478   3.715   0.023   6.123 -0.1500  1.0740 -1.4123
 3973TIP3    H233479   3.719   0.064   6.269  0.9470 -0.1571 -1.0721
 3974TIP3   OH233480   1.184   3.782   1.473  0.0432 -0.1422 -0.7476
 3974TIP3    H133481   1.247   3.839   1.518  1.3662 -1.7773 -0.4371
 3974TIP3    H233482   1.099   3.810   1.506  0.7024  1.1580 -0.0559
 3975TIP3   OH233483   6.578   4.744   0.922  0.2669  0.0679  0.3192
 3975TIP3    H133484   6.650   4.790   0.879 -0.2191  0.2311 -0.3460
 3975TIP3    H233485   6.566   4.790   1.005 -0.5723  1.5212 -0.5697
 3976TIP3   OH233486   6.744   0.981   2.842 -0.1225  0.0044  0.4181
 3976TIP3    H133487   6.831   1.001   2.806  0.5325 -1.7703  0.9166
 3976TIP3    H233488   6.709   1.066   2.868  1.8522  0.6775  1.0336
 3977TIP3   OH233489   4.523   4.079   0.910 -0.0094  0.1799 -0.0454
 3977TIP3    H133490   4.574   4.010   0.868 -1.8313  0.6116 -3.1870
 3977TIP3    H233491   4.589   4.136   0.950  1.7249 -1.2956 -0.6837
 3978TIP3   OH233492   4.081   0.605   2.685 -0.1518 -0.4482  0.1394
 3978TIP3    H133493   4.018   0.554   2.634 -1.1945  1.5021 -0.6431
 3978TIP3    H233494   4.038   0.620   2.769 -0.2129 -0.1790  0.0627
 3979TIP3   OH233495   3.775   1.171   1.538  0.0410  0.4265 -0.2591
 3979TIP3    H133496   3.847   1.206   1.591  0.0136 -0.5235  0.4542
 3979TIP3    H233497   3.696   1.203   1.582  0.0132  1.5554 -1.1028
 3980TIP3   OH233498   2.498   0.839   0.549 -0.9618  0.0313 -0.0284
 3980TIP3    H133499   2.575   0.851   0.603  0.1324  0.6094 -1.6354
 3980TIP3    H233500   2.425   0.872   0.602 -0.0510 -0.1237  1.3457
 3981TIP3   OH233501   3.062   0.282   2.253 -0.2220 -0.2380 -0.0134
 3981TIP3    H133502   3.091   0.234   2.331  0.9348 -0.2435 -0.4368
 3981TIP3    H233503   3.142   0.316   2.214 -0.9083  0.8979 -0.4822
 3982TIP3   OH233504   3.395   1.099   6.389 -0.2960  0.1739 -0.2811
 3982TIP3    H133505   3.362   1.173   6.338  0.1773 -0.1879 -1.1393
 3982TIP3    H233506   3.346   1.103   6.471 -1.5195  0.4161 -0.9991
 3983TIP3   OH233507   3.005   1.423   0.634 -0.3936  0.4151  0.0529
 3983TIP3    H133508   3.003   1.467   0.549 -0.4284  1.0197  0.3586
 3983TIP3    H233509   2.938   1.355   0.628 -1.3642  1.3367  0.0459
 3984TIP3   OH233510   0.975   4.298   2.193 -0.4236 -0.1097  0.2969
 3984TIP3    H133511   1.000   4.207   2.178 -1.3065 -0.4794  0.9757
 3984TIP3    H233512   0.973   4.308   2.288 -1.8370  0.1595  0.2681
 3985TIP3   OH233513   2.950   6.089   1.415  0.5469  0.2933  0.1858
 3985TIP3    H133514   2.996   6.162   1.456 -0.3791  0.7178  0.4867
 3985TIP3    H233515   2.992   6.011   1.450  1.1928  0.6732  0.2683
 3986TIP3   OH233516   0.835   5.836   0.705 -0.1406 -0.4023 -0.2776
 3986TIP3    H133517   0.929   5.825   0.715 -0.2535 -0.1705  1.3399
 3986TIP3    H233518   0.820   5.838   0.611  1.0689 -3.9036 -0.7007
 3987TIP3   OH233519   0.367   5.215   7.706  0.0854  0.0285  0.4109
 3987TIP3    H133520   0.362   5.119   7.700 -2.6768 -0.0098  1.7185
 3987TIP3    H233521   0.281   5.245   7.674  1.1313  2.1571 -0.6085
 3988TIP3   OH233522   2.782   0.532   6.575 -0.3984  0.3927  0.1140
 3988TIP3    H133523   2.862   0.526   6.522 -0.3978 -0.4155  0.2007
 3988TIP3    H233524   2.725   0.590   6.524 -0.0976  0.2584 -0.3867
 3989TIP3   OH233525   0.823   5.230   2.268  0.1527 -0.1544  0.0821
 3989TIP3    H133526   0.767   5.173   2.320 -1.0141 -0.3591 -1.3585
 3989TIP3    H233527   0.905   5.235   2.318 -0.8678 -0.4462  1.8497
 3990TIP3   OH233528   2.002   5.234   0.732  1.6477  0.3638 -0.4858
 3990TIP3    H133529   1.964   5.299   0.791 -2.2660 -1.6411 -0.4873
 3990TIP3    H233530   2.092   5.224   0.762  1.3137  3.0679  1.8085
 3991TIP3   OH233531   5.221   1.993   0.640  0.4136  0.6738  0.2737
 3991TIP3    H133532   5.313   2.015   0.627  0.2692  1.8801  1.2039
 3991TIP3    H233533   5.216   1.961   0.730 -0.2329  1.5283  0.5521
 3992TIP3   OH233534   1.972   3.922   1.279 -0.2644  0.0272  0.5590
 3992TIP3    H133535   1.895   3.936   1.223 -0.9308 -2.7228  0.6777
 3992TIP3    H233536   1.985   3.828   1.279  2.2765  0.3075  1.7369
 3993TIP3   OH233537   5.400   6.304   0.817  0.3869 -0.0377  0.1879
 3993TIP3    H133538   5.327   6.249   0.842  0.3185 -0.0167  0.0329
 3993TIP3    H233539   5.381   6.332   0.727  0.0310  0.8775  0.5379
 3994TIP3   OH233540   4.069   2.994   1.234  0.1141  0.0150 -0.0105
 3994TIP3    H133541   4.100   2.908   1.262  0.5536  0.4000  0.6988
 3994TIP3    H233542   4.116   3.012   1.153 -1.2347 -1.1480 -1.1008
 3995TIP3   OH233543   4.313   3.804   7.010  0.5876  0.4464  0.5489
 3995TIP3    H133544   4.217   3.810   7.014  0.3757 -1.7091  0.2075
 3995TIP3    H233545   4.332   3.780   6.919  1.2995 -0.6502  0.9657
 3996TIP3   OH233546   4.137   6.582   6.533  0.4673 -0.8467  0.0637
 3996TIP3    H133547   4.231   6.581   6.514  0.5467  0.1148  0.3700
 3996TIP3    H233548   4.108   6.669   6.508  0.1583 -0.2388  2.3011
 3997TIP3   OH233549   5.477   4.036   8.279 -0.4123 -0.4373 -0.3739
 3997TIP3    H133550   5.426   4.104   8.237  0.2501  0.7636  0.6949
 3997TIP3    H233551   5.529   3.998   8.209  2.1790  2.8648 -0.5009
 3998TIP3   OH233552   2.176   4.108   0.888 -0.1928  0.0604  0.2747
 3998TIP3    H133553   2.217   4.098   0.802 -0.9619 -0.6995 -0.0155
 3998TIP3    H233554   2.171   4.019   0.923  0.0073  0.3525  1.0600
 3999TIP3   OH233555   4.383   5.608   2.483 -0.6109  0.1961 -0.6005
 3999TIP3    H133556   4.332   5.674   2.435  0.4078  0.5252 -1.2699
 3999TIP3    H233557   4.336   5.526   2.470 -0.3183  0.2694 -2.2513
 4000TIP3   OH233558   1.596   2.975   8.405  0.4090  0.0663 -0.5620
 4000TIP3    H133559   1.672   2.920   8.424  0.1443 -0.3499 -0.6927
 4000TIP3    H233560   1.621   3.062   8.434  1.0588 -0.0054 -0.8966
 4001TIP3   OH233561   3.562   2.622   0.533  0.6725  0.1558 -0.6967
 4001TIP3    H133562   3.516   2.546   0.497 -0.1677  0.4204 -0.2086
 4001TIP3    H233563   3.497   2.692   0.533  1.5352  0.9776 -1.4494
 4002TIP3   OH233564   3.111   5.496   7.701  0.1467  0.4284 -0.4191
 4002TIP3    H133565   3.025   5.488   7.660 -0.0297  1.0226 -0.1587
 4002TIP3    H233566   3.095   5.493   7.795  0.7473 -3.2543 -0.2848
 4003TIP3   OH233567   1.093   5.222   2.139 -0.1124  0.4626  0.0502
 4003TIP3    H133568   1.027   5.160   2.108 -1.4319  1.0015  1.6404
 4003TIP3    H233569   1.093   5.292   2.073 -2.0707  1.0608  0.6071
 4004TIP3   OH233570   2.243   3.651   8.321  0.4908 -0.1595 -0.4081
 4004TIP3    H133571   2.192   3.660   8.240 -1.5076 -1.3862  0.6105
 4004TIP3    H233572   2.249   3.739   8.356 -0.9861  0.0391 -0.5844
 4005TIP3   OH233573   5.874   5.234   6.980  0.1291  0.3445  0.1280
 4005TIP3    H133574   5.818   5.293   6.929  0.1029 -0.4395 -0.8038
 4005TIP3    H233575   5.820   5.156   6.992  0.7432 -0.1292 -0.1229
 4006TIP3   OH233576   4.063   5.415   1.855  0.5140 -0.8098 -0.3029
 4006TIP3    H133577   4.002   5.475   1.811  1.8415 -0.1965 -1.3886
 4006TIP3    H233578   4.017   5.389   1.935 -0.2472  1.4368  0.0804
 4007TIP3   OH233579   3.186   6.325   8.051 -0.0434 -0.4787 -0.4479
 4007TIP3    H133580   3.268   6.362   8.083 -0.4255  0.1532 -0.1935
 4007TIP3    H233581   3.130   6.401   8.035 -0.7250 -0.9286 -0.2282
 4008TIP3   OH233582   3.916   0.292   7.961  0.4376  0.9537 -0.1660
 4008TIP3    H133583   3.978   0.219   7.959 -0.9139 -0.2652  0.1519
 4008TIP3    H233584   3.890   0.305   7.870 -1.1395 -0.6675 -0.0152
 4009TIP3   OH233585   0.187   5.987   1.499 -0.0750  0.4018  0.5443
 4009TIP3    H133586   0.272   5.990   1.542 -0.3229  0.5604  1.0318
 4009TIP3    H233587   0.198   6.038   1.419  0.3316  0.2826  0.5242
 4010TIP3   OH233588   5.819   0.826   1.585 -0.4032  0.1443  0.6492
 4010TIP3    H133589   5.788   0.850   1.497 -2.3055 -0.1389  1.2070
 4010TIP3    H233590   5.822   0.909   1.633 -1.1939  0.0708  0.8430
 4011TIP3   OH233591   4.694   6.854   1.138 -0.1598  0.1640  1.2631
 4011TIP3    H133592   4.611   6.854   1.187  0.4891 -1.7084  2.4716
 4011TIP3    H233593   4.761   6.840   1.205  1.1205  1.3035  0.2564
 4012TIP3   OH233594   5.061   6.063   2.203 -0.5393 -0.0507 -0.2046
 4012TIP3    H133595   4.975   6.104   2.216 -0.8677 -1.2073  1.8008
 4012TIP3    H233596   5.085   6.031   2.290  2.7326  1.6997 -0.3005
 4013TIP3   OH233597   1.282   4.451   1.124 -0.0596  0.0474  0.3625
 4013TIP3    H133598   1.224   4.471   1.051  1.2768 -2.2244 -1.4638
 4013TIP3    H233599   1.359   4.507   1.110  0.5046 -0.9024 -0.4360
 4014TIP3   OH233600   4.408   1.145   8.049  0.6223 -0.4037  0.9289
 4014TIP3    H133601   4.326   1.138   8.001  0.7510  0.2673  0.6010
 4014TIP3    H233602   4.462   1.073   8.016  1.6838  1.5002 -1.8821
 4015TIP3   OH233603   6.214   6.699   8.421 -0.1649  0.7513  0.2806
 4015TIP3    H133604   6.233   6.792   8.408  0.2800  0.5627 -0.5035
 4015TIP3    H233605   6.274   6.671   8.490  0.1858  0.8828  0.0257
 4016TIP3   OH233606   5.984   0.605   2.207 -0.4464  0.0538  0.4609
 4016TIP3    H133607   5.936   0.688   2.210 -0.1400  0.2523  0.0732
 4016TIP3    H233608   5.980   0.571   2.296  0.7351  1.2458  1.0067
 4017TIP3   OH233609   3.973   0.515   1.581  0.2311  0.3087  0.1699
 4017TIP3    H133610   4.059   0.495   1.543  0.2267 -0.7029  0.6453
 4017TIP3    H233611   3.949   0.435   1.628 -0.5467  0.9198  0.8362
 4018TIP3   OH233612   6.442   2.385   6.538  0.3327  0.2312 -0.4384
 4018TIP3    H133613   6.394   2.419   6.614  1.3851 -0.4879  0.5998
 4018TIP3    H233614   6.378   2.383   6.467  0.0197  3.6453 -0.3968
 4019TIP3   OH233615   1.564   1.487   1.328  0.5047 -0.3143 -0.0361
 4019TIP3    H133616   1.544   1.521   1.241  0.6810 -0.5495 -0.1710
 4019TIP3    H233617   1.650   1.447   1.318  0.6470 -0.1030  0.3140
 4020TIP3   OH233618   3.997   4.499   1.773 -0.6329 -0.3274 -0.4304
 4020TIP3    H133619   4.003   4.530   1.682 -2.0496 -0.3193 -0.5536
 4020TIP3    H233620   4.060   4.428   1.779  1.5213  1.4530 -0.6163
 4021TIP3   OH233621   4.677   2.589   8.505  0.3812 -0.1002  0.5679
 4021TIP3    H133622   4.587   2.567   8.481  0.9997 -2.0098 -0.1410
 4021TIP3    H233623   4.677   2.588   8.601 -0.0919 -1.2912  0.5672
 4022TIP3   OH233624   5.964   0.189   0.738 -0.4164 -0.2522 -0.0434
 4022TIP3    H133625   5.954   0.100   0.771 -1.1744  0.4538  1.7876
 4022TIP3    H233626   5.887   0.202   0.683 -2.1909  0.3029  2.3705
 4023TIP3   OH233627   1.590   3.110   1.813 -0.2345  0.2776 -0.0241
 4023TIP3    H133628   1.497   3.088   1.802 -0.2213 -0.1693  0.7339
 4023TIP3    H233629   1.613   3.075   1.899  0.6786  0.2551 -0.2708
 4024TIP3   OH233630   3.841   4.216   1.227 -0.1978 -0.3655 -0.0063
 4024TIP3    H133631   3.933   4.239   1.218 -0.5011  2.0240  1.8221
 4024TIP3    H233632   3.842   4.125   1.257  1.6983  0.0605  1.4705
 4025TIP3   OH233633   5.484   6.874   1.296  0.2778  0.7413 -0.1413
 4025TIP3    H133634   5.575   6.874   1.327  0.5798 -0.2221 -0.9862
 4025TIP3    H233635   5.489   6.843   1.206 -0.9822 -0.2570  0.1014
 4026TIP3   OH233636   0.385   3.268   7.163  0.6706  0.1880  0.3900
 4026TIP3    H133637   0.316   3.281   7.098  0.2084 -0.1839  0.7935
 4026TIP3    H233638   0.367   3.181   7.199  0.0746  0.9420  2.0004
 4027TIP3   OH233639   5.783   1.795   8.340 -0.5546 -0.1932  0.2518
 4027TIP3    H133640   5.866   1.758   8.310  0.4496  0.6907  1.7674
 4027TIP3    H233641   5.734   1.814   8.260  1.0727  0.0576 -0.7183
 4028TIP3   OH233642   2.908   5.724   7.942 -0.0022  0.2689 -0.5035
 4028TIP3    H133643   2.864   5.692   7.863 -0.8326  1.6937 -0.6480
 4028TIP3    H233644   2.961   5.650   7.972 -2.0334 -1.3323 -0.6744
 4029TIP3   OH233645   0.903   0.735   1.012  0.1578 -0.3684  0.0795
 4029TIP3    H133646   0.893   0.718   1.106 -1.0769  0.3086  0.0936
 4029TIP3    H233647   0.859   0.819   0.998  0.5092 -0.3612 -1.0723
 4030TIP3   OH233648   0.391   3.312   7.849 -0.1303  0.0425 -0.3615
 4030TIP3    H133649   0.407   3.404   7.872  1.3693 -0.1790 -0.4163
 4030TIP3    H233650   0.300   3.311   7.818 -0.2802  1.4412 -0.0611
 4031TIP3   OH233651   3.241   0.668   8.557  0.1353 -0.3000 -0.3214
 4031TIP3    H133652   3.267   0.693   8.468  0.2722  0.4338 -0.0828
 4031TIP3    H233653   3.159   0.620   8.545 -0.1092  0.2245 -0.8082
 4032TIP3   OH233654   2.022   6.089   2.271  0.0115 -0.3501 -0.0535
 4032TIP3    H133655   2.039   6.067   2.362  0.2778 -2.8168 -0.6336
 4032TIP3    H233656   2.099   6.057   2.223  0.5120  2.0903 -1.0598
 4033TIP3   OH233657   4.981   4.408   0.137 -0.0790 -0.5313  0.1927
 4033TIP3    H133658   4.904   4.371   0.094  0.1644 -2.6663  1.3976
 4033TIP3    H233659   5.042   4.429   0.066 -0.7720 -1.2825 -0.6402
 4034TIP3   OH233660   0.379   0.850   6.096  0.6687 -0.3958 -0.3409
 4034TIP3    H133661   0.403   0.777   6.153  3.7562  2.0760  1.8704
 4034TIP3    H233662   0.289   0.872   6.121  0.7614 -1.5203  1.1067
 4035TIP3   OH233663   5.967   0.781   1.929  0.0870 -0.0709 -0.5120
 4035TIP3    H133664   5.923   0.821   2.004 -2.0145 -0.9061 -1.2402
 4035TIP3    H233665   6.013   0.854   1.886  0.0310  0.6919  0.6720
 4036TIP3   OH233666   4.203   3.449   2.223 -0.3169  0.4494  0.5252
 4036TIP3    H133667   4.139   3.379   2.233  0.6232 -0.5020  0.0923
 4036TIP3    H233668   4.287   3.408   2.245  0.1293  1.7227  1.3073
 4037TIP3   OH233669   2.164   2.485   7.862 -0.4227  0.3413 -0.0019
 4037TIP3    H133670   2.236   2.515   7.917  0.0996  0.9409 -0.9774
 4037TIP3    H233671   2.178   2.529   7.778 -2.0090  0.5845 -0.1756
 4038TIP3   OH233672   2.461   0.540   2.073  0.2495  0.0016  0.0141
 4038TIP3    H133673   2.446   0.481   1.999 -0.9471 -0.0723  0.3027
 4038TIP3    H233674   2.471   0.627   2.033 -0.0743 -0.0864 -0.2645
 4039TIP3   OH233675   3.237   3.588   8.457  0.7536 -0.1945 -0.6093
 4039TIP3    H133676   3.252   3.587   8.362  2.0401  0.8117 -0.4528
 4039TIP3    H233677   3.236   3.681   8.480  0.4250 -0.4255  0.3636
 4040TIP3   OH233678   3.310   5.628   0.920  0.1661 -0.2972  0.0434
 4040TIP3    H133679   3.300   5.558   0.855 -0.4348  1.8169 -2.3418
 4040TIP3    H233680   3.387   5.677   0.890 -1.4221  2.0428 -0.4858
 4041TIP3   OH233681   1.463   0.989   7.922  0.1664 -0.2878  0.2005
 4041TIP3    H133682   1.517   0.945   7.856 -1.9127  1.2827 -2.7705
 4041TIP3    H233683   1.497   1.079   7.925 -0.9648  0.1757 -0.2429
 4042TIP3   OH233684   0.606   4.896   8.471  0.3542  0.2908 -0.0224
 4042TIP3    H133685   0.642   4.898   8.382  0.5685  0.2964  0.0634
 4042TIP3    H233686   0.578   4.986   8.487  2.5651  0.8875  0.8253
 4043TIP3   OH233687   4.838   3.068   1.595 -0.0101 -0.8045 -0.6145
 4043TIP3    H133688   4.859   2.979   1.569 -0.3523 -1.4741  1.2566
 4043TIP3    H233689   4.743   3.072   1.595 -0.0122 -0.6981  0.0795
 4044TIP3   OH233690   5.300   1.891   8.436 -0.0677 -0.1225 -0.6160
 4044TIP3    H133691   5.294   1.927   8.347 -0.7214  1.3390 -0.0071
 4044TIP3    H233692   5.211   1.892   8.469  0.0079 -1.6310 -0.2710
 4045TIP3   OH233693   3.120   0.763   1.058  0.9462 -0.3612 -0.2322
 4045TIP3    H133694   3.108   0.774   0.964 -1.8593 -1.5764 -0.1195
 4045TIP3    H233695   3.215   0.759   1.069  1.7230  4.7001 -2.2851
 4046TIP3   OH233696   6.682   2.821   0.637  0.3952  0.0214 -0.1173
 4046TIP3    H133697   6.619   2.768   0.588  0.9601  0.1314 -0.9782
 4046TIP3    H233698   6.747   2.847   0.572  0.5420  1.1360  0.4541
 4047TIP3   OH233699   2.267   6.033   7.663  0.1184  0.6071  0.2887
 4047TIP3    H133700   2.238   6.053   7.574 -0.4802  0.1108  0.3686
 4047TIP3    H233701   2.232   5.946   7.681  0.9064  0.3708  0.7243
 4048TIP3   OH233702   5.642   5.605   1.041 -0.4220 -0.7599 -0.3958
 4048TIP3    H133703   5.609   5.693   1.059  1.5350 -0.2428  1.0004
 4048TIP3    H233704   5.691   5.613   0.959 -0.0175 -0.4885 -0.1260
 4049TIP3   OH233705   5.934   0.717   1.100 -0.5889  0.0934 -0.4054
 4049TIP3    H133706   5.988   0.760   1.034  1.0797 -0.4609  0.5447
 4049TIP3    H233707   5.968   0.747   1.184 -2.6858  0.8037  0.2656
 4050TIP3   OH233708   6.554   2.828   0.891 -1.0166  0.6599 -0.2139
 4050TIP3    H133709   6.581   2.822   0.799  0.3537  1.9790  0.0511
 4050TIP3    H233710   6.605   2.760   0.935 -1.0570  0.5656 -0.3132
 4051TIP3   OH233711   5.968   5.006   1.570  0.2151 -0.4800 -0.3381
 4051TIP3    H133712   6.008   4.950   1.636  1.2189  0.3848 -0.1838
 4051TIP3    H233713   6.040   5.060   1.537 -0.9204  1.7485  0.5730
 4052TIP3   OH233714   1.030   4.467   1.980  0.0865 -0.1310  0.5254
 4052TIP3    H133715   1.025   4.398   2.047  1.1511 -0.7810 -0.0524
 4052TIP3    H233716   0.964   4.443   1.916 -2.1880  1.4175  2.1218
 4053TIP3   OH233717   5.303   4.756   0.543 -1.0670 -0.4548  0.0554
 4053TIP3    H133718   5.342   4.786   0.461 -1.6936  0.5647  0.1179
 4053TIP3    H233719   5.221   4.804   0.550 -1.2054 -0.8159  1.0968
 4054TIP3   OH233720   6.108   4.104   0.945  0.6268  0.2131  0.0234
 4054TIP3    H133721   6.137   4.164   0.876  0.4791 -1.2148 -1.3501
 4054TIP3    H233722   6.013   4.100   0.934  0.7988 -1.5894 -1.0781
 4055TIP3   OH233723   6.503   1.003   1.863 -0.4859  0.2901 -0.4141
 4055TIP3    H133724   6.479   1.044   1.946 -1.8170  0.7422 -0.9975
 4055TIP3    H233725   6.510   0.910   1.884 -2.7756  0.1131 -0.1600
 4056TIP3   OH233726   3.175   5.246   7.812  0.3621  0.5233  0.1991
 4056TIP3    H133727   3.251   5.211   7.857  2.3731  1.6875 -2.0322
 4056TIP3    H233728   3.180   5.340   7.825 -0.0199  0.7182 -0.9034
 4057TIP3   OH233729   4.140   5.689   1.269  0.1906 -0.0775  0.0369
 4057TIP3    H133730   4.093   5.772   1.258  0.0381 -0.2049 -0.2863
 4057TIP3    H233731   4.232   5.712   1.253  0.3085  0.2587  1.0925
 4058TIP3   OH233732   6.789   2.896   7.988 -0.1132  0.4364 -0.3203
 4058TIP3    H133733   6.855   2.832   7.960  0.9596  0.6377  1.6005
 4058TIP3    H233734   6.786   2.959   7.916  0.1755 -0.7504 -1.4115
 4059TIP3   OH233735   1.920   1.766   0.414 -0.1395  0.2722 -0.2053
 4059TIP3    H133736   1.978   1.810   0.478  0.3184 -0.3040 -0.2187
 4059TIP3    H233737   1.946   1.674   0.418 -3.5315 -0.7969  2.5605
 4060TIP3   OH233738   3.204   4.184   1.050  0.4418  0.2717 -0.5279
 4060TIP3    H133739   3.169   4.098   1.029 -1.9619  1.5933 -2.3464
 4060TIP3    H233740   3.266   4.203   0.979 -0.6344  0.8842 -1.3228
 4061TIP3   OH233741   1.091   5.775   0.704  0.0381 -0.3422 -0.0286
 4061TIP3    H133742   1.147   5.754   0.629  0.7897  1.9950 -0.2119
 4061TIP3    H233743   1.151   5.808   0.771 -0.8739 -0.0760  0.6838
 4062TIP3   OH233744   5.779   2.943   8.093  0.1481 -0.2581 -0.3739
 4062TIP3    H133745   5.780   3.038   8.105 -0.9683 -0.2601 -0.1108
 4062TIP3    H233746   5.711   2.912   8.153  0.6532 -1.2505 -0.2993
 4063TIP3   OH233747   4.821   6.425   8.529 -0.0203  0.2323 -0.5286
 4063TIP3    H133748   4.900   6.411   8.581 -0.6784  0.3073  0.5065
 4063TIP3    H233749   4.786   6.337   8.516 -0.4490  0.3031  0.1089
 4064TIP3   OH233750   6.397   2.679   2.013  0.4078 -0.0574 -0.5109
 4064TIP3    H133751   6.357   2.694   2.099 -0.6524 -1.4743 -0.7196
 4064TIP3    H233752   6.355   2.742   1.955  0.8494  0.6489 -0.0708
 4065TIP3   OH233753   2.547   5.962   7.030 -0.5937  0.4519 -0.2710
 4065TIP3    H133754   2.489   5.944   7.104 -2.2654 -1.3353 -1.8983
 4065TIP3    H233755   2.587   6.047   7.051 -2.5528  0.9810  1.7015
 4066TIP3   OH233756   2.650   2.114   0.037 -0.1008 -0.6875 -0.2356
 4066TIP3    H133757   2.647   2.030   0.083  0.0036 -1.1880 -1.1259
 4066TIP3    H233758   2.586   2.169   0.083  0.4312 -0.9676  0.8818
 4067TIP3   OH233759   3.614   5.651   1.997 -0.1981  0.4312  0.0665
 4067TIP3    H133760   3.624   5.600   1.917  1.0687  1.6876 -0.6116
 4067TIP3    H233761   3.703   5.660   2.032 -0.8548 -1.3969  2.5092
 4068TIP3   OH233762   0.185   1.661   7.481 -0.4228  0.4376  0.9061
 4068TIP3    H133763   0.261   1.713   7.453  0.0284 -0.6527  0.0202
 4068TIP3    H233764   0.113   1.695   7.428 -0.5327  1.3562  1.6208
 4069TIP3   OH233765   1.065   1.856   1.926  0.1481  0.3590 -0.5839
 4069TIP3    H133766   1.075   1.828   2.017  1.4687 -0.1928 -0.8797
 4069TIP3    H233767   1.017   1.939   1.932 -0.9425 -0.3034  0.5189
 4070TIP3   OH233768   5.631   4.721   1.625 -0.4039  0.1406  0.3299
 4070TIP3    H133769   5.634   4.814   1.604  0.9537  0.1501  0.4759
 4070TIP3    H233770   5.714   4.703   1.669 -1.1788 -0.8765  1.4698
 4071TIP3   OH233771   4.443   1.454   7.386 -0.0550  0.1564 -0.4137
 4071TIP3    H133772   4.520   1.413   7.346 -0.0551 -0.0046 -0.2558
 4071TIP3    H233773   4.451   1.432   7.479 -2.3618 -3.3853 -0.8168
 4072TIP3   OH233774   1.141   2.964   0.900 -0.1884  0.2057 -0.1154
 4072TIP3    H133775   1.123   2.931   0.989 -0.1272  0.5990  0.0478
 4072TIP3    H233776   1.085   3.042   0.893 -0.5398 -0.0827 -0.5939
 4073TIP3   OH233777   6.542   6.127   8.549  0.2793  0.0039 -0.1069
 4073TIP3    H133778   6.518   6.046   8.504 -0.8332 -0.0746  0.5638
 4073TIP3    H233779   6.481   6.193   8.513  2.3029  0.9971 -1.9268
 4074TIP3   OH233780   0.404   4.478   7.622  0.3451 -0.3502  0.4727
 4074TIP3    H133781   0.365   4.512   7.702 -0.2546  0.1273 -0.0140
 4074TIP3    H233782   0.460   4.549   7.590  3.3979 -1.7541  2.2828
 4075TIP3   OH233783   0.886   5.316   8.184  0.7325 -0.1466  0.5457
 4075TIP3    H133784   0.964   5.262   8.188  1.4269  0.7680 -0.1066
 4075TIP3    H233785   0.853   5.304   8.095  0.4847 -0.0563  0.6248
 4076TIP3   OH233786   6.392   5.054   8.114  0.0579 -0.1602 -0.7915
 4076TIP3    H133787   6.386   5.143   8.079  0.2126  0.1176 -0.1307
 4076TIP3    H233788   6.320   5.048   8.177  0.8641 -0.0404  0.1638
 4077TIP3   OH233789   0.833   2.015   8.259 -0.1127 -0.4205 -0.0753
 4077TIP3    H133790   0.870   2.032   8.173 -1.5085 -1.4939 -0.9202
 4077TIP3    H233791   0.891   1.949   8.297 -0.1896 -0.8566 -0.7043
 4078TIP3   OH233792   6.453   3.828   0.290 -0.1998 -0.2828  0.2390
 4078TIP3    H133793   6.373   3.875   0.313 -0.3090 -1.2300  1.9593
 4078TIP3    H233794   6.452   3.825   0.194 -1.1092  1.5627  0.1454
 4079TIP3   OH233795   0.875   0.941   1.961 -0.0681 -0.4156  0.1278
 4079TIP3    H133796   0.858   1.035   1.967 -1.7260 -0.5748 -1.3197
 4079TIP3    H233797   0.856   0.907   2.049 -0.1643  0.4815  0.4656
 4080TIP3   OH233798   0.577   6.061   8.631  0.2395  0.5523  0.1418
 4080TIP3    H133799   0.517   6.072   8.705 -2.6675  0.3812 -2.0103
 4080TIP3    H233800   0.563   5.971   8.602  1.6081  0.4880 -0.4121
 4081TIP3   OH233801   6.065   1.731   2.000  0.5309  0.7839 -0.3701
 4081TIP3    H133802   6.043   1.811   2.047  0.2572  0.2270  0.4751
 4081TIP3    H233803   6.107   1.675   2.066  2.9994  1.1535 -1.5017
 4082TIP3   OH233804   2.302   0.524   1.212  0.5358 -0.3460 -0.4856
 4082TIP3    H133805   2.247   0.458   1.255 -1.4562  0.3669 -1.7834
 4082TIP3    H233806   2.391   0.501   1.237 -0.3612 -1.0348  2.5185
 4083TIP3   OH233807   5.611   5.156   8.278  0.4198 -0.5049  0.3136
 4083TIP3    H133808   5.649   5.233   8.235  2.0755 -0.5945  1.5234
 4083TIP3    H233809   5.630   5.084   8.218 -1.1789 -0.0282 -0.8469
 4084TIP3   OH233810   1.339   6.145   1.736  0.8782 -0.5730 -0.3667
 4084TIP3    H133811   1.307   6.219   1.788  1.2576 -0.9222  0.3799
 4084TIP3    H233812   1.363   6.184   1.651 -0.8548 -0.1934 -0.7197
 4085TIP3   OH233813   1.636   4.118   7.613  0.2232 -0.4277  0.3741
 4085TIP3    H133814   1.686   4.147   7.536  3.0713  0.0745  2.2606
 4085TIP3    H233815   1.557   4.171   7.611  1.0713  0.8843 -1.2341
 4086TIP3   OH233816   0.295   3.771   7.093  0.6502 -0.0469 -0.1789
 4086TIP3    H133817   0.282   3.866   7.098  0.5875  0.0709 -1.9360
 4086TIP3    H233818   0.207   3.734   7.091  0.6749 -0.1551  0.6210
 4087TIP3   OH233819   0.353   3.560   1.326  0.0988  0.3093 -0.0252
 4087TIP3    H133820   0.438   3.583   1.288  1.1004 -0.3201  1.7348
 4087TIP3    H233821   0.323   3.641   1.367 -0.6722  0.8081 -1.4913
 4088TIP3   OH233822   3.462   1.116   8.552  0.0007  0.1993 -0.1415
 4088TIP3    H133823   3.539   1.109   8.495 -1.0795  0.0950 -1.6400
 4088TIP3    H233824   3.491   1.078   8.636  1.9874  1.4542 -0.2005
 4089TIP3   OH233825   3.108   2.494   7.760  0.6760 -0.1177 -0.5172
 4089TIP3    H133826   3.064   2.458   7.838  1.5115  0.2924  0.1625
 4089TIP3    H233827   3.130   2.417   7.707  0.8099 -0.4736  0.0422
 4090TIP3   OH233828   1.630   4.481   7.308  0.3268  0.0779 -0.0636
 4090TIP3    H133829   1.670   4.566   7.289  0.4218  0.3624  1.3129
 4090TIP3    H233830   1.536   4.499   7.311  0.3967  0.3194  1.0338
 4091TIP3   OH233831   3.932   0.434   7.254  0.2264 -0.6804 -0.4299
 4091TIP3    H133832   3.893   0.351   7.228 -0.1275 -1.1075  1.2979
 4091TIP3    H233833   4.022   0.412   7.277  0.3459 -0.4490 -0.6800
 4092TIP3   OH233834   0.629   2.433   7.824 -0.7500  0.4179  0.2926
 4092TIP3    H133835   0.567   2.505   7.814 -1.4329 -0.2823 -0.6172
 4092TIP3    H233836   0.628   2.413   7.918 -2.2970  0.0800  0.2299
 4093TIP3   OH233837   0.766   5.353   1.499  0.1903 -0.0343 -0.0244
 4093TIP3    H133838   0.699   5.301   1.455 -0.0401  0.5480 -0.3735
 4093TIP3    H233839   0.735   5.443   1.491  1.2112  0.2808 -0.5317
 4094TIP3   OH233840   0.615   4.497   7.894  0.5471 -0.3153 -0.2829
 4094TIP3    H133841   0.596   4.591   7.895  2.6000  0.1385 -0.0856
 4094TIP3    H233842   0.532   4.456   7.918 -0.3872  1.4379 -0.3189
 4095TIP3   OH233843   3.439   1.038   6.880 -0.3521  0.5506  0.3780
 4095TIP3    H133844   3.522   1.025   6.834 -1.2705 -0.7395 -1.0096
 4095TIP3    H233845   3.449   1.122   6.924  1.2118  1.0521 -0.8286
 4096TIP3   OH233846   6.564   0.028   2.100  0.6416  0.1482 -0.4107
 4096TIP3    H133847   6.532   0.057   2.015  0.4486  4.1403  0.8149
 4096TIP3    H233848   6.656   0.006   2.085 -0.0476 -1.9521 -2.0738
 4097TIP3   OH233849   2.571   0.369   1.869  0.2424 -0.2438 -0.3985
 4097TIP3    H133850   2.664   0.349   1.858  0.0504 -1.0318 -0.6893
 4097TIP3    H233851   2.536   0.295   1.919 -0.1985  0.1244 -0.1526
 4098TIP3   OH233852   2.997   2.024   7.120  0.4194  0.8265  0.2473
 4098TIP3    H133853   3.052   2.096   7.152  1.0305  0.6510 -0.3897
 4098TIP3    H233854   2.952   2.061   7.044  1.5736  0.2184 -0.7582
 4099TIP3   OH233855   2.651   6.448   1.013 -0.0806  0.0562  0.6617
 4099TIP3    H133856   2.729   6.487   0.975 -0.8953  1.8717  0.7705
 4099TIP3    H233857   2.683   6.370   1.058  2.0347  1.8795  2.5221
 4100TIP3   OH233858   1.636   2.178   2.132 -0.0941  0.0227  0.1012
 4100TIP3    H133859   1.664   2.152   2.220 -0.9113 -0.7195  0.1610
 4100TIP3    H233860   1.689   2.256   2.112 -0.1108  0.3943  1.3746
 4101TIP3   OH233861   5.364   5.870   0.357  0.0763  0.1222 -0.1031
 4101TIP3    H133862   5.336   5.956   0.325 -0.9125 -0.1140  0.0897
 4101TIP3    H233863   5.347   5.811   0.284  1.0480  0.1292 -0.3473
 4102TIP3   OH233864   4.670   0.445   2.021 -0.4415  0.2573  0.3664
 4102TIP3    H133865   4.721   0.525   2.033  0.0393  0.1623 -0.8187
 4102TIP3    H233866   4.722   0.376   2.061  0.6100  0.0946 -1.2060
 4103TIP3   OH233867   1.765   6.214   2.229 -0.1301  0.0563  0.3451
 4103TIP3    H133868   1.785   6.307   2.230 -0.2927  0.1695 -1.7569
 4103TIP3    H233869   1.850   6.171   2.217 -0.0697 -0.0782  1.1885
 4104TIP3   OH233870   3.384   0.365   0.304 -0.7208 -0.2713  0.3495
 4104TIP3    H133871   3.351   0.291   0.252 -1.0381 -0.1021  0.3063
 4104TIP3    H233872   3.369   0.441   0.248 -0.2284 -0.1955  0.3208
 4105TIP3   OH233873   5.845   0.738   0.089 -0.1451 -0.5667 -0.5178
 4105TIP3    H133874   5.889   0.662   0.128 -0.3565 -0.5160 -0.1715
 4105TIP3    H233875   5.827   0.796   0.163  0.0754 -0.1448 -0.7915
 4106TIP3   OH233876   1.316   4.739   6.362 -0.3345 -0.2113 -0.0467
 4106TIP3    H133877   1.338   4.814   6.306 -0.1510  0.4151  0.8424
 4106TIP3    H233878   1.245   4.771   6.418 -0.8972 -1.0103 -0.2896
 4107TIP3   OH233879   0.032   0.681   1.337  0.4856  0.5549  0.2395
 4107TIP3    H133880   0.041   0.586   1.326  0.1485  0.7835 -2.5782
 4107TIP3    H233881  -0.060   0.693   1.361  0.5954  0.1705  0.8890
 4108TIP3   OH233882   4.984   5.456   8.531 -0.0897 -0.4225  0.1334
 4108TIP3    H133883   5.013   5.468   8.621 -2.3404 -1.4966  1.0635
 4108TIP3    H233884   4.919   5.526   8.517 -1.9480 -1.9998  0.4217
 4109TIP3   OH233885   3.167   4.044   7.491 -0.3136  0.0954 -0.4374
 4109TIP3    H133886   3.249   4.078   7.454 -0.2678  0.0263 -0.3993
 4109TIP3    H233887   3.147   4.104   7.563  0.8260 -1.0967  0.9297
 4110TIP3   OH233888   2.785   3.496   7.609  0.5621 -0.0783  0.2170
 4110TIP3    H133889   2.820   3.515   7.522  0.2123  0.5814  0.2152
 4110TIP3    H233890   2.801   3.576   7.659 -0.4912  0.0504  0.3557
 4111TIP3   OH233891   1.123   0.396   0.152  0.3922  0.0984  0.7169
 4111TIP3    H133892   1.060   0.440   0.209  1.8038  1.7293  1.1104
 4111TIP3    H233893   1.069   0.358   0.082 -1.3516 -1.6947  2.8949
 4112TIP3   OH233894   0.892   6.681   1.863  0.1173 -0.2885 -0.1992
 4112TIP3    H133895   0.841   6.742   1.810  1.2188  0.4442 -0.4606
 4112TIP3    H233896   0.907   6.727   1.945  0.6004 -0.3616 -0.2396
 4113TIP3   OH233897   6.349   0.463   8.041  1.3286  0.1181  0.3793
 4113TIP3    H133898   6.414   0.395   8.062  1.6932  0.5112  0.5411
 4113TIP3    H233899   6.285   0.457   8.111  0.3056 -1.3506 -0.6274
 4114TIP3   OH233900   5.606   2.095   1.086  0.3835 -0.3845 -0.3132
 4114TIP3    H133901   5.639   2.184   1.098 -2.2301  0.9492 -2.2743
 4114TIP3    H233902   5.550   2.080   1.163  1.8836 -0.9558  0.7279
 4115TIP3   OH233903   4.681   2.459   7.328 -0.2738 -0.2806  0.1413
 4115TIP3    H133904   4.740   2.430   7.258  1.2838  0.9654  0.8634
 4115TIP3    H233905   4.597   2.472   7.285 -0.4454 -3.3270 -0.7015
 4116TIP3   OH233906   2.916   2.943   2.346  0.1736 -0.3781 -0.3395
 4116TIP3    H133907   2.905   3.017   2.287 -0.2032  0.2766  0.5351
 4116TIP3    H233908   2.830   2.902   2.350  0.0825 -0.1448  0.1158
 4117TIP3   OH233909   0.890   2.957   0.585 -0.6586  0.0695  0.1219
 4117TIP3    H133910   0.860   2.943   0.495 -1.4429 -3.2933  0.7584
 4117TIP3    H233911   0.983   2.981   0.575  0.2203 -3.3431 -1.6613
 4118TIP3   OH233912   6.061   1.374   2.481  0.2400  0.3762 -0.6162
 4118TIP3    H133913   6.115   1.370   2.559  3.2682  0.9901 -2.5238
 4118TIP3    H233914   6.045   1.468   2.467 -0.5379  0.2543 -0.6094
 4119TIP3   OH233915   6.314   6.308   8.059  0.0987 -0.0911 -0.3204
 4119TIP3    H133916   6.306   6.365   8.135  0.2711  1.0852 -1.1456
 4119TIP3    H233917   6.348   6.226   8.093 -0.1758  0.2897  0.9104
 4120TIP3   OH233918   0.995   2.294   8.656 -0.4518 -1.1343 -0.2635
 4120TIP3    H133919   0.918   2.263   8.703  0.1198 -0.6640  1.0218
 4120TIP3    H233920   1.043   2.213   8.635  0.4651 -1.2749  2.0817
 4121TIP3   OH233921   2.245   6.690   6.471 -0.0296  0.5994  0.8451
 4121TIP3    H133922   2.267   6.619   6.410  3.4764 -0.1292  2.7142
 4121TIP3    H233923   2.206   6.645   6.546 -0.2210  0.9855  0.9783
 4122TIP3   OH233924   1.132   4.502   1.382  0.0764 -0.1769 -0.0032
 4122TIP3    H133925   1.193   4.509   1.455  0.7836  1.0328 -0.6747
 4122TIP3    H233926   1.185   4.517   1.304 -1.2633  2.3734 -0.5410
 4123TIP3   OH233927   0.150   0.751   0.644 -0.0200 -0.6418  0.3613
 4123TIP3    H133928   0.097   0.732   0.721 -0.3329  0.6819  0.5025
 4123TIP3    H233929   0.212   0.818   0.674  2.5247 -2.8632  0.5017
 4124TIP3   OH233930   3.360   0.091   0.173  0.1367  0.2458 -0.0207
 4124TIP3    H133931   3.379  -0.000   0.152  1.0824  0.4933 -0.3267
 4124TIP3    H233932   3.367   0.137   0.089 -1.3610  0.4597 -0.0540
 4125TIP3   OH233933   1.183   3.573   0.027  0.3783  0.0448 -0.4160
 4125TIP3    H133934   1.231   3.535  -0.047  1.4562  1.3298 -0.3991
 4125TIP3    H233935   1.218   3.661   0.036 -0.2589  0.1654  1.1733
 4126TIP3   OH233936   1.545   4.118   8.449  0.6214  0.2746 -0.4446
 4126TIP3    H133937   1.472   4.083   8.501  0.3753  1.7119  0.2225
 4126TIP3    H233938   1.613   4.052   8.455 -1.5006 -2.4986 -3.3711
 4127TIP3   OH233939   4.592   2.642   1.833 -0.6976  0.2362  0.3916
 4127TIP3    H133940   4.545   2.674   1.756 -1.2986 -1.3027  0.0721
 4127TIP3    H233941   4.601   2.548   1.818  2.2170  0.3856  0.6101
 4128TIP3   OH233942   5.128   2.780   7.862  0.6325 -0.2883  0.0853
 4128TIP3    H133943   5.145   2.703   7.808  2.4963 -0.2774  0.5734
 4128TIP3    H233944   5.037   2.802   7.845  0.6403 -1.3969 -1.6062
 4129TIP3   OH233945   3.304   4.954   0.917 -0.2563 -0.5940 -0.5275
 4129TIP3    H133946   3.356   4.952   0.837 -0.9416 -0.2645 -0.9829
 4129TIP3    H233947   3.335   4.879   0.968  3.5126  1.6476  1.0093
 4130TIP3   OH233948   3.831   6.187   0.687 -0.4785  0.3180  0.3831
 4130TIP3    H133949   3.751   6.183   0.635 -1.2368  0.0540  1.5470
 4130TIP3    H233950   3.894   6.133   0.637 -1.5414 -0.9195  0.3218
 4131TIP3   OH233951   1.311   0.434   8.366  0.3391  0.3623  0.0137
 4131TIP3    H133952   1.286   0.524   8.346 -3.7857 -0.4459  0.4541
 4131TIP3    H233953   1.373   0.410   8.298  0.7087  3.1863 -0.7522
 4132TIP3   OH233954   3.808   2.243   1.607 -0.1056 -0.3608 -0.1969
 4132TIP3    H133955   3.809   2.330   1.646 -1.0397 -0.5767  0.3461
 4132TIP3    H233956   3.786   2.258   1.515  2.1403  0.1563 -0.7095
 4133TIP3   OH233957   2.442   5.358   7.903 -0.4140  0.3989 -0.5280
 4133TIP3    H133958   2.425   5.406   7.822 -1.1963  0.5512 -0.2880
 4133TIP3    H233959   2.473   5.272   7.875 -0.9491  0.3545 -0.9986
 4134TIP3   OH233960   4.150   6.618   7.344 -0.3422  0.1721  0.4608
 4134TIP3    H133961   4.225   6.676   7.328 -1.2427  1.4570  0.8154
 4134TIP3    H233962   4.076   6.677   7.359 -1.7698 -1.0462 -1.3316
 4135TIP3   OH233963   0.169   2.319   2.351 -0.8924  0.2872 -0.0705
 4135TIP3    H133964   0.131   2.384   2.411 -0.2658 -0.7946  1.5681
 4135TIP3    H233965   0.263   2.335   2.356 -0.8691  0.6687 -1.3919
 4136TIP3   OH233966   6.612   2.212   0.384 -0.4198  0.4989 -0.7187
 4136TIP3    H133967   6.629   2.138   0.443  0.9909  1.2896 -0.0774
 4136TIP3    H233968   6.516   2.221   0.384 -0.5583 -0.7345 -0.0799
 4137TIP3   OH233969   4.078   6.756   1.253 -0.1298  0.2448 -0.1167
 4137TIP3    H133970   4.142   6.757   1.181  0.2787 -1.2633  0.2085
 4137TIP3    H233971   4.092   6.673   1.297  2.6495  2.7292  4.4585
 4138TIP3   OH233972   4.021   3.420   0.114  0.0075 -0.0761  0.3098
 4138TIP3    H133973   4.112   3.441   0.094  0.6802 -0.4310  2.7119
 4138TIP3    H233974   4.005   3.337   0.069  0.9866 -0.2184  0.2020
 4139TIP3   OH233975   6.397   5.802   2.304  0.4238  0.0081 -0.2438
 4139TIP3    H133976   6.348   5.730   2.345  1.7716 -0.2686  0.9462
 4139TIP3    H233977   6.408   5.775   2.213  0.6348 -1.1417  0.1152
 4140TIP3   OH233978   4.576   0.268   2.540  0.0469 -0.0680 -0.0571
 4140TIP3    H133979   4.655   0.269   2.595 -0.2636  2.2613  0.4468
 4140TIP3    H233980   4.605   0.229   2.457  1.9460  1.3643 -0.1270
 4141TIP3   OH233981   4.682   1.771   7.097 -0.7406 -0.2713 -0.1403
 4141TIP3    H133982   4.626   1.696   7.077  1.0704 -1.6020 -0.5818
 4141TIP3    H233983   4.635   1.846   7.062 -3.9312 -0.7156  2.6704
 4142TIP3   OH233984   2.314   1.549   0.385 -0.1063 -0.7073  0.3000
 4142TIP3    H133985   2.371   1.512   0.318  0.7176  0.7529  0.1521
 4142TIP3    H233986   2.226   1.543   0.348  0.5960  4.1384 -3.1223
 4143TIP3   OH233987   2.811   1.810   8.507  0.3653 -0.0129  0.7100
 4143TIP3    H133988   2.839   1.827   8.596  0.5196 -0.0348  0.6661
 4143TIP3    H233989   2.798   1.896   8.468  1.2091  0.0192  0.4654
 4144TIP3   OH233990   6.109   0.114   1.819 -0.3350  0.4604  0.8144
 4144TIP3    H133991   6.184   0.170   1.840  0.1473 -0.6081  2.0619
 4144TIP3    H233992   6.142   0.056   1.750 -0.1453  0.2946  1.0411
 4145TIP3   OH233993   0.452   6.016   1.114  0.5281 -0.4886 -0.2595
 4145TIP3    H133994   0.411   5.938   1.076  0.3749  0.1500 -1.4424
 4145TIP3    H233995   0.539   6.019   1.073  0.3291  0.2601 -0.6366
 4146TIP3   OH233996   4.319   1.451   7.978  0.3146  0.5925 -0.2938
 4146TIP3    H133997   4.334   1.473   8.070  1.1300 -0.4890 -0.1551
 4146TIP3    H233998   4.333   1.357   7.973  0.9940  0.7422 -1.6678
 4147TIP3   OH233999   6.329   1.570   1.778 -0.3888  0.3020  0.0211
 4147TIP3    H134000   6.317   1.564   1.683 -2.0478 -0.0369  0.2300
 4147TIP3    H234001   6.251   1.615   1.810  0.1401  0.3992  1.2458
 4148TIP3   OH234002   6.127   3.968   2.611 -0.6561 -0.2334  0.5409
 4148TIP3    H134003   6.221   3.947   2.616 -0.8727 -1.0812  1.2730
 4148TIP3    H234004   6.100   3.934   2.525 -0.2693  0.1350  0.2668
 4149TIP3   OH234005   1.157   1.630   7.428  0.1050 -0.0863  0.4745
 4149TIP3    H134006   1.233   1.677   7.392  0.2949 -0.1802  0.7579
 4149TIP3    H234007   1.154   1.548   7.379 -0.7782  0.5964 -0.6887
 4150TIP3   OH234008   2.694   4.802   6.502  0.0254  0.3821 -0.3000
 4150TIP3    H134009   2.730   4.795   6.590 -1.7910  3.1784  0.7909
 4150TIP3    H234010   2.650   4.719   6.488  1.6953 -0.7470  0.7100
 4151TIP3   OH234011   4.496   1.068   1.002  0.4895 -0.1278 -0.4270
 4151TIP3    H134012   4.571   1.045   1.057 -0.8885 -0.7798  1.2864
 4151TIP3    H234013   4.475   0.988   0.954 -0.4349 -0.6426  0.7821
 4152TIP3   OH234014   3.002   1.494   1.231 -0.3996  0.3314 -0.0396
 4152TIP3    H134015   3.000   1.555   1.304 -0.4821 -0.1020  0.3268
 4152TIP3    H234016   3.089   1.454   1.235 -0.5971 -0.0822  0.1491
 4153TIP3   OH234017   2.133   0.290   0.640 -0.3714  0.0478 -0.3226
 4153TIP3    H134018   2.111   0.292   0.733 -0.6108 -1.2704 -0.3396
 4153TIP3    H234019   2.107   0.203   0.610  0.2812  0.2242 -1.4835
 4154TIP3   OH234020   1.616   3.799   0.584 -0.0303 -0.0585  0.2460
 4154TIP3    H134021   1.658   3.838   0.661 -0.8813  2.1489 -0.3293
 4154TIP3    H234022   1.687   3.788   0.521  0.3360 -0.0007  0.6479
 4155TIP3   OH234023   4.491   4.388   2.458  0.3484  0.0983  0.5412
 4155TIP3    H134024   4.452   4.333   2.390  2.1951  1.7377 -1.9839
 4155TIP3    H234025   4.445   4.472   2.451  2.5655  1.2981 -0.9252
 4156TIP3   OH234026   2.951   1.499   0.388 -0.2061  0.4270  0.0068
 4156TIP3    H134027   2.866   1.461   0.365  0.3316 -0.6781 -0.2437
 4156TIP3    H234028   3.003   1.492   0.307  0.9738 -1.4103  0.8488
 4157TIP3   OH234029   3.057   1.200   0.378  0.6535 -0.3271  0.5467
 4157TIP3    H134030   2.989   1.226   0.316 -0.3278 -0.6711  1.4426
 4157TIP3    H234031   3.011   1.191   0.462  1.0412 -4.0023  0.5289
 4158TIP3   OH234032   4.882   6.802   8.450  0.6813  0.1438  0.7660
 4158TIP3    H134033   4.834   6.743   8.391  0.6542 -0.5203  1.4302
 4158TIP3    H234034   4.898   6.880   8.398  0.7902 -0.4848 -0.1742
 4159TIP3   OH234035   2.255   3.883   7.760 -0.0452  0.4372 -0.2598
 4159TIP3    H134036   2.290   3.794   7.768  0.3169  0.7538  3.7317
 4159TIP3    H234037   2.332   3.939   7.757 -0.2645  0.7341 -0.4502
 4160TIP3   OH234038   3.990   2.454   7.249 -0.0313 -0.3788 -0.1191
 4160TIP3    H134039   4.064   2.393   7.247 -1.8697 -2.7480 -1.9795
 4160TIP3    H234040   3.928   2.413   7.310 -1.6423 -0.9187 -2.0116
 4161TIP3   OH234041   5.437   2.761   8.432 -0.2553  0.0757 -0.3750
 4161TIP3    H134042   5.487   2.793   8.507  0.0705  1.4411 -1.1604
 4161TIP3    H234043   5.361   2.819   8.427 -1.6048 -1.5344  0.3704
 4162TIP3   OH234044   6.480   3.850   0.004 -0.6607  0.1274  0.8300
 4162TIP3    H134045   6.489   3.933  -0.043 -0.6357 -0.8003 -0.8535
 4162TIP3    H234046   6.386   3.835   0.008 -0.7468  0.8527  2.3205
 4163TIP3   OH234047   6.214   1.421   2.082  0.2587 -0.5929 -0.0027
 4163TIP3    H134048   6.202   1.485   2.152  0.0647  0.4884 -0.9815
 4163TIP3    H234049   6.301   1.384   2.098 -0.0703 -0.8662  1.1898
 4164TIP3   OH234050   0.610   1.338   8.415 -0.1187  0.2955 -0.1854
 4164TIP3    H134051   0.676   1.268   8.412 -0.7019 -0.3263  0.9443
 4164TIP3    H234052   0.615   1.373   8.503 -0.0274  1.5239 -0.6532
 4165TIP3   OH234053   6.343   2.492   7.889 -0.2931  0.5121 -0.3721
 4165TIP3    H134054   6.352   2.586   7.879  0.0248  0.4939 -0.2675
 4165TIP3    H234055   6.394   2.455   7.817  1.1978  0.3917  0.7084
 4166TIP3   OH234056   0.672   1.959   6.673  0.3282  0.3175  0.4531
 4166TIP3    H134057   0.612   1.951   6.599 -0.6414 -1.2175  1.3537
 4166TIP3    H234058   0.727   2.035   6.652  1.6625 -1.4054 -2.9618
 4167TIP3   OH234059   1.246   0.637   0.451  0.3357 -0.0033  0.4506
 4167TIP3    H134060   1.319   0.580   0.476 -0.0159  0.0220  1.5765
 4167TIP3    H234061   1.273   0.724   0.477 -0.2072 -0.0348  1.1497
 4168TIP3   OH234062   1.804   0.320   1.242  0.0841 -0.1071  0.2449
 4168TIP3    H134063   1.762   0.362   1.316  0.7134  1.0377 -0.0262
 4168TIP3    H234064   1.740   0.256   1.211 -0.7052  0.3207  0.9528
 4169TIP3   OH234065   5.697   2.847   7.620 -0.4028  0.0706  0.3439
 4169TIP3    H134066   5.693   2.873   7.528 -0.4382 -0.6179  0.1430
 4169TIP3    H234067   5.730   2.757   7.618  0.1200  0.2384  1.0400
 4170TIP3   OH234068   3.282   4.278   8.007  0.7103 -0.8743  0.3654
 4170TIP3    H134069   3.269   4.193   7.965 -1.8281  0.0735 -1.0236
 4170TIP3    H234070   3.264   4.262   8.099  1.7609 -2.1057  0.3804
 4171TIP3   OH234071   5.306   3.327   2.338  0.4149  0.4584  0.5974
 4171TIP3    H134072   5.241   3.266   2.374 -1.2883  1.5736 -0.4346
 4171TIP3    H234073   5.303   3.403   2.396 -0.5379  1.2366 -0.4205
 4172TIP3   OH234074   1.908   3.934   1.755  0.8141  0.1811 -0.5651
 4172TIP3    H134075   1.973   3.866   1.739  0.4591 -0.0102 -1.2875
 4172TIP3    H234076   1.826   3.895   1.723 -0.1002 -0.4278  2.2793
 4173TIP3   OH234077   2.304   5.563   7.184 -0.0920 -0.3295  0.2055
 4173TIP3    H134078   2.212   5.590   7.185 -0.5408 -1.7693  1.2812
 4173TIP3    H234079   2.343   5.614   7.114 -2.1709 -1.1251 -1.6479
 4174TIP3   OH234080   5.227   5.303   0.164  0.5518  0.9269  0.0778
 4174TIP3    H134081   5.245   5.272   0.253 -0.8793 -2.2219 -0.5838
 4174TIP3    H234082   5.136   5.332   0.167  0.6680  1.3445 -0.2776
 4175TIP3   OH234083   0.847   0.133   6.847 -0.1141 -0.4180  0.8840
 4175TIP3    H134084   0.781   0.103   6.784 -2.0346 -1.2746  3.1793
 4175TIP3    H234085   0.849   0.228   6.836 -0.7231 -0.5115 -0.1465
 4176TIP3   OH234086   1.423   5.009   8.181  0.0832 -0.0967  0.2442
 4176TIP3    H134087   1.364   4.934   8.185 -0.1224  0.1045  1.8739
 4176TIP3    H234088   1.474   4.996   8.101  1.5281 -3.1074  1.4910
 4177TIP3   OH234089   3.380   1.102   7.681 -0.2683  0.0274 -0.2028
 4177TIP3    H134090   3.448   1.112   7.614  0.2085 -0.3249  0.2232
 4177TIP3    H234091   3.400   1.170   7.746 -0.5264  0.1441 -0.2450
 4178TIP3   OH234092   6.419   2.744   2.309  0.1180 -0.4625 -0.3004
 4178TIP3    H134093   6.445   2.698   2.389  1.2481  0.4233 -0.1288
 4178TIP3    H234094   6.492   2.802   2.290 -1.7028  2.1616  0.1681
 4179TIP3   OH234095   4.913   3.496   0.201 -0.0668 -0.6924  0.0516
 4179TIP3    H134096   4.927   3.441   0.124  1.9854 -0.4199  0.1553
 4179TIP3    H234097   4.929   3.437   0.275 -3.8137 -1.4369  0.4332
 4180TIP3   OH234098   2.251   5.647   1.191 -0.1747 -0.0155  0.6635
 4180TIP3    H134099   2.299   5.592   1.130  0.8096  3.1739 -1.7404
 4180TIP3    H234100   2.317   5.674   1.256 -0.2494 -0.4061  0.9006
 4181TIP3   OH234101   3.310   0.342   2.135  0.4825  0.0661 -0.0033
 4181TIP3    H134102   3.311   0.296   2.051 -0.4240  0.5091 -0.2704
 4181TIP3    H234103   3.390   0.315   2.178  2.1209  1.5353 -1.9382
 4182TIP3   OH234104   6.701   3.299   1.099  0.0353 -0.0126 -0.1969
 4182TIP3    H134105   6.635   3.301   1.168 -1.5587 -0.1991 -1.6204
 4182TIP3    H234106   6.662   3.350   1.028  2.5488  2.0624 -0.2171
 4183TIP3   OH234107   1.910   4.842   2.050  0.2198  0.5130  0.3496
 4183TIP3    H134108   1.866   4.762   2.020  1.2326  0.6370 -1.6357
 4183TIP3    H234109   2.002   4.819   2.054  0.2432  0.8305  2.5148
 4184TIP3   OH234110   1.733   6.117   7.270 -0.5304  0.0645  0.2173
 4184TIP3    H134111   1.778   6.043   7.310  0.6176  1.0914  0.8893
 4184TIP3    H234112   1.651   6.080   7.237 -0.0923 -1.4468  0.7432
 4185TIP3   OH234113   2.948   1.829   7.334  0.0720  0.0730  0.1272
 4185TIP3    H134114   2.985   1.901   7.282 -0.4313 -0.9187 -1.6843
 4185TIP3    H234115   3.016   1.808   7.399  1.1824  0.6391 -0.8228
 4186TIP3   OH234116   3.979   5.080   0.309  0.2454  0.5439  0.5658
 4186TIP3    H134117   4.045   5.012   0.327  0.1297 -1.0820 -3.7411
 4186TIP3    H234118   3.938   5.097   0.393  3.1901 -1.5841  2.6638
 4187TIP3   OH234119   5.764   6.878   1.374  0.2402 -0.0180 -0.0645
 4187TIP3    H134120   5.831   6.865   1.307  0.5297  0.5764  0.1103
 4187TIP3    H234121   5.805   6.933   1.440 -0.8535  1.5209 -0.6173
 4188TIP3   OH234122   0.452   3.000   8.614  0.2861  0.1974 -0.3380
 4188TIP3    H134123   0.500   2.943   8.674  0.1187 -0.5593 -0.9033
 4188TIP3    H234124   0.487   3.087   8.630  1.2236 -0.2094 -0.1135
 4189TIP3   OH234125   1.810   6.773   7.352  0.3862  0.2483 -0.1639
 4189TIP3    H134126   1.771   6.787   7.439  2.5264 -0.3832  0.9806
 4189TIP3    H234127   1.739   6.736   7.299 -0.6166 -0.7315  1.7540
 4190TIP3   OH234128   0.976   5.105   1.222 -0.3050  0.0502  0.0757
 4190TIP3    H134129   1.066   5.082   1.200 -0.2647  0.1757  0.1095
 4190TIP3    H234130   0.984   5.168   1.293 -0.3191  2.1288 -1.6877
 4191TIP3   OH234131   0.267   0.748   1.207 -0.7454  0.3288 -0.2485
 4191TIP3    H134132   0.198   0.724   1.270 -0.6816 -0.3253 -0.4246
 4191TIP3    H234133   0.253   0.842   1.192 -1.5775  0.2132 -0.2580
 4192TIP3   OH234134   1.117   6.611   1.291  0.2303 -0.0092  0.2518
 4192TIP3    H134135   1.074   6.608   1.377  2.5408 -0.6600  1.4629
 4192TIP3    H234136   1.194   6.555   1.301  0.7362  0.1594 -2.1764
 4193TIP3   OH234137   3.094   1.692   0.680  0.2382 -0.1957  0.1150
 4193TIP3    H134138   3.189   1.685   0.671  0.0795 -2.1390 -0.3864
 4193TIP3    H234139   3.063   1.601   0.679 -1.8627  0.4656 -2.2324
 4194TIP3   OH234140   3.650   6.161   0.454  0.1541 -0.6979 -0.2373
 4194TIP3    H134141   3.599   6.136   0.531 -0.0110  0.2780 -0.0160
 4194TIP3    H234142   3.637   6.089   0.393 -1.9942 -0.2237 -0.4172
 4195TIP3   OH234143   5.324   3.955   8.638 -0.1054  0.1922 -0.1020
 4195TIP3    H134144   5.322   3.883   8.701  0.9354 -1.1443 -1.5300
 4195TIP3    H234145   5.393   4.013   8.670  2.5996 -2.0103 -1.4681
 4196TIP3   OH234146   6.499   0.626   1.742  0.1901  0.3281 -0.0560
 4196TIP3    H134147   6.405   0.633   1.758  0.4563  0.2004  1.7544
 4196TIP3    H234148   6.511   0.538   1.707 -0.4096  0.5413 -0.8294
 4197TIP3   OH234149   1.963   3.688   6.836 -0.0257 -0.1273  0.1184
 4197TIP3    H134150   1.960   3.757   6.770  1.2222  0.5745  0.7550
 4197TIP3    H234151   1.877   3.693   6.879  0.2207  1.4523  0.5297
 4198TIP3   OH234152   3.405   2.238   7.954 -0.2060  0.1548 -0.5624
 4198TIP3    H134153   3.445   2.301   7.894  0.0294 -0.0748 -0.6507
 4198TIP3    H234154   3.376   2.290   8.029 -1.9194  0.7031 -1.5491
 4199TIP3   OH234155   3.005   0.055   7.439 -0.1835  0.0295 -0.3000
 4199TIP3    H134156   2.955   0.010   7.371  0.0445  0.3827 -0.7056
 4199TIP3    H234157   3.094   0.060   7.405  1.2101 -4.1860  2.0651
 4200TIP3   OH234158   6.619   2.807   2.080 -0.3571 -0.7492  0.2405
 4200TIP3    H134159   6.585   2.895   2.067 -0.2570 -0.9163 -1.4504
 4200TIP3    H234160   6.543   2.750   2.067  0.0901 -1.0165 -1.5281
 4201TIP3   OH234161   1.951   3.396   1.162 -0.1019 -0.0442 -0.1019
 4201TIP3    H134162   1.879   3.424   1.220 -0.4780  0.8056 -0.9527
 4201TIP3    H234163   1.945   3.455   1.087  0.0937 -1.4291 -1.2269
 4202TIP3   OH234164   4.440   6.460   8.412  0.5877  0.0060  0.2418
 4202TIP3    H134165   4.380   6.472   8.339 -0.9442 -1.9364  1.0800
 4202TIP3    H234166   4.521   6.502   8.384  0.3868 -1.4824 -3.0043
 4203TIP3   OH234167   5.697   0.591   1.953 -0.0399  0.4401 -0.1495
 4203TIP3    H134168   5.725   0.604   1.863  0.3556  2.1130  0.1839
 4203TIP3    H234169   5.766   0.632   2.006 -0.2539 -0.5329  0.9147
 4204TIP3   OH234170   4.060   1.956   1.879 -0.0043  0.3433  0.3369
 4204TIP3    H134171   4.135   1.965   1.937 -0.9418 -0.2457  1.7029
 4204TIP3    H234172   4.038   1.863   1.883 -1.6749  0.7429  1.1225
 4205TIP3   OH234173   0.492   6.260   2.147 -0.6189 -0.2134  0.3584
 4205TIP3    H134174   0.464   6.172   2.173 -1.4375  0.3471  1.4556
 4205TIP3    H234175   0.434   6.283   2.075 -0.6300 -0.4416  0.2934
 4206TIP3   OH234176   4.073   2.866   8.178  0.3919 -0.5849 -1.0178
 4206TIP3    H134177   4.158   2.908   8.163  0.2006 -0.6162 -2.3835
 4206TIP3    H234178   4.075   2.839   8.269  0.4701  2.4907  0.0010
 4207TIP3   OH234179   2.680   1.514   7.161 -0.4601 -0.1934  0.1500
 4207TIP3    H134180   2.683   1.529   7.066 -1.1828  1.0563  0.3131
 4207TIP3    H234181   2.691   1.601   7.200  0.6765 -0.7985  1.2414
 4208TIP3   OH234182   5.876   4.868   8.326  0.0737 -0.1161 -0.3510
 4208TIP3    H134183   5.918   4.785   8.303  0.5507 -0.0006  0.0968
 4208TIP3    H234184   5.927   4.902   8.399  0.5682  1.1185 -1.2208
 4209TIP3   OH234185   4.741   0.855   0.859 -0.4504 -0.4124  0.4221
 4209TIP3    H134186   4.789   0.774   0.845 -2.5015 -1.5250 -0.5784
 4209TIP3    H234187   4.808   0.923   0.856  1.1531 -1.9443 -0.1390
 4210TIP3   OH234188   4.506   3.083   7.361 -0.2737  0.5841 -0.2712
 4210TIP3    H134189   4.599   3.104   7.351 -0.0147  0.8351  2.0564
 4210TIP3    H234190   4.501   2.989   7.343  0.7636  0.2187  1.1530
 4211TIP3   OH234191   4.036   2.215   6.493  0.3059 -0.4651  0.4242
 4211TIP3    H134192   4.023   2.308   6.514  0.1663 -0.5296  0.6191
 4211TIP3    H234193   4.081   2.179   6.569  0.6175 -0.4970  0.2302
 4212TIP3   OH234194   3.667   6.215   1.597 -0.0314 -0.1953  0.4084
 4212TIP3    H134195   3.753   6.238   1.560 -0.0100 -0.8497  0.0266
 4212TIP3    H234196   3.604   6.239   1.529  0.0548 -1.9760 -0.3703
 4213TIP3   OH234197   3.306   6.792   0.749 -0.4321 -0.2492 -0.0151
 4213TIP3    H134198   3.358   6.722   0.710 -0.8897 -0.1214 -0.8673
 4213TIP3    H234199   3.302   6.769   0.842 -0.2877 -1.1734 -0.2234
 4214TIP3   OH234200   1.297   6.798   6.562 -0.0278  0.2328 -0.1156
 4214TIP3    H134201   1.341   6.870   6.606  0.1604  0.0893 -0.0668
 4214TIP3    H234202   1.230   6.769   6.623  0.7299 -0.4667  0.4102
 4215TIP3   OH234203   3.024   6.072   7.992 -0.3809 -0.1510  0.9747
 4215TIP3    H134204   2.951   6.078   7.931  0.2305  0.9266  0.3132
 4215TIP3    H234205   3.013   6.148   8.050  1.4570  1.4495 -0.6114
 4216TIP3   OH234206   1.776   0.179   0.136  0.4309 -0.0656  0.1389
 4216TIP3    H134207   1.695   0.147   0.098 -0.5399  2.1447  0.1886
 4216TIP3    H234208   1.834   0.193   0.062 -0.0541  0.4962 -0.1412
 4217TIP3   OH234209   6.711   0.718   8.245 -0.5610  0.4661 -0.2546
 4217TIP3    H134210   6.703   0.799   8.296  0.7211  0.0995  0.5891
 4217TIP3    H234211   6.676   0.650   8.302 -0.4556  0.2449 -0.4529
 4218TIP3   OH234212   4.861   2.446   6.804  0.3201  0.3335 -0.5045
 4218TIP3    H134213   4.913   2.386   6.751  0.5192 -0.8431  0.9614
 4218TIP3    H234214   4.772   2.439   6.768  0.4656 -0.3714 -0.7368
 4219TIP3   OH234215   5.730   0.276   0.025  1.1702 -0.0448 -0.4225
 4219TIP3    H134216   5.673   0.312  -0.042  1.5150 -0.3017 -0.8552
 4219TIP3    H234217   5.676   0.209   0.068 -0.3484  2.5107  1.9981
 4220TIP3   OH234218   1.041   2.566   0.022  0.5863  0.3716 -0.0079
 4220TIP3    H134219   1.020   2.578  -0.071 -0.9631 -1.7479 -0.0057
 4220TIP3    H234220   1.054   2.471   0.032  1.0065  0.5815  1.8874
 4221TIP3   OH234221   1.717   5.355   0.023 -0.5399  0.2843 -0.1481
 4221TIP3    H134222   1.622   5.359   0.015 -0.6001  0.6638  0.6354
 4221TIP3    H234223   1.750   5.375  -0.064 -1.1588  1.2680 -0.1673
 4222TIP3   OH234224   3.685   5.057   6.906  0.1835 -0.0558 -0.4746
 4222TIP3    H134225   3.618   5.117   6.938 -2.1399 -1.9018 -1.5661
 4222TIP3    H234226   3.716   5.098   6.825 -1.1529 -0.1408 -1.0544
 4223TIP3   OH234227   1.720   6.053   2.680  0.2034 -0.5660  0.1234
 4223TIP3    H134228   1.795   6.016   2.726 -0.1659  0.0080  1.2124
 4223TIP3    H234229   1.751   6.138   2.649 -0.4061  0.3210  1.8386
 4224TIP3   OH234230   6.638   0.338   0.767 -0.4938  0.0536  0.0156
 4224TIP3    H134231   6.660   0.260   0.818 -0.2053 -1.4749 -2.3146
 4224TIP3    H234232   6.712   0.350   0.708 -1.2696  1.1376 -0.7790
 4225TIP3   OH234233   1.167   5.144   7.669 -0.2605 -0.2423  0.1736
 4225TIP3    H134234   1.181   5.206   7.597 -0.7954 -0.5622 -0.2113
 4225TIP3    H234235   1.103   5.082   7.635  0.5646 -1.2579  0.4045
 4226TIP3   OH234236   6.606   4.415   7.584  0.1219  0.0418 -0.4923
 4226TIP3    H134237   6.631   4.464   7.505 -0.1359  1.0892  0.0611
 4226TIP3    H234238   6.528   4.459   7.616  1.3395  0.9378  1.4640
 4227TIP3   OH234239   6.322   6.590   7.493  0.0429 -0.0106  0.9870
 4227TIP3    H134240   6.310   6.574   7.586  0.1626  0.8722  1.1662
 4227TIP3    H234241   6.262   6.662   7.474  0.9950  0.7243  0.6827
 4228TIP3   OH234242   5.924   2.514   8.357  0.4377  0.2429  0.2258
 4228TIP3    H134243   5.872   2.531   8.278 -0.8311 -0.9101  0.7809
 4228TIP3    H234244   6.015   2.514   8.326  0.1813  2.5000 -0.7386
 4229TIP3   OH234245   2.401   0.004   8.138  0.1593 -0.2038  0.3158
 4229TIP3    H134246   2.423   0.009   8.231  0.6180  1.4605  0.1547
 4229TIP3    H234247   2.319  -0.046   8.135 -0.7237  1.0680  1.7772
 4230TIP3   OH234248   2.931   2.871   7.060 -0.1094 -0.5977 -0.6754
 4230TIP3    H134249   2.986   2.838   6.989  0.0441 -2.3671  0.1934
 4230TIP3    H234250   2.968   2.831   7.139 -1.5993 -0.4679  0.1274
 4231TIP3   OH234251   5.461   1.998   7.835  0.3478  0.2167  0.5509
 4231TIP3    H134252   5.367   1.985   7.848 -0.4227  1.9073 -2.4873
 4231TIP3    H234253   5.492   2.030   7.920 -1.8402 -0.1147  1.5584
 4232TIP3   OH234254   3.132   2.891   6.887  0.0384  0.0865  0.1887
 4232TIP3    H134255   3.085   2.889   6.803  1.3483  1.3996 -0.6159
 4232TIP3    H234256   3.190   2.967   6.881  0.5279 -0.0695  2.1089
 4233TIP3   OH234257   3.304   4.504   1.426  0.6984 -0.3139  0.3692
 4233TIP3    H134258   3.299   4.425   1.372  1.6331  0.0225 -0.2240
 4233TIP3    H234259   3.214   4.537   1.428  0.4734 -0.8755 -0.1494
 4234TIP3   OH234260   1.699   0.924   8.310 -0.2505  0.3408 -0.1881
 4234TIP3    H134261   1.760   0.992   8.281 -0.3353 -0.1270 -1.5130
 4234TIP3    H234262   1.621   0.937   8.256 -0.6792 -0.1332  0.3051
 4235TIP3   OH234263   4.643   5.414   0.864  0.7104 -0.3846 -0.4795
 4235TIP3    H134264   4.651   5.320   0.879 -0.6941 -0.2084  1.7166
 4235TIP3    H234265   4.726   5.450   0.895  1.2861 -0.8698 -1.4042
 4236TIP3   OH234266   6.669   1.958   0.833 -0.0101  0.2897 -0.7493
 4236TIP3    H134267   6.582   1.936   0.865 -0.2106 -1.3952 -2.2646
 4236TIP3    H234268   6.726   1.951   0.910 -0.8999 -0.6422 -0.1493
 4237TIP3   OH234269   2.236   1.280   7.063  0.2515 -0.4750  0.1162
 4237TIP3    H134270   2.327   1.274   7.092  0.3013  1.2096  0.4083
 4237TIP3    H234271   2.241   1.317   6.975 -0.1791  1.9183  1.0085
 4238TIP3   OH234272   0.255   1.255   7.620 -0.1767  0.3928 -0.3982
 4238TIP3    H134273   0.299   1.250   7.534 -1.5571 -1.6557 -1.0566
 4238TIP3    H234274   0.169   1.217   7.605 -0.9186  1.1300  1.6594
 4239TIP3   OH234275   1.269   5.337   8.542  0.3162 -0.4752  0.1423
 4239TIP3    H134276   1.347   5.313   8.492  1.4301 -0.3058  1.6971
 4239TIP3    H234277   1.272   5.432   8.546  0.8029 -0.5227  1.3249
 4240TIP3   OH234278   6.033   3.411   8.048 -0.3582 -0.1863  0.2148
 4240TIP3    H134279   6.061   3.486   8.100  0.1101 -0.5873  0.5501
 4240TIP3    H234280   6.020   3.446   7.960  2.7926 -0.2726 -0.3805
 4241TIP3   OH234281   5.805   4.571   8.046 -0.4079 -0.5977  0.6001
 4241TIP3    H134282   5.735   4.630   8.075 -0.2713 -0.2959  0.3167
 4241TIP3    H234283   5.886   4.616   8.071 -0.3130 -0.9307  0.8967
 4242TIP3   OH234284   2.682   5.676   6.273  0.1688  0.2402 -0.1224
 4242TIP3    H134285   2.679   5.585   6.242  0.5103 -0.4835  1.8276
 4242TIP3    H234286   2.641   5.726   6.203 -1.1475 -1.5721 -0.7402
 4243TIP3   OH234287   0.693   5.105   0.322 -0.5761 -0.4039 -0.3217
 4243TIP3    H134288   0.655   5.164   0.258  0.3630  0.4981 -0.0704
 4243TIP3    H234289   0.766   5.064   0.276 -2.0603 -2.5147 -0.9712
 4244TIP3   OH234290   3.867   1.856   0.272  0.3365  0.2542 -0.0624
 4244TIP3    H134291   3.841   1.811   0.191  0.0981 -1.1119  0.7408
 4244TIP3    H234292   3.898   1.787   0.329 -1.1383  0.9215  1.6605
 4245TIP3   OH234293   3.038   2.114   1.268 -0.4399  0.2582 -0.7496
 4245TIP3    H134294   2.981   2.059   1.214  0.6040 -0.1161 -1.4933
 4245TIP3    H234295   3.127   2.087   1.245  0.0653 -0.3164  1.5461
 4246TIP3   OH234296   4.285   2.021   7.839  0.1474  0.3676 -0.3529
 4246TIP3    H134297   4.244   1.938   7.816  0.6123  0.2830 -0.8648
 4246TIP3    H234298   4.325   2.005   7.925 -0.3890  0.2849 -0.1109
 4247TIP3   OH234299   1.381   5.529   7.494 -0.0894  0.3981 -0.2361
 4247TIP3    H134300   1.308   5.561   7.548  0.6985  3.6331 -0.9099
 4247TIP3    H234301   1.458   5.541   7.548  0.1155 -3.3889  0.6291
 4248TIP3   OH234302   6.326   5.546   7.077  0.4393  0.2196  0.2870
 4248TIP3    H134303   6.315   5.630   7.122  0.9782 -0.0724  0.9747
 4248TIP3    H234304   6.245   5.498   7.095  0.2854  0.4399  0.1973
 4249TIP3   OH234305   4.612   6.868   7.889 -0.2784  0.5149 -0.2058
 4249TIP3    H134306   4.548   6.921   7.936  1.7700  1.5064  1.6555
 4249TIP3    H234307   4.602   6.895   7.797 -0.8904  2.4239  0.3763
 4250TIP3   OH234308   1.436   5.183   2.103  0.1429 -0.0285 -0.0817
 4250TIP3    H134309   1.417   5.189   2.010  2.0842 -3.3374 -0.8249
 4250TIP3    H234310   1.530   5.203   2.110  0.7527 -2.7129  0.6208
 4251TIP3   OH234311   3.043   4.804   1.643  0.2671  0.0132 -0.7935
 4251TIP3    H134312   3.082   4.818   1.556  3.1701 -0.3118  0.3666
 4251TIP3    H234313   3.059   4.712   1.661  0.8751  0.3750  0.6081
 4252TIP3   OH234314   0.131   3.909   0.605  0.1025 -0.0823 -0.0695
 4252TIP3    H134315   0.132   3.874   0.694 -1.1126  0.2318  0.0888
 4252TIP3    H234316   0.043   3.946   0.595 -0.1781 -1.0950 -1.7779
 4253TIP3   OH234317   1.893   1.568   8.110 -0.2675 -0.7425 -0.4623
 4253TIP3    H134318   1.895   1.587   8.204  1.7630  1.1117 -0.7927
 4253TIP3    H234319   1.966   1.509   8.096  0.6761  0.5243 -1.1015
 4254TIP3   OH234320   4.299   3.018   0.705  0.2640 -0.4675  0.3360
 4254TIP3    H134321   4.348   3.101   0.702 -2.9275  1.6018 -0.3413
 4254TIP3    H234322   4.272   3.009   0.796 -0.3523 -0.1168  0.1920
 4255TIP3   OH234323   4.652   5.588   8.091  0.9510  0.3388  0.4280
 4255TIP3    H134324   4.705   5.509   8.101  1.9653  1.0854  1.0408
 4255TIP3    H234325   4.664   5.636   8.173  0.6418  1.3181 -0.0855
 4256TIP3   OH234326   2.996   4.960   6.963  0.1441 -0.6830  0.2826
 4256TIP3    H134327   2.902   4.947   6.978 -0.3292  2.4372  0.7966
 4256TIP3    H234328   3.000   5.030   6.898  2.0998 -0.3284  0.7370
 4257TIP3   OH234329   6.464   0.132   0.441  0.3145 -0.0553 -0.5062
 4257TIP3    H134330   6.433   0.053   0.395 -1.5943  0.8047 -0.8087
 4257TIP3    H234331   6.385   0.166   0.484  0.8574  2.2863 -1.2674
 4258TIP3   OH234332   4.185   3.429   1.750  0.4121 -0.5000 -0.0823
 4258TIP3    H134333   4.176   3.517   1.788 -0.4063 -0.3109 -0.6735
 4258TIP3    H234334   4.215   3.374   1.822 -2.2398 -0.4120  1.2135
 4259TIP3   OH234335   0.429   3.660   7.554 -0.0572  0.2116  0.0319
 4259TIP3    H134336   0.391   3.593   7.497 -3.6792  0.4107  1.9397
 4259TIP3    H234337   0.433   3.620   7.641  1.5001  1.2339  0.4861
 4260TIP3   OH234338   4.859   6.099   1.090  0.0253  0.3454 -0.0944
 4260TIP3    H134339   4.789   6.110   1.154  1.0734  0.8884  1.0013
 4260TIP3    H234340   4.880   6.188   1.060  0.6585  0.2606  0.0677
 4261TIP3   OH234341   4.650   1.356   1.542 -0.0921  0.1293  0.6756
 4261TIP3    H134342   4.565   1.328   1.576  0.0271  0.1491  0.9896
 4261TIP3    H234343   4.713   1.300   1.587 -0.0961 -2.2129 -1.8761
 4262TIP3   OH234344   3.111   6.769   8.502  0.5717  0.2511  0.6637
 4262TIP3    H134345   3.134   6.861   8.520 -1.0731  0.6602  0.9000
 4262TIP3    H234346   3.073   6.738   8.584 -0.4862 -0.0778  0.0745
 4263TIP3   OH234347   4.599   0.502   0.818  0.2141  0.5210 -0.4129
 4263TIP3    H134348   4.664   0.524   0.885  0.2878  0.3744 -0.4350
 4263TIP3    H234349   4.600   0.577   0.758 -0.4901  1.0535  0.2244
 4264TIP3   OH234350   5.697   3.155   1.034 -0.1286  0.2468  0.4552
 4264TIP3    H134351   5.748   3.236   1.027 -0.6267  0.6423  1.2370
 4264TIP3    H234352   5.680   3.129   0.944  2.0058 -0.2667  0.1321
 4265TIP3   OH234353   3.561   5.749   0.526  0.4581  0.1005  0.9121
 4265TIP3    H134354   3.605   5.814   0.580  0.3954  0.9217  0.0112
 4265TIP3    H234355   3.595   5.665   0.557  2.2214  0.6693  0.6448
 4266TIP3   OH234356   6.518   4.050   6.642 -0.4624 -0.0046  0.6497
 4266TIP3    H134357   6.498   3.959   6.619  0.1586  0.0713 -0.2659
 4266TIP3    H234358   6.594   4.072   6.588 -1.0246  1.2799  0.3375
 4267TIP3   OH234359   2.725   1.637   0.173  0.0218  0.1200 -0.5923
 4267TIP3    H134360   2.737   1.553   0.217 -0.6098 -0.8478 -2.1854
 4267TIP3    H234361   2.771   1.700   0.228 -0.1887 -1.1272  1.0748
 4268TIP3   OH234362   2.674   1.270   7.631 -0.0378 -0.2042 -0.0216
 4268TIP3    H134363   2.668   1.213   7.554  1.3600 -0.7711  0.2518
 4268TIP3    H234364   2.748   1.235   7.681  2.1468  2.9182 -0.7679
 4269TIP3   OH234365   1.106   4.191   6.687 -0.4773  0.3466 -0.2480
 4269TIP3    H134366   1.166   4.256   6.651 -1.0071  0.9499 -0.0575
 4269TIP3    H234367   1.089   4.131   6.615  1.4905 -0.7014  0.0738
 4270TIP3   OH234368   2.078   2.848   8.043 -0.2420 -0.4689  0.2357
 4270TIP3    H134369   2.006   2.814   7.990  0.3949  0.7355 -1.4514
 4270TIP3    H234370   2.040   2.854   8.131 -2.0263 -0.4225 -0.4809
 4271TIP3   OH234371   0.395   3.100   1.551 -0.1151 -0.0225 -0.7342
 4271TIP3    H134372   0.349   3.162   1.494 -0.0610 -0.1842 -0.9560
 4271TIP3    H234373   0.406   3.146   1.634 -0.6999  0.0075 -0.6734
 4272TIP3   OH234374   6.783   1.286   7.098  0.2264  0.3349 -0.3462
 4272TIP3    H134375   6.746   1.301   7.185  2.1982  0.4319  0.5114
 4272TIP3    H234376   6.803   1.374   7.065  0.7335  0.2240 -0.3330
 4273TIP3   OH234377   1.663   4.812   0.935 -0.4335  0.3803  0.2984
 4273TIP3    H134378   1.735   4.750   0.946 -1.7865 -0.9571  2.2636
 4273TIP3    H234379   1.705   4.898   0.935  1.4703 -0.4217 -2.2029
 4274TIP3   OH234380   5.768   6.556   1.315  0.0839  0.6238  0.0068
 4274TIP3    H134381   5.800   6.606   1.390  0.7896  1.9485 -1.1418
 4274TIP3    H234382   5.784   6.613   1.239  0.0302 -0.9594 -1.2378
 4275TIP3   OH234383   1.695   0.421   7.340 -0.2799  0.7896  0.4533
 4275TIP3    H134384   1.612   0.461   7.314 -1.0757 -1.9534 -1.6927
 4275TIP3    H234385   1.677   0.383   7.426 -1.1787  0.5277  0.1607
 4276TIP3   OH234386   6.125   2.568   1.380  0.5038  0.2701 -0.3888
 4276TIP3    H134387   6.145   2.575   1.287  0.9760 -1.8033 -0.4836
 4276TIP3    H234388   6.047   2.624   1.391 -1.5366 -1.8395 -2.7089
 4277TIP3   OH234389   5.386   1.970   0.038 -0.0707  0.1703  0.4824
 4277TIP3    H134390   5.471   1.938   0.068  0.9087  1.7222 -0.4704
 4277TIP3    H234391   5.400   1.993  -0.054 -0.8344  2.6131  0.9035
 4278TIP3   OH234392   0.998   6.332   0.371  0.1072 -0.2007 -0.5516
 4278TIP3    H134393   0.996   6.407   0.430 -0.6408  1.1715 -2.2434
 4278TIP3    H234394   0.929   6.274   0.404 -0.0155  0.3319  0.1555
 4279TIP3   OH234395   4.048   0.508   0.543 -0.3673 -0.3086 -0.3102
 4279TIP3    H134396   4.106   0.577   0.510  2.2558 -2.3509 -0.3219
 4279TIP3    H234397   3.963   0.527   0.504  0.2851  2.7030 -0.5344
 4280TIP3   OH234398   4.814   5.807   6.719  0.0726  0.0453 -0.7538
 4280TIP3    H134399   4.881   5.864   6.683 -0.8856  0.1992 -2.3566
 4280TIP3    H234400   4.735   5.861   6.723  0.1541  0.1211  1.8747
 4281TIP3   OH234401   4.636   4.520   7.294  0.0468  0.0531 -0.3066
 4281TIP3    H134402   4.694   4.561   7.230 -0.5712  0.4253 -0.6368
 4281TIP3    H234403   4.549   4.529   7.257 -0.2196 -0.5799  0.1484
 4282TIP3   OH234404   2.908   1.791   6.483 -0.3853  0.1752  0.0225
 4282TIP3    H134405   2.902   1.851   6.409  0.8510  0.4415  0.1082
 4282TIP3    H234406   2.849   1.827   6.549 -2.7380 -0.9241 -1.3527
 4283TIP3   OH234407   1.460   3.402   7.745  0.2709 -0.8026 -0.1138
 4283TIP3    H134408   1.383   3.395   7.687  1.3241 -1.3979 -1.4859
 4283TIP3    H234409   1.457   3.322   7.797 -0.5482 -0.3815  0.5175
 4284TIP3   OH234410   4.786   3.120   7.563  0.2217  0.2425 -0.4142
 4284TIP3    H134411   4.691   3.115   7.570  0.2663 -0.9387 -0.5526
 4284TIP3    H234412   4.811   3.050   7.503  1.1192  1.0796 -1.0639
 4285TIP3   OH234413   0.622   6.363   7.726  0.2428  0.3129  0.0727
 4285TIP3    H134414   0.675   6.389   7.651  0.1976 -0.0651 -0.0884
 4285TIP3    H234415   0.546   6.422   7.724 -0.2453 -0.3360 -0.7333
 4286TIP3   OH234416   4.555   3.364   7.922  0.0056 -0.3738  0.8088
 4286TIP3    H134417   4.483   3.426   7.921  1.4972  1.5694  3.2699
 4286TIP3    H234418   4.623   3.405   7.868 -0.9616 -2.7933 -2.6370
 4287TIP3   OH234419   6.732   4.143   7.874 -0.4171  0.0723 -0.5411
 4287TIP3    H134420   6.665   4.211   7.877 -0.6489 -0.1808  0.8228
 4287TIP3    H234421   6.802   4.177   7.930  1.0661  0.7725 -2.7072
 4288TIP3   OH234422   0.757   5.649   0.897 -0.3145 -0.2857 -0.4621
 4288TIP3    H134423   0.796   5.614   0.816 -1.7390 -0.5924 -1.0462
 4288TIP3    H234424   0.730   5.738   0.874  1.3801  0.5009  0.3999
 4289TIP3   OH234425   6.162   0.825   7.748  0.3881  0.6021 -0.1423
 4289TIP3    H134426   6.123   0.840   7.834  1.3063  0.2814  0.3380
 4289TIP3    H234427   6.153   0.731   7.734  1.7273  0.3801  0.3529
 4290TIP3   OH234428   1.599   4.928   0.373 -0.1140  0.3397 -0.0870
 4290TIP3    H134429   1.543   4.899   0.445 -1.4780  0.0849 -1.2210
 4290TIP3    H234430   1.653   4.852   0.352 -1.4543 -0.4103 -0.9413
 4291TIP3   OH234431   3.943   2.531   1.313 -0.7108 -0.2650  0.2297
 4291TIP3    H134432   3.886   2.595   1.355 -0.2940  0.5251 -0.3972
 4291TIP3    H234433   4.032   2.562   1.331 -0.5241  0.2270 -1.4045
 4292TIP3   OH234434   1.591   1.215   0.385 -0.3066 -0.9181  0.9105
 4292TIP3    H134435   1.591   1.242   0.477 -0.1304  0.4146  0.5481
 4292TIP3    H234436   1.498   1.211   0.361 -0.3824  2.2355  0.2386
 4293TIP3   OH234437   5.146   1.006   2.746  0.2516  0.6083 -0.8089
 4293TIP3    H134438   5.127   1.083   2.799  0.1911  0.6987 -0.9613
 4293TIP3    H234439   5.060   0.973   2.721  0.2862  0.9456 -1.3958
 4294TIP3   OH234440   4.536   5.254   6.921 -0.0204  0.1449  0.0622
 4294TIP3    H134441   4.521   5.199   6.998  0.1079  0.7179  0.5072
 4294TIP3    H234442   4.460   5.312   6.918  1.0845  1.7215  1.1617
 4295TIP3   OH234443   6.043   3.213   8.239  0.3636  1.4779  0.1989
 4295TIP3    H134444   6.028   3.275   8.167 -0.1849 -0.9127 -1.8866
 4295TIP3    H234445   5.956   3.181   8.262  0.7924 -1.4712 -1.6889
 4296TIP3   OH234446   2.300   6.873   0.377 -0.2039 -0.0472  0.3715
 4296TIP3    H134447   2.214   6.857   0.338 -0.0088  0.4002 -0.2755
 4296TIP3    H234448   2.317   6.797   0.432 -0.2296 -1.0001 -0.9016
 4297TIP3   OH234449   6.415   1.641   7.473  0.1147 -0.3644 -0.0755
 4297TIP3    H134450   6.406   1.672   7.383 -3.1286 -1.2581 -0.1707
 4297TIP3    H234451   6.381   1.713   7.526  2.7101  0.4789  0.6228
 4298TIP3   OH234452   3.256   6.422   7.315  0.2384  0.0091 -0.2911
 4298TIP3    H134453   3.336   6.405   7.365 -0.6884  1.4379  1.8514
 4298TIP3    H234454   3.205   6.341   7.322  0.4056 -0.0295  0.5512
 4299TIP3   OH234455   5.484   1.583   0.279  0.7036 -0.3822 -0.3443
 4299TIP3    H134456   5.506   1.675   0.297  0.9204 -0.6342  0.7769
 4299TIP3    H234457   5.396   1.572   0.313  1.6889 -1.2627  2.1592
 4300TIP3   OH234458   2.854   1.553   8.613  0.1914 -0.0835  0.4133
 4300TIP3    H134459   2.841   1.623   8.550 -0.2732 -0.4351  0.1054
 4300TIP3    H234460   2.787   1.568   8.680  1.1803  0.7407  1.2520
 4301TIP3   OH234461   3.623   5.202   7.348  0.0424 -0.0004 -0.0444
 4301TIP3    H134462   3.598   5.109   7.352  0.1922 -0.0085  0.7043
 4301TIP3    H234463   3.540   5.249   7.355  0.0034 -0.0689 -0.0411
 4302TIP3   OH234464   3.554   4.515   7.159 -0.4861 -0.8105 -0.1802
 4302TIP3    H134465   3.612   4.533   7.085  1.0077  0.7388  1.2684
 4302TIP3    H234466   3.505   4.597   7.171  1.0601 -0.0947  1.9601
 4303TIP3   OH234467   1.847   5.878   2.220  0.5452 -0.2219 -0.2139
 4303TIP3    H134468   1.876   5.969   2.210 -2.3749  0.7124 -1.2716
 4303TIP3    H234469   1.812   5.873   2.309  1.8532 -0.7260  0.2959
 4304TIP3   OH234470   1.272   2.878   1.172 -0.4119  0.1042  1.1721
 4304TIP3    H134471   1.202   2.916   1.225 -1.2675 -2.3177  1.9141
 4304TIP3    H234472   1.351   2.923   1.200 -1.4605  1.9882  1.2600
 4305TIP3   OH234473   0.400   1.333   8.084  0.0256 -0.2738 -0.4050
 4305TIP3    H134474   0.464   1.402   8.100 -1.0218  0.3628  1.3336
 4305TIP3    H234475   0.366   1.351   7.996 -1.6299  2.7084  0.6842
 4306TIP3   OH234476   5.662   4.234   2.635 -0.1432 -0.3328 -0.3203
 4306TIP3    H134477   5.584   4.279   2.668 -0.3759 -1.6962  1.0990
 4306TIP3    H234478   5.635   4.142   2.626  1.3235 -0.8476  0.2947
 4307TIP3   OH234479   5.861   5.066   1.859 -0.3475 -0.3353  0.3321
 4307TIP3    H134480   5.796   5.043   1.792 -2.1447  3.6444  0.3786
 4307TIP3    H234481   5.861   4.992   1.919 -3.5723 -1.3435 -0.6697
 4308TIP3   OH234482   0.826   6.583   0.295 -0.3038  0.1769  0.2674
 4308TIP3    H134483   0.750   6.602   0.349  0.0015 -0.2223  0.8418
 4308TIP3    H234484   0.886   6.535   0.353 -0.3493 -1.0523 -0.6761
 4309TIP3   OH234485   2.667   3.787   7.871 -0.1319  0.0867  0.9042
 4309TIP3    H134486   2.625   3.797   7.786  1.0796  1.4738  0.4408
 4309TIP3    H234487   2.603   3.823   7.933  0.1911  1.9741  0.2268
 4310TIP3   OH234488   1.899   0.157   8.572  0.3792 -0.2398 -0.7899
 4310TIP3    H134489   1.882   0.066   8.550  0.4108 -0.2816 -0.6475
 4310TIP3    H234490   1.995   0.164   8.570  0.4578 -0.5886  0.6337
 4311TIP3   OH234491   3.952   1.670   1.890  0.1476 -0.2597 -0.1480
 4311TIP3    H134492   3.877   1.630   1.846  0.3621 -1.4385  0.4980
 4311TIP3    H234493   4.026   1.614   1.866  0.9393  1.1728 -1.1840
 4312TIP3   OH234494   4.323   6.076   2.915  0.8711 -0.2281  0.3786
 4312TIP3    H134495   4.250   6.106   2.860  1.5395 -2.0113 -1.6127
 4312TIP3    H234496   4.302   5.985   2.935  1.2100  0.0572  2.2108
 4313TIP3   OH234497   6.370   5.398   0.182 -0.2184 -0.0202 -0.4242
 4313TIP3    H134498   6.435   5.337   0.217  0.4895  1.2194  0.5322
 4313TIP3    H234499   6.305   5.342   0.138  1.0523 -1.3457 -0.6946
 4314TIP3   OH234500   0.608   5.180   7.190 -0.0343  0.0256  0.1806
 4314TIP3    H134501   0.662   5.108   7.157  0.0986  0.3609 -0.3499
 4314TIP3    H234502   0.627   5.252   7.131 -2.0107 -0.2052 -0.7958
 4315TIP3   OH234503   2.904   3.679   0.147 -0.3804  0.4411  0.5984
 4315TIP3    H134504   2.978   3.637   0.103 -1.9650 -1.6269 -0.2583
 4315TIP3    H234505   2.889   3.758   0.096  0.6731  0.4381  0.2467
 4316TIP3   OH234506   4.068   4.253   6.838 -0.2565  0.0173  0.2120
 4316TIP3    H134507   4.127   4.196   6.887 -1.9184 -2.6762 -0.6858
 4316TIP3    H234508   4.057   4.330   6.893  2.5194 -0.2407  1.2553
 4317TIP3   OH234509   4.970   5.810   7.685  0.0651 -0.3470 -0.7832
 4317TIP3    H134510   5.064   5.792   7.695  0.1245 -0.0088 -0.7385
 4317TIP3    H234511   4.962   5.904   7.697  0.1631  0.1667 -3.9524
 4318TIP3   OH234512   3.346   2.943   8.516  0.0349  0.1867  0.0657
 4318TIP3    H134513   3.401   2.867   8.533 -1.3366 -0.1435  4.2500
 4318TIP3    H234514   3.392   3.016   8.557 -1.1283  0.4572  0.9782
 4319TIP3   OH234515   4.310   1.819   6.876  0.3560 -0.0124  0.6612
 4319TIP3    H134516   4.253   1.758   6.922 -0.8392  0.7769  0.2528
 4319TIP3    H234517   4.309   1.789   6.785  1.7628 -0.8486  0.8832
 4320TIP3   OH234518   3.169   6.863   6.267  0.4432  0.0195 -0.3687
 4320TIP3    H134519   3.137   6.801   6.201  2.7390 -0.6193 -0.9750
 4320TIP3    H234520   3.158   6.817   6.350 -0.6680  0.0607 -0.4660
 4321TIP3   OH234521   1.248   1.973   0.134 -0.5739 -0.3724 -0.6932
 4321TIP3    H134522   1.327   1.986   0.187 -1.1675  0.4207  0.0229
 4321TIP3    H234523   1.220   1.884   0.154  0.3035 -0.7699 -1.1897
 4322TIP3   OH234524   4.767   6.238   1.801 -0.0051 -0.0665  0.4198
 4322TIP3    H134525   4.804   6.325   1.811  1.9882 -1.0404  2.1004
 4322TIP3    H234526   4.682   6.243   1.845 -0.9115  1.5409 -1.3651
 4323TIP3   OH234527   0.388   1.685   0.328  0.2210  0.2848 -0.0142
 4323TIP3    H134528   0.426   1.744   0.262  1.6917 -0.5412  0.0433
 4323TIP3    H234529   0.463   1.636   0.361 -0.8622 -1.0610  0.5118
 4324TIP3   OH234530   5.752   5.318   1.701 -0.1284 -0.2717  0.0099
 4324TIP3    H134531   5.774   5.271   1.782  1.7923  1.5656  0.6365
 4324TIP3    H234532   5.677   5.373   1.724 -0.0500 -0.2939  0.3155
 4325TIP3   OH234533   2.880   6.339   1.953 -0.4605  0.1157 -0.3543
 4325TIP3    H134534   2.827   6.283   2.010  1.0929  2.0255  3.3009
 4325TIP3    H234535   2.825   6.415   1.938 -1.0921 -0.6281 -2.0635
 4326TIP3   OH234536   0.557   1.847   8.229  0.7951  0.0784 -1.0083
 4326TIP3    H134537   0.643   1.890   8.224  1.9144 -1.6345  1.2986
 4326TIP3    H234538   0.573   1.771   8.285 -2.2754 -0.2786 -0.4795
 4327TIP3   OH234539   5.789   2.169   0.752  0.3034 -0.1981  0.1234
 4327TIP3    H134540   5.827   2.226   0.818  0.3052 -1.0199  0.8593
 4327TIP3    H234541   5.752   2.096   0.802  2.1728 -1.9408 -0.8839
 4328TIP3   OH234542   4.376   2.210   0.399  0.5322 -0.3667  0.2427
 4328TIP3    H134543   4.427   2.129   0.396  0.6292 -0.3556  1.2094
 4328TIP3    H234544   4.315   2.197   0.472  0.4186  0.3532  0.2810
 4329TIP3   OH234545   5.173   5.860   1.056  0.2889  0.1007  0.4041
 4329TIP3    H134546   5.116   5.869   1.133 -0.4094  2.2344 -0.2929
 4329TIP3    H234547   5.246   5.921   1.073  0.7349 -0.2838 -0.0995
 4330TIP3   OH234548   2.331   2.709   6.294  0.3898  0.1425 -0.1850
 4330TIP3    H134549   2.341   2.800   6.265  0.8685 -0.6666 -2.8399
 4330TIP3    H234550   2.241   2.686   6.268  0.8072 -0.6009 -1.0098
 4331TIP3   OH234551   3.607   0.205   7.788  0.6214  0.2205  0.5256
 4331TIP3    H134552   3.677   0.142   7.772  1.2427  1.3967 -1.8074
 4331TIP3    H234553   3.531   0.169   7.743 -0.4826 -1.1940  3.2882
 4332TIP3   OH234554   4.620   3.875   0.776  0.0788 -0.1407  0.7603
 4332TIP3    H134555   4.675   3.906   0.703 -1.9521  0.5370 -0.5641
 4332TIP3    H234556   4.597   3.785   0.752 -0.9706  0.2372  0.2866
 4333TIP3   OH234557   4.399   5.362   0.469  0.9857 -0.1515  0.0428
 4333TIP3    H134558   4.482   5.394   0.506  0.9613  0.5559 -0.5004
 4333TIP3    H234559   4.336   5.432   0.487  0.5894 -0.5175  0.1061
 4334TIP3   OH234560   6.223   5.670   1.345  0.2553  0.2850  0.4035
 4334TIP3    H134561   6.152   5.734   1.349  0.8030  1.4814 -3.9468
 4334TIP3    H234562   6.301   5.721   1.322  1.6728 -1.4688  1.0386
 4335TIP3   OH234563   6.421   1.428   8.477  0.3399  0.3776  0.5976
 4335TIP3    H134564   6.388   1.392   8.559  0.1022  1.7005  1.1090
 4335TIP3    H234565   6.370   1.508   8.463  0.4317  0.2228 -0.8059
 4336TIP3   OH234566   4.007   3.778   0.620  0.3297 -0.4268  0.3986
 4336TIP3    H134567   3.997   3.813   0.532 -1.8625  1.0244  1.1229
 4336TIP3    H234568   3.984   3.685   0.613 -1.0724 -0.0422 -0.3774
 4337TIP3   OH234569   2.450   1.840   2.369 -0.5909  0.5611  0.0620
 4337TIP3    H134570   2.470   1.746   2.363  1.3873  0.9141  0.4886
 4337TIP3    H234571   2.535   1.883   2.365 -1.4146  2.3302  0.5077
 4338TIP3   OH234572   0.431   6.722   0.233  0.5890  0.1019  0.2832
 4338TIP3    H134573   0.366   6.791   0.245  1.1640  0.5608  0.7915
 4338TIP3    H234574   0.491   6.756   0.167  1.5274  0.5856  1.3527
 4339TIP3   OH234575   1.681   0.049   8.241  0.2555 -0.4544  0.4321
 4339TIP3    H134576   1.762   0.009   8.273  0.8484  0.8209  0.5569
 4339TIP3    H234577   1.708   0.133   8.206 -0.6290 -1.0626 -1.8956
 4340TIP3   OH234578   6.490   6.287   7.295 -0.3921  0.0583  0.3155
 4340TIP3    H134579   6.440   6.265   7.217 -0.3222  1.1123 -0.0402
 4340TIP3    H234580   6.573   6.240   7.286 -0.4513  0.0482 -0.1614
 4341TIP3   OH234581   0.080   2.078   6.849  1.3305  0.0480  0.5888
 4341TIP3    H134582   0.058   1.988   6.873 -1.4602  0.2210 -0.9356
 4341TIP3    H234583   0.169   2.072   6.814  1.6654 -1.8823  1.6449
 4342TIP3   OH234584   0.149   1.749   6.733  0.0360 -0.3565 -0.1792
 4342TIP3    H134585   0.203   1.671   6.723  0.0963 -0.3342 -0.0309
 4342TIP3    H234586   0.060   1.716   6.740  0.0452 -0.4022 -0.2634
 4343TIP3   OH234587   5.919   5.625   0.485  0.1946 -0.8591  0.2088
 4343TIP3    H134588   5.999   5.586   0.520  1.2678  1.9767  1.1604
 4343TIP3    H234589   5.942   5.648   0.395  0.1911 -0.7452  0.2371
 4344TIP3   OH234590   2.169   1.338   0.641  0.2315 -0.4122  0.1856
 4344TIP3    H134591   2.201   1.340   0.551 -1.8753 -2.2841 -0.6801
 4344TIP3    H234592   2.160   1.430   0.666 -1.5055  0.2043 -2.4187
 4345TIP3   OH234593   0.407   5.184   1.125  0.1046  0.1871  0.0004
 4345TIP3    H134594   0.474   5.177   1.058  2.0956 -3.1275  2.0437
 4345TIP3    H234595   0.442   5.248   1.188 -0.8986  1.8953 -1.1106
 4346TIP3   OH234596   4.802   0.968   8.417  1.0600  0.4926  0.1659
 4346TIP3    H134597   4.711   0.949   8.441  1.9415 -2.1685  1.9225
 4346TIP3    H234598   4.817   0.917   8.337  1.6522 -1.2655  1.3342
 4347TIP3   OH234599   4.166   4.642   2.042 -0.5010 -0.7969  0.5921
 4347TIP3    H134600   4.184   4.596   2.124 -1.3445 -3.1649 -0.4457
 4347TIP3    H234601   4.107   4.584   1.994 -0.2547  0.6097 -1.5922
 4348TIP3   OH234602   1.352   1.901   7.298  0.0718 -0.0527  0.6706
 4348TIP3    H134603   1.391   1.916   7.212  0.0012  0.6244  0.7474
 4348TIP3    H234604   1.354   1.987   7.340 -2.0135  0.1596  0.4570
 4349TIP3   OH234605   4.516   2.221   7.114 -0.3556 -0.0106  0.0658
 4349TIP3    H134606   4.551   2.191   7.198 -3.3090  1.2846  1.9293
 4349TIP3    H234607   4.550   2.310   7.105 -0.7167  0.1543  0.3247
 4350TIP3   OH234608   3.650   5.931   0.327 -0.6551  0.0339  0.1793
 4350TIP3    H134609   3.626   5.861   0.389 -0.7066  0.0365  0.1625
 4350TIP3    H234610   3.708   5.888   0.264 -0.3864  0.0987  0.3860
 4351TIP3   OH234611   5.331   4.017   7.860 -0.0260 -0.2039 -0.5479
 4351TIP3    H134612   5.271   4.020   7.935  1.3694  2.4703  0.6125
 4351TIP3    H234613   5.331   4.106   7.826  3.0032 -0.1541 -0.6707
 4352TIP3   OH234614   4.019   2.553   0.431  0.9694 -0.3827 -0.0136
 4352TIP3    H134615   3.928   2.522   0.441  0.8659 -0.7311 -1.6964
 4352TIP3    H234616   4.071   2.473   0.427  1.1288 -0.2458 -0.8331
 4353TIP3   OH234617   1.664   6.581   7.793  0.4036  0.4055 -0.4643
 4353TIP3    H134618   1.656   6.508   7.732 -1.0199  0.6322 -0.5869
 4353TIP3    H234619   1.701   6.542   7.873 -0.4695 -0.4941 -0.4786
 4354TIP3   OH234620   0.543   4.662   8.570  0.2818  0.5359  0.1122
 4354TIP3    H134621   0.577   4.750   8.555 -1.2434  1.1654  0.1728
 4354TIP3    H234622   0.509   4.665   8.660  1.0930 -0.4143  0.4591
 4355TIP3   OH234623   3.120   6.294   1.488  0.0308  0.1023  0.6021
 4355TIP3    H134624   3.167   6.377   1.497  0.0277 -0.1081  4.3857
 4355TIP3    H234625   3.041   6.306   1.540 -1.0474 -1.6187 -0.5410
 4356TIP3   OH234626   6.359   0.495   8.453  0.2495  0.3604  0.1206
 4356TIP3    H134627   6.302   0.424   8.482  1.1441 -1.3259 -1.9780
 4356TIP3    H234628   6.306   0.545   8.391  1.0462 -1.5082 -2.2266
 4357TIP3   OH234629   3.456   0.947   0.715  0.2354 -0.7695 -0.7480
 4357TIP3    H134630   3.447   1.033   0.755 -1.8460 -1.8486  1.3644
 4357TIP3    H234631   3.515   0.899   0.773 -0.2024 -1.3518 -0.7676
 4358TIP3   OH234632   4.297   2.247   6.955  0.5537  0.1562 -0.0322
 4358TIP3    H134633   4.384   2.241   6.995 -0.3495 -0.9821  1.9193
 4358TIP3    H234634   4.283   2.341   6.941  2.1013  0.3470 -0.4365
 4359TIP3   OH234635   2.541   5.201   8.398  0.1119  0.2268  0.2419
 4359TIP3    H134636   2.553   5.236   8.309  0.4113  1.2499  0.6654
 4359TIP3    H234637   2.627   5.213   8.440 -0.3839  0.9852  1.0739
 4360TIP3   OH234638   6.760   5.398   6.810 -0.1590  0.2473 -0.1626
 4360TIP3    H134639   6.676   5.387   6.854  1.4587 -0.5917  3.0181
 4360TIP3    H234640   6.794   5.309   6.802  0.8341  0.6461 -0.5139
 4361TIP3   OH234641   6.294   0.765   0.732  0.6370  0.8927  0.0143
 4361TIP3    H134642   6.257   0.676   0.736 -0.3393  1.2779 -0.2654
 4361TIP3    H234643   6.383   0.752   0.701  0.6551 -0.0339  0.4119
 4362TIP3   OH234644   5.875   4.773   7.645 -0.2918  0.0224 -0.0793
 4362TIP3    H134645   5.878   4.845   7.583  0.1953  0.0073 -0.0759
 4362TIP3    H234646   5.792   4.784   7.692  0.2592  1.1950  0.6618
 4363TIP3   OH234647   5.233   1.123   6.668  0.2762  0.6750  0.5458
 4363TIP3    H134648   5.170   1.194   6.654 -0.1431 -0.1518 -2.1953
 4363TIP3    H234649   5.308   1.146   6.614  0.6708 -0.3503  0.6465
 4364TIP3   OH234650   3.042   5.367   1.077  0.3442  0.4997  0.2467
 4364TIP3    H134651   3.101   5.441   1.095 -0.0548  0.9552 -0.3034
 4364TIP3    H234652   3.086   5.318   1.007 -0.0870  1.0373 -0.4135
 4365TIP3   OH234653   3.502   1.903   0.412  0.3124 -0.5571  0.0288
 4365TIP3    H134654   3.474   1.835   0.351 -0.0821  1.1301 -1.7769
 4365TIP3    H234655   3.598   1.899   0.410  0.2956 -1.6056  0.6233
 4366TIP3   OH234656   3.175   4.319   0.302  0.1269 -0.3841 -0.0903
 4366TIP3    H134657   3.185   4.242   0.357  2.0708 -0.5587 -0.6338
 4366TIP3    H234658   3.111   4.292   0.235 -0.8805 -0.7528  0.9874
 4367TIP3   OH234659   5.074   5.686   7.396 -0.2981 -0.0361 -0.0754
 4367TIP3    H134660   5.018   5.735   7.456  1.1936 -0.2609  1.5905
 4367TIP3    H234661   5.121   5.624   7.453  0.5387 -0.8610 -1.6150
 4368TIP3   OH234662   3.383   3.661   0.385  0.1094  0.0127  0.1153
 4368TIP3    H134663   3.297   3.642   0.348 -0.0680 -0.1531  0.5967
 4368TIP3    H234664   3.434   3.581   0.372 -0.5412 -0.7424  1.8681
 4369TIP3   OH234665   2.841   3.936   1.663  0.1230  0.2997 -0.4220
 4369TIP3    H134666   2.907   3.932   1.593 -0.0452  0.1018 -0.5712
 4369TIP3    H234667   2.787   3.858   1.649  0.3576  0.0253  0.1980
 4370TIP3   OH234668   0.491   2.027   7.577 -0.3120 -0.0390 -0.1509
 4370TIP3    H134669   0.463   2.089   7.643 -1.4150 -0.9591  0.2756
 4370TIP3    H234670   0.570   1.987   7.613  0.0012  0.6092 -0.1166
 4371TIP3   OH234671   1.661   1.417   8.250  0.1941  0.6973 -0.1618
 4371TIP3    H134672   1.744   1.436   8.294  0.8804  0.2230 -1.1973
 4371TIP3    H234673   1.651   1.486   8.185  0.8716 -0.3721 -1.4674
 4372TIP3   OH234674   2.759   0.248   1.061  0.3117 -0.4109 -0.4243
 4372TIP3    H134675   2.690   0.278   1.120  0.1092  0.6525 -1.1741
 4372TIP3    H234676   2.778   0.159   1.090 -1.2158 -0.6533 -0.0730
 4373TIP3   OH234677   2.035   6.628   1.862 -0.2698 -0.3184  0.9233
 4373TIP3    H134678   1.987   6.568   1.806 -1.7855  0.6185  1.1530
 4373TIP3    H234679   2.042   6.583   1.946  0.3344 -0.9506  0.5422
 4374TIP3   OH234680   4.119   2.042   0.864 -0.7120 -0.0961 -0.1394
 4374TIP3    H134681   4.123   2.010   0.954  1.6910  0.3736 -0.0045
 4374TIP3    H234682   4.135   1.965   0.811  0.2633  0.0270 -0.0365
 4375TIP3   OH234683   1.850   3.802   8.632 -0.0460  0.5875 -0.4906
 4375TIP3    H134684   1.811   3.717   8.651 -1.8544  1.5774  0.5172
 4375TIP3    H234685   1.944   3.789   8.642 -0.2695 -1.3422 -0.6419
 4376TIP3   OH234686   5.242   0.371   7.369  0.2674  0.1163 -0.0267
 4376TIP3    H134687   5.328   0.411   7.353  0.3092 -0.0400 -0.1884
 4376TIP3    H234688   5.215   0.407   7.453  2.3601 -2.9780  2.1901
 4377TIP3   OH234689   3.789   1.828   8.157 -0.6149  0.1366 -0.0362
 4377TIP3    H134690   3.817   1.918   8.140  1.1692 -0.3444  0.1431
 4377TIP3    H234691   3.723   1.836   8.226 -0.2767  1.2957  0.1768
 4378TIP3   OH234692   5.033   5.893   1.297  0.3533  0.5596  0.2148
 4378TIP3    H134693   4.941   5.895   1.271  0.2884 -3.2920 -0.5021
 4378TIP3    H234694   5.040   5.815   1.353  3.5226 -0.7458 -1.7431
 4379TIP3   OH234695   2.542   3.748   8.483  0.2758 -0.1166 -0.3201
 4379TIP3    H134696   2.555   3.659   8.450  0.2968 -0.3694  0.3539
 4379TIP3    H234697   2.610   3.800   8.441 -2.0166  0.4370 -3.8089
 4380TIP3   OH234698   2.456   3.933   8.191  0.1013 -0.1814  0.3123
 4380TIP3    H134699   2.546   3.901   8.186  0.9173  2.0155 -0.2979
 4380TIP3    H234700   2.415   3.900   8.111  0.6079 -0.5175  0.1820
 4381TIP3   OH234701   2.081   5.685   7.035  0.8350  0.4902 -0.1007
 4381TIP3    H134702   2.015   5.635   7.083  2.4025  0.4447  2.1544
 4381TIP3    H234703   2.054   5.777   7.046 -0.7480  0.3837 -2.2748
 4382TIP3   OH234704   3.401   4.277   0.863 -0.1356  0.0960  0.1517
 4382TIP3    H134705   3.467   4.335   0.901  0.6264 -1.2161  0.9154
 4382TIP3    H234706   3.450   4.222   0.803 -0.5144 -0.9206  0.7519
 4383TIP3   OH234707   6.424   0.894   7.898  0.6758 -0.5694 -0.4966
 4383TIP3    H134708   6.454   0.831   7.964  0.7827 -1.1276 -1.0707
 4383TIP3    H234709   6.362   0.950   7.945  0.3093 -1.3220 -0.0668
 4384TIP3   OH234710   1.061   6.334   7.553 -0.1050 -0.4101 -0.1483
 4384TIP3    H134711   1.002   6.269   7.591 -0.6690  0.5857  0.7379
 4384TIP3    H234712   1.145   6.289   7.546 -0.5809 -1.3595  0.0621
 4385TIP3   OH234713   6.475   5.589   7.838  0.1601  0.3727 -0.3371
 4385TIP3    H134714   6.490   5.588   7.743  2.1215  0.8949 -0.0607
 4385TIP3    H234715   6.438   5.502   7.857  2.5450 -0.9266 -1.1996
 4386TIP3   OH234716   3.677   5.393   6.877  0.6291  0.9791 -0.1443
 4386TIP3    H134717   3.648   5.324   6.937 -1.3524 -0.9038 -3.0028
 4386TIP3    H234718   3.619   5.467   6.896  0.9920  0.9471  1.1676
 4387TIP3   OH234719   2.420   6.758   0.621 -0.3579 -0.7743 -0.8268
 4387TIP3    H134720   2.400   6.845   0.655 -0.7718  0.2047 -3.3576
 4387TIP3    H234721   2.503   6.735   0.661 -1.4057 -0.3674  1.8236
 4388TIP3   OH234722   5.361   4.881   8.517  0.1049  0.2087  0.4431
 4388TIP3    H134723   5.266   4.891   8.507 -0.4895 -1.9325  2.9388
 4388TIP3    H234724   5.383   4.936   8.592  0.4294 -0.9201  1.1956
 4389TIP3   OH234725   0.456   2.863   0.966  0.0112  0.1341 -0.1259
 4389TIP3    H134726   0.513   2.786   0.966  0.0118  0.1342 -0.1840
 4389TIP3    H234727   0.495   2.922   1.030  1.4907  1.1786 -1.8988
 4390TIP3   OH234728   2.081   2.842   0.529 -0.1198  0.4856  0.5771
 4390TIP3    H134729   2.084   2.750   0.555  0.8799  0.6290  0.9949
 4390TIP3    H234730   2.153   2.883   0.577  1.9291  0.7586 -2.4347
 4391TIP3   OH234731   2.112   2.649   0.914 -0.2601 -0.0288  0.5014
 4391TIP3    H134732   2.067   2.601   0.983  0.5642 -0.2438  0.9020
 4391TIP3    H234733   2.104   2.593   0.837  0.5828 -0.7820  0.9355
 4392TIP3   OH234734   5.457   3.365   2.118  0.5551  0.1911 -0.6189
 4392TIP3    H134735   5.493   3.283   2.083 -0.0371  0.7619 -2.7292
 4392TIP3    H234736   5.382   3.338   2.172  0.7880 -0.6932 -0.7321
 4393TIP3   OH234737   5.550   4.090   0.109 -0.6955 -0.2766 -0.9430
 4393TIP3    H134738   5.641   4.109   0.088 -1.0797 -0.0015 -2.5384
 4393TIP3    H234739   5.549   3.997   0.131 -0.0093 -0.2494 -0.7778
 4394TIP3   OH234740   4.508   4.830   0.227 -0.2701  0.3303  0.1125
 4394TIP3    H134741   4.476   4.898   0.168 -0.9161  0.1702  0.2658
 4394TIP3    H234742   4.568   4.875   0.286  2.2727  0.0770 -2.1022
 4395TIP3   OH234743   2.892   4.250   6.896  0.9014 -0.4107 -0.5830
 4395TIP3    H134744   2.845   4.299   6.829  0.3530  0.1515  0.1956
 4395TIP3    H234745   2.865   4.159   6.883 -0.2522 -0.1211 -0.2851
 4396TIP3   OH234746   1.022   0.211   0.755  0.4508 -0.1784  0.0274
 4396TIP3    H134747   0.954   0.278   0.751 -0.8805 -1.4831 -0.6071
 4396TIP3    H234748   1.100   0.253   0.718 -1.0491  0.2579 -2.9642
 4397TIP3   OH234749   4.581   3.135   1.382 -0.4925  0.3816 -0.4610
 4397TIP3    H134750   4.657   3.124   1.326 -1.2564  1.0462 -1.6792
 4397TIP3    H234751   4.581   3.059   1.440  1.0924  0.3942 -0.4231
 4398TIP3   OH234752   2.212   4.421   8.192 -0.1149  0.0656  0.1347
 4398TIP3    H134753   2.117   4.426   8.180 -0.1142 -0.0972  0.0562
 4398TIP3    H234754   2.231   4.484   8.261  0.1255  2.6346 -2.0968
 4399TIP3   OH234755   0.780   2.659   0.617 -0.1867 -0.2278  0.8815
 4399TIP3    H134756   0.734   2.612   0.548  1.8691 -0.8590 -0.1300
 4399TIP3    H234757   0.872   2.659   0.589  0.7689 -0.6902  3.7065
 4400TIP3   OH234758   1.847   3.564   2.564  0.3764 -0.5179 -0.2191
 4400TIP3    H134759   1.882   3.559   2.474  1.0367  0.6241 -0.0478
 4400TIP3    H234760   1.894   3.638   2.603 -1.6214  0.5298  0.3078
 4401TIP3   OH234761   3.185   5.943   2.161  0.5024  0.4824  0.1894
 4401TIP3    H134762   3.135   5.879   2.213  3.1408 -1.0324  1.0542
 4401TIP3    H234763   3.210   6.010   2.224  0.0423  0.9521 -0.1223
 4402TIP3   OH234764   6.353   6.629   6.361  0.6694  0.2306 -0.0629
 4402TIP3    H134765   6.267   6.622   6.401  0.8475 -1.3015  0.1153
 4402TIP3    H234766   6.338   6.617   6.268  0.7452 -0.6417  0.0311
 4403TIP3   OH234767   2.970   1.612   7.123 -0.3179  0.0589 -0.8601
 4403TIP3    H134768   3.063   1.589   7.127 -0.5822 -1.2740 -1.8117
 4403TIP3    H234769   2.956   1.667   7.200  0.3427 -3.1946  1.8206
 4404TIP3   OH234770   4.932   0.346   2.382 -0.1987  0.2779  0.1191
 4404TIP3    H134771   4.898   0.401   2.312 -0.3288 -1.0450 -0.8718
 4404TIP3    H234772   5.027   0.346   2.369 -0.3785 -1.9997 -1.6495
 4405TIP3   OH234773   1.383   1.442   0.906 -0.3458  0.3400 -0.0698
 4405TIP3    H134774   1.345   1.373   0.959 -0.2285  0.6024  0.3586
 4405TIP3    H234775   1.476   1.422   0.904 -0.5770 -0.7844 -1.8211
 4406TIP3   OH234776   6.372   1.692   8.578 -0.0530  0.5194 -0.5309
 4406TIP3    H134777   6.387   1.785   8.558  1.7841  0.5207  0.6098
 4406TIP3    H234778   6.392   1.684   8.672 -1.6269 -0.7644 -0.2678
 4407TIP3   OH234779   3.590   2.121   7.542 -0.1731 -0.0348 -0.3758
 4407TIP3    H134780   3.642   2.082   7.612 -0.4761  0.1810 -0.0245
 4407TIP3    H234781   3.621   2.079   7.462 -0.6192 -1.1395  0.0039
 4408TIP3   OH234782   3.735   0.937   7.600  0.1609  0.7294  0.2845
 4408TIP3    H134783   3.701   0.934   7.510 -0.9486 -1.1415  0.7241
 4408TIP3    H234784   3.821   0.895   7.594  0.1737  0.7812  0.0728
 4409TIP3   OH234785   0.957   1.071   6.300  0.3618  0.4794 -0.7814
 4409TIP3    H134786   0.959   1.043   6.209  3.1742  1.5389 -1.1466
 4409TIP3    H234787   1.045   1.054   6.332 -0.5255  0.2349  1.7443
 4410TIP3   OH234788   3.403   1.665   7.025 -0.5935  0.7035 -0.0571
 4410TIP3    H134789   3.326   1.721   7.031 -1.4958 -0.6275  1.9293
 4410TIP3    H234790   3.370   1.582   6.991  0.2011  0.4772 -0.3058
 4411TIP3   OH234791   4.830   6.376   2.348  0.6397 -0.0118 -0.2582
 4411TIP3    H134792   4.884   6.443   2.307 -0.0339  0.4622 -0.3924
 4411TIP3    H234793   4.792   6.419   2.425 -0.4914  0.0455 -0.8257
 4412TIP3   OH234794   0.239   3.083   8.449  0.1403  0.3798 -0.2461
 4412TIP3    H134795   0.171   3.020   8.426 -1.6184  1.2686  2.0915
 4412TIP3    H234796   0.299   3.034   8.506 -0.2402  0.3515  0.1337
 4413TIP3   OH234797   0.364   3.982   7.533  0.0890 -0.1640  0.2553
 4413TIP3    H134798   0.428   4.000   7.464 -0.3459 -0.7459 -0.3183
 4413TIP3    H234799   0.308   4.060   7.534 -0.8241 -0.7636 -1.1193
 4414TIP3   OH234800   0.430   2.551   0.629 -0.0200 -0.2604  0.1605
 4414TIP3    H134801   0.336   2.561   0.618 -0.3085 -3.5767 -1.7782
 4414TIP3    H234802   0.468   2.574   0.544  0.5770 -1.4066  0.0817
 4415TIP3   OH234803   0.465   2.360   7.363  0.2426 -0.0610 -0.5776
 4415TIP3    H134804   0.549   2.331   7.398  1.1884  0.1868 -2.5078
 4415TIP3    H234805   0.400   2.309   7.411  1.4136  0.2500  1.4545
 4416TIP3   OH234806   0.700   4.243   0.683  0.5591  0.1540 -0.1270
 4416TIP3    H134807   0.776   4.232   0.626  0.2986 -1.0013 -0.2760
 4416TIP3    H234808   0.707   4.171   0.747 -0.0435  0.4429  0.2742
 4417TIP3   OH234809   4.927   6.356   0.270  0.4786  0.1899 -0.4093
 4417TIP3    H134810   4.953   6.346   0.178 -2.8399  1.0046 -1.5870
 4417TIP3    H234811   4.917   6.451   0.281  0.8908  0.0948  0.8381
 4418TIP3   OH234812   5.919   5.648   0.211 -0.0319  0.1244  0.6486
 4418TIP3    H134813   5.876   5.703   0.145  2.5713  0.3192 -1.0262
 4418TIP3    H234814   5.910   5.559   0.178 -1.5185 -0.1865  1.7671
 4419TIP3   OH234815   1.428   1.021   0.794  0.1821 -0.6025  0.1460
 4419TIP3    H134816   1.436   0.930   0.822  0.0443 -0.2319  1.4566
 4419TIP3    H234817   1.503   1.065   0.834 -1.4567  0.4740  2.2526
 4420TIP3   OH234818   0.657   3.902   1.592 -0.1818 -0.0779 -0.1872
 4420TIP3    H134819   0.677   3.966   1.525  0.0750 -1.6738 -1.6970
 4420TIP3    H234820   0.569   3.872   1.571 -0.3400 -0.1733  0.5630
 4421TIP3   OH234821   3.564   2.768   1.715 -0.4861 -0.6189  0.4946
 4421TIP3    H134822   3.604   2.826   1.779 -0.6810 -0.0821  0.1386
 4421TIP3    H234823   3.506   2.825   1.663 -0.1727 -0.9920 -0.2896
 4422TIP3   OH234824   0.991   4.603   7.666 -0.5757 -0.0813 -0.2461
 4422TIP3    H134825   1.047   4.660   7.614 -1.7808  1.0397 -0.3556
 4422TIP3    H234826   0.912   4.592   7.614 -0.8951 -0.7938  0.3606
 4423TIP3   OH234827   2.521   3.957   0.997 -0.2251 -0.0139 -0.1902
 4423TIP3    H134828   2.452   3.934   0.935  0.9758  0.2842 -1.6911
 4423TIP3    H234829   2.534   3.878   1.049  0.9740 -1.4583 -2.5079
 4424TIP3   OH234830   2.008   0.842   0.422 -0.3077  0.4359  0.4623
 4424TIP3    H134831   2.031   0.750   0.438  1.0331  0.5866 -0.4245
 4424TIP3    H234832   1.984   0.844   0.330 -0.5659  0.9345  0.5415
 4425TIP3   OH234833   4.678   0.155   1.432 -0.3809 -0.1572  0.1694
 4425TIP3    H134834   4.709   0.065   1.446  0.5528  0.1005 -0.1656
 4425TIP3    H234835   4.608   0.166   1.497  0.9227 -0.4160  1.6811
 4426TIP3   OH234836   1.870   6.197   0.564 -0.1430  0.0537  0.4294
 4426TIP3    H134837   1.926   6.244   0.626  0.0725  2.8226 -1.6921
 4426TIP3    H234838   1.915   6.113   0.551  1.7127  0.8370  1.3500
 4427TIP3   OH234839   2.335   1.427   2.337 -0.1366  0.5448 -0.2296
 4427TIP3    H134840   2.255   1.410   2.385 -0.1323  1.9852  0.3025
 4427TIP3    H234841   2.388   1.480   2.396  0.4751  1.1009 -1.2590
 4428TIP3   OH234842   6.567   0.347   1.921 -0.0095 -0.4330  0.0232
 4428TIP3    H134843   6.629   0.275   1.932 -0.9071 -1.5897 -1.9487
 4428TIP3    H234844   6.486   0.306   1.892 -0.7596  1.3154 -0.5222
 4429TIP3   OH234845   3.679   1.998   8.416 -0.0138 -0.3048 -0.2792
 4429TIP3    H134846   3.660   2.071   8.356  2.1776 -0.9250 -1.8419
 4429TIP3    H234847   3.744   2.034   8.477  0.8803 -0.8435 -0.8967
 4430TIP3   OH234848   1.950   1.559   7.159  0.0401 -0.4694  0.3490
 4430TIP3    H134849   1.978   1.467   7.163  0.1287 -0.5723 -1.5379
 4430TIP3    H234850   2.025   1.604   7.121  0.1186  0.4743  1.5601
 4431TIP3   OH234851   5.422   1.632   8.485  0.2466 -0.6693 -0.4039
 4431TIP3    H134852   5.387   1.715   8.453  1.0978 -0.8021 -1.7764
 4431TIP3    H234853   5.365   1.565   8.446 -0.1440 -0.7544  0.3027
 4432TIP3   OH234854   0.349   0.620   0.200  0.4685  0.0936  0.1026
 4432TIP3    H134855   0.353   0.592   0.291  0.7889  0.3384  0.1641
 4432TIP3    H234856   0.294   0.698   0.201  0.3879  0.0374  0.0711
 4433TIP3   OH234857   6.633   4.484   1.656 -0.9512 -0.1039  0.0893
 4433TIP3    H134858   6.576   4.495   1.733 -0.3727 -0.8091  0.6291
 4433TIP3    H234859   6.702   4.548   1.669 -2.1872  1.5953 -1.1579
 4434TIP3   OH234860   3.280   3.997   7.992 -0.4576  0.0007 -0.0535
 4434TIP3    H134861   3.301   3.987   7.899 -1.5925  1.0990 -0.4601
 4434TIP3    H234862   3.342   3.940   8.037 -0.6372 -1.4497 -1.5493
 4435TIP3   OH234863   2.441   4.697   1.931 -0.0592  0.5316  0.1085
 4435TIP3    H134864   2.442   4.713   1.837  0.7849  0.1320  0.0440
 4435TIP3    H234865   2.524   4.733   1.962 -1.7230  3.8313  1.2569
 4436TIP3   OH234866   0.405   6.521   2.010 -1.1063 -0.5394 -0.2494
 4436TIP3    H134867   0.482   6.465   2.000 -1.4327 -0.8282 -1.2465
 4436TIP3    H234868   0.403   6.575   1.930 -1.1035  0.5165  0.4454
 4437TIP3   OH234869   3.211   3.287   6.727 -0.0649 -0.1440  0.1879
 4437TIP3    H134870   3.286   3.341   6.704 -0.2961  0.5556  1.0255
 4437TIP3    H234871   3.135   3.343   6.712 -0.3404 -0.3988  0.5900
 4438TIP3   OH234872   3.579   3.742   7.528  0.1263  0.2451  0.2292
 4438TIP3    H134873   3.500   3.724   7.579 -0.7167 -0.5005 -1.2794
 4438TIP3    H234874   3.550   3.802   7.459  1.4448  1.9749  1.0841
 4439TIP3   OH234875   2.110   5.324   8.636 -0.2892  0.1614  0.1772
 4439TIP3    H134876   2.142   5.405   8.676  0.3148 -0.3235  0.6953
 4439TIP3    H234877   2.137   5.255   8.697  0.2255 -0.5430 -0.8315
 4440TIP3   OH234878   4.266   0.408   2.252 -0.1930  0.1059 -0.2225
 4440TIP3    H134879   4.307   0.385   2.335  0.1373 -3.0106 -1.1470
 4440TIP3    H234880   4.284   0.502   2.242  0.7047  0.3340  2.6453
 4441TIP3   OH234881   1.608   5.908   1.537 -0.9347 -0.1501 -0.1167
 4441TIP3    H134882   1.618   5.963   1.459 -0.1248 -0.2188 -0.0652
 4441TIP3    H234883   1.602   5.819   1.502  1.7955 -0.4527 -0.0291
 4442TIP3   OH234884   4.453   4.471   2.062  0.5634  0.4028  0.9270
 4442TIP3    H134885   4.439   4.400   1.999  0.1045  0.4293  0.9925
 4442TIP3    H234886   4.374   4.470   2.116  1.2451 -0.0549  1.9308
 4443TIP3   OH234887   5.344   4.540   2.483 -0.4526 -0.2294 -1.0030
 4443TIP3    H134888   5.312   4.468   2.429 -0.8862  0.1984 -1.3217
 4443TIP3    H234889   5.428   4.564   2.444 -0.1052 -0.8326 -0.6419
 4444TIP3   OH234890   0.103   6.759   1.808 -0.5048  0.2189 -0.3704
 4444TIP3    H134891   0.073   6.758   1.718 -1.3957  2.0936 -0.1368
 4444TIP3    H234892   0.043   6.818   1.853  0.2309 -0.2651  1.3458
 4445TIP3   OH234893   4.243   3.128   0.437 -0.1315 -0.2263  0.0744
 4445TIP3    H134894   4.161   3.173   0.416  0.2086  0.1563 -0.4289
 4445TIP3    H234895   4.233   3.105   0.530 -0.5178  0.4393  0.2080
 4446TIP3   OH234896   3.284   1.919   6.552 -0.1710 -0.3022 -0.0583
 4446TIP3    H134897   3.220   1.982   6.518  1.0458  0.4769 -0.9962
 4446TIP3    H234898   3.298   1.946   6.642 -0.5085  0.0620 -0.1122
 4447TIP3   OH234899   0.809   4.688   1.983 -0.0694 -0.0179 -0.3124
 4447TIP3    H134900   0.839   4.705   2.073 -1.0332 -2.1486  0.4777
 4447TIP3    H234901   0.885   4.709   1.928  0.6225  1.0837  1.0115
 4448TIP3   OH234902   5.042   2.195   1.096  0.2317  0.6555  0.5012
 4448TIP3    H134903   4.956   2.224   1.127 -2.1996 -1.8143 -3.0460
 4448TIP3    H234904   5.085   2.275   1.065 -2.5542  1.6701 -1.1551
 4449TIP3   OH234905   5.473   1.243   7.247 -0.4140  0.0367  0.0053
 4449TIP3    H134906   5.403   1.183   7.274  1.3533 -2.7650 -1.2091
 4449TIP3    H234907   5.526   1.255   7.327 -2.0179  1.9463  0.8550
 4450TIP3   OH234908   0.964   1.476   1.282  0.1103 -0.0532  0.1791
 4450TIP3    H134909   1.018   1.431   1.218  0.7725  0.8112  0.1083
 4450TIP3    H234910   1.026   1.514   1.344 -0.4549  0.2513  0.5702
 4451TIP3   OH234911   6.396   3.084   7.348 -0.0793 -0.6519 -0.1054
 4451TIP3    H134912   6.413   3.106   7.257 -0.6066 -2.1436 -0.6033
 4451TIP3    H234913   6.482   3.073   7.387  0.1557  0.5508 -0.2674
 4452TIP3   OH234914   1.482   5.896   0.875 -0.6010  0.3831  0.1579
 4452TIP3    H134915   1.449   5.815   0.836  0.0841  0.4546 -0.5852
 4452TIP3    H234916   1.421   5.964   0.844 -0.0224  0.4495 -0.8588
 4453TIP3   OH234917   3.946   5.973   0.013 -0.4174 -0.3214  0.0523
 4453TIP3    H134918   4.033   6.012   0.025 -1.0767  1.1343  0.3589
 4453TIP3    H234919   3.890   6.047  -0.011 -1.7052 -1.1266  0.4718
 4454TIP3   OH234920   5.343   6.515   8.482  0.0823  0.1540 -0.0832
 4454TIP3    H134921   5.364   6.423   8.497  1.5058  0.2495 -1.2770
 4454TIP3    H234922   5.271   6.514   8.419  0.4086 -0.1550 -0.4567
 4455TIP3   OH234923   3.091   5.565   1.528  0.3626 -0.1624 -0.6139
 4455TIP3    H134924   3.115   5.575   1.620 -2.9647  0.2942  0.3299
 4455TIP3    H234925   3.126   5.479   1.504  0.0064 -0.9767  1.5530
 4456TIP3   OH234926   3.276   0.644   7.194 -0.5818  0.2132 -0.4407
 4456TIP3    H134927   3.183   0.625   7.204 -0.0663 -2.6900 -0.2847
 4456TIP3    H234928   3.280   0.718   7.133 -2.9392 -0.3925 -1.4126
 4457TIP3   OH234929   0.945   1.726   8.313  0.2969 -0.3462 -0.0694
 4457TIP3    H134930   0.983   1.662   8.372 -0.6647 -2.0744 -1.2499
 4457TIP3    H234931   0.858   1.693   8.292 -1.2374  2.5735  1.1169
 4458TIP3   OH234932   3.081   1.436   7.498 -0.4776  0.1812 -0.1741
 4458TIP3    H134933   3.097   1.519   7.452  1.1087  0.8901  1.5340
 4458TIP3    H234934   3.001   1.401   7.457 -1.3780  2.6877 -0.7298
 4459TIP3   OH234935   5.284   1.017   1.333  0.0934  0.5097 -0.1620
 4459TIP3    H134936   5.209   0.987   1.385 -0.7675  0.8670 -1.1525
 4459TIP3    H234937   5.246   1.079   1.271  0.8347 -0.8532 -2.0861
 4460TIP3   OH234938   3.666   6.706   2.351  0.3335  0.3191  0.1856
 4460TIP3    H134939   3.580   6.740   2.329 -0.3897 -0.3856  1.7627
 4460TIP3    H234940   3.713   6.782   2.388  0.3465  0.6580 -0.5079
 4461TIP3   OH234941   3.569   2.527   2.105  0.3390 -0.2246 -0.6409
 4461TIP3    H134942   3.614   2.458   2.154  1.3300  1.0491  0.3280
 4461TIP3    H234943   3.602   2.518   2.015 -0.4200 -1.7065 -0.7957
 4462TIP3   OH234944   2.179   3.292   1.091 -0.1100  0.0107 -0.2282
 4462TIP3    H134945   2.151   3.202   1.111 -1.5468  1.1027  3.6792
 4462TIP3    H234946   2.105   3.346   1.117  2.2703  2.5384  1.9004
 4463TIP3   OH234947   3.489   4.170   1.970  0.5142 -0.4374 -0.1292
 4463TIP3    H134948   3.494   4.089   1.919  1.2964 -0.6195  0.2341
 4463TIP3    H234949   3.504   4.240   1.906  2.4096 -0.7044 -0.0279
 4464TIP3   OH234950   3.984   4.780   0.955 -0.1659 -0.1231 -0.5850
 4464TIP3    H134951   3.907   4.819   0.914 -0.3621 -0.3774 -0.4654
 4464TIP3    H234952   4.021   4.723   0.887 -0.7192 -0.8513 -0.2872
 4465TIP3   OH234953   3.062   5.704   0.814  0.0470  0.6847 -0.3283
 4465TIP3    H134954   3.122   5.715   0.888  1.8893 -1.0951 -1.4396
 4465TIP3    H234955   3.020   5.789   0.805 -0.2030  1.0000  2.6764
 4466TIP3   OH234956   4.948   2.536   0.914  0.2373 -0.3506  0.4269
 4466TIP3    H134957   5.038   2.545   0.883 -0.5011  1.9559 -1.3508
 4466TIP3    H234958   4.907   2.477   0.850 -0.2139  0.9726 -0.5380
 4467TIP3   OH234959   1.216   4.793   7.610 -0.4485 -0.1872 -0.0354
 4467TIP3    H134960   1.275   4.812   7.538  0.9174  0.2612  1.1457
 4467TIP3    H234961   1.273   4.762   7.680 -1.5309  0.8188  1.3581
 4468TIP3   OH234962   4.108   0.911   7.352  0.5459 -0.1926 -0.2095
 4468TIP3    H134963   4.054   0.832   7.359 -0.7869  0.7946  1.2244
 4468TIP3    H234964   4.136   0.913   7.260 -1.6145 -0.9286 -0.9330
 4469TIP3   OH234965   1.008   5.953   8.261 -0.5228 -0.4368 -0.0438
 4469TIP3    H134966   1.103   5.945   8.269 -0.3586  0.0944 -1.2724
 4469TIP3    H234967   0.974   5.891   8.325  0.6641 -2.3947 -1.2015
 4470TIP3   OH234968   5.656   2.616   0.467  0.0215  0.4301  0.7506
 4470TIP3    H134969   5.586   2.637   0.529 -0.3618  1.9951 -0.1669
 4470TIP3    H234970   5.657   2.520   0.464 -0.3691  0.3339  2.6707
 4471TIP3   OH234971   2.343   4.232   8.047 -0.3670  0.3456 -0.3047
 4471TIP3    H134972   2.393   4.195   8.121  0.5151  1.2271 -0.4390
 4471TIP3    H234973   2.306   4.313   8.082 -2.0419 -0.4821 -0.0986
 4472TIP3   OH234974   2.065   3.819   7.443  0.1921 -0.4259 -0.6947
 4472TIP3    H134975   2.057   3.893   7.383 -0.7804  0.8553  0.9211
 4472TIP3    H234976   2.159   3.805   7.452  0.3987  0.7661 -0.8586
 4473TIP3   OH234977   2.754   5.740   7.381  0.5447 -0.5641  0.2523
 4473TIP3    H134978   2.801   5.729   7.298  1.3487 -1.4751  0.8143
 4473TIP3    H234979   2.823   5.754   7.446 -0.0925  0.4016  0.7437
 4474TIP3   OH234980   5.433   2.585   1.306 -0.9042  0.1060 -0.7153
 4474TIP3    H134981   5.526   2.606   1.298 -0.5082 -2.1725 -3.2031
 4474TIP3    H234982   5.392   2.627   1.230 -1.7973  0.4390 -0.0667
 4475TIP3   OH234983   1.774   1.386   7.593 -0.4657  0.2994  0.2259
 4475TIP3    H134984   1.690   1.415   7.559 -0.6847  0.8692  1.2118
 4475TIP3    H234985   1.756   1.300   7.631 -0.5379  0.2981  0.1879
 4476TIP3   OH234986   0.399   3.852   1.575  0.1275  0.5695  0.3509
 4476TIP3    H134987   0.369   3.935   1.537 -1.1329 -0.7086 -1.6585
 4476TIP3    H234988   0.318   3.807   1.600  0.7935 -0.0851  1.4030
 4477TIP3   OH234989   3.454   5.219   0.322 -0.0871 -0.4935  0.4040
 4477TIP3    H134990   3.418   5.253   0.240  0.5371  0.5794  0.5533
 4477TIP3    H234991   3.448   5.124   0.313 -2.7088 -0.3860  0.3323
 4478TIP3   OH234992   1.090   6.193   1.963  0.0067  0.5003  0.1130
 4478TIP3    H134993   1.141   6.266   1.929  0.0200  0.7393  0.6303
 4478TIP3    H234994   1.153   6.122   1.975  0.5327  1.2431  2.1164
 4479TIP3   OH234995   3.593   1.294   7.288 -0.1659 -0.2468  0.1955
 4479TIP3    H134996   3.562   1.205   7.271  3.0252 -1.3927 -0.4215
 4479TIP3    H234997   3.628   1.324   7.204  2.6446 -0.1912  1.2635
 4480TIP3   OH234998   4.300   0.637   1.797  0.1055 -0.5290 -0.1375
 4480TIP3    H134999   4.334   0.682   1.874 -0.0747 -0.2707 -0.2061
 4480TIP3    H235000   4.332   0.689   1.723 -0.0007 -0.5818 -0.2211
 4481TIP3   OH235001   3.852   4.933   7.865  0.3565 -0.3704 -0.0248
 4481TIP3    H135002   3.800   4.976   7.797 -1.9328 -1.3707  0.9890
 4481TIP3    H235003   3.904   5.004   7.904  1.1423  0.3544 -2.2114
 4482TIP3   OH235004   2.398   5.655   7.921 -0.5291  0.6541 -0.6290
 4482TIP3    H135005   2.439   5.633   7.838  0.0910 -0.4932 -0.0441
 4482TIP3    H235006   2.368   5.571   7.957  0.5553  0.8948  0.9746
 4483TIP3   OH235007   2.153   1.698   6.408 -0.2450 -0.0590 -0.2927
 4483TIP3    H135008   2.109   1.773   6.368  1.3941 -0.2427 -2.6628
 4483TIP3    H235009   2.239   1.731   6.433 -0.5964 -0.4338  1.5589
 4484TIP3   OH235010   1.908   2.885   1.584 -0.0124 -0.6806  0.3297
 4484TIP3    H135011   1.815   2.866   1.574  0.1849 -1.7721  0.4097
 4484TIP3    H235012   1.933   2.927   1.502 -0.2942 -1.6289 -0.2629
 4485TIP3   OH235013   5.750   2.979   0.347  0.1204 -0.3595  0.4574
 4485TIP3    H135014   5.701   3.041   0.401  0.4012 -0.4933  0.8746
 4485TIP3    H235015   5.684   2.921   0.311 -0.3793  1.3051 -1.4755
 4486TIP3   OH235016   2.752   5.241   1.515 -0.1477  0.3347  0.8092
 4486TIP3    H135017   2.815   5.233   1.587 -0.4333  0.0475  1.0284
 4486TIP3    H235018   2.700   5.161   1.520 -1.3065  1.1022  1.3710
 4487TIP3   OH235019   2.597   3.023   8.296  0.1942  0.1005  0.2815
 4487TIP3    H135020   2.513   3.045   8.257  1.0808  0.5010 -1.5263
 4487TIP3    H235021   2.639   3.108   8.312  1.4298 -0.0825 -1.6483
 4488TIP3   OH235022   6.038   5.526   7.896 -0.0477  0.3924 -0.3517
 4488TIP3    H135023   6.059   5.445   7.850  0.5217  0.8119 -0.8438
 4488TIP3    H235024   5.994   5.497   7.976 -0.5094 -0.3697 -0.8618
 4489TIP3   OH235025   3.812   3.256   8.551  0.4906  0.2402 -0.7516
 4489TIP3    H135026   3.824   3.349   8.531  4.1488  1.1527  3.8658
 4489TIP3    H235027   3.872   3.211   8.491  1.2450  1.2749 -0.8136
 4490TIP3   OH235028   6.447   5.097   1.433 -0.5014  0.3175 -0.1909
 4490TIP3    H135029   6.477   5.091   1.524  0.4449  1.1313 -0.4300
 4490TIP3    H235030   6.360   5.136   1.439 -0.8799 -0.5717  0.4165
 4491TIP3   OH235031   2.206   2.502   7.595 -0.4250  0.2180  0.1458
 4491TIP3    H135032   2.266   2.435   7.564 -0.5883  0.2149 -0.1696
 4491TIP3    H235033   2.229   2.581   7.546  1.1078  0.9590  1.9537
 4492TIP3   OH235034   6.781   3.424   2.031 -0.5303  0.5589  0.0101
 4492TIP3    H135035   6.818   3.418   2.119 -0.8578  0.2605  0.1306
 4492TIP3    H235036   6.688   3.440   2.046 -0.6622  0.0879 -0.2804
 4493TIP3   OH235037   2.183   1.379   0.128  0.1438 -0.5996  0.0536
 4493TIP3    H135038   2.207   1.287   0.126 -0.2743 -0.7176 -1.4306
 4493TIP3    H235039   2.262   1.426   0.101  0.8990 -0.3399  2.5363
 4494TIP3   OH235040   1.966   2.250   1.156 -0.0622 -0.3058  0.2717
 4494TIP3    H135041   1.976   2.197   1.077 -0.2206  0.0077  0.0435
 4494TIP3    H235042   2.011   2.199   1.224  0.5715 -0.3039 -0.1372
 4495TIP3   OH235043   3.437   3.371   7.580  0.2949  0.1908  0.4426
 4495TIP3    H135044   3.402   3.327   7.502 -0.0475  0.5309  0.4017
 4495TIP3    H235045   3.523   3.403   7.552  1.2848 -1.8355  0.9452
 4496TIP3   OH235046   1.436   0.882   0.482  0.2277 -0.0435 -0.0594
 4496TIP3    H135047   1.396   0.957   0.526  1.0382  0.3387  0.0257
 4496TIP3    H235048   1.428   0.902   0.388  0.5793  0.2152 -0.0327
 4497TIP3   OH235049   5.615   5.707   1.979  0.2896  0.5241 -0.0488
 4497TIP3    H135050   5.519   5.711   1.975  0.1363 -2.1487 -2.2528
 4497TIP3    H235051   5.633   5.659   2.060 -0.2579  0.5511  0.0971
 4498TIP3   OH235052   1.928   1.125   1.413 -0.2614  0.2382  0.2933
 4498TIP3    H135053   1.897   1.081   1.492  0.7269 -0.4547  0.3119
 4498TIP3    H235054   2.023   1.117   1.417 -0.2154 -0.5117 -1.3463
 4499TIP3   OH235055   3.829   6.763   6.768 -0.1090  0.0490  0.3823
 4499TIP3    H135056   3.820   6.668   6.758 -1.6799  0.0913  1.1159
 4499TIP3    H235057   3.824   6.796   6.678 -1.4648 -0.4366  0.2604
 4500TIP3   OH235058   3.399   5.512   7.691 -0.2952 -0.0962 -0.0760
 4500TIP3    H135059   3.308   5.528   7.714  0.0658  1.5597  0.3618
 4500TIP3    H235060   3.395   5.453   7.615 -1.8635  1.8815 -1.6608
 4501TIP3   OH235061   3.396   5.353   0.554  0.0729 -0.2998  0.3668
 4501TIP3    H135062   3.410   5.327   0.463 -1.4316  1.7882 -0.5426
 4501TIP3    H235063   3.483   5.349   0.593  0.8849 -0.6018 -1.3643
 4502TIP3   OH235064   0.656   5.626   1.447 -0.1217 -0.2147  0.5142
 4502TIP3    H135065   0.694   5.682   1.379 -1.3454 -0.1852 -0.1708
 4502TIP3    H235066   0.563   5.624   1.427 -0.4346 -0.6302  1.9026
 4503TIP3   OH235067   0.037   1.268   0.702 -0.0647 -0.2450 -0.3502
 4503TIP3    H135068  -0.002   1.342   0.748 -0.0531  1.3145 -2.6733
 4503TIP3    H235069   0.013   1.192   0.755  2.4595  1.5140  3.8489
 4504TIP3   OH235070   0.105   0.961   0.232  0.1582 -0.0363 -0.3380
 4504TIP3    H135071   0.031   1.017   0.211 -0.5001 -0.1596  1.5001
 4504TIP3    H235072   0.164   0.970   0.157 -2.1629 -0.7736 -2.3595
 4505TIP3   OH235073   5.136   6.653   0.967 -0.0962 -0.4503 -0.3597
 4505TIP3    H135074   5.195   6.705   1.021 -0.5120 -0.3086 -0.0328
 4505TIP3    H235075   5.171   6.662   0.878  0.4767 -0.5244 -0.1466
 4506TIP3   OH235076   0.718   5.427   7.092  0.4829  0.0146  0.3969
 4506TIP3    H135077   0.738   5.519   7.076  0.2683  0.2504  1.3996
 4506TIP3    H235078   0.696   5.424   7.186 -1.7093 -0.6509 -0.0837
 4507TIP3   OH235079   1.589   6.003   6.419 -0.7074 -0.1873 -0.0162
 4507TIP3    H135080   1.515   5.947   6.442 -0.2970 -0.5974  0.3351
 4507TIP3    H235081   1.571   6.032   6.330 -0.7951 -1.1182 -0.3175
 4508TIP3   OH235082   2.097   0.974   8.134  0.7036 -0.0357  0.1445
 4508TIP3    H135083   2.082   1.008   8.222  3.1734 -0.4183  0.7906
 4508TIP3    H235084   2.128   0.885   8.148 -0.1983 -0.6088 -1.2307
 4509TIP3   OH235085   0.617   2.352   1.546  0.9199  0.1516  0.2612
 4509TIP3    H135086   0.558   2.278   1.562  0.2199  0.7599  0.5430
 4509TIP3    H235087   0.579   2.424   1.597  1.5875  0.7080 -0.0213
 4510TIP3   OH235088   4.964   6.798   6.905  0.0838 -0.5557  0.5178
 4510TIP3    H135089   4.897   6.817   6.840  0.8364  0.3381 -0.0136
 4510TIP3    H235090   5.017   6.729   6.865  1.7272  1.3358 -0.7075
 4511TIP3   OH235091   5.297   1.389   6.984  0.9194  0.1886  0.0888
 4511TIP3    H135092   5.308   1.431   6.898  1.2985 -0.8198 -0.3621
 4511TIP3    H235093   5.322   1.298   6.970  1.0608  0.0269  1.2948
 4512TIP3   OH235094   4.919   4.854   1.923 -0.0619 -0.2046  0.5093
 4512TIP3    H135095   4.983   4.813   1.865 -1.2822 -2.0125  0.3849
 4512TIP3    H235096   4.840   4.862   1.870 -0.5943 -0.0171  1.3187
 4513TIP3   OH235097   4.266   4.232   2.053  0.2880  0.5616 -0.3384
 4513TIP3    H135098   4.172   4.220   2.068  0.8739 -4.2374  1.1472
 4513TIP3    H235099   4.304   4.231   2.140  1.8170  1.7204 -0.9575
 4514TIP3   OH235100   0.189   6.165   0.492  0.2864  0.9482 -0.1815
 4514TIP3    H135101   0.161   6.254   0.468  1.1924  1.6174  1.1093
 4514TIP3    H235102   0.178   6.162   0.587 -0.2699 -0.5391 -0.2740
 4515TIP3   OH235103   5.625   3.299   8.392  0.1292  0.1114 -0.0461
 4515TIP3    H135104   5.543   3.270   8.433  0.6244  0.0622  0.9339
 4515TIP3    H235105   5.597   3.355   8.320 -0.8328 -1.7542 -1.2200
 4516TIP3   OH235106   3.304   3.023   6.335  0.3880 -0.0566  0.0096
 4516TIP3    H135107   3.302   3.020   6.239 -0.1811  2.5899 -0.1182
 4516TIP3    H235108   3.215   3.000   6.361  1.0463 -2.9102  0.0943
 4517TIP3   OH235109   1.933   5.729   0.979 -0.6076 -0.3214  0.3009
 4517TIP3    H135110   1.892   5.767   0.901  1.1125  0.5480 -0.2305
 4517TIP3    H235111   1.915   5.635   0.973 -2.2393 -0.0195 -0.0362
 4518TIP3   OH235112   2.336   3.799   7.315  0.4689 -0.4261  0.0621
 4518TIP3    H135113   2.358   3.859   7.386 -1.1210  0.4338 -0.1178
 4518TIP3    H235114   2.383   3.719   7.335  0.3858 -0.0584  1.8533
 4519TIP3   OH235115   3.908   3.067   0.111 -0.1023  0.2764  0.2826
 4519TIP3    H135116   3.819   3.033   0.101 -0.6120  2.0170 -2.3030
 4519TIP3    H235117   3.956   3.031   0.036  1.6004 -1.0812  1.9248
 4520TIP3   OH235118   1.782   6.843   1.884  0.7095 -0.1780 -0.2309
 4520TIP3    H135119   1.867   6.799   1.886  1.4058  1.1048  0.8678
 4520TIP3    H235120   1.797   6.926   1.930 -1.0672  0.2269 -0.2867
 4521TIP3   OH235121   3.821   2.532   0.218  0.5173  0.1133 -0.3228
 4521TIP3    H135122   3.738   2.550   0.173 -0.8696 -0.6358  1.7581
 4521TIP3    H235123   3.886   2.581   0.169 -1.1198  0.5503 -2.1853
 4522TIP3   OH235124   0.794   4.025   0.824  0.1460  0.0542 -0.6373
 4522TIP3    H135125   0.792   3.945   0.772  1.4171 -0.5817  0.2463
 4522TIP3    H235126   0.877   4.066   0.801 -0.5278  1.1916 -1.1425
 4523TIP3   OH235127   2.378   2.685   0.105  0.0703 -0.3365  0.6278
 4523TIP3    H135128   2.392   2.606   0.158 -0.7847 -0.4345  0.7188
 4523TIP3    H235129   2.407   2.757   0.162 -0.2951 -0.4912  1.0159
 4524TIP3   OH235130   2.488   2.046   0.670 -1.0076  0.5584  0.1369
 4524TIP3    H135131   2.516   2.136   0.653 -1.3780  0.9429  1.4337
 4524TIP3    H235132   2.403   2.056   0.713 -1.0822 -0.4196  0.2348
 4525TIP3   OH235133   6.416   0.075   7.538  0.0057 -0.0168  0.1601
 4525TIP3    H135134   6.337   0.038   7.499  1.2708 -1.6508 -0.9758
 4525TIP3    H235135   6.384   0.150   7.589 -2.0719  0.3700 -1.5422
 4526TIP3   OH235136   1.448   1.916   0.296 -0.0363 -0.2291  0.3047
 4526TIP3    H135137   1.402   1.888   0.376 -0.4224 -2.0216 -0.4861
 4526TIP3    H235138   1.492   1.837   0.265  1.0470  0.7152 -0.6528
 4527TIP3   OH235139   2.312   6.334   8.512  0.0604 -0.4804 -0.0075
 4527TIP3    H135140   2.380   6.401   8.508 -1.0621  0.6572 -0.8103
 4527TIP3    H235141   2.333   6.282   8.590  1.3967  0.3147  0.1847
 4528TIP3   OH235142   0.031   6.679   8.513 -0.5187  0.1375 -0.1289
 4528TIP3    H135143   0.117   6.670   8.472 -0.3739  0.0498  0.1897
 4528TIP3    H235144   0.050   6.681   8.607 -0.9487 -0.8569 -0.0158
 4529TIP3   OH235145   1.363   6.689   7.098 -0.7025 -0.2102  0.5141
 4529TIP3    H135146   1.388   6.728   7.013 -1.7991  1.1767  0.7899
 4529TIP3    H235147   1.445   6.686   7.147 -0.2143 -0.1813 -0.2728
 4530TIP3   OH235148   3.388   2.949   1.588  0.8915  0.8359  0.0393
 4530TIP3    H135149   3.314   2.989   1.635 -0.3246  0.3718 -1.4110
 4530TIP3    H235150   3.446   3.023   1.569 -0.9407  1.9061 -1.9137
 4531TIP3   OH235151   3.406   2.147   7.017  0.1230  0.4672 -0.9548
 4531TIP3    H135152   3.474   2.085   6.991  0.0014 -0.4160  0.7249
 4531TIP3    H235153   3.449   2.233   7.014  1.6884 -0.1719  1.1237
 4532TIP3   OH235154   3.080   2.344   8.265 -0.2814 -0.3870 -0.0053
 4532TIP3    H135155   3.061   2.400   8.340 -1.1142  0.3158 -0.7151
 4532TIP3    H235156   3.064   2.255   8.297 -2.6615  0.0256  0.1155
 4533TIP3   OH235157   5.100   3.541   1.283 -0.3466 -0.9179  0.9313
 4533TIP3    H135158   5.072   3.597   1.210  1.6295  0.9291  1.4858
 4533TIP3    H235159   5.091   3.452   1.250  0.0438 -0.1545 -1.4093
 4534TIP3   OH235160   1.268   2.201   7.311 -0.0515 -0.7727  0.5058
 4534TIP3    H135161   1.295   2.183   7.221 -2.6372 -0.5637 -0.3815
 4534TIP3    H235162   1.295   2.292   7.326  0.3103 -0.7756 -0.0828
 4535TIP3   OH235163   5.399   3.496   7.867 -0.4595  0.3256 -0.0160
 4535TIP3    H135164   5.362   3.461   7.948  0.4400  0.2336  0.3588
 4535TIP3    H235165   5.346   3.575   7.849  0.0150  0.9546  1.2389
 4536TIP3   OH235166   0.456   4.588   8.172 -0.1347 -0.1627 -0.4274
 4536TIP3    H135167   0.433   4.497   8.188 -3.8343  0.7336  0.2314
 4536TIP3    H235168   0.452   4.598   8.077  1.7305 -0.9170 -0.6347
 4537TIP3   OH235169   5.178   5.600   6.981  0.0627 -0.2555  0.1533
 4537TIP3    H135170   5.224   5.523   6.947  1.3975  0.7590 -0.4447
 4537TIP3    H235171   5.110   5.619   6.915  1.2197  0.4035 -0.8934
 4538TIP3   OH235172   5.193   1.479   7.495  0.1735  0.2047 -0.4837
 4538TIP3    H135173   5.144   1.495   7.415  2.1967  0.2220 -1.7975
 4538TIP3    H235174   5.209   1.385   7.495  0.1856  0.2032 -0.0895
 4539TIP3   OH235175   5.860   0.941   7.731  0.5317  0.5842 -0.0471
 4539TIP3    H135176   5.931   0.955   7.794  1.9996 -0.1439 -1.4602
 4539TIP3    H235177   5.801   1.015   7.746  1.9886  1.6655  0.6617
 4540TIP3   OH235178   3.520   0.263   7.444 -0.1264  0.0117 -0.4878
 4540TIP3    H135179   3.561   0.348   7.457  1.1512 -0.9582  2.7431
 4540TIP3    H235180   3.560   0.229   7.364  0.5296  1.7378 -0.9364
 4541TIP3   OH235181   1.215   6.399   1.810 -0.0441  0.1393  0.3225
 4541TIP3    H135182   1.138   6.407   1.755  0.3392 -0.1704 -0.2700
 4541TIP3    H235183   1.255   6.486   1.809  0.0116  0.1100  0.0408
 4542TIP3   OH235184   5.778   6.604   0.373  0.2869  0.1060  0.2093
 4542TIP3    H135185   5.786   6.669   0.443 -0.6629  1.5647 -0.9878
 4542TIP3    H235186   5.867   6.570   0.362  0.4677 -0.1599  2.0857
 4543TIP3   OH235187   3.520   1.915   6.835  0.2349 -0.2779  0.8310
 4543TIP3    H135188   3.495   1.838   6.886 -1.2303  0.1883  0.8699
 4543TIP3    H235189   3.615   1.909   6.826  0.7013 -0.0602  4.1964
 4544TIP3   OH235190   6.204   3.714   0.046 -0.0552  0.5157  0.3311
 4544TIP3    H135191   6.164   3.731   0.131 -2.3045  1.3895 -0.8342
 4544TIP3    H235192   6.191   3.794  -0.003 -1.4484 -0.9119 -1.8045
 4545TIP3   OH235193   3.320   5.601   0.634  0.8492  0.2880 -0.1887
 4545TIP3    H135194   3.321   5.513   0.596 -0.9107 -0.3878  1.1461
 4545TIP3    H235195   3.400   5.643   0.602  1.6675 -1.7544 -0.9721
 4546TIP3   OH235196   5.714   5.452   8.460  0.0664 -0.0913 -0.0536
 4546TIP3    H135197   5.771   5.525   8.438  0.4664 -0.4874 -0.3703
 4546TIP3    H235198   5.671   5.477   8.541  0.6330  0.2466  0.1440
 4547TIP3   OH235199   3.328   2.962   8.217  0.2208 -0.4909  0.0081
 4547TIP3    H135200   3.386   3.038   8.225  0.4877 -0.7432  0.5771
 4547TIP3    H235201   3.384   2.888   8.238  0.2203 -0.9567 -1.5302
 4548TIP3   OH235202   6.163   6.400   1.526 -0.2984 -0.7807 -0.1262
 4548TIP3    H135203   6.077   6.357   1.522 -1.0793  0.3797  2.0486
 4548TIP3    H235204   6.150   6.483   1.480 -0.9375  0.1580  1.6236
 4549TIP3   OH235205   0.670   1.609   1.458  0.0049 -0.1891 -0.1814
 4549TIP3    H135206   0.612   1.564   1.396 -0.5443 -0.0061  0.1998
 4549TIP3    H235207   0.723   1.539   1.495 -1.1856 -0.6146  0.7803
 4550TIP3   OH235208   4.608   0.352   8.122 -0.0586  0.2632 -0.1252
 4550TIP3    H135209   4.595   0.323   8.212 -0.2409  0.6532 -0.0234
 4550TIP3    H235210   4.661   0.432   8.130 -2.4074  1.9459 -0.1455
 4551TIP3   OH235211   4.798   1.582   6.127 -0.0871  0.1890  0.1805
 4551TIP3    H135212   4.726   1.639   6.151  0.1219  1.3657 -1.7771
 4551TIP3    H235213   4.876   1.627   6.161  0.0341  0.8586 -0.9465
 4552TIP3   OH235214   4.583   0.459   1.124 -0.5330  0.2198  0.0396
 4552TIP3    H135215   4.583   0.546   1.084  0.2210 -0.1686 -0.8497
 4552TIP3    H235216   4.576   0.476   1.218 -1.5197  1.1878 -0.1941
 4553TIP3   OH235217   4.774   6.127   8.525 -0.7391 -0.1080  0.3470
 4553TIP3    H135218   4.862   6.105   8.494 -1.3393 -1.3484 -0.5291
 4553TIP3    H235219   4.772   6.094   8.615 -0.8882 -1.7186 -0.2232
 4554TIP3   OH235220   2.206   3.162   6.439 -0.6021  0.0256 -0.3486
 4554TIP3    H135221   2.271   3.216   6.392  0.0446  0.9703  1.5146
 4554TIP3    H235222   2.166   3.223   6.501 -3.1736 -0.5981 -1.2626
 4555TIP3   OH235223   3.849   1.347   7.546  0.3876  0.1979 -0.1326
 4555TIP3    H135224   3.925   1.302   7.509  0.3536  1.0287 -1.2793
 4555TIP3    H235225   3.848   1.432   7.502 -0.7469  0.5041  0.4519
 4556TIP3   OH235226   5.647   5.858   1.208  0.0539  0.1667  0.0803
 4556TIP3    H135227   5.718   5.859   1.144 -0.9841 -3.4446 -1.4151
 4556TIP3    H235228   5.669   5.786   1.267 -2.0153 -0.6945 -0.1069
 4557TIP3   OH235229   4.958   0.474   0.242  0.1907 -0.3794 -0.1533
 4557TIP3    H135230   4.872   0.503   0.211  0.2364 -1.2163 -1.1063
 4557TIP3    H235231   5.018   0.497   0.171  0.6016 -0.6826  0.0914
 4558TIP3   OH235232   6.852   5.748   1.619 -0.0159  0.1564 -0.0946
 4558TIP3    H135233   6.921   5.808   1.647  0.1546 -0.0754 -0.0146
 4558TIP3    H235234   6.893   5.661   1.622  0.1881  0.1759 -1.6277
 4559TIP3   OH235235   1.173   0.161   6.816  0.3544 -0.3824  0.3944
 4559TIP3    H135236   1.268   0.151   6.818  0.3404 -1.1736  3.6711
 4559TIP3    H235237   1.151   0.194   6.903 -2.3045  0.9952 -0.6846
 4560TIP3   OH235238   4.358   5.662   1.874  0.2906  0.1113 -0.1969
 4560TIP3    H135239   4.321   5.576   1.893 -0.6555  0.4585 -0.4478
 4560TIP3    H235240   4.294   5.725   1.907  1.2253  0.7396  0.4808
 4561TIP3   OH235241   1.097   1.843   2.196 -0.1587 -0.2970 -0.2613
 4561TIP3    H135242   1.059   1.911   2.252  0.0263 -0.0139 -0.4766
 4561TIP3    H235243   1.191   1.848   2.212 -0.2816 -1.6268  0.9710
 4562TIP3   OH235244   5.300   5.252   0.426 -0.7499 -0.0552  0.4468
 4562TIP3    H135245   5.350   5.195   0.484 -2.1842 -0.4876  1.3174
 4562TIP3    H235246   5.276   5.327   0.481 -0.9940  0.1705  0.0364
 4563TIP3   OH235247   0.392   4.142   0.760  0.1157  0.2296  0.5881
 4563TIP3    H135248   0.478   4.181   0.747  0.0434  0.4622  0.7852
 4563TIP3    H235249   0.351   4.197   0.827 -0.3098  0.3259  0.2537
 4564TIP3   OH235250   0.518   0.646   8.034  0.5209  0.0789 -0.3307
 4564TIP3    H135251   0.494   0.681   8.119  0.1069 -0.5227 -0.1893
 4564TIP3    H235252   0.471   0.701   7.971 -0.5046 -0.4995 -0.0913
 4565TIP3   OH235253   5.094   2.344   0.058 -0.1948  0.4182 -0.3752
 4565TIP3    H135254   5.055   2.384   0.135 -0.8847 -0.9861  0.0479
 4565TIP3    H235255   5.086   2.250   0.074 -0.6337  0.0956 -2.3091
 4566TIP3   OH235256   3.618   6.611   1.596  0.4664  0.4873  0.0361
 4566TIP3    H135257   3.643   6.570   1.513  0.5311 -0.5184  0.5312
 4566TIP3    H235258   3.589   6.538   1.651 -2.2243  1.4486 -0.0085
 4567TIP3   OH235259   5.892   3.339   0.070 -0.0102 -0.7534 -0.5401
 4567TIP3    H135260   5.799   3.322   0.059 -0.0630 -0.2511 -0.9301
 4567TIP3    H235261   5.918   3.286   0.146 -0.7378 -0.4434 -0.0647
 4568TIP3   OH235262   6.537   5.613   8.488 -0.0319 -0.3904 -0.3241
 4568TIP3    H135263   6.458   5.597   8.540  0.0272 -0.4623 -0.2569
 4568TIP3    H235264   6.598   5.655   8.548  0.0216 -0.4369 -0.3457
 4569TIP3   OH235265   2.045   5.686   7.317 -0.2393 -0.3548 -0.3106
 4569TIP3    H135266   1.975   5.622   7.325 -0.0433 -0.5541 -0.2047
 4569TIP3    H235267   2.110   5.660   7.382  0.2311 -0.5474 -0.8532
 4570TIP3   OH235268   5.186   6.606   1.733 -0.0624  0.0291 -0.2197
 4570TIP3    H135269   5.245   6.554   1.787 -0.6216 -0.3069  0.0660
 4570TIP3    H235270   5.218   6.695   1.742 -1.0582  0.2342  1.9141
 4571TIP3   OH235271   3.909   5.457   0.399 -0.2495 -0.7745 -0.3490
 4571TIP3    H135272   3.961   5.386   0.434 -1.4713 -1.6739 -0.3145
 4571TIP3    H235273   3.887   5.430   0.310 -1.4739 -0.8838 -0.0394
 4572TIP3   OH235274   0.086   1.893   0.950  0.2479  0.0853 -0.4398
 4572TIP3    H135275   0.110   1.800   0.949  1.5102  0.4028 -1.6604
 4572TIP3    H235276   0.154   1.936   0.899  0.2831  1.8513  1.0037
 4573TIP3   OH235277   1.543   0.259   1.830 -0.4596  0.4507  0.2862
 4573TIP3    H135278   1.489   0.208   1.890  0.0026 -0.7055 -0.2408
 4573TIP3    H235279   1.560   0.341   1.876  0.2487 -0.5732  1.9374
 4574TIP3   OH235280   1.129   6.067   7.351 -0.2265  0.4727  0.1626
 4574TIP3    H135281   1.061   6.110   7.299  0.5741 -0.6830 -1.9729
 4574TIP3    H235282   1.191   6.136   7.371  0.2450  0.6752 -1.8433
 4575TIP3   OH235283   3.505   3.214   1.544  0.2507  0.1396 -0.6870
 4575TIP3    H135284   3.592   3.186   1.571  1.1009  1.3336 -2.0699
 4575TIP3    H235285   3.474   3.269   1.616 -0.4464 -2.2485  0.9492
 4576TIP3   OH235286   1.266   5.981   1.151 -0.0476 -0.8029 -0.2885
 4576TIP3    H135287   1.229   5.974   1.063 -1.5188 -0.0681  0.2330
 4576TIP3    H235288   1.338   6.043   1.142  1.1257 -2.2544 -1.3318
 4577TIP3   OH235289   4.824   4.756   0.226  0.1568 -0.4341  0.1766
 4577TIP3    H135290   4.798   4.743   0.135  0.4999 -1.6252  0.2209
 4577TIP3    H235291   4.786   4.840   0.251 -1.9104 -1.1673 -0.3533
 4578TIP3   OH235292   4.071   3.963   2.156  0.6634  0.6620  0.0514
 4578TIP3    H135293   4.069   4.020   2.233  0.9777 -0.2598  0.7681
 4578TIP3    H235294   4.098   3.878   2.190 -0.8995 -0.2239 -0.7899
 4579TIP3   OH235295   1.923   5.244   1.984  0.0782  0.0396 -0.0312
 4579TIP3    H135296   1.868   5.203   2.051 -0.2242  2.3144  1.2022
 4579TIP3    H235297   1.918   5.184   1.909 -2.9590 -0.5192  0.4999
 4580TIP3   OH235298   0.719   6.157   8.422  0.5623  0.0990 -0.1723
 4580TIP3    H135299   0.692   6.122   8.507  0.4920  1.3808  0.3664
 4580TIP3    H235300   0.647   6.135   8.363  0.9061 -1.3719 -0.0746
 4581TIP3   OH235301   1.100   0.259   6.575  0.1387  0.1758 -0.1318
 4581TIP3    H135302   1.175   0.288   6.523  1.2691 -2.0207  0.1595
 4581TIP3    H235303   1.137   0.232   6.659 -1.3144  1.1871  0.9026
 4582TIP3   OH235304   0.522   3.544   0.414  0.0486  0.0920  0.2383
 4582TIP3    H135305   0.447   3.572   0.467 -0.4688  0.8978 -0.8803
 4582TIP3    H235306   0.596   3.594   0.449 -0.2780  0.5724  0.2446
 4583TIP3   OH235307   1.272   1.249   1.649  0.1609  0.1054  0.1201
 4583TIP3    H135308   1.242   1.251   1.558  1.3753 -1.0244 -0.3463
 4583TIP3    H235309   1.328   1.326   1.657  0.1307  0.1535 -0.1298
 4584TIP3   OH235310   0.549   5.725   1.884 -0.1570 -0.2457  1.1995
 4584TIP3    H135311   0.497   5.721   1.964  1.3332 -0.1954  2.2308
 4584TIP3    H235312   0.592   5.811   1.888  0.8356 -0.7114  0.9679
 4585TIP3   OH235313   0.066   1.484   7.677  0.2108 -0.4998  0.6170
 4585TIP3    H135314   0.135   1.466   7.741  1.8578  0.8263 -0.6862
 4585TIP3    H235315   0.091   1.567   7.637 -1.6435 -0.4650 -0.6031
 4586TIP3   OH235316   6.285   3.090   1.199  0.4590  0.2422  0.1974
 4586TIP3    H135317   6.364   3.045   1.171 -0.3881 -1.7111  0.7536
 4586TIP3    H235318   6.257   3.042   1.277 -4.2176 -2.8504 -2.8740
 4587TIP3   OH235319   5.333   5.495   1.260  0.2905 -0.0662  0.0700
 4587TIP3    H135320   5.296   5.487   1.172  0.4968 -0.4190  0.0119
 4587TIP3    H235321   5.285   5.568   1.300  0.4348  0.3157 -0.4484
 4588TIP3   OH235322   2.307   0.456   0.250 -0.3218  0.1323  0.5707
 4588TIP3    H135323   2.237   0.483   0.309  0.4221  1.4137  0.9105
 4588TIP3    H235324   2.384   0.505   0.280  0.2741  0.1879 -0.9463
 4589TIP3   OH235325   0.106   2.414   0.092 -0.6799 -0.2760  0.2387
 4589TIP3    H135326   0.084   2.501   0.058 -0.9178  0.4314  2.0866
 4589TIP3    H235327   0.022   2.376   0.118 -0.4095 -0.3094  1.1018
 4590TIP3   OH235328   2.341   0.685   7.861  0.0065  0.2053 -0.2553
 4590TIP3    H135329   2.337   0.609   7.918 -0.3663 -0.5830 -1.2903
 4590TIP3    H235330   2.384   0.753   7.913 -0.2160 -0.5184  0.8973
 4591TIP3   OH235331   4.690   0.006   0.330 -0.0897 -0.3208 -0.2909
 4591TIP3    H135332   4.751   0.066   0.371 -2.8371  1.4080  1.6296
 4591TIP3    H235333   4.685   0.035   0.239 -0.1929  1.4217  0.2395
 4592TIP3   OH235334   5.436   0.391   8.185 -0.1185  0.0270  0.2881
 4592TIP3    H135335   5.397   0.317   8.231 -1.3732  0.3799 -0.1658
 4592TIP3    H235336   5.439   0.364   8.094 -1.2051  0.7531  0.0116
 4593TIP3   OH235337   2.714   3.263   8.382  0.1669 -0.2826  0.3267
 4593TIP3    H135338   2.697   3.274   8.476  3.3383  1.2722  0.8280
 4593TIP3    H235339   2.708   3.351   8.346  0.3525 -0.6747 -0.6991
 4594TIP3   OH235340   3.620   2.759   6.816 -0.9365  0.6776 -0.6692
 4594TIP3    H135341   3.585   2.671   6.800 -0.8349  0.5942 -0.4373
 4594TIP3    H235342   3.715   2.748   6.815 -0.9274  0.6887 -0.1247
 4595TIP3   OH235343   6.729   0.547   1.985 -0.1948 -0.1028 -0.1332
 4595TIP3    H135344   6.674   0.474   1.956 -0.7677  0.8896 -1.6929
 4595TIP3    H235345   6.706   0.558   2.078  0.3292 -2.2253  0.3114
 4596TIP3   OH235346   4.536   6.579   1.383 -0.3767  0.7760  0.0607
 4596TIP3    H135347   4.503   6.656   1.338 -1.5477  0.5300  0.4670
 4596TIP3    H235348   4.619   6.559   1.339 -1.2097  0.8548 -1.6337
 4597TIP3   OH235349   5.037   3.101   7.945 -0.8363 -0.5278  0.2118
 4597TIP3    H135350   4.986   3.120   8.024  0.3533  0.5802  0.7634
 4597TIP3    H235351   5.040   3.184   7.898 -1.0596 -1.0393 -0.7273
 4598TIP3   OH235352   0.124   3.618   1.595  0.2779 -0.4074  0.2721
 4598TIP3    H135353   0.087   3.676   1.529  1.4848  0.2124  0.1066
 4598TIP3    H235354   0.049   3.572   1.632 -0.7598  1.4690  0.6205
 4599TIP3   OH235355   6.470   6.323   8.353  0.3259 -0.2202 -0.2369
 4599TIP3    H135356   6.557   6.286   8.366  0.5777  0.8444  1.4432
 4599TIP3    H235357   6.486   6.409   8.314  0.0488  0.0050  0.1354
 4600TIP3   OH235358   5.762   6.856   1.890 -0.2231  0.5787  0.2608
 4600TIP3    H135359   5.743   6.766   1.863 -0.5535  0.3143  1.3266
 4600TIP3    H235360   5.835   6.847   1.951 -1.1498  0.8849  1.4356
 4601TIP3   OH235361   3.572   0.226   1.131 -0.2739 -0.3218 -0.2858
 4601TIP3    H135362   3.579   0.189   1.043 -0.5719 -0.2010 -0.3623
 4601TIP3    H235363   3.580   0.151   1.189 -1.5778 -0.6245 -0.4568
 4602TIP3   OH235364   2.385   1.764   7.990  1.2734 -0.3270 -0.1046
 4602TIP3    H135365   2.334   1.810   7.923 -1.0039 -1.2099  0.9172
 4602TIP3    H235366   2.419   1.833   8.046  1.5081  0.3125 -1.0152
 4603TIP3   OH235367   1.729   2.216   1.575  0.2477 -0.2878 -0.5727
 4603TIP3    H135368   1.748   2.127   1.547 -0.6629 -0.5376 -0.4275
 4603TIP3    H235369   1.718   2.265   1.493  0.4000 -0.3820 -0.6507
 4604TIP3   OH235370   6.264   3.413   2.151 -0.0838  0.6140  0.0083
 4604TIP3    H135371   6.340   3.470   2.161  1.0615 -1.0836  1.8973
 4604TIP3    H235372   6.231   3.432   2.064  3.6611  0.1219 -1.7164
 4605TIP3   OH235373   4.519   5.420   1.336  0.1898 -0.0910 -0.0748
 4605TIP3    H135374   4.585   5.361   1.298 -0.7262 -0.5628 -1.0010
 4605TIP3    H235375   4.484   5.467   1.261  2.1343  3.0463  0.8150
 4606TIP3   OH235376   0.693   2.523   8.164 -0.2081 -0.1500  0.3856
 4606TIP3    H135377   0.749   2.446   8.172  0.6680  0.2613 -1.2819
 4606TIP3    H235378   0.604   2.489   8.161  0.2329 -1.3289 -2.1947
 4607TIP3   OH235379   3.220   5.053   0.153 -0.4894  0.0805 -0.0738
 4607TIP3    H135380   3.196   5.040   0.245  1.1364 -0.0188  0.3607
 4607TIP3    H235381   3.200   4.969   0.111 -3.7311  0.8974 -0.4596
 4608TIP3   OH235382   1.341   3.168   7.377  0.4022 -0.4619 -0.1057
 4608TIP3    H135383   1.260   3.117   7.373  0.3146 -0.2669 -1.7113
 4608TIP3    H235384   1.319   3.251   7.335  1.8162 -1.0396 -2.1534
 4609TIP3   OH235385   1.033   4.621   0.750 -0.6090 -1.3546  0.0059
 4609TIP3    H135386   0.938   4.627   0.745 -0.5467  0.6883  0.5467
 4609TIP3    H235387   1.063   4.658   0.667 -0.2729  0.3982  0.8674
 4610TIP3   OH235388   0.033   6.502   2.840  0.6206 -0.0733  0.3870
 4610TIP3    H135389  -0.050   6.467   2.807  1.5578 -2.0252 -0.0909
 4610TIP3    H235390   0.092   6.426   2.840  2.5198  1.3298  0.3112
 4611TIP3   OH235391   1.631   1.940   7.104 -0.3548  0.4129  0.5378
 4611TIP3    H135392   1.666   1.959   7.017  0.1366  1.7985  0.9981
 4611TIP3    H235393   1.692   1.876   7.141 -0.9357 -0.6833 -0.3604
 4612TIP3   OH235394   5.950   5.782   8.131  0.3301 -0.1703 -0.2134
 4612TIP3    H135395   5.999   5.860   8.158 -1.4595  1.0353 -0.2303
 4612TIP3    H235396   5.924   5.801   8.041  2.1012 -2.0115 -1.1989
 4613TIP3   OH235397   3.530   1.291   7.852  0.0970  0.2480 -0.1774
 4613TIP3    H135398   3.591   1.223   7.825  0.8143  1.0368 -0.5739
 4613TIP3    H235399   3.501   1.331   7.770 -1.4629 -0.5112 -0.0503
 4614TIP3   OH235400   0.986   2.009   7.084  0.1705 -0.1350 -0.3073
 4614TIP3    H135401   1.037   1.940   7.126  2.1122  0.3756 -1.6730
 4614TIP3    H235402   0.915   1.963   7.040  1.1769 -1.2469 -0.8286
 4615TIP3   OH235403   0.839   3.150   7.927  0.5702 -0.2643 -0.3958
 4615TIP3    H135404   0.862   3.229   7.976  0.2244  0.3341 -1.1801
 4615TIP3    H235405   0.744   3.158   7.913  0.1359 -1.8341  1.2857
 4616TIP3   OH235406   5.254   4.788   7.810  0.2178 -0.4207 -0.2105
 4616TIP3    H135407   5.310   4.742   7.748  0.6473 -0.7489  0.4144
 4616TIP3    H235408   5.315   4.834   7.868 -0.1804 -0.1443 -0.0067
 4617TIP3   OH235409   5.201   0.154   0.605  0.2918 -0.1822  0.0758
 4617TIP3    H135410   5.248   0.211   0.665 -0.4903 -1.8090  2.3673
 4617TIP3    H235411   5.245   0.167   0.521  1.2969  2.3473  0.8882
 4618TIP3   OH235412   6.349   3.298   0.616  0.0134 -0.0086 -0.1703
 4618TIP3    H135413   6.423   3.356   0.596  1.1746 -1.7206 -1.1448
 4618TIP3    H235414   6.284   3.355   0.656  1.1081  1.9409 -1.0159
 4619TIP3   OH235415   4.808   4.109   8.113  0.4769  0.4221 -0.5665
 4619TIP3    H135416   4.788   4.086   8.204 -0.9484 -0.0345 -0.9617
 4619TIP3    H235417   4.744   4.059   8.062  2.1828 -0.4807 -1.9264
 4620TIP3   OH235418   4.110   0.212   2.674 -0.4254  0.2260 -0.4358
 4620TIP3    H135419   4.066   0.154   2.737  0.0276 -2.2193 -2.2360
 4620TIP3    H235420   4.042   0.233   2.610  0.0638 -0.5137 -1.2134
 4621TIP3   OH235421   5.618   0.668   7.169  0.1486  0.2599 -0.2080
 4621TIP3    H135422   5.586   0.627   7.089  0.5379  1.6843 -1.1144
 4621TIP3    H235423   5.549   0.729   7.195  1.1139  1.7374 -0.9592
 4622TIP3   OH235424   4.315   4.631   0.337 -0.0665 -0.2530  0.2273
 4622TIP3    H135425   4.333   4.537   0.330  0.2234 -0.2879  1.2975
 4622TIP3    H235426   4.384   4.673   0.286  1.2828 -0.5307  1.7458
 4623TIP3   OH235427   4.401   1.336   0.954 -0.2656  0.3832 -0.0152
 4623TIP3    H135428   4.386   1.353   1.046 -1.0336 -1.0234  0.1552
 4623TIP3    H235429   4.401   1.240   0.947 -0.3577  0.4605 -1.4894
 4624TIP3   OH235430   0.992   3.245   1.041  0.0393 -0.1589 -0.2656
 4624TIP3    H135431   0.954   3.206   1.119  1.7607 -1.0963  0.1492
 4624TIP3    H235432   1.054   3.310   1.074 -0.1957  0.4044 -0.8969
 4625TIP3   OH235433   0.769   4.057   2.469 -0.4321 -0.8379  0.1853
 4625TIP3    H135434   0.723   4.135   2.500  1.5280  1.2770 -1.8153
 4625TIP3    H235435   0.720   3.983   2.507 -1.9152  1.3228  2.8206
 4626TIP3   OH235436   3.912   5.615   7.639 -0.6723  0.7698  0.8760
 4626TIP3    H135437   3.884   5.707   7.637 -1.8428  0.4138 -0.7712
 4626TIP3    H235438   3.831   5.565   7.645 -0.3465 -0.2234 -1.6336
 4627TIP3   OH235439   1.187   1.122   0.131  0.0774  0.0963 -0.2425
 4627TIP3    H135440   1.196   1.129   0.036 -0.6137  1.7699 -0.2188
 4627TIP3    H235441   1.102   1.079   0.144  0.6827 -1.2009 -0.3498
 4628TIP3   OH235442   6.199   4.275   8.124  0.7049  0.4346 -0.2754
 4628TIP3    H135443   6.172   4.328   8.049 -2.4228  0.5244  0.7760
 4628TIP3    H235444   6.217   4.340   8.193  1.3573  0.2529 -0.2630
 4629TIP3   OH235445   3.358   4.399   1.150  0.0409 -0.0122 -0.0273
 4629TIP3    H135446   3.448   4.379   1.175 -0.0387  0.8671  1.0767
 4629TIP3    H235447   3.330   4.325   1.097  2.1717  0.7316 -2.3924
 4630TIP3   OH235448   5.161   0.098   1.097  0.2717  0.1405  0.1766
 4630TIP3    H135449   5.255   0.111   1.111  0.1591  0.2617  0.8597
 4630TIP3    H235450   5.120   0.170   1.146 -0.2038 -0.3410  0.4976
 4631TIP3   OH235451   3.589   1.219   7.552 -0.4753 -0.7492 -0.4386
 4631TIP3    H135452   3.678   1.211   7.586 -0.0820  3.6887  0.2248
 4631TIP3    H235453   3.596   1.279   7.478 -3.1046  3.4733  2.2556
 4632TIP3   OH235454   4.020   4.600   1.529 -0.6557  0.3774 -0.0131
 4632TIP3    H135455   3.947   4.654   1.560 -0.7520  1.0916 -1.3819
 4632TIP3    H235456   4.076   4.662   1.483 -0.2131 -0.5185 -0.6985
 4633TIP3   OH235457   1.274   6.343   0.322 -0.7846 -0.4520  0.5621
 4633TIP3    H135458   1.181   6.343   0.345 -0.7442 -0.3049  0.7231
 4633TIP3    H235459   1.275   6.337   0.226 -0.9701  0.2678  0.5150
 4634TIP3   OH235460   3.111   4.824   1.360 -0.4391  0.3845  0.0041
 4634TIP3    H135461   3.104   4.739   1.316 -1.4327  0.4556 -0.0011
 4634TIP3    H235462   3.157   4.880   1.298 -0.5986  0.1043 -0.3677
 4635TIP3   OH235463   6.257   6.597   0.188  0.5136 -0.0990  0.4903
 4635TIP3    H135464   6.327   6.536   0.167  0.4482  0.1518 -0.5381
 4635TIP3    H235465   6.202   6.598   0.109 -0.3708  0.0762  1.0974
 4636TIP3   OH235466   0.075   5.401   1.288  0.6514 -0.0777 -0.2426
 4636TIP3    H135467   0.114   5.415   1.374  1.0667 -1.8082 -0.1190
 4636TIP3    H235468   0.050   5.309   1.288 -1.3591  0.4009 -1.1726
 4637TIP3   OH235469   4.998   4.325   1.771 -0.0392 -0.6378  0.4295
 4637TIP3    H135470   5.051   4.397   1.738 -0.6248 -0.4775 -0.1760
 4637TIP3    H235471   5.034   4.247   1.729 -0.3840 -0.5109 -0.1006
 4638TIP3   OH235472   3.391   3.254   7.328 -0.0110 -0.5766 -0.3541
 4638TIP3    H135473   3.388   3.273   7.234 -1.4422  0.9651 -0.0510
 4638TIP3    H235474   3.482   3.228   7.344  0.8934  1.3639 -1.8063
 4639TIP3   OH235475   1.106   5.756   0.290  0.1070 -0.5086  0.2807
 4639TIP3    H135476   1.124   5.699   0.215 -0.4122 -0.8715  0.4184
 4639TIP3    H235477   1.156   5.717   0.362  0.4955 -0.2411  0.1541
 4640TIP3   OH235478   6.296   2.699   0.060  0.0603  0.0006  0.1085
 4640TIP3    H135479   6.280   2.765  -0.008 -0.3114 -0.3738 -0.1673
 4640TIP3    H235480   6.267   2.741   0.141  0.2875  0.3606  0.0084
 4641TIP3   OH235481   0.926   1.946   8.593  0.4545 -0.0423 -0.0631
 4641TIP3    H135482   1.016   1.976   8.579 -0.6555  3.2961 -1.0031
 4641TIP3    H235483   0.893   2.000   8.665 -1.1402 -0.3128 -0.5428
 4642TIP3   OH235484   3.842   6.597   7.988  0.0655 -0.2372 -0.1887
 4642TIP3    H135485   3.865   6.597   7.895  0.7245 -0.6401 -0.0291
 4642TIP3    H235486   3.897   6.530   8.026  0.4429  0.5329  0.6532
 4643TIP3   OH235487   5.170   4.015   1.981  0.1613  0.2855  0.5558
 4643TIP3    H135488   5.218   4.079   1.929  1.4415  0.5273  1.9961
 4643TIP3    H235489   5.207   4.022   2.069 -2.1310  0.0934  1.6162
 4644TIP3   OH235490   5.561   2.381   6.910  0.0389 -0.0030 -0.2884
 4644TIP3    H135491   5.571   2.288   6.933  1.7666  0.2927  0.3095
 4644TIP3    H235492   5.643   2.404   6.867 -0.1054  1.4211  0.1448
 4645TIP3   OH235493   3.039   3.372   8.322 -0.0331 -0.1584 -0.1169
 4645TIP3    H135494   3.078   3.429   8.256  0.7888  0.0797  0.5492
 4645TIP3    H235495   2.962   3.420   8.354 -2.5356 -1.7058 -3.2230
 4646TIP3   OH235496   0.879   5.520   2.407  0.0329  0.4195  0.0449
 4646TIP3    H135497   0.898   5.429   2.431  0.1132  0.2797 -0.5337
 4646TIP3    H235498   0.784   5.529   2.418 -0.0909  0.0321 -0.6558
 4647TIP3   OH235499   6.556   2.058   6.630 -0.1543 -0.3116 -0.0626
 4647TIP3    H135500   6.589   2.009   6.555  0.1364 -3.4482  1.9088
 4647TIP3    H235501   6.609   2.138   6.631  2.5960 -1.9517 -1.0190
 4648TIP3   OH235502   5.337   0.157   0.353 -0.4778  0.0847 -0.1666
 4648TIP3    H135503   5.367   0.247   0.346  0.0163 -0.1295 -1.0300
 4648TIP3    H235504   5.267   0.149   0.288 -0.3616 -0.2131 -0.2580
 4649TIP3   OH235505   4.875   5.182   1.605  0.1472  0.1555 -0.0865
 4649TIP3    H135506   4.817   5.128   1.551 -0.2828 -0.0321  0.5419
 4649TIP3    H235507   4.962   5.146   1.590 -0.1699 -0.9226  0.5411
 4650TIP3   OH235508   6.370   1.016   8.448 -0.4935 -0.5282  0.3788
 4650TIP3    H135509   6.320   1.091   8.414 -1.6805 -1.3476  0.2578
 4650TIP3    H235510   6.365   1.025   8.543 -0.0937 -0.1166  0.3654
 4651TIP3   OH235511   3.897   2.259   7.890 -0.3363 -0.2340 -0.0086
 4651TIP3    H135512   3.906   2.319   7.964  1.0148 -0.8269  0.3409
 4651TIP3    H235513   3.855   2.311   7.821  1.0955  1.2193  0.1682
 4652TIP3   OH235514   3.171   0.550   1.291  0.1558  0.6867 -0.1598
 4652TIP3    H135515   3.165   0.592   1.205  2.8489  0.9857 -0.2956
 4652TIP3    H235516   3.158   0.457   1.274 -1.6365  0.9672 -0.4945
 4653TIP3   OH235517   1.011   4.106   7.317 -0.2297 -0.1012  0.0303
 4653TIP3    H135518   0.965   4.058   7.248  0.1744 -0.2785 -0.1236
 4653TIP3    H235519   1.074   4.043   7.352  0.6334  0.4515 -0.4973
 4654TIP3   OH235520   4.034   3.023   1.569 -0.5119  0.0881  0.3209
 4654TIP3    H135521   3.993   3.076   1.637 -2.9042 -0.3888 -0.6105
 4654TIP3    H235522   4.028   2.933   1.601 -2.0075 -0.1838 -0.5764
 4655TIP3   OH235523   3.464   4.900   1.822 -0.2985 -0.2732 -0.2992
 4655TIP3    H135524   3.427   4.818   1.791 -0.9679 -0.1106  0.0403
 4655TIP3    H235525   3.546   4.910   1.774 -0.4767 -0.8695 -0.7327
 4656TIP3   OH235526   4.477   0.523   1.398  0.0590  0.2057 -0.0593
 4656TIP3    H135527   4.401   0.478   1.434  0.8119 -0.2675  0.9855
 4656TIP3    H235528   4.486   0.602   1.451  0.6078 -0.0138  0.1852
 4657TIP3   OH235529   5.297   5.233   8.404 -0.0130 -0.8129 -0.3625
 4657TIP3    H135530   5.368   5.192   8.455 -0.4537 -0.5288  0.5071
 4657TIP3    H235531   5.279   5.171   8.334  0.1726 -1.5339  0.2105
 4658TIP3   OH235532   4.151   5.099   8.283  0.0886 -0.1246 -0.0687
 4658TIP3    H135533   4.056   5.103   8.288  0.0948 -0.4291  0.3178
 4658TIP3    H235534   4.175   5.022   8.333  0.4612 -0.7875 -1.2244
 4659TIP3   OH235535   0.214   4.804   1.020  0.3767  0.2380 -0.2009
 4659TIP3    H135536   0.164   4.799   1.102 -0.2804 -0.9006 -0.6604
 4659TIP3    H235537   0.302   4.831   1.048  0.0994  0.1028  0.8572
 4660TIP3   OH235538   1.318   3.433   7.312 -0.4507  0.2896  0.8140
 4660TIP3    H135539   1.244   3.469   7.264 -2.0416 -0.4503  2.5859
 4660TIP3    H235540   1.350   3.507   7.365  0.5997  0.8075 -0.4921
 4661TIP3   OH235541   3.808   0.320   0.359 -0.0490  0.3507  0.0850
 4661TIP3    H135542   3.746   0.344   0.290 -0.2922 -1.1820 -0.2654
 4661TIP3    H235543   3.760   0.259   0.414  0.9897 -0.5134  0.0661
 4662TIP3   OH235544   0.107   3.278   1.649  0.3136 -0.1536  0.2561
 4662TIP3    H135545   0.076   3.357   1.692  0.0791 -1.0125  1.7481
 4662TIP3    H235546   0.114   3.301   1.557  1.0702  1.8368  0.7755
 4663TIP3   OH235547   4.749   6.830   8.132 -0.3686  0.3002  0.2064
 4663TIP3    H135548   4.698   6.857   8.056  1.2665  1.0124 -0.6758
 4663TIP3    H235549   4.813   6.768   8.098 -0.1473 -0.0159  1.1617
 4664TIP3   OH235550   3.018   6.745   7.690 -0.3987  0.4220  0.9679
 4664TIP3    H135551   3.017   6.685   7.615  0.9453  0.7210  0.6887
 4664TIP3    H235552   3.028   6.832   7.651  0.3997  0.5702  1.4827
 4665TIP3   OH235553   1.438   1.259   8.259  0.5854 -0.3630  0.4223
 4665TIP3    H135554   1.515   1.312   8.279  0.4256  0.0921 -0.1433
 4665TIP3    H235555   1.411   1.288   8.172 -1.1738  0.6091  1.2429
 4666TIP3   OH235556   1.769   5.015   0.616 -0.2234  0.9390 -0.3233
 4666TIP3    H135557   1.783   4.920   0.621  0.2241  0.9354 -1.4120
 4666TIP3    H235558   1.676   5.027   0.636 -0.1717  0.3224  0.3158
 4667TIP3   OH235559   4.104   5.654   8.141 -0.0451  0.1110 -0.4991
 4667TIP3    H135560   4.198   5.649   8.123  0.2044 -0.1403  0.8047
 4667TIP3    H235561   4.063   5.629   8.058  1.0247  0.6479 -1.2119
 4668TIP3   OH235562   5.736   3.332   2.413  0.4872 -0.2962  0.2817
 4668TIP3    H135563   5.665   3.344   2.350  1.5003 -0.7138 -0.9679
 4668TIP3    H235564   5.736   3.412   2.465 -0.1952  0.1695 -0.4192
 4669TIP3   OH235565   0.964   2.320   0.331 -0.5833  0.1545  0.0095
 4669TIP3    H135566   1.010   2.367   0.261 -0.6322  3.3482  1.9292
 4669TIP3    H235567   0.875   2.310   0.299 -1.1134  3.2845  0.2045
 4670TIP3   OH235568   6.435   1.157   2.055  0.4729  0.2772 -0.0809
 4670TIP3    H135569   6.421   1.248   2.081  0.9832  0.2288  0.3716
 4670TIP3    H235570   6.411   1.106   2.132 -0.3800 -0.0140 -0.5277
 4671TIP3   OH235571   1.819   0.803   7.275 -0.0785 -0.3584 -0.4016
 4671TIP3    H135572   1.856   0.758   7.351 -0.6916  2.7712  1.9646
 4671TIP3    H235573   1.873   0.882   7.265 -0.8679 -0.0132 -2.3898
 4672TIP3   OH235574   1.712   0.222   1.501 -0.8723 -0.4281 -0.0868
 4672TIP3    H135575   1.784   0.243   1.561 -1.1959  0.3480  0.0520
 4672TIP3    H235576   1.750   0.162   1.438 -0.1700 -0.2328  0.1396
 4673TIP3   OH235577   6.181   6.758   1.004  1.1731 -0.0472 -0.0683
 4673TIP3    H135578   6.112   6.756   1.070  1.4310  0.4846  0.2261
 4673TIP3    H235579   6.163   6.836   0.952  0.9104 -0.5195 -0.7060
 4674TIP3   OH235580   1.930   1.837   1.070 -0.1527 -0.1937  0.0539
 4674TIP3    H135581   1.929   1.920   1.022 -0.3497 -0.3899 -0.2857
 4674TIP3    H235582   2.022   1.810   1.069 -0.2942 -0.6773 -1.0663
 4675TIP3   OH235583   2.048   4.450   1.476  0.2580 -0.3085 -0.2090
 4675TIP3    H135584   2.138   4.434   1.447  0.1318 -1.1535 -0.1855
 4675TIP3    H235585   2.045   4.415   1.565  0.7225  2.5491  1.0339
 4676TIP3   OH235586   3.445   3.058   0.517  0.0443  0.4224  0.5939
 4676TIP3    H135587   3.423   2.993   0.584 -2.6105 -0.1967 -0.7436
 4676TIP3    H235588   3.508   3.014   0.460  0.7281  0.2266  1.4725
 4677TIP3   OH235589   2.827   4.105   1.231 -0.4354  0.1120  0.0480
 4677TIP3    H135590   2.787   4.020   1.210 -0.0588 -0.4761  1.6240
 4677TIP3    H235591   2.891   4.085   1.299 -1.8944  1.9453  2.0879
 4678TIP3   OH235592   5.447   2.233   1.775 -0.1105  0.1961 -0.0553
 4678TIP3    H135593   5.365   2.254   1.731  0.4522 -0.0531 -1.2520
 4678TIP3    H235594   5.429   2.249   1.868 -1.4632  0.2660 -0.3128
 4679TIP3   OH235595   1.583   3.191   8.651  0.1871 -0.0003  0.4035
 4679TIP3    H135596   1.547   3.109   8.686  0.2697 -0.6375 -0.9610
 4679TIP3    H235597   1.514   3.224   8.593  1.2632 -0.5841 -1.2601
 4680TIP3   OH235598   4.490   1.173   8.314  0.6481 -0.2467 -0.1152
 4680TIP3    H135599   4.474   1.185   8.220 -2.3737 -0.4698  0.2723
 4680TIP3    H235600   4.487   1.262   8.349 -1.3681 -0.3666  0.1194
 4681TIP3   OH235601   4.455   1.566   1.895 -0.0427  0.2287 -0.0946
 4681TIP3    H135602   4.364   1.553   1.868  0.5654  0.4821 -2.4359
 4681TIP3    H235603   4.454   1.650   1.943 -1.0007  0.3026 -0.2217
 4682TIP3   OH235604   3.765   4.690   7.955  0.3082 -0.3180  0.3424
 4682TIP3    H135605   3.777   4.784   7.943  0.1803 -0.3458 -0.0119
 4682TIP3    H235606   3.712   4.663   7.880  0.5366 -0.7102  0.3185
 4683TIP3   OH235607   3.880   2.312   0.432  0.9462  0.0418 -0.1397
 4683TIP3    H135608   3.833   2.349   0.506 -0.1426 -0.0243 -0.7835
 4683TIP3    H235609   3.866   2.374   0.361  1.9817  0.1043 -0.3070
 4684TIP3   OH235610   0.716   0.462   7.388 -0.1113 -0.1577  0.0656
 4684TIP3    H135611   0.765   0.391   7.429 -2.3903 -0.6250  2.2023
 4684TIP3    H235612   0.628   0.456   7.425 -0.9730  2.5275 -1.2352
 4685TIP3   OH235613   4.036   3.932   7.091 -0.2022  0.7903 -0.3737
 4685TIP3    H135614   3.955   3.978   7.114 -0.3144  0.1271  0.6718
 4685TIP3    H235615   4.105   3.997   7.102 -0.3513  0.7325  1.1362
 4686TIP3   OH235616   1.733   2.931   2.333  0.3820 -0.0573 -0.0168
 4686TIP3    H135617   1.813   2.903   2.378  1.4615  1.5164 -0.8776
 4686TIP3    H235618   1.743   3.025   2.322 -1.2613  0.0570 -0.8421
 4687TIP3   OH235619   5.154   3.787   1.624  0.1103  0.3601 -0.0063
 4687TIP3    H135620   5.181   3.879   1.622  1.6711 -0.0806 -1.5694
 4687TIP3    H235621   5.235   3.738   1.611 -0.8989 -1.1991 -0.6760
 4688TIP3   OH235622   1.477   5.965   6.723 -0.3218  0.4617  0.1896
 4688TIP3    H135623   1.473   5.955   6.818 -0.8086  0.1222  0.1421
 4688TIP3    H235624   1.518   6.050   6.709 -0.0794  0.4330  0.7006
 4689TIP3   OH235625   3.859   4.219   0.864 -0.0345  0.4462 -0.3879
 4689TIP3    H135626   3.869   4.305   0.905  0.9470  0.9276 -1.5833
 4689TIP3    H235627   3.933   4.168   0.896 -0.0687  0.3604 -0.4464
 4690TIP3   OH235628   4.573   3.653   0.995 -0.3810  0.5281 -0.2764
 4690TIP3    H135629   4.512   3.725   1.008 -0.8029 -0.0669  1.3534
 4690TIP3    H235630   4.658   3.695   0.983 -0.4560  1.3267  1.6321
 4691TIP3   OH235631   0.599   6.616   0.443 -0.7255 -0.4059 -0.3917
 4691TIP3    H135632   0.573   6.571   0.524  0.0889  1.8365  1.2227
 4691TIP3    H235633   0.518   6.653   0.409 -1.0121 -1.0238 -0.3979
 4692TIP3   OH235634   4.639   6.626   7.282  1.0887  0.0207 -0.1275
 4692TIP3    H135635   4.666   6.661   7.197 -2.0666  0.4004 -1.0913
 4692TIP3    H235636   4.625   6.703   7.337  0.3781 -0.0521 -0.1958
 4693TIP3   OH235637   2.281   1.167   0.358 -0.8560  0.3035 -0.2702
 4693TIP3    H135638   2.194   1.166   0.318 -1.5289 -2.4528  0.9886
 4693TIP3    H235639   2.329   1.100   0.310 -0.6338 -0.7331  1.3365
 4694TIP3   OH235640   3.769   0.642   1.243  0.2664  0.3168 -0.0496
 4694TIP3    H135641   3.851   0.605   1.211  0.4403 -0.5507  1.3012
 4694TIP3    H235642   3.764   0.612   1.334 -0.9535  1.3718  0.2485
 4695TIP3   OH235643   4.470   4.726   1.675 -0.0164 -0.2017 -0.0369
 4695TIP3    H135644   4.418   4.780   1.735  0.2424 -0.3763  0.3526
 4695TIP3    H235645   4.424   4.642   1.673  1.1837 -0.9510  1.6955
 4696TIP3   OH235646   1.744   1.551   6.562  0.4745 -0.3872 -0.0848
 4696TIP3    H135647   1.679   1.622   6.555  0.8112  0.0422  0.9791
 4696TIP3    H235648   1.737   1.505   6.478 -0.6043  0.1648 -0.3281
 4697TIP3   OH235649   3.952   2.963   7.429 -0.2392 -1.0392  0.4283
 4697TIP3    H135650   4.000   2.903   7.372 -0.2189 -1.3436  0.7588
 4697TIP3    H235651   3.862   2.958   7.397  0.1128  0.3718 -0.9027
 4698TIP3   OH235652   4.890   4.901   7.784  0.1106  0.0768  0.5094
 4698TIP3    H135653   4.960   4.867   7.840  0.8048  2.2241  1.0248
 4698TIP3    H235654   4.925   4.895   7.696 -0.1670 -1.3794  0.4735
 4699TIP3   OH235655   3.591   4.320   2.397  0.6579  0.5386  0.0574
 4699TIP3    H135656   3.644   4.399   2.405 -0.2610  1.1272  0.3935
 4699TIP3    H235657   3.544   4.313   2.480  0.1132  0.1040 -0.2776
 4700TIP3   OH235658   5.659   1.585   8.663  0.0804 -0.5741  0.3043
 4700TIP3    H135659   5.612   1.594   8.746  1.6430  1.6485  1.0687
 4700TIP3    H235660   5.601   1.626   8.599 -1.4556 -2.9290  0.0595
 4701TIP3   OH235661   1.427   5.712   2.508 -0.0165  0.2397 -0.5548
 4701TIP3    H135662   1.519   5.702   2.535  0.1592 -1.2358 -1.6129
 4701TIP3    H235663   1.380   5.729   2.590  1.3341  2.2934 -0.1277
 4702TIP3   OH235664   6.301   3.454   8.162 -0.3916 -0.0873  0.2478
 4702TIP3    H135665   6.241   3.401   8.214 -1.0059 -0.6557 -1.0048
 4702TIP3    H235666   6.270   3.544   8.174 -0.9697 -0.2892  0.2952
 4703TIP3   OH235667   5.878   2.156   6.959 -0.2577 -0.2680  0.3389
 4703TIP3    H135668   5.940   2.090   6.989 -1.4488 -2.9785 -2.4871
 4703TIP3    H235669   5.905   2.175   6.869 -1.5691  1.0275  0.1828
 4704TIP3   OH235670   0.032   3.767   7.064  0.5337 -0.5261 -0.4492
 4704TIP3    H135671   0.024   3.852   7.021  0.2820  0.4700  1.4818
 4704TIP3    H235672  -0.040   3.715   7.027 -1.5591  1.2777  0.8850
 4705TIP3   OH235673   6.634   5.064   8.463  0.2980  0.0703  0.2997
 4705TIP3    H135674   6.564   5.129   8.461 -0.5630 -0.8232  0.6898
 4705TIP3    H235675   6.615   5.009   8.539  0.6700 -0.9963 -0.3450
 4706TIP3   OH235676   5.411   0.277   1.636 -0.7748 -0.1405  0.1795
 4706TIP3    H135677   5.323   0.269   1.673 -1.3000  1.8560 -0.5340
 4706TIP3    H235678   5.399   0.263   1.542 -0.4258  0.6774  0.0112
 4707TIP3   OH235679   5.370   3.845   2.370 -0.3596 -0.0362  0.1819
 4707TIP3    H135680   5.404   3.870   2.284 -0.3058  0.1815  0.2659
 4707TIP3    H235681   5.363   3.927   2.418  1.0892 -0.3076  0.9247
 4708TIP3   OH235682   1.379   0.832   1.402  0.8458  0.2964  0.3214
 4708TIP3    H135683   1.372   0.903   1.467 -1.2767 -0.0515  0.5348
 4708TIP3    H235684   1.333   0.758   1.443  0.4374 -0.2757 -1.1370
 4709TIP3   OH235685   0.961   4.896   1.858  0.2760  0.3112 -0.4058
 4709TIP3    H135686   1.056   4.905   1.855  0.3723 -0.8542 -2.0399
 4709TIP3    H235687   0.937   4.920   1.948  1.9537  1.8046 -0.2995
 4710TIP3   OH235688   1.009   0.648   8.625 -0.0614 -0.4572  0.3467
 4710TIP3    H135689   1.005   0.553   8.629  0.8919 -0.5222  0.0404
 4710TIP3    H235690   1.089   0.671   8.673  0.3472  0.0996 -0.5687
 4711TIP3   OH235691   1.454   0.947   8.191 -0.0553  0.0403 -0.2258
 4711TIP3    H135692   1.429   0.973   8.102  0.5245 -1.4969 -0.8618
 4711TIP3    H235693   1.371   0.943   8.239 -0.3174  1.4801 -0.4972
 4712TIP3   OH235694   1.218   3.703   7.708 -0.7013  0.2204  0.1636
 4712TIP3    H135695   1.232   3.669   7.796 -0.6112 -0.6920 -0.1958
 4712TIP3    H235696   1.241   3.796   7.714 -0.7226  0.1713  1.1027
 4713TIP3   OH235697   5.318   2.842   1.484  0.0379 -0.6594  0.1569
 4713TIP3    H135698   5.234   2.820   1.524  1.8070 -1.6143  3.8961
 4713TIP3    H235699   5.367   2.759   1.485  1.5793  0.2007 -0.3298
 4714TIP3   OH235700   4.507   0.409   0.061  0.3647 -0.0019 -0.1800
 4714TIP3    H135701   4.429   0.363   0.032 -0.1596 -0.0932  1.2946
 4714TIP3    H235702   4.482   0.448   0.145  1.4159  1.2924 -0.4335
 4715TIP3   OH235703   4.259   6.713   7.774 -0.0842  0.3457  0.0977
 4715TIP3    H135704   4.310   6.713   7.855  1.1207  2.5336 -0.5990
 4715TIP3    H235705   4.286   6.633   7.729 -0.6665 -0.8391  1.7194
 4716TIP3   OH235706   2.613   5.133   0.453  0.8873  0.5840 -0.2279
 4716TIP3    H135707   2.565   5.121   0.535  2.0694 -0.3540  0.3597
 4716TIP3    H235708   2.705   5.140   0.479  1.1904  1.3642 -1.3974
 4717TIP3   OH235709   6.828   1.808   7.362 -0.4198  0.0684  0.1268
 4717TIP3    H135710   6.809   1.880   7.303 -0.8330  0.6422  0.9434
 4717TIP3    H235711   6.856   1.850   7.443 -2.6396 -0.5848  1.3150
 4718TIP3   OH235712   3.018   2.317   6.659 -0.9374  0.5235  0.0892
 4718TIP3    H135713   2.994   2.247   6.598 -0.3649  0.3834  0.0135
 4718TIP3    H235714   2.963   2.391   6.633 -0.1011  0.7390 -1.1766
 4719TIP3   OH235715   0.199   0.390   1.222  0.2237  0.3860  0.1202
 4719TIP3    H135716   0.126   0.383   1.284 -0.1206 -0.2437 -0.3466
 4719TIP3    H235717   0.158   0.404   1.137  0.7307  2.6182  0.1777
 4720TIP3   OH235718   5.423   3.633   2.024  0.1156  0.0443 -0.6311
 4720TIP3    H135719   5.343   3.583   2.038  0.1836  0.7273  3.4719
 4720TIP3    H235720   5.494   3.571   2.043  0.5103  0.1233 -1.7324
 4721TIP3   OH235721   4.137   1.643   7.049 -0.1058  0.0324  0.3935
 4721TIP3    H135722   4.069   1.639   7.117 -1.5859 -0.3826 -1.0454
 4721TIP3    H235723   4.157   1.552   7.029  0.4240  0.1532  0.3510
 4722TIP3   OH235724   5.361   6.114   0.227  0.1803  0.4875 -0.1464
 4722TIP3    H135725   5.362   6.209   0.216 -0.2914  0.7826  1.8179
 4722TIP3    H235726   5.301   6.083   0.159 -0.9009  1.7837  0.1525
 4723TIP3   OH235727   5.554   5.214   8.532 -0.3285 -0.1749 -0.6669
 4723TIP3    H135728   5.613   5.288   8.522  0.0009 -0.2308  0.7408
 4723TIP3    H235729   5.555   5.170   8.446  1.0100  0.2968 -0.9033
 4724TIP3   OH235730   0.478   0.166   6.574 -0.0052 -0.4408  0.0085
 4724TIP3    H135731   0.572   0.151   6.564  0.4952  1.6818  0.9962
 4724TIP3    H235732   0.447   0.188   6.487  1.3289  3.0803  0.2692
 4725TIP3   OH235733   4.310   3.385   8.661  0.1851  0.2251  0.2186
 4725TIP3    H135734   4.349   3.300   8.640 -0.6277  0.0480 -0.5964
 4725TIP3    H235735   4.339   3.443   8.591 -0.8222  0.1456 -0.2761
 4726TIP3   OH235736   5.079   3.337   0.011  0.0723  0.3815 -0.1830
 4726TIP3    H135737   5.112   3.249  -0.009 -0.3392 -0.0966  1.0851
 4726TIP3    H235738   5.082   3.384  -0.072  1.3694 -0.4784 -0.6564
 4727TIP3   OH235739   2.890   5.750   1.106 -0.5016 -0.1623 -0.1522
 4727TIP3    H135740   2.963   5.792   1.060 -1.5904 -0.4868 -2.2954
 4727TIP3    H235741   2.929   5.715   1.186  1.3442  1.0614 -0.4520
 4728TIP3   OH235742   3.944   3.304   6.606 -0.6812 -0.3353 -0.0135
 4728TIP3    H135743   4.007   3.376   6.617  0.4331 -1.4976  1.8256
 4728TIP3    H235744   3.862   3.339   6.641  0.0129 -0.1334  1.4882
 4729TIP3   OH235745   1.069   5.262   7.427  0.5901  0.2716  0.3216
 4729TIP3    H135746   1.007   5.190   7.416  0.6689  0.0113  1.4213
 4729TIP3    H235747   1.020   5.340   7.400 -0.2769  0.0778  1.2384
 4730TIP3   OH235748   4.902   5.395   7.539 -0.2842  0.1116 -0.2225
 4730TIP3    H135749   4.944   5.327   7.486 -1.8473 -0.6827 -0.4908
 4730TIP3    H235750   4.810   5.369   7.543 -0.4883  0.9563  1.6464
 4731TIP3   OH235751   5.177   2.520   2.176 -0.0132 -0.5945  0.0780
 4731TIP3    H135752   5.089   2.543   2.203  0.3545 -1.6009  2.3800
 4731TIP3    H235753   5.207   2.458   2.242  1.6767 -1.8900 -1.7827
 4732TIP3   OH235754   3.150   2.200   6.090  0.0236 -0.3002 -0.2717
 4732TIP3    H135755   3.242   2.197   6.116 -0.7753 -2.1604  2.8110
 4732TIP3    H235756   3.112   2.272   6.141 -0.3639  0.2365 -1.2667
 4733TIP3   OH235757   2.342   1.859   6.541  0.4073  0.3060  0.0800
 4733TIP3    H135758   2.316   1.881   6.631 -2.9330 -0.4221 -0.5525
 4733TIP3    H235759   2.316   1.935   6.489 -1.9156 -0.9508 -0.7671
 4734TIP3   OH235760   5.974   4.833   1.290  0.1173 -0.2206  0.9332
 4734TIP3    H135761   5.982   4.865   1.380  2.3760 -1.2822  1.1840
 4734TIP3    H235762   6.038   4.884   1.241 -2.1772  1.4515 -0.4831
 4735TIP3   OH235763   5.112   5.412   8.301  0.1663  0.0228  0.2492
 4735TIP3    H135764   5.051   5.429   8.374 -0.6616  2.0382 -0.8234
 4735TIP3    H235765   5.161   5.335   8.328 -1.6576 -0.6265  1.9575
 4736TIP3   OH235766   3.716   6.146   6.372 -0.1041 -0.4855  0.0811
 4736TIP3    H135767   3.793   6.199   6.351 -0.9403  0.8343  0.2427
 4736TIP3    H235768   3.711   6.081   6.301  1.4448 -0.9352  0.3584
 4737TIP3   OH235769   2.050   3.663   1.240  0.3062  0.6041 -0.6031
 4737TIP3    H135770   2.111   3.655   1.314 -0.1672 -1.8177 -0.3696
 4737TIP3    H235771   2.024   3.572   1.221 -0.6632  1.2775 -2.8549
 4738TIP3   OH235772   0.575   1.262   1.495  0.1534 -0.2506  0.0601
 4738TIP3    H135773   0.656   1.267   1.444 -0.4343 -0.8691 -0.9683
 4738TIP3    H235774   0.599   1.214   1.573  1.2081  1.1875  0.6719
 4739TIP3   OH235775   0.107   1.379   2.098  0.5283  0.0764  0.0802
 4739TIP3    H135776   0.075   1.455   2.147  0.1296  1.5663 -2.3541
 4739TIP3    H235777   0.142   1.321   2.166 -2.5358  0.6719  2.4343
 4740TIP3   OH235778   4.728   4.655   0.887 -0.1180 -0.3860  0.1348
 4740TIP3    H135779   4.816   4.621   0.871  0.1661  1.1157 -1.9211
 4740TIP3    H235780   4.730   4.685   0.978  1.7987  0.3930 -0.1158
 4741TIP3   OH235781   2.355   1.003   6.157  0.4047  0.1244 -0.1844
 4741TIP3    H135782   2.301   0.962   6.225 -0.0920 -0.2815 -0.8037
 4741TIP3    H235783   2.411   0.932   6.125  0.7919  0.3673 -0.0484
 4742TIP3   OH235784   2.890   6.267   0.363  0.1363  0.1483 -0.3157
 4742TIP3    H135785   2.902   6.230   0.450  2.0316 -0.6404 -0.8550
 4742TIP3    H235786   2.822   6.333   0.374 -0.0180 -0.2719  1.6412
 4743TIP3   OH235787   1.852   2.168   7.170  0.0547 -0.2729  0.2559
 4743TIP3    H135788   1.761   2.145   7.186 -0.0462  0.1488  0.2979
 4743TIP3    H235789   1.892   2.087   7.139  0.5127 -1.4359  3.5601
 4744TIP3   OH235790   4.541   2.368   7.971  0.0043 -0.0795  0.4577
 4744TIP3    H135791   4.459   2.408   8.001 -1.2097 -1.7231 -0.4746
 4744TIP3    H235792   4.522   2.274   7.968  1.8097 -0.4706 -0.1748
 4745TIP3   OH235793   2.145   6.207   8.339  0.1899 -0.7242 -0.1996
 4745TIP3    H135794   2.214   6.260   8.379  0.3748 -1.2547  0.2120
 4745TIP3    H235795   2.092   6.179   8.414 -1.2101  0.6807 -0.6180
 4746TIP3   OH235796   6.179   0.491   0.774 -0.3498 -0.7185 -0.2210
 4746TIP3    H135797   6.239   0.416   0.779 -0.3220 -0.6843 -0.0158
 4746TIP3    H235798   6.095   0.456   0.804  0.1601 -0.1474  2.0576
 4747TIP3   OH235799   6.668   2.996   7.477 -0.2126  0.3116  0.3466
 4747TIP3    H135800   6.725   3.072   7.485 -2.4349  2.4055 -2.0307
 4747TIP3    H235801   6.612   2.999   7.555  0.8818  0.0060  1.1619
 4748TIP3   OH235802   4.835   1.884   8.309 -0.0915  0.4287  0.1281
 4748TIP3    H135803   4.828   1.815   8.375  0.6068  0.3580  0.1334
 4748TIP3    H235804   4.785   1.957   8.346  0.1730  0.3394  0.6718
 4749TIP3   OH235805   6.312   1.842   6.496  0.1559 -0.7420 -0.0732
 4749TIP3    H135806   6.363   1.868   6.419  1.1855  1.0211  1.1064
 4749TIP3    H235807   6.280   1.925   6.532 -0.7876 -1.5724  1.0669
 4750TIP3   OH235808   1.116   5.930   8.607  0.3864  1.0361  0.9076
 4750TIP3    H135809   1.081   6.018   8.620  0.5050  0.9000  2.3017
 4750TIP3    H235810   1.077   5.879   8.678  3.7648  0.9871  2.9151
 4751TIP3   OH235811   3.830   2.818   1.594  0.2908 -0.3823  0.5487
 4751TIP3    H135812   3.765   2.762   1.550  1.4602 -1.2051 -0.1989
 4751TIP3    H235813   3.858   2.767   1.670  2.0179 -1.2792 -0.6246
 4752TIP3   OH235814   2.479   6.189   1.915 -0.0428 -0.4389  0.6871
 4752TIP3    H135815   2.494   6.145   1.999  0.9498  0.5472  1.0541
 4752TIP3    H235816   2.443   6.274   1.939 -2.2220 -1.1070 -0.0274
 4753TIP3   OH235817   5.571   4.678   0.996  0.6206 -0.6227 -0.1981
 4753TIP3    H135818   5.610   4.657   1.081 -0.9860  1.5576  1.1760
 4753TIP3    H235819   5.606   4.764   0.974 -1.6030  0.4147  0.0320
 4754TIP3   OH235820   4.356   6.852   6.370  0.6146  0.1892  0.2536
 4754TIP3    H135821   4.270   6.865   6.409 -1.4488 -1.5830 -3.1897
 4754TIP3    H235822   4.389   6.772   6.411  0.6929  0.9198  1.6509
 4755TIP3   OH235823   4.524   2.370   0.653  0.1937  0.0595  0.3674
 4755TIP3    H135824   4.438   2.394   0.686  0.3259 -0.2893  0.9775
 4755TIP3    H235825   4.527   2.275   0.662  0.8889  0.1313  0.9629
 4756TIP3   OH235826   6.549   5.394   8.241 -0.2441  0.1553  0.5237
 4756TIP3    H135827   6.572   5.423   8.152 -1.6443 -0.2886 -0.0203
 4756TIP3    H235828   6.538   5.475   8.290  0.8530  0.4018  0.3890
 4757TIP3   OH235829   4.563   5.938   7.353 -0.1366  0.4392  0.4342
 4757TIP3    H135830   4.505   5.967   7.422 -0.8164 -0.4942  0.2688
 4757TIP3    H235831   4.510   5.940   7.274  0.2529  0.2403  0.1608
 4758TIP3   OH235832   6.426   6.182   2.115 -0.7009 -0.1423 -0.7125
 4758TIP3    H135833   6.417   6.273   2.086 -0.2904 -0.1012 -0.7180
 4758TIP3    H235834   6.402   6.184   2.208  1.9425  0.5060  0.0540
 4759TIP3   OH235835   0.691   5.270   6.395 -1.0398  0.3237 -0.2057
 4759TIP3    H135836   0.749   5.256   6.320  1.8114  0.8134  1.7187
 4759TIP3    H235837   0.658   5.359   6.384  0.4137  0.8836 -0.2955
 4760TIP3   OH235838   3.563   2.625   1.029 -0.5632 -0.0140 -0.0523
 4760TIP3    H135839   3.650   2.662   1.014 -1.0699  0.6095 -1.5804
 4760TIP3    H235840   3.503   2.684   0.984 -1.4053 -2.5845 -2.5994
 4761TIP3   OH235841   5.736   4.094   2.034 -0.1712  0.0216 -0.0587
 4761TIP3    H135842   5.704   4.019   2.083  1.1750 -0.5811 -0.0713
 4761TIP3    H235843   5.708   4.078   1.944 -0.9803  0.1731  0.1607
 4762TIP3   OH235844   0.566   6.365   2.535 -0.5272  0.0570  0.0863
 4762TIP3    H135845   0.629   6.436   2.542 -0.7572  0.3985 -1.1288
 4762TIP3    H235846   0.530   6.356   2.624 -0.0251  1.0108  0.3974
 4763TIP3   OH235847   1.592   5.245   7.435  0.3106  0.3432 -0.3189
 4763TIP3    H135848   1.612   5.327   7.390 -1.0263  0.9529  0.1536
 4763TIP3    H235849   1.656   5.240   7.506 -0.2249  1.4988  0.2623
 4764TIP3   OH235850   0.758   3.771   8.529 -0.6725  0.4156 -0.9426
 4764TIP3    H135851   0.814   3.844   8.555  0.2482  0.2051 -2.2406
 4764TIP3    H235852   0.819   3.700   8.509 -1.5375 -0.6343  0.0130
 4765TIP3   OH235853   6.031   3.671   0.801 -0.5730  0.1595 -0.2539
 4765TIP3    H135854   5.960   3.716   0.846 -0.2841  0.6014 -0.2284
 4765TIP3    H235855   6.008   3.677   0.708 -1.0710 -0.5850 -0.1921
 4766TIP3   OH235856   2.214   2.141   0.078  0.0044 -0.2437  0.3938
 4766TIP3    H135857   2.156   2.200   0.126 -1.4443 -0.3855 -1.0490
 4766TIP3    H235858   2.287   2.196   0.049  0.0668  0.1933  1.3621
 4767TIP3   OH235859   2.500   3.279   0.553  0.0901  0.2551  0.1298
 4767TIP3    H135860   2.550   3.358   0.535  0.5653 -0.4200 -1.6766
 4767TIP3    H235861   2.536   3.246   0.635 -0.2689  1.9981  1.0272
 4768TIP3   OH235862   2.930   6.643   6.179 -0.1523  0.0562  0.6226
 4768TIP3    H135863   2.842   6.623   6.145  0.5350 -1.1214 -0.5502
 4768TIP3    H235864   2.914   6.678   6.266 -1.7745 -0.4555  0.5721
 4769TIP3   OH235865   6.259   1.065   6.927  0.0392  0.7246  0.0837
 4769TIP3    H135866   6.248   0.982   6.882  0.4768  0.3867  0.5923
 4769TIP3    H235867   6.241   1.131   6.860 -2.7851  0.2531  0.2578
 4770TIP3   OH235868   1.612   4.481   8.177  0.5559 -0.3671  0.1567
 4770TIP3    H135869   1.656   4.560   8.208 -0.6976 -0.1682  1.5321
 4770TIP3    H235870   1.592   4.431   8.256  1.1492 -1.9992 -0.6659
 4771TIP3   OH235871   4.775   0.753   7.086 -0.3665  0.3676  0.4642
 4771TIP3    H135872   4.681   0.772   7.077 -0.3228  1.2862  1.7149
 4771TIP3    H235873   4.816   0.839   7.094  0.9848  0.2112 -2.9203
 4772TIP3   OH235874   4.742   0.462   7.226 -0.9353 -0.1126 -0.1763
 4772TIP3    H135875   4.782   0.517   7.159 -2.8421  1.0205 -0.4778
 4772TIP3    H235876   4.812   0.444   7.288  0.1398  1.3363 -0.9104
 4773TIP3   OH235877   6.196   4.365   0.885 -0.1700  0.4869  0.0537
 4773TIP3    H135878   6.259   4.410   0.942  0.6634 -0.6855  0.1075
 4773TIP3    H235879   6.235   4.370   0.798  0.6576 -1.2506  0.2615
 4774TIP3   OH235880   3.921   6.312   6.325  0.0288 -0.1172  0.0899
 4774TIP3    H135881   3.974   6.322   6.404  0.1471 -0.0389  0.0012
 4774TIP3    H235882   3.937   6.393   6.276 -0.7230  0.2321  0.3930
 4775TIP3   OH235883   5.199   0.554   8.302  0.7593  0.0246 -0.3721
 4775TIP3    H135884   5.290   0.527   8.315  0.4067 -1.2719 -0.4063
 4775TIP3    H235885   5.150   0.471   8.298 -0.6094  0.7167  1.0574
 4776TIP3   OH235886   5.509   0.799   0.141  0.6778  0.0910 -0.3795
 4776TIP3    H135887   5.592   0.846   0.128  0.4170  0.3798 -0.9875
 4776TIP3    H235888   5.482   0.772   0.054 -0.3474  0.7983 -0.2957
 4777TIP3   OH235889   6.024   0.800   6.904  0.3284 -1.2059 -0.2568
 4777TIP3    H135890   5.966   0.832   6.835  1.0868 -0.9747 -0.8006
 4777TIP3    H235891   6.112   0.820   6.872  0.6886 -1.1109  0.7730
 4778TIP3   OH235892   0.699   0.440   1.233  0.0069 -0.0376  0.1634
 4778TIP3    H135893   0.729   0.401   1.150  1.2396  1.9532 -0.3986
 4778TIP3    H235894   0.630   0.501   1.207  1.4299  1.7250  0.3463
 4779TIP3   OH235895   1.185   2.263   6.656  0.1710  0.3797 -0.0300
 4779TIP3    H135896   1.278   2.243   6.645 -0.1944 -0.6672 -1.5429
 4779TIP3    H235897   1.160   2.215   6.735  0.6254 -0.5006 -0.3965
 4780TIP3   OH235898   4.462   6.668   0.201 -0.1520 -0.2651 -0.3617
 4780TIP3    H135899   4.555   6.643   0.195 -0.1252 -0.0692 -0.8221
 4780TIP3    H235900   4.463   6.756   0.238  0.0370  0.9519 -3.0435
 4781TIP3   OH235901   0.516   1.001   1.807  0.0456  0.3647 -0.1244
 4781TIP3    H135902   0.461   1.012   1.729  2.3535  1.3484 -1.7472
 4781TIP3    H235903   0.490   1.074   1.864 -0.1293  1.0226 -1.0093
 4782TIP3   OH235904   1.851   5.026   7.725 -0.7358 -0.0887  0.2494
 4782TIP3    H135905   1.811   4.939   7.726  1.0689 -1.0151  2.0248
 4782TIP3    H235906   1.919   5.020   7.793  1.5168  1.7286 -1.7041
 4783TIP3   OH235907   3.514   5.488   8.275 -0.4521 -0.1093 -0.3492
 4783TIP3    H135908   3.573   5.529   8.338 -2.1378 -1.9940  2.7222
 4783TIP3    H235909   3.567   5.418   8.236  0.2726  0.2784 -0.0851
 4784TIP3   OH235910   3.307   2.680   6.864  0.1693 -0.1620  0.5869
 4784TIP3    H135911   3.222   2.725   6.857 -0.2956 -0.8636  1.4322
 4784TIP3    H235912   3.327   2.684   6.958  1.1678  0.1631  0.3603
 4785TIP3   OH235913   4.662   6.079   2.517  0.0684 -0.3596 -0.0358
 4785TIP3    H135914   4.589   6.054   2.573  0.5977 -0.6738  0.5255
 4785TIP3    H235915   4.725   6.007   2.526 -0.4373 -1.1345 -2.1506
 4786TIP3   OH235916   1.077   0.910   0.705 -0.2095 -0.2193 -0.0800
 4786TIP3    H135917   1.173   0.917   0.707 -0.2347  0.7125 -1.3118
 4786TIP3    H235918   1.051   0.956   0.625 -1.9653  2.8919  2.0555
 4787TIP3   OH235919   2.961   5.344   0.769  0.4218  0.3345 -0.0649
 4787TIP3    H135920   3.003   5.409   0.712 -0.8222 -0.6594 -2.2361
 4787TIP3    H235921   3.033   5.289   0.798  0.9972  0.1556 -1.6958
 4788TIP3   OH235922   6.292   4.766   0.260 -0.4034 -0.1701  0.1746
 4788TIP3    H135923   6.356   4.771   0.332  0.0495  2.7979 -0.3006
 4788TIP3    H235924   6.208   4.759   0.304  0.0410 -1.3146  0.8880
 4789TIP3   OH235925   0.043   3.396   6.531  0.1111  0.0819 -0.7077
 4789TIP3    H135926   0.074   3.313   6.566 -0.2702 -0.2254 -1.0840
 4789TIP3    H235927   0.118   3.432   6.484  0.7240  0.6449  0.6559
 4790TIP3   OH235928   0.298   3.385   7.447  0.0245  0.3903 -0.7402
 4790TIP3    H135929   0.280   3.307   7.395  1.0388 -0.8044  0.5984
 4790TIP3    H235930   0.290   3.458   7.386 -0.9192 -0.7576 -2.0400
 4791TIP3   OH235931   4.798   2.791   1.639 -0.2069  0.1561 -0.0612
 4791TIP3    H135932   4.849   2.801   1.719  0.0016  0.4685 -0.2339
 4791TIP3    H235933   4.829   2.710   1.601 -0.2235  0.0664  0.1132
 4792TIP3   OH235934   5.733   5.820   7.623 -0.3462 -0.1010  0.3777
 4792TIP3    H135935   5.706   5.730   7.640 -0.2957  0.2712  2.7062
 4792TIP3    H235936   5.685   5.873   7.687  2.4538  1.0789  1.6597
 4793TIP3   OH235937   5.819   5.589   6.990  0.5577 -0.0880  0.3714
 4793TIP3    H135938   5.732   5.580   6.953  0.4222 -1.6424  0.9673
 4793TIP3    H235939   5.824   5.680   7.019 -0.8670  0.0180  0.3524
 4794TIP3   OH235940   5.586   4.507   0.781 -0.9822  0.0281 -0.2881
 4794TIP3    H135941   5.589   4.550   0.867  1.0284  0.2774 -0.4459
 4794TIP3    H235942   5.595   4.578   0.718 -0.9450 -0.3028 -0.6618
 4795TIP3   OH235943   2.475   2.113   1.994  0.5010 -0.0648 -0.0331
 4795TIP3    H135944   2.482   2.196   2.040  2.1046  0.1206 -0.5445
 4795TIP3    H235945   2.545   2.059   2.033 -0.1562 -0.9780 -0.0976
 4796TIP3   OH235946   6.555   6.018   0.652  0.3662 -0.1238 -0.0055
 4796TIP3    H135947   6.522   6.010   0.742  0.9116 -1.0041  0.1306
 4796TIP3    H235948   6.511   6.095   0.617 -3.2087 -2.1350 -0.4089
 4797TIP3   OH235949   0.827   2.525   1.093 -0.1592  0.2207  0.1024
 4797TIP3    H135950   0.818   2.524   1.188 -0.1472  1.7268  0.1545
 4797TIP3    H235951   0.810   2.435   1.066  1.2390 -0.5571  1.6338
 4798TIP3   OH235952   6.478   5.905   8.389  0.0880 -0.4570  0.1121
 4798TIP3    H135953   6.507   5.819   8.359  0.6608  0.0047 -0.6933
 4798TIP3    H235954   6.403   5.886   8.446  1.5957 -1.6689  1.8604
 4799TIP3   OH235955   2.477   0.347   0.524 -0.3492  0.3614 -0.2516
 4799TIP3    H135956   2.391   0.360   0.566  0.2077  0.3991  0.9156
 4799TIP3    H235957   2.460   0.282   0.456 -1.0415 -0.7148  0.8952
 4800TIP3   OH235958   6.754   2.391   7.193  0.2743  0.2302 -0.9102
 4800TIP3    H135959   6.710   2.310   7.167 -0.0983 -0.0427  0.5122
 4800TIP3    H235960   6.837   2.388   7.147  1.0919 -1.9128  0.5489
 4801TIP3   OH235961   1.335   4.733   8.209 -0.3486 -0.0963 -0.2100
 4801TIP3    H135962   1.241   4.746   8.222 -0.0074  0.8488  1.6728
 4801TIP3    H235963   1.344   4.641   8.184 -1.7331 -0.2601 -0.1621
 4802TIP3   OH235964   1.240   3.052   0.282 -0.2032  0.6176  0.0188
 4802TIP3    H135965   1.215   2.965   0.312 -0.8967 -0.5227 -3.3958
 4802TIP3    H235966   1.173   3.075   0.217  0.9114  2.9575 -0.4172
 4803TIP3   OH235967   4.966   5.145   1.028 -0.5455 -0.2389 -0.6611
 4803TIP3    H135968   5.025   5.070   1.027 -0.5484 -0.2450 -1.3729
 4803TIP3    H235969   4.964   5.175   0.936 -0.5636  0.6054 -0.3980
 4804TIP3   OH235970   3.885   5.373   8.663  0.0277 -0.1429  0.2954
 4804TIP3    H135971   3.820   5.415   8.608  0.2796 -0.2679 -0.1042
 4804TIP3    H235972   3.834   5.329   8.731 -0.4328 -1.6967 -0.9946
 4805TIP3   OH235973   1.923   4.385   7.117 -0.3215 -0.0144 -0.0293
 4805TIP3    H135974   1.892   4.327   7.048  0.4537  0.6074 -0.9214
 4805TIP3    H235975   1.915   4.333   7.197  1.3910 -1.7795 -0.9267
 4806TIP3   OH235976   0.228   4.281   0.082 -0.7346 -0.5624 -0.0055
 4806TIP3    H135977   0.241   4.199   0.033  0.2400 -0.3124 -0.1858
 4806TIP3    H235978   0.195   4.253   0.167 -1.8721 -1.0408 -0.5784
 4807TIP3   OH235979   4.171   5.204   7.227 -0.2557 -0.0735  0.2907
 4807TIP3    H135980   4.076   5.196   7.238 -0.5288  1.3192 -0.7024
 4807TIP3    H235981   4.190   5.153   7.148 -0.5080  1.1084 -0.5756
 4808TIP3   OH235982   0.992   4.410   8.165  0.0074 -0.3099  0.7479
 4808TIP3    H135983   0.935   4.333   8.168 -1.1317  0.4586 -0.2501
 4808TIP3    H235984   1.027   4.410   8.076 -0.5449  0.6891  0.5217
 4809TIP3   OH235985   6.367   6.536   1.182 -0.0513 -0.2614  0.4226
 4809TIP3    H135986   6.449   6.530   1.133 -0.2605  0.5550 -0.0366
 4809TIP3    H235987   6.394   6.557   1.271  0.3219 -1.6113  0.6602
 4810TIP3   OH235988   1.159   2.089   8.478  0.1463 -0.1963 -0.0093
 4810TIP3    H135989   1.182   2.077   8.386  1.1341  0.8320  0.0730
 4810TIP3    H235990   1.240   2.119   8.519 -0.7479  1.2190  0.8084
 4811TIP3   OH235991   6.813   5.514   0.157 -0.2464 -0.3090 -0.1487
 4811TIP3    H135992   6.792   5.603   0.128  0.4942 -0.3665 -0.8613
 4811TIP3    H235993   6.901   5.498   0.125 -0.0303 -0.9796  0.7448
 4812TIP3   OH235994   0.172   3.001   0.269 -0.9400  0.2831  0.1196
 4812TIP3    H135995   0.112   3.068   0.238 -0.1114  1.2173  0.4654
 4812TIP3    H235996   0.190   2.947   0.193 -0.2099  1.5571 -0.6623
 4813TIP3   OH235997   4.494   5.226   2.629 -0.0229  0.2420  0.2473
 4813TIP3    H135998   4.551   5.258   2.560  0.6563 -0.8770  0.2615
 4813TIP3    H235999   4.552   5.207   2.702  0.2155 -4.0682 -0.8164
 4814TIP3   OH236000   5.903   1.515   1.465  0.4738  0.1651 -0.5855
 4814TIP3    H136001   5.968   1.532   1.397  1.1517  1.6321  0.3831
 4814TIP3    H236002   5.940   1.444   1.517  0.2466 -0.5243 -1.3489
 4815TIP3   OH236003   4.069   2.536   7.578 -0.2495 -0.1721  0.1317
 4815TIP3    H136004   4.081   2.448   7.615  0.1932 -0.6833 -1.1666
 4815TIP3    H236005   4.150   2.582   7.601 -0.3006 -0.2327  0.4469
 4816TIP3   OH236006   2.472   6.672   0.941  0.2276  0.2097  0.4499
 4816TIP3    H136007   2.457   6.649   0.849 -1.2192  2.4662  0.0440
 4816TIP3    H236008   2.519   6.597   0.977 -1.9379 -2.1858 -1.3293
 4817TIP3   OH236009   4.095   5.359   1.022 -0.4655  0.0739  0.2873
 4817TIP3    H136010   4.031   5.430   1.035  0.0858  0.4412  1.0372
 4817TIP3    H236011   4.109   5.323   1.109  1.0016  0.5654  0.2701
 4818TIP3   OH236012   1.568   5.072   0.157  0.1310 -0.2074 -0.3785
 4818TIP3    H136013   1.502   5.141   0.158  0.9555  0.6003  0.1149
 4818TIP3    H236014   1.572   5.042   0.248  1.7161  1.0361  0.0056
 4819TIP3   OH236015   4.555   6.849   1.615  0.4595 -0.1135  0.1682
 4819TIP3    H136016   4.602   6.772   1.583  1.4379  0.1900  0.8005
 4819TIP3    H236017   4.622   6.899   1.662 -0.1071  1.2224 -0.3986
 4820TIP3   OH236018   4.195   4.838   1.501 -0.2114  0.0323  0.3875
 4820TIP3    H136019   4.285   4.836   1.467  0.1304  0.5692  1.2259
 4820TIP3    H236020   4.201   4.890   1.582 -1.1660 -0.4469  0.7796
 4821TIP3   OH236021   2.552   3.620   1.104 -0.3455 -0.0707 -0.2291
 4821TIP3    H136022   2.541   3.671   1.184 -0.8400  0.7800 -0.8217
 4821TIP3    H236023   2.462   3.606   1.073 -0.1960 -1.0379 -0.2477
 4822TIP3   OH236024   6.407   2.708   1.633  0.1708 -0.4387 -0.0767
 4822TIP3    H136025   6.455   2.758   1.568 -1.0397  0.0513 -0.6345
 4822TIP3    H236026   6.363   2.774   1.687 -1.7950 -0.8279 -1.0901
 4823TIP3   OH236027   1.566   6.846   0.185 -0.3807  0.3662 -0.5739
 4823TIP3    H136028   1.568   6.881   0.274 -0.1717  1.2610 -0.9207
 4823TIP3    H236029   1.559   6.752   0.197 -0.8325  0.5057  0.3887
 4824TIP3   OH236030   4.785   6.125   2.221 -0.0879 -0.1780  1.2740
 4824TIP3    H136031   4.754   6.090   2.305 -0.4073 -0.4768  1.0348
 4824TIP3    H236032   4.784   6.220   2.233 -0.4284 -0.2066  1.5037
 4825TIP3   OH236033   6.058   6.618   7.650 -0.3650  0.4187 -1.1380
 4825TIP3    H136034   6.066   6.632   7.745 -0.6395 -1.2243 -0.8399
 4825TIP3    H236035   6.020   6.699   7.617 -0.0609  1.1048  0.1220
 4826TIP3   OH236036   2.280   5.451   0.213 -0.2765  0.3843 -0.0156
 4826TIP3    H136037   2.338   5.424   0.284 -0.2749  1.1158  0.2749
 4826TIP3    H236038   2.328   5.522   0.169 -0.1095 -0.3104 -0.9966
 4827TIP3   OH236039   1.661   5.413   8.274  0.1296  0.0606  0.1054
 4827TIP3    H136040   1.736   5.399   8.332  0.9859  0.3522 -0.9018
 4827TIP3    H236041   1.671   5.348   8.205  0.8992  1.7183 -1.4146
 4828TIP3   OH236042   6.669   3.481   0.857  0.0803 -0.6248 -0.1806
 4828TIP3    H136043   6.747   3.448   0.813 -0.4713 -1.8046 -0.2946
 4828TIP3    H236044   6.602   3.415   0.842 -0.9750  0.3901 -0.1347
 4829TIP3   OH236045   5.053   4.287   6.981  0.7931 -0.4547 -0.3220
 4829TIP3    H136046   5.069   4.231   6.905  1.8065 -0.1419 -0.3589
 4829TIP3    H236047   4.969   4.258   7.016  0.0372 -0.2402 -1.8891
 4830TIP3   OH236048   3.332   0.442   1.029 -0.3437  0.2183 -0.2001
 4830TIP3    H136049   3.332   0.430   0.934 -1.7894 -2.6309  0.0353
 4830TIP3    H236050   3.253   0.396   1.059  0.0835  0.9947  2.3961
 4831TIP3   OH236051   6.755   2.502   7.454 -0.3384 -0.0500  0.5422
 4831TIP3    H136052   6.807   2.502   7.374  0.1115 -0.1161  0.8321
 4831TIP3    H236053   6.683   2.440   7.436 -1.4781  1.5125 -0.5842
 4832TIP3   OH236054   3.052   4.237   7.646 -0.1894 -0.0572  0.1493
 4832TIP3    H136055   3.000   4.199   7.716  1.2419 -1.8124  0.3438
 4832TIP3    H236056   3.048   4.331   7.660 -1.2874 -0.2977  1.5785
 4833TIP3   OH236057   2.226   1.831   0.399  0.2754 -0.1232 -0.1460
 4833TIP3    H136058   2.257   1.741   0.402  1.0274  0.1127 -0.6465
 4833TIP3    H236059   2.201   1.851   0.490  3.8579  0.4576  0.8665
 4834TIP3   OH236060   2.959   1.924   1.055 -0.1460 -0.3729 -0.4688
 4834TIP3    H136061   3.032   1.961   1.004  0.0285  0.6013  0.4595
 4834TIP3    H236062   2.881   1.964   1.017  0.0856  1.5897  0.9751
 4835TIP3   OH236063   5.506   6.266   8.453 -0.4561 -0.5248  1.0927
 4835TIP3    H136064   5.556   6.250   8.373 -0.5645 -0.2309  0.9672
 4835TIP3    H236065   5.543   6.347   8.489  1.2855 -1.8964  2.6495
 4836TIP3   OH236066   3.755   1.776   0.626 -0.1533 -0.7921 -0.1783
 4836TIP3    H136067   3.836   1.735   0.655  0.7287 -0.4361 -1.9824
 4836TIP3    H236068   3.710   1.708   0.576  0.2769 -0.2670 -1.3259
 4837TIP3   OH236069   3.836   1.990   7.447 -0.2673  0.1157  0.1022
 4837TIP3    H136070   3.834   2.011   7.354  0.3056  1.7254  0.4323
 4837TIP3    H236071   3.781   1.911   7.455 -0.1248 -0.1915 -1.6096
 4838TIP3   OH236072   5.553   1.988   8.470  0.3819 -0.2438  0.4540
 4838TIP3    H136073   5.475   1.942   8.438  0.2136  2.1258 -3.1703
 4838TIP3    H236074   5.620   1.920   8.477 -1.0757 -1.7761  0.1148
 4839TIP3   OH236075   3.026   4.535   1.523 -0.3807  0.4197 -0.1734
 4839TIP3    H136076   2.931   4.546   1.525 -0.4443  0.1552 -1.0083
 4839TIP3    H236077   3.041   4.443   1.546 -0.4043  0.1911 -1.0421
 4840TIP3   OH236078   4.478   6.147   0.352  0.2121 -0.3904 -0.2706
 4840TIP3    H136079   4.384   6.132   0.365  0.8117 -1.9616  3.2015
 4840TIP3    H236080   4.512   6.063   0.321  0.6784 -0.2428 -0.1614
 4841TIP3   OH236081   3.741   3.092   1.616 -0.5981  0.1001 -0.0563
 4841TIP3    H136082   3.810   3.133   1.668 -1.4617 -0.5771  1.6807
 4841TIP3    H236083   3.767   2.999   1.611 -2.4656 -0.6905  2.6588
 4842TIP3   OH236084   3.107   5.396   8.405 -0.1502  0.0965  0.3064
 4842TIP3    H136085   3.202   5.400   8.402 -0.1529 -0.2694 -0.3170
 4842TIP3    H236086   3.082   5.349   8.326 -0.9873  2.3732 -0.8757
 4843TIP3   OH236087   4.017   0.924   0.525 -0.5477 -0.7839  0.2221
 4843TIP3    H136088   4.099   0.880   0.501 -1.3436 -1.7056 -0.9295
 4843TIP3    H236089   3.983   0.872   0.598  0.0794 -0.1326  1.0088
 4844TIP3   OH236090   1.872   0.954   1.623 -0.6518 -0.6443 -0.1909
 4844TIP3    H136091   1.860   0.882   1.685  0.9033  0.5820  1.6403
 4844TIP3    H236092   1.966   0.960   1.611 -0.7000  1.2484 -0.0254
 4845TIP3   OH236093   0.470   6.530   7.477  0.0133  0.4956  0.7281
 4845TIP3    H136094   0.543   6.568   7.428  1.0766 -1.6344  0.5074
 4845TIP3    H236095   0.466   6.579   7.558  0.3985  1.9214 -0.0837
 4846TIP3   OH236096   5.396   4.605   7.315 -0.2892  0.6182 -0.3343
 4846TIP3    H136097   5.351   4.687   7.299 -1.2847  0.3357  0.8793
 4846TIP3    H236098   5.474   4.630   7.365  0.0876  0.9367 -1.0634
 4847TIP3   OH236099   0.216   0.655   2.090 -0.1732 -0.6724 -0.5507
 4847TIP3    H136100   0.142   0.614   2.045 -0.4983 -1.6051  0.7705
 4847TIP3    H236101   0.218   0.613   2.176  0.0035  1.5118  0.5784
 4848TIP3   OH236102   1.394   0.733   6.493  0.0512 -0.0390 -0.3779
 4848TIP3    H136103   1.433   0.659   6.539  0.4576 -0.0903 -0.8040
 4848TIP3    H236104   1.468   0.780   6.455 -0.2059  0.5868 -0.1144
 4849TIP3   OH236105   3.120   5.856   8.133  0.8550  0.3748 -0.2379
 4849TIP3    H136106   3.081   5.938   8.101 -0.0948  0.2491  0.5378
 4849TIP3    H236107   3.133   5.872   8.227  0.9959 -0.2352 -0.1526
 4850TIP3   OH236108   6.150   6.280   8.380 -0.3396 -0.2312  0.0566
 4850TIP3    H136109   6.119   6.231   8.456  0.5162 -2.1316 -0.7273
 4850TIP3    H236110   6.207   6.347   8.416  0.3759 -1.3631  1.1214
 4851TIP3   OH236111   0.618   0.896   0.688 -0.2353  0.0570  0.0574
 4851TIP3    H136112   0.568   0.976   0.704  0.3909  0.6060 -0.6315
 4851TIP3    H236113   0.580   0.831   0.748 -2.0522  0.3216 -0.7459
 4852TIP3   OH236114   3.056   2.769   7.317  0.9731  0.7078  0.0980
 4852TIP3    H136115   3.034   2.704   7.384 -1.6435  0.4522 -0.8772
 4852TIP3    H236116   3.024   2.852   7.352 -0.4735  0.5605 -0.7907
 4853TIP3   OH236117   3.347   0.455   0.740 -0.0075 -0.2941  0.8880
 4853TIP3    H136118   3.442   0.469   0.731  0.2239 -1.9795  0.2257
 4853TIP3    H236119   3.336   0.361   0.726 -1.9555  0.1010 -0.6255
 4854TIP3   OH236120   2.867   6.347   7.315 -0.7216 -0.3360  0.4813
 4854TIP3    H136121   2.875   6.296   7.396 -1.3524  0.3105  0.9595
 4854TIP3    H236122   2.786   6.396   7.325 -0.7044 -0.0957 -0.4642
 4855TIP3   OH236123   6.411   5.970   0.893  0.1150 -0.1195 -0.2862
 4855TIP3    H136124   6.355   5.898   0.865  0.4536 -0.3288 -0.4335
 4855TIP3    H236125   6.351   6.035   0.929 -0.1689 -0.5755  0.0679
 4856TIP3   OH236126   4.830   4.369   1.490 -0.7910  0.3008 -0.5952
 4856TIP3    H136127   4.826   4.464   1.493  0.8958  0.5143 -2.8780
 4856TIP3    H236128   4.923   4.348   1.483 -1.2224 -1.4158 -1.8810
 4857TIP3   OH236129   5.095   0.295   8.252 -0.2651 -0.5516 -0.2106
 4857TIP3    H136130   5.015   0.268   8.298 -0.8187 -1.8838 -1.8389
 4857TIP3    H236131   5.160   0.230   8.278 -0.1350 -0.3649 -0.0697
 4858TIP3   OH236132   0.615   4.384   0.072 -0.1161 -0.1905  0.5065
 4858TIP3    H136133   0.705   4.409   0.052 -0.4503  1.0029  0.4201
 4858TIP3    H236134   0.566   4.403  -0.009 -0.4404 -0.8439  0.5436
 4859TIP3   OH236135   4.235   1.460   0.436 -0.3770  0.5195 -0.4031
 4859TIP3    H136136   4.269   1.467   0.525 -1.1617  1.8551 -0.1897
 4859TIP3    H236137   4.167   1.392   0.443  1.9628 -2.0426 -0.8021
 4860TIP3   OH236138   5.052   1.894   8.582 -0.0460 -0.3553  0.0380
 4860TIP3    H136139   5.036   1.939   8.499  0.8291  0.8051  0.4604
 4860TIP3    H236140   4.970   1.850   8.602 -1.1670  1.5063 -0.1703
 4861TIP3   OH236141   2.612   3.449   1.423 -0.4827  0.2841  0.0361
 4861TIP3    H136142   2.610   3.544   1.415  1.9700  0.4072  0.2210
 4861TIP3    H236143   2.624   3.432   1.516  1.3083 -0.0838 -0.2234
 4862TIP3   OH236144   3.838   0.774   0.668  0.9312  0.1220 -0.2321
 4862TIP3    H136145   3.776   0.715   0.710  0.9109  0.3698  0.0880
 4862TIP3    H236146   3.796   0.801   0.587  1.4687 -1.3101 -1.0158
 4863TIP3   OH236147   0.582   0.771   0.194  0.1097  0.1307  0.1459
 4863TIP3    H136148   0.651   0.705   0.198  0.7287  0.8128  1.4536
 4863TIP3    H236149   0.501   0.721   0.182  0.3918 -1.0143  2.3871
 4864TIP3   OH236150   4.850   2.253   1.499 -0.1781 -0.2017  0.4583
 4864TIP3    H136151   4.899   2.328   1.464  0.8779 -0.7658  0.6690
 4864TIP3    H236152   4.917   2.200   1.543 -0.5145 -2.3259 -1.4451
 4865TIP3   OH236153   5.965   2.066   1.456  0.2271  1.1194  0.2140
 4865TIP3    H136154   6.019   2.099   1.384  0.1078  0.5896 -0.1239
 4865TIP3    H236155   6.009   1.985   1.484  1.1884  2.1501  1.8227
 4866TIP3   OH236156   5.820   3.821   8.666 -0.2820  0.2971 -0.1477
 4866TIP3    H136157   5.838   3.790   8.578  1.8326  3.6402 -1.0861
 4866TIP3    H236158   5.734   3.862   8.660 -1.3727 -1.8366  0.1407
 4867TIP3   OH236159   5.434   3.091   6.622  0.1435 -0.0326 -0.3967
 4867TIP3    H136160   5.345   3.061   6.641 -1.1283  1.0921 -3.8443
 4867TIP3    H236161   5.474   3.018   6.575 -0.3042  0.7310 -2.0454
 4868TIP3   OH236162   1.718   3.993   1.189  0.4324  0.0772 -0.1681
 4868TIP3    H136163   1.699   3.922   1.127 -0.1035 -0.8913  1.0328
 4868TIP3    H236164   1.633   4.034   1.204  0.6636  0.6885 -0.5130
 4869TIP3   OH236165   5.335   1.808   7.323 -0.1695  0.5060 -0.4552
 4869TIP3    H136166   5.244   1.787   7.347  0.5867 -0.7715  1.5891
 4869TIP3    H236167   5.377   1.828   7.406  2.0043 -1.3506 -1.0041
 4870TIP3   OH236168   0.549   4.615   1.867  0.6057 -0.1743 -0.2856
 4870TIP3    H136169   0.641   4.633   1.846  0.5348  0.4241 -0.1105
 4870TIP3    H236170   0.539   4.646   1.957  0.4250 -0.9504 -0.0361
 4871TIP3   OH236171   5.080   2.005   7.605 -0.8081  0.0630  0.4168
 4871TIP3    H136172   5.141   2.079   7.604  0.3879 -0.8975  0.2165
 4871TIP3    H236173   5.036   2.009   7.520  0.7562 -0.6270 -0.4764
 4872TIP3   OH236174   3.441   6.352   0.456 -0.8587 -0.3137  0.3788
 4872TIP3    H136175   3.530   6.320   0.468  0.3188  2.4442 -0.3192
 4872TIP3    H236176   3.424   6.340   0.363  0.1394  2.1358 -0.1969
 4873TIP3   OH236177   6.319   2.219   0.911 -0.7955  0.4615 -0.9381
 4873TIP3    H136178   6.413   2.221   0.891 -0.4211 -2.0081  0.1742
 4873TIP3    H236179   6.283   2.155   0.849 -0.8127 -2.1748  1.5898
 4874TIP3   OH236180   1.583   6.878   1.692 -0.1336  0.2077  0.1530
 4874TIP3    H136181   1.619   6.898   1.778  4.1452 -2.1809 -0.8038
 4874TIP3    H236182   1.610   6.951   1.637 -0.3381  0.3474  0.2355
 4875TIP3   OH236183   1.826   5.204   6.474  0.0810  0.0656  0.0264
 4875TIP3    H136184   1.886   5.180   6.544  0.3256 -1.5138 -0.6842
 4875TIP3    H236185   1.880   5.252   6.411  0.0074  0.8888  0.5717
 4876TIP3   OH236186   1.822   2.408   2.122  0.3032 -0.5481  0.2191
 4876TIP3    H136187   1.900   2.390   2.070  0.4207 -1.0516  0.5547
 4876TIP3    H236188   1.800   2.499   2.103  1.7189 -0.0015  1.1014
 4877TIP3   OH236189   3.743   2.931   1.242 -0.2666  0.0319 -0.2480
 4877TIP3    H136190   3.729   2.921   1.336 -0.1707 -1.3378 -0.3649
 4877TIP3    H236191   3.657   2.918   1.202 -0.1063 -0.5127 -0.4227
 4878TIP3   OH236192   5.247   1.208   7.541 -0.0101  0.1644  0.2099
 4878TIP3    H136193   5.286   1.122   7.524  0.3898  0.3590  0.1400
 4878TIP3    H236194   5.305   1.249   7.605  1.1082  1.3037 -1.4559
 4879TIP3   OH236195   0.091   4.385   7.391 -0.1373 -0.5766 -0.2784
 4879TIP3    H136196   0.011   4.371   7.340 -0.5918 -1.9739  0.7626
 4879TIP3    H236197   0.061   4.428   7.471 -0.0575 -2.1941  0.6556
 4880TIP3   OH236198   6.834   5.962   1.330 -0.1648 -0.4407 -0.1044
 4880TIP3    H136199   6.890   5.938   1.404 -1.3272  1.8021  1.6265
 4880TIP3    H236200   6.793   5.879   1.304  3.0660 -1.9826 -0.8032
 4881TIP3   OH236201   5.829   4.020   0.592 -0.2229 -0.7204 -0.7125
 4881TIP3    H136202   5.895   4.003   0.525  0.2252  2.6376 -1.2882
 4881TIP3    H236203   5.857   4.101   0.634 -2.1764 -1.0461  1.4408
 4882TIP3   OH236204   0.543   3.200   7.479  0.2122 -0.2983  0.2546
 4882TIP3    H136205   0.467   3.258   7.476 -0.0796 -0.6475  0.7647
 4882TIP3    H236206   0.582   3.207   7.392  0.4608  1.0222  0.4486
 4883TIP3   OH236207   0.877   1.232   7.304  0.4281 -0.0938 -0.1200
 4883TIP3    H136208   0.900   1.149   7.346  1.4886  0.2272 -0.0255
 4883TIP3    H236209   0.794   1.215   7.260  0.8005 -1.3091 -0.3843
 4884TIP3   OH236210   5.100   1.628   1.377  0.6652 -0.6850 -0.3036
 4884TIP3    H136211   5.128   1.705   1.427 -1.2659 -0.5152  0.6127
 4884TIP3    H236212   5.147   1.635   1.294  1.6489  0.6868  0.3299
 4885TIP3   OH236213   0.493   2.126   0.113 -0.3902 -0.2364  0.6641
 4885TIP3    H136214   0.475   2.215   0.085  1.3295  0.1810  0.7849
 4885TIP3    H236215   0.450   2.071   0.047 -1.2216  0.6698  0.4351
 4886TIP3   OH236216   6.134   3.680   8.142 -0.1783  0.5654  0.3316
 4886TIP3    H136217   6.078   3.695   8.218 -0.1843 -1.0407  0.6768
 4886TIP3    H236218   6.094   3.731   8.072 -0.9657  0.9600  1.0505
 4887TIP3   OH236219   2.295   5.086   1.108 -0.9016  0.1611 -0.0083
 4887TIP3    H136220   2.364   5.137   1.067  0.0601 -0.2600  1.0307
 4887TIP3    H236221   2.341   5.016   1.154 -1.7377  1.3738  2.8985
 4888TIP3   OH236222   4.827   2.415   7.937  0.3667  0.2399 -0.3581
 4888TIP3    H136223   4.732   2.426   7.938  0.3849  0.4494 -0.7184
 4888TIP3    H236224   4.843   2.356   7.864  0.2713 -2.3160  1.5404
 4889TIP3   OH236225   2.935   3.493   7.865 -0.4816 -0.3534 -0.7525
 4889TIP3    H136226   2.913   3.418   7.809 -1.0873  1.5845 -3.2963
 4889TIP3    H236227   2.973   3.557   7.805  0.6291  1.1904  1.4427
 4890TIP3   OH236228   2.184   2.742   8.592 -0.3398 -0.5593  0.0126
 4890TIP3    H136229   2.269   2.720   8.631 -0.6721 -1.0722  0.4597
 4890TIP3    H236230   2.141   2.795   8.658 -0.3473 -0.2491 -0.2391
 4891TIP3   OH236231   2.811   6.033   2.355 -0.0589 -0.0360  0.5567
 4891TIP3    H136232   2.902   6.062   2.359  0.3252 -0.6040 -2.2141
 4891TIP3    H236233   2.809   5.952   2.405  0.9732 -0.0604  0.5641
 4892TIP3   OH236234   5.788   6.007   1.377  0.1667 -0.6577  0.2440
 4892TIP3    H136235   5.725   5.996   1.305  0.1196 -0.5649  0.2716
 4892TIP3    H236236   5.763   5.940   1.441 -0.6537  0.1463  0.7929
 4893TIP3   OH236237   4.803   4.094   1.493 -0.1735  0.1024  0.6114
 4893TIP3    H136238   4.768   4.055   1.573  0.1380  1.8533  1.6590
 4893TIP3    H236239   4.794   4.188   1.507  1.6804  0.5084 -0.6042
 4894TIP3   OH236240   1.760   5.039   2.160  0.3138 -1.0483  0.0783
 4894TIP3    H136241   1.781   5.053   2.252  3.8033  0.6992 -0.7916
 4894TIP3    H236242   1.819   4.969   2.132 -0.9160 -1.7767 -0.8132
 4895TIP3   OH236243   2.545   6.241   7.698  0.7098  0.6948 -0.1648
 4895TIP3    H136244   2.532   6.300   7.772  2.3602  0.5984  0.2395
 4895TIP3    H236245   2.479   6.267   7.634 -1.0025  0.5390  1.4530
 4896TIP3   OH236246   2.689   2.306   1.254  0.3468 -0.3991  0.0932
 4896TIP3    H136247   2.784   2.309   1.243  0.2608  0.2887 -0.5273
 4896TIP3    H236248   2.675   2.317   1.348  0.8676 -0.2056  0.1493
 4897TIP3   OH236249   2.370   0.512   8.085 -0.1407 -0.2077  0.0437
 4897TIP3    H136250   2.369   0.421   8.056 -0.3447 -0.3959  0.6247
 4897TIP3    H236251   2.451   0.521   8.135 -0.1528 -0.0924  0.0428
 4898TIP3   OH236252   3.232   2.716   2.204  0.5143  0.1738 -0.2502
 4898TIP3    H136253   3.247   2.785   2.268  1.0138 -0.3751  0.2400
 4898TIP3    H236254   3.138   2.698   2.209  0.2864  1.1419 -0.7401
 4899TIP3   OH236255   6.405   3.452   7.803  0.0240  0.0586 -0.0064
 4899TIP3    H136256   6.320   3.420   7.834 -0.2640 -0.5216 -1.3089
 4899TIP3    H236257   6.463   3.376   7.809  0.2691  0.2657  0.2391
 4900TIP3   OH236258   4.122   5.397   7.777  0.2410 -0.0786  0.0007
 4900TIP3    H136259   4.111   5.452   7.854  0.3316  1.6581 -1.1696
 4900TIP3    H236260   4.124   5.459   7.703  0.4601 -1.6467 -1.3700
 4901TIP3   OH236261   5.589   5.585   7.965 -0.2251  0.5890 -0.4257
 4901TIP3    H136262   5.658   5.526   7.997 -0.2179  0.7056 -0.2258
 4901TIP3    H236263   5.517   5.573   8.027 -2.3651 -3.2154 -3.1546
 4902TIP3   OH236264   0.357   2.392   0.159  0.0112  0.0792 -0.0425
 4902TIP3    H136265   0.263   2.395   0.139 -0.1694  0.9501  0.8472
 4902TIP3    H236266   0.397   2.451   0.095 -0.0481 -0.2699 -0.4050
 4903TIP3   OH236267   0.420   0.412   7.318  0.2468  0.6079  0.1953
 4903TIP3    H136268   0.450   0.446   7.233 -1.5373  1.5406 -0.0916
 4903TIP3    H236269   0.329   0.439   7.324  0.0604 -0.3053  1.9952
 4904TIP3   OH236270   4.286   3.323   1.967  0.2932  0.4850 -0.3997
 4904TIP3    H136271   4.340   3.355   2.039 -0.8893  1.7226 -0.0328
 4904TIP3    H236272   4.231   3.256   2.006 -0.2269  1.0334 -0.1933
 4905TIP3   OH236273   4.274   5.991   7.803 -0.2683  0.0308  0.0109
 4905TIP3    H136274   4.347   5.944   7.844  0.3012  0.4988 -0.4442
 4905TIP3    H236275   4.310   6.023   7.720 -1.0497  0.1161 -0.3025
 4906TIP3   OH236276   2.778   5.463   8.269 -0.8933 -0.4351  0.6740
 4906TIP3    H136277   2.787   5.555   8.292  0.2451 -0.1594 -0.7125
 4906TIP3    H236278   2.823   5.416   8.340 -3.0051 -0.1204  2.3476
 4907TIP3   OH236279   6.199   1.333   6.756 -0.0537 -0.4420 -0.4889
 4907TIP3    H136280   6.149   1.395   6.810  0.4694 -1.3033  1.0679
 4907TIP3    H236281   6.139   1.311   6.684 -0.5028  1.3055 -0.7054
 4908TIP3   OH236282   5.734   4.354   1.888 -0.2199  0.4794 -0.4309
 4908TIP3    H136283   5.743   4.260   1.900 -3.4128  0.0143 -0.8859
 4908TIP3    H236284   5.683   4.383   1.963  0.1611  1.7665 -0.6438
 4909TIP3   OH236285   4.503   3.093   7.047 -0.5318  0.1078  0.3007
 4909TIP3    H136286   4.579   3.035   7.043  0.9455  1.6021  3.0922
 4909TIP3    H236287   4.427   3.036   7.035  0.9023 -1.2731 -3.8992
 4910TIP3   OH236288   6.614   1.905   1.411 -0.1335 -0.1749  0.3524
 4910TIP3    H136289   6.540   1.934   1.357 -1.5420 -2.0059  1.1763
 4910TIP3    H236290   6.673   1.980   1.414 -1.7062  1.1740 -0.7962
 4911TIP3   OH236291   0.958   2.622   8.434 -0.4385 -0.2197  0.5352
 4911TIP3    H136292   1.032   2.585   8.386 -0.7482  0.0149 -0.1353
 4911TIP3    H236293   0.951   2.712   8.402  0.3974  0.4999  2.2406
 4912TIP3   OH236294   6.217   5.948   1.562  0.1666  0.1638 -0.1765
 4912TIP3    H136295   6.281   5.896   1.611 -1.8388  0.0093  2.5572
 4912TIP3    H236296   6.183   6.010   1.627 -0.8601  1.7547 -2.1248
 4913TIP3   OH236297   3.206   3.260   1.008 -0.0871  0.3532 -0.0663
 4913TIP3    H136298   3.146   3.196   0.970  0.8923 -0.6267  0.0045
 4913TIP3    H236299   3.241   3.218   1.086  1.5945  0.4008 -0.7404
 4914TIP3   OH236300   1.952   6.105   8.130 -0.1373 -0.1434  0.9385
 4914TIP3    H136301   2.016   6.108   8.201 -0.7886 -0.6256  1.5655
 4914TIP3    H236302   1.875   6.063   8.169 -0.8780  0.5281  0.2416
 4915TIP3   OH236303   6.679   2.370   0.604 -0.0358  0.0402  0.0322
 4915TIP3    H136304   6.735   2.440   0.570  0.4669 -0.1690  0.4110
 4915TIP3    H236305   6.659   2.315   0.528  0.1407  0.2113 -0.1371
 4916TIP3   OH236306   4.363   0.775   7.518  0.4747  0.0851  0.0946
 4916TIP3    H136307   4.352   0.866   7.492  0.9047  0.1623  0.1618
 4916TIP3    H236308   4.443   0.747   7.473 -0.8218 -0.9210 -1.6681
 4917TIP3   OH236309   1.372   5.704   1.373 -0.1506 -0.1119  0.3747
 4917TIP3    H136310   1.358   5.775   1.310  1.3177  0.7363  0.9420
 4917TIP3    H236311   1.286   5.687   1.411 -0.5310  1.3604  0.2185
 4918TIP3   OH236312   6.729   4.091   8.546 -0.6719 -0.0027  0.5392
 4918TIP3    H136313   6.748   4.164   8.487 -3.3898  0.7922  0.5128
 4918TIP3    H236314   6.761   4.013   8.499 -1.8482  0.7105 -1.5777
 4919TIP3   OH236315   6.003   1.211   7.664 -0.3259 -0.4682 -0.2602
 4919TIP3    H136316   6.091   1.174   7.664 -0.6108 -1.1706 -0.7570
 4919TIP3    H236317   5.988   1.238   7.754 -0.6355 -2.9118  0.4997
 4920TIP3   OH236318   3.725   4.149   7.013  0.1326 -0.4330  0.2529
 4920TIP3    H136319   3.635   4.122   7.033  0.2012 -0.0188  1.1946
 4920TIP3    H236320   3.714   4.235   6.971  0.0155 -1.0841 -1.0983
 4921TIP3   OH236321   4.389   5.750   1.205 -0.1838 -0.4108  0.3566
 4921TIP3    H136322   4.459   5.702   1.159 -0.4095  0.0316 -0.4786
 4921TIP3    H236323   4.427   5.836   1.222 -0.7442  0.0865 -0.7605
 4922TIP3   OH236324   2.838   2.203   7.528  0.4142 -0.1285  0.2927
 4922TIP3    H136325   2.830   2.108   7.538 -3.1172 -0.2037 -1.7110
 4922TIP3    H236326   2.849   2.235   7.618  2.1747 -2.3706  0.9816
 4923TIP3   OH236327   1.030   4.377   7.800 -0.1725 -0.3209  0.4905
 4923TIP3    H136328   1.037   4.472   7.797 -1.1353 -0.2651 -1.0195
 4923TIP3    H236329   0.938   4.358   7.786  0.2958 -1.4995 -1.4926
 4924TIP3   OH236330   3.203   2.405   6.912  0.0646  0.0772 -0.0784
 4924TIP3    H136331   3.283   2.455   6.900  0.0762  0.7361  2.2054
 4924TIP3    H236332   3.152   2.422   6.833  1.9442  0.0142 -1.3667
 4925TIP3   OH236333   3.749   5.769   0.129  0.3858 -0.1216 -0.3913
 4925TIP3    H136334   3.839   5.780   0.097  0.1030  0.5748 -0.9758
 4925TIP3    H236335   3.706   5.719   0.060 -0.2220  1.3670 -1.1322
 4926TIP3   OH236336   3.276   0.002   6.793 -0.8270 -0.3593 -0.1422
 4926TIP3    H136337   3.342   0.071   6.802 -2.8372  1.8025 -0.9527
 4926TIP3    H236338   3.312  -0.071   6.843  1.5894  1.1114  0.4913
 4927TIP3   OH236339   5.403   6.607   2.738 -0.3489 -0.1342  0.3294
 4927TIP3    H136340   5.340   6.655   2.793 -0.4383  0.0745  0.0461
 4927TIP3    H236341   5.369   6.518   2.735  2.2335 -1.5674  4.7552
 4928TIP3   OH236342   0.781   2.302   0.954 -0.2468  0.1573 -0.4046
 4928TIP3    H136343   0.727   2.357   0.896 -0.2660  1.3866  0.7477
 4928TIP3    H236344   0.862   2.288   0.905 -0.4745  0.7148 -0.9498
 4929TIP3   OH236345   5.276   1.188   0.162  0.1762 -0.6434  0.6460
 4929TIP3    H136346   5.277   1.160   0.071 -0.4963 -0.2654  0.5120
 4929TIP3    H236347   5.347   1.252   0.169  0.3462 -0.8097  0.4383
 4930TIP3   OH236348   1.739   5.004   2.430 -0.6399 -0.3327 -0.8159
 4930TIP3    H136349   1.685   5.000   2.510 -2.0144  1.9188 -1.5199
 4930TIP3    H236350   1.799   4.930   2.438 -2.3600 -1.6471  1.1156
 4931TIP3   OH236351   3.830   1.096   8.225  0.1377 -0.0969  0.2308
 4931TIP3    H136352   3.835   1.061   8.314 -1.5541  1.9282  1.1999
 4931TIP3    H236353   3.763   1.043   8.182 -1.4512  0.9554  1.2755
 4932TIP3   OH236354   1.295   4.264   1.961  0.2808 -0.3534 -0.2638
 4932TIP3    H136355   1.217   4.227   1.920 -0.0680  2.2410 -2.2417
 4932TIP3    H236356   1.351   4.289   1.888  1.0808  1.5983  0.9298
 4933TIP3   OH236357   5.193   2.763   2.013 -0.3667 -0.1944  0.1001
 4933TIP3    H136358   5.200   2.693   2.077 -1.4719 -0.5269 -0.1187
 4933TIP3    H236359   5.244   2.835   2.049 -0.1827 -0.7148  0.8845
 4934TIP3   OH236360   3.828   0.615   0.396  0.0212  0.0309  0.0032
 4934TIP3    H136361   3.806   0.522   0.406  2.3627 -0.5326  0.4637
 4934TIP3    H236362   3.762   0.661   0.447 -0.2163 -1.4904  1.1319
 4935TIP3   OH236363   3.714   2.141   0.223  0.1141 -0.3133 -0.0112
 4935TIP3    H136364   3.630   2.181   0.203  0.1471  0.1372  0.7354
 4935TIP3    H236365   3.695   2.047   0.227 -0.1772 -0.2917 -0.6707
 4936TIP3   OH236366   4.352   3.910   7.396 -0.1060 -0.0849  0.1056
 4936TIP3    H136367   4.378   3.923   7.487  0.8247 -2.5464  0.2669
 4936TIP3    H236368   4.330   3.998   7.364 -0.3694  0.8405  2.6479
 4937TIP3   OH236369   3.651   3.449   1.265 -0.1045 -0.6285 -0.0200
 4937TIP3    H136370   3.577   3.442   1.326  0.7880 -0.8213  1.0869
 4937TIP3    H236371   3.688   3.361   1.263 -0.1523 -0.6315 -0.8980
 4938TIP3   OH236372   3.681   3.282   0.111  0.0567  0.3434  0.0286
 4938TIP3    H136373   3.672   3.202   0.164  0.1418  0.3821  0.1017
 4938TIP3    H236374   3.767   3.274   0.070  0.7433  1.1115  1.2409
 4939TIP3   OH236375   0.740   5.095   8.313  0.2855 -0.4442 -0.2999
 4939TIP3    H136376   0.731   5.017   8.259 -1.1065  0.2802 -1.1670
 4939TIP3    H236377   0.823   5.134   8.285  0.2464 -0.8041 -0.9305
 4940TIP3   OH236378   2.197   6.061   7.402 -0.4017  0.0652  0.4219
 4940TIP3    H136379   2.130   6.032   7.341  0.0820 -1.0901  0.4293
 4940TIP3    H236380   2.276   6.070   7.349  0.1299 -1.3625  0.9213
 4941TIP3   OH236381   4.917   3.158   6.702 -0.0874  0.4787 -0.9741
 4941TIP3    H136382   4.982   3.144   6.771 -1.1194 -0.5948 -0.1900
 4941TIP3    H236383   4.927   3.083   6.644 -0.6067  0.3248 -0.8669
 4942TIP3   OH236384   6.781   2.279   6.933  0.0799 -0.2058  0.8498
 4942TIP3    H136385   6.839   2.225   6.879 -1.9142 -2.2661  0.6357
 4942TIP3    H236386   6.710   2.305   6.875 -0.2181  0.6953  1.5749
 4943TIP3   OH236387   5.921   4.545   0.201  0.1090 -0.4807  0.2182
 4943TIP3    H136388   5.869   4.592   0.135  1.7317  0.9836 -0.0863
 4943TIP3    H236389   5.974   4.483   0.150  0.0094 -0.6752  0.3487
 4944TIP3   OH236390   2.895   6.745   6.414 -0.4580 -0.0965  0.3849
 4944TIP3    H136391   2.954   6.766   6.487 -1.0613 -1.0741  1.1766
 4944TIP3    H236392   2.825   6.693   6.454 -2.6933  2.2135 -0.2341
 4945TIP3   OH236393   1.842   0.775   1.824 -0.1554  0.2859  0.5561
 4945TIP3    H136394   1.900   0.731   1.886  1.0780  2.3301  0.9385
 4945TIP3    H236395   1.764   0.719   1.822  0.6454 -1.0117  2.2502
 4946TIP3   OH236396   0.611   0.211   8.433 -0.4067  0.4835  0.2194
 4946TIP3    H136397   0.549   0.143   8.407  1.7777 -2.3727  1.8124
 4946TIP3    H236398   0.572   0.250   8.511 -0.9174 -0.1823  0.3047
 4947TIP3   OH236399   3.670   1.341   0.394 -0.4868  0.4465 -0.1394
 4947TIP3    H136400   3.628   1.357   0.309 -2.2176  1.5458  0.8876
 4947TIP3    H236401   3.624   1.265   0.429  2.0864 -1.8503 -1.2960
 4948TIP3   OH236402   6.040   4.792   0.354 -0.3108 -0.3703 -0.3665
 4948TIP3    H136403   5.991   4.870   0.378 -1.5282 -0.2322 -2.9016
 4948TIP3    H236404   5.976   4.721   0.360 -0.3860 -0.4789 -1.9883
 4949TIP3   OH236405   5.328   1.450   8.162  0.1650 -0.6431  0.4950
 4949TIP3    H136406   5.401   1.388   8.153 -0.0656 -0.7391 -1.1427
 4949TIP3    H236407   5.352   1.524   8.106 -0.8153 -0.5192  0.2040
 4950TIP3   OH236408   2.238   2.961   7.414  0.2340  0.9984 -0.0621
 4950TIP3    H136409   2.263   2.961   7.322 -2.9975 -4.3680 -1.3562
 4950TIP3    H236410   2.148   2.995   7.415 -0.0819  0.2083  0.8852
 4951TIP3   OH236411   4.294   2.457   0.342  0.6993  0.6016  0.1514
 4951TIP3    H136412   4.289   2.475   0.248 -2.4680 -1.3221 -0.2144
 4951TIP3    H236413   4.339   2.373   0.348 -1.6728 -0.8000 -0.0727
 4952TIP3   OH236414   0.925   4.936   0.316  0.3089 -0.3592 -0.2662
 4952TIP3    H136415   0.890   4.873   0.379 -1.4031  1.0296  0.2493
 4952TIP3    H236416   0.944   4.883   0.238  1.1710 -1.8679  0.9088
 4953TIP3   OH236417   2.995   4.461   7.427 -0.3681 -0.3774  0.2627
 4953TIP3    H136418   2.999   4.496   7.339  0.7908  0.0161  0.4548
 4953TIP3    H236419   3.018   4.369   7.418 -3.7681 -1.3056 -0.2919
 4954TIP3   OH236420   0.097   3.354   8.296 -0.0098 -0.0349  0.1587
 4954TIP3    H136421   0.002   3.342   8.303  0.0869 -0.6938  0.3618
 4954TIP3    H236422   0.131   3.268   8.273  0.4394  0.4337 -0.9944
 4955TIP3   OH236423   6.818   3.567   8.536 -0.3382 -0.1293 -0.1468
 4955TIP3    H136424   6.907   3.598   8.552 -0.2325 -0.0215 -0.9318
 4955TIP3    H236425   6.804   3.581   8.443 -1.4020  0.4318  0.0824
 4956TIP3   OH236426   6.472   1.553   1.068  0.4347 -0.3702 -0.0794
 4956TIP3    H136427   6.529   1.524   1.139  0.8928  0.3470 -0.1408
 4956TIP3    H236428   6.471   1.480   1.006 -0.0293 -1.0363  0.6828
 4957TIP3   OH236429   5.194   1.192   0.873  0.3132 -0.4845  0.6959
 4957TIP3    H136430   5.220   1.282   0.893 -0.8264 -0.1346  0.6799
 4957TIP3    H236431   5.276   1.145   0.860  0.9087  0.8911 -0.7563
 4958TIP3   OH236432   6.273   2.337   0.583  0.1763  0.3479  0.1101
 4958TIP3    H136433   6.319   2.387   0.650 -1.8201  0.3039  1.6066
 4958TIP3    H236434   6.237   2.262   0.630 -0.2833 -0.3476 -1.2788
 4959TIP3   OH236435   3.712   0.515   6.688 -0.0660 -0.0632 -0.1359
 4959TIP3    H136436   3.748   0.600   6.712 -0.9706  0.5080 -0.7078
 4959TIP3    H236437   3.711   0.515   6.593 -2.1565  0.2510 -0.1721
 4960TIP3   OH236438   4.172   5.240   6.841 -0.1261 -0.1470  0.2304
 4960TIP3    H136439   4.087   5.283   6.852 -0.7986 -1.4979  0.5426
 4960TIP3    H236440   4.229   5.308   6.805 -1.9758  0.1264 -2.4274
 4961TIP3   OH236441   3.278   3.034   2.073 -0.0797 -0.2567  0.1620
 4961TIP3    H136442   3.235   3.024   2.158  1.2658 -1.5612  0.7340
 4961TIP3    H236443   3.212   3.076   2.017 -0.7975  1.2463  2.0050
 4962TIP3   OH236444   5.903   4.167   8.055 -0.6542  0.4674 -0.1456
 4962TIP3    H136445   5.891   4.223   8.131 -0.7386 -0.2939  0.4110
 4962TIP3    H236446   5.980   4.202   8.011 -0.5849  0.8918  0.3126
 4963TIP3   OH236447   5.655   0.350   6.857  0.7866  0.0280 -0.4914
 4963TIP3    H136448   5.723   0.390   6.803  0.7692  0.1328 -0.4375
 4963TIP3    H236449   5.615   0.424   6.903  0.1719  0.0559 -1.0464
 4964TIP3   OH236450   2.326   0.512   7.370 -0.1219  0.1408  0.1372
 4964TIP3    H136451   2.397   0.449   7.379  0.5475  0.6195 -1.4452
 4964TIP3    H236452   2.346   0.580   7.434 -1.0975 -1.3824  2.1967
 4965TIP3   OH236453   3.465   3.690   0.660 -0.7462 -0.3968  0.4393
 4965TIP3    H136454   3.431   3.680   0.571  0.8527  2.7334 -0.6454
 4965TIP3    H236455   3.401   3.746   0.704 -0.5212 -0.2965  0.6366
 4966TIP3   OH236456   6.597   0.524   6.920 -0.2469 -0.4331  0.4620
 4966TIP3    H136457   6.666   0.564   6.867 -1.1968  0.3544 -0.2359
 4966TIP3    H236458   6.529   0.591   6.925 -0.5108 -0.7768  2.0724
 4967TIP3   OH236459   5.866   4.812   2.023 -0.0148  0.4077 -0.4389
 4967TIP3    H136460   5.833   4.748   2.086  0.4903 -0.4103 -0.9749
 4967TIP3    H236461   5.958   4.825   2.048 -0.0519  0.7362 -0.4771
 4968TIP3   OH236462   3.373   4.286   8.496  0.4817  0.7463 -0.2840
 4968TIP3    H136463   3.442   4.264   8.433  1.0032 -0.0932  0.5496
 4968TIP3    H236464   3.364   4.381   8.489  0.9214  0.7366 -1.2156
 4969TIP3   OH236465   5.012   5.847   0.489 -0.0163  0.5981  0.0075
 4969TIP3    H136466   5.088   5.887   0.529 -0.9525  1.7193  0.7336
 4969TIP3    H236467   4.991   5.904   0.415 -1.0285  1.1810  0.7167
 4970TIP3   OH236468   2.694   1.276   0.814 -0.1732 -0.6825  0.5260
 4970TIP3    H136469   2.753   1.224   0.867 -0.4818 -0.2458  1.3118
 4970TIP3    H236470   2.751   1.327   0.757  0.1486 -1.3828  0.2130
 4971TIP3   OH236471   0.980   2.932   7.578  0.2225 -0.1231  0.1760
 4971TIP3    H136472   0.985   2.905   7.669  0.7664 -0.7099 -0.0181
 4971TIP3    H236473   0.923   2.867   7.537 -1.3136  1.0215  0.3943
 4972TIP3   OH236474   5.658   1.707   0.901  0.1119  0.2814 -0.1723
 4972TIP3    H136475   5.682   1.690   0.810 -3.5785 -1.6514 -0.9806
 4972TIP3    H236476   5.705   1.641   0.951 -0.6707 -1.0881 -1.1899
 4973TIP3   OH236477   1.289   0.293   7.807  0.3023 -0.8140 -0.0118
 4973TIP3    H136478   1.250   0.301   7.894 -0.2337 -0.8609 -0.2509
 4973TIP3    H236479   1.375   0.336   7.816 -0.6290  1.1635 -0.0175
 4974TIP3   OH236480   6.321   5.316   7.743 -0.6876 -0.5603  0.3265
 4974TIP3    H136481   6.378   5.335   7.669 -0.5764  0.4450  0.6580
 4974TIP3    H236482   6.265   5.245   7.713  0.8849 -1.7328  0.0765
 4975TIP3   OH236483   4.889   2.677   0.605 -0.4020  0.3790  0.2055
 4975TIP3    H136484   4.982   2.679   0.580 -0.3288 -0.1257  0.4165
 4975TIP3    H236485   4.867   2.768   0.624  0.0807  0.4867  0.2566
 4976TIP3   OH236486   0.660   6.287   1.142  0.6153  0.8442  0.2564
 4976TIP3    H136487   0.608   6.212   1.113 -0.2759 -0.1001  3.7829
 4976TIP3    H236488   0.750   6.258   1.134  0.3201 -0.1720  0.4725
 4977TIP3   OH236489   6.456   4.765   0.525 -0.0535  0.3686 -0.3000
 4977TIP3    H136490   6.484   4.842   0.475 -0.7934 -0.1713 -1.5776
 4977TIP3    H236491   6.533   4.709   0.527  0.3960  0.9885  0.3702
 4978TIP3   OH236492   1.106   3.207   1.879  0.0687 -0.4660 -0.1300
 4978TIP3    H136493   1.131   3.289   1.922  0.8373 -1.0808  0.6315
 4978TIP3    H236494   1.172   3.144   1.907 -0.3406 -1.2820 -0.9462
 4979TIP3   OH236495   5.358   1.778   1.747 -0.0910  0.0373  0.2620
 4979TIP3    H136496   5.388   1.691   1.772 -0.2259  0.0211  0.3696
 4979TIP3    H236497   5.276   1.790   1.794 -0.6112 -0.1918 -0.5719
 4980TIP3   OH236498   2.040   0.033   7.836  0.5254  0.3182 -0.1747
 4980TIP3    H136499   2.099   0.022   7.762 -1.2657 -0.5255 -1.5621
 4980TIP3    H236500   2.070  -0.030   7.901  1.5463  0.4032 -0.5526
 4981TIP3   OH236501   3.886   4.198   0.016 -0.0282 -0.1747 -0.9419
 4981TIP3    H136502   3.876   4.286   0.054 -1.0632 -0.7965  0.3020
 4981TIP3    H236503   3.827   4.198  -0.059 -1.5877 -0.4270  0.2417
 4982TIP3   OH236504   5.182   3.494   2.062  0.1965  0.0158 -0.2432
 4982TIP3    H136505   5.106   3.443   2.091  0.1201  0.8303  1.0901
 4982TIP3    H236506   5.187   3.478   1.968 -0.8625 -1.0550 -0.1484
 4983TIP3   OH236507   0.554   5.509   8.270  1.2002 -0.6258  0.1338
 4983TIP3    H136508   0.532   5.426   8.228 -0.3712 -0.8823  1.3556
 4983TIP3    H236509   0.637   5.493   8.315  2.4969 -0.5739 -2.0954
 4984TIP3   OH236510   2.121   6.813   1.660  0.4398  0.0404 -0.3039
 4984TIP3    H136511   2.080   6.764   1.731  3.2324 -0.8936  0.7978
 4984TIP3    H236512   2.188   6.866   1.703  0.3524  1.6127 -1.9836
 4985TIP3   OH236513   1.798   3.794   1.995 -0.1998 -0.3471  0.4949
 4985TIP3    H136514   1.781   3.700   1.997 -0.1407 -0.3638  0.2732
 4985TIP3    H236515   1.880   3.802   1.945  0.4284 -0.2665  1.5118
 4986TIP3   OH236516   6.662   6.771   7.383 -0.5202  0.0555 -0.7801
 4986TIP3    H136517   6.727   6.701   7.381  0.1896  0.6591  0.1958
 4986TIP3    H236518   6.581   6.729   7.353  0.1242 -0.9080 -1.2440
 4987TIP3   OH236519   3.336   3.316   8.424 -0.4812  0.2431  0.1338
 4987TIP3    H136520   3.430   3.318   8.406 -0.7856  0.9054 -1.4878
 4987TIP3    H236521   3.309   3.408   8.425 -1.2154  0.0414 -0.0159
 4988TIP3   OH236522   6.586   4.423   0.553 -0.5758  0.2257 -0.4496
 4988TIP3    H136523   6.530   4.354   0.590  0.8243 -0.7521 -0.0632
 4988TIP3    H236524   6.625   4.466   0.629 -0.7374  0.8437 -0.7135
 4989TIP3   OH236525   3.138   4.995   8.247  0.1529  0.2125  0.4693
 4989TIP3    H136526   3.218   4.943   8.257 -0.9030 -1.3335  1.2727
 4989TIP3    H236527   3.169   5.085   8.242  1.9970 -0.3977 -0.0332
 4990TIP3   OH236528   1.225   0.041   7.962  0.0578  0.3494 -0.1522
 4990TIP3    H136529   1.191  -0.048   7.977 -0.1759  0.2523 -1.1696
 4990TIP3    H236530   1.320   0.031   7.970  0.1591 -0.3447 -1.8177
 4991TIP3   OH236531   5.088   6.780   1.398 -0.0132 -0.3619  0.3044
 4991TIP3    H136532   5.161   6.816   1.448  0.6081  1.7373 -1.9217
 4991TIP3    H236533   5.120   6.695   1.368  1.6004  0.5148 -0.6350
 4992TIP3   OH236534   6.242   5.054   8.346 -0.0967 -0.1256  0.3516
 4992TIP3    H136535   6.292   5.126   8.386 -0.0001 -1.4115  2.7173
 4992TIP3    H236536   6.153   5.066   8.380 -0.1516 -0.9285  0.4900
 4993TIP3   OH236537   0.856   3.829   6.570  0.0508  0.4782  0.0948
 4993TIP3    H136538   0.921   3.851   6.636  1.1012  0.2222 -0.8192
 4993TIP3    H236539   0.810   3.753   6.605 -0.5522  1.3507  1.2580
 4994TIP3   OH236540   0.753   1.522   7.316  0.2508 -0.6146 -0.1683
 4994TIP3    H136541   0.844   1.533   7.287  0.6742 -1.2880  0.8309
 4994TIP3    H236542   0.760   1.468   7.395 -0.9396  0.2483  0.5568
 4995TIP3   OH236543   4.291   3.025   8.182 -0.5006  0.0237  0.1099
 4995TIP3    H136544   4.249   3.072   8.254 -1.5619  1.1389 -1.1831
 4995TIP3    H236545   4.380   3.059   8.179 -1.1513  1.7632 -0.5798
 4996TIP3   OH236546   2.647   4.129   0.178  0.1776 -0.2379 -0.7339
 4996TIP3    H136547   2.598   4.062   0.131  0.1351  0.6062 -1.9452
 4996TIP3    H236548   2.627   4.114   0.270 -4.1516  1.3812 -1.1834
 4997TIP3   OH236549   0.146   4.991   7.390 -0.1730  0.4669  0.0780
 4997TIP3    H136550   0.080   5.056   7.370  1.0303  1.7639  0.1773
 4997TIP3    H236551   0.229   5.039   7.390  0.9008 -1.2641 -0.9382
 4998TIP3   OH236552   1.378   6.181   1.402 -0.6411  0.1772 -0.2607
 4998TIP3    H136553   1.368   6.275   1.391  1.5651  0.5057  0.0802
 4998TIP3    H236554   1.434   6.154   1.329  1.9050 -0.1495  1.6780
 4999TIP3   OH236555   5.246   3.897   0.805  0.1619 -0.0169 -0.0793
 4999TIP3    H136556   5.290   3.845   0.871  1.1064  2.0270  0.9726
 4999TIP3    H236557   5.314   3.918   0.741 -0.1367  0.1971 -0.3327
 5000TIP3   OH236558   2.554   1.495   8.239 -0.1177 -0.4025  0.1425
 5000TIP3    H136559   2.549   1.580   8.283  0.4615 -0.3281  0.0717
 5000TIP3    H236560   2.469   1.485   8.198 -1.0090 -0.8710  2.0046
 5001TIP3   OH236561   2.663   1.097   8.304 -0.2987 -0.1474 -0.2328
 5001TIP3    H136562   2.701   1.101   8.392  0.8619  0.3173 -0.7300
 5001TIP3    H236563   2.736   1.119   8.246 -1.4335  1.1402 -1.2239
 5002TIP3   OH236564   6.467   6.100   8.205  0.3130  0.2089  0.3700
 5002TIP3    H136565   6.481   6.033   8.272 -2.5748 -0.8580  0.0635
 5002TIP3    H236566   6.458   6.181   8.255 -1.6326 -0.5386  1.3599
 5003TIP3   OH236567   0.534   0.164   0.066 -0.0150  0.2789  0.0393
 5003TIP3    H136568   0.612   0.116   0.095 -1.2962 -1.7715  0.2568
 5003TIP3    H236569   0.555   0.256   0.082  2.0155 -0.2864  0.8937
 5004TIP3   OH236570   5.186   5.031   1.522 -0.5365  0.5089 -0.7331
 5004TIP3    H136571   5.114   4.989   1.475  0.8658 -0.0100 -2.5297
 5004TIP3    H236572   5.200   5.113   1.475  0.1160  0.5563 -0.4586
 5005TIP3   OH236573   2.570   1.176   6.029 -0.5580  0.2506  0.4411
 5005TIP3    H136574   2.612   1.246   6.079  1.2896 -0.4980  0.0157
 5005TIP3    H236575   2.548   1.109   6.094  1.4909 -0.5512  0.3908
 5006TIP3   OH236576   3.948   3.104   6.401  0.0918  0.0200 -0.2375
 5006TIP3    H136577   3.949   3.177   6.463 -0.4539  0.1885 -0.4181
 5006TIP3    H236578   3.901   3.138   6.325  0.9842 -0.0965 -0.8566
 5007TIP3   OH236579   6.723   2.544   2.110 -0.5759  0.0093  0.3045
 5007TIP3    H136580   6.683   2.629   2.132 -0.3010 -0.1136  1.3235
 5007TIP3    H236581   6.696   2.486   2.181  1.2454 -0.1156  0.9730
 5008TIP3   OH236582   3.682   0.139   8.336 -0.0771 -0.6773  0.1066
 5008TIP3    H136583   3.618   0.126   8.266 -0.8254  2.0299  0.1532
 5008TIP3    H236584   3.718   0.052   8.352 -0.1468 -1.4873 -3.3432
 5009TIP3   OH236585   6.679   0.904   7.488  0.4814 -0.0608  0.5412
 5009TIP3    H136586   6.618   0.866   7.425  1.2729 -0.0351 -0.2617
 5009TIP3    H236587   6.641   0.884   7.574  0.2733 -1.6514  0.1117
 5010TIP3   OH236588   5.833   4.673   8.603  0.1522  0.4163 -0.1587
 5010TIP3    H136589   5.815   4.756   8.560 -0.7186 -0.0251 -0.6899
 5010TIP3    H236590   5.924   4.654   8.584  1.7215  3.2243  3.4171
 5011TIP3   OH236591   0.210   6.470   1.293  0.8778 -0.1503 -0.3191
 5011TIP3    H136592   0.209   6.562   1.267  2.6491 -0.3504 -1.2396
 5011TIP3    H236593   0.126   6.435   1.263  1.1169  0.6551 -2.0649
 5012TIP3   OH236594   3.399   0.508   0.053  0.1124 -0.2940 -0.5002
 5012TIP3    H136595   3.346   0.575   0.009 -2.1727 -1.4854  0.2435
 5012TIP3    H236596   3.404   0.437  -0.011  1.0672 -0.0870 -0.6603
 5013TIP3   OH236597   4.811   4.586   8.483 -0.2386  0.3918 -0.5788
 5013TIP3    H136598   4.723   4.551   8.495 -0.8602  1.7872 -0.8273
 5013TIP3    H236599   4.821   4.649   8.555  0.5295  0.2930 -0.5959
 5014TIP3   OH236600   0.423   2.890   0.647  0.1592 -0.0803  0.1193
 5014TIP3    H136601   0.470   2.846   0.717 -0.4390  0.0682  0.6258
 5014TIP3    H236602   0.342   2.839   0.637  0.4089 -0.3384 -0.7383
 5015TIP3   OH236603   6.673   0.126   1.665  0.1392 -0.0312 -0.2201
 5015TIP3    H136604   6.664   0.031   1.653 -2.0718 -0.0279  0.9599
 5015TIP3    H236605   6.685   0.137   1.759 -1.8146  0.9465 -0.0475
 5016TIP3   OH236606   6.616   2.895   1.225  0.1591 -0.1677  0.0002
 5016TIP3    H136607   6.686   2.957   1.203 -1.0802  0.9463 -0.9433
 5016TIP3    H236608   6.610   2.898   1.320  0.3365  0.9180 -0.0097
 5017TIP3   OH236609   1.779   5.591   6.908  0.4841  0.6994  0.1888
 5017TIP3    H136610   1.765   5.500   6.880 -0.3698  0.9895 -0.3790
 5017TIP3    H236611   1.777   5.587   7.003 -3.6247  0.6068  0.2941
 5018TIP3   OH236612   2.021   2.391   0.822  0.1545 -0.1917  0.1337
 5018TIP3    H136613   2.061   2.310   0.853 -0.9223 -0.3996  1.0312
 5018TIP3    H236614   1.943   2.402   0.875 -1.7956 -0.5295 -2.4865
 5019TIP3   OH236615   4.992   4.572   0.356 -0.0780 -0.0810  0.1436
 5019TIP3    H136616   4.927   4.628   0.315 -1.4485 -0.5603  1.5645
 5019TIP3    H236617   5.000   4.497   0.298 -0.8027 -0.0285 -0.0248
 5020TIP3   OH236618   3.335   4.376   2.179  0.4008  0.1873  0.1388
 5020TIP3    H136619   3.356   4.427   2.101 -2.6017  0.2178 -0.7877
 5020TIP3    H236620   3.323   4.441   2.248  0.1922  0.4107 -0.1068
 5021TIP3   OH236621   1.482   0.197   8.658  0.1816  0.4976  0.4641
 5021TIP3    H136622   1.428   0.128   8.696 -0.9455 -0.0980 -2.0178
 5021TIP3    H236623   1.424   0.273   8.655  0.4310  0.6898  0.4619
 5022TIP3   OH236624   4.298   0.672   0.790 -0.7216  0.6007  0.1612
 5022TIP3    H136625   4.228   0.737   0.782 -0.0322  2.1715  4.1440
 5022TIP3    H236626   4.313   0.666   0.885  1.4722 -3.0814 -0.2527
 5023TIP3   OH236627   3.264   1.606   5.908  0.0640 -0.5905 -0.1300
 5023TIP3    H136628   3.318   1.550   5.964  1.7618 -1.3141 -2.3511
 5023TIP3    H236629   3.240   1.549   5.834  1.4711  1.3896 -2.2493
 5024TIP3   OH236630   5.599   1.955   7.203  0.1790  0.3486  0.2495
 5024TIP3    H136631   5.615   1.867   7.167  0.1761  0.7972 -0.9116
 5024TIP3    H236632   5.527   1.943   7.264  0.3128 -0.4952  0.2623
 5025TIP3   OH236633   4.858   6.489   8.130  0.4066  0.4964 -0.1927
 5025TIP3    H136634   4.861   6.533   8.044  0.1891  0.5900 -0.1522
 5025TIP3    H236635   4.933   6.429   8.128  0.1465  0.1769 -0.6215
 5026TIP3   OH236636   2.704   5.122   6.736  0.2406 -0.0466  0.5014
 5026TIP3    H136637   2.700   5.068   6.814  0.0867  0.2495  0.7041
 5026TIP3    H236638   2.795   5.153   6.732  0.3310 -0.3288  0.3783
 5027TIP3   OH236639   6.050   2.191   8.306 -0.6116 -0.0110  0.0108
 5027TIP3    H136640   5.959   2.164   8.303 -0.7939  0.6358 -0.4696
 5027TIP3    H236641   6.048   2.285   8.323 -0.0066 -0.1269  0.8089
 5028TIP3   OH236642   2.069   4.037   7.279 -0.1423  0.0035 -0.0488
 5028TIP3    H136643   2.112   4.121   7.268  1.1295 -0.5590  0.4699
 5028TIP3    H236644   2.029   4.019   7.194  2.3866 -0.3856 -1.2370
 5029TIP3   OH236645   1.725   0.587   8.658  0.3606  0.2098 -0.2464
 5029TIP3    H136646   1.646   0.533   8.666  0.4373  0.1231 -0.0832
 5029TIP3    H236647   1.736   0.627   8.744 -0.0875  1.0348 -0.5589
 5030TIP3   OH236648   2.908   6.809   0.720 -0.6750  0.4340  0.1458
 5030TIP3    H136649   2.996   6.846   0.717 -0.6345  0.4733  1.3158
 5030TIP3    H236650   2.868   6.836   0.637  0.0613  1.2985  0.0554
 5031TIP3   OH236651   1.041   2.375   6.926 -0.4883 -0.2360 -0.2731
 5031TIP3    H136652   1.003   2.423   6.852  1.2464  0.0893 -0.9935
 5031TIP3    H236653   1.124   2.419   6.943  1.1497 -2.8829 -0.9125
 5032TIP3   OH236654   6.499   6.735   7.703  0.0188 -0.1413 -0.1184
 5032TIP3    H136655   6.427   6.672   7.704 -0.8056  0.7189  2.3365
 5032TIP3    H236656   6.482   6.790   7.627 -2.5048  0.6286  0.9176
 5033TIP3   OH236657   1.132   1.712   1.115  0.0792 -0.3364  0.5116
 5033TIP3    H136658   1.153   1.742   1.027 -1.0862  4.0250  1.4525
 5033TIP3    H236659   1.093   1.789   1.158 -1.7766 -2.9563  4.0667
 5034TIP3   OH236660   6.242   0.975   0.392 -0.2475  0.4630 -0.5697
 5034TIP3    H136661   6.168   0.995   0.334 -0.1742  0.2456 -0.7397
 5034TIP3    H236662   6.215   1.008   0.478 -1.5077 -1.6713 -0.0822
 5035TIP3   OH236663   6.180   1.006   0.656  0.2965 -0.0779 -0.0742
 5035TIP3    H136664   6.251   1.068   0.673 -0.4045  0.4320  1.0867
 5035TIP3    H236665   6.224   0.920   0.658  1.0042  0.2704 -0.1184
 5036TIP3   OH236666   5.407   3.652   8.496 -0.7053  0.3659  0.2003
 5036TIP3    H136667   5.357   3.578   8.463 -0.6241  0.1935  0.4588
 5036TIP3    H236668   5.395   3.649   8.591  1.1189 -0.6715  0.4527
 5037TIP3   OH236669   5.666   4.886   8.495  0.5233  0.4122 -0.2216
 5037TIP3    H136670   5.587   4.865   8.446  0.5580 -0.1021 -0.0632
 5037TIP3    H236671   5.707   4.957   8.446 -0.7720  1.6894  0.4533
 5038TIP3   OH236672   0.440   2.621   7.799 -0.5056 -0.1372 -0.2928
 5038TIP3    H136673   0.351   2.599   7.773 -0.1416 -0.5797 -1.2179
 5038TIP3    H236674   0.443   2.717   7.798 -0.6756 -0.1270 -1.3708
 5039TIP3   OH236675   0.294   4.850   1.422  0.2067 -0.2742 -0.4204
 5039TIP3    H136676   0.234   4.913   1.463  0.0101 -0.1133 -0.9392
 5039TIP3    H236677   0.357   4.829   1.490  0.9092  1.2939 -0.5454
 5040TIP3   OH236678   1.389   3.953   8.063  0.4974  0.3982  0.2948
 5040TIP3    H136679   1.303   3.961   8.022 -0.0071  1.2154  1.4293
 5040TIP3    H236680   1.447   3.927   7.992 -0.2283  2.2594 -1.0743
 5041TIP3   OH236681   5.000   0.390   0.494  0.4358 -0.1407 -0.5393
 5041TIP3    H136682   5.090   0.417   0.509  0.1543  0.6942 -0.3122
 5041TIP3    H236683   4.984   0.410   0.402  0.1167  0.8424 -0.2860
 5042TIP3   OH236684   2.834   5.424   7.576 -0.2582  0.1222  0.7301
 5042TIP3    H136685   2.786   5.451   7.498  0.5751  0.3099  0.2753
 5042TIP3    H236686   2.869   5.338   7.554  2.7471  1.5163 -0.3974
 5043TIP3   OH236687   0.538   2.286   8.049  0.1574 -0.0582  0.2297
 5043TIP3    H136688   0.463   2.236   8.017  1.0673 -0.2531 -1.7834
 5043TIP3    H236689   0.564   2.242   8.129 -1.7604 -0.0704  0.9070
 5044TIP3   OH236690   5.912   4.272   2.762  0.4008 -0.6862 -0.1794
 5044TIP3    H136691   5.870   4.288   2.847 -0.9173 -1.1045 -0.7178
 5044TIP3    H236692   5.846   4.298   2.698  0.4863 -2.5133 -1.0725
 5045TIP3   OH236693   6.230   2.248   6.924  0.4479  0.1046 -0.4402
 5045TIP3    H136694   6.227   2.289   6.837 -0.0176 -1.1498 -1.0407
 5045TIP3    H236695   6.271   2.163   6.908  0.2667 -0.1778  0.5613
 5046TIP3   OH236696   2.222   3.712   6.754  0.0780 -0.5322  0.6179
 5046TIP3    H136697   2.184   3.731   6.668 -1.7418 -0.8572  1.3226
 5046TIP3    H236698   2.149   3.718   6.815  1.1269 -1.3620  2.0180
 5047TIP3   OH236699   1.695   4.804   6.895  0.0397 -0.1229  0.2190
 5047TIP3    H136700   1.714   4.850   6.813 -0.3977 -1.0582 -0.4286
 5047TIP3    H236701   1.624   4.855   6.934  1.7574  1.6508  1.1832
 5048TIP3   OH236702   1.820   6.459   1.792  0.2649 -0.7888  0.0779
 5048TIP3    H136703   1.740   6.454   1.845 -0.4327 -1.1726 -0.9626
 5048TIP3    H236704   1.796   6.516   1.719  1.4577  0.3756  0.5585
 5049TIP3   OH236705   4.053   4.480   7.702  0.0475 -0.8010  0.1784
 5049TIP3    H136706   4.055   4.508   7.793 -1.2844 -0.2574  0.0589
 5049TIP3    H236707   4.046   4.562   7.652  2.0554 -0.9932 -0.5072
 5050TIP3   OH236708   2.394   3.967   2.127  0.2135 -0.3424  0.2503
 5050TIP3    H136709   2.459   3.897   2.129 -0.7649 -1.2862  0.2318
 5050TIP3    H236710   2.445   4.048   2.127  1.4113 -1.0582 -1.0133
 5051TIP3   OH236711   3.364   4.254   1.727  0.1671 -0.6220  0.3849
 5051TIP3    H136712   3.282   4.302   1.719  0.7993  0.3583 -0.3563
 5051TIP3    H236713   3.362   4.191   1.655  0.1838 -0.4054  0.1938
 5052TIP3   OH236714   0.574   4.038   1.834  1.1247 -0.3752  0.2817
 5052TIP3    H136715   0.596   3.971   1.769  0.6135 -0.5614  0.2946
 5052TIP3    H236716   0.553   4.115   1.783  2.2402 -0.0564  0.2838
 5053TIP3   OH236717   0.369   3.616   0.148  0.2966  0.5078 -0.5391
 5053TIP3    H136718   0.367   3.693   0.204 -0.8966 -0.1506  0.3718
 5053TIP3    H236719   0.457   3.580   0.158  0.2678  0.7195  0.4826
 5054TIP3   OH236720   2.198   6.007   6.597  0.1115  0.1799  0.0470
 5054TIP3    H136721   2.108   5.996   6.566  0.6023  0.6336 -1.6702
 5054TIP3    H236722   2.241   6.057   6.527  1.3584  1.1433  1.4509
 5055TIP3   OH236723   1.590   2.730   1.797  0.7495 -0.2450  0.2903
 5055TIP3    H136724   1.503   2.724   1.757  0.3670 -1.1606  1.1797
 5055TIP3    H236725   1.651   2.734   1.724  0.1169 -2.3131 -0.4318
 5056TIP3   OH236726   6.354   6.069   2.364  0.2329  0.3966 -0.1820
 5056TIP3    H136727   6.359   5.975   2.382 -1.6606  0.4372  0.8299
 5056TIP3    H236728   6.425   6.107   2.416  0.7215 -0.4243 -0.2293
 5057TIP3   OH236729   6.025   1.809   1.531  0.2962  0.4643  0.2509
 5057TIP3    H136730   5.947   1.769   1.494  0.0527  0.0953  1.1373
 5057TIP3    H236731   6.032   1.772   1.619 -0.7018  3.3758  1.6682
 5058TIP3   OH236732   4.704   2.778   2.037  0.1144 -0.6209  0.8150
 5058TIP3    H136733   4.667   2.727   1.965 -0.8535 -1.4784  1.8985
 5058TIP3    H236734   4.748   2.851   1.993 -2.7766  0.4306 -0.5776
 5059TIP3   OH236735   4.397   1.680   0.735 -0.0723 -0.0347 -0.8603
 5059TIP3    H136736   4.486   1.716   0.735 -0.7261  1.7127 -0.9450
 5059TIP3    H236737   4.408   1.588   0.713  1.8887 -0.3428  1.0429
 5060TIP3   OH236738   5.468   2.649   0.669 -0.2569  0.1598 -0.6213
 5060TIP3    H136739   5.479   2.742   0.690  0.2240  0.0553 -0.4024
 5060TIP3    H236740   5.375   2.640   0.650 -0.2637  0.7373 -0.8878
 5061TIP3   OH236741   2.036   5.268   7.247  0.3187 -0.1718  0.6640
 5061TIP3    H136742   1.993   5.235   7.326  1.3331 -1.3345  0.7599
 5061TIP3    H236743   2.116   5.215   7.240  0.4958  0.2722 -0.8557
 5062TIP3   OH236744   5.948   2.833   1.061  0.3287 -0.2204  0.4483
 5062TIP3    H136745   5.967   2.740   1.072 -0.7149 -0.2608  2.3887
 5062TIP3    H236746   5.909   2.839   0.973 -0.6800 -1.8276  0.7275
 5063TIP3   OH236747   4.178   4.833   8.350 -0.1952 -0.0334  0.0317
 5063TIP3    H136748   4.103   4.782   8.318  1.5079 -2.6542 -0.1257
 5063TIP3    H236749   4.240   4.767   8.381  2.1370  2.0031  0.0184
 5064TIP3   OH236750   3.988   6.360   8.127 -0.1754 -0.0254  0.1921
 5064TIP3    H136751   3.909   6.344   8.180 -0.6929 -2.4441 -1.1582
 5064TIP3    H236752   4.058   6.315   8.175 -0.2912 -0.6872 -0.2476
 5065TIP3   OH236753   1.858   6.388   1.324 -0.0308 -0.2531  0.3011
 5065TIP3    H136754   1.881   6.416   1.235 -1.6493  0.0666 -0.0339
 5065TIP3    H236755   1.851   6.293   1.318 -0.6717 -0.1882 -0.0557
 5066TIP3   OH236756   3.129   6.872   8.211  0.1862 -0.1746 -0.1468
 5066TIP3    H136757   3.106   6.780   8.224 -0.2252 -0.2606 -1.3340
 5066TIP3    H236758   3.102   6.891   8.121 -1.3826  1.5893  0.6273
 5067TIP3   OH236759   4.914   1.292   6.321 -0.1153 -0.7280 -0.1552
 5067TIP3    H136760   4.864   1.261   6.396 -0.9467  1.5022  0.2853
 5067TIP3    H236761   4.855   1.278   6.246 -1.2007  1.2887  0.2747
 5068TIP3   OH236762   6.656   0.918   6.932  0.4969 -0.2881 -0.0218
 5068TIP3    H136763   6.605   0.852   6.885  1.8597  0.3039 -2.4981
 5068TIP3    H236764   6.747   0.896   6.912  1.0068  1.8464 -0.2120
 5069TIP3   OH236765   2.922   2.429   8.039 -0.3414  0.4265 -0.5095
 5069TIP3    H136766   2.863   2.500   8.063  0.3011  0.7923  0.0269
 5069TIP3    H236767   2.975   2.414   8.118 -0.3937 -0.5789 -0.6460
 5070TIP3   OH236768   2.224   3.621   1.431  0.3250 -0.1249 -0.0384
 5070TIP3    H136769   2.290   3.572   1.381  3.6528  5.1385 -1.7546
 5070TIP3    H236770   2.253   3.615   1.522 -0.0536 -2.0958 -0.0114
 5071TIP3   OH236771   1.759   3.943   0.173  0.3233  0.0240  0.8037
 5071TIP3    H136772   1.798   3.903   0.096  0.3644  0.6556  0.4912
 5071TIP3    H236773   1.674   3.975   0.143  0.8841  1.4658  0.6531
 5072TIP3   OH236774   3.118   6.566   0.639  0.4419 -0.5229  0.0697
 5072TIP3    H136775   3.173   6.605   0.570 -1.0603  1.3613 -0.1838
 5072TIP3    H236776   3.043   6.531   0.591  0.8303 -2.0308  0.5139
 5073TIP3   OH236777   5.245   0.870   8.427 -0.1469  0.0681 -0.2238
 5073TIP3    H136778   5.168   0.837   8.473 -1.1307  1.1284 -1.0499
 5073TIP3    H236779   5.309   0.800   8.434 -2.2911 -2.3037 -2.4113
 5074TIP3   OH236780   0.687   0.079   1.149 -0.3618  0.5498 -0.3209
 5074TIP3    H136781   0.714   0.061   1.240  2.3767  0.2599 -1.1135
 5074TIP3    H236782   0.764   0.058   1.097 -1.6883  1.2806 -2.6951
 5075TIP3   OH236783   4.860   2.233   8.599  0.0661 -0.5993 -0.3568
 5075TIP3    H136784   4.904   2.148   8.599  1.7567  0.2319  0.1087
 5075TIP3    H236785   4.917   2.289   8.652 -2.0256  0.3334  1.0589
 5076TIP3   OH236786   5.555   0.058   2.473  0.0208 -0.3513 -0.0279
 5076TIP3    H136787   5.483  -0.003   2.491  0.3975 -1.2272 -1.3076
 5076TIP3    H236788   5.621   0.005   2.427  0.1013  1.1353 -1.7659
 5077TIP3   OH236789   3.464   1.824   8.410  0.1175  0.4963  0.3259
 5077TIP3    H136790   3.437   1.794   8.496 -0.2235  2.4957  0.9706
 5077TIP3    H236791   3.551   1.861   8.423  0.7289 -0.5472 -0.5370
 5078TIP3   OH236792   6.505   5.030   0.999 -0.0234 -0.0259 -0.0093
 5078TIP3    H136793   6.429   4.988   0.959  0.6332 -0.4447 -0.8501
 5078TIP3    H236794   6.502   5.120   0.966 -0.6407  0.2062  0.6645
 5079TIP3   OH236795   3.765   4.914   0.527  0.1933  0.1319 -0.4697
 5079TIP3    H136796   3.823   4.863   0.584 -0.3913  0.5671  0.5291
 5079TIP3    H236797   3.805   5.000   0.523 -0.2542  0.3685  0.0425
 5080TIP3   OH236798   2.960   2.240   1.677 -0.1101 -0.0270 -0.2899
 5080TIP3    H136799   2.905   2.218   1.752  1.7315  0.0334  1.1500
 5080TIP3    H236800   2.914   2.202   1.601 -1.0966 -1.7122  1.0882
 5081TIP3   OH236801   2.804   4.730   6.736 -0.1579  0.0293 -0.2222
 5081TIP3    H136802   2.776   4.638   6.729  0.0535  0.0520 -1.4867
 5081TIP3    H236803   2.853   4.733   6.818  0.7961 -1.2555 -0.7142
 5082TIP3   OH236804   1.038   1.967   6.714  0.3157 -0.5155  0.1153
 5082TIP3    H136805   1.111   1.998   6.769  0.0630 -0.3129  0.3395
 5082TIP3    H236806   1.011   1.885   6.755  0.6104 -0.7460 -0.1437
 5083TIP3   OH236807   2.256   5.829   8.480  0.4015 -0.0727 -0.5984
 5083TIP3    H136808   2.284   5.760   8.540 -0.4928 -0.3536 -0.5019
 5083TIP3    H236809   2.336   5.853   8.433  0.6010 -1.6826 -1.1571
 5084TIP3   OH236810   0.455   0.432   8.573 -0.3097  0.0113  0.4203
 5084TIP3    H136811   0.373   0.467   8.539 -0.1223  0.9499  0.9108
 5084TIP3    H236812   0.519   0.501   8.557  0.5007 -0.9069 -0.4129
 5085TIP3   OH236813   3.669   1.108   0.550  0.0749  0.1966  0.1527
 5085TIP3    H136814   3.645   1.138   0.637  1.7911 -0.7023  0.9965
 5085TIP3    H236815   3.596   1.053   0.522  0.9699 -2.4501  2.5893
 5086TIP3   OH236816   6.408   4.904   2.204 -0.6885  0.6543 -0.0669
 5086TIP3    H136817   6.370   4.868   2.284  0.1969  1.7480  0.8991
 5086TIP3    H236818   6.500   4.877   2.207 -0.3750  1.6664 -0.0995
 5087TIP3   OH236819   4.091   5.972   0.713 -0.5221  0.1633  0.1292
 5087TIP3    H136820   4.029   5.981   0.641 -0.8352 -1.4834  0.1503
 5087TIP3    H236821   4.171   5.939   0.672  0.1412  1.5889  0.2063
 5088TIP3   OH236822   6.871   2.025   7.197 -0.4257 -0.7336  0.3803
 5088TIP3    H136823   6.914   2.101   7.157 -0.0012 -0.9018  0.5166
 5088TIP3    H236824   6.900   1.951   7.144 -1.5141 -0.7087 -0.2867
 5089TIP3   OH236825   6.215   4.826   6.531 -0.1841  0.4868 -0.0067
 5089TIP3    H136826   6.232   4.742   6.488  0.3960  0.7593 -0.3174
 5089TIP3    H236827   6.177   4.801   6.616 -1.0237 -0.0568 -0.5214
 5090TIP3   OH236828   1.590   2.569   7.051  0.0965  0.3852 -0.0138
 5090TIP3    H136829   1.665   2.516   7.079  1.1159  1.4748 -0.6013
 5090TIP3    H236830   1.561   2.527   6.970 -0.8037 -0.8303  0.8986
 5091TIP3   OH236831   5.294   4.719   2.236 -0.4143  0.6384  0.2584
 5091TIP3    H136832   5.226   4.652   2.237 -0.9077  1.1235  0.0375
 5091TIP3    H236833   5.374   4.672   2.259 -1.1824  0.4612  3.0738
 5092TIP3   OH236834   3.541   6.146   6.581 -0.6029 -0.0049 -0.0628
 5092TIP3    H136835   3.598   6.171   6.508 -0.7878 -0.4654 -0.3645
 5092TIP3    H236836   3.579   6.191   6.657 -0.6624  0.8177 -0.5157
 5093TIP3   OH236837   5.239   3.422   0.215  0.1650 -0.1643 -0.0721
 5093TIP3    H136838   5.161   3.472   0.237  0.3619  0.7564 -1.3266
 5093TIP3    H236839   5.212   3.365   0.143  0.3944 -0.6061  0.1829
 5094TIP3   OH236840   0.634   1.191   7.134 -0.0193 -0.3421  0.2476
 5094TIP3    H136841   0.558   1.162   7.084  0.5704  0.8124 -1.4042
 5094TIP3    H236842   0.701   1.208   7.068  1.3669 -0.3963  1.5898
 5095TIP3   OH236843   0.983   2.292   6.407  0.2012  0.5109 -0.6054
 5095TIP3    H136844   1.046   2.338   6.352  1.5173  1.3205  1.4483
 5095TIP3    H236845   1.031   2.215   6.439 -0.0937  0.7384  0.4139
 5096TIP3   OH236846   3.788   4.949   2.007 -0.4045 -0.4242 -0.0249
 5096TIP3    H136847   3.798   4.854   2.001  1.1517 -0.3086  0.2788
 5096TIP3    H236848   3.726   4.962   2.079  1.7209 -1.2119  2.1236
 5097TIP3   OH236849   0.271   4.244   7.251  0.7291  0.7542  0.0592
 5097TIP3    H136850   0.223   4.276   7.327 -0.2573  0.7108 -0.5170
 5097TIP3    H236851   0.253   4.309   7.183 -0.5915 -0.5138 -0.8832
 5098TIP3   OH236852   0.163   5.559   8.389 -0.1262  0.0164 -0.0481
 5098TIP3    H136853   0.099   5.490   8.405  0.3479 -0.5159 -0.4091
 5098TIP3    H236854   0.150   5.584   8.298 -0.4092  0.5350  0.1264
 5099TIP3   OH236855   3.014   0.227   1.990 -0.4130 -0.4056  0.6513
 5099TIP3    H136856   3.016   0.255   2.082  0.3401 -0.7388  0.7397
 5099TIP3    H236857   3.102   0.195   1.973 -1.1136 -2.3611  0.4404
 5100TIP3   OH236858   0.406   4.780   1.691 -0.2021 -0.2077 -0.3771
 5100TIP3    H136859   0.322   4.799   1.732  0.7845  2.0668  0.8406
 5100TIP3    H236860   0.452   4.725   1.754  0.4280  1.3283  0.5489
 5101TIP3   OH236861   1.297   5.565   8.296  0.3045 -0.1014 -0.2170
 5101TIP3    H136862   1.232   5.564   8.367  0.0954  0.6676 -0.3868
 5101TIP3    H236863   1.338   5.479   8.301 -1.5522 -1.0904 -0.8496
 5102TIP3   OH236864   1.286   6.608   2.355 -0.5005 -0.2730  0.1208
 5102TIP3    H136865   1.239   6.601   2.272 -0.9959  1.3262  0.2254
 5102TIP3    H236866   1.263   6.529   2.403 -2.3929  0.0529 -0.1860
 5103TIP3   OH236867   1.428   5.578   1.072 -0.3006  0.0651 -0.3935
 5103TIP3    H136868   1.451   5.657   1.121  0.6568  0.9364 -2.1457
 5103TIP3    H236869   1.373   5.528   1.132  1.9739  0.3271  2.1177
 5104TIP3   OH236870   3.681   5.113   1.826 -0.3784  0.3847 -0.0025
 5104TIP3    H136871   3.668   5.066   1.744 -2.7793  0.6775  0.1554
 5104TIP3    H236872   3.686   5.045   1.893 -0.9942  0.2317 -0.1063
 5105TIP3   OH236873   3.162   2.301   8.618  0.3603 -0.3829  0.4263
 5105TIP3    H136874   3.188   2.217   8.582 -0.5639 -0.0597 -1.1203
 5105TIP3    H236875   3.108   2.280   8.694  0.2324 -1.1808  0.1165
 5106TIP3   OH236876   1.760   1.112   8.632 -0.2539  0.1909 -0.7169
 5106TIP3    H136877   1.795   1.023   8.640  0.9753  0.6547 -0.6886
 5106TIP3    H236878   1.666   1.102   8.644  0.0476 -0.8546  1.2326
 5107TIP3   OH236879   2.853   0.752   7.630  0.5343 -0.2399 -0.1756
 5107TIP3    H136880   2.762   0.780   7.638  0.9691  0.6418  3.0382
 5107TIP3    H236881   2.895   0.821   7.580 -0.2788  0.1227 -0.3753
 5108TIP3   OH236882   0.712   2.474   0.190  0.1446  0.2001  0.3334
 5108TIP3    H136883   0.729   2.565   0.165 -1.4399  0.3352 -0.3588
 5108TIP3    H236884   0.625   2.456   0.155 -0.5959 -0.8130  2.5373
 5109TIP3   OH236885   3.559   3.963   1.797  0.0410  0.0189 -0.2249
 5109TIP3    H136886   3.583   4.001   1.712 -2.9310  1.4698 -0.5224
 5109TIP3    H236887   3.506   3.887   1.775  1.1190 -0.9338  0.3895
 5110TIP3   OH236888   4.512   1.954   6.987  0.3073 -0.2515  0.0404
 5110TIP3    H136889   4.450   1.895   6.946  0.4451 -0.4686  0.1407
 5110TIP3    H236890   4.530   2.020   6.921  1.0986 -1.0105 -0.5272
 5111TIP3   OH236891   2.199   1.921   7.784 -0.0277  0.3255 -0.6115
 5111TIP3    H136892   2.184   1.858   7.713  3.0846 -0.2736 -0.8918
 5111TIP3    H236893   2.115   1.926   7.830 -1.5583 -0.8394 -3.0707
 5112TIP3   OH236894   0.538   5.515   7.498 -0.0025  0.5011 -0.2013
 5112TIP3    H136895   0.518   5.560   7.416  0.4952 -1.3346 -1.3962
 5112TIP3    H236896   0.624   5.474   7.482 -0.5117 -1.0014  0.7228
 5113TIP3   OH236897   0.176   2.560   7.037 -0.5592  0.1785 -0.1634
 5113TIP3    H136898   0.213   2.645   7.011 -0.7097 -0.0207 -1.0416
 5113TIP3    H236899   0.191   2.556   7.131  0.0817  0.8760 -0.2235
 5114TIP3   OH236900   0.987   5.293   8.485 -0.0351 -0.1151  0.5788
 5114TIP3    H136901   0.966   5.200   8.474  0.5993 -0.2143  0.1161
 5114TIP3    H236902   1.083   5.296   8.485 -0.0284  0.6885 -0.9043
 5115TIP3   OH236903   1.143   1.144   7.970  0.1387  0.0178 -0.0174
 5115TIP3    H136904   1.211   1.207   7.993  1.1017 -1.0612  0.1671
 5115TIP3    H236905   1.152   1.132   7.876 -0.7035  0.8763 -0.2273
 5116TIP3   OH236906   0.791   0.520   8.048 -0.0643  0.3867  0.3389
 5116TIP3    H136907   0.708   0.564   8.031  0.0169 -0.2607 -2.1321
 5116TIP3    H236908   0.772   0.458   8.119 -1.2419  1.3948  0.9383
 5117TIP3   OH236909   1.847   6.411   1.054  0.3680 -0.3384 -0.2407
 5117TIP3    H136910   1.872   6.320   1.043 -0.1278 -0.2885 -2.0689
 5117TIP3    H236911   1.781   6.427   0.987 -1.8699  0.5510  2.0066
 5118TIP3   OH236912   4.901   6.618   7.906  0.7925  0.8947 -0.0529
 5118TIP3    H136913   4.920   6.594   7.815  1.2278  1.1550 -0.0336
 5118TIP3    H236914   4.941   6.704   7.917  0.3319  1.0765  0.2498
 5119TIP3   OH236915   6.147   0.829   0.977  0.1990 -0.5189 -0.2032
 5119TIP3    H136916   6.186   0.819   0.890  1.7948 -1.2710  0.5513
 5119TIP3    H236917   6.221   0.854   1.033 -1.1641  2.1337  0.5911
 5120TIP3   OH236918   0.072   6.718   1.041  0.2982 -0.1815  0.4441
 5120TIP3    H136919   0.089   6.735   1.134 -1.5111 -0.6295  0.8851
 5120TIP3    H236920  -0.012   6.761   1.024 -0.2453 -1.5946 -0.5445
 5121TIP3   OH236921   5.069   6.294   1.025 -0.1972  1.1059  0.1254
 5121TIP3    H136922   5.146   6.305   1.081 -0.9627 -1.0814  1.7264
 5121TIP3    H236923   5.090   6.219   0.970 -2.2502 -1.7294  2.8400
 5122TIP3   OH236924   5.816   5.362   1.433  0.2239 -0.9069 -0.5057
 5122TIP3    H136925   5.801   5.324   1.519  1.2321  0.5742  0.3667
 5122TIP3    H236926   5.729   5.364   1.392 -0.7036  0.4660  1.3784
 5123TIP3   OH236927   6.616   1.313   2.513  1.0913 -0.0781 -0.5464
 5123TIP3    H136928   6.591   1.392   2.466  0.3000 -0.7109 -1.2249
 5123TIP3    H236929   6.707   1.329   2.541  0.3708  1.8035  0.9722
 5124TIP3   OH236930   2.130   5.956   1.642  0.4056  0.0875 -0.2636
 5124TIP3    H136931   2.107   5.881   1.697  0.5202  0.4077  0.2333
 5124TIP3    H236932   2.188   5.920   1.576  2.9399  0.2107  1.7266
 5125TIP3   OH236933   4.572   2.105   7.367  0.2191 -0.1682 -0.0304
 5125TIP3    H136934   4.654   2.144   7.396  0.0352  0.3495 -0.1962
 5125TIP3    H236935   4.510   2.126   7.436  0.8120 -2.9011  1.4788
 5126TIP3   OH236936   0.722   2.303   7.439  0.0462  0.4009  0.0556
 5126TIP3    H136937   0.734   2.238   7.369  1.0972  1.9046 -1.2418
 5126TIP3    H236938   0.811   2.332   7.460 -0.4584  3.1208 -1.1354
 5127TIP3   OH236939   3.649   2.938   0.362  0.1464 -0.2802 -0.3021
 5127TIP3    H136940   3.609   2.927   0.276 -2.0529 -2.0174  0.8345
 5127TIP3    H236941   3.728   2.884   0.359  2.6270  3.0617 -2.5257
 5128TIP3   OH236942   6.633   4.758   2.151 -0.8653  0.0044 -0.5828
 5128TIP3    H136943   6.658   4.796   2.066 -0.3100 -1.9789 -1.3631
 5128TIP3    H236944   6.685   4.806   2.215  0.0563  0.3430 -1.5570
 5129TIP3   OH236945   3.869   3.922   1.214  0.1177  0.1652 -0.5272
 5129TIP3    H136946   3.865   3.833   1.248 -1.3820  0.4080  0.0167
 5129TIP3    H236947   3.833   3.915   1.126 -2.6405  0.6065  0.4674
 5130TIP3   OH236948   3.675   4.072   1.042  0.4278  0.5684  0.4473
 5130TIP3    H136949   3.722   4.111   0.968  1.0891  2.3757  1.7601
 5130TIP3    H236950   3.708   4.118   1.119  0.1410 -1.6007  1.9664
 5131TIP3   OH236951   1.734   5.135   1.264  0.6856  0.4828 -0.0854
 5131TIP3    H136952   1.742   5.081   1.343  0.5433  1.7034  0.7807
 5131TIP3    H236953   1.818   5.125   1.220  0.4720 -0.8813 -0.2522
 5132TIP3   OH236954   2.080   0.186   0.899 -0.3158  0.2803 -0.3671
 5132TIP3    H136955   2.108   0.108   0.946  0.4466  1.7282  1.6998
 5132TIP3    H236956   1.985   0.175   0.891 -0.3241 -0.5263  0.5709
 5133TIP3   OH236957   1.717   2.104   2.392 -0.4305  0.4134 -0.0408
 5133TIP3    H136958   1.783   2.140   2.450  1.0560 -1.3651 -0.5214
 5133TIP3    H236959   1.715   2.010   2.412 -2.9761  0.4249  0.0828
 5134TIP3   OH236960   5.954   1.467   0.151  0.4077  0.2562 -0.1142
 5134TIP3    H136961   5.959   1.560   0.174 -0.8509  0.5187 -0.7999
 5134TIP3    H236962   6.018   1.425   0.207  2.2829  1.7586 -1.0323
 5135TIP3   OH236963   5.552   1.405   0.939 -0.7992  0.0418 -0.0126
 5135TIP3    H136964   5.641   1.377   0.962 -1.0825 -0.8438  0.0309
 5135TIP3    H236965   5.523   1.456   1.014  0.1097  1.3837 -0.5300
 5136TIP3   OH236966   1.118   0.687   1.438 -0.1990  0.0865  0.1081
 5136TIP3    H136967   1.088   0.630   1.368 -0.7962 -1.4632  1.5368
 5136TIP3    H236968   1.169   0.629   1.496  0.3370  1.3127  0.9171
 5137TIP3   OH236969   2.594   4.583   7.571 -0.1840  0.6398 -0.0884
 5137TIP3    H136970   2.588   4.650   7.504  0.2922 -0.7147 -1.5498
 5137TIP3    H236971   2.671   4.532   7.548 -0.2367 -0.1161  1.2656
 5138TIP3   OH236972   3.298   0.103   7.899 -0.2036  0.2245  0.2063
 5138TIP3    H136973   3.316   0.086   7.807 -1.9851 -0.6412 -0.0280
 5138TIP3    H236974   3.275   0.196   7.902 -0.0372  0.2805 -0.2087
 5139TIP3   OH236975   6.137   1.561   0.640 -0.1029  0.4146  0.2835
 5139TIP3    H136976   6.069   1.495   0.655  2.1608 -2.1171  0.0323
 5139TIP3    H236977   6.121   1.591   0.550 -2.9045  2.5268  1.3194
 5140TIP3   OH236978   5.160   2.331   8.460 -0.7441 -0.4948 -0.1009
 5140TIP3    H136979   5.255   2.319   8.470 -0.4305  0.8289 -1.1573
 5140TIP3    H236980   5.127   2.339   8.549 -0.1283 -2.5750  0.3667
 5141TIP3   OH236981   1.450   0.755   7.538  0.1034 -0.0451  0.0591
 5141TIP3    H136982   1.449   0.661   7.555 -1.0873 -0.0788 -0.1529
 5141TIP3    H236983   1.464   0.762   7.443 -0.6860 -0.0439 -0.0659
 5142TIP3   OH236984   5.399   2.355   7.568  0.2832  0.5372 -0.2012
 5142TIP3    H136985   5.304   2.347   7.557  0.4889 -0.8784 -1.2550
 5142TIP3    H236986   5.410   2.377   7.661 -1.1046  1.9815 -0.3286
 5143TIP3   OH236987   6.585   5.065   0.107  0.3459  0.1054  0.5665
 5143TIP3    H136988   6.642   4.989   0.105  0.8877  0.4945 -1.6950
 5143TIP3    H236989   6.500   5.031   0.080  0.1842  0.0453  1.1285
 5144TIP3   OH236990   2.152   4.123   7.896  0.0725  0.7848  0.3608
 5144TIP3    H136991   2.203   4.159   7.968 -0.2375  2.2872 -0.1273
 5144TIP3    H236992   2.178   4.031   7.891  4.3800  1.8145 -1.1908
 5145TIP3   OH236993   0.575   4.111   8.036  0.1356 -0.3351 -0.2392
 5145TIP3    H136994   0.565   4.027   8.080  0.9919  0.2168  1.0727
 5145TIP3    H236995   0.497   4.119   7.981 -2.2054 -0.1326  2.8042
 5146TIP3   OH236996   0.099   6.537   6.812  0.0685  0.4318 -0.1908
 5146TIP3    H136997   0.184   6.552   6.854 -0.0819  2.5556 -0.5497
 5146TIP3    H236998   0.040   6.601   6.854 -0.9645  0.0749 -1.0574
 5147TIP3   OH236999   3.458   5.735   7.482  0.3380 -0.5602 -0.1683
 5147TIP3    H137000   3.471   5.710   7.573 -1.9128 -1.9727 -0.1553
 5147TIP3    H237001   3.546   5.747   7.447  1.2684 -1.0524  1.8962
 5148TIP3   OH237002   1.203   5.652   7.653  0.4135 -0.0738  0.1798
 5148TIP3    H137003   1.111   5.665   7.676  0.1263 -2.3657  0.5351
 5148TIP3    H237004   1.251   5.676   7.732 -0.0561 -0.9127  0.7361
 5149TIP3   OH237005   6.367   3.614   2.391 -0.0475 -0.5894 -0.2177
 5149TIP3    H137006   6.437   3.662   2.347  1.5438 -1.6841  1.0232
 5149TIP3    H237007   6.360   3.654   2.477 -0.3958 -1.0251 -0.0401
 5150TIP3   OH237008   1.876   6.403   7.446 -0.3559 -0.1598 -0.2368
 5150TIP3    H137009   1.879   6.492   7.483 -0.9752 -0.5829  0.8625
 5150TIP3    H237010   1.903   6.346   7.518  3.6735 -0.6662 -1.8726
 5151TIP3   OH237011   0.107   5.539   1.042 -0.1819 -0.5723  0.4308
 5151TIP3    H137012   0.125   5.620   1.091  0.3163 -1.3181  1.5174
 5151TIP3    H237013   0.115   5.470   1.107 -0.5486 -1.5093 -0.5025
 5152TIP3   OH237014   4.647   1.414   0.403  0.6027  0.2777 -0.1176
 5152TIP3    H137015   4.574   1.363   0.368  0.1225  1.0536 -0.2922
 5152TIP3    H237016   4.722   1.388   0.350  1.3491 -3.2229  2.3525
 5153TIP3   OH237017   1.669   1.850   7.947  0.1352  0.8051 -0.0844
 5153TIP3    H137018   1.605   1.831   8.016 -0.0418 -0.6206 -0.5962
 5153TIP3    H237019   1.646   1.938   7.916 -1.6077  0.3287 -0.2671
 5154TIP3   OH237020   0.017   5.547   0.636 -0.2076  0.5169 -0.4886
 5154TIP3    H137021  -0.053   5.539   0.571 -0.7913  1.8730 -0.0512
 5154TIP3    H237022  -0.025   5.526   0.720  1.0866 -3.8319 -0.6652
 5155TIP3   OH237023   4.222   2.475   1.011 -0.1168  0.3772  0.0802
 5155TIP3    H137024   4.155   2.437   0.954  2.0618  1.2661 -3.3851
 5155TIP3    H237025   4.267   2.399   1.049 -1.4615 -0.2371  0.5328
 5156TIP3   OH237026   6.048   0.736   7.428 -0.0389  0.4154  0.5088
 5156TIP3    H137027   6.003   0.787   7.361  0.1191  2.1137  1.6279
 5156TIP3    H237028   6.029   0.782   7.510  1.8672 -0.1069  1.2978
 5157TIP3   OH237029   0.965   2.700   2.072  0.4969 -0.3921  0.6232
 5157TIP3    H137030   0.879   2.721   2.107  0.6134 -0.0913  0.7363
 5157TIP3    H237031   0.985   2.613   2.108 -0.5858 -1.3482 -0.9669
 5158TIP3   OH237032   6.851   4.496   0.307  0.6364  0.1630 -0.2519
 5158TIP3    H137033   6.856   4.403   0.330  1.0347  0.2227 -0.0855
 5158TIP3    H237034   6.916   4.538   0.364  0.7227  0.4898 -0.5901
 5159TIP3   OH237035   1.764   1.234   6.455  0.0684 -0.3538  0.7266
 5159TIP3    H137036   1.739   1.305   6.396  1.2976 -0.8019 -0.3701
 5159TIP3    H237037   1.777   1.158   6.398  2.3694 -0.5299  1.3975
 5160TIP3   OH237038   1.586   2.198   7.270 -0.1129  0.0318 -0.4730
 5160TIP3    H137039   1.536   2.131   7.222 -2.4129 -0.2251  2.0509
 5160TIP3    H237040   1.528   2.275   7.269  0.8774  0.7940 -0.1744
 5161TIP3   OH237041   5.870   0.939   0.527  0.2870 -0.9625  0.1455
 5161TIP3    H137042   5.778   0.957   0.542 -0.2198 -2.4661 -0.9028
 5161TIP3    H237043   5.909   0.937   0.615 -0.3530  1.0941  0.5204
 5162TIP3   OH237044   6.774   4.885   0.790 -0.5035 -0.2727 -0.7425
 5162TIP3    H137045   6.697   4.939   0.805 -0.3906 -0.2536 -0.2156
 5162TIP3    H237046   6.806   4.912   0.704 -1.1794 -0.4044 -1.0421
 5163TIP3   OH237047   4.937   5.190   7.974 -0.3895  0.1760 -0.2810
 5163TIP3    H137048   4.950   5.105   8.017  0.1830  0.6614  0.5467
 5163TIP3    H237049   5.000   5.191   7.903 -0.1382  0.0505 -0.0628
 5164TIP3   OH237050   3.687   5.281   2.062  0.5058 -0.3384  0.4319
 5164TIP3    H137051   3.674   5.251   1.972  2.5417  0.1589 -0.0840
 5164TIP3    H237052   3.599   5.288   2.098 -0.3796 -0.3475 -1.5937
 5165TIP3   OH237053   3.013   6.846   1.620 -0.2261  0.4697 -0.1630
 5165TIP3    H137054   3.025   6.868   1.712  0.7458 -0.6446 -0.0008
 5165TIP3    H237055   2.970   6.761   1.621 -0.1610  0.4266 -0.7307
 5166TIP3   OH237056   0.611   5.182   6.652  0.3504  0.3860 -0.1222
 5166TIP3    H137057   0.643   5.212   6.567 -0.4156  1.5854 -0.0172
 5166TIP3    H237058   0.612   5.261   6.707 -0.4463 -0.0672  0.5686
 5167TIP3   OH237059   6.259   5.169   2.167 -0.1553 -0.2353 -0.4055
 5167TIP3    H137060   6.319   5.095   2.161 -0.8345 -0.9657  1.0982
 5167TIP3    H237061   6.315   5.247   2.167  0.5499 -0.7139 -2.3001
 5168TIP3   OH237062   2.581   6.673   1.226 -0.6455  0.8932  0.3889
 5168TIP3    H137063   2.492   6.638   1.235 -0.0834 -1.8212 -2.6021
 5168TIP3    H237064   2.638   6.600   1.252  0.6828  1.5639 -0.5476
 5169TIP3   OH237065   3.945   0.580   7.656 -0.1109  0.5241  0.8876
 5169TIP3    H137066   3.893   0.609   7.731  0.4178 -2.1077  2.4034
 5169TIP3    H237067   4.031   0.619   7.669 -0.4950  1.4697  0.6726
 5170TIP3   OH237068   5.934   4.896   7.910  0.2732  0.1940 -0.6179
 5170TIP3    H137069   5.993   4.837   7.956 -0.8748  0.6583  1.5761
 5170TIP3    H237070   5.942   4.870   7.818  2.7517 -0.6954 -0.2311
 5171TIP3   OH237071   1.320   0.797   1.149 -0.2350 -0.2489  0.2727
 5171TIP3    H137072   1.356   0.813   1.236  0.5599  2.4955 -0.4579
 5171TIP3    H237073   1.249   0.861   1.140 -1.3863 -1.5782 -0.5437
 5172TIP3   OH237074   5.676   6.634   7.739  0.4457 -0.1798 -0.1875
 5172TIP3    H137075   5.625   6.714   7.726 -0.0506 -0.2995  0.8373
 5172TIP3    H237076   5.714   6.615   7.654 -2.1969 -0.7328 -1.3590
 5173TIP3   OH237077   2.131   2.233   7.747 -0.6799 -0.1324 -0.4533
 5173TIP3    H137078   2.147   2.325   7.768 -2.4882 -0.0840  0.8992
 5173TIP3    H237079   2.213   2.189   7.772 -0.2101  0.9372 -0.0272
 5174TIP3   OH237080   2.874   0.405   0.862  0.3404  0.5530 -0.1456
 5174TIP3    H137081   2.828   0.354   0.795 -1.4666  1.6138  0.2097
 5174TIP3    H237082   2.836   0.374   0.945  0.3177  1.3993  0.1651
 5175TIP3   OH237083   5.516   3.970   0.719  0.2239 -0.4625  0.2918
 5175TIP3    H137084   5.503   3.991   0.627 -0.1517 -1.8807  0.0004
 5175TIP3    H237085   5.535   4.055   0.760  0.6873  0.1477 -1.1207
 5176TIP3   OH237086   0.978   5.000   0.777  0.1519 -0.8309  0.0373
 5176TIP3    H137087   1.065   5.033   0.799  0.6725 -1.0502 -1.6107
 5176TIP3    H237088   0.955   5.046   0.696 -1.3492 -0.6499  0.5345
 5177TIP3   OH237089   5.864   1.460   8.501 -0.0676 -0.2889 -0.0804
 5177TIP3    H137090   5.806   1.444   8.427 -0.3472 -2.1287  0.4862
 5177TIP3    H237091   5.810   1.506   8.565 -0.8733 -1.8009  0.3570
 5178TIP3   OH237092   2.492   0.557   6.803  0.7127 -0.2827  0.2898
 5178TIP3    H137093   2.498   0.649   6.778  0.4269 -0.2511  0.3355
 5178TIP3    H237094   2.579   0.521   6.783  0.4136 -0.3240 -1.0385
 5179TIP3   OH237095   1.186   6.015   1.476 -0.4973  1.0987 -0.0448
 5179TIP3    H137096   1.150   5.999   1.389 -0.4669 -0.0377  0.1399
 5179TIP3    H237097   1.260   6.074   1.461 -1.9728  2.9368 -0.5080
 5180TIP3   OH237098   3.714   6.832   7.756 -0.2288 -0.3533  0.1707
 5180TIP3    H137099   3.670   6.804   7.676  0.5030 -2.8989  0.5943
 5180TIP3    H237100   3.805   6.805   7.744  0.2125  0.5693  1.2705
 5181TIP3   OH237101   1.313   2.699   7.547  0.2014  0.4920  0.6446
 5181TIP3    H137102   1.351   2.750   7.619  0.9226  1.2040 -0.2032
 5181TIP3    H237103   1.223   2.682   7.573  0.4114  0.8743  1.6420
 5182TIP3   OH237104   1.723   3.681   6.950 -0.3687 -0.3517 -0.2334
 5182TIP3    H137105   1.720   3.771   6.981 -0.3140 -0.1046 -0.9170
 5182TIP3    H237106   1.632   3.656   6.938 -0.4179 -0.6957  0.7996
 5183TIP3   OH237107   1.406   1.600   7.289  0.4803  0.4304 -0.4323
 5183TIP3    H137108   1.407   1.696   7.291 -0.2626  0.4755 -1.3191
 5183TIP3    H237109   1.490   1.575   7.252  1.4868  0.6395  1.5540
 5184TIP3   OH237110   2.031   4.800   7.116  0.2465  0.1749 -0.0857
 5184TIP3    H137111   1.987   4.746   7.050  1.6500 -0.3700 -0.6185
 5184TIP3    H237112   2.044   4.742   7.191 -0.7010  0.5876  0.4109
 5185TIP3   OH237113   1.343   2.681   8.538  0.4015  0.1644 -0.1264
 5185TIP3    H137114   1.305   2.618   8.476 -0.6219  0.6186  0.0089
 5185TIP3    H237115   1.427   2.643   8.563 -0.0792 -1.0210 -0.2456
 5186TIP3   OH237116   4.392   0.532   6.325  0.2001 -0.4568 -0.2732
 5186TIP3    H137117   4.339   0.611   6.317 -1.5427 -1.6526 -1.3070
 5186TIP3    H237118   4.465   0.545   6.264  1.8768  1.7002  1.9928
 5187TIP3   OH237119   4.049   1.503   7.680 -0.0823  0.1173 -0.9082
 5187TIP3    H137120   4.078   1.473   7.594  0.9807  0.5581 -0.7214
 5187TIP3    H237121   4.130   1.511   7.731 -0.1182  3.8688 -1.1316
 5188TIP3   OH237122   2.792   3.835   1.224  0.0368 -0.6375 -0.0131
 5188TIP3    H137123   2.707   3.793   1.226 -0.1875 -0.1926 -0.1192
 5188TIP3    H237124   2.852   3.766   1.194 -0.0266 -1.3705  1.4845
 5189TIP3   OH237125   4.407   2.754   7.308 -0.4101 -0.3089 -0.1924
 5189TIP3    H137126   4.430   2.661   7.311 -1.2599 -0.5106  0.8352
 5189TIP3    H237127   4.482   2.796   7.267  1.0227 -1.1575  1.4262
 5190TIP3   OH237128   1.383   4.913   6.932 -0.6954  0.5369  0.1220
 5190TIP3    H137129   1.398   4.964   6.852 -1.4648  1.2506  0.4252
 5190TIP3    H237130   1.398   4.975   7.003  2.5869 -0.7088  0.6899
 5191TIP3   OH237131   2.826   3.233   7.824 -0.1020 -0.1107  0.7867
 5191TIP3    H137132   2.893   3.164   7.834  0.7718  0.6206  0.2100
 5191TIP3    H237133   2.767   3.198   7.757 -0.1087 -0.6268  1.0557
 5192TIP3   OH237134   1.077   4.007   6.991 -0.1827 -0.1793 -0.0216
 5192TIP3    H137135   1.061   4.099   6.973 -0.7712 -0.5891 -1.9237
 5192TIP3    H237136   0.991   3.972   7.015 -0.1666 -0.4199 -0.3039
 5193TIP3   OH237137   2.520   1.752   7.073 -0.2147  0.2701  0.3554
 5193TIP3    H137138   2.586   1.801   7.023 -1.2789  0.3824 -0.9935
 5193TIP3    H237139   2.566   1.725   7.153  1.1667  1.1913 -0.0889
 5194TIP3   OH237140   1.931   0.439   8.040 -0.2679 -0.5811  0.3163
 5194TIP3    H137141   2.025   0.453   8.050 -0.2460 -0.9652  0.6555
 5194TIP3    H237142   1.902   0.409   8.126 -1.0480  1.4292  0.8251
 5195TIP3   OH237143   1.573   1.553   7.993 -0.1223 -0.1651  0.3017
 5195TIP3    H137144   1.536   1.606   8.063  0.8353  0.3244  0.4464
 5195TIP3    H237145   1.528   1.582   7.914  0.2614  0.7367  0.4096
 5196TIP3   OH237146   0.304   1.113   1.627  0.4255  0.1797  0.3766
 5196TIP3    H137147   0.317   1.159   1.544 -1.0505 -1.9807 -1.1785
 5196TIP3    H237148   0.246   1.170   1.677  1.8276  1.8103  0.2664
 5197TIP3   OH237149   5.588   6.135   0.063  0.0808 -0.1688  0.3110
 5197TIP3    H137150   5.643   6.061   0.091  0.8816  0.1464 -0.3802
 5197TIP3    H237151   5.650   6.197   0.024 -0.4563  1.2622  1.6296
 5198TIP3   OH237152   3.447   1.454   2.154 -0.2910  0.1628  0.0014
 5198TIP3    H137153   3.489   1.460   2.240 -1.1876  0.7157  0.4166
 5198TIP3    H237154   3.357   1.427   2.172  0.3659 -3.1791 -1.0197
 5199TIP3   OH237155   2.081   1.150   2.286 -0.3051 -0.7043  0.0067
 5199TIP3    H137156   2.095   1.231   2.336 -2.0917 -1.2459  1.4817
 5199TIP3    H237157   2.004   1.110   2.326 -0.1306 -2.5984 -1.4219
 5200TIP3   OH237158   4.308   3.205   1.246 -0.1914 -0.4426 -0.2624
 5200TIP3    H137159   4.393   3.234   1.278 -1.0543  1.0012  0.8271
 5200TIP3    H237160   4.304   3.239   1.156 -0.2726  0.9440  0.2431
 5201TIP3   OH237161   1.077   6.763   6.753  0.4394 -0.1420  0.6214
 5201TIP3    H137162   1.072   6.858   6.765 -0.0153 -0.2463  1.3497
 5201TIP3    H237163   0.992   6.739   6.717 -0.7087 -0.6421  3.4097
 5202TIP3   OH237164   5.938   3.967   2.791 -0.5340 -0.0556  0.2886
 5202TIP3    H137165   5.988   3.962   2.709  0.1123  1.3509  0.5617
 5202TIP3    H237166   5.947   4.059   2.818 -2.9874  0.1721  0.5296
 5203TIP3   OH237167   5.651   2.616   1.078 -0.2314 -0.0043 -0.1487
 5203TIP3    H137168   5.702   2.624   1.159 -1.3494 -1.0895  0.7089
 5203TIP3    H237169   5.632   2.706   1.052 -0.1602  0.3643  1.0100
 5204TIP3   OH237170   5.779   1.939   0.965 -0.0007  0.0486  0.7124
 5204TIP3    H137171   5.731   1.860   0.941 -0.6264  0.5049  0.4535
 5204TIP3    H237172   5.716   1.992   1.013 -0.4460  1.6228 -1.4936
 5205TIP3   OH237173   0.818   3.421   1.906  0.6410 -0.5570  0.1385
 5205TIP3    H137174   0.870   3.478   1.963  1.5832  0.0588 -1.2982
 5205TIP3    H237175   0.753   3.383   1.965 -0.0915  2.0369  1.1628
 5206TIP3   OH237176   1.663   1.959   1.005 -0.1494  0.6433 -0.3508
 5206TIP3    H137177   1.754   1.979   0.985 -0.7203  0.6308 -3.5099
 5206TIP3    H237178   1.625   2.042   1.031  0.2348  1.2164 -1.5344
 5207TIP3   OH237179   0.324   4.781   2.321 -0.0329 -0.7628  0.4223
 5207TIP3    H137180   0.323   4.871   2.287 -0.4002 -1.1595 -0.6551
 5207TIP3    H237181   0.298   4.727   2.246  1.0167 -1.8529  0.8170
 5208TIP3   OH237182   3.477   3.686   7.939  0.3235  0.1206  0.4690
 5208TIP3    H137183   3.410   3.637   7.890  1.2950 -0.7063 -0.0651
 5208TIP3    H237184   3.511   3.749   7.875  0.8449 -0.2343  0.3925
 5209TIP3   OH237185   6.676   4.034   6.864  0.4470  0.1666  0.6674
 5209TIP3    H137186   6.639   3.997   6.784  0.6456 -0.3398  0.8029
 5209TIP3    H237187   6.670   4.129   6.852  0.6372  0.0948 -0.0168
 5210TIP3   OH237188   3.454   1.474   6.805 -0.3151 -0.5680  0.4722
 5210TIP3    H137189   3.490   1.413   6.740  1.3031  1.2823 -0.4783
 5210TIP3    H237190   3.398   1.533   6.753 -0.4896 -0.2087  1.0640
 5211TIP3   OH237191   4.516   1.200   6.280  0.0650 -0.4643 -0.1640
 5211TIP3    H137192   4.579   1.150   6.332 -0.0321 -0.4757 -0.0593
 5211TIP3    H237193   4.571   1.257   6.226  0.1562 -0.2904  0.1124
 5212TIP3   OH237194   1.212   5.952   1.897  0.5645 -0.0169 -0.1778
 5212TIP3    H137195   1.302   5.926   1.875  0.0725 -2.0804  0.0293
 5212TIP3    H237196   1.166   5.952   1.814 -0.3331 -3.8306  0.1452
 5213TIP3   OH237197   2.117   6.633   1.457 -0.1588 -0.1600 -0.4830
 5213TIP3    H137198   2.103   6.552   1.504 -1.7255 -0.0601 -0.7351
 5213TIP3    H237199   2.108   6.702   1.524  0.4391 -0.1490 -0.4081
 5214TIP3   OH237200   1.031   1.920   1.241 -0.4114 -0.2697 -0.1108
 5214TIP3    H137201   0.959   1.963   1.194 -0.9901  0.1539  1.1137
 5214TIP3    H237202   1.110   1.957   1.203 -0.8389 -0.2747 -1.0490
 5215TIP3   OH237203   1.758   5.448   1.844  0.0515 -0.3502 -0.6301
 5215TIP3    H137204   1.799   5.428   1.928 -0.9990 -1.4654 -0.3567
 5215TIP3    H237205   1.698   5.375   1.829 -2.1120  1.3643 -0.8292
 5216TIP3   OH237206   2.563   1.703   8.411 -0.1613  0.1600 -0.1093
 5216TIP3    H137207   2.551   1.777   8.351 -1.0714  0.4410  0.4130
 5216TIP3    H237208   2.644   1.724   8.459 -0.0613  0.4932 -0.4229
 5217TIP3   OH237209   6.675   1.749   8.230 -0.1581  0.4147  0.0334
 5217TIP3    H137210   6.611   1.819   8.242 -0.5954  0.1312 -0.5522
 5217TIP3    H237211   6.756   1.793   8.206 -0.2038  0.7608  0.4906
 5218TIP3   OH237212   4.794   3.195   0.573 -0.0395 -0.1416 -0.3764
 5218TIP3    H137213   4.738   3.118   0.564 -0.7284  0.3215 -0.1379
 5218TIP3    H237214   4.871   3.163   0.620  1.0867 -1.3560 -2.8432
 5219TIP3   OH237215   4.913   6.824   7.179 -0.2481  0.1919 -0.3235
 5219TIP3    H137216   4.910   6.811   7.084  0.8709  1.9512 -0.6447
 5219TIP3    H237217   4.917   6.919   7.190  0.0660  0.0086  1.4803
 5220TIP3   OH237218   2.118   4.291   7.406 -0.8141 -0.1398  0.5212
 5220TIP3    H137219   2.065   4.366   7.434  0.5753  0.4388  1.6967
 5220TIP3    H237220   2.118   4.232   7.481  0.9621  0.2999  0.8984
 5221TIP3   OH237221   2.361   1.688   8.627  0.1914  0.0857  0.5808
 5221TIP3    H137222   2.421   1.681   8.553  0.1489  1.9929  0.3137
 5221TIP3    H237223   2.374   1.777   8.660 -0.9520 -0.1846  1.8701
 5222TIP3   OH237224   5.308   0.686   1.174 -0.1883  0.3658  0.4331
 5222TIP3    H137225   5.324   0.752   1.242 -1.1993  1.5658 -0.4480
 5222TIP3    H237226   5.287   0.606   1.223  0.6107  0.7920  1.5224
 5223TIP3   OH237227   1.585   4.466   2.017 -0.1808  0.2829 -0.0071
 5223TIP3    H137228   1.639   4.466   2.096 -2.7444 -0.3932  1.8553
 5223TIP3    H237229   1.607   4.383   1.974  0.3049  0.0277  0.7061
 5224TIP3   OH237230   1.201   4.202   0.671 -0.3522 -0.3399 -0.0366
 5224TIP3    H137231   1.264   4.130   0.679  2.0442  1.1339 -3.0646
 5224TIP3    H237232   1.137   4.170   0.607 -0.7633 -0.6337  0.5114
 5225TIP3   OH237233   4.468   2.595   1.386  0.0846 -0.0904  0.6552
 5225TIP3    H137234   4.529   2.538   1.434  1.0125 -0.6033 -1.0507
 5225TIP3    H237235   4.505   2.600   1.298 -1.0368  1.6093  0.2439
 5226TIP3   OH237236   0.757   5.823   1.283 -0.5498  0.0025  0.0763
 5226TIP3    H137237   0.724   5.874   1.357  0.1412 -2.1656  2.0059
 5226TIP3    H237238   0.851   5.816   1.298 -0.5428 -1.3139 -0.3988
 5227TIP3   OH237239   4.131   5.662   2.067  0.3072  0.0600  0.7877
 5227TIP3    H137240   4.090   5.579   2.041 -0.1978 -0.1515  2.1909
 5227TIP3    H237241   4.093   5.727   2.009 -1.1060 -0.3325  1.2479
 5228TIP3   OH237242   4.421   4.369   1.349  0.2191 -0.4465  0.2717
 5228TIP3    H137243   4.485   4.398   1.285 -0.5942  1.4100  0.2410
 5228TIP3    H237244   4.371   4.448   1.371 -0.1405 -1.2273  2.4838
 5229TIP3   OH237245   4.948   5.906   0.897 -0.1649  0.0717 -0.3421
 5229TIP3    H137246   5.009   5.846   0.940 -1.0170 -0.9228 -0.5019
 5229TIP3    H237247   4.940   5.979   0.958 -0.1690 -0.6004  0.4858
 5230TIP3   OH237248   1.648   6.778   7.127  0.4409  0.3003  0.3644
 5230TIP3    H137249   1.626   6.723   7.052 -1.0817  0.1316  0.9164
 5230TIP3    H237250   1.685   6.857   7.088  1.5762 -0.5959 -0.4728
 5231TIP3   OH237251   6.126   2.857   6.891  0.1839  0.6875 -0.3476
 5231TIP3    H137252   6.168   2.907   6.821  1.1493  1.7408  0.9216
 5231TIP3    H237253   6.139   2.911   6.969 -1.5622 -0.0775  0.5048
 5232TIP3   OH237254   1.089   3.511   7.178 -0.4965  0.3159 -0.2297
 5232TIP3    H137255   1.050   3.585   7.226  0.2833  1.4413 -1.2882
 5232TIP3    H237256   1.070   3.528   7.086 -0.4605 -0.9106 -0.4868
 5233TIP3   OH237257   6.773   4.041   0.163  0.2543 -0.1196  0.0293
 5233TIP3    H137258   6.841   4.108   0.176 -0.2222  0.3737 -0.0166
 5233TIP3    H237259   6.790   4.008   0.075  1.1419 -0.8105  0.4425
 5234TIP3   OH237260   6.627   4.938   0.400 -0.2094  0.1974 -0.1691
 5234TIP3    H137261   6.673   4.951   0.318  0.5835  0.8760  0.3628
 5234TIP3    H237262   6.681   4.876   0.449 -0.2085  0.4779  0.1926
 5235TIP3   OH237263   0.830   5.086   0.983 -0.5701 -0.0003 -0.4675
 5235TIP3    H137264   0.869   5.141   1.051 -2.6828  0.5528  0.3963
 5235TIP3    H237265   0.904   5.049   0.935  0.9531  0.8644  1.1315
 5236TIP3   OH237266   2.176   5.764   8.087 -0.2527  0.0366  0.1808
 5236TIP3    H137267   2.187   5.722   8.172 -1.1216 -2.1236 -0.7121
 5236TIP3    H237268   2.260   5.750   8.043  0.6240  2.1845  1.0379
 5237TIP3   OH237269   3.861   3.456   7.231 -0.5145  0.3955  0.7844
 5237TIP3    H137270   3.832   3.517   7.164  1.5266  1.1349  0.4888
 5237TIP3    H237271   3.831   3.371   7.200 -1.7098  1.0114  0.1910
 5238TIP3   OH237272   0.291   1.710   8.453  0.2063  0.7547 -0.0572
 5238TIP3    H137273   0.211   1.706   8.505  0.3532 -0.1426  0.1005
 5238TIP3    H237274   0.313   1.619   8.435  3.0733  0.7341  2.7721
 5239TIP3   OH237275   0.004   2.114   8.551 -0.4679 -1.3151  0.0493
 5239TIP3    H137276  -0.084   2.149   8.556  0.3072  0.7588  0.0525
 5239TIP3    H237277   0.037   2.116   8.641  0.8989  1.7240 -0.4043
 5240TIP3   OH237278   6.195   2.471   8.311 -0.1295  0.7256  0.9018
 5240TIP3    H137279   6.255   2.424   8.253 -1.1577 -0.5389  0.8155
 5240TIP3    H237280   6.233   2.460   8.398 -0.0892  0.1406  0.8155
 5241TIP3   OH237281   1.950   0.192   7.433 -0.1873 -0.1379 -0.4871
 5241TIP3    H137282   2.026   0.246   7.453 -0.6630  0.4105 -0.1484
 5241TIP3    H237283   1.987   0.105   7.417  0.5886  0.2763 -1.0649
 5242TIP3   OH237284   0.249   4.404   0.815 -0.1957 -0.5665 -0.5461
 5242TIP3    H137285   0.332   4.434   0.852 -0.2884 -1.1052  0.1154
 5242TIP3    H237286   0.264   4.402   0.720  0.1685  0.4593 -0.5197
 5243TIP3   OH237287   0.842   5.389   1.020 -0.1897 -0.0861 -0.7042
 5243TIP3    H137288   0.763   5.349   0.982 -0.2576  1.2611 -2.0562
 5243TIP3    H237289   0.837   5.481   0.996  0.9673  0.3687  0.6444
 5244TIP3   OH237290   4.557   3.084   0.035  0.4938 -0.4681 -0.1251
 5244TIP3    H137291   4.636   3.085   0.088  0.0734  0.7784  0.5049
 5244TIP3    H237292   4.486   3.079   0.099 -0.0193  1.0432 -0.5555
 5245TIP3   OH237293   6.826   4.752   1.435  0.1091 -0.5473  0.8091
 5245TIP3    H137294   6.746   4.795   1.465 -1.0895 -1.3372 -1.0986
 5245TIP3    H237295   6.844   4.686   1.502 -3.0256 -2.9133 -0.4442
 5246TIP3   OH237296   5.903   4.432   0.948 -0.0483 -0.5465  0.0442
 5246TIP3    H137297   5.991   4.401   0.924  0.1133  0.2254 -0.3914
 5246TIP3    H237298   5.872   4.479   0.870 -1.4307 -2.0033 -0.3325
 5247TIP3   OH237299   6.519   0.124   2.360 -0.7521  0.3593  0.3234
 5247TIP3    H137300   6.537   0.040   2.403  0.3298  0.0581 -0.6488
 5247TIP3    H237301   6.513   0.102   2.267  0.0897  1.4143 -0.0076
 5248TIP3   OH237302   1.294   6.203   7.537 -0.0092 -0.1671  0.0255
 5248TIP3    H137303   1.381   6.240   7.522  0.5018 -1.5530 -0.6510
 5248TIP3    H237304   1.309   6.134   7.602 -0.4451 -1.0131 -0.7606
 5249TIP3   OH237305   0.836   4.603   1.180  0.4252 -0.3720  0.2337
 5249TIP3    H137306   0.895   4.666   1.223  0.2174 -0.0429  0.0457
 5249TIP3    H237307   0.849   4.618   1.087  1.1468 -1.3423  0.1634
 5250TIP3   OH237308   0.323   6.585   1.685 -0.8548  0.2612 -0.5826
 5250TIP3    H137309   0.285   6.496   1.687 -1.5433  0.4883 -2.2539
 5250TIP3    H237310   0.254   6.640   1.722 -1.4987  0.4245 -1.9547
 5251TIP3   OH237311   2.932   3.964   8.303 -0.0590 -0.1017  0.2366
 5251TIP3    H137312   2.951   3.992   8.214  0.4190 -0.3967  0.2455
 5251TIP3    H237313   3.017   3.943   8.341 -0.3093 -0.5011  0.5887
 5252TIP3   OH237314   0.187   4.019   7.110 -0.3441 -0.0838 -0.1606
 5252TIP3    H137315   0.093   4.035   7.119 -0.2109  0.5764  0.1665
 5252TIP3    H237316   0.225   4.063   7.186  0.4939  2.2803 -1.8109
 5253TIP3   OH237317   5.745   6.206   8.289 -0.4053  0.3826  0.3999
 5253TIP3    H137318   5.778   6.178   8.203 -0.5856  0.1394  0.4085
 5253TIP3    H237319   5.738   6.301   8.282 -2.3304  0.2202 -0.5424
 5254TIP3   OH237320   1.383   3.724   1.255  0.0675  0.3146 -0.4207
 5254TIP3    H137321   1.314   3.671   1.215  0.5440 -0.5834 -0.0914
 5254TIP3    H237322   1.337   3.781   1.317 -0.4446  0.2029 -0.6918
 5255TIP3   OH237323   2.383   0.212   7.661  0.2604  0.8020 -0.0152
 5255TIP3    H137324   2.321   0.141   7.679 -0.4196  0.8987 -1.7304
 5255TIP3    H237325   2.463   0.187   7.707  0.0568 -1.1101 -0.6092
 5256TIP3   OH237326   2.085   1.855   8.107 -0.4640  0.3750 -0.1594
 5256TIP3    H137327   2.136   1.851   8.188 -0.7694  0.6937  0.0526
 5256TIP3    H237328   2.111   1.937   8.067  0.6328 -0.3614 -1.0339
 5257TIP3   OH237329   6.078   4.240   1.259 -0.3531  0.0825  0.2515
 5257TIP3    H137330   5.999   4.186   1.260  0.5969 -1.4257 -0.5222
 5257TIP3    H237331   6.104   4.242   1.167  1.1792 -0.5606  0.6294
 5258TIP3   OH237332   4.933   6.448   2.024 -0.0523 -0.5281  0.1694
 5258TIP3    H137333   5.002   6.385   2.009  1.9686  1.4495  0.5958
 5258TIP3    H237334   4.940   6.471   2.117 -2.4390 -1.4810  0.6705
 5259TIP3   OH237335   0.279   6.584   0.885  0.5797 -0.2344 -0.0570
 5259TIP3    H137336   0.211   6.633   0.931  0.1360  0.2246 -1.1674
 5259TIP3    H237337   0.315   6.524   0.951 -0.7475 -0.3324  0.5962
 5260TIP3   OH237338   2.845   4.053   7.785 -0.3852 -0.3839 -0.4628
 5260TIP3    H137339   2.841   4.013   7.698  0.4193 -0.4117 -0.4935
 5260TIP3    H237340   2.840   3.979   7.846 -0.0571 -0.4395 -0.5016
 5261TIP3   OH237341   3.365   4.647   1.686  0.0893  0.1039  0.6209
 5261TIP3    H137342   3.295   4.619   1.627  0.1681 -1.2082  1.1104
 5261TIP3    H237343   3.440   4.660   1.628  0.6118 -2.7170  0.5294
 5262TIP3   OH237344   6.140   6.637   7.918 -0.2766  1.0302 -0.2410
 5262TIP3    H137345   6.116   6.544   7.915  0.1932  0.9111 -0.3609
 5262TIP3    H237346   6.142   6.658   8.011  3.9936 -0.2605  0.1578
 5263TIP3   OH237347   3.484   2.888   1.184 -0.1756  0.7848  0.0823
 5263TIP3    H137348   3.414   2.869   1.246  0.1173 -2.0117 -0.3238
 5263TIP3    H237349   3.448   2.863   1.099  1.2655 -0.6886 -0.1375
 5264TIP3   OH237350   5.384   6.516   7.117  0.0140 -0.1106 -0.4569
 5264TIP3    H137351   5.459   6.574   7.128 -1.2013  1.1863  1.5105
 5264TIP3    H237352   5.349   6.537   7.030  0.8088  0.6196 -0.6058
 5265TIP3   OH237353   1.071   2.688   6.600 -0.4274 -0.2522  0.0620
 5265TIP3    H137354   1.108   2.670   6.686  0.0452 -1.0950 -0.2999
 5265TIP3    H237355   0.990   2.736   6.618 -0.5477 -0.7689  0.9997
 5266TIP3   OH237356   1.886   0.308   7.188  0.7037  0.4250 -0.2607
 5266TIP3    H137357   1.910   0.256   7.265  0.0497  0.3372 -0.1106
 5266TIP3    H237358   1.802   0.348   7.211  1.3843  1.9044 -0.2053
 5267TIP3   OH237359   2.753   4.512   8.341  0.1527 -0.0708 -0.6393
 5267TIP3    H137360   2.657   4.515   8.343  0.0646 -1.9471 -0.1091
 5267TIP3    H237361   2.780   4.555   8.422 -0.1764  1.4469 -1.3078
 5268TIP3   OH237362   2.791   6.644   7.016  0.1609 -0.1352  0.3096
 5268TIP3    H137363   2.839   6.707   6.962  0.7445  1.3506  2.4199
 5268TIP3    H237364   2.813   6.668   7.106 -1.9585 -1.5191  1.2766
 5269TIP3   OH237365   0.745   0.792   1.263 -0.2071 -0.7617 -0.0619
 5269TIP3    H137366   0.751   0.790   1.358  0.9541 -1.1934 -0.1298
 5269TIP3    H237367   0.653   0.812   1.245 -0.3731 -0.3565  1.1427
 5270TIP3   OH237368   3.545   4.230   1.388  0.0822 -0.1597  0.0396
 5270TIP3    H137369   3.529   4.138   1.369  1.8812 -0.1913 -1.6339
 5270TIP3    H237370   3.598   4.229   1.468  1.3893 -0.7021 -0.8098
 5271TIP3   OH237371   4.845   0.187   2.107 -0.6333  0.1342 -0.7227
 5271TIP3    H137372   4.860   0.121   2.039  1.0278  1.2616 -1.5508
 5271TIP3    H237373   4.916   0.251   2.093 -0.8301  0.9054  1.4773
 5272TIP3   OH237374   5.676   6.593   1.957 -0.0247  0.3335  0.0314
 5272TIP3    H137375   5.699   6.588   2.050 -0.0998 -0.3333  0.0154
 5272TIP3    H237376   5.586   6.561   1.953  0.4251 -0.8898 -0.4463
 5273TIP3   OH237377   0.868   5.381   0.663  0.2861  0.1577  0.5683
 5273TIP3    H137378   0.857   5.286   0.656  1.1141  0.1582 -1.3288
 5273TIP3    H237379   0.960   5.393   0.686  0.4738  0.5091 -0.3179
 5274TIP3   OH237380   1.735   0.238   0.400 -0.5891  0.1033  0.2571
 5274TIP3    H137381   1.765   0.192   0.321  0.6266 -1.7930  1.7459
 5274TIP3    H237382   1.692   0.317   0.366 -0.4257 -0.8002 -2.3068
 5275TIP3   OH237383   4.084   0.119   0.957 -0.0556  0.0993  0.4507
 5275TIP3    H137384   3.992   0.138   0.939 -0.3870 -2.2553 -0.7241
 5275TIP3    H237385   4.116   0.198   1.000 -2.2637  1.5167 -0.2955
 5276TIP3   OH237386   1.083   1.034   8.473 -0.5010  0.0575 -0.2211
 5276TIP3    H137387   1.010   1.003   8.527 -0.9563 -1.0996 -1.4297
 5276TIP3    H237388   1.095   0.964   8.408  1.0081  0.7132 -0.6813
 5277TIP3   OH237389   6.338   5.267   0.972 -0.0519  0.7465  0.7065
 5277TIP3    H137390   6.377   5.272   1.059  0.3591  4.1750  0.4739
 5277TIP3    H237391   6.389   5.330   0.920 -0.9195 -0.4833 -1.7679
 5278TIP3   OH237392   5.887   0.622   2.473 -0.0269 -0.2610 -0.2019
 5278TIP3    H137393   5.819   0.677   2.434  0.1859  0.0967 -0.0706
 5278TIP3    H237394   5.880   0.638   2.567  0.6567  0.2662 -0.2359
 5279TIP3   OH237395   6.311   1.759   1.144 -0.1881  0.0741 -0.0544
 5279TIP3    H137396   6.244   1.693   1.161 -0.5133  0.7391  1.4406
 5279TIP3    H237397   6.390   1.709   1.127 -0.7430 -0.7081 -0.3881
 5280TIP3   OH237398   2.289   0.708   0.063 -0.2229  0.3292  0.1797
 5280TIP3    H137399   2.306   0.802   0.069 -2.3438  0.7164  0.9312
 5280TIP3    H237400   2.342   0.669   0.132  2.5615  0.5982 -1.6234
 5281TIP3   OH237401   4.293   0.968   0.124  0.0776 -0.3029  0.3030
 5281TIP3    H137402   4.365   0.907   0.135  0.5378 -0.7158 -3.5708
 5281TIP3    H237403   4.322   1.028   0.055 -1.3272  2.8519  2.2334
 5282TIP3   OH237404   1.739   2.649   2.018  0.5163  0.5749  0.3786
 5282TIP3    H137405   1.663   2.670   1.962  1.8176  0.9389 -1.3376
 5282TIP3    H237406   1.771   2.734   2.047  0.5060  0.4361  0.8041
 5283TIP3   OH237407   0.118   0.923   1.793  0.4181  0.0736  0.4141
 5283TIP3    H137408   0.028   0.926   1.761 -0.1118  1.6470  1.8681
 5283TIP3    H237409   0.171   0.955   1.720 -0.1957 -0.7448 -0.4094
 5284TIP3   OH237410   1.690   1.165   7.197  0.3304  0.3749 -0.4153
 5284TIP3    H137411   1.689   1.074   7.166 -0.8662  0.0514  0.5042
 5284TIP3    H237412   1.776   1.176   7.237  0.3708 -0.4514 -0.2597
 5285TIP3   OH237413   3.922   4.059   1.558  0.1222  0.5454 -0.1363
 5285TIP3    H137414   3.985   4.025   1.621  1.2699  0.1748 -1.4400
 5285TIP3    H237415   3.975   4.089   1.484 -1.1128  1.8924 -0.5286
 5286TIP3   OH237416   4.284   6.520   1.562  0.3416 -0.3199 -0.2825
 5286TIP3    H137417   4.229   6.580   1.613  2.1439 -0.1921  1.6806
 5286TIP3    H237418   4.333   6.578   1.503  0.6318 -0.0550  0.2053
 5287TIP3   OH237419   3.070   0.155   7.682 -0.6044  0.8843 -0.3308
 5287TIP3    H137420   3.142   0.211   7.654  1.9465 -1.5139  0.8759
 5287TIP3    H237421   3.028   0.127   7.600  0.2740  1.8269 -1.1227
 5288TIP3   OH237422   3.225   3.827   8.598 -0.6637  0.8063  0.0851
 5288TIP3    H137423   3.179   3.890   8.653 -0.8623  0.3237  0.4772
 5288TIP3    H237424   3.304   3.805   8.648 -0.9757  0.1648  0.3136
 5289TIP3   OH237425   5.461   5.514   2.542  0.4117 -0.0332 -0.0118
 5289TIP3    H137426   5.418   5.440   2.585 -2.0139 -0.2180 -2.4463
 5289TIP3    H237427   5.531   5.475   2.490  0.2136 -0.4189  0.0085
 5290TIP3   OH237428   6.555   1.002   0.908 -0.6590  0.7775 -0.6749
 5290TIP3    H137429   6.545   0.906   0.906  0.3146  0.6595 -0.7319
 5290TIP3    H237430   6.603   1.018   0.990 -1.1040  1.2558 -0.5045
 5291TIP3   OH237431   4.308   5.864   0.560  0.0176 -0.1365 -0.3589
 5291TIP3    H137432   4.324   5.855   0.466  0.8888 -0.8339 -0.1563
 5291TIP3    H237433   4.374   5.809   0.601 -0.7426 -0.3278  0.6490
 5292TIP3   OH237434   0.687   5.719   0.249 -0.0551 -0.0343  0.3225
 5292TIP3    H137435   0.597   5.750   0.260  0.4811  1.9135 -0.2816
 5292TIP3    H237436   0.697   5.651   0.315 -2.4534 -1.4909 -0.6697
 5293TIP3   OH237437   6.702   6.774   0.629 -0.0179 -0.0523  0.1308
 5293TIP3    H137438   6.760   6.698   0.635 -1.2306 -0.9076  2.1166
 5293TIP3    H237439   6.632   6.746   0.570  0.4415  0.2028 -0.5519
 5294TIP3   OH237440   5.864   5.420   7.354 -0.4308  0.3428  0.2862
 5294TIP3    H137441   5.841   5.511   7.338  0.8571  0.3522 -1.8769
 5294TIP3    H237442   5.957   5.422   7.375 -0.3040 -0.4866 -0.1513
 5295TIP3   OH237443   6.083   6.535   0.719 -0.1069  0.1675 -0.0705
 5295TIP3    H137444   6.146   6.578   0.661 -0.3292 -0.3325 -0.6980
 5295TIP3    H237445   6.128   6.455   0.747 -0.4384 -0.1512 -0.4569
 5296TIP3   OH237446   3.103   0.271   0.892  0.4542  0.2950  0.0628
 5296TIP3    H137447   3.050   0.291   0.969  0.5450  1.5300 -0.1766
 5296TIP3    H237448   3.061   0.319   0.820  0.8332 -0.1998 -0.5051
 5297TIP3   OH237449   1.654   6.562   8.591 -0.1593 -0.1700  0.1712
 5297TIP3    H137450   1.651   6.555   8.686  1.6321 -0.7738  0.2288
 5297TIP3    H237451   1.664   6.472   8.560 -0.6995  0.0223 -0.5930
 5298TIP3   OH237452   0.682   2.929   7.282 -0.8563  0.6621  0.0837
 5298TIP3    H137453   0.626   2.966   7.351  0.8439  1.2498  1.2037
 5298TIP3    H237454   0.621   2.906   7.212 -2.5617  0.7505  1.4672
 5299TIP3   OH237455   3.878   0.299   0.950 -0.2876  0.2023  0.2361
 5299TIP3    H137456   3.786   0.324   0.942 -0.9883 -2.6041 -2.4216
 5299TIP3    H237457   3.926   0.369   0.906 -1.0830  1.5601  1.4142
 5300TIP3   OH237458   0.306   2.103   7.951  0.0801  0.6905 -0.6242
 5300TIP3    H137459   0.348   2.029   7.995  0.3064  0.3120 -1.4401
 5300TIP3    H237460   0.213   2.079   7.947  0.2911 -0.0324 -1.7579
 5301TIP3   OH237461   3.445   0.260   6.949  0.3667 -0.2931  0.2136
 5301TIP3    H137462   3.492   0.234   6.870  0.8446 -0.6329  0.6008
 5301TIP3    H237463   3.486   0.342   6.976  0.6726 -0.5360  0.4937
 5302TIP3   OH237464   0.927   6.698   7.954  0.5230  0.1075 -0.7980
 5302TIP3    H137465   0.963   6.739   7.875  0.4925 -1.4543 -1.6527
 5302TIP3    H237466   0.885   6.618   7.923  0.3173 -0.4342  0.7802
 5303TIP3   OH237467   6.719   3.251   7.488 -0.1890 -0.5417 -0.4223
 5303TIP3    H137468   6.777   3.324   7.509  0.5933 -0.9866 -0.9785
 5303TIP3    H237469   6.635   3.293   7.468  0.1613  0.1790 -0.4243
 5304TIP3   OH237470   5.089   3.208   2.469 -0.5391  0.5853 -0.4623
 5304TIP3    H137471   5.001   3.216   2.433 -0.5009  0.3454 -0.6141
 5304TIP3    H237472   5.094   3.118   2.503  0.0341  0.1999 -1.5202
 5305TIP3   OH237473   3.976   1.353   0.122  0.0821  0.2455 -0.4728
 5305TIP3    H137474   3.895   1.303   0.107 -1.0338  1.8396 -0.0562
 5305TIP3    H237475   4.022   1.350   0.039 -0.2655 -0.9266 -0.6409
 5306TIP3   OH237476   3.823   3.520   0.283 -0.4747  0.4135  0.0053
 5306TIP3    H137477   3.893   3.488   0.227 -1.1951  0.1452 -0.7609
 5306TIP3    H237478   3.746   3.470   0.256 -0.3457 -1.6947  3.0473
 5307TIP3   OH237479   0.238   3.842   1.245 -0.3118 -0.0033  0.5514
 5307TIP3    H137480   0.191   3.925   1.255 -1.2939 -0.4185 -0.5098
 5307TIP3    H237481   0.320   3.865   1.201 -1.2950  0.2087 -1.2211
 5308TIP3   OH237482   6.715   5.975   7.495 -0.4711  0.8363 -0.6505
 5308TIP3    H137483   6.630   5.968   7.539  0.2307  1.4358  0.8963
 5308TIP3    H237484   6.759   6.048   7.540  1.8537 -1.0682  0.3947
 5309TIP3   OH237485   3.873   2.036   8.011 -0.3595  0.0426  0.1725
 5309TIP3    H137486   3.965   2.012   8.026 -0.1204  1.1132  0.5391
 5309TIP3    H237487   3.878   2.120   7.965 -1.1276  1.1018  1.8923
 5310TIP3   OH237488   5.444   5.176   6.731 -0.0185  0.1331  0.3127
 5310TIP3    H137489   5.364   5.132   6.703 -0.3747  1.5234 -1.0436
 5310TIP3    H237490   5.506   5.105   6.748 -1.0388 -0.9237 -0.2164
 5311TIP3   OH237491   3.565   2.007   1.161  0.5568  0.4212 -0.4559
 5311TIP3    H137492   3.519   1.959   1.230  0.4293 -0.5574 -1.2011
 5311TIP3    H237493   3.657   1.984   1.174  0.7696  1.7163  0.5175
 5312TIP3   OH237494   0.304   2.396   0.969  0.7766 -0.3721  0.0651
 5312TIP3    H137495   0.241   2.444   1.023  1.2134  0.3333 -0.0398
 5312TIP3    H237496   0.384   2.449   0.973  0.2253  0.9255 -3.0241
 5313TIP3   OH237497   2.518   4.020   7.188 -0.1238  0.1776  0.8568
 5313TIP3    H137498   2.501   4.041   7.096  0.1014  0.3376  0.8502
 5313TIP3    H237499   2.463   3.944   7.206 -0.1959  0.1680  0.5987
 5314TIP3   OH237500   6.121   6.546   1.271  0.2929  0.6099 -0.3457
 5314TIP3    H137501   6.211   6.519   1.252  0.6536  0.8771  0.8906
 5314TIP3    H237502   6.125   6.642   1.270 -0.2189  0.6398 -1.2683
 5315TIP3   OH237503   1.075   4.149   7.639  0.0563  0.3024 -0.2505
 5315TIP3    H137504   1.051   4.205   7.713 -2.2948 -0.8666 -0.0099
 5315TIP3    H237505   1.092   4.210   7.567 -0.6008  1.3842  0.4841
 5316TIP3   OH237506   0.412   3.573   7.934  0.1686 -0.4025  0.2760
 5316TIP3    H137507   0.352   3.587   8.006  0.4555 -0.8097  0.5985
 5316TIP3    H237508   0.409   3.654   7.884 -2.2562 -1.1422 -0.9371
 5317TIP3   OH237509   1.051   5.951   7.916 -0.3395 -0.1775  0.0679
 5317TIP3    H137510   1.028   5.985   8.003  0.7576  1.1174 -0.1184
 5317TIP3    H237511   1.001   5.869   7.909  0.5404 -1.0271  2.4583
 5318TIP3   OH237512   0.396   2.254   8.409 -0.3369 -0.4607 -0.3252
 5318TIP3    H137513   0.381   2.170   8.453 -1.5246 -0.7374 -1.2005
 5318TIP3    H237514   0.472   2.239   8.354  0.4731 -0.4463  0.7464
 5319TIP3   OH237515   1.939   1.288   8.578  0.2162 -0.4045 -0.8113
 5319TIP3    H137516   1.987   1.330   8.650 -0.0887 -0.0913 -0.7847
 5319TIP3    H237517   1.881   1.225   8.621 -1.3490  1.0935 -0.5823
 5320TIP3   OH237518   3.580   6.594   1.950 -0.1034 -0.1411 -0.1785
 5320TIP3    H137519   3.662   6.638   1.970  0.0327 -0.3297 -0.3144
 5320TIP3    H237520   3.605   6.504   1.929 -0.5371 -0.7124  1.6198
 5321TIP3   OH237521   0.211   2.248   0.342 -0.3560 -0.3889  0.8049
 5321TIP3    H137522   0.260   2.321   0.305 -2.1057  0.2499 -0.3695
 5321TIP3    H237523   0.242   2.171   0.295 -1.3156  0.1814 -0.8387
 5322TIP3   OH237524   2.439   2.245   1.529  0.0209 -0.5622  0.6766
 5322TIP3    H137525   2.498   2.288   1.591  0.1305 -1.5348  1.2800
 5322TIP3    H237526   2.369   2.210   1.584 -0.6541 -0.1914  0.0687
 5323TIP3   OH237527   6.635   5.929   7.778  0.0741 -0.0518 -0.1495
 5323TIP3    H137528   6.656   5.836   7.778  0.6104  0.0685 -0.5575
 5323TIP3    H237529   6.568   5.938   7.846  0.7556 -0.5673  0.5995
 5324TIP3   OH237530   5.400   4.266   1.540  0.1949 -0.1504  0.9006
 5324TIP3    H137531   5.399   4.354   1.579  0.7525  0.4813 -0.4270
 5324TIP3    H237532   5.389   4.282   1.446  0.1903 -1.5252  0.6506
 5325TIP3   OH237533   0.568   2.781   1.783  0.0700 -0.1673 -0.0286
 5325TIP3    H137534   0.579   2.870   1.816 -1.6447 -0.9453  3.0810
 5325TIP3    H237535   0.655   2.755   1.753  0.7361  2.3109 -0.4267
 5326TIP3   OH237536   3.467   1.260   1.479  0.2600  0.9039 -0.1389
 5326TIP3    H137537   3.381   1.270   1.437 -0.0397 -1.3166 -0.1746
 5326TIP3    H237538   3.479   1.341   1.529 -1.5301  1.5579 -0.6930
 5327TIP3   OH237539   2.978   5.690   0.230 -0.3054 -0.0354 -0.0895
 5327TIP3    H137540   3.065   5.717   0.260 -0.7101  3.2403 -1.4199
 5327TIP3    H237541   2.971   5.725   0.141 -3.3433  0.7750  0.3493
 5328TIP3   OH237542   0.271   1.685   7.037  0.5483  0.2190  0.3036
 5328TIP3    H137543   0.315   1.606   7.070  1.2871  0.9705  1.1838
 5328TIP3    H237544   0.340   1.735   6.995  0.2523  0.7567  0.4481
 5329TIP3   OH237545   4.419   6.842   2.329  0.1354 -0.6229  0.0190
 5329TIP3    H137546   4.373   6.898   2.391  0.5639 -0.7286  0.4364
 5329TIP3    H237547   4.502   6.886   2.313 -0.7764  0.5122 -2.1279
 5330TIP3   OH237548   3.161   5.721   7.046 -0.3513  0.3061 -1.3167
 5330TIP3    H137549   3.193   5.686   6.963 -0.6284 -0.7361 -0.9970
 5330TIP3    H237550   3.211   5.674   7.113  0.8045  2.0399 -0.8731
 5331TIP3   OH237551   3.327   3.400   8.034  0.1773 -0.3479 -0.3857
 5331TIP3    H137552   3.371   3.415   7.950 -0.8691 -2.2736 -1.3689
 5331TIP3    H237553   3.269   3.325   8.017 -2.0342  0.8406  1.3460
 5332TIP3   OH237554   1.661   4.805   1.308  0.3203  0.1103  0.1671
 5332TIP3    H137555   1.597   4.788   1.239  0.0483  1.7660 -0.0374
 5332TIP3    H237556   1.702   4.888   1.283  2.9824 -1.1501  0.0013
 5333TIP3   OH237557   4.183   0.124   7.647 -0.3701  0.3359  0.1138
 5333TIP3    H137558   4.209   0.049   7.700  1.7414 -0.1171 -1.4274
 5333TIP3    H237559   4.256   0.186   7.656 -1.6163  1.8067  0.5520
 5334TIP3   OH237560   4.268   3.738   1.005 -0.0530  0.5490 -0.1156
 5334TIP3    H137561   4.252   3.770   0.916  0.1642 -0.4491 -0.5277
 5334TIP3    H237562   4.308   3.812   1.051 -0.0894  1.0463 -0.8740
 5335TIP3   OH237563   1.861   0.502   0.596 -0.0885 -0.2953 -0.8991
 5335TIP3    H137564   1.778   0.550   0.588 -0.3570 -0.7321 -0.7845
 5335TIP3    H237565   1.856   0.434   0.529 -0.0820 -0.6951 -0.5008
 5336TIP3   OH237566   6.269   5.762   7.551  0.0564  0.2657 -0.5157
 5336TIP3    H137567   6.259   5.749   7.645 -0.5849 -0.7034 -0.7088
 5336TIP3    H237568   6.340   5.704   7.525 -0.0179  0.2560 -0.6989
 5337TIP3   OH237569   3.829   4.439   8.291  0.1323  0.5118 -0.0815
 5337TIP3    H137570   3.915   4.412   8.259 -0.0174 -1.7046  1.2351
 5337TIP3    H237571   3.847   4.483   8.374  0.1321  2.1932 -0.9200
 5338TIP3   OH237572   6.875   2.566   2.395 -0.1621 -0.4634 -0.3058
 5338TIP3    H137573   6.816   2.546   2.468  0.3554 -0.0447  0.2285
 5338TIP3    H237574   6.817   2.568   2.319 -0.8198 -0.2077  0.1894
 5339TIP3   OH237575   4.168   1.204   0.302 -0.0739  0.1587 -0.3057
 5339TIP3    H137576   4.093   1.146   0.289  0.5175 -0.3610 -1.5920
 5339TIP3    H237577   4.141   1.288   0.264  0.0919 -0.1198 -1.0586
 5340TIP3   OH237578   5.871   1.245   6.330 -0.5505  0.3324  0.4140
 5340TIP3    H137579   5.899   1.336   6.319 -0.2479  0.0869 -1.1668
 5340TIP3    H237580   5.941   1.204   6.381  2.0312 -0.1705 -3.1319
 5341TIP3   OH237581   5.915   2.285   0.992 -0.1858 -0.0340 -0.3225
 5341TIP3    H137582   5.940   2.225   1.062  0.5950  0.0024 -0.5565
 5341TIP3    H237583   5.997   2.327   0.965 -0.4761 -0.0075 -1.2201
 5342TIP3   OH237584   0.477   6.200   1.581  0.1439  0.7152  0.2492
 5342TIP3    H137585   0.389   6.237   1.577  0.1784  0.7977  0.2444
 5342TIP3    H237586   0.485   6.167   1.670  0.5095  1.7136  0.5976
 5343TIP3   OH237587   0.725   4.056   7.451  0.3497  0.2150 -0.2762
 5343TIP3    H137588   0.777   4.122   7.406  1.3427 -0.7881 -0.6561
 5343TIP3    H237589   0.635   4.076   7.427  0.4937  2.1794  0.6445
 5344TIP3   OH237590   2.832   3.148   1.484 -0.8502  0.1593  0.9226
 5344TIP3    H137591   2.753   3.149   1.430 -1.5098  0.1924  1.8624
 5344TIP3    H237592   2.809   3.095   1.560  0.9584 -2.2715 -0.1036
 5345TIP3   OH237593   3.080   6.548   7.965  0.2770 -0.3784  0.3865
 5345TIP3    H137594   3.063   6.601   8.043 -1.0358  0.4539 -0.4253
 5345TIP3    H237595   3.143   6.598   7.914  0.3552 -0.4304  0.4320
 5346TIP3   OH237596   4.011   4.904   7.412  0.3715 -1.0095 -0.3441
 5346TIP3    H137597   4.085   4.859   7.372  1.2652 -0.2328  0.3805
 5346TIP3    H237598   3.939   4.843   7.404  0.7088 -1.2147 -2.3683
 5347TIP3   OH237599   0.158   6.834   7.582  0.4313  0.3247  0.2296
 5347TIP3    H137600   0.093   6.876   7.526  0.7720 -0.8089 -1.0673
 5347TIP3    H237601   0.110   6.766   7.629  0.1771  1.1776  1.2517
 5348TIP3   OH237602   0.625   3.032   1.843  0.1727  0.1774 -0.6288
 5348TIP3    H137603   0.713   3.056   1.815 -0.0369  0.8411 -0.7375
 5348TIP3    H237604   0.570   3.106   1.818 -0.1272  0.5565  1.0036
 5349TIP3   OH237605   6.689   5.600   1.875 -0.0968  0.3454 -0.1179
 5349TIP3    H137606   6.706   5.566   1.963 -0.3651  0.7715  0.1012
 5349TIP3    H237607   6.776   5.613   1.838  0.1398  2.7559  1.0970
 5350TIP3   OH237608   0.487   1.321   2.128 -0.0137 -0.3064  0.1864
 5350TIP3    H137609   0.440   1.270   2.194  1.1696 -1.1826  0.3844
 5350TIP3    H237610   0.578   1.294   2.137  0.2576 -0.0529 -1.4590
 5351TIP3   OH237611   0.197   2.425   1.757  0.2213 -0.6319 -0.3842
 5351TIP3    H137612   0.183   2.487   1.828 -1.0587 -1.2858 -0.0505
 5351TIP3    H237613   0.137   2.453   1.688 -0.7870 -1.8022 -0.0181
 5352TIP3   OH237614   2.395   3.286   8.075 -0.0011 -0.5640  0.0936
 5352TIP3    H137615   2.430   3.374   8.061 -1.0132 -0.3265 -1.0912
 5352TIP3    H237616   2.422   3.236   7.998  0.8862 -1.4138  0.9353
 5353TIP3   OH237617   6.170   2.829   0.535  0.4741 -0.0312 -0.3166
 5353TIP3    H137618   6.081   2.796   0.542  0.6086 -0.0569  1.6803
 5353TIP3    H237619   6.170   2.909   0.588  1.3780  0.5979 -1.2161
 5354TIP3   OH237620   3.949   0.508   8.106  0.3062 -0.2721  0.4362
 5354TIP3    H137621   3.921   0.431   8.056  0.8956  0.8872 -1.7881
 5354TIP3    H237622   3.941   0.481   8.198  0.1338 -2.8451 -0.2601
 5355TIP3   OH237623   5.710   5.372   2.475 -0.2792 -0.3339 -0.1028
 5355TIP3    H137624   5.759   5.382   2.393 -1.9052 -0.7776 -1.1629
 5355TIP3    H237625   5.642   5.308   2.456  0.5916 -2.1299  2.2265
 5356TIP3   OH237626   3.186   4.569   8.153 -0.1116  0.0581  0.3429
 5356TIP3    H137627   3.213   4.604   8.067  0.7356 -0.8438  0.2226
 5356TIP3    H237628   3.264   4.578   8.207 -0.7832  1.0502  1.1804
 5357TIP3   OH237629   4.318   2.715   7.574  0.2637 -0.3534 -0.2893
 5357TIP3    H137630   4.352   2.746   7.491  1.8221  0.1963  0.5180
 5357TIP3    H237631   4.395   2.698   7.627 -0.6918 -0.1780  1.2315
 5358TIP3   OH237632   5.009   3.759   0.552 -0.3729  0.2866 -0.0580
 5358TIP3    H137633   4.996   3.686   0.613 -0.3101 -0.1106 -0.5166
 5358TIP3    H237634   5.096   3.743   0.514 -0.8560 -0.0703 -1.0505
 5359TIP3   OH237635   2.573   2.852   8.034  0.0001  0.0440  0.4186
 5359TIP3    H137636   2.504   2.889   8.088 -0.1515  1.3077 -0.5848
 5359TIP3    H237637   2.638   2.819   8.097 -0.6764  0.4643  1.3572
 5360TIP3   OH237638   4.334   3.574   8.032 -0.1894  0.4858 -0.3593
 5360TIP3    H137639   4.350   3.603   7.942  1.7306  1.0102  0.1015
 5360TIP3    H237640   4.388   3.632   8.085 -0.4655 -0.5116  1.0505
 5361TIP3   OH237641   3.188   1.394   1.448 -0.7975  0.0913  0.0038
 5361TIP3    H137642   3.109   1.341   1.463 -0.9509  0.6728  1.4820
 5361TIP3    H237643   3.214   1.423   1.536  0.4221  0.8355 -0.5741
 5362TIP3   OH237644   2.854   1.201   0.581 -0.1786  0.1964 -0.1479
 5362TIP3    H137645   2.799   1.178   0.507 -0.8795 -0.2863  0.4995
 5362TIP3    H237646   2.846   1.126   0.640  0.7225  0.3709  0.2161
 5363TIP3   OH237647   2.418   0.472   8.517 -0.0445  0.4816 -0.2101
 5363TIP3    H137648   2.478   0.426   8.458 -0.2513  0.2123 -0.2133
 5363TIP3    H237649   2.448   0.450   8.605  1.1659  2.0482 -0.1790
 5364TIP3   OH237650   5.583   5.098   0.424 -0.4277  0.7148  0.4481
 5364TIP3    H137651   5.520   5.140   0.483 -1.4212  1.5525 -1.1545
 5364TIP3    H237652   5.651   5.163   0.412 -0.7772  0.9763 -0.1670
 5365TIP3   OH237653   0.514   3.527   8.563  0.1782  0.2181 -0.8063
 5365TIP3    H137654   0.524   3.573   8.480  0.2880  1.0534 -0.3518
 5365TIP3    H237655   0.433   3.477   8.553 -0.8518  1.7889 -0.7832
 5366TIP3   OH237656   2.520   4.217   0.893 -0.1934  0.0100  0.0948
 5366TIP3    H137657   2.508   4.129   0.928 -4.0980  0.4108  0.1585
 5366TIP3    H237658   2.509   4.207   0.798 -0.8242  0.4304  0.1174
 5367TIP3   OH237659   3.108   1.140   6.815  0.4965 -0.5868 -0.3866
 5367TIP3    H137660   3.075   1.169   6.900  0.9085  2.9991 -1.2916
 5367TIP3    H237661   3.075   1.051   6.806 -1.7360 -0.2020  2.4086
 5368TIP3   OH237662   3.195   3.465   0.730  0.1298  0.2871 -0.2831
 5368TIP3    H137663   3.269   3.406   0.738 -0.6354 -0.7659 -0.6383
 5368TIP3    H237664   3.149   3.459   0.814 -0.3119 -0.1440 -0.5501
 5369TIP3   OH237665   5.219   5.729   7.727  0.0323  0.1787 -0.0251
 5369TIP3    H137666   5.196   5.636   7.730  0.3805  0.1323  1.7768
 5369TIP3    H237667   5.223   5.756   7.818  0.0566  1.9517 -0.5196
 5370TIP3   OH237668   2.726   2.137   1.537 -0.2729  0.1158 -0.1241
 5370TIP3    H137669   2.704   2.223   1.572 -2.4411  0.2157 -1.5714
 5370TIP3    H237670   2.675   2.075   1.589 -0.6798 -0.0604 -0.7246
 5371TIP3   OH237671   3.359   3.142   6.957 -0.7791 -0.0579  0.5060
 5371TIP3    H137672   3.350   3.205   6.886  0.8698  0.0273  0.3360
 5371TIP3    H237673   3.285   3.161   7.015 -0.1819  2.2587  0.6183
 5372TIP3   OH237674   5.866   3.905   8.273 -0.2695  0.1065 -0.2367
 5372TIP3    H137675   5.932   3.854   8.320  0.6207 -0.0267 -1.5628
 5372TIP3    H237676   5.896   3.996   8.279 -0.3768  0.1391 -0.1915
 5373TIP3   OH237677   6.519   4.649   1.918  0.0258  0.5281 -0.0409
 5373TIP3    H137678   6.574   4.644   1.997 -0.4885  0.0829  0.3029
 5373TIP3    H237679   6.482   4.561   1.910  0.5948  0.3731 -1.1744
 5374TIP3   OH237680   0.784   1.391   7.561  0.3297  0.3995  0.4118
 5374TIP3    H137681   0.837   1.333   7.615 -1.2649  0.4706  2.1570
 5374TIP3    H237682   0.699   1.348   7.555 -0.8726  2.4418  1.6601
 5375TIP3   OH237683   2.701   2.948   7.388 -0.1830 -0.0158  0.4399
 5375TIP3    H137684   2.642   2.879   7.416  0.4101 -1.2225 -1.1611
 5375TIP3    H237685   2.783   2.930   7.436 -0.5687  0.6844  1.3992
 5376TIP3   OH237686   1.326   0.075   7.606  0.3955 -0.4055  0.1095
 5376TIP3    H137687   1.363  -0.005   7.644 -0.3536 -1.3244 -1.0109
 5376TIP3    H237688   1.297   0.127   7.681  1.4696 -0.8890  0.8829
 5377TIP3   OH237689   3.543   4.949   0.300  0.0695 -0.0623 -0.0640
 5377TIP3    H137690   3.614   4.942   0.364 -0.3055  0.5765  0.4288
 5377TIP3    H237691   3.529   4.859   0.270  1.7038 -0.0964 -0.8546
 5378TIP3   OH237692   2.461   6.029   0.273  0.4775 -0.2634  0.3043
 5378TIP3    H137693   2.451   5.942   0.312 -1.6161 -0.7939 -1.2004
 5378TIP3    H237694   2.503   6.013   0.188 -2.1291 -0.2466 -1.1083
 5379TIP3   OH237695   4.085   2.030   7.546  0.0912 -0.3012  0.3477
 5379TIP3    H137696   4.123   1.959   7.598 -0.2189  1.6147  3.4945
 5379TIP3    H237697   4.017   1.988   7.494  0.6876 -2.4692  1.1894
 5380TIP3   OH237698   4.360   1.409   0.684  0.3291 -0.0541 -0.4999
 5380TIP3    H137699   4.308   1.366   0.752  0.3243 -0.3349 -0.6829
 5380TIP3    H237700   4.442   1.360   0.681 -0.1885 -0.9033 -1.6341
 5381TIP3   OH237701   1.238   3.583   0.419 -0.3920 -0.1536  0.0613
 5381TIP3    H137702   1.271   3.596   0.507  0.6199  2.7334 -0.6329
 5381TIP3    H237703   1.251   3.490   0.402 -0.9470 -0.8600  3.0213
 5382TIP3   OH237704   1.976   6.068   6.429 -0.0217  0.0727 -0.4822
 5382TIP3    H137705   1.934   6.024   6.356  0.2055 -0.7057 -0.1573
 5382TIP3    H237706   1.934   6.154   6.433 -3.0322 -1.3068  1.0220
 5383TIP3   OH237707   2.187   0.720   8.191  0.1417 -0.0363 -0.4257
 5383TIP3    H137708   2.196   0.718   8.287 -1.4460 -0.1408 -0.2472
 5383TIP3    H237709   2.267   0.678   8.159  1.0109  0.5836  0.8175
 5384TIP3   OH237710   3.408   6.383   8.208  0.1466  0.1399  0.4902
 5384TIP3    H137711   3.377   6.373   8.298 -2.1423  0.0714 -0.2503
 5384TIP3    H237712   3.488   6.436   8.216 -0.7208  1.2571  2.4504
 5385TIP3   OH237713   0.098   6.220   1.004 -0.3621 -0.3167 -0.1118
 5385TIP3    H137714   0.045   6.300   1.010 -0.3607 -0.2275 -1.1220
 5385TIP3    H237715   0.094   6.182   1.092  0.5660  1.3756  0.7041
 5386TIP3   OH237716   0.450   5.514   7.187  0.3210  0.2350 -0.3215
 5386TIP3    H137717   0.405   5.460   7.251  0.3094  0.8844  0.2311
 5386TIP3    H237718   0.380   5.553   7.134  0.2704  0.5355 -0.0389
 5387TIP3   OH237719   0.074   3.394   1.139 -0.6835 -0.1172 -0.0083
 5387TIP3    H137720   0.099   3.444   1.061 -0.1321 -1.6361 -0.8654
 5387TIP3    H237721  -0.016   3.366   1.122 -1.3249  1.3101  0.8890
 5388TIP3   OH237722   6.619   1.381   1.554 -0.3700  0.5418 -0.0949
 5388TIP3    H137723   6.637   1.393   1.461 -0.9567  0.0998 -0.2705
 5388TIP3    H237724   6.579   1.463   1.581  0.3913  0.9174 -0.0744
 5389TIP3   OH237725   2.293   0.244   7.986  0.4672  0.2894 -0.0767
 5389TIP3    H137726   2.336   0.169   8.028 -1.0501  0.5474  2.1336
 5389TIP3    H237727   2.268   0.211   7.900  1.0059 -1.3176  0.3290
 5390TIP3   OH237728   5.360   2.580   7.999 -0.4370  0.0693 -0.2768
 5390TIP3    H137729   5.270   2.605   7.977  0.1324  2.5241 -0.0833
 5390TIP3    H237730   5.358   2.561   8.092 -1.1164 -1.8373 -0.6476
 5391TIP3   OH237731   0.619   0.080   6.295  0.0834  0.0116 -0.5754
 5391TIP3    H137732   0.661   0.165   6.308  0.1373 -0.2945  1.5412
 5391TIP3    H237733   0.592   0.081   6.203  1.5234  1.6456 -1.0319
 5392TIP3   OH237734   0.095   4.288   7.887 -0.4165  0.0927  0.8830
 5392TIP3    H137735   0.122   4.263   7.976  1.8643  1.1358  0.5478
 5392TIP3    H237736   0.175   4.280   7.835 -1.5823  0.0663 -0.9658
 5393TIP3   OH237737   4.980   0.424   2.047 -0.2450 -0.4349  0.5365
 5393TIP3    H137738   5.058   0.437   1.994  0.1330 -0.1639  1.1559
 5393TIP3    H237739   4.920   0.493   2.019  0.7943  1.1694  2.0085
 5394TIP3   OH237740   4.298   3.255   1.570  0.0691  0.1660  0.5402
 5394TIP3    H137741   4.254   3.323   1.621 -0.5056 -0.1066  0.4106
 5394TIP3    H237742   4.366   3.303   1.522 -1.1846  0.8972 -0.5739
 5395TIP3   OH237743   2.404   0.179   0.231  0.3364 -0.5955  0.4270
 5395TIP3    H137744   2.384   0.110   0.294 -0.0087 -0.6921  0.2154
 5395TIP3    H237745   2.341   0.249   0.250  0.5355 -0.4333  0.4914
 5396TIP3   OH237746   3.146   4.770   8.654 -0.0467 -0.6324  0.2450
 5396TIP3    H137747   3.114   4.754   8.742  0.1061 -0.7704  0.2758
 5396TIP3    H237748   3.083   4.727   8.597  0.7933 -2.0657  0.3548
 5397TIP3   OH237749   3.591   3.536   0.036 -0.3626  0.2451  0.4683
 5397TIP3    H137750   3.611   3.443   0.048 -0.9124  0.3684  2.5938
 5397TIP3    H237751   3.562   3.542  -0.055 -0.4417 -1.6808  0.3263
 5398TIP3   OH237752   6.865   0.693   7.433 -0.0970 -0.0321  0.0762
 5398TIP3    H137753   6.821   0.769   7.470  1.2838  0.6797  0.3522
 5398TIP3    H237754   6.862   0.627   7.503 -0.4398  0.1192  0.2038
 5399TIP3   OH237755   4.250   5.754   8.601  0.0543 -0.3476 -0.6506
 5399TIP3    H137756   4.271   5.845   8.625  2.2841 -1.3189  1.5223
 5399TIP3    H237757   4.287   5.743   8.514 -0.4760  0.8872 -1.0530
 5400TIP3   OH237758   3.141   4.178   0.007  0.1951 -0.2361  0.3921
 5400TIP3    H137759   3.206   4.246  -0.013  0.4500 -0.8293 -0.9160
 5400TIP3    H237760   3.066   4.200  -0.050  0.3429 -1.1318 -0.1562
 5401TIP3   OH237761   6.189   6.674   6.831 -0.0923  0.4711 -1.1005
 5401TIP3    H137762   6.127   6.746   6.819 -0.1997  0.3755 -1.1196
 5401TIP3    H237763   6.148   6.617   6.895 -0.0265  0.4047 -1.1172
 5402TIP3   OH237764   2.573   0.564   0.698  0.3837 -0.4271  0.6789
 5402TIP3    H137765   2.550   0.471   0.695  0.6094 -0.4985  1.1998
 5402TIP3    H237766   2.490   0.609   0.714  0.0795 -0.4485 -0.7089
 5403TIP3   OH237767   2.106   1.617   8.557  0.1011 -0.1421  0.2129
 5403TIP3    H137768   2.195   1.646   8.538 -0.6688  1.0461 -1.8291
 5403TIP3    H237769   2.097   1.629   8.652  1.4931  1.5238  0.1724
 5404TIP3   OH237770   4.534   6.017   1.171  0.3057 -0.4113  0.7691
 5404TIP3    H137771   4.601   5.965   1.126  0.1303 -1.4972  1.6992
 5404TIP3    H237772   4.579   6.051   1.248  0.1969  0.1743  0.5779
 5405TIP3   OH237773   3.324   1.083   0.983 -0.2883 -0.0997 -0.0957
 5405TIP3    H137774   3.414   1.053   0.998  0.0524  0.7047 -0.4508
 5405TIP3    H237775   3.280   1.010   0.941 -0.3556 -1.2245  1.7963
 5406TIP3   OH237776   0.377   4.326   1.344 -0.6800 -0.2143 -0.3878
 5406TIP3    H137777   0.328   4.313   1.262 -0.2432  2.9033 -1.2644
 5406TIP3    H237778   0.392   4.420   1.348  1.2871 -0.5386  2.1891
 5407TIP3   OH237779   3.960   6.463   1.165  0.6378 -0.7252  0.6208
 5407TIP3    H137780   3.971   6.470   1.070 -0.5606  0.8143  0.5525
 5407TIP3    H237781   4.045   6.488   1.201  1.0585 -1.1869 -0.0306
 5408TIP3   OH237782   1.569   2.718   0.139 -0.2001 -0.1538 -0.4715
 5408TIP3    H137783   1.629   2.672   0.198 -0.8855  1.3871  1.5360
 5408TIP3    H237784   1.484   2.675   0.153 -0.3189  0.0745 -0.4792
 5409TIP3   OH237785   0.450   3.126   2.236  0.2801  0.6582  0.8608
 5409TIP3    H137786   0.379   3.066   2.214  1.1355  0.6070 -2.1517
 5409TIP3    H237787   0.409   3.193   2.291 -1.5588 -0.5233  1.0184
 5410TIP3   OH237788   2.375   6.568   1.838  0.3429  0.3974 -0.3207
 5410TIP3    H137789   2.325   6.649   1.847 -0.4474 -0.0631 -0.3957
 5410TIP3    H237790   2.317   6.500   1.874  1.1104 -0.0940  0.0103
 5411TIP3   OH237791   3.810   1.882   6.767  0.4962 -1.0093  0.1154
 5411TIP3    H137792   3.807   1.867   6.672  0.1102 -1.9339  0.2553
 5411TIP3    H237793   3.891   1.931   6.781  0.0326  0.0479 -0.8023
 5412TIP3   OH237794   2.443   2.794   0.832 -0.3897  0.5985 -0.5819
 5412TIP3    H137795   2.501   2.767   0.903 -1.1547 -1.5727 -0.7113
 5412TIP3    H237796   2.365   2.827   0.875 -0.7304 -0.4312 -0.3907
 5413TIP3   OH237797   1.803   1.344   1.319  0.3994 -0.0018  0.2466
 5413TIP3    H137798   1.848   1.410   1.372  3.2029  0.6007 -2.5462
 5413TIP3    H237799   1.866   1.271   1.314 -0.2707 -0.5091 -1.2253
 5414TIP3   OH237800   5.891   0.286   7.574 -0.5528  0.1089  0.3558
 5414TIP3    H137801   5.846   0.356   7.527  0.9287 -0.8567 -2.7022
 5414TIP3    H237802   5.983   0.312   7.576 -0.3013 -0.7626  1.0878
 5415TIP3   OH237803   6.780   6.696   7.634 -0.0212  0.0608 -0.3046
 5415TIP3    H137804   6.695   6.699   7.678 -1.0614 -3.2616 -1.7364
 5415TIP3    H237805   6.768   6.750   7.556 -0.4192  0.5704  0.1032
 5416TIP3   OH237806   4.626   5.579   1.866  0.4299  0.3115  0.5030
 5416TIP3    H137807   4.543   5.605   1.826 -1.0788 -1.4069  2.2842
 5416TIP3    H237808   4.682   5.556   1.792 -0.7758  1.1992 -0.7442
 5417TIP3   OH237809   5.605   5.420   1.280 -0.1591  0.5840  0.6115
 5417TIP3    H137810   5.640   5.474   1.210 -0.9127  1.1174  0.6379
 5417TIP3    H237811   5.510   5.430   1.274 -0.6368 -3.2107 -1.4347
 5418TIP3   OH237812   6.563   2.967   0.163 -0.1151 -0.2685  0.3794
 5418TIP3    H137813   6.613   2.887   0.174 -1.2722 -1.0283  0.2070
 5418TIP3    H237814   6.604   3.029   0.224  1.9688 -0.3856 -0.8130
 5419TIP3   OH237815   5.019   6.838   1.773 -0.1779  0.4081 -0.1601
 5419TIP3    H137816   4.995   6.828   1.865  0.4276  0.5828  0.0190
 5419TIP3    H237817   4.977   6.764   1.729 -3.2485  2.0684 -0.3066
 5420TIP3   OH237818   5.700   1.201   6.109  0.1046 -0.0648  0.5167
 5420TIP3    H137819   5.738   1.252   6.038  2.1140 -2.6591 -0.4278
 5420TIP3    H237820   5.769   1.199   6.176  0.6294 -2.5645 -0.0382
 5421TIP3   OH237821   3.206   1.922   0.418  0.0847  0.0894 -0.2950
 5421TIP3    H137822   3.204   1.974   0.498 -1.3848  0.4739 -0.5528
 5421TIP3    H237823   3.295   1.887   0.414  0.3238  0.4712  1.2325
 5422TIP3   OH237824   4.675   3.756   7.563  0.0519 -0.2118  0.1526
 5422TIP3    H137825   4.621   3.732   7.488  0.5427 -2.1555  0.3632
 5422TIP3    H237826   4.727   3.830   7.532 -2.2066  1.2805 -0.2540
 5423TIP3   OH237827   0.141   4.201   0.344 -0.1686  0.2664 -0.0724
 5423TIP3    H137828   0.226   4.178   0.380 -0.1263 -1.3012 -1.0499
 5423TIP3    H237829   0.078   4.158   0.402 -0.1310 -1.4681 -1.2319
 5424TIP3   OH237830   4.423   5.795   0.309  0.2519  0.2039  0.5286
 5424TIP3    H137831   4.513   5.810   0.338  0.2355  0.4972  0.4307
 5424TIP3    H237832   4.431   5.730   0.239  0.2980 -0.4483  1.1180
 5425TIP3   OH237833   2.169   6.764   7.170 -0.0195 -0.1047  0.2549
 5425TIP3    H137834   2.209   6.847   7.144 -1.3742  0.3413 -0.4795
 5425TIP3    H237835   2.166   6.713   7.090  0.2952 -0.6567  0.5906
 5426TIP3   OH237836   2.628   6.603   1.942  0.0713  0.2599  0.1840
 5426TIP3    H137837   2.605   6.531   2.002  3.5127 -1.0693  0.1090
 5426TIP3    H237838   2.544   6.642   1.919 -1.7005 -1.6737  2.7813
 5427TIP3   OH237839   5.774   4.495   7.595  0.3599 -0.0304 -0.4033
 5427TIP3    H137840   5.766   4.429   7.663 -0.5400  0.4145 -0.0574
 5427TIP3    H237841   5.842   4.555   7.628 -0.0509  0.1687  0.0945
 5428TIP3   OH237842   2.230   2.010   6.873 -0.3570 -0.3650  0.5026
 5428TIP3    H137843   2.196   1.952   6.805 -3.8847  1.7160  0.2569
 5428TIP3    H237844   2.309   2.047   6.835 -0.5085 -1.5859 -1.1372
 5429TIP3   OH237845   0.714   5.337   7.411  0.4077 -0.5099 -0.1662
 5429TIP3    H137846   0.648   5.291   7.359 -0.0734 -0.2778  0.2245
 5429TIP3    H237847   0.760   5.269   7.460  1.4445 -0.8203 -1.5253
 5430TIP3   OH237848   1.086   3.968   8.112  0.1040  0.3570 -1.0572
 5430TIP3    H137849   1.007   3.952   8.060 -1.1710  0.5156  0.7289
 5430TIP3    H237850   1.114   4.056   8.087 -2.5945  1.9417  0.9822
 5431TIP3   OH237851   2.781   0.954   6.695  0.8522 -0.2599 -0.3719
 5431TIP3    H137852   2.858   0.900   6.677  1.2754  0.5933 -1.1738
 5431TIP3    H237853   2.724   0.940   6.619  0.8761  0.2583 -0.4871
 5432TIP3   OH237854   2.243   3.811   0.197  0.3872 -0.4485  0.5596
 5432TIP3    H137855   2.256   3.903   0.173  1.1190 -0.5469  0.5636
 5432TIP3    H237856   2.187   3.776   0.128  0.1895 -0.0298  0.5015
 5433TIP3   OH237857   5.257   0.877   1.005 -0.2127 -0.1128  0.0675
 5433TIP3    H137858   5.207   0.859   0.926  0.7522  0.0166 -0.5892
 5433TIP3    H237859   5.260   0.793   1.052  0.9889 -0.7574 -1.0806
 5434TIP3   OH237860   2.381   1.150   7.490  0.0960 -0.0423 -0.1544
 5434TIP3    H137861   2.385   1.172   7.583 -2.4568  0.0748 -0.0075
 5434TIP3    H237862   2.466   1.109   7.472  0.9186  0.5304  2.0419
 5435TIP3   OH237863   4.213   1.692   8.558  0.1632  0.1441 -0.4648
 5435TIP3    H137864   4.242   1.659   8.643  0.2749  0.0094 -0.5547
 5435TIP3    H237865   4.119   1.701   8.566  0.1454 -0.0919 -0.4037
 5436TIP3   OH237866   0.246   2.966   8.025  0.1284  0.4455  0.3599
 5436TIP3    H137867   0.190   2.891   8.044  1.0425  0.1596  2.0802
 5436TIP3    H237868   0.281   2.948   7.938 -0.2411 -0.7442  0.4430
 5437TIP3   OH237869   6.050   0.993   7.241 -0.2057 -0.5936  0.0767
 5437TIP3    H137870   6.036   1.069   7.297  0.6406 -0.2596 -0.1467
 5437TIP3    H237871   5.969   0.984   7.191 -0.5250 -0.1923  0.5169
 5438TIP3   OH237872   6.115   5.652   7.264 -0.0391 -0.3178  0.1662
 5438TIP3    H137873   6.079   5.644   7.352  0.1348 -0.0730  0.2642
 5438TIP3    H237874   6.081   5.577   7.216 -1.9597  0.7395 -0.1972
 5439TIP3   OH237875   3.696   3.520   8.191 -0.2122 -0.0390 -0.8818
 5439TIP3    H137876   3.708   3.483   8.103  1.2084 -2.1740  0.1352
 5439TIP3    H237877   3.728   3.610   8.184  1.6583 -0.7510 -2.1138
 5440TIP3   OH237878   2.174   0.569   1.942 -0.3172  0.3645 -0.0385
 5440TIP3    H137879   2.235   0.639   1.965 -0.8077  0.5156  0.8511
 5440TIP3    H237880   2.093   0.591   1.989 -0.9091 -0.0840 -0.8157
 5441TIP3   OH237881   3.817   2.288   2.021 -0.0865  0.1378 -0.0414
 5441TIP3    H137882   3.831   2.352   1.952  0.6325  0.6897  0.6064
 5441TIP3    H237883   3.810   2.204   1.975 -0.7207  0.6274 -0.8670
 5442TIP3   OH237884   3.535   6.734   6.735 -0.3326  0.4672  0.2471
 5442TIP3    H137885   3.507   6.689   6.656 -0.9456  0.8376  0.2445
 5442TIP3    H237886   3.569   6.665   6.792  2.1554  0.4284 -1.1583
 5443TIP3   OH237887   3.666   2.776   8.207 -0.0621 -0.3199  0.2345
 5443TIP3    H137888   3.654   2.855   8.154 -1.3097 -0.0369  0.9150
 5443TIP3    H237889   3.710   2.714   8.148  0.7803  0.8081 -0.3588
 5444TIP3   OH237890   2.743   6.142   1.266 -0.6552  0.1837  0.3671
 5444TIP3    H137891   2.822   6.130   1.319  0.4282  0.0457 -1.2154
 5444TIP3    H237892   2.678   6.178   1.327  0.0504 -1.3680  2.1318
 5445TIP3   OH237893   5.553   3.010   8.240  0.5225  0.3740  0.3255
 5445TIP3    H137894   5.520   3.068   8.171  0.6406 -0.7650 -0.7110
 5445TIP3    H237895   5.523   3.051   8.321  0.7780  1.9904 -0.3612
 5446TIP3   OH237896   5.078   0.150   7.369 -0.6584  0.0246 -0.1286
 5446TIP3    H137897   5.133   0.072   7.366  1.0553  1.0854  1.4984
 5446TIP3    H237898   5.139   0.223   7.382 -2.3162  1.4529  0.1373
 5447TIP3   OH237899   5.131   2.319   7.589  0.1578 -0.1947 -0.5260
 5447TIP3    H137900   5.118   2.403   7.632 -2.0726 -1.8566  2.3918
 5447TIP3    H237901   5.069   2.319   7.517 -0.9614  0.0894  0.4136
 5448TIP3   OH237902   0.555   3.891   7.044 -0.3137  0.2412  0.4441
 5448TIP3    H137903   0.583   3.877   6.954  1.1546  0.1433  0.8856
 5448TIP3    H237904   0.495   3.818   7.063  0.8543 -0.8228  0.1366
 5449TIP3   OH237905   0.562   3.731   0.902 -0.0574  0.3079  0.1281
 5449TIP3    H137906   0.530   3.646   0.869  0.1499  0.4056 -0.3401
 5449TIP3    H237907   0.646   3.743   0.857  1.8131 -1.0042  3.0017
 5450TIP3   OH237908   5.192   5.978   1.981 -0.3912  0.0131 -0.7755
 5450TIP3    H137909   5.127   5.993   2.050 -0.3102 -0.9706 -0.4679
 5450TIP3    H237910   5.273   5.958   2.028 -0.3291 -0.6457 -1.1497
 5451TIP3   OH237911   2.569   4.729   0.988 -0.4529  0.2792 -0.3181
 5451TIP3    H137912   2.663   4.728   1.010 -0.9351 -0.8666  2.0204
 5451TIP3    H237913   2.550   4.639   0.960 -1.1359  0.0520  0.7980
 5452TIP3   OH237914   2.485   6.710   7.938 -0.1025  0.2203  0.1453
 5452TIP3    H137915   2.479   6.775   8.009  1.7228 -0.6070  1.1287
 5452TIP3    H237916   2.569   6.730   7.896 -0.5324 -0.1802 -0.9082
 5453TIP3   OH237917   5.334   5.683   0.562 -0.0863  0.1548  0.3086
 5453TIP3    H137918   5.428   5.662   0.561 -0.2038 -0.4926 -1.7448
 5453TIP3    H237919   5.325   5.753   0.497 -1.0963 -0.1670  0.0853
 5454TIP3   OH237920   0.901   3.093   7.055  0.0516  0.1339  0.4754
 5454TIP3    H137921   0.985   3.138   7.055  0.4125 -0.5118  0.1372
 5454TIP3    H237922   0.896   3.052   7.141  0.6828 -0.8679  0.0627
 5455TIP3   OH237923   1.101   1.780   7.154  0.4378  0.0748  0.6021
 5455TIP3    H137924   1.073   1.691   7.176  1.2639 -0.1818  0.6709
 5455TIP3    H237925   1.179   1.795   7.209  0.9511  0.4280 -0.2003
 5456TIP3   OH237926   0.958   0.381   8.617 -0.6815 -0.1966 -0.3317
 5456TIP3    H137927   0.867   0.352   8.619 -0.4783 -0.9912 -1.5109
 5456TIP3    H237928   0.992   0.350   8.533  0.9033 -0.5882  0.4055
 5457TIP3   OH237929   3.104   4.144   7.029 -0.0001 -0.0019 -0.6969
 5457TIP3    H137930   3.178   4.178   6.979 -0.0442  1.2609  0.0518
 5457TIP3    H237931   3.027   4.186   6.990  0.1278  2.7164  1.6929
 5458TIP3   OH237932   6.241   1.848   7.009  0.4146 -0.1188  0.1416
 5458TIP3    H137933   6.304   1.863   6.939  0.4996 -0.5628  0.1163
 5458TIP3    H237934   6.155   1.862   6.967  0.5235  2.0288  0.5666
 5459TIP3   OH237935   4.140   3.035   0.976  0.2384 -0.3362  0.1682
 5459TIP3    H137936   4.228   3.073   0.977 -0.3859  1.1496  0.3629
 5459TIP3    H237937   4.093   3.084   0.908  0.0710 -2.3835 -1.3016
 5460TIP3   OH237938   6.326   4.199   0.046 -0.0421 -0.1172 -0.2412
 5460TIP3    H137939   6.396   4.255   0.079  0.5678 -0.1355 -1.4401
 5460TIP3    H237940   6.343   4.193  -0.048  0.0556 -2.5130 -0.1196
 5461TIP3   OH237941   2.623   2.644   8.628 -0.5091 -0.2957  0.2383
 5461TIP3    H137942   2.548   2.680   8.676 -0.1378  0.6225  0.1437
 5461TIP3    H237943   2.653   2.715   8.573  0.3194 -0.7228  0.1263
 5462TIP3   OH237944   3.761   2.032   0.550 -0.4161 -0.1225 -0.2607
 5462TIP3    H137945   3.767   2.081   0.631  2.3338 -1.3735  0.4054
 5462TIP3    H237946   3.748   1.941   0.578  0.2956 -0.5371 -1.2204
 5463TIP3   OH237947   1.277   3.290   8.506  0.1789  0.2190 -0.4049
 5463TIP3    H137948   1.185   3.305   8.481  0.2583  1.1444 -0.1910
 5463TIP3    H237949   1.326   3.305   8.425  0.1376 -0.4090 -0.5510
 5464TIP3   OH237950   6.504   5.116   0.559 -0.0969  0.7346  0.4646
 5464TIP3    H137951   6.554   5.055   0.505 -0.9879 -1.9677  2.4721
 5464TIP3    H237952   6.561   5.136   0.633 -0.0009  2.0025  0.0682
 5465TIP3   OH237953   2.689   0.078   6.966 -0.1707 -0.0594 -0.8369
 5465TIP3    H137954   2.758   0.125   6.919  0.5391 -0.4596 -0.2191
 5465TIP3    H237955   2.656   0.014   6.904 -0.0093  0.1558 -1.1474
 5466TIP3   OH237956   0.386   2.301   1.920  0.5527  0.1030  0.1212
 5466TIP3    H137957   0.341   2.231   1.968  0.8281  0.7987  1.4524
 5466TIP3    H237958   0.317   2.348   1.874  0.3842 -1.1602 -1.0019
 5467TIP3   OH237959   2.257   3.241   8.537  1.1854 -0.6435 -0.1328
 5467TIP3    H137960   2.227   3.281   8.455 -1.1453  0.4972  1.1742
 5467TIP3    H237961   2.282   3.152   8.513 -0.0287 -0.5351 -1.9854
 5468TIP3   OH237962   5.414   3.139   0.935  0.3101  0.3492  0.5122
 5468TIP3    H137963   5.385   3.208   0.876 -0.0211  1.0426  1.4504
 5468TIP3    H237964   5.377   3.164   1.020  2.5724  0.5828  1.5071
 5469TIP3   OH237965   3.642   0.349   0.097  0.1877  0.2596 -0.6844
 5469TIP3    H137966   3.601   0.435   0.110  1.3360  0.6023  0.8890
 5469TIP3    H237967   3.735   0.369   0.087  0.4325 -0.7965 -0.5485
 5470TIP3   OH237968   4.316   2.362   7.404  0.1099  0.3710  0.0820
 5470TIP3    H137969   4.328   2.315   7.486 -1.3756  1.1865  0.7985
 5470TIP3    H237970   4.225   2.346   7.380  0.5038  0.1797 -1.4116
 5471TIP3   OH237971   4.080   1.578   1.125  0.3718 -0.3162 -0.5273
 5471TIP3    H137972   4.076   1.496   1.077 -1.0154 -1.5947  1.6131
 5471TIP3    H237973   4.126   1.556   1.207 -1.6994  0.4779  0.9467
 5472TIP3   OH237974   2.360   4.457   6.605 -0.1045 -0.2650 -0.3002
 5472TIP3    H137975   2.368   4.413   6.690  0.8595  0.2446 -0.1274
 5472TIP3    H237976   2.279   4.420   6.568 -1.1688  0.3379  1.3173
 5473TIP3   OH237977   1.532   0.059   0.734  0.2028  0.6114  0.4207
 5473TIP3    H137978   1.438   0.051   0.750 -0.0568  0.0765 -1.2203
 5473TIP3    H237979   1.545   0.152   0.713 -0.4647  0.2249 -2.0226
 5474TIP3   OH237980   4.747   0.275   7.883 -0.3707 -0.0775  0.2987
 5474TIP3    H137981   4.818   0.312   7.936 -0.8956 -0.6942  1.4828
 5474TIP3    H237982   4.676   0.260   7.946 -1.1645 -0.4606 -0.6693
 5475TIP3   OH237983   1.488   6.610   1.688 -0.0398  0.1954 -0.7879
 5475TIP3    H137984   1.530   6.696   1.695  0.0410  0.1460 -0.6444
 5475TIP3    H237985   1.411   6.624   1.633 -0.3544  0.4813 -0.2784
 5476TIP3   OH237986   1.911   5.884   1.450  0.0297  0.0452  0.0120
 5476TIP3    H137987   1.979   5.926   1.503  0.5471  0.3906 -0.8945
 5476TIP3    H237988   1.959   5.835   1.383 -0.6076  0.0168 -0.4402
 5477TIP3   OH237989   6.707   0.269   7.642 -0.0232  0.3590  0.2508
 5477TIP3    H137990   6.660   0.341   7.600  0.1229  0.3281  0.0303
 5477TIP3    H237991   6.642   0.227   7.699 -0.1137  0.6549  0.3689
 5478TIP3   OH237992   5.007   6.033   7.922 -1.1007 -0.4672  0.4211
 5478TIP3    H137993   5.055   6.116   7.929 -0.9090 -0.6137  0.9153
 5478TIP3    H237994   4.950   6.045   7.846  0.2081 -0.5336 -0.6086
 5479TIP3   OH237995   1.730   5.706   1.361 -0.4956  0.3802  0.0881
 5479TIP3    H137996   1.711   5.729   1.271 -1.5239  1.4935  0.5636
 5479TIP3    H237997   1.791   5.774   1.391 -0.8365  0.5191  0.4781
 5480TIP3   OH237998   6.005   4.800   2.249  0.5658  0.9275 -0.2587
 5480TIP3    H137999   6.070   4.755   2.303  1.4487  1.1424 -1.1179
 5480TIP3    H238000   5.927   4.743   2.254  0.1401  1.6039  2.2746
 5481TIP3   OH238001   0.132   2.011   7.476  0.2321  0.2120 -0.5274
 5481TIP3    H138002   0.216   1.982   7.441  0.7762  0.9774  0.0881
 5481TIP3    H238003   0.128   2.104   7.454 -0.5655  0.1337 -0.7510
 5482TIP3   OH238004   4.798   3.799   0.997 -0.2702  0.0930 -0.2582
 5482TIP3    H138005   4.831   3.846   1.073 -0.0858 -0.5953  0.1019
 5482TIP3    H238006   4.825   3.851   0.922  1.6028 -0.4013  0.0207
 5483TIP3   OH238007   6.548   4.184   0.678 -0.6331 -0.2786  0.1716
 5483TIP3    H138008   6.615   4.134   0.724  1.1446  0.9394 -0.9634
 5483TIP3    H238009   6.497   4.119   0.631  2.0070 -1.0866 -1.7848
 5484TIP3   OH238010   5.686   0.844   1.343  0.1750 -0.7591  0.6910
 5484TIP3    H138011   5.697   0.933   1.311  0.0650 -0.5582  1.1980
 5484TIP3    H238012   5.616   0.850   1.408  0.2489 -1.1922  0.8195
 5485TIP3   OH238013   0.341   6.640   8.391  0.7684 -0.0447 -0.3700
 5485TIP3    H138014   0.350   6.555   8.348 -0.2420 -0.2140 -0.2736
 5485TIP3    H238015   0.408   6.695   8.350  1.8724 -1.0585  0.0283
 5486TIP3   OH238016   1.495   2.938   2.212  0.3467 -0.0886 -0.2806
 5486TIP3    H138017   1.585   2.929   2.243  1.0236 -2.7029 -2.5741
 5486TIP3    H238018   1.496   3.016   2.157  1.4230 -0.4971 -0.8682
 5487TIP3   OH238019   6.838   2.555   8.368 -0.2898 -0.3688  0.1450
 5487TIP3    H138020   6.821   2.602   8.450  1.0798  0.7386 -0.1744
 5487TIP3    H238021   6.791   2.472   8.378  0.5412 -0.6339  2.4166
 5488TIP3   OH238022   4.570   5.136   0.513 -0.3968 -0.2937 -0.0547
 5488TIP3    H138023   4.664   5.154   0.516 -0.1926 -0.8417 -1.9426
 5488TIP3    H238024   4.539   5.185   0.436 -0.9133 -3.0897 -1.7484
 5489TIP3   OH238025   5.265   5.156   1.125 -0.1311 -0.1271  0.1054
 5489TIP3    H138026   5.225   5.074   1.098 -0.2711  0.3378 -1.1790
 5489TIP3    H238027   5.352   5.131   1.155 -0.9592 -1.0036  1.8779
 5490TIP3   OH238028   4.552   0.916   8.048 -0.5881 -0.2354 -0.3795
 5490TIP3    H138029   4.634   0.867   8.045 -1.1900 -1.2909 -0.2184
 5490TIP3    H238030   4.498   0.870   8.112 -0.6519  1.5372  0.9274
 5491TIP3   OH238031   1.234   1.253   2.102  0.4307 -0.0705  0.1391
 5491TIP3    H138032   1.140   1.253   2.090  0.1864 -1.5078  1.6802
 5491TIP3    H238033   1.249   1.196   2.178  2.5318  0.1243 -0.0572
 5492TIP3   OH238034   1.535   5.896   7.246 -0.2783 -0.2662  0.4710
 5492TIP3    H138035   1.468   5.883   7.313 -0.0366 -0.3572  0.7008
 5492TIP3    H238036   1.612   5.851   7.281  0.2234  0.7362  0.7155
 5493TIP3   OH238037   5.807   4.209   8.457 -0.2267 -0.2238  0.4042
 5493TIP3    H138038   5.853   4.235   8.377  1.1678 -1.9885  0.5710
 5493TIP3    H238039   5.729   4.265   8.459  1.6925  2.6961 -0.0713
 5494TIP3   OH238040   1.859   2.476   7.057  0.0200 -0.1589 -0.2225
 5494TIP3    H138041   1.921   2.506   6.991  1.0965 -3.1746 -0.7396
 5494TIP3    H238042   1.906   2.408   7.105 -1.9890 -0.6276  1.2167
 5495TIP3   OH238043   2.194   2.898   0.764 -0.3881  0.2748  0.8058
 5495TIP3    H138044   2.172   2.951   0.841 -0.0099  0.7285  0.6019
 5495TIP3    H238045   2.191   2.808   0.796  0.1584  0.4815  1.4560
 5496TIP3   OH238046   2.892   5.471   6.441 -0.2060  0.2665 -0.5273
 5496TIP3    H138047   2.947   5.397   6.417 -0.1880 -0.0797  0.5323
 5496TIP3    H238048   2.931   5.505   6.521 -0.2419  1.4031 -0.9655
 5497TIP3   OH238049   3.263   3.876   0.699 -0.0346 -0.2255 -0.2498
 5497TIP3    H138050   3.279   3.970   0.712 -0.0597 -0.4366  1.5285
 5497TIP3    H238051   3.209   3.872   0.620  1.3562  1.1187 -1.3511
 5498TIP3   OH238052   4.003   4.474   7.004 -0.0452  0.1935 -0.2182
 5498TIP3    H138053   3.960   4.430   7.077 -0.0694  0.3974 -0.1094
 5498TIP3    H238054   4.029   4.559   7.039  2.6592 -0.7977  0.5104
 5499TIP3   OH238055   4.188   6.507   1.302  0.0382 -0.1628 -0.1153
 5499TIP3    H138056   4.210   6.492   1.395  0.7480  1.2808 -0.0356
 5499TIP3    H238057   4.188   6.419   1.264  1.3897 -0.6431  0.9025
 5500TIP3   OH238058   0.433   4.788   0.128 -0.3372  0.0251  0.0234
 5500TIP3    H138059   0.455   4.880   0.112  1.1572 -0.1044  1.0705
 5500TIP3    H238060   0.349   4.791   0.173 -0.3911  0.8645 -0.1135
 5501TIP3   OH238061   4.286   2.509   0.046 -0.4196 -0.3455  0.5591
 5501TIP3    H138062   4.281   2.413   0.046  2.8498 -0.6596 -0.5204
 5501TIP3    H238063   4.301   2.532  -0.045  1.7660  0.8803  1.1543
 5502TIP3   OH238064   2.240   5.727   1.496 -0.5544 -0.4763  0.2617
 5502TIP3    H138065   2.332   5.712   1.473 -0.7351 -0.5923 -0.4111
 5502TIP3    H238066   2.191   5.676   1.432 -1.0838 -0.6656  0.8140
 5503TIP3   OH238067   5.984   2.556   7.763 -0.4879 -0.1542 -0.4635
 5503TIP3    H138068   6.028   2.493   7.705 -0.6919 -1.0142  0.2915
 5503TIP3    H238069   6.017   2.535   7.850 -0.1085  1.1961 -0.2614
 5504TIP3   OH238070   3.634   0.462   8.465 -0.2249 -0.2299  0.6574
 5504TIP3    H138071   3.573   0.481   8.392  0.9311  2.1978  0.2032
 5504TIP3    H238072   3.577   0.433   8.536 -1.4552 -2.2008 -1.0212
 5505TIP3   OH238073   2.964   5.147   6.749 -1.2762  0.0390 -0.1892
 5505TIP3    H138074   3.013   5.226   6.771 -0.9422 -0.2590  0.1474
 5505TIP3    H238075   2.983   5.131   6.656 -1.1570  0.2196 -0.1943
 5506TIP3   OH238076   4.616   0.636   2.257 -0.2070 -0.7102 -0.0095
 5506TIP3    H138077   4.604   0.727   2.286  1.1176 -1.0147  1.6100
 5506TIP3    H238078   4.688   0.640   2.195 -0.9086 -0.5259 -0.8414
 5507TIP3   OH238079   4.614   1.260   0.648  0.1460 -0.4433  0.1178
 5507TIP3    H138080   4.650   1.306   0.724 -0.0574 -1.5700  0.9174
 5507TIP3    H238081   4.639   1.314   0.573  0.4753  0.6117  0.9705
 5508TIP3   OH238082   0.278   0.281   7.052  0.0126 -0.3737  0.0260
 5508TIP3    H138083   0.193   0.323   7.036 -0.3607 -1.6467 -1.8047
 5508TIP3    H238084   0.283   0.270   7.147 -1.5146  0.4324  0.2271
 5509TIP3   OH238085   2.236   2.146   0.752  0.2364 -0.1757 -0.1642
 5509TIP3    H138086   2.272   2.228   0.787 -0.8249  0.7302 -1.1459
 5509TIP3    H238087   2.161   2.127   0.809 -0.1625  0.1137 -0.5917
 5510TIP3   OH238088   0.069   2.727   7.819  0.2286  0.4820  0.6658
 5510TIP3    H138089   0.139   2.666   7.797  0.7900  1.8529 -1.7068
 5510TIP3    H238090   0.027   2.747   7.736  0.5711  3.8162  1.1380
 5511TIP3   OH238091   1.502   1.061   8.480 -0.1077 -0.4569 -0.8198
 5511TIP3    H138092   1.483   1.133   8.420  0.5169  0.1319 -0.3242
 5511TIP3    H238093   1.530   0.989   8.424  0.6113  0.1324 -1.2340
 5512TIP3   OH238094   5.606   4.670   7.475  0.4769 -0.0114 -0.0594
 5512TIP3    H138095   5.667   4.619   7.529  2.0666 -0.2229 -1.9470
 5512TIP3    H238096   5.659   4.740   7.438 -1.3746  2.2884  1.3970
 5513TIP3   OH238097   6.808   3.466   1.752 -0.8015  0.0734 -0.5947
 5513TIP3    H138098   6.805   3.421   1.836  1.1138 -0.3392 -0.6900
 5513TIP3    H238099   6.722   3.507   1.743 -1.1343 -0.0719  1.4435
 5514TIP3   OH238100   6.563   2.216   0.810  0.2450 -0.1872  0.0626
 5514TIP3    H138101   6.608   2.263   0.740 -0.9078  1.7015  0.5038
 5514TIP3    H238102   6.620   2.142   0.830  2.6171  1.4726 -0.1084
 5515TIP3   OH238103   0.214   2.225   0.769 -0.7910  0.0961  0.2180
 5515TIP3    H138104   0.269   2.151   0.794 -1.1585  0.0391  0.8809
 5515TIP3    H238105   0.261   2.302   0.802 -0.3310  0.1797 -0.6084
 5516TIP3   OH238106   3.945   6.251   1.493  0.2104 -0.5115  0.3322
 5516TIP3    H138107   3.959   6.233   1.400 -2.8501 -1.2436 -0.0926
 5516TIP3    H238108   3.980   6.339   1.505  1.6708 -0.8214 -1.2307
 5517TIP3   OH238109   1.840   2.531   7.945  0.4396  0.3756 -0.2097
 5517TIP3    H138110   1.851   2.519   7.851  1.3214  0.6891 -0.1574
 5517TIP3    H238111   1.850   2.626   7.958  0.3887  0.3256  0.2066
 5518TIP3   OH238112   4.971   3.265   0.364  0.2942  0.0595  0.3660
 5518TIP3    H138113   5.024   3.192   0.333  1.3792  1.0804 -0.2582
 5518TIP3    H238114   4.960   3.248   0.458 -0.5496 -1.5409  0.0073
 5519TIP3   OH238115   2.587   2.075   7.968  0.3982  0.0641  0.2668
 5519TIP3    H138116   2.654   2.042   7.908  0.1948 -0.5767  0.3827
 5519TIP3    H238117   2.599   2.024   8.048  1.2054  1.4875  1.0813
 5520TIP3   OH238118   5.807   3.561   1.813  0.8476  0.0426  0.0814
 5520TIP3    H138119   5.784   3.634   1.870 -0.0640  0.1681 -0.4327
 5520TIP3    H238120   5.898   3.577   1.789  1.4365 -0.3028  1.9108
 5521TIP3   OH238121   1.540   4.871   6.544 -0.3690 -0.6834 -0.1413
 5521TIP3    H138122   1.445   4.872   6.539 -0.3945 -1.3535  0.0989
 5521TIP3    H238123   1.564   4.781   6.520  0.0178 -1.4546  2.8385
 5522TIP3   OH238124   4.840   1.063   1.380 -0.4419  0.2371  0.1771
 5522TIP3    H138125   4.903   1.131   1.359  0.8644 -0.7369  0.7457
 5522TIP3    H238126   4.775   1.067   1.310  0.2481  1.2727 -0.4297
 5523TIP3   OH238127   0.017   4.587   1.637  0.1692 -0.2620  0.4453
 5523TIP3    H138128   0.108   4.591   1.668  0.9294 -1.0073 -1.5752
 5523TIP3    H238129  -0.011   4.498   1.657 -0.5504  0.2730  2.0543
 5524TIP3   OH238130   2.087   4.145   0.339 -0.3864 -0.2795  0.2889
 5524TIP3    H138131   2.105   4.238   0.328  1.9385 -0.6938  0.1363
 5524TIP3    H238132   2.061   4.115   0.252 -0.9307  0.1809  0.2936
 5525TIP3   OH238133   5.795   2.078   8.222  0.8591 -0.8895  0.7707
 5525TIP3    H138134   5.717   2.129   8.244 -0.6313 -3.4477  1.8920
 5525TIP3    H238135   5.788   2.062   8.128  0.2707 -0.7249  0.7837
 5526TIP3   OH238136   0.773   0.596   2.575 -0.5598  0.0486  0.0799
 5526TIP3    H138137   0.762   0.685   2.539 -0.1451  0.9595  2.0739
 5526TIP3    H238138   0.850   0.562   2.529 -0.5464  0.8351 -0.5153
 5527TIP3   OH238139   1.597   6.464   1.444 -0.1077  0.0399  0.0135
 5527TIP3    H138140   1.632   6.532   1.501  0.5644 -1.1430  1.0747
 5527TIP3    H238141   1.674   6.426   1.402 -0.4961  0.1092 -0.7755
 5528TIP3   OH238142   5.793   0.337   1.990 -0.5504 -0.1054 -0.2770
 5528TIP3    H138143   5.729   0.289   1.937 -0.3845  0.3400 -0.8894
 5528TIP3    H238144   5.756   0.425   1.998  0.5306  0.5153 -1.6500
 5529TIP3   OH238145   0.827   5.978   1.766  0.0028  0.1765 -0.5385
 5529TIP3    H138146   0.915   5.946   1.749  0.5892  1.0496  0.6585
 5529TIP3    H238147   0.817   5.972   1.861 -1.0297  0.5832 -0.6039
 5530TIP3   OH238148   0.056   5.270   7.037  0.7289 -0.2245 -0.0878
 5530TIP3    H138149   0.147   5.288   7.011  0.5482  0.8503 -0.0288
 5530TIP3    H238150   0.021   5.216   6.967  1.4947 -0.9170  0.0357
 5531TIP3   OH238151   3.608   6.816   6.409  0.3855  0.2272 -0.2418
 5531TIP3    H138152   3.572   6.748   6.466  1.3003 -2.1307 -2.2829
 5531TIP3    H238153   3.692   6.839   6.450 -1.0400  2.1257  1.8387
 5532TIP3   OH238154   5.332   2.969   0.395  0.6356  0.1068 -0.0323
 5532TIP3    H138155   5.371   2.910   0.330  0.4541  0.1113 -0.1468
 5532TIP3    H238156   5.349   2.927   0.479  1.5694  0.4909 -0.0161
 5533TIP3   OH238157   3.302   0.759   6.524  0.6381  0.1778 -0.3591
 5533TIP3    H138158   3.372   0.760   6.459 -0.0441 -0.6375 -1.1267
 5533TIP3    H238159   3.294   0.666   6.549 -1.4756 -0.0868 -1.7666
 5534TIP3   OH238160   4.931   0.466   1.233  0.3505 -0.2345 -0.7377
 5534TIP3    H138161   5.024   0.454   1.248  0.3306  1.5065  1.2159
 5534TIP3    H238162   4.893   0.380   1.253  1.1994 -0.0209  2.2526
 5535TIP3   OH238163   1.897   5.627   8.030 -0.2124  0.4898 -0.2752
 5535TIP3    H138164   1.802   5.641   8.026 -0.4293 -0.8116 -0.0409
 5535TIP3    H238165   1.934   5.714   8.012 -1.4504  1.4518  1.4513
 5536TIP3   OH238166   2.592   1.909   0.233 -0.6813 -0.2308 -0.4626
 5536TIP3    H138167   2.597   1.843   0.302 -0.9738  2.0607  1.9065
 5536TIP3    H238168   2.506   1.894   0.192 -2.1762  0.5548  2.1654
 5537TIP3   OH238169   6.097   4.536   1.322  0.6571 -0.2210  0.1961
 5537TIP3    H138170   6.073   4.446   1.298  2.8791 -1.5142  2.3264
 5537TIP3    H238171   6.021   4.570   1.369 -0.2481 -0.9377 -0.7123
 5538TIP3   OH238172   5.211   6.107   0.865 -0.1892  0.1912  0.1139
 5538TIP3    H138173   5.194   6.080   0.775 -0.1368  0.6363 -0.0319
 5538TIP3    H238174   5.248   6.029   0.907  1.8926  0.6206 -0.8458
 5539TIP3   OH238175   4.807   0.750   1.309  0.5250 -0.1501  0.3185
 5539TIP3    H138176   4.737   0.763   1.372  1.7421  0.3798  1.6313
 5539TIP3    H238177   4.851   0.670   1.337  0.3636 -0.5746 -0.5908
 5540TIP3   OH238178   6.435   6.589   8.618 -0.0292  0.5880  0.1971
 5540TIP3    H138179   6.476   6.557   8.538  0.9268  1.0941  0.4717
 5540TIP3    H238180   6.449   6.519   8.681  0.7436  0.9014  0.3857
 5541TIP3   OH238181   1.395   6.434   6.626  0.0397  0.2258  0.0520
 5541TIP3    H138182   1.356   6.507   6.674 -2.5672 -0.3018 -1.1126
 5541TIP3    H238183   1.489   6.454   6.626 -0.5985  4.1581 -1.1448
 5542TIP3   OH238184   6.328   0.195   2.043 -0.1802 -0.1470 -0.0869
 5542TIP3    H138185   6.407   0.162   2.001  0.2531 -0.5676  1.0365
 5542TIP3    H238186   6.297   0.123   2.097  0.3432  0.9810  1.7877
 5543TIP3   OH238187   1.912   2.174   0.297 -0.1592 -0.2351  0.1263
 5543TIP3    H138188   1.935   2.190   0.388 -0.6482 -0.1286  0.2337
 5543TIP3    H238189   1.818   2.155   0.299  0.0977 -1.6467 -0.1735
 5544TIP3   OH238190   1.466   6.781   2.200  0.2083  1.0253  1.2421
 5544TIP3    H138191   1.470   6.767   2.294  0.1145  2.0063  1.3963
 5544TIP3    H238192   1.374   6.797   2.182 -0.3203 -2.0634  0.5242
 5545TIP3   OH238193   6.217   5.002   0.951  0.3865  0.1015 -0.4073
 5545TIP3    H138194   6.175   4.991   1.037 -1.9028  0.6067 -1.3948
 5545TIP3    H238195   6.240   5.094   0.947  0.1654  0.1531 -0.4810
 5546TIP3   OH238196   4.623   1.015   0.146 -0.1395 -0.0857 -0.1649
 5546TIP3    H138197   4.714   1.018   0.118  0.1081  0.4038  0.6881
 5546TIP3    H238198   4.611   0.926   0.178  0.0844 -0.0908 -0.0980
 5547TIP3   OH238199   5.805   3.005   0.078 -0.3278 -0.3997 -0.5022
 5547TIP3    H138200   5.898   3.011   0.053 -0.2474 -1.2538 -0.4316
 5547TIP3    H238201   5.807   2.990   0.172 -0.6141  2.0965 -0.0210
 5548TIP3   OH238202   0.100   2.182   1.761 -0.1871 -0.3115  0.7227
 5548TIP3    H138203   0.168   2.120   1.787 -0.9772 -0.3478  2.8937
 5548TIP3    H238204   0.140   2.268   1.775 -0.1012 -0.3268  0.5771
 5549TIP3   OH238205   3.907   5.074   7.158  0.4381  0.0188 -0.2243
 5549TIP3    H138206   3.882   5.022   7.235  0.9344 -1.3989 -0.9786
 5549TIP3    H238207   3.841   5.053   7.093  0.2263  0.9321 -0.3021
 5550TIP3   OH238208   4.321   3.536   8.423  0.0063  0.1974  0.7106
 5550TIP3    H138209   4.295   3.581   8.342 -0.3511 -2.1327 -0.5530
 5550TIP3    H238210   4.374   3.462   8.393  1.0007  0.0379  2.7254
 5551TIP3   OH238211   5.318   4.446   0.368  0.4278  0.2482  0.6294
 5551TIP3    H138212   5.274   4.397   0.297 -0.6633  0.3462  1.2160
 5551TIP3    H238213   5.410   4.445   0.343  0.1723 -0.4054 -0.3931
 5552TIP3   OH238214   0.091   0.716   0.930 -0.0132 -0.1722  0.7127
 5552TIP3    H138215   0.168   0.771   0.920  1.0358 -1.7493 -0.3345
 5552TIP3    H238216   0.104   0.671   1.014 -0.1329  0.0501  0.8520
 5553TIP3   OH238217   1.598   3.745   1.081 -0.4326  0.3549  0.1704
 5553TIP3    H138218   1.516   3.724   1.126  0.3341 -0.1062  1.4185
 5553TIP3    H238219   1.580   3.728   0.989 -1.4105 -0.8159  0.5520
 5554TIP3   OH238220   2.050   3.642   8.140 -0.3943 -0.1312  0.7238
 5554TIP3    H138221   2.009   3.652   8.226 -0.5634 -0.0719  0.6367
 5554TIP3    H238222   1.977   3.635   8.079 -0.2777 -0.6493  0.6383
 5555TIP3   OH238223   5.620   2.219   1.567 -0.2526 -0.1200 -0.0920
 5555TIP3    H138224   5.579   2.231   1.653  0.8819  2.5278  0.1902
 5555TIP3    H238225   5.562   2.265   1.506 -0.5543 -1.1729 -0.6263
 5556TIP3   OH238226   0.867   1.482   1.609  0.0177  0.4575  0.4327
 5556TIP3    H138227   0.890   1.504   1.700  2.9688 -0.1418 -0.0815
 5556TIP3    H238228   0.830   1.394   1.615  2.6125 -0.6974  0.8769
 5557TIP3   OH238229   4.856   3.548   6.703  0.1567  0.0570  0.0304
 5557TIP3    H138230   4.915   3.585   6.637  0.1535 -1.0305 -0.6026
 5557TIP3    H238231   4.771   3.545   6.661  0.3026 -1.3602 -0.2339
 5558TIP3   OH238232   3.854   0.757   6.709  0.2512 -0.6703 -0.1638
 5558TIP3    H138233   3.890   0.772   6.621  1.2839 -0.1703  0.3256
 5558TIP3    H238234   3.773   0.808   6.711  0.9514  0.4780 -0.3541
 5559TIP3   OH238235   5.932   1.006   8.224  0.1496 -0.0738  0.3109
 5559TIP3    H138236   5.840   1.004   8.250  0.5148  0.6852  1.7567
 5559TIP3    H238237   5.963   0.917   8.236 -0.4053 -0.3513 -0.2575
 5560TIP3   OH238238   5.580   4.735   0.648  0.0386  0.1603  0.2039
 5560TIP3    H138239   5.635   4.761   0.574  0.1425 -1.0974 -0.1905
 5560TIP3    H238240   5.493   4.768   0.625  0.0135 -0.4473 -0.6175
 5561TIP3   OH238241   0.785   5.929   6.973  0.1320 -0.1201 -0.1836
 5561TIP3    H138242   0.702   5.929   7.020 -0.1711 -0.6740 -0.7077
 5561TIP3    H238243   0.804   6.021   6.957  1.2070  0.2428  2.6751
 5562TIP3   OH238244   5.300   1.118   6.923 -0.8011 -0.2645 -0.2841
 5562TIP3    H138245   5.371   1.055   6.915  1.4956  2.1546 -0.6659
 5562TIP3    H238246   5.251   1.111   6.841  0.0277 -0.8693 -0.7365
 5563TIP3   OH238247   4.434   1.066   2.501 -0.1960  0.2990  0.6462
 5563TIP3    H138248   4.491   1.080   2.577  0.6929 -1.9648  0.4895
 5563TIP3    H238249   4.490   1.022   2.438 -1.5249  0.1300 -0.4517
 5564TIP3   OH238250   2.614   6.457   7.359  0.5123  0.2859 -0.1452
 5564TIP3    H138251   2.535   6.413   7.392 -0.1509  1.0700 -0.6522
 5564TIP3    H238252   2.581   6.525   7.300  1.5904  0.2898 -0.7747
 5565TIP3   OH238253   2.991   4.655   7.668  0.6761  0.2396 -0.1637
 5565TIP3    H138254   3.043   4.603   7.729  1.2236  0.2856 -0.5743
 5565TIP3    H238255   3.000   4.609   7.584  1.5079  1.1969 -0.6245
 5566TIP3   OH238256   6.183   3.011   7.788 -0.0820  0.1172 -0.0148
 5566TIP3    H138257   6.228   3.090   7.819 -1.8436  1.4498 -0.6976
 5566TIP3    H238258   6.164   3.029   7.696  0.1452 -1.4486 -0.3963
 5567TIP3   OH238259   6.390   0.416   1.507  0.2968 -0.2228  0.1857
 5567TIP3    H138260   6.480   0.416   1.474  0.0869  0.6018 -0.4087
 5567TIP3    H238261   6.353   0.334   1.472  0.7570 -0.4796  0.2876
 5568TIP3   OH238262   5.361   4.264   8.172 -0.1096 -0.5640  0.4605
 5568TIP3    H138263   5.403   4.345   8.143 -0.1105 -0.8156 -0.2493
 5568TIP3    H238264   5.272   4.290   8.196  0.0152 -0.2859  0.6278
 5569TIP3   OH238265   3.352   2.830   7.292  0.7739 -0.1019  0.2782
 5569TIP3    H138266   3.390   2.853   7.207 -0.0961  1.1643  0.2013
 5569TIP3    H238267   3.257   2.830   7.276  0.5856  0.5827  1.3355
 5570TIP3   OH238268   6.264   2.842   7.409  0.3273  0.1732  0.2376
 5570TIP3    H138269   6.200   2.884   7.466 -1.6795 -0.7856 -1.1939
 5570TIP3    H238270   6.318   2.914   7.376 -1.8218  1.4335 -0.7109
 5571TIP3   OH238271   1.128   3.848   0.791  0.2427 -0.0084  0.4391
 5571TIP3    H138272   1.120   3.781   0.859 -0.2763 -0.0154  0.3761
 5571TIP3    H238273   1.117   3.931   0.836 -2.7290 -0.0689  0.0514
 5572TIP3   OH238274   4.311   2.957   1.437 -0.4425  0.2591  0.6153
 5572TIP3    H138275   4.252   2.914   1.499 -0.8156 -0.3414 -0.1324
 5572TIP3    H238276   4.397   2.955   1.479 -0.1171 -2.6295  0.0006
 5573TIP3   OH238277   3.422   3.459   1.407 -0.1433  0.6944  0.3842
 5573TIP3    H138278   3.377   3.535   1.443  0.5359 -0.1510  3.2245
 5573TIP3    H238279   3.387   3.385   1.455  1.4456 -0.4197 -0.0893
 5574TIP3   OH238280   2.848   4.927   0.288 -0.1061  0.3098  0.1140
 5574TIP3    H138281   2.799   4.959   0.364  0.1923 -0.0616  0.4718
 5574TIP3    H238282   2.794   4.856   0.254  1.6060 -2.3947  2.4833
 5575TIP3   OH238283   0.275   2.796   1.978  0.0024  0.1678  0.0412
 5575TIP3    H138284   0.273   2.858   1.905 -1.4225  0.9259  0.6753
 5575TIP3    H238285   0.208   2.731   1.956 -1.2586  1.0325  1.1488
 5576TIP3   OH238286   6.265   2.496   1.598 -0.0161  0.2888 -0.7451
 5576TIP3    H138287   6.314   2.574   1.625  0.9543 -0.2345 -0.9350
 5576TIP3    H238288   6.200   2.529   1.535 -2.9936  1.7012  2.7183
 5577TIP3   OH238289   2.281   2.817   1.066 -0.0546 -0.3047  0.2102
 5577TIP3    H138290   2.221   2.754   1.024 -1.7598  0.8519  0.7878
 5577TIP3    H238291   2.322   2.767   1.137 -2.2090 -0.5761  1.3692
 5578TIP3   OH238292   3.242   1.991   1.132  0.0482  0.6229 -0.0416
 5578TIP3    H138293   3.230   1.937   1.054 -1.2366 -0.6181  0.9588
 5578TIP3    H238294   3.305   2.058   1.106  1.5402 -1.2103 -1.3990
 5579TIP3   OH238295   1.697   2.636   8.334 -0.2679 -0.5480  0.2921
 5579TIP3    H138296   1.702   2.545   8.305  1.2322 -0.3965 -0.0240
 5579TIP3    H238297   1.656   2.631   8.420  1.4161 -1.7590  1.0971
 5580TIP3   OH238298   1.921   2.177   6.275 -0.5772  0.2918 -0.4072
 5580TIP3    H138299   1.957   2.258   6.240  1.1097 -1.0458 -2.0260
 5580TIP3    H238300   1.828   2.179   6.252 -0.5850  1.8092 -0.2921
 5581TIP3   OH238301   4.385   5.190   8.534  0.2882 -0.5239  0.3118
 5581TIP3    H138302   4.296   5.169   8.507  0.2633  0.5035 -0.4531
 5581TIP3    H238303   4.387   5.285   8.539  2.3428 -0.2071 -3.3438
 5582TIP3   OH238304   0.603   4.621   6.865  0.3025 -0.2451 -0.2087
 5582TIP3    H138305   0.552   4.670   6.930  1.5222  0.9408 -0.1114
 5582TIP3    H238306   0.539   4.597   6.798 -0.5428  0.5029  0.3092
 5583TIP3   OH238307   3.256   0.716   1.493 -0.0688 -0.4816  0.8378
 5583TIP3    H138308   3.217   0.642   1.446 -0.6851 -0.6262  1.5482
 5583TIP3    H238309   3.194   0.788   1.479  1.0816  0.2404 -0.7825
 5584TIP3   OH238310   5.377   4.220   1.906 -0.4774  0.4591  0.0098
 5584TIP3    H138311   5.403   4.307   1.875  2.1808 -0.0768  0.5105
 5584TIP3    H238312   5.340   4.235   1.993 -1.1488  1.1884 -0.3882
 5585TIP3   OH238313   3.983   0.797   8.414  0.0408 -0.1441 -0.4762
 5585TIP3    H138314   4.016   0.869   8.467 -2.1606 -0.0211  0.8492
 5585TIP3    H238315   4.029   0.720   8.447  1.5230  0.4340 -1.0902
 5586TIP3   OH238316   0.246   5.676   7.075 -0.1900  0.3822  0.1544
 5586TIP3    H138317   0.172   5.617   7.091  0.9943 -1.2749 -0.1511
 5586TIP3    H238318   0.239   5.699   6.982  0.6438 -1.2704 -0.3650
 5587TIP3   OH238319   0.785   1.844   1.384 -0.1899 -0.2471  0.2121
 5587TIP3    H138320   0.870   1.862   1.343  0.7221 -1.0681  1.6839
 5587TIP3    H238321   0.783   1.750   1.397 -0.6580 -0.0698  1.5990
 5588TIP3   OH238322   2.754   6.656   1.573  0.0168 -0.4570  0.4038
 5588TIP3    H138323   2.802   6.592   1.626  1.6365  0.5967  0.2672
 5588TIP3    H238324   2.662   6.639   1.593  0.3208 -3.3224 -0.2121
 5589TIP3   OH238325   2.436   3.531   7.361  0.1327 -0.4259 -0.3247
 5589TIP3    H138326   2.443   3.536   7.457 -1.1761  1.4408 -0.2706
 5589TIP3    H238327   2.374   3.459   7.345  1.8502 -2.0893  0.0804
 5590TIP3   OH238328   1.750   3.932   8.384  0.3870 -0.0293  0.1780
 5590TIP3    H138329   1.718   3.857   8.334 -0.0319 -0.0118  0.4127
 5590TIP3    H238330   1.802   3.893   8.455  4.5267 -0.0166 -2.4798
 5591TIP3   OH238331   4.965   1.656   0.040 -0.3840  0.4119  0.5190
 5591TIP3    H138332   5.034   1.596   0.013  1.1014  1.6526  1.3787
 5591TIP3    H238333   4.906   1.603   0.094  0.3480 -0.4760  0.4712
 5592TIP3   OH238334   4.432   1.202   6.830  0.3360  0.2985 -0.0240
 5592TIP3    H138335   4.430   1.119   6.877  2.9251  0.5122  0.5751
 5592TIP3    H238336   4.494   1.188   6.758 -0.9401  1.0465 -1.3324
 5593TIP3   OH238337   1.329   2.855   7.121  0.2746 -0.1181  0.4041
 5593TIP3    H138338   1.243   2.869   7.160  0.7408 -0.2489  1.5299
 5593TIP3    H238339   1.367   2.783   7.172  1.2477  0.2788  0.2790
 5594TIP3   OH238340   6.480   0.196   8.229 -0.0759 -0.4363 -0.0594
 5594TIP3    H138341   6.528   0.118   8.202 -0.2556 -0.1590 -1.2118
 5594TIP3    H238342   6.539   0.269   8.210  0.2449 -0.2915  1.3610
 5595TIP3   OH238343   5.782   3.518   8.505 -0.0508  0.2663  0.5214
 5595TIP3    H138344   5.738   3.437   8.481  2.8894 -0.9880 -1.2265
 5595TIP3    H238345   5.727   3.587   8.469 -1.9332 -0.9877  0.8530
 5596TIP3   OH238346   2.238   1.506   6.168 -0.4453 -0.7796 -0.1272
 5596TIP3    H138347   2.324   1.548   6.166 -0.7623 -0.1319 -1.7910
 5596TIP3    H238348   2.248   1.430   6.111 -0.6563 -1.3800  0.6316
 5597TIP3   OH238349   5.951   3.288   7.581 -0.0844 -0.0606  0.1167
 5597TIP3    H138350   5.862   3.255   7.579  0.0623 -0.8169  2.6033
 5597TIP3    H238351   5.943   3.379   7.610 -0.0272 -0.2023  0.5741
 5598TIP3   OH238352   5.349   4.813   7.515  0.4051 -0.2359 -0.4705
 5598TIP3    H138353   5.350   4.864   7.434 -0.9176 -1.8903 -1.6006
 5598TIP3    H238354   5.441   4.796   7.534  0.7495  0.3244 -1.5553
 5599TIP3   OH238355   2.161   5.469   7.479  0.1886  0.3065 -0.1114
 5599TIP3    H138356   2.238   5.440   7.529  0.9226  0.4360 -1.1430
 5599TIP3    H238357   2.136   5.392   7.427  0.4099  0.6440 -0.7282
 5600TIP3   OH238358   6.365   1.289   1.765 -0.4492 -0.6276 -0.7627
 5600TIP3    H138359   6.379   1.244   1.848 -3.1669 -1.9584 -0.9245
 5600TIP3    H238360   6.337   1.377   1.791 -0.5263 -0.7836 -0.2942
 5601TIP3   OH238361   0.802   2.881   8.248  0.3132 -0.0909  0.1011
 5601TIP3    H138362   0.816   2.924   8.163  2.7201  0.2197  0.5698
 5601TIP3    H238363   0.741   2.938   8.294  1.6034  1.6195 -0.1960
 5602TIP3   OH238364   6.524   0.766   2.439 -0.1771  0.0011 -0.0996
 5602TIP3    H138365   6.506   0.835   2.503  0.5564  2.9356 -2.7882
 5602TIP3    H238366   6.616   0.743   2.453 -0.3030 -0.1469  0.5251
 5603TIP3   OH238367   6.345   3.971   1.385 -0.1108 -0.5948 -0.0170
 5603TIP3    H138368   6.437   3.990   1.364  0.0230  1.6442  2.1043
 5603TIP3    H238369   6.304   3.954   1.300  2.2830 -1.9950 -0.9975
 5604TIP3   OH238370   0.628   3.345   1.243 -0.0361 -0.0129 -0.2591
 5604TIP3    H138371   0.604   3.434   1.216 -0.3258 -0.2876 -0.9276
 5604TIP3    H238372   0.723   3.343   1.239 -0.0524  0.1063 -0.7910
 5605TIP3   OH238373   3.535   1.865   6.408  0.1118  0.1594 -0.3798
 5605TIP3    H138374   3.453   1.886   6.452  0.8459 -1.0420  1.6970
 5605TIP3    H238375   3.516   1.788   6.355  0.2760 -1.3755  1.6563
 5606TIP3   OH238376   2.986   2.889   8.243  0.7318  0.1484 -0.2799
 5606TIP3    H138377   2.976   2.845   8.158 -2.5511  0.7024 -0.2898
 5606TIP3    H238378   2.956   2.978   8.228 -2.8121 -0.4467  1.9327
 5607TIP3   OH238379   2.228   6.857   7.658  0.4309 -0.1669 -0.6973
 5607TIP3    H138380   2.194   6.831   7.572 -0.1802 -1.1322 -0.1834
 5607TIP3    H238381   2.284   6.784   7.685  0.1236 -0.1543 -0.0103
 5608TIP3   OH238382   6.479   1.753   7.203  0.4307  0.6440 -0.5983
 5608TIP3    H138383   6.474   1.687   7.134  0.0955  2.1185 -2.0359
 5608TIP3    H238384   6.547   1.814   7.173 -0.6033  1.9971 -0.2632
 5609TIP3   OH238385   3.646   1.323   0.102 -0.0518  0.6482  0.2486
 5609TIP3    H138386   3.655   1.228   0.092  1.3436  0.6625  1.0595
 5609TIP3    H238387   3.649   1.356   0.012  2.5015  0.1021  0.0378
 5610TIP3   OH238388   3.564   4.852   6.752 -0.2352 -0.3584  0.6751
 5610TIP3    H138389   3.533   4.935   6.788 -0.9125 -1.2609  2.2653
 5610TIP3    H238390   3.659   4.857   6.762 -0.3348 -0.1699  1.7482
 5611TIP3   OH238391   2.649   4.704   7.010 -0.5043  0.1478 -0.2474
 5611TIP3    H138392   2.734   4.668   6.985 -1.2254 -0.2792 -2.3316
 5611TIP3    H238393   2.617   4.647   7.079  0.3163 -0.5166 -0.4036
 5612TIP3   OH238394   2.606   3.850   7.598 -0.2896  0.1835  0.2547
 5612TIP3    H138395   2.574   3.937   7.572  0.6946  0.6391  0.5213
 5612TIP3    H238396   2.627   3.807   7.515 -1.5422 -0.1190  0.0742
 5613TIP3   OH238397   3.960   4.711   8.161 -0.0094  0.5618 -0.5119
 5613TIP3    H138398   3.877   4.671   8.136  0.8092 -1.3988 -0.2682
 5613TIP3    H238399   4.020   4.689   8.089  1.6091 -2.6184  1.5579
 5614TIP3   OH238400   1.617   1.535   0.440  0.1895 -0.4666  0.0995
 5614TIP3    H138401   1.702   1.510   0.478  0.8159  1.8516  0.4191
 5614TIP3    H238402   1.639   1.605   0.378 -1.3509 -0.9131 -0.9948
 5615TIP3   OH238403   1.381   4.994   2.500 -0.2022 -0.2450 -0.1651
 5615TIP3    H138404   1.357   4.957   2.415  1.3203  2.0111 -1.7040
 5615TIP3    H238405   1.322   5.068   2.512  2.0170  1.8463 -1.2521
 5616TIP3   OH238406   6.672   5.168   0.770  0.6131 -0.1119 -0.8396
 5616TIP3    H138407   6.757   5.191   0.734  0.8037  1.6376  0.5974
 5616TIP3    H238408   6.671   5.207   0.857 -0.7081 -2.1991  0.1714
 5617TIP3   OH238409   3.803   2.050   1.817  0.0753 -0.0165 -0.0123
 5617TIP3    H138410   3.875   1.993   1.788 -1.2159 -1.0708 -1.3138
 5617TIP3    H238411   3.801   2.121   1.752  1.6380  1.5468  1.5695
 5618TIP3   OH238412   6.298   1.960   7.255 -0.5450 -0.1212 -0.0823
 5618TIP3    H138413   6.388   1.928   7.258 -0.8160 -0.8663  0.3163
 5618TIP3    H238414   6.253   1.899   7.196 -1.1777 -0.7921  1.0537
 5619TIP3   OH238415   6.729   2.320   1.564  0.2726  0.0629 -0.8251
 5619TIP3    H138416   6.704   2.412   1.550  1.8222  0.4720 -1.1116
 5619TIP3    H238417   6.657   2.283   1.614 -0.0445  1.6443 -0.0507
 5620TIP3   OH238418   1.721   6.498   2.143  0.0643 -0.8496 -0.0277
 5620TIP3    H138419   1.665   6.529   2.072  1.9030 -0.1805 -1.2598
 5620TIP3    H238420   1.678   6.528   2.223  0.3035  2.5446 -1.0467
 5621TIP3   OH238421   3.178   1.119   8.602 -0.4805  0.0168 -0.3122
 5621TIP3    H138422   3.158   1.210   8.579  0.4439  1.2587  3.1955
 5621TIP3    H238423   3.273   1.113   8.596 -0.3089  0.0485  1.5885
 5622TIP3   OH238424   3.526   1.905   0.120 -0.1428 -0.0903 -0.2882
 5622TIP3    H138425   3.459   1.852   0.075  0.2877 -0.0309 -1.0134
 5622TIP3    H238426   3.476   1.975   0.161 -0.4259  0.7851 -2.0081
 5623TIP3   OH238427   4.824   2.297   1.235 -0.2724  0.1506  0.3949
 5623TIP3    H138428   4.752   2.277   1.176  0.2060  1.1780 -0.5826
 5623TIP3    H238429   4.790   2.278   1.323 -2.2705  2.0080  0.1181
 5624TIP3   OH238430   1.497   2.139   1.864  0.0248 -0.9385  0.2050
 5624TIP3    H138431   1.489   2.225   1.824  0.8495 -0.1007  1.7680
 5624TIP3    H238432   1.492   2.078   1.790  1.4149  0.5241 -1.1892
 5625TIP3   OH238433   0.717   2.733   2.168 -0.8825  0.1536  0.1024
 5625TIP3    H138434   0.689   2.820   2.138 -0.7789  0.1734  0.0622
 5625TIP3    H238435   0.642   2.699   2.217 -0.6207  0.6108  0.8402
 5626TIP3   OH238436   4.410   2.011   6.569  0.1324  0.1310 -0.3905
 5626TIP3    H138437   4.351   1.944   6.536 -1.5729  1.6680 -0.5852
 5626TIP3    H238438   4.478   2.018   6.502  1.2035 -2.3664  0.3056
 5627TIP3   OH238439   0.905   3.839   7.925  0.1067 -0.3423 -0.3909
 5627TIP3    H138440   0.895   3.925   7.884  0.5645  0.3914  0.9852
 5627TIP3    H238441   0.816   3.804   7.928 -0.6163  1.4599  1.8738
 5628TIP3   OH238442   6.008   0.755   0.323  0.3299 -0.0836  0.3384
 5628TIP3    H138443   5.964   0.814   0.262  1.9561 -0.4399 -1.2669
 5628TIP3    H238444   6.026   0.808   0.400  0.5514  1.1419 -0.5325
 5629TIP3   OH238445   6.344   4.295   1.356  0.6382 -0.2868 -0.2375
 5629TIP3    H138446   6.276   4.228   1.353 -0.3796  0.7457 -1.6920
 5629TIP3    H238447   6.378   4.299   1.267  3.0814 -1.1815  0.5710
 5630TIP3   OH238448   5.222   3.378   8.067  0.1919 -0.1049 -0.0813
 5630TIP3    H138449   5.231   3.400   8.160  0.5300  0.6079 -0.2700
 5630TIP3    H238450   5.136   3.337   8.060  0.4541 -0.7930  0.6575
 5631TIP3   OH238451   2.893   2.697   1.135  0.6884 -0.3854  0.4357
 5631TIP3    H138452   2.942   2.779   1.135  0.1709 -0.0633  1.2163
 5631TIP3    H238453   2.900   2.665   1.224 -1.9015  0.5510  1.0729
 5632TIP3   OH238454   2.276   3.766   2.494  0.9129  0.5484 -0.2784
 5632TIP3    H138455   2.281   3.768   2.398  0.5157  0.4625 -0.3049
 5632TIP3    H238456   2.341   3.701   2.520 -0.1260 -0.6617 -0.6009
 5633TIP3   OH238457   6.545   0.748   1.991  0.0814  0.4092  0.3209
 5633TIP3    H138458   6.621   0.701   1.956 -0.6652  0.4643 -1.4574
 5633TIP3    H238459   6.470   0.699   1.958 -0.6960  2.0710 -0.4595
 5634TIP3   OH238460   5.818   4.637   1.142  0.3449  0.0217 -0.6783
 5634TIP3    H138461   5.843   4.582   1.068 -2.2403 -0.4943 -1.2688
 5634TIP3    H238462   5.885   4.704   1.146  2.4083 -1.8774 -1.3255
 5635TIP3   OH238463   6.584   3.441   8.490 -0.6192 -0.2733 -0.0644
 5635TIP3    H138464   6.616   3.423   8.402 -0.8113 -0.7180 -0.0424
 5635TIP3    H238465   6.655   3.490   8.532 -1.0493  1.1285 -0.8920
 5636TIP3   OH238466   4.258   6.790   1.030 -0.1619 -0.8492 -0.3806
 5636TIP3    H138467   4.216   6.868   0.993 -0.1521 -0.6587  0.0130
 5636TIP3    H238468   4.232   6.719   0.970  0.4651 -0.4177 -1.1684
 5637TIP3   OH238469   3.228   5.335   0.201 -0.6930 -0.4267 -0.3781
 5637TIP3    H138470   3.163   5.391   0.242 -0.0276  1.0921 -1.2986
 5637TIP3    H238471   3.179   5.260   0.170 -1.9725  0.5421 -0.7863
 5638TIP3   OH238472   1.655   6.145   8.419 -0.0565 -0.7744  0.3762
 5638TIP3    H138473   1.569   6.140   8.460 -0.5419 -0.6916 -0.5925
 5638TIP3    H238474   1.710   6.190   8.483 -0.8948 -0.2570  0.7450
 5639TIP3   OH238475   1.898   2.950   0.359  0.0932 -0.5243 -0.3613
 5639TIP3    H138476   1.951   2.916   0.431  0.0354 -2.0779 -1.0190
 5639TIP3    H238477   1.819   2.896   0.359 -1.3015  1.3915  0.2550
 5640TIP3   OH238478   3.058   6.128   0.894 -0.4192 -0.4566 -0.0549
 5640TIP3    H138479   3.065   6.115   0.799 -1.3624 -2.0925  0.0478
 5640TIP3    H238480   3.085   6.218   0.908  1.2380 -0.6290 -1.6930
 5641TIP3   OH238481   5.842   5.932   0.146 -0.6853 -0.3748  0.2788
 5641TIP3    H138482   5.931   5.900   0.129 -0.1109  0.9408  0.7093
 5641TIP3    H238483   5.848   5.979   0.229 -1.8521 -0.4851  0.4488
 5642TIP3   OH238484   2.186   1.767   1.100 -0.1749 -0.2010 -0.0137
 5642TIP3    H138485   2.216   1.833   1.162  1.1321 -2.2973  1.7470
 5642TIP3    H238486   2.259   1.756   1.039 -1.2546  1.4816 -1.6911
 5643TIP3   OH238487   0.817   5.079   1.679  0.0649 -0.0972  0.4390
 5643TIP3    H138488   0.772   5.022   1.616 -0.2974 -1.8496  2.1739
 5643TIP3    H238489   0.877   5.021   1.725 -0.5471  0.8010  2.5109
 5644TIP3   OH238490   1.980   5.890   7.957  0.5877 -0.5289  0.4665
 5644TIP3    H138491   2.009   5.976   7.988  0.4438 -0.3815  0.1964
 5644TIP3    H238492   2.052   5.831   7.979 -0.2875 -0.8148  2.8456
 5645TIP3   OH238493   4.634   2.716   8.000  0.3625 -0.1838 -0.2903
 5645TIP3    H138494   4.641   2.810   7.986  0.5503 -0.3632 -1.5396
 5645TIP3    H238495   4.552   2.704   8.048  0.6212  0.6499  0.3838
 5646TIP3   OH238496   5.096   5.527   1.739  0.2869 -0.0026  0.6421
 5646TIP3    H138497   5.150   5.449   1.751  0.4329 -0.5346 -2.5321
 5646TIP3    H238498   5.079   5.530   1.645  0.4112  3.8841  0.5842
 5647TIP3   OH238499   1.184   6.428   8.373 -0.1134 -0.7270 -0.7564
 5647TIP3    H138500   1.178   6.520   8.346  0.7566 -0.3445  0.3203
 5647TIP3    H238501   1.095   6.406   8.400 -0.0063  0.3438  0.6164
 5648TIP3   OH238502   2.795   1.850   1.807 -0.8442  0.5422 -0.3351
 5648TIP3    H138503   2.823   1.799   1.883 -0.5487  1.4838  0.2005
 5648TIP3    H238504   2.877   1.883   1.768 -1.0658  1.2558 -0.2108
 5649TIP3   OH238505   2.533   5.184   1.032  1.0679 -0.3737 -0.5130
 5649TIP3    H138506   2.532   5.149   0.943  1.3482 -0.0710 -0.6393
 5649TIP3    H238507   2.548   5.278   1.020  2.3040 -0.4994 -0.1061
 5650TIP3   OH238508   1.850   2.596   6.471  0.5058  0.0960  0.1488
 5650TIP3    H138509   1.786   2.576   6.539  0.3202  1.1701  0.3177
 5650TIP3    H238510   1.835   2.689   6.452  0.7655 -0.1049 -1.1300
 5651TIP3   OH238511   4.854   1.063   0.038  0.5834  0.3248  1.1501
 5651TIP3    H138512   4.933   1.010   0.053  0.7085  0.8257  2.3722
 5651TIP3    H238513   4.874   1.114  -0.040 -0.0286 -2.2875 -0.8963
 5652TIP3   OH238514   1.474   3.599   8.088  0.0602  0.3508 -0.1294
 5652TIP3    H138515   1.449   3.513   8.122  0.0683  0.1148 -0.7120
 5652TIP3    H238516   1.522   3.640   8.160 -0.7351  0.2320  0.4812
 5653TIP3   OH238517   3.120   4.624   0.868  0.2333 -0.6873 -0.2658
 5653TIP3    H138518   3.181   4.636   0.941  0.5201 -0.0766 -0.5914
 5653TIP3    H238519   3.089   4.713   0.849  0.4105 -0.7909 -1.0861
 5654TIP3   OH238520   3.008   2.597   7.521 -0.0023  0.5312  0.8568
 5654TIP3    H138521   2.986   2.586   7.613 -0.4641  1.5929  0.8989
 5654TIP3    H238522   3.103   2.612   7.520  0.3214 -1.3349  0.9533
 5655TIP3   OH238523   0.476   5.902   7.025  0.0060 -0.3252  0.5148
 5655TIP3    H138524   0.419   5.920   6.951 -0.7434 -2.1051  0.6096
 5655TIP3    H238525   0.475   5.983   7.076 -0.1428  0.6332 -0.9607
 5656TIP3   OH238526   5.553   2.801   0.252 -0.2966 -0.8425 -0.3491
 5656TIP3    H138527   5.472   2.762   0.219 -0.2938  0.1178 -1.5357
 5656TIP3    H238528   5.610   2.726   0.268 -0.0207 -1.3600 -3.2752
 5657TIP3   OH238529   0.075   0.754   8.447  0.1711 -0.0532  0.2855
 5657TIP3    H138530   0.089   0.849   8.439 -1.6899  0.3366  0.9870
 5657TIP3    H238531   0.064   0.724   8.357 -0.9920  0.7379  0.1410
 5658TIP3   OH238532   2.061   3.508   0.673 -0.4414  0.2507 -0.4135
 5658TIP3    H138533   1.981   3.455   0.667 -0.9464  0.7725  1.0262
 5658TIP3    H238534   2.127   3.459   0.625 -1.7055 -0.0185 -1.9700
 5659TIP3   OH238535   2.319   3.112   0.258  0.0871 -0.1965 -0.3207
 5659TIP3    H138536   2.282   3.024   0.250  0.0286 -0.2585  0.5946
 5659TIP3    H238537   2.412   3.097   0.275  0.1406 -0.0739 -0.5072
 5660TIP3   OH238538   3.616   0.492   1.435  0.0040  0.6011 -0.1076
 5660TIP3    H138539   3.566   0.574   1.426  1.5317  1.9082  2.2014
 5660TIP3    H238540   3.557   0.434   1.483 -0.3073  1.1473  0.1871
 5661TIP3   OH238541   1.489   1.149   0.059 -0.1528  0.3508  0.5829
 5661TIP3    H138542   1.469   1.107  -0.025  0.7369  0.5741  0.2386
 5661TIP3    H238543   1.427   1.221   0.065 -0.4731  0.1040  0.2979
 5662TIP3   OH238544   4.911   6.487   1.746 -0.2725 -0.1054 -0.6319
 5662TIP3    H138545   5.001   6.517   1.732 -0.2598 -0.9133 -2.5673
 5662TIP3    H238546   4.908   6.467   1.839  2.4146 -2.5985 -0.9123
 5663TIP3   OH238547   1.975   2.792   1.271  0.0385 -0.4329  0.3599
 5663TIP3    H138548   1.994   2.734   1.197  2.6156  0.5117  0.1845
 5663TIP3    H238549   1.968   2.733   1.346  0.2105 -1.1651 -0.1889
 5664TIP3   OH238550   4.307   1.568   7.740 -0.0658  0.2948 -0.3830
 5664TIP3    H138551   4.384   1.533   7.696  1.5445  3.4541 -0.4357
 5664TIP3    H238552   4.319   1.544   7.832  0.0902 -0.6255 -0.6338
 5665TIP3   OH238553   2.485   0.805   6.674  0.1800  0.2377  0.0884
 5665TIP3    H138554   2.416   0.870   6.663 -3.1177 -2.6975  1.5049
 5665TIP3    H238555   2.534   0.808   6.592 -1.5843  2.5015 -0.9997
 5666TIP3   OH238556   0.400   0.199   7.509 -0.7009  0.5090 -0.0555
 5666TIP3    H138557   0.312   0.196   7.548 -1.4645 -2.0199 -1.7064
 5666TIP3    H238558   0.394   0.269   7.444 -1.7600 -0.1064 -0.6542
 5667TIP3   OH238559   4.955   4.477   0.924 -0.2730  0.0961 -0.3490
 5667TIP3    H138560   5.007   4.491   1.003 -0.4116 -0.6073 -0.1270
 5667TIP3    H238561   4.880   4.424   0.953 -0.3696 -0.0976 -0.9347
 5668TIP3   OH238562   5.259   3.325   0.729 -0.2079  0.8724 -0.1959
 5668TIP3    H138563   5.166   3.306   0.742 -0.7333  2.7099 -0.9031
 5668TIP3    H238564   5.275   3.306   0.637 -0.2740  1.9165 -0.4386
 5669TIP3   OH238565   1.206   5.222   1.783  0.3878  0.6558 -0.4709
 5669TIP3    H138566   1.122   5.268   1.781 -0.6463 -1.1366  0.0632
 5669TIP3    H238567   1.190   5.143   1.835  1.9121 -0.6846 -1.9184
 5670TIP3   OH238568   0.044   2.920   1.428  0.0573  0.1448  0.1285
 5670TIP3    H138569   0.012   2.985   1.365 -0.8678  0.7182  1.1537
 5670TIP3    H238570   0.052   2.839   1.377 -0.4683  0.6377 -0.7699
 5671TIP3   OH238571   3.707   1.099   7.820 -0.5131 -0.3549  0.1661
 5671TIP3    H138572   3.728   1.034   7.752 -1.2832 -2.4403  1.7970
 5671TIP3    H238573   3.787   1.151   7.828  0.2177 -1.2059 -1.0956
 5672TIP3   OH238574   5.029   2.089   0.120  0.0145  0.3238 -0.0143
 5672TIP3    H138575   5.000   2.024   0.056 -0.2282  0.8581 -0.4543
 5672TIP3    H238576   5.030   2.042   0.204 -1.2539  0.0510 -0.1354
 5673TIP3   OH238577   2.885   0.586   8.121  0.1504 -0.3669  0.1983
 5673TIP3    H138578   2.883   0.605   8.027  1.0282 -0.0035  0.2386
 5673TIP3    H238579   2.972   0.549   8.135  0.2758  0.2071  0.9804
 5674TIP3   OH238580   4.891   5.267   7.081  0.2367  0.1242  0.2295
 5674TIP3    H138581   4.905   5.190   7.137 -3.4052  0.6033  2.0570
 5674TIP3    H238582   4.915   5.341   7.136 -0.7348  0.4628  0.2182
 5675TIP3   OH238583   6.292   2.121   6.520  0.1128 -0.3627  0.2912
 5675TIP3    H138584   6.382   2.147   6.539  0.6538 -0.8632 -1.4231
 5675TIP3    H238585   6.252   2.199   6.480 -0.3864  0.0192  1.4977
 5676TIP3   OH238586   2.053   5.022   1.332  0.3238 -0.0870  0.5649
 5676TIP3    H138587   2.092   4.939   1.360  1.0495 -0.7733 -2.2103
 5676TIP3    H238588   2.111   5.054   1.263 -0.5614  2.1914  0.7870
 5677TIP3   OH238589   5.199   3.264   7.613 -0.0654 -0.0820  0.0944
 5677TIP3    H138590   5.117   3.293   7.652  0.9995 -0.4614  2.8061
 5677TIP3    H238591   5.176   3.181   7.570 -0.8545 -0.8738  1.9635
 5678TIP3   OH238592   6.854   1.253   8.264  0.7387  0.0074  0.1088
 5678TIP3    H138593   6.863   1.280   8.173 -0.8506 -0.5433 -0.2479
 5678TIP3    H238594   6.759   1.246   8.278  0.9585 -0.2983  1.6913
 5679TIP3   OH238595   1.834   5.568   0.206 -0.2033 -0.0489 -0.4875
 5679TIP3    H138596   1.833   5.492   0.148 -0.9916 -1.3384  1.1249
 5679TIP3    H238597   1.745   5.570   0.243  0.9205 -0.8789  2.5835
 5680TIP3   OH238598   0.293   0.609   7.063  0.5336  0.6064 -0.0129
 5680TIP3    H138599   0.224   0.574   7.119 -0.7288  1.7549 -0.8009
 5680TIP3    H238600   0.289   0.557   6.983  1.0698  0.2238  0.1972
 5681TIP3   OH238601   6.348   4.502   7.002  0.3192  0.1066  0.0211
 5681TIP3    H138602   6.416   4.491   6.936 -0.4525 -2.1995 -0.4965
 5681TIP3    H238603   6.271   4.532   6.954  0.2414  0.1266  0.1550
 5682TIP3   OH238604   5.631   5.486   0.031 -0.1837  0.1939  0.0164
 5682TIP3    H138605   5.634   5.544   0.107 -0.6388  0.9261 -0.5093
 5682TIP3    H238606   5.539   5.464   0.022  0.0379 -0.9840  0.4712
 5683TIP3   OH238607   3.564   2.189   6.639 -0.8457 -0.1505  0.1571
 5683TIP3    H138608   3.598   2.193   6.729  1.6653  0.6443 -0.7620
 5683TIP3    H238609   3.593   2.104   6.607  1.0644  0.8219 -0.8679
 5684TIP3   OH238610   4.315   4.994   8.076  0.1865  0.3197 -0.3047
 5684TIP3    H138611   4.270   4.913   8.051 -1.3509  1.6664 -2.2769
 5684TIP3    H238612   4.264   5.028   8.149  0.8619 -0.4846  0.5570
 5685TIP3   OH238613   1.328   3.984   8.548  0.6168  0.6042 -0.0810
 5685TIP3    H138614   1.265   3.946   8.486  0.5290  0.7982 -0.1111
 5685TIP3    H238615   1.289   4.068   8.573  1.0059  0.8516 -0.3157
 5686TIP3   OH238616   4.854   6.610   7.610  0.1067 -0.1043  0.0546
 5686TIP3    H138617   4.845   6.704   7.598 -2.1215 -0.4362 -1.5986
 5686TIP3    H238618   4.937   6.588   7.567 -0.7712  0.7609 -2.2351
 5687TIP3   OH238619   3.630   5.431   8.578 -0.0969 -0.0188  0.3291
 5687TIP3    H138620   3.604   5.519   8.606 -1.7574 -0.6121  0.7161
 5687TIP3    H238621   3.550   5.380   8.580  0.8754 -1.6163  0.3071
 5688TIP3   OH238622   0.993   3.290   8.394 -0.4473 -0.3913 -0.1934
 5688TIP3    H138623   0.943   3.316   8.472  1.9062 -1.7370  1.9287
 5688TIP3    H238624   1.016   3.198   8.409  0.8580 -0.4269 -2.0383
 5689TIP3   OH238625   3.775   6.159   8.557  0.3376 -0.0372  0.2429
 5689TIP3    H138626   3.769   6.247   8.593 -3.2851 -0.2805  0.5849
 5689TIP3    H238627   3.759   6.169   8.463 -3.2619 -0.4140  0.6636
 5690TIP3   OH238628   3.345   4.221   7.411  0.2876 -0.1202  0.0772
 5690TIP3    H138629   3.299   4.288   7.360 -0.4808 -1.4790 -1.0724
 5690TIP3    H238630   3.435   4.225   7.381 -0.3836 -1.7638 -2.4379
 5691TIP3   OH238631   5.167   3.679   7.585 -0.1301  0.2709  0.2479
 5691TIP3    H138632   5.208   3.645   7.665 -0.3717  0.8173  0.6055
 5691TIP3    H238633   5.122   3.758   7.613  0.5306  0.9649 -0.6050
 5692TIP3   OH238634   0.800   5.055   0.059  0.1192  0.3185 -0.2437
 5692TIP3    H138635   0.824   5.069  -0.033 -1.1396  0.7073 -0.5363
 5692TIP3    H238636   0.850   4.978   0.085  1.5980  1.0450 -0.8112
 5693TIP3   OH238637   0.239   3.105   7.596  0.9389 -0.4124  0.1476
 5693TIP3    H138638   0.193   3.065   7.522  2.2546  0.0652 -0.9686
 5693TIP3    H238639   0.208   3.196   7.597  0.8680 -0.4370  0.2376
 5694TIP3   OH238640   5.134   5.679   0.783  0.1786 -0.0579 -0.0187
 5694TIP3    H138641   5.160   5.760   0.826 -0.8963  1.2998 -1.7888
 5694TIP3    H238642   5.204   5.663   0.719  0.3794 -0.5125  0.3148
 5695TIP3   OH238643   5.360   1.712   0.900 -0.4468  0.6283  0.5799
 5695TIP3    H138644   5.455   1.709   0.886 -0.5277  1.6613 -0.3682
 5695TIP3    H238645   5.341   1.806   0.905 -1.2966  0.4101  1.7358
 5696TIP3   OH238646   5.248   6.323   2.672  0.6688  0.0942 -0.0514
 5696TIP3    H138647   5.288   6.236   2.677  0.6213  0.0874  0.2127
 5696TIP3    H238648   5.170   6.310   2.619  0.3929 -0.1279  0.3986
 5697TIP3   OH238649   5.509   2.866   6.438 -0.2186  0.3220 -0.3327
 5697TIP3    H138650   5.530   2.793   6.497  0.5028  0.3775 -0.5157
 5697TIP3    H238651   5.418   2.850   6.412 -0.6206  0.4029  0.9361
 5698TIP3   OH238652   5.590   6.012   7.789  0.1679  0.4636  0.0300
 5698TIP3    H138653   5.593   5.962   7.871 -0.4869 -0.2769 -0.3791
 5698TIP3    H238654   5.612   6.102   7.815  1.9659 -0.1311  0.6875
 5699TIP3   OH238655   2.659   2.076   7.141 -0.1027 -0.1390  0.3573
 5699TIP3    H138656   2.569   2.103   7.126 -0.0938 -1.1198 -1.8259
 5699TIP3    H238657   2.652   1.996   7.193 -0.4988 -0.3480 -0.0163
 5700TIP3   OH238658   0.119   4.958   0.026 -0.3092 -0.1561 -0.0599
 5700TIP3    H138659   0.049   4.982  -0.034  0.0010  1.9073  0.3278
 5700TIP3    H238660   0.189   5.019   0.007  0.9634 -1.4178  0.3759
 5701TIP3   OH238661   3.302   1.803   6.091  0.2598  0.3520  0.0331
 5701TIP3    H138662   3.264   1.736   6.034  0.8282  0.2957 -0.2960
 5701TIP3    H238663   3.343   1.754   6.162 -0.7114  0.4370  0.6653
 5702TIP3   OH238664   0.513   6.184   0.854 -0.1310  0.2790  0.5033
 5702TIP3    H138665   0.433   6.147   0.817 -0.7098 -0.2672  2.2039
 5702TIP3    H238666   0.486   6.267   0.893  0.6460  1.2821 -1.0272
 5703TIP3   OH238667   2.990   1.876   5.806  0.2532  0.3357 -0.2095
 5703TIP3    H138668   2.974   1.796   5.756  0.8373 -0.4228  0.7709
 5703TIP3    H238669   3.085   1.886   5.805  0.2786  0.2657  0.7957
 5704TIP3   OH238670   1.278   3.842   2.679 -0.2162  0.1807 -0.4513
 5704TIP3    H138671   1.298   3.916   2.737 -0.3558 -0.6765  0.7111
 5704TIP3    H238672   1.269   3.882   2.593  1.5392  1.2810 -0.1684
 5705TIP3   OH238673   5.152   5.224   7.806  0.5710 -0.5080 -0.2188
 5705TIP3    H138674   5.137   5.238   7.713 -1.4765  1.1610  0.2672
 5705TIP3    H238675   5.236   5.266   7.824  0.4592  0.1432 -1.1362
 5706TIP3   OH238676   5.902   0.084   1.597 -0.3459 -0.3293 -0.1955
 5706TIP3    H138677   5.917   0.065   1.689 -0.9288  2.5696  0.5968
 5706TIP3    H238678   5.977   0.046   1.552  1.0318 -0.0106  1.7103
 5707TIP3   OH238679   6.094   2.450   1.815 -0.2188  0.0535  0.0508
 5707TIP3    H138680   6.120   2.534   1.851  0.3948 -0.9942  2.2034
 5707TIP3    H238681   6.139   2.445   1.730 -0.7922  2.1175 -0.4221
 5708TIP3   OH238682   2.932   5.555   1.315 -0.3256  0.5318  0.0652
 5708TIP3    H138683   2.992   5.536   1.242 -0.5811  1.5859 -0.4337
 5708TIP3    H238684   2.990   5.568   1.390  0.0318  0.8787 -0.2658
 5709TIP3   OH238685   5.242   4.900   2.043  0.4164  0.1881 -0.1379
 5709TIP3    H138686   5.307   4.898   1.972  1.4127  0.3565  0.7378
 5709TIP3    H238687   5.269   4.829   2.101  0.3583  0.8357  0.6945
 5710TIP3   OH238688   0.448   4.607   1.297  0.4142 -0.5067 -0.3720
 5710TIP3    H138689   0.501   4.650   1.230  0.4826 -1.1384 -0.7261
 5710TIP3    H238690   0.358   4.628   1.273  0.4023 -1.2894 -1.0659
 5711TIP3   OH238691   3.397   5.084   6.749 -0.1632  0.0100  0.4178
 5711TIP3    H138692   3.366   5.012   6.694 -1.3700  1.6460 -1.1355
 5711TIP3    H238693   3.464   5.127   6.696 -0.8732  1.2131  0.4731
 5712TIP3   OH238694   0.323   3.627   0.595  0.4672 -0.8008  0.0608
 5712TIP3    H138695   0.306   3.721   0.601 -4.1122 -1.3168 -0.8145
 5712TIP3    H238696   0.339   3.599   0.685  0.3190  0.6003  0.5370
 5713TIP3   OH238697   5.173   0.854   7.517  0.2369 -0.1889  0.5801
 5713TIP3    H138698   5.089   0.879   7.477 -0.9066 -0.8309  2.4361
 5713TIP3    H238699   5.154   0.848   7.610  1.7824 -2.6411  0.8207
 5714TIP3   OH238700   1.922   3.324   1.581  0.1975  1.1808  0.7680
 5714TIP3    H138701   1.879   3.287   1.657 -0.1907  1.1515  0.5397
 5714TIP3    H238702   1.850   3.348   1.522  0.4772  1.4927  0.5460
 5715TIP3   OH238703   4.266   2.441   0.609  0.0077 -0.0729  0.5388
 5715TIP3    H138704   4.285   2.528   0.645  0.1552 -0.3559  1.1647
 5715TIP3    H238705   4.291   2.448   0.517  0.1714  0.5026  0.6189
 5716TIP3   OH238706   4.478   6.313   1.512  0.0887 -0.2353 -0.0956
 5716TIP3    H138707   4.471   6.398   1.468  1.4510 -1.0505 -2.0108
 5716TIP3    H238708   4.448   6.330   1.601  2.4127  2.8047  0.2859
 5717TIP3   OH238709   4.162   1.450   7.425  0.0300 -0.5583  0.4768
 5717TIP3    H138710   4.120   1.381   7.373 -1.4111 -0.7824  1.8665
 5717TIP3    H238711   4.256   1.437   7.411 -0.2164 -2.5294  0.3543
 5718TIP3   OH238712   4.495   3.684   7.332  0.0054  0.6075 -0.1258
 5718TIP3    H138713   4.521   3.689   7.240 -1.9279  0.9982 -0.7026
 5718TIP3    H238714   4.445   3.765   7.347 -1.0183 -0.1725  0.8113
 5719TIP3   OH238715   3.335   3.630   8.207 -0.3477 -0.2419  0.1578
 5719TIP3    H138716   3.311   3.718   8.178  1.2023  0.7319  1.6879
 5719TIP3    H238717   3.380   3.592   8.132 -0.9644  0.2810 -0.4938
 5720TIP3   OH238718   1.972   0.564   7.727 -0.0856  0.2295  0.4342
 5720TIP3    H138719   2.067   0.570   7.733  0.1107 -0.0885 -1.5171
 5720TIP3    H238720   1.944   0.524   7.809  1.6346 -1.2848  0.3307
 5721TIP3   OH238721   0.381   3.008   7.295 -0.3708 -0.0920 -0.2278
 5721TIP3    H138722   0.365   2.923   7.254  0.2117 -0.3061 -0.0219
 5721TIP3    H238723   0.295   3.038   7.323 -0.5181 -0.8312  0.1273
 5722TIP3   OH238724   1.218   4.787   0.228  0.2794  0.0596 -0.2800
 5722TIP3    H138725   1.282   4.789   0.157  0.0111  1.1822 -0.5070
 5722TIP3    H238726   1.183   4.876   0.231 -1.5297 -0.6127 -0.3941
 5723TIP3   OH238727   1.018   1.690   8.648 -0.0834  0.2032 -0.2819
 5723TIP3    H138728   1.090   1.714   8.590 -1.0525  0.3225 -1.4949
 5723TIP3    H238729   0.956   1.763   8.640 -0.6315 -0.2004  0.2115
 5724TIP3   OH238730   2.561   4.611   0.629  1.0461 -0.2166  0.4203
 5724TIP3    H138731   2.643   4.624   0.581  2.1807 -1.1039  2.0226
 5724TIP3    H238732   2.585   4.622   0.721 -0.4245 -1.4211  0.9959
 5725TIP3   OH238733   3.247   2.043   0.161 -0.4785 -0.8388 -0.4516
 5725TIP3    H138734   3.264   1.964   0.110  0.6557 -1.4107  0.7632
 5725TIP3    H238735   3.231   2.012   0.250  1.6096  0.3396  0.4208
 5726TIP3   OH238736   6.716   6.013   0.900  0.3052 -0.0212 -0.5716
 5726TIP3    H138737   6.771   5.935   0.885 -1.2909 -1.1906 -0.6476
 5726TIP3    H238738   6.731   6.067   0.823  0.0974 -1.1186 -1.4190
 5727TIP3   OH238739   0.122   3.803   7.530  0.1145  0.5577  0.1343
 5727TIP3    H138740   0.117   3.754   7.448  0.1279  0.1071  0.4016
 5727TIP3    H238741   0.208   3.844   7.529 -0.7596  2.5183 -1.1826
 5728TIP3   OH238742   3.620   1.701   2.254 -0.0778 -0.2307 -0.1075
 5728TIP3    H138743   3.652   1.613   2.274 -0.9409 -0.5662 -0.1416
 5728TIP3    H238744   3.682   1.736   2.190 -1.3882 -2.0116 -2.4861
 5729TIP3   OH238745   5.609   1.543   7.782 -0.1711 -0.3124  0.6286
 5729TIP3    H138746   5.641   1.612   7.725 -2.2399 -0.2805 -0.5850
 5729TIP3    H238747   5.638   1.462   7.741  1.8083 -0.2504  1.7748
 5730TIP3   OH238748   0.154   5.880   0.337  0.0571 -0.0466 -0.5023
 5730TIP3    H138749   0.138   5.973   0.320 -1.6119 -0.3363 -0.6812
 5730TIP3    H238750   0.071   5.837   0.314  0.7011 -1.5389 -0.1219
 5731TIP3   OH238751   0.787   5.458   8.403 -0.6242 -0.4933  0.1593
 5731TIP3    H138752   0.841   5.402   8.459 -1.8994 -0.9393  1.0036
 5731TIP3    H238753   0.790   5.417   8.317  1.0552 -0.0149 -0.0457
 5732TIP3   OH238754   0.646   6.293   7.095 -0.2758 -0.7609 -0.5945
 5732TIP3    H138755   0.704   6.246   7.035 -0.6515 -1.0899 -0.7008
 5732TIP3    H238756   0.615   6.368   7.044 -1.4184 -1.6049 -1.1805
 5733TIP3   OH238757   5.925   5.808   1.107 -0.4843 -0.7780 -0.0064
 5733TIP3    H138758   6.001   5.846   1.152 -0.5479 -0.7843  0.1060
 5733TIP3    H238759   5.873   5.768   1.177 -1.0761  0.0515  0.0378
 5734TIP3   OH238760   2.333   2.892   1.412  0.0726 -0.2202 -0.0458
 5734TIP3    H138761   2.296   2.825   1.470  0.2542 -0.0413  0.2831
 5734TIP3    H238762   2.256   2.936   1.375 -0.1217  1.1724  1.8113
 5735TIP3   OH238763   3.951   4.078   0.371  0.4404  0.6662  0.2208
 5735TIP3    H138764   3.949   4.074   0.466  0.2289 -2.6803  0.1839
 5735TIP3    H238765   4.028   4.133   0.351  0.6043  1.2659  2.2696
 5736TIP3   OH238766   3.227   1.758   1.251 -0.1956  0.3113 -0.5482
 5736TIP3    H138767   3.155   1.757   1.313  1.9804 -1.2238  2.1961
 5736TIP3    H238768   3.249   1.851   1.241 -1.0609  0.6341  0.4056
 5737TIP3   OH238769   2.305   3.529   1.034  0.7379 -0.1958  0.1790
 5737TIP3    H138770   2.327   3.514   0.942 -0.5192  1.1098 -0.3716
 5737TIP3    H238771   2.279   3.443   1.066  0.1169 -0.4756 -1.0050
 5738TIP3   OH238772   4.472   2.082   8.339  0.0144 -0.2418 -0.0419
 5738TIP3    H138773   4.378   2.099   8.325 -0.1869 -0.0032  1.4480
 5738TIP3    H238774   4.495   2.138   8.413  1.3542 -0.2861 -0.4096
 5739TIP3   OH238775   1.515   1.985   8.249  0.5212 -0.7092  0.9975
 5739TIP3    H138776   1.506   1.895   8.281  2.2960 -0.2492  2.9902
 5739TIP3    H238777   1.606   1.991   8.219  0.9640  0.8314  2.4820
 5740TIP3   OH238778   6.061   3.448   1.145  0.0879  0.3760  0.7632
 5740TIP3    H138779   6.034   3.411   1.229 -0.5170 -0.3690  0.2443
 5740TIP3    H238780   6.078   3.540   1.165 -1.0927  0.4579  1.4815
 5741TIP3   OH238781   1.317   3.580   2.600  0.1839 -0.1183  0.0588
 5741TIP3    H138782   1.296   3.672   2.617 -1.8858 -0.1285 -1.9798
 5741TIP3    H238783   1.408   3.571   2.629  1.3121  3.2227 -1.8569
 5742TIP3   OH238784   6.024   6.518   0.364 -0.1824 -0.2905  0.3889
 5742TIP3    H138785   6.091   6.494   0.299 -0.9652  0.0147 -0.5556
 5742TIP3    H238786   6.052   6.603   0.397 -0.0922 -0.1692  0.0100
 5743TIP3   OH238787   5.458   0.913   6.927  0.1720 -0.0743 -0.1542
 5743TIP3    H138788   5.441   0.824   6.956  1.3371  0.3721  2.1011
 5743TIP3    H238789   5.552   0.916   6.909  0.1202  0.6511 -0.3595
 5744TIP3   OH238790   2.727   1.082   1.595  0.1400 -0.5127 -0.0308
 5744TIP3    H138791   2.704   0.990   1.607  2.6346 -1.1986  0.0141
 5744TIP3    H238792   2.731   1.118   1.684 -1.2326 -0.2147 -0.0678
 5745TIP3   OH238793   3.964   4.728   0.630 -0.1565 -0.4116 -0.0463
 5745TIP3    H138794   3.925   4.641   0.638  0.5982 -0.8797 -1.3266
 5745TIP3    H238795   4.058   4.714   0.645 -0.1586  0.3624  0.7948
 5746TIP3   OH238796   3.761   2.226   1.327 -0.5915  1.1759 -0.2950
 5746TIP3    H138797   3.770   2.136   1.296  2.7124  0.9127  1.0307
 5746TIP3    H238798   3.798   2.279   1.256  1.4302  1.0631  0.6165
 5747TIP3   OH238799   2.146   5.762   6.779 -0.2639 -0.4538  0.1656
 5747TIP3    H138800   2.100   5.740   6.860 -1.0019  1.3884  0.2832
 5747TIP3    H238801   2.147   5.680   6.730  1.0510 -1.8812  2.3992
 5748TIP3   OH238802   2.632   0.563   0.300  0.6962 -0.4020 -0.0816
 5748TIP3    H138803   2.636   0.658   0.303 -1.0029 -0.3027  0.1592
 5748TIP3    H238804   2.670   0.534   0.383  0.2970  0.1188  0.2897
 5749TIP3   OH238805   1.957   1.042   7.296 -0.7484 -0.3444 -0.7461
 5749TIP3    H138806   1.926   1.128   7.322 -0.3539 -0.2851 -0.4776
 5749TIP3    H238807   2.013   1.013   7.367 -0.9185 -0.8487 -0.8056
 5750TIP3   OH238808   1.782   6.130   1.019  0.3883  0.5639 -0.4733
 5750TIP3    H138809   1.869   6.118   1.058  0.9919  1.4164 -1.5005
 5750TIP3    H238810   1.783   6.076   0.940 -0.3147 -0.0464 -0.0740
 5751TIP3   OH238811   0.814   4.754   0.911 -0.4053  0.7364 -0.2430
 5751TIP3    H138812   0.776   4.709   0.835 -1.8999  1.1472  0.2200
 5751TIP3    H238813   0.867   4.824   0.874 -0.6304  0.5577 -0.9119
 5752TIP3   OH238814   6.355   3.762   1.564 -0.5051 -0.0844  0.2097
 5752TIP3    H138815   6.296   3.704   1.517  0.2302 -0.7274  0.0682
 5752TIP3    H238816   6.379   3.829   1.500  0.2293 -0.7670 -0.2398
 5753TIP3   OH238817   6.159   0.653   0.098 -1.1086 -0.4802 -0.2614
 5753TIP3    H138818   6.120   0.713   0.161 -0.9168 -0.5779 -0.0511
 5753TIP3    H238819   6.253   0.658   0.114 -0.9255  0.5171 -1.4343
 5754TIP3   OH238820   0.603   2.182   0.390 -0.1812  0.0135  0.1403
 5754TIP3    H138821   0.655   2.102   0.399  0.0077  0.1382  0.1629
 5754TIP3    H238822   0.553   2.169   0.309 -0.2153 -0.1639  0.1897
 5755TIP3   OH238823   2.684   3.854   1.873 -0.5997  0.2457  0.1746
 5755TIP3    H138824   2.673   3.818   1.785  1.7869  0.0073 -0.0887
 5755TIP3    H238825   2.765   3.904   1.868 -0.0232 -0.3620  2.4247
 5756TIP3   OH238826   1.425   0.421   0.473 -0.1669 -0.1861  0.1177
 5756TIP3    H138827   1.424   0.347   0.412  0.9138  0.2487 -0.4488
 5756TIP3    H238828   1.494   0.479   0.440  0.7135 -0.1148  1.9441
 5757TIP3   OH238829   6.807   3.762   0.910  0.2991  0.4104 -0.2602
 5757TIP3    H138830   6.893   3.731   0.937  0.1099 -0.2132 -0.3463
 5757TIP3    H238831   6.777   3.697   0.847 -0.3322  0.4980 -0.0586
 5758TIP3   OH238832   4.194   4.393   3.027  0.6739  0.0548  0.4564
 5758TIP3    H138833   4.099   4.402   3.033  0.5813  1.4954 -1.8655
 5758TIP3    H238834   4.209   4.354   2.941  2.2009  0.8192  0.3467
 5759TIP3   OH238835   5.432   4.557   1.530  0.5989 -0.3184 -0.6773
 5759TIP3    H138836   5.401   4.603   1.452 -0.4668  2.2325  1.0988
 5759TIP3    H238837   5.512   4.603   1.555  0.5265 -0.6045  0.1221
 5760TIP3   OH238838   3.315   3.791   7.592  0.3800 -0.2002 -0.7048
 5760TIP3    H138839   3.315   3.844   7.512 -1.4837  0.2755 -0.4255
 5760TIP3    H238840   3.223   3.786   7.617  0.9570 -0.0805  1.6030
 5761TIP3   OH238841   5.614   1.106   0.342  0.0095 -0.2374 -0.1655
 5761TIP3    H138842   5.601   1.138   0.432  1.0005 -0.0750 -0.0694
 5761TIP3    H238843   5.579   1.175   0.286 -0.3617 -0.2177  0.0849
 5762TIP3   OH238844   0.484   2.853   1.547  0.5359  0.0979  0.0585
 5762TIP3    H138845   0.499   2.834   1.640 -0.0055  1.0541  0.3616
 5762TIP3    H238846   0.450   2.943   1.547 -0.2797 -0.1939 -0.9944
 5763TIP3   OH238847   5.894   2.220   7.533 -0.2079 -0.4290 -0.0596
 5763TIP3    H138848   5.944   2.148   7.494 -1.7374 -0.9258 -1.1790
 5763TIP3    H238849   5.821   2.177   7.577  0.2186  0.3032  1.4367
 5764TIP3   OH238850   2.508   2.170   0.295  0.2624 -0.2932  0.2779
 5764TIP3    H138851   2.415   2.166   0.318 -0.3269  1.4471 -1.5758
 5764TIP3    H238852   2.535   2.078   0.293 -1.3261 -0.8254  1.1511
 5765TIP3   OH238853   6.694   6.437   0.696  0.2184 -0.0043  0.3327
 5765TIP3    H138854   6.776   6.484   0.712  0.4233 -0.3288  0.2477
 5765TIP3    H238855   6.719   6.345   0.694  0.0987 -0.0400 -1.1277
 5766TIP3   OH238856   5.207   4.275   0.165 -0.4751 -0.4223 -0.7790
 5766TIP3    H138857   5.237   4.338   0.098  0.5422 -0.0916 -0.0443
 5766TIP3    H238858   5.112   4.277   0.159 -0.4058 -0.6774 -2.4670
 5767TIP3   OH238859   4.067   0.673   0.245 -0.2986  0.1120  0.4847
 5767TIP3    H138860   4.130   0.701   0.311 -2.2186 -0.2135  2.5716
 5767TIP3    H238861   3.989   0.649   0.295 -2.2110  0.7954 -1.9808
 5768TIP3   OH238862   6.369   3.595   8.445  0.3984 -0.2416 -0.0070
 5768TIP3    H138863   6.449   3.543   8.458  1.2556  1.2919  1.2987
 5768TIP3    H238864   6.350   3.632   8.531 -0.1817  1.5373 -0.8331
 5769TIP3   OH238865   4.572   4.348   1.657  0.3404 -0.2711  0.1583
 5769TIP3    H138866   4.522   4.413   1.608 -1.3272 -1.7001 -0.1532
 5769TIP3    H238867   4.656   4.342   1.612  0.5852  1.7155  0.2752
 5770TIP3   OH238868   3.051   1.289   6.078 -0.1647  0.2930  0.2490
 5770TIP3    H138869   3.082   1.273   6.167  0.7083  1.1713  0.1180
 5770TIP3    H238870   3.063   1.205   6.033  1.9580  0.5697  0.2332
 5771TIP3   OH238871   2.410   5.210   1.490  0.2046 -0.3519  0.1474
 5771TIP3    H138872   2.392   5.282   1.551 -1.3588  0.1428 -0.8225
 5771TIP3    H238873   2.393   5.248   1.404 -1.1234 -1.9865 -0.3512
 5772TIP3   OH238874   0.532   2.194   0.703  0.1902 -0.2319  0.3497
 5772TIP3    H138875   0.612   2.141   0.701  0.2637 -0.1419  0.8054
 5772TIP3    H238876   0.526   2.232   0.615  0.3782 -0.6363  0.1602
 5773TIP3   OH238877   3.362   2.264   1.147 -0.1178  0.7666 -0.5144
 5773TIP3    H138878   3.410   2.346   1.141 -0.2834  0.8589 -0.5835
 5773TIP3    H238879   3.277   2.282   1.105  0.0103  0.4398 -0.9239
 5774TIP3   OH238880   3.144   0.467   8.173  0.5510  0.8550 -0.8002
 5774TIP3    H138881   3.189   0.527   8.233 -0.3292  1.2582 -0.5292
 5774TIP3    H238882   3.204   0.457   8.099  3.2884 -2.3153  1.5337
 5775TIP3   OH238883   1.743   5.854   2.463  0.3969 -0.0264 -0.1430
 5775TIP3    H138884   1.733   5.922   2.530 -2.1879  0.1797 -0.6052
 5775TIP3    H238885   1.692   5.780   2.496  0.3746 -0.4929 -1.1753
 5776TIP3   OH238886   0.311   1.268   1.342 -0.1876 -0.0277 -0.3085
 5776TIP3    H138887   0.274   1.356   1.329 -0.8145 -0.0163  1.3288
 5776TIP3    H238888   0.393   1.284   1.389  0.0034 -0.2872 -0.5544
 5777TIP3   OH238889   2.190   6.685   6.882 -0.3011 -0.3566  0.0736
 5777TIP3    H138890   2.170   6.773   6.850  0.0517 -0.5062 -0.5656
 5777TIP3    H238891   2.159   6.626   6.813 -3.6642 -0.9797  1.8820
 5778TIP3   OH238892   6.400   6.720   1.409 -0.1953 -0.0157 -0.9952
 5778TIP3    H138893   6.472   6.729   1.472 -0.6910 -0.8305 -0.2898
 5778TIP3    H238894   6.356   6.805   1.412  0.1022  0.1307 -0.6298
 5779TIP3   OH238895   3.842   2.373   1.101  0.0114 -0.1108  0.2121
 5779TIP3    H138896   3.875   2.444   1.156 -0.6045  1.1084 -0.9226
 5779TIP3    H238897   3.903   2.368   1.028  0.3744 -1.1656  0.5703
 5780TIP3   OH238898   4.715   3.386   1.300 -0.3604  0.0558  0.5034
 5780TIP3    H138899   4.752   3.301   1.276  0.2273  0.5398 -0.3376
 5780TIP3    H238900   4.636   3.394   1.246 -0.3584  0.0934  0.5061
 5781TIP3   OH238901   5.524   3.347   1.487  0.5366 -0.8915  0.6389
 5781TIP3    H138902   5.491   3.323   1.400  1.2599 -0.0395  0.1084
 5781TIP3    H238903   5.565   3.267   1.520  1.8479 -0.7673 -0.5826
 5782TIP3   OH238904   4.372   0.188   7.144  0.5083  0.4059 -0.7358
 5782TIP3    H138905   4.422   0.107   7.146 -0.0655  0.0492  0.5539
 5782TIP3    H238906   4.310   0.176   7.071  0.6454 -0.1823 -0.7625
 5783TIP3   OH238907   0.457   4.450   0.982 -0.0114  0.2294  0.0772
 5783TIP3    H138908   0.535   4.410   1.021  0.9524  1.1330 -0.8654
 5783TIP3    H238909   0.469   4.544   0.995  0.6929  0.6502 -2.9231
 5784TIP3   OH238910   2.254   3.928   8.376  0.5135  0.3818 -0.7041
 5784TIP3    H138911   2.318   3.934   8.305  0.7800 -0.4954 -0.5521
 5784TIP3    H238912   2.244   4.018   8.406  0.0037  0.8475 -2.1861
 5785TIP3   OH238913   0.013   3.664   1.255  0.2246  0.3079 -0.0711
 5785TIP3    H138914   0.093   3.717   1.257 -0.9024  2.0893  0.9409
 5785TIP3    H238915   0.043   3.576   1.234  2.4326  0.9406  0.1500
 5786TIP3   OH238916   3.954   1.052   6.717  0.0432  0.0772  0.1527
 5786TIP3    H138917   3.866   1.073   6.687 -0.0255 -0.6822 -0.1925
 5786TIP3    H238918   3.989   0.993   6.650  1.3357  1.4525 -0.4545
 5787TIP3   OH238919   4.244   4.549   8.479  0.4945  0.5309  0.1877
 5787TIP3    H138920   4.194   4.485   8.530 -0.0086  0.7022 -0.0830
 5787TIP3    H238921   4.291   4.601   8.545  1.3910 -0.4938  0.3804
 5788TIP3   OH238922   5.107   6.864   8.222 -0.4700 -0.7103 -0.1135
 5788TIP3    H138923   5.182   6.908   8.261 -2.0913  1.4635  0.7827
 5788TIP3    H238924   5.064   6.931   8.169 -1.2684 -2.1545 -1.3812
 5789TIP3   OH238925   2.646   6.097   1.730  0.6108 -0.0683  0.1789
 5789TIP3    H138926   2.573   6.157   1.747  0.7959  0.3629 -0.5270
 5789TIP3    H238927   2.642   6.034   1.802 -0.0857  0.3100  0.4809
 5790TIP3   OH238928   4.752   2.142   7.619  0.0618 -0.1955  0.1439
 5790TIP3    H138929   4.677   2.135   7.678  0.1693  2.4894  0.7363
 5790TIP3    H238930   4.825   2.170   7.675  0.6470  0.5418 -0.9447
 5791TIP3   OH238931   4.206   2.906   0.099 -0.8543  0.4779 -0.0960
 5791TIP3    H138932   4.222   2.954   0.018 -0.0401 -1.2686 -1.0110
 5791TIP3    H238933   4.292   2.901   0.142 -0.7088 -0.9761 -0.5040
 5792TIP3   OH238934   2.329   0.969   8.650 -0.2604  0.1045  0.3321
 5792TIP3    H138935   2.259   1.015   8.696 -0.3399  1.0324 -0.6686
 5792TIP3    H238936   2.345   1.022   8.571  0.8654 -0.6411  0.0291
 5793TIP3   OH238937   0.259   2.110   2.045  0.0306  0.3357  0.4725
 5793TIP3    H138938   0.327   2.085   2.108  0.8090  0.5679 -0.2477
 5793TIP3    H238939   0.176   2.095   2.090  0.5741  1.4559  1.9202
 5794TIP3   OH238940   1.128   1.188   7.071 -0.7530  0.6164 -1.1401
 5794TIP3    H138941   1.076   1.112   7.100 -1.4016  1.6562  0.5522
 5794TIP3    H238942   1.163   1.161   6.987 -1.3237 -1.4126 -0.7985
 5795TIP3   OH238943   1.208   3.231   1.557  0.4963  0.1529 -0.4541
 5795TIP3    H138944   1.208   3.140   1.527 -1.9098  0.3639 -1.2966
 5795TIP3    H238945   1.178   3.227   1.648 -3.5619  0.2498 -1.6001
 5796TIP3   OH238946   0.220   3.698   8.598 -0.4155 -0.0310  0.4643
 5796TIP3    H138947   0.308   3.662   8.585 -0.3238  0.2141  0.4024
 5796TIP3    H238948   0.213   3.708   8.693  0.2416  1.4724  0.3801
 5797TIP3   OH238949   1.874   4.460   1.203  0.0213  0.3306  0.0571
 5797TIP3    H138950   1.893   4.411   1.283 -0.9714  0.0095  0.1150
 5797TIP3    H238951   1.960   4.481   1.166  0.4934  0.4212  1.1611
 5798TIP3   OH238952   4.871   3.706   7.918 -0.1369 -0.1003  0.7222
 5798TIP3    H138953   4.928   3.701   7.995 -0.6001 -0.8379  1.0314
 5798TIP3    H238954   4.920   3.760   7.856 -0.3932  1.7987  2.0719
 5799TIP3   OH238955   1.776   1.145   8.177  0.8901  0.2448 -0.0844
 5799TIP3    H138956   1.711   1.115   8.113 -1.1123 -0.4694  2.1228
 5799TIP3    H238957   1.787   1.238   8.157 -1.7585  0.6922  0.1312
 5800TIP3   OH238958   6.296   2.033   8.201 -0.2345  0.3741 -0.6574
 5800TIP3    H138959   6.233   2.096   8.236 -1.0837 -1.5809  1.6503
 5800TIP3    H238960   6.317   2.065   8.114 -2.0380  2.7858 -0.3020
 5801TIP3   OH238961   1.559   6.644   6.883  0.4287 -0.8002 -0.0229
 5801TIP3    H138962   1.468   6.620   6.868  0.5840 -1.5065  0.1311
 5801TIP3    H238963   1.609   6.582   6.830  0.9103 -2.1148  1.9132
 5802TIP3   OH238964   4.381   1.280   1.695  0.2883  0.1680 -0.3255
 5802TIP3    H138965   4.361   1.372   1.707  0.0746  0.7327 -3.9989
 5802TIP3    H238966   4.296   1.238   1.680  0.6666  0.2711 -3.1744
 5803TIP3   OH238967   3.933   5.372   6.769  0.2761  0.0138  0.0739
 5803TIP3    H138968   3.850   5.382   6.816 -0.0259  0.2162 -0.4881
 5803TIP3    H238969   3.936   5.446   6.709  2.0326  1.4160  1.7549
 5804TIP3   OH238970   2.244   5.053   8.099  0.0000  0.0267  0.0586
 5804TIP3    H138971   2.339   5.051   8.088  0.0564  1.7644  0.0168
 5804TIP3    H238972   2.229   5.119   8.167 -1.1892 -0.0622 -0.0980
 5805TIP3   OH238973   5.861   4.368   8.234 -0.2819  0.9818  0.0194
 5805TIP3    H138974   5.816   4.431   8.178 -1.4811  0.9717  0.9227
 5805TIP3    H238975   5.917   4.422   8.290  0.2507  1.0635 -0.5839
 5806TIP3   OH238976   4.424   6.822   1.260 -0.0224  0.1091 -0.1126
 5806TIP3    H138977   4.414   6.912   1.292  2.0385  0.7169 -0.9784
 5806TIP3    H238978   4.369   6.818   1.182  1.8603  1.5616 -1.6451
 5807TIP3   OH238979   4.304   4.523   1.634  0.5713  0.3644  0.0634
 5807TIP3    H138980   4.287   4.457   1.701 -0.1405  0.2956 -0.1846
 5807TIP3    H238981   4.219   4.539   1.593  0.9854  0.4526 -0.7818
 5808TIP3   OH238982   1.173   4.197   1.161  0.2592  0.7115  0.1936
 5808TIP3    H138983   1.092   4.209   1.210  0.8420  0.2910  1.2986
 5808TIP3    H238984   1.230   4.269   1.189  0.6321  0.4140  0.2206
 5809TIP3   OH238985   1.176   0.856   8.268 -0.3628 -0.6643  0.5442
 5809TIP3    H138986   1.123   0.858   8.188  0.5650 -1.8122 -0.1374
 5809TIP3    H238987   1.203   0.764   8.276 -1.7216 -0.9348  3.0711
 5810TIP3   OH238988   5.562   6.234   2.102  0.8118  0.4614 -0.1668
 5810TIP3    H138989   5.598   6.181   2.031 -0.0132 -0.7894  0.3226
 5810TIP3    H238990   5.604   6.200   2.181  0.6431  0.8831  0.1069
 5811TIP3   OH238991   0.023   3.243   7.182  0.1342  0.1057 -0.0113
 5811TIP3    H138992  -0.047   3.307   7.195 -0.3165 -0.2051 -0.8505
 5811TIP3    H238993   0.061   3.267   7.098 -0.4650 -1.1192 -0.6574
 5812TIP3   OH238994   2.673   6.702   8.439  0.2463 -0.6389 -0.4784
 5812TIP3    H138995   2.690   6.670   8.350 -2.6969  0.3599 -1.5121
 5812TIP3    H238996   2.707   6.791   8.440 -3.0182  0.7725 -2.0007
 5813TIP3   OH238997   2.543   6.710   0.290 -0.1999  0.1606  0.0823
 5813TIP3    H138998   2.471   6.771   0.306 -0.3806  0.2661 -1.0378
 5813TIP3    H238999   2.510   6.625   0.320 -2.1460 -0.4865 -3.3521
 5814TIP3   OH239000   5.243   1.349   8.403 -0.2170  0.1287  0.1991
 5814TIP3    H139001   5.329   1.309   8.415  1.0203  2.8483  1.5523
 5814TIP3    H239002   5.251   1.401   8.323 -0.0619  1.4857  1.0582
 5815TIP3   OH239003   1.258   5.021   2.230  0.2319  0.3883  0.1770
 5815TIP3    H139004   1.330   5.080   2.211  0.3335  0.3664  0.4781
 5815TIP3    H239005   1.179   5.072   2.212  0.3203  0.3585 -0.3112
 5816TIP3   OH239006   6.748   3.769   0.037 -0.2366 -0.0583 -0.0674
 5816TIP3    H139007   6.764   3.685  -0.005 -1.0423 -0.9206  1.2607
 5816TIP3    H239008   6.653   3.782   0.030 -0.1618  0.5781  0.0325
 5817TIP3   OH239009   0.572   3.943   8.648  0.2123 -0.0635  0.0696
 5817TIP3    H139010   0.598   3.955   8.739  1.0045 -0.1067 -0.1496
 5817TIP3    H239011   0.626   3.872   8.616 -0.9506 -0.9136 -0.0845
 5818TIP3   OH239012   0.356   5.754   2.069 -0.2874  0.2488 -0.3232
 5818TIP3    H139013   0.273   5.802   2.076 -0.8465 -0.4984 -1.5434
 5818TIP3    H239014   0.360   5.700   2.148 -0.1854  1.4572  0.5149
 5819TIP3   OH239015   2.001   1.517   0.283  0.2709  0.1522  0.2766
 5819TIP3    H139016   2.039   1.448   0.229 -0.3920  1.2047 -1.6313
 5819TIP3    H239017   1.915   1.532   0.245  0.3184  1.8967  0.7792
 5820TIP3   OH239018   1.187   2.123   6.917 -0.1053  0.3798  0.1805
 5820TIP3    H139019   1.155   2.211   6.936 -0.0971  0.1443  1.4241
 5820TIP3    H239020   1.133   2.065   6.972 -0.2302 -0.4066 -0.7508
 5821TIP3   OH239021   1.534   6.602   0.448 -0.6774  0.1714  0.2268
 5821TIP3    H139022   1.596   6.543   0.490  0.0536  0.2682 -0.6747
 5821TIP3    H239023   1.572   6.689   0.458 -0.1749  0.1403 -1.1014
 5822TIP3   OH239024   2.567   1.182   6.408  0.2905 -0.0907 -0.4996
 5822TIP3    H139025   2.584   1.092   6.437  0.0085 -0.3959 -1.2448
 5822TIP3    H239026   2.506   1.172   6.335 -1.2666  0.8187  0.6121
 5823TIP3   OH239027   1.383   0.596   2.425  0.4499 -0.5220  0.2040
 5823TIP3    H139028   1.319   0.577   2.494  1.1176 -0.1623  0.9380
 5823TIP3    H239029   1.431   0.514   2.414  0.1706 -0.6567 -0.0207
 5824TIP3   OH239030   2.011   3.843   0.375 -0.7247  0.2310 -0.1521
 5824TIP3    H139031   2.104   3.836   0.399 -0.6186  0.3199 -0.5144
 5824TIP3    H239032   1.997   3.937   0.360 -1.6306  0.6307  2.7474
 5825TIP3   OH239033   3.399   1.658   6.584  0.1498 -0.0509 -0.2492
 5825TIP3    H139034   3.355   1.736   6.617 -0.1502 -0.1074 -0.5160
 5825TIP3    H239035   3.349   1.632   6.507  0.8967  0.1373 -0.8152
 5826TIP3   OH239036   3.575   5.973   2.136  0.6128 -0.1998 -0.5675
 5826TIP3    H139037   3.545   6.034   2.203 -0.5552 -0.2133 -1.0389
 5826TIP3    H239038   3.669   5.967   2.148  0.5876  0.7986  0.2340
 5827TIP3   OH239039   6.124   4.683   7.747  0.7247  0.3241 -0.1545
 5827TIP3    H139040   6.153   4.773   7.736  0.5546  0.5531  1.0518
 5827TIP3    H239041   6.039   4.679   7.704 -0.0949  1.2537  1.2806
 5828TIP3   OH239042   3.611   6.228   6.856  0.4076  0.1126  0.4048
 5828TIP3    H139043   3.613   6.243   6.951  1.0329 -0.7544  0.5388
 5828TIP3    H239044   3.639   6.138   6.845 -0.6249 -0.1161 -0.5579
 5829TIP3   OH239045   6.090   1.105   2.043 -0.2919 -0.6787  0.0343
 5829TIP3    H139046   6.019   1.085   2.103  0.1227 -1.0991  0.3873
 5829TIP3    H239047   6.147   1.165   2.091 -0.9529  0.5130 -0.6251
 5830TIP3   OH239048   6.124   2.018   0.311  0.2503 -0.2623  0.0126
 5830TIP3    H139049   6.098   2.049   0.398  0.8289 -1.2172  0.5332
 5830TIP3    H239050   6.074   2.074   0.250  1.0484  1.5218  0.9144
 5831TIP3   OH239051   4.546   2.055   7.753 -0.5710 -0.3547 -0.1366
 5831TIP3    H139052   4.527   2.041   7.845  1.3486 -0.5536  0.2545
 5831TIP3    H239053   4.473   2.109   7.722 -0.0807  1.7256  2.0589
 5832TIP3   OH239054   0.453   1.801   0.608  0.8059  0.1291 -0.3593
 5832TIP3    H139055   0.416   1.721   0.571  0.8683  0.6677 -1.6175
 5832TIP3    H239056   0.384   1.867   0.596 -0.7244 -0.3619  3.7343
 5833TIP3   OH239057   4.792   5.397   6.841  0.3617  0.1120 -0.0614
 5833TIP3    H139058   4.839   5.345   6.906 -1.1682  1.0823  1.9138
 5833TIP3    H239059   4.710   5.351   6.828  1.2352 -0.9014 -2.5529
 5834TIP3   OH239060   3.465   2.385   0.891  0.6469 -0.5164  0.3434
 5834TIP3    H139061   3.498   2.449   0.954 -0.9914 -0.3377  1.0889
 5834TIP3    H239062   3.509   2.304   0.914 -0.3085 -0.5832  2.1300
 5835TIP3   OH239063   4.584   2.542   1.140  0.3171  0.1155  0.1832
 5835TIP3    H139064   4.568   2.449   1.150 -1.3464  0.5475  2.3339
 5835TIP3    H239065   4.516   2.572   1.079  1.7685 -0.2464 -1.7083
 5836TIP3   OH239066   5.280   1.280   0.434 -0.2129  0.3814  0.2693
 5836TIP3    H139067   5.208   1.290   0.497 -0.7172 -0.4338 -0.1568
 5836TIP3    H239068   5.236   1.259   0.351  0.4930  0.4663 -0.1283
 5837TIP3   OH239069   4.174   4.045   2.446 -0.3448 -0.2235 -0.5574
 5837TIP3    H139070   4.181   3.971   2.506  0.6629 -0.6615 -1.1797
 5837TIP3    H239071   4.264   4.078   2.438 -1.0599  2.6332  1.5672
 5838TIP3   OH239072   0.043   0.087   0.572  0.2720  0.1367 -0.2300
 5838TIP3    H139073  -0.006   0.034   0.634 -1.1135  1.6849  0.0567
 5838TIP3    H239074   0.072   0.163   0.622  0.5766  0.5905 -1.0673
 5839TIP3   OH239075   4.892   4.901   1.115  0.2997  0.0034 -0.2085
 5839TIP3    H139076   4.868   4.986   1.078 -1.0178  0.6048  1.8609
 5839TIP3    H239077   4.987   4.896   1.105  0.2888  1.3303 -1.1279
 5840TIP3   OH239078   2.609   0.845   7.572  0.1053  0.2479  0.0150
 5840TIP3    H139079   2.574   0.917   7.624  1.0313 -0.0731  1.1395
 5840TIP3    H239080   2.665   0.888   7.507 -1.1813  0.6648 -0.8493
 5841TIP3   OH239081   1.496   1.710   6.970  0.1230  0.0369  0.2548
 5841TIP3    H139082   1.564   1.776   6.982  1.3091 -0.8667 -1.2129
 5841TIP3    H239083   1.518   1.641   7.032 -1.4491  1.2013  2.2085
 5842TIP3   OH239084   0.870   4.008   8.644  0.4531 -0.4690  0.4935
 5842TIP3    H139085   0.901   4.076   8.584 -2.1257  0.4229  0.0756
 5842TIP3    H239086   0.844   4.056   8.723  1.7060 -1.3859  1.5114
 5843TIP3   OH239087   0.407   2.713   7.472  0.7016 -0.1713 -0.7117
 5843TIP3    H139088   0.444   2.801   7.474  0.8501 -0.2428  0.1820
 5843TIP3    H239089   0.481   2.656   7.495  0.2671 -0.3914  0.1780
 5844TIP3   OH239090   0.785   6.131   0.212 -0.4746 -0.3396 -0.0791
 5844TIP3    H139091   0.719   6.166   0.271 -1.6436  0.7760 -1.9464
 5844TIP3    H239092   0.762   6.038   0.204 -2.7982  0.2876 -1.7884
 5845TIP3   OH239093   3.855   5.754   0.433  0.4885  0.1826 -0.2389
 5845TIP3    H139094   3.846   5.754   0.529 -0.1648 -0.1860 -0.2892
 5845TIP3    H239095   3.865   5.661   0.411  2.5934  0.4031 -0.3823
 5846TIP3   OH239096   6.109   2.307   7.328  0.6483 -0.0364  0.6714
 5846TIP3    H139097   6.088   2.362   7.404  2.3232  1.2647  0.2472
 5846TIP3    H239098   6.093   2.218   7.358 -1.8827  0.5879  1.4895
 5847TIP3   OH239099   6.283   4.416   8.341 -0.1309 -0.1177 -0.1507
 5847TIP3    H139100   6.332   4.416   8.423  0.3549  1.0166 -0.4174
 5847TIP3    H239101   6.232   4.497   8.343  0.8985  0.6126 -1.5242
 5848TIP3   OH239102   1.255   2.816   2.287  0.4920  0.0482 -0.1038
 5848TIP3    H139103   1.258   2.722   2.269 -0.7493 -0.0563  0.1788
 5848TIP3    H239104   1.337   2.849   2.250  2.1754 -1.5100  1.9394
 5849TIP3   OH239105   1.882   3.796   7.726 -0.2499 -0.4591  0.5026
 5849TIP3    H139106   1.904   3.852   7.801  0.5888 -1.0411  0.7119
 5849TIP3    H239107   1.966   3.779   7.683 -0.8371  0.6589 -1.1695
 5850TIP3   OH239108   5.053   6.309   7.706  0.3395 -0.4585 -0.9530
 5850TIP3    H139109   5.065   6.388   7.653 -0.7967  0.8277  0.6375
 5850TIP3    H239110   5.126   6.310   7.768 -1.3782  1.1802  1.1956
 5851TIP3   OH239111   3.139   1.218   1.126 -0.2691  0.3359 -0.0010
 5851TIP3    H139112   3.198   1.170   1.067  0.9147  1.0706  0.5443
 5851TIP3    H239113   3.171   1.308   1.123 -1.4117  0.7544  0.2860
 5852TIP3   OH239114   4.522   4.995   0.021  0.1147  0.2323 -0.4991
 5852TIP3    H139115   4.468   5.045  -0.040  1.5576  0.6615 -1.4868
 5852TIP3    H239116   4.585   5.058   0.055 -0.8799  0.0912  1.7937
 5853TIP3   OH239117   5.506   4.352   0.199  0.5559 -0.0251 -0.1671
 5853TIP3    H139118   5.570   4.394   0.142 -0.1193  0.6924 -0.4210
 5853TIP3    H239119   5.509   4.260   0.175  0.3032  0.2641 -1.3500
 5854TIP3   OH239120   1.056   1.479   6.992 -0.0060 -0.2776 -0.3148
 5854TIP3    H139121   1.092   1.399   7.032 -1.0026 -0.1175  0.9580
 5854TIP3    H239122   1.000   1.447   6.922  0.2832 -0.6486 -0.3831
 5855TIP3   OH239123   6.429   0.608   0.161 -0.1489 -0.4585 -0.4095
 5855TIP3    H139124   6.495   0.546   0.131 -0.9515 -1.5996  0.0872
 5855TIP3    H239125   6.474   0.664   0.224  0.6859 -0.2531 -1.1620
 5856TIP3   OH239126   0.591   3.210   8.649 -0.6663  0.2334  0.4634
 5856TIP3    H139127   0.600   3.225   8.743 -0.7788  2.4013  0.1941
 5856TIP3    H239128   0.639   3.284   8.609 -0.4629 -0.7370 -1.1824
 5857TIP3   OH239129   1.667   3.446   7.430 -0.2135 -0.1862 -0.3015
 5857TIP3    H139130   1.755   3.484   7.426 -0.5397  0.8742  1.5386
 5857TIP3    H239131   1.609   3.522   7.438 -0.9771 -0.9669  2.3298
 5858TIP3   OH239132   2.614   3.323   1.682  0.2173 -0.4109 -0.0647
 5858TIP3    H139133   2.593   3.255   1.618 -0.4336 -0.4421  0.1730
 5858TIP3    H239134   2.590   3.284   1.766 -0.3809  0.1930  0.0519
 5859TIP3   OH239135   5.036   3.892   7.814  0.7288  0.2412 -0.7591
 5859TIP3    H139136   5.022   3.936   7.898 -1.4688  1.0161 -1.4592
 5859TIP3    H239137   5.048   3.962   7.751  0.4544 -0.2617 -1.3874
 5860TIP3   OH239138   4.229   2.722   0.665  0.2502  0.0113 -0.1262
 5860TIP3    H139139   4.159   2.693   0.607 -0.5668  1.0255  0.3177
 5860TIP3    H239140   4.235   2.816   0.650  2.3895 -0.2061 -1.0634
 5861TIP3   OH239141   3.755   6.279   0.248  0.2067  0.2358  0.6890
 5861TIP3    H139142   3.838   6.263   0.203 -0.6329 -1.2619 -0.3875
 5861TIP3    H239143   3.760   6.225   0.327  0.1492 -0.0617  0.4901
 5862TIP3   OH239144   0.030   0.104   1.250 -0.4890  0.2756 -0.1561
 5862TIP3    H139145   0.057   0.148   1.169 -0.9132 -0.4583 -0.7076
 5862TIP3    H239146  -0.065   0.098   1.243 -0.3992 -1.1174 -0.2935
 5863TIP3   OH239147   2.758   2.841   0.189  0.3918 -1.0682  0.2033
 5863TIP3    H139148   2.673   2.821   0.150  0.5285 -0.7689 -0.2649
 5863TIP3    H239149   2.773   2.934   0.168  2.3422 -1.8814 -2.7152
 5864TIP3   OH239150   6.013   1.219   0.761  0.2105  0.4715 -0.0370
 5864TIP3    H139151   6.083   1.275   0.793 -0.9554  2.7237 -1.1485
 5864TIP3    H239152   6.057   1.140   0.730  2.1040  1.3459  0.2896
 5865TIP3   OH239153   3.451   4.701   2.073 -0.3266 -0.0774 -0.2309
 5865TIP3    H139154   3.479   4.790   2.050  0.2214 -0.3926 -0.8116
 5865TIP3    H239155   3.405   4.711   2.157 -0.9997  0.8717 -0.6967
 5866TIP3   OH239156   3.506   3.108   1.949  0.2283 -0.7854 -0.8819
 5866TIP3    H139157   3.429   3.087   2.002  1.1589 -0.6121  0.5911
 5866TIP3    H239158   3.489   3.196   1.916  0.4472 -0.0989  0.7420
 5867TIP3   OH239159   6.842   0.448   0.627  0.2417  0.5813 -0.3418
 5867TIP3    H139160   6.817   0.470   0.537 -1.4372 -0.0899 -0.0698
 5867TIP3    H239161   6.916   0.387   0.617 -0.1845  0.1973 -1.2717
 5868TIP3   OH239162   1.136   2.366   7.534  0.1429 -0.3088 -0.0845
 5868TIP3    H139163   1.121   2.460   7.538 -0.5167 -0.3238 -1.4080
 5868TIP3    H239164   1.089   2.338   7.455  4.8249 -0.8650 -3.0702
 5869TIP3   OH239165   0.070   3.922   1.853 -0.0229  0.1171  0.2813
 5869TIP3    H139166   0.110   3.985   1.913  2.2716  0.4113 -1.4214
 5869TIP3    H239167   0.062   3.842   1.905  0.2102  0.8317  1.4775
 5870TIP3   OH239168   6.317   6.247   0.814 -0.2499  0.4359  0.4197
 5870TIP3    H139169   6.289   6.304   0.885 -1.0943  0.8881 -0.2630
 5870TIP3    H239170   6.372   6.302   0.759 -1.6936  0.8633 -0.6644
 5871TIP3   OH239171   2.462   0.335   2.263 -0.2113  0.3101 -0.0932
 5871TIP3    H139172   2.391   0.283   2.225  0.9324 -0.3691 -1.3916
 5871TIP3    H239173   2.456   0.420   2.219 -1.2854  0.8776  1.0942
 5872TIP3   OH239174   3.730   1.478   1.495  0.4451  0.2177  0.0724
 5872TIP3    H139175   3.775   1.403   1.533  0.5460 -0.5382 -1.4428
 5872TIP3    H239176   3.641   1.472   1.529  0.0005 -1.5595 -1.2357
 5873TIP3   OH239177   0.866   2.535   7.184 -0.1645 -0.0278  0.3101
 5873TIP3    H139178   0.771   2.525   7.187 -0.1155 -0.5153  0.2922
 5873TIP3    H239179   0.887   2.537   7.091 -0.1934  0.4705  0.3106
 5874TIP3   OH239180   1.826   2.852   8.558 -0.5878 -0.0066  0.4584
 5874TIP3    H139181   1.899   2.869   8.498  0.2042  3.3653  2.1094
 5874TIP3    H239182   1.852   2.773   8.605  0.1871 -0.9725 -1.4685
 5875TIP3   OH239183   1.690   2.421   8.169  0.1589  0.3694 -0.0502
 5875TIP3    H139184   1.611   2.368   8.160 -0.0469  0.8617 -1.3099
 5875TIP3    H239185   1.736   2.411   8.085  1.6958 -0.2900  0.8213
 5876TIP3   OH239186   6.452   2.203   7.156 -0.0859 -0.1388  0.3074
 5876TIP3    H139187   6.400   2.197   7.076 -2.0024  0.2111  1.4499
 5876TIP3    H239188   6.405   2.148   7.219  0.7685  0.4367  1.4894
 5877TIP3   OH239189   3.493   5.161   8.387  0.3667  0.3229  0.4485
 5877TIP3    H139190   3.585   5.170   8.411  0.8672  1.0214 -1.5742
 5877TIP3    H239191   3.448   5.146   8.470  2.2985 -0.0987  1.4723
 5878TIP3   OH239192   5.530   3.503   2.615 -0.1847  0.3166  0.0051
 5878TIP3    H139193   5.520   3.490   2.520 -1.0548  0.1585  0.1141
 5878TIP3    H239194   5.518   3.598   2.627  1.5289  0.5958 -0.2220
 5879TIP3   OH239195   2.500   1.037   0.205  0.0404 -0.5683  0.3627
 5879TIP3    H139196   2.505   1.057   0.112 -0.9710 -0.1813  0.3728
 5879TIP3    H239197   2.590   1.038   0.236  0.2000  2.6552  0.0833
 5880TIP3   OH239198   5.059   2.363   7.222 -0.1595  0.1728 -0.1284
 5880TIP3    H139199   4.994   2.355   7.153  0.7515 -0.5345 -0.9373
 5880TIP3    H239200   5.017   2.324   7.299 -1.3154  1.2854 -0.1567
 5881TIP3   OH239201   4.024   6.515   6.921 -0.3392 -1.0043  0.1522
 5881TIP3    H139202   3.992   6.583   6.980  0.9647  0.3590 -0.6321
 5881TIP3    H239203   3.953   6.503   6.858 -0.0292  0.7864 -0.6060
 5882TIP3   OH239204   0.941   4.357   1.526  0.6561 -0.7945 -0.8328
 5882TIP3    H139205   0.935   4.368   1.621  0.7151 -2.5109 -0.6099
 5882TIP3    H239206   1.023   4.402   1.502  0.1203  0.5415 -0.2420
 5883TIP3   OH239207   4.788   5.022   0.305 -0.0663 -0.2083 -0.3634
 5883TIP3    H139208   4.868   5.075   0.304 -1.1580  1.5970  1.1446
 5883TIP3    H239209   4.779   4.996   0.396 -1.8622  0.7662 -0.2205
 5884TIP3   OH239210   6.780   4.772   0.529 -0.3966  0.4950  0.3637
 5884TIP3    H139211   6.873   4.783   0.510 -0.6093  0.9032 -0.4528
 5884TIP3    H239212   6.778   4.707   0.599  0.4907  0.3171  0.2350
 5885TIP3   OH239213   4.579   4.038   8.663  0.5640  0.6685 -0.3753
 5885TIP3    H139214   4.503   3.988   8.633  0.4177  1.2671 -1.0296
 5885TIP3    H239215   4.632   3.975   8.712  0.4347 -0.1480 -1.2743
 5886TIP3   OH239216   3.539   2.931   0.112 -0.2165 -0.2338 -0.5685
 5886TIP3    H139217   3.449   2.946   0.142  0.2031 -0.1329  0.7438
 5886TIP3    H239218   3.553   2.996   0.043 -0.5517  1.0542  0.5279
 5887TIP3   OH239219   0.581   6.278   0.355  0.1570 -0.3857 -0.3230
 5887TIP3    H139220   0.517   6.224   0.401  0.5481 -0.9230 -0.3962
 5887TIP3    H239221   0.643   6.304   0.423  1.9384 -2.9165 -0.8148
 5888TIP3   OH239222   4.566   0.310   7.453  0.3416  0.5094  0.1357
 5888TIP3    H139223   4.493   0.370   7.438 -0.4413 -0.8797 -2.2369
 5888TIP3    H239224   4.628   0.331   7.383  1.5440  0.6783  1.2369
 5889TIP3   OH239225   1.994   6.266   6.735  0.3242  0.2117 -0.0870
 5889TIP3    H139226   1.971   6.175   6.754 -1.8571  0.2450 -2.0554
 5889TIP3    H239227   1.938   6.289   6.660  2.2887  2.5345 -0.9632
 5890TIP3   OH239228   2.574   4.555   6.456  0.5222 -0.2648 -0.3965
 5890TIP3    H139229   2.594   4.505   6.377  1.1283 -0.1250 -0.3373
 5890TIP3    H239230   2.501   4.508   6.497 -0.1639 -0.0321 -1.3121
 5891TIP3   OH239231   5.820   4.124   0.915 -0.0684 -0.0578 -0.2015
 5891TIP3    H139232   5.840   4.203   0.964  1.0836  0.3086 -1.2055
 5891TIP3    H239233   5.743   4.147   0.863  0.4250  0.5241 -0.6954
 5892TIP3   OH239234   1.939   4.383   7.588  0.2028 -0.1999 -0.2211
 5892TIP3    H139235   1.955   4.472   7.619  0.1382 -0.3890  0.3610
 5892TIP3    H239236   2.014   4.333   7.620  1.6738  0.1632 -2.8305
 5893TIP3   OH239237   3.980   5.717   8.559  0.0557 -0.0376  0.5148
 5893TIP3    H139238   3.947   5.804   8.583 -1.2708 -0.0828 -0.9863
 5893TIP3    H239239   4.074   5.722   8.574  0.0300  1.7375  0.2876
 5894TIP3   OH239240   4.479   3.466   1.166 -0.8262  0.6801 -0.0240
 5894TIP3    H139241   4.522   3.534   1.115  0.7654  0.6502  1.2285
 5894TIP3    H239242   4.385   3.477   1.147 -0.4136  1.7256 -1.6089
 5895TIP3   OH239243   0.842   0.497   0.507 -0.1809 -0.3314  0.6159
 5895TIP3    H139244   0.811   0.567   0.564 -3.0414 -0.4418 -0.6514
 5895TIP3    H239245   0.919   0.462   0.552 -0.1394  1.9720  2.5067
 5896TIP3   OH239246   3.848   4.671   1.963 -0.3481 -0.4007  0.0595
 5896TIP3    H139247   3.914   4.612   1.926 -0.2596  0.7876 -1.8113
 5896TIP3    H239248   3.821   4.629   2.044 -0.2156 -2.9558 -1.1143
 5897TIP3   OH239249   6.786   1.968   1.135  0.3065  0.2883  0.7372
 5897TIP3    H139250   6.855   1.930   1.081  0.5828  0.0484  1.2518
 5897TIP3    H239251   6.831   1.996   1.215 -0.0785  0.7267  0.8050
 5898TIP3   OH239252   0.802   5.916   2.051 -0.4959 -0.2779  0.3150
 5898TIP3    H139253   0.835   5.981   2.114 -0.1902  0.5617 -0.6941
 5898TIP3    H239254   0.777   5.841   2.106  0.1161  0.2850  1.4032
 5899TIP3   OH239255   5.231   6.096   6.651  0.0882 -0.0835 -0.1895
 5899TIP3    H139256   5.138   6.077   6.644  0.4398 -1.5622 -1.3927
 5899TIP3    H239257   5.267   6.022   6.700  0.9048 -0.5732 -1.4801
 5900TIP3   OH239258   1.554   5.597   1.755  0.1711  0.3138 -0.0633
 5900TIP3    H139259   1.629   5.554   1.795 -0.6831 -0.3932  0.8361
 5900TIP3    H239260   1.569   5.590   1.661 -0.3726 -2.8791 -0.0202
 5901TIP3   OH239261   0.025   4.287   6.969  0.0595 -0.0405  0.1488
 5901TIP3    H139262   0.083   4.327   6.904  0.1975 -2.4750 -1.3267
 5901TIP3    H239263  -0.062   4.292   6.930  0.1791 -1.7596 -0.3986
 5902TIP3   OH239264   3.979   4.110   1.954 -0.3942  0.2148 -0.0272
 5902TIP3    H139265   3.953   4.047   1.887  1.3097 -0.9233  0.3276
 5902TIP3    H239266   4.014   4.057   2.025  0.9353  1.5321  0.3589
 5903TIP3   OH239267   5.082   2.643   0.376 -0.2937 -0.4423  0.5072
 5903TIP3    H139268   5.159   2.587   0.388  0.3043  0.4471  1.0160
 5903TIP3    H239269   5.014   2.584   0.344  0.7003 -1.1910 -0.3288
 5904TIP3   OH239270   0.643   3.340   7.683  0.0989  0.0311  0.3325
 5904TIP3    H139271   0.574   3.326   7.748 -1.3650  0.6820 -1.0039
 5904TIP3    H239272   0.615   3.287   7.607 -0.0962  1.9674 -1.0165
 5905TIP3   OH239273   4.874   4.727   2.675  0.3337  0.4932 -0.2098
 5905TIP3    H139274   4.858   4.633   2.676  2.3431  0.1279  0.8142
 5905TIP3    H239275   4.831   4.760   2.753  0.0011  0.3694 -0.3387
 5906TIP3   OH239276   1.268   5.695   6.724  0.3413  0.2613  0.4432
 5906TIP3    H139277   1.292   5.787   6.708 -2.6068  0.9827 -0.4679
 5906TIP3    H239278   1.267   5.655   6.637  0.1954 -0.2722  0.6885
 5907TIP3   OH239279   1.056   2.238   1.345 -1.0104 -0.8325 -0.1025
 5907TIP3    H139280   1.007   2.182   1.284  0.4555 -0.3920 -1.7839
 5907TIP3    H239281   1.098   2.303   1.288 -1.1754  0.8581  1.6191
 5908TIP3   OH239282   1.149   0.767   6.253 -0.5832 -0.4278  0.4097
 5908TIP3    H139283   1.236   0.742   6.222  0.1842 -1.1100  2.8592
 5908TIP3    H239284   1.128   0.847   6.205  0.9969 -0.7507 -0.8815
 5909TIP3   OH239285   1.165   0.461   7.373 -0.1137 -0.4703 -0.8948
 5909TIP3    H139286   1.172   0.538   7.317 -0.3751 -0.6014 -1.1089
 5909TIP3    H239287   1.112   0.492   7.448  0.6282 -0.1676 -0.4859
 5910TIP3   OH239288   0.784   4.421   0.420 -0.0292  0.0337  0.6883
 5910TIP3    H139289   0.827   4.337   0.434 -0.1671 -0.3594 -1.0571
 5910TIP3    H239290   0.850   4.486   0.443  1.5763 -0.5504 -1.9154
 5911TIP3   OH239291   2.374   4.748   0.379  0.4940 -0.4522  0.1721
 5911TIP3    H139292   2.426   4.677   0.343  0.2177 -0.9726  0.7724
 5911TIP3    H239293   2.284   4.728   0.352  0.6052  0.5396 -1.0205
 5912TIP3   OH239294   5.323   5.454   8.614  0.7268  0.3091 -0.3468
 5912TIP3    H139295   5.293   5.381   8.668 -1.3685  1.7320  0.5233
 5912TIP3    H239296   5.331   5.416   8.526 -0.1454 -1.0038  0.1062
 5913TIP3   OH239297   1.728   0.163   2.407 -0.0946 -0.4787 -0.5518
 5913TIP3    H139298   1.725   0.191   2.316  0.2790 -1.2719 -0.8129
 5913TIP3    H239299   1.750   0.243   2.456  0.1505 -0.1476 -1.2001
 5914TIP3   OH239300   6.254   1.929   0.093 -0.3534 -0.0515  0.4433
 5914TIP3    H139301   6.189   1.926   0.023 -0.1319  0.3442  0.2174
 5914TIP3    H239302   6.210   1.974   0.165  0.0445  1.2958 -0.1238
 5915TIP3   OH239303   1.731   3.538   1.243  0.4030  0.4616  0.1346
 5915TIP3    H139304   1.647   3.502   1.271 -0.5881  1.8662 -0.8459
 5915TIP3    H239305   1.707   3.608   1.182  2.3064  0.7075 -0.3910
 5916TIP3   OH239306   4.034   1.429   8.540  0.6314  0.9509  0.4631
 5916TIP3    H139307   3.999   1.404   8.455 -1.0976 -1.7841  1.8387
 5916TIP3    H239308   3.990   1.511   8.562 -0.3912  0.6528 -0.4341
 5917TIP3   OH239309   5.057   6.322   0.021 -0.2240  0.5051 -0.5739
 5917TIP3    H139310   5.143   6.362   0.010  0.1301 -0.2873 -0.7673
 5917TIP3    H239311   5.074   6.228   0.016 -1.1601  0.3507 -1.0375
 5918TIP3   OH239312   4.162   0.799   6.860 -0.0054 -0.1684  0.6781
 5918TIP3    H139313   4.089   0.787   6.799  0.2340  0.8542  0.1806
 5918TIP3    H239314   4.239   0.806   6.805  0.2126  0.7835  1.0828
 5919TIP3   OH239315   6.133   0.436   8.247  0.0213 -0.1346 -0.6162
 5919TIP3    H139316   6.083   0.355   8.240  0.2548 -0.4335  0.8438
 5919TIP3    H239317   6.066   0.504   8.262 -0.0639 -0.3105 -0.1780
 5920TIP3   OH239318   4.664   5.783   8.305  0.4962  0.0005  0.1626
 5920TIP3    H139319   4.721   5.826   8.241 -1.7829  0.8286 -1.4556
 5920TIP3    H239320   4.625   5.856   8.355 -2.2949 -0.0930 -1.6327
 5921TIP3   OH239321   0.982   6.205   7.160  0.5979 -0.3826 -0.5219
 5921TIP3    H139322   0.926   6.211   7.083  0.8419 -0.8850 -0.7460
 5921TIP3    H239323   0.981   6.293   7.198 -1.1603 -0.6064  0.0572
 5922TIP3   OH239324   3.077   0.608   6.908 -0.4608 -0.5545  0.0638
 5922TIP3    H139325   3.135   0.535   6.886 -0.6567 -0.8729  0.6057
 5922TIP3    H239326   3.069   0.605   7.003  0.3218  0.7753  0.2004
 5923TIP3   OH239327   1.595   6.217   6.755 -0.2060  0.7563 -0.3015
 5923TIP3    H139328   1.527   6.256   6.809 -1.2453  0.5109 -1.3758
 5923TIP3    H239329   1.632   6.291   6.707 -0.3353  0.7829 -0.3635
 5924TIP3   OH239330   1.767   6.448   8.044 -0.2348  0.0739 -0.2351
 5924TIP3    H139331   1.760   6.495   8.127  0.0453  0.4407 -0.4151
 5924TIP3    H239332   1.735   6.360   8.063 -0.3382  0.2085  0.2177
 5925TIP3   OH239333   0.547   2.379   8.614 -0.0667  0.0199 -0.0726
 5925TIP3    H139334   0.593   2.453   8.576 -0.2348 -0.6153 -1.5620
 5925TIP3    H239335   0.480   2.356   8.550  0.9880 -2.4066 -0.4289
 5926TIP3   OH239336   2.787   2.213   8.296 -0.2859  0.5892  0.1827
 5926TIP3    H139337   2.808   2.215   8.203 -1.6682  2.2703 -0.1486
 5926TIP3    H239338   2.847   2.148   8.333 -0.0575 -0.5102 -1.9451
 5927TIP3   OH239339   1.582   5.113   2.647 -0.1688  0.4776  0.2262
 5927TIP3    H139340   1.542   5.071   2.571 -0.8202  3.0046 -0.9218
 5927TIP3    H239341   1.518   5.103   2.717 -0.1980 -0.5802  0.0686
 5928TIP3   OH239342   2.075   0.864   7.083 -0.0127  0.5017 -0.0540
 5928TIP3    H139343   2.067   0.797   7.151  1.5790 -1.0178 -1.2635
 5928TIP3    H239344   2.141   0.829   7.023 -2.2066  1.1238 -3.0792
 5929TIP3   OH239345   5.758   3.419   1.247 -0.3410 -0.0796  0.0938
 5929TIP3    H139346   5.741   3.486   1.313 -2.3338  0.0377 -0.4810
 5929TIP3    H239347   5.821   3.360   1.290  1.0493  1.7969  0.8011
 5930TIP3   OH239348   5.743   1.328   7.665  0.9590 -0.3401 -0.2842
 5930TIP3    H139349   5.839   1.332   7.666  0.9207  0.9464  0.0561
 5930TIP3    H239350   5.721   1.259   7.728  1.6642 -0.6342 -0.3562
 5931TIP3   OH239351   6.327   1.683   0.189 -0.3059 -0.1262  0.0953
 5931TIP3    H139352   6.311   1.773   0.161 -0.0611 -0.3760 -0.8798
 5931TIP3    H239353   6.379   1.692   0.269 -1.8050  0.6114  1.0302
 5932TIP3   OH239354   4.456   5.797   7.933  0.3427  0.0333 -0.3793
 5932TIP3    H139355   4.482   5.773   7.843  1.5118 -1.7887  0.3769
 5932TIP3    H239356   4.461   5.715   7.982 -0.0404  1.0334  1.4216
 5933TIP3   OH239357   0.759   1.932   0.325 -0.1980  0.0142 -0.5670
 5933TIP3    H139358   0.683   1.890   0.285  0.3074  0.1890 -1.7473
 5933TIP3    H239359   0.829   1.866   0.319 -0.9027 -1.3132  3.1644
 5934TIP3   OH239360   2.782   4.497   7.783  0.2806  0.1262 -0.1151
 5934TIP3    H139361   2.852   4.545   7.738  2.1990 -2.9163 -0.6716
 5934TIP3    H239362   2.779   4.535   7.870  2.8087  0.2940 -0.0236
 5935TIP3   OH239363   6.162   5.375   2.001  0.3502  0.3201 -0.3661
 5935TIP3    H139364   6.149   5.282   2.020 -0.8003  0.4798 -0.2525
 5935TIP3    H239365   6.248   5.395   2.037 -0.4653 -0.1097  1.9881
 5936TIP3   OH239366   2.240   0.983   0.553  0.4134  0.5049 -0.0722
 5936TIP3    H139367   2.181   0.929   0.499 -1.1924  0.7523  1.3482
 5936TIP3    H239368   2.255   1.062   0.501 -0.3421  0.3374 -0.5572
 5937TIP3   OH239369   6.708   4.436   0.008  0.2330  0.0536 -0.1150
 5937TIP3    H139370   6.637   4.389   0.053  0.1003  0.3980  0.0412
 5937TIP3    H239371   6.767   4.464   0.078  0.6373 -0.4142 -0.2653
 5938TIP3   OH239372   0.803   0.336   8.247 -0.2405  0.0664  0.3072
 5938TIP3    H139373   0.714   0.323   8.277 -0.8233  1.8636 -0.4749
 5938TIP3    H239374   0.857   0.284   8.306 -1.8553 -1.9409  0.1230
 5939TIP3   OH239375   4.199   2.190   8.231  0.0048  0.3439  0.4502
 5939TIP3    H139376   4.206   2.195   8.136  0.9737  2.1370  0.5823
 5939TIP3    H239377   4.161   2.274   8.257 -0.4559 -0.2147  1.6399
 5940TIP3   OH239378   0.953   4.205   1.315  0.0079 -0.2051  0.2430
 5940TIP3    H139379   0.903   4.250   1.247 -0.7361  0.3178  1.1174
 5940TIP3    H239380   0.963   4.270   1.385  1.2303 -0.5533  0.4270
 5941TIP3   OH239381   2.394   2.334   0.898 -0.6211  0.7987 -0.3139
 5941TIP3    H139382   2.422   2.290   0.978  1.6035  0.8295 -1.0155
 5941TIP3    H239383   2.397   2.427   0.920  1.1566  0.8638 -0.7517
 5942TIP3   OH239384   1.001   6.432   1.660  0.2107 -0.1791 -0.3356
 5942TIP3    H139385   0.983   6.355   1.606 -1.0426  0.0757 -0.3191
 5942TIP3    H239386   0.957   6.504   1.614  1.5364  0.5800 -0.4571
 5943TIP3   OH239387   3.436   5.718   0.274 -0.2768  0.1877 -0.0979
 5943TIP3    H139388   3.437   5.804   0.231 -0.2416 -0.1047 -0.6945
 5943TIP3    H239389   3.489   5.731   0.353 -0.7167  0.8508  0.0954
 5944TIP3   OH239390   2.907   1.009   7.547 -0.0616 -0.6770 -0.4857
 5944TIP3    H139391   2.856   1.072   7.496 -2.0804 -1.8415 -0.0172
 5944TIP3    H239392   2.925   1.054   7.630  0.6135  0.1125 -1.0366
 5945TIP3   OH239393   3.433   4.686   7.963 -0.3796  0.0570  0.6847
 5945TIP3    H139394   3.446   4.780   7.975 -3.1453  0.5996  0.1620
 5945TIP3    H239395   3.421   4.675   7.869 -0.2527 -0.7936  0.7575
 5946TIP3   OH239396   5.744   2.344   2.076  0.1575  0.2628 -0.0657
 5946TIP3    H139397   5.663   2.325   2.124 -0.5787  3.1134  0.0076
 5946TIP3    H239398   5.783   2.418   2.123  0.6524  1.6127 -2.4172
 5947TIP3   OH239399   6.023   3.279   2.361 -0.3680 -0.1913 -0.2401
 5947TIP3    H139400   6.059   3.262   2.274  0.0024  2.4536 -0.6652
 5947TIP3    H239401   5.934   3.311   2.346 -0.5660 -0.4053  0.4122
 5948TIP3   OH239402   1.623   5.258   8.051  0.1822  0.1948 -0.5958
 5948TIP3    H139403   1.618   5.175   8.004  0.2218  0.8989 -1.8743
 5948TIP3    H239404   1.585   5.322   7.992  0.1661  1.1056  0.3662
 5949TIP3   OH239405   1.558   0.383   7.796 -0.2337  0.0474 -0.2656
 5949TIP3    H139406   1.624   0.386   7.727 -0.8543  0.2092 -0.8708
 5949TIP3    H239407   1.597   0.329   7.865  0.8038  0.7349 -0.2941
 5950TIP3   OH239408   6.640   5.000   1.256  0.1295  0.8361 -0.3831
 5950TIP3    H139409   6.563   5.025   1.308 -1.8068 -0.2245 -2.5641
 5950TIP3    H239410   6.620   5.030   1.167  2.3696  0.7420 -0.9755
 5951TIP3   OH239411   4.157   3.853   0.275  0.0215 -0.2810 -0.1387
 5951TIP3    H139412   4.180   3.940   0.309  0.1095  0.1139 -1.1872
 5951TIP3    H239413   4.078   3.829   0.324 -0.2999  0.6124 -0.1959
 5952TIP3   OH239414   2.073   4.049   8.180 -0.7601 -0.1402  0.3318
 5952TIP3    H139415   2.159   4.048   8.223 -0.0607  0.7690 -0.9526
 5952TIP3    H239416   2.015   4.090   8.244  0.1602  0.8438  0.5673
 5953TIP3   OH239417   1.947   1.637   6.734 -0.5653  0.1157  0.4018
 5953TIP3    H139418   1.885   1.606   6.668 -0.5384 -1.6908  1.1737
 5953TIP3    H239419   2.031   1.599   6.708 -0.2120  0.7800  0.5552
 5954TIP3   OH239420   5.684   1.780   7.660 -0.5432  0.2513  0.2341
 5954TIP3    H139421   5.741   1.793   7.584  1.2710  0.3936  1.5525
 5954TIP3    H239422   5.598   1.812   7.631  0.0613  0.2112 -1.7687
 5955TIP3   OH239423   1.532   2.778   1.035  0.5486  0.0200  0.0566
 5955TIP3    H139424   1.464   2.779   1.103  1.9486 -3.5303  1.7356
 5955TIP3    H239425   1.607   2.822   1.076  0.1050  1.8250 -0.9391
 5956TIP3   OH239426   0.835   0.987   7.054 -0.8732 -0.3133 -0.1188
 5956TIP3    H139427   0.826   1.063   6.996  0.9578 -0.6053 -0.8540
 5956TIP3    H239428   0.783   0.918   7.013  0.2070 -0.4429 -1.3423
 5957TIP3   OH239429   6.285   4.807   8.508 -0.5835 -0.3831  0.1160
 5957TIP3    H139430   6.267   4.867   8.435 -0.7257 -1.2736 -0.5975
 5957TIP3    H239431   6.208   4.750   8.511 -1.4562  0.7835  2.1672
 5958TIP3   OH239432   1.296   4.226   2.532 -0.5887  0.1911 -0.6328
 5958TIP3    H139433   1.363   4.200   2.469 -0.5283  2.1060 -1.4373
 5958TIP3    H239434   1.216   4.232   2.480 -1.5239 -2.3593  0.3751
 5959TIP3   OH239435   4.844   3.001   1.972 -0.4762 -0.2705  0.5036
 5959TIP3    H139436   4.798   3.080   1.945  0.1964 -0.1403 -0.3344
 5959TIP3    H239437   4.914   3.033   2.030  1.1461  0.0656 -1.4893
 5960TIP3   OH239438   1.307   2.344   7.738 -0.0835  1.1955 -0.1038
 5960TIP3    H139439   1.216   2.345   7.707 -1.0596 -1.5867  2.2502
 5960TIP3    H239440   1.359   2.356   7.658 -2.4882  0.2042 -1.9667
 5961TIP3   OH239441   5.028   4.952   8.089 -0.5117  0.0327  0.2882
 5961TIP3    H139442   4.979   4.944   8.171  2.3307 -1.6130  2.0102
 5961TIP3    H239443   5.016   4.867   8.045 -1.5052  0.6793 -0.7350
 5962TIP3   OH239444   5.299   6.229   2.203  0.6211 -0.5699 -0.1004
 5962TIP3    H139445   5.328   6.143   2.176 -0.5551 -1.4686  1.3155
 5962TIP3    H239446   5.208   6.216   2.232 -0.0049  1.3826 -0.9790
 5963TIP3   OH239447   2.623   1.158   8.640  0.0587  0.5194 -0.4285
 5963TIP3    H139448   2.718   1.160   8.629  0.0888 -0.1772 -0.3107
 5963TIP3    H239449   2.594   1.244   8.608  0.5872  0.1972 -1.8800
 5964TIP3   OH239450   0.311   2.028   1.777 -0.0731  0.1766  0.1277
 5964TIP3    H139451   0.310   1.932   1.773  1.8972  0.1095  0.3585
 5964TIP3    H239452   0.318   2.047   1.871  2.1635  0.4255 -0.0299
 5965TIP3   OH239453   4.247   5.965   0.192  0.6971  0.1504 -0.0137
 5965TIP3    H139454   4.170   5.912   0.212  0.5794 -0.2373 -1.3510
 5965TIP3    H239455   4.320   5.917   0.232  0.2478  0.6861  1.5324
 5966TIP3   OH239456   3.231   1.975   5.899  0.3763  0.4874 -0.2565
 5966TIP3    H139457   3.315   2.016   5.880  1.8237 -2.4391 -0.7370
 5966TIP3    H239458   3.244   1.930   5.982 -0.2244 -1.1149 -0.9838
 5967TIP3   OH239459   0.041   4.417   1.923 -0.3696 -0.0407 -0.1416
 5967TIP3    H139460   0.040   4.511   1.941  1.6616 -0.0908  0.4996
 5967TIP3    H239461   0.093   4.380   1.994 -0.2744 -1.5245 -0.9528
 5968TIP3   OH239462   3.873   5.047   0.051 -0.8829  0.5137 -0.3490
 5968TIP3    H139463   3.888   5.085   0.137  1.8918 -0.3962 -0.3322
 5968TIP3    H239464   3.850   4.956   0.068  1.0077 -0.0394 -0.5281
 5969TIP3   OH239465   4.957   3.287   1.726 -0.4776  0.3899  0.0291
 5969TIP3    H139466   4.887   3.344   1.758 -0.4410  1.2237 -1.2968
 5969TIP3    H239467   4.916   3.200   1.720 -0.6707  0.3363  1.5937
 5970TIP3   OH239468   2.985   2.893   8.596  0.4214 -0.2893  0.5945
 5970TIP3    H139469   2.945   2.972   8.633 -0.2804 -0.3936  0.0749
 5970TIP3    H239470   3.041   2.860   8.666 -0.6534 -0.3164  1.4745
 5971TIP3   OH239471   0.236   4.552   1.763  0.0535  0.1685  0.1675
 5971TIP3    H139472   0.317   4.516   1.727  0.7235  1.7931 -0.0260
 5971TIP3    H239473   0.190   4.476   1.798  2.0437 -0.6995  1.0448
 5972TIP3   OH239474   0.771   1.599   1.143  0.7325  0.0641  0.2626
 5972TIP3    H139475   0.832   1.548   1.197  2.5175  1.1756 -0.6097
 5972TIP3    H239476   0.792   1.574   1.053 -1.1009 -0.5696 -0.0254
 5973TIP3   OH239477   3.127   6.004   8.639  0.0175 -0.0283  0.1271
 5973TIP3    H139478   3.100   6.095   8.641  0.2701  0.0524 -0.1181
 5973TIP3    H239479   3.202   6.000   8.699  0.8944  0.2184 -0.9216
 5974TIP3   OH239480   3.477   1.647   0.931 -0.0264 -0.2894 -0.0428
 5974TIP3    H139481   3.425   1.661   1.010 -1.7057  0.8024 -1.2840
 5974TIP3    H239482   3.499   1.554   0.933 -0.7297 -0.4516  1.2826
 5975TIP3   OH239483   1.238   1.788   8.532  0.0914  0.4058 -0.0611
 5975TIP3    H139484   1.240   1.884   8.529  1.2834  0.3997 -0.0397
 5975TIP3    H239485   1.313   1.764   8.587 -1.4626 -0.4969  1.7697
 5976TIP3   OH239486   3.307   2.633   7.499  0.1024 -0.1193  0.1827
 5976TIP3    H139487   3.335   2.723   7.480  0.7410 -0.2154  0.6283
 5976TIP3    H239488   3.354   2.580   7.434  0.2045 -0.1904  0.3150
 5977TIP3   OH239489   3.205   1.863   6.992  0.2012 -0.2664  0.0037
 5977TIP3    H139490   3.195   1.924   6.919 -0.8264 -1.1497 -0.6216
 5977TIP3    H239491   3.119   1.861   7.034  0.4129 -0.7882  0.4225
 5978TIP3   OH239492   3.671   1.440   8.527 -0.7009 -0.6289  0.8112
 5978TIP3    H139493   3.759   1.427   8.494 -0.8883  0.0186  0.0105
 5978TIP3    H239494   3.616   1.445   8.448 -1.2631  0.2406  1.2335
 5979TIP3   OH239495   6.116   5.377   0.318 -0.4435  0.8145  0.1356
 5979TIP3    H139496   6.188   5.440   0.313  0.3843 -0.0496  0.6277
 5979TIP3    H239497   6.120   5.330   0.235  1.0287 -0.7156  0.9961
 5980TIP3   OH239498   4.580   2.926   1.565  0.6219  0.4209 -0.5248
 5980TIP3    H139499   4.514   2.887   1.622  0.3816  1.7084  0.1299
 5980TIP3    H239500   4.652   2.863   1.563  0.4638  0.1770  0.9100
 5981TIP3   OH239501   5.394   3.175   8.077 -0.5107  1.3182 -0.5853
 5981TIP3    H139502   5.339   3.253   8.066 -0.3375  1.2750 -2.0274
 5981TIP3    H239503   5.332   3.106   8.101 -0.5003  2.1198  1.9992
 5982TIP3   OH239504   0.968   6.147   8.665  0.5264  0.2255 -0.2018
 5982TIP3    H139505   0.908   6.136   8.739 -0.0473 -1.9131 -0.9304
 5982TIP3    H239506   0.943   6.232   8.627 -0.9505  0.1225  0.4694
 5983TIP3   OH239507   2.945   1.978   1.488  0.0697 -0.1212  0.5994
 5983TIP3    H139508   2.990   2.047   1.439 -0.0729 -0.7052 -0.3718
 5983TIP3    H239509   2.852   1.998   1.477  0.0536  0.5949  1.8918
 5984TIP3   OH239510   2.386   6.098   8.017 -0.3096 -0.0906  0.3575
 5984TIP3    H139511   2.406   6.083   7.925  0.1113  0.5190  0.3396
 5984TIP3    H239512   2.454   6.050   8.064  1.7964  2.5410  0.2913
 5985TIP3   OH239513   2.896   1.094   1.239  0.1852 -0.2168  0.2125
 5985TIP3    H139514   2.845   1.173   1.255  0.9168  0.4496 -0.6410
 5985TIP3    H239515   2.983   1.126   1.213  1.2750 -1.3155  2.2375
 5986TIP3   OH239516   4.469   2.019   0.062 -0.8314  0.2278  0.1315
 5986TIP3    H139517   4.397   1.987   0.008 -0.9865  0.2765  0.3057
 5986TIP3    H239518   4.482   2.110   0.034 -1.5761  0.5777  0.8463
 5987TIP3   OH239519   1.894   1.940   2.092 -0.1578 -0.4089 -0.6023
 5987TIP3    H139520   1.902   1.871   2.026 -0.3251  0.1564 -1.2229
 5987TIP3    H239521   1.801   1.962   2.093 -0.2013 -0.6163  0.0354
 5988TIP3   OH239522   5.002   6.689   0.404  0.5897 -0.8640 -0.0284
 5988TIP3    H139523   5.011   6.720   0.314  1.2500 -2.4685 -0.5440
 5988TIP3    H239524   4.922   6.636   0.402 -0.1818  0.2302  0.6912
 5989TIP3   OH239525   4.426   0.672   2.047  0.1210  0.2120 -0.1768
 5989TIP3    H139526   4.488   0.651   2.117  0.4751  0.3515 -0.4459
 5989TIP3    H239527   4.342   0.680   2.092  0.3884  0.5857  0.2795
 5990TIP3   OH239528   4.705   1.851   0.953 -0.4579  0.1145  0.4506
 5990TIP3    H139529   4.754   1.780   0.993 -0.4761 -0.3637 -0.3516
 5990TIP3    H239530   4.684   1.820   0.865 -0.7450  0.9842  0.1943
 5991TIP3   OH239531   4.601   1.541   0.860  1.0898  0.0767  0.3925
 5991TIP3    H139532   4.540   1.478   0.899  0.1389  1.3092  0.9684
 5991TIP3    H239533   4.685   1.496   0.860 -0.0084 -2.2555 -1.7822
 5992TIP3   OH239534   0.814   0.821   2.205  0.2672  0.4022  0.0772
 5992TIP3    H139535   0.897   0.787   2.238 -0.5522  0.1611  2.0744
 5992TIP3    H239536   0.768   0.852   2.283 -2.0803 -0.7350 -0.7432
 5993TIP3   OH239537   5.597   0.053   0.101 -0.0630 -0.5588  0.1646
 5993TIP3    H139538   5.653  -0.024   0.111 -1.1001 -1.6250 -1.6531
 5993TIP3    H239539   5.517   0.020   0.059 -1.2385  1.2466  0.8182
 5994TIP3   OH239540   2.409   4.326   8.641 -0.3854 -0.2980  0.3024
 5994TIP3    H139541   2.411   4.412   8.600 -0.3610 -0.6754 -0.5332
 5994TIP3    H239542   2.473   4.274   8.590 -0.3435 -0.7818  0.8360
 5995TIP3   OH239543   5.894   1.506   8.156  0.1595  0.0546 -0.3429
 5995TIP3    H139544   5.967   1.446   8.141 -0.0563  0.3490 -3.0757
 5995TIP3    H239545   5.936   1.589   8.180  0.5641 -0.4483  0.7634
 5996TIP3   OH239546   3.452   0.069   8.149  0.2620 -0.0648 -0.0726
 5996TIP3    H139547   3.374   0.077   8.095 -0.2214  1.7455  0.8262
 5996TIP3    H239548   3.511   0.137   8.118  1.0008 -0.6259  0.0596
 5997TIP3   OH239549   5.833   3.321   1.701  0.0591 -0.4985 -0.4734
 5997TIP3    H139550   5.829   3.406   1.745  0.0733 -0.8286  0.1875
 5997TIP3    H239551   5.824   3.257   1.772  0.0359 -1.0491 -0.9623
 5998TIP3   OH239552   6.705   4.034   0.829 -0.2075  0.0289  0.1526
 5998TIP3    H139553   6.741   3.947   0.843 -1.3934 -0.7737 -1.4220
 5998TIP3    H239554   6.738   4.086   0.902  1.4417 -1.4412  0.5084
 5999TIP3   OH239555   4.372   5.287   2.183  0.1237  0.1020  0.0919
 5999TIP3    H139556   4.365   5.317   2.093 -0.7447 -1.2888 -0.3436
 5999TIP3    H239557   4.362   5.192   2.177 -0.9215  0.0724  1.7351
 6000TIP3   OH239558   1.005   2.672   7.855 -0.2180  0.7700  0.1647
 6000TIP3    H139559   1.006   2.767   7.858  0.6581  0.7719  0.2760
 6000TIP3    H239560   0.984   2.645   7.945 -1.4680  0.8496 -0.0912
 6001TIP3   OH239561   2.791   4.910   8.058 -0.1182 -0.1901  0.1025
 6001TIP3    H139562   2.787   4.859   7.978  2.7606  0.7605 -0.7956
 6001TIP3    H239563   2.865   4.969   8.045 -1.7021  2.4652  2.0825
 6002TIP3   OH239564   5.688   0.435   0.746  0.5820 -0.7725 -0.5175
 6002TIP3    H139565   5.707   0.526   0.724 -0.5317 -0.5576 -0.6725
 6002TIP3    H239566   5.676   0.435   0.841 -0.6075 -0.5005 -0.6481
 6003TIP3   OH239567   6.113   2.073   2.619 -0.1221 -0.4767 -0.1351
 6003TIP3    H139568   6.113   2.025   2.702  1.7192 -1.1803 -0.4881
 6003TIP3    H239569   6.066   2.016   2.558 -1.5323  0.0683  0.3910
 6004TIP3   OH239570   5.901   0.437   1.015  0.3558  0.5248  0.1213
 6004TIP3    H139571   5.895   0.531   1.030  1.5267  0.4265  1.4159
 6004TIP3    H239572   5.943   0.403   1.094 -1.4344 -1.3176  0.3441
 6005TIP3   OH239573   6.031   4.789   0.982  0.4214  0.8415  0.2244
 6005TIP3    H139574   6.078   4.715   1.020  0.1760  0.3973 -0.3185
 6005TIP3    H239575   6.098   4.836   0.931  0.4300  0.6128  0.0247
 6006TIP3   OH239576   4.561   1.142   7.352  0.0855 -0.0377  0.1056
 6006TIP3    H139577   4.496   1.144   7.421  0.2681 -0.8555  0.3111
 6006TIP3    H239578   4.524   1.085   7.285 -1.2997  2.8083 -1.7422
 6007TIP3   OH239579   4.784   4.241   0.937 -0.2080 -0.2307 -0.2500
 6007TIP3    H139580   4.838   4.164   0.919 -1.3976 -1.3705  0.7341
 6007TIP3    H239581   4.792   4.253   1.032 -0.6805  0.3556 -0.2813
 6008TIP3   OH239582   1.829   1.015   6.297  0.0393  0.3776 -0.0722
 6008TIP3    H139583   1.905   1.071   6.286 -0.8227  1.6780  0.3734
 6008TIP3    H239584   1.864   0.926   6.297  1.6352  0.9699  0.9170
 6009TIP3   OH239585   5.070   3.918   8.498  0.1144  0.2602 -0.5044
 6009TIP3    H139586   5.165   3.921   8.490  0.1225  0.9319 -0.1831
 6009TIP3    H239587   5.051   3.827   8.519  0.8512  0.5201  1.5159
 6010TIP3   OH239588   0.434   1.121   8.326 -0.3347  0.0997 -0.3965
 6010TIP3    H139589   0.502   1.187   8.311 -2.5044  2.6815  0.2382
 6010TIP3    H239590   0.379   1.125   8.247 -0.5299 -0.9681 -0.3296
 6011TIP3   OH239591   0.248   5.864   1.795 -0.3173  0.9613 -0.4829
 6011TIP3    H139592   0.342   5.868   1.812 -0.3330  0.3545 -0.2281
 6011TIP3    H239593   0.211   5.935   1.847 -0.2302 -0.1175  1.1466
 6012TIP3   OH239594   1.301   0.891   7.151  0.0041 -0.0353 -0.2440
 6012TIP3    H139595   1.367   0.929   7.209  2.0983 -2.1785 -1.0981
 6012TIP3    H239596   1.264   0.819   7.202 -0.1139 -0.2033 -0.5655
 6013TIP3   OH239597   3.416   5.506   0.086  0.3192 -0.2406 -0.1000
 6013TIP3    H139598   3.421   5.581   0.146  0.3430 -0.0666 -0.3159
 6013TIP3    H239599   3.343   5.454   0.118  0.1775 -0.0225 -0.0628
 6014TIP3   OH239600   0.765   2.501   1.809 -0.1399  0.4044 -0.2122
 6014TIP3    H139601   0.853   2.540   1.805 -0.2209  1.2119  3.2667
 6014TIP3    H239602   0.778   2.411   1.778  1.3822  1.1896 -2.0631
 6015TIP3   OH239603   4.065   6.244   2.018  0.1332 -0.4320 -0.7845
 6015TIP3    H139604   4.160   6.256   2.008  0.2792  1.5759  1.9555
 6015TIP3    H239605   4.056   6.194   2.099 -1.1627 -1.0859 -1.3077
 6016TIP3   OH239606   5.439   6.783   0.345  0.5835 -0.3383 -0.5127
 6016TIP3    H139607   5.406   6.873   0.342  0.2465 -0.4733 -2.5628
 6016TIP3    H239608   5.407   6.749   0.428 -0.4325  1.0211 -0.3065
 6017TIP3   OH239609   6.685   1.565   7.446 -0.6606  0.1819 -0.2699
 6017TIP3    H139610   6.702   1.649   7.404  0.2984 -1.0911 -2.5705
 6017TIP3    H239611   6.590   1.562   7.456 -0.7390  1.3487 -0.5085
 6018TIP3   OH239612   5.034   4.360   0.569 -0.2148 -0.1458 -0.1123
 6018TIP3    H139613   4.985   4.375   0.650 -1.2756  1.7948 -1.0411
 6018TIP3    H239614   5.024   4.267   0.551 -2.7260 -0.0013  0.2690
 6019TIP3   OH239615   1.443   0.115   8.394 -0.0778 -0.1930  0.2503
 6019TIP3    H139616   1.445   0.153   8.481  0.8150 -0.1406  0.2157
 6019TIP3    H239617   1.529   0.075   8.383  0.3826  1.0688 -1.1546
 6020TIP3   OH239618   4.126   2.700   1.136  0.2651 -0.2725  0.2689
 6020TIP3    H139619   4.067   2.742   1.074  0.9011  0.3613  0.0778
 6020TIP3    H239620   4.154   2.620   1.093 -0.7982 -0.8059  0.5482
 6021TIP3   OH239621   0.866   4.675   1.676 -0.1142 -0.3445 -0.0548
 6021TIP3    H139622   0.819   4.703   1.597  0.7010 -1.2115 -0.8682
 6021TIP3    H239623   0.894   4.757   1.717 -2.3453  0.2074  0.5061
 6022TIP3   OH239624   1.337   2.234   0.605 -0.2632 -0.4410  0.6212
 6022TIP3    H139625   1.292   2.196   0.530  0.5474 -0.7439  0.2684
 6022TIP3    H239626   1.277   2.221   0.679 -0.1400 -2.1755  0.4565
 6023TIP3   OH239627   0.727   6.199   7.433  0.0936  0.0039 -0.1164
 6023TIP3    H139628   0.679   6.254   7.372 -0.2700 -1.3828 -1.1479
 6023TIP3    H239629   0.694   6.110   7.416  1.7529 -0.7487  0.3719
 6024TIP3   OH239630   2.315   1.507   8.096  0.1831  0.1241  0.0259
 6024TIP3    H139631   2.239   1.477   8.047  0.6909 -1.2303  0.0161
 6024TIP3    H239632   2.350   1.579   8.044  0.4421 -0.9741 -1.4005
 6025TIP3   OH239633   2.525   1.355   8.483  0.0930  0.2568  0.2747
 6025TIP3    H139634   2.590   1.366   8.414  0.0802 -1.8034 -0.1339
 6025TIP3    H239635   2.463   1.426   8.469  0.8305  0.6896 -0.9903
 6026TIP3   OH239636   6.249   1.445   2.652 -0.8355 -0.6690  0.6765
 6026TIP3    H139637   6.312   1.374   2.667 -1.3351 -1.0912  0.8093
 6026TIP3    H239638   6.292   1.502   2.589 -0.4968 -1.1851  0.4302
 6027TIP3   OH239639   0.111   1.920   7.750 -0.1462  0.1578  0.0590
 6027TIP3    H139640   0.107   1.915   7.655  3.2360  0.8210 -0.2447
 6027TIP3    H239641   0.080   2.009   7.770  0.8262  0.6800 -0.6465
 6028TIP3   OH239642   4.242   0.806   0.411 -0.9792  0.7748  0.0457
 6028TIP3    H139643   4.284   0.891   0.403 -2.0960  1.3119 -0.2122
 6028TIP3    H239644   4.312   0.748   0.444  0.9690  0.8170 -3.5219
 6029TIP3   OH239645   5.191   4.466   8.587 -0.2751  0.4989  0.1971
 6029TIP3    H139646   5.172   4.530   8.517 -0.9745 -0.7327 -0.7792
 6029TIP3    H239647   5.241   4.397   8.544 -2.9496 -1.6012  0.1835
 6030TIP3   OH239648   6.541   0.787   7.261 -0.1492  0.1115  0.1277
 6030TIP3    H139649   6.550   0.697   7.230  4.3652  1.2913 -3.0862
 6030TIP3    H239650   6.451   0.811   7.239  0.2404 -1.8524 -4.9958
 6031TIP3   OH239651   2.146   5.981   0.748  0.2725  0.0683 -0.3162
 6031TIP3    H139652   2.086   5.961   0.676  1.6864 -1.2829 -1.1654
 6031TIP3    H239653   2.233   5.982   0.709  0.9478  0.8563  1.0998
 6032TIP3   OH239654   4.094   3.170   7.509  0.5578 -0.0100 -0.0990
 6032TIP3    H139655   4.032   3.097   7.512  0.8764 -0.3163 -0.9096
 6032TIP3    H239656   4.051   3.239   7.559 -2.0651  1.0107 -3.4266
 6033TIP3   OH239657   1.480   0.648   7.861 -0.9874 -0.4876 -0.4027
 6033TIP3    H139658   1.562   0.664   7.908 -1.0436  0.7535 -0.6832
 6033TIP3    H239659   1.498   0.571   7.807  0.2121  0.1198 -0.9216
 6034TIP3   OH239660   1.335   3.402   0.887  0.2811 -0.1552 -0.1351
 6034TIP3    H139661   1.422   3.426   0.918  0.4537 -0.1726 -0.6099
 6034TIP3    H239662   1.294   3.360   0.963  0.7399 -0.2808  0.0463
 6035TIP3   OH239663   2.398   2.100   6.676  0.5657  0.0517 -0.1238
 6035TIP3    H139664   2.455   2.171   6.703  0.9238 -0.0317 -0.6489
 6035TIP3    H239665   2.374   2.121   6.586  0.3814 -0.3054 -0.1618
 6036TIP3   OH239666   1.336   0.137   1.978  0.4267  0.1423 -0.3148
 6036TIP3    H139667   1.292   0.058   2.009  1.1868 -0.2081 -0.1053
 6036TIP3    H239668   1.276   0.208   2.001 -0.0425 -0.3236 -0.0642
 6037TIP3   OH239669   2.733   2.970   1.710  0.0978  0.1010  0.5222
 6037TIP3    H139670   2.647   2.933   1.731 -0.1360  0.5490  0.3633
 6037TIP3    H239671   2.766   3.004   1.794 -0.0177  0.2171  0.5197
 6038TIP3   OH239672   1.384   2.540   1.321 -0.3116 -0.6120  0.3687
 6038TIP3    H139673   1.345   2.461   1.284  0.7683 -1.3813  0.8057
 6038TIP3    H239674   1.310   2.599   1.336 -0.9652 -0.8864 -1.4803
 6039TIP3   OH239675   6.754   6.339   1.912  0.1767 -0.5938  0.2558
 6039TIP3    H139676   6.738   6.389   1.992  0.9075 -1.7356  1.1400
 6039TIP3    H239677   6.717   6.253   1.930 -0.0135 -0.7425 -0.7974
 6040TIP3   OH239678   0.498   6.108   1.862  0.0076 -0.6253  0.2743
 6040TIP3    H139679   0.426   6.121   1.923 -0.0292  1.2728 -0.1121
 6040TIP3    H239680   0.577   6.112   1.917 -0.0512  0.5148  0.2978
 6041TIP3   OH239681   1.785   5.367   0.589  0.3296 -0.3016  0.2076
 6041TIP3    H139682   1.785   5.342   0.497  1.6946 -1.4220  0.4923
 6041TIP3    H239683   1.841   5.303   0.632 -0.2216  0.2447  1.8203
 6042TIP3   OH239684   2.147   6.875   6.250  0.3895 -0.2011  0.3153
 6042TIP3    H139685   2.220   6.814   6.239 -0.3898 -1.1696  0.4119
 6042TIP3    H239686   2.181   6.959   6.217  2.3437 -0.0267  2.5462
 6043TIP3   OH239687   0.507   2.094   1.560  0.1999 -0.2613  0.0026
 6043TIP3    H139688   0.416   2.120   1.548  0.3701 -0.0475 -0.8654
 6043TIP3    H239689   0.503   2.000   1.577 -0.2129 -0.1696  0.4299
 6044TIP3   OH239690   1.938   4.412   8.175 -0.2720  0.1540 -0.4351
 6044TIP3    H139691   1.953   4.373   8.089 -1.2256  0.6307 -0.8297
 6044TIP3    H239692   1.899   4.341   8.226  0.1551 -0.0851 -0.4340
 6045TIP3   OH239693   6.229   1.810   0.709  0.1247 -0.6586  0.2174
 6045TIP3    H139694   6.286   1.794   0.634 -0.2008 -1.9807  0.2385
 6045TIP3    H239695   6.181   1.728   0.722  0.1519 -0.4601  1.8509
 6046TIP3   OH239696   6.684   3.289   8.274  0.0346 -0.3611  0.0811
 6046TIP3    H139697   6.663   3.197   8.258  0.7174 -0.3514 -0.9325
 6046TIP3    H239698   6.694   3.327   8.187 -1.8587  1.0865  0.4319
 6047TIP3   OH239699   2.547   2.949   0.038  0.5948 -0.1793  0.0333
 6047TIP3    H139700   2.618   2.935  -0.025 -0.6993  0.3209 -1.5912
 6047TIP3    H239701   2.467   2.952  -0.015 -0.7534 -1.3882  1.8548
 6048TIP3   OH239702   3.269   5.199   6.979  0.1804 -0.4064  0.2458
 6048TIP3    H139703   3.333   5.172   6.913  1.0520  2.0923 -0.0748
 6048TIP3    H239704   3.215   5.264   6.934  0.7034  1.2609  1.8975
 6049TIP3   OH239705   0.791   4.088   7.891  0.3975  0.5340 -0.4289
 6049TIP3    H139706   0.704   4.085   7.932  0.5772 -0.9722 -0.0828
 6049TIP3    H239707   0.791   4.168   7.840 -0.8404  1.0704  0.3645
 6050TIP3   OH239708   4.598   0.925   2.294 -0.4177  0.4689 -0.2588
 6050TIP3    H139709   4.668   0.987   2.315 -1.2648  0.8307  1.6626
 6050TIP3    H239710   4.549   0.967   2.223 -0.0185  1.2526 -0.0780
 6051TIP3   OH239711   3.075   4.634   8.402  0.3969 -0.0889 -0.2307
 6051TIP3    H139712   2.997   4.689   8.394 -1.7380 -2.6319  1.5360
 6051TIP3    H239713   3.102   4.618   8.311 -1.0469  0.9423 -0.8927
 6052TIP3   OH239714   6.206   4.662   1.594  0.0865  0.8824  0.2928
 6052TIP3    H139715   6.280   4.649   1.535  0.4412  3.9367 -0.1000
 6052TIP3    H239716   6.131   4.624   1.549  0.9864 -0.2023 -0.3430
 6053TIP3   OH239717   4.119   3.872   1.351 -0.0581 -0.5408  0.7440
 6053TIP3    H139718   4.112   3.945   1.413  0.2027 -0.5669  0.8047
 6053TIP3    H239719   4.067   3.900   1.276  1.5359  0.5266 -0.0215
 6054TIP3   OH239720   5.211   6.260   8.395 -0.0181  0.2237 -0.3094
 6054TIP3    H139721   5.137   6.212   8.433  0.8104 -1.8783 -1.1418
 6054TIP3    H239722   5.286   6.203   8.412  0.6199 -0.1246 -3.6377
 6055TIP3   OH239723   3.508   3.999   8.203 -0.0579 -0.2386  0.1454
 6055TIP3    H139724   3.536   4.078   8.156  0.8069 -0.5314  0.1455
 6055TIP3    H239725   3.568   3.993   8.278 -0.6800 -0.4158  0.6386
 6056TIP3   OH239726   1.772   5.733   8.606  0.0412  0.2027 -0.0440
 6056TIP3    H139727   1.782   5.652   8.656 -0.0965 -0.9273 -1.7855
 6056TIP3    H239728   1.718   5.789   8.661  2.3237  0.2016  2.4111
 6057TIP3   OH239729   1.857   5.035   1.774 -0.1467  0.6531 -0.1880
 6057TIP3    H139730   1.768   5.011   1.800 -0.1682  1.1501  0.2098
 6057TIP3    H239731   1.911   4.960   1.800 -0.4744  0.2680 -0.6077
 6058TIP3   OH239732   1.526   2.047   8.571 -0.4950  0.6051  0.4590
 6058TIP3    H139733   1.572   2.051   8.487 -1.4844  0.1132 -0.1283
 6058TIP3    H239734   1.590   2.011   8.632 -0.5778 -1.7262 -0.7239
 6059TIP3   OH239735   4.705   1.778   0.664  0.0054  0.5539 -0.3722
 6059TIP3    H139736   4.732   1.687   0.666 -1.0751  0.1681 -1.8575
 6059TIP3    H239737   4.783   1.827   0.639  0.1193 -0.1893 -1.5171
 6060TIP3   OH239738   6.340   1.414   0.086  0.2087  0.2386  0.4457
 6060TIP3    H139739   6.334   1.333   0.136 -3.0210 -1.1400 -1.8320
 6060TIP3    H239740   6.314   1.482   0.147 -0.2362 -0.9114  1.5884
 6061TIP3   OH239741   2.442   1.426   0.844  0.5434  0.2132 -0.3332
 6061TIP3    H139742   2.520   1.377   0.872  1.2309 -0.3530 -3.0153
 6061TIP3    H239743   2.372   1.361   0.841  0.1168  0.5474  1.2100
 6062TIP3   OH239744   6.422   1.126   0.690  0.4348 -0.1280  0.0213
 6062TIP3    H139745   6.475   1.175   0.627  1.0351 -0.8043 -0.0162
 6062TIP3    H239746   6.484   1.070   0.736  0.0608  0.6354  1.5168
 6063TIP3   OH239747   5.399   6.833   8.616  0.4113 -0.6540 -0.2962
 6063TIP3    H139748   5.455   6.757   8.602  1.2111  0.1655 -1.7509
 6063TIP3    H239749   5.398   6.879   8.532 -1.4001  0.0708  0.0601
 6064TIP3   OH239750   2.956   1.651   0.970 -0.3426 -0.2379  0.0528
 6064TIP3    H139751   2.985   1.739   0.994 -2.8201  0.7940 -0.4192
 6064TIP3    H239752   2.939   1.607   1.053  0.5819 -0.1734  0.2849
 6065TIP3   OH239753   2.641   6.442   1.721 -0.7921 -0.0678 -0.2706
 6065TIP3    H139754   2.636   6.501   1.796  0.4050 -0.8746  0.4626
 6065TIP3    H239755   2.551   6.410   1.710 -0.6992 -1.3610  2.0151
 6066TIP3   OH239756   1.540   6.697   6.351 -0.4365  0.1881 -0.1797
 6066TIP3    H139757   1.501   6.711   6.437  0.5410  0.5750  0.2166
 6066TIP3    H239758   1.568   6.605   6.352  0.4955  0.4721  0.3082
 6067TIP3   OH239759   3.063   3.832   1.855 -0.0598  0.6643  0.5484
 6067TIP3    H139760   3.014   3.861   1.932 -1.9159 -0.7699 -0.0149
 6067TIP3    H239761   3.011   3.864   1.781 -1.1779 -2.2793 -0.0719
 6068TIP3   OH239762   6.484   0.709   8.082  0.2217  0.3711  0.9127
 6068TIP3    H139763   6.451   0.624   8.052 -0.4063  0.6552  0.7752
 6068TIP3    H239764   6.554   0.687   8.143  0.1534 -0.2471  0.7770
 6069TIP3   OH239765   4.844   0.022   7.628 -0.3338  0.3891  0.6973
 6069TIP3    H139766   4.789   0.060   7.696  0.0985 -0.4406  1.5255
 6069TIP3    H239767   4.902   0.094   7.601 -1.8058  1.2943 -0.2335
 6070TIP3   OH239768   1.429   5.733   2.232  0.2117  0.2225  0.2741
 6070TIP3    H139769   1.398   5.731   2.323 -3.4523  2.6906 -0.6598
 6070TIP3    H239770   1.450   5.825   2.216  2.9713 -0.5160 -0.8557
 6071TIP3   OH239771   2.435   0.007   6.801  0.3841 -0.3783 -0.4220
 6071TIP3    H139772   2.499   0.043   6.740  0.0292  0.6520 -0.2128
 6071TIP3    H239773   2.439   0.065   6.877 -1.7202  0.5109 -0.9265
 6072TIP3   OH239774   4.594   3.992   8.008 -0.2946  0.1747  0.1421
 6072TIP3    H139775   4.567   3.943   7.930 -0.9646 -0.0246  0.4894
 6072TIP3    H239776   4.558   4.079   7.995  2.6776  1.3271 -1.4945
 6073TIP3   OH239777   2.367   3.438   1.294  0.0123  0.1848 -0.1273
 6073TIP3    H139778   2.399   3.453   1.205 -0.7884 -1.8645 -0.8139
 6073TIP3    H239779   2.445   3.415   1.344  0.1706 -1.0857 -0.9132
 6074TIP3   OH239780   0.421   6.865   7.926  0.4545  0.1363 -0.8295
 6074TIP3    H139781   0.450   6.828   8.010  0.8353  0.8532 -0.6379
 6074TIP3    H239782   0.502   6.882   7.878  0.2643  0.3048 -1.0915
 6075TIP3   OH239783   1.222   2.489   8.371  0.4285  0.4544  0.1438
 6075TIP3    H139784   1.239   2.501   8.278  0.0295 -1.0905 -0.1532
 6075TIP3    H239785   1.279   2.417   8.397 -1.1938 -0.7615  0.5023
 6076TIP3   OH239786   6.250   3.821   7.802  0.1773  0.5188  0.6483
 6076TIP3    H139787   6.189   3.882   7.841  0.1619  1.1561 -0.3277
 6076TIP3    H239788   6.321   3.813   7.866 -0.6542  0.1810  1.5517
 6077TIP3   OH239789   3.697   1.423   0.945  0.3284  0.3551 -0.0570
 6077TIP3    H139790   3.606   1.395   0.941  0.2005  0.5622  1.0641
 6077TIP3    H239791   3.707   1.462   1.032  2.0603 -1.6941  0.7715
 6078TIP3   OH239792   0.226   5.085   1.571 -0.1503 -0.1686  0.2193
 6078TIP3    H139793   0.219   5.165   1.624  1.4070  0.0376  0.1452
 6078TIP3    H239794   0.143   5.081   1.523 -2.0247 -0.8033  3.2368
 6079TIP3   OH239795   1.825   1.794   7.254  0.2705 -0.0145 -0.2186
 6079TIP3    H139796   1.873   1.711   7.256  0.7946  0.2866  0.1261
 6079TIP3    H239797   1.811   1.816   7.346  0.0653  0.2350 -0.3073
 6080TIP3   OH239798   0.768   0.591   0.251  0.4167  0.4063  0.2956
 6080TIP3    H139799   0.765   0.581   0.347  0.9770  0.2304  0.2981
 6080TIP3    H239800   0.857   0.620   0.233  0.5444 -0.2811 -0.2353
 6081TIP3   OH239801   0.065   4.585   7.582  0.0686  0.0841  0.3741
 6081TIP3    H139802   0.115   4.632   7.515  1.6936 -1.1027  0.6983
 6081TIP3    H239803   0.028   4.654   7.637 -0.7777  1.0768 -1.3246
 6082TIP3   OH239804   3.014   1.992   6.709 -0.4394  0.5450 -0.4470
 6082TIP3    H139805   3.085   2.055   6.700  0.9966 -1.1823 -2.4013
 6082TIP3    H239806   2.946   2.024   6.649  0.8146 -0.3143 -2.4599
 6083TIP3   OH239807   5.782   2.042   7.959 -0.0089  0.1397 -0.1727
 6083TIP3    H139808   5.731   2.091   7.894  0.4200  0.9679  0.1085
 6083TIP3    H239809   5.801   1.959   7.916 -0.9089  0.1301 -0.5850
 6084TIP3   OH239810   2.236   6.327   8.060  0.6279  0.2373  0.1885
 6084TIP3    H139811   2.295   6.255   8.039  0.3569  0.2734 -0.7338
 6084TIP3    H239812   2.226   6.322   8.155 -1.2150 -2.4518 -0.0250
 6085TIP3   OH239813   5.058   0.895   1.417  0.7151  0.4659  0.2709
 6085TIP3    H139814   5.011   0.880   1.334  2.3896  1.8754 -1.0055
 6085TIP3    H239815   4.999   0.859   1.484 -0.6437 -0.8637 -1.5119
 6086TIP3   OH239816   3.619   6.078   7.396  0.0827  0.5541 -0.1996
 6086TIP3    H139817   3.711   6.074   7.422  0.1029  1.2746 -0.1239
 6086TIP3    H239818   3.613   6.020   7.320  0.7423  0.9757 -0.5860
 6087TIP3   OH239819   4.205   1.629   1.607 -0.0846  0.2790 -0.4385
 6087TIP3    H139820   4.111   1.649   1.599  0.2502  3.3914  1.7616
 6087TIP3    H239821   4.215   1.599   1.698  0.9695 -0.9217 -0.9234
 6088TIP3   OH239822   2.245   4.313   1.043 -0.0826  0.0522 -0.1871
 6088TIP3    H139823   2.318   4.263   1.080 -0.4291  0.3550  0.9580
 6088TIP3    H239824   2.204   4.254   0.980 -0.4708 -1.1372  1.1211
 6089TIP3   OH239825   3.007   0.488   0.434  0.3867  0.3152  0.6485
 6089TIP3    H139826   3.004   0.398   0.400  1.5026  0.4894  0.0634
 6089TIP3    H239827   2.918   0.504   0.465 -0.1470 -0.5787 -0.3357
 6090TIP3   OH239828   4.564   5.570   1.086 -0.7400 -0.4267 -0.0369
 6090TIP3    H139829   4.628   5.631   1.049 -0.0334 -0.6151  0.8302
 6090TIP3    H239830   4.555   5.502   1.019 -1.8717  0.8212 -1.2055
 6091TIP3   OH239831   6.866   3.516   7.540  0.1517 -0.6668  0.2271
 6091TIP3    H139832   6.874   3.554   7.452 -1.3300 -0.3264  0.2105
 6091TIP3    H239833   6.842   3.590   7.596 -2.9574 -1.4995  0.1607
 6092TIP3   OH239834   1.462   1.448   1.576 -0.6887  0.2647  0.0979
 6092TIP3    H139835   1.472   1.447   1.480  3.5505 -0.6428  0.3207
 6092TIP3    H239836   1.485   1.537   1.601 -0.9036  0.2655  0.2855
 6093TIP3   OH239837   6.638   5.336   7.300 -0.0869 -0.3800  0.2798
 6093TIP3    H139838   6.639   5.417   7.249 -0.7643 -0.5939 -0.0842
 6093TIP3    H239839   6.573   5.281   7.256  0.4697 -1.1742  0.4429
 6094TIP3   OH239840   1.080   4.816   8.262 -0.0378  0.1349 -0.0343
 6094TIP3    H139841   1.067   4.817   8.167 -2.5227  0.5805  0.2454
 6094TIP3    H239842   1.021   4.748   8.294 -1.5812  2.0071  1.3930
 6095TIP3   OH239843   1.106   2.011   7.437  0.4195 -0.1341  0.3136
 6095TIP3    H139844   1.075   2.067   7.508  1.5838  0.8996  0.0248
 6095TIP3    H239845   1.161   2.067   7.383  0.1452 -1.0882 -1.0221
 6096TIP3   OH239846   1.677   3.757   7.539  0.5086  0.6029 -0.5100
 6096TIP3    H139847   1.746   3.717   7.486 -0.3188 -1.6780  0.0125
 6096TIP3    H239848   1.718   3.773   7.623  0.4658 -0.7241 -0.2090
 6097TIP3   OH239849   1.586   0.272   2.145  0.3476  0.1324 -0.2042
 6097TIP3    H139850   1.519   0.211   2.113  1.1289 -0.7493 -0.2314
 6097TIP3    H239851   1.543   0.357   2.146 -0.9666 -0.5099  0.3873
 6098TIP3   OH239852   3.816   0.792   1.025 -0.5374  0.1226  0.5095
 6098TIP3    H139853   3.900   0.748   1.034 -0.3081  0.0936 -1.3757
 6098TIP3    H239854   3.767   0.768   1.104  0.9554 -0.4300  1.2916
 6099TIP3   OH239855   1.745   5.486   2.150  0.5024  0.4712  0.3507
 6099TIP3    H139856   1.653   5.493   2.122  0.1442  0.3492  1.4470
 6099TIP3    H239857   1.742   5.428   2.226  1.8101 -1.5168 -1.0152
 6100TIP3   OH239858   6.059   5.071   7.108  0.4539 -0.1314  0.6481
 6100TIP3    H139859   6.003   5.114   7.044 -1.8213 -1.8212  1.3724
 6100TIP3    H239860   6.148   5.086   7.076 -0.5634 -0.7977 -2.8557
 6101TIP3   OH239861   2.198   1.551   6.664  0.6193 -0.4289 -0.4046
 6101TIP3    H139862   2.207   1.587   6.576  0.0375  0.4969 -0.0978
 6101TIP3    H239863   2.276   1.579   6.711  0.2722  0.2791 -0.2314
 6102TIP3   OH239864   4.261   6.706   6.873 -0.3938  0.1768 -0.2910
 6102TIP3    H139865   4.172   6.672   6.876 -1.1771  2.1885  0.8267
 6102TIP3    H239866   4.316   6.628   6.878 -2.0692 -0.9985  1.2223
 6103TIP3   OH239867   4.728   4.095   7.754 -0.2136 -0.1346 -0.2991
 6103TIP3    H139868   4.694   4.157   7.689  0.4652  0.9547  0.3559
 6103TIP3    H239869   4.655   4.036   7.771 -0.0968 -1.1731 -2.8722
 6104TIP3   OH239870   0.262   3.345   0.103 -0.2179  0.1208  0.2051
 6104TIP3    H139871   0.277   3.439   0.103  0.3592  0.0337 -0.4869
 6104TIP3    H239872   0.297   3.314   0.020  1.4979 -1.0180  1.2797
 6105TIP3   OH239873   0.923   2.359   7.936 -0.3552  0.1197 -0.4905
 6105TIP3    H139874   0.922   2.300   8.011 -0.0795  1.2673  0.4444
 6105TIP3    H239875   0.853   2.327   7.879 -0.7739 -0.5871  0.4019
 6106TIP3   OH239876   0.623   0.366   6.804  0.6004 -0.1435  0.3592
 6106TIP3    H139877   0.642   0.420   6.726 -3.1791  0.9542 -0.0409
 6106TIP3    H239878   0.590   0.284   6.768 -0.8838  0.2576  0.7191
 6107TIP3   OH239879   2.684   5.910   1.961 -0.0752  0.3775  0.2942
 6107TIP3    H139880   2.626   5.948   2.027  0.9075 -1.8829  2.6366
 6107TIP3    H239881   2.772   5.936   1.988  0.3564 -0.6912 -0.0173
 6108TIP3   OH239882   0.472   4.979   0.627 -0.0761  0.3037 -0.3945
 6108TIP3    H139883   0.390   4.935   0.603 -0.0896  0.6192 -0.9184
 6108TIP3    H239884   0.458   5.007   0.718 -0.2150 -0.4229 -0.1822
 6109TIP3   OH239885   3.406   0.179   2.540  0.0289 -0.1497  0.3443
 6109TIP3    H139886   3.493   0.147   2.516  0.2001 -0.3267  1.1724
 6109TIP3    H239887   3.406   0.271   2.512  0.2572 -0.3228 -0.2231
 6110TIP3   OH239888   4.163   3.060   2.058 -1.0175  0.4035  0.1530
 6110TIP3    H139889   4.248   3.015   2.059 -0.9087  0.6162  0.7305
 6110TIP3    H239890   4.107   3.004   2.003 -1.1385 -0.9171  1.5316
 6111TIP3   OH239891   0.018   3.425   0.724  0.4463 -0.1010  0.3030
 6111TIP3    H139892   0.028   3.475   0.643  2.0516 -0.4470  0.2581
 6111TIP3    H239893   0.099   3.440   0.772  0.2488 -1.2964  1.0627
 6112TIP3   OH239894   5.715   0.201   0.614 -0.0662 -0.2677 -0.6859
 6112TIP3    H139895   5.665   0.197   0.532 -1.2200 -0.9984  0.0134
 6112TIP3    H239896   5.695   0.287   0.650  0.3412  0.0053 -1.1143
 6113TIP3   OH239897   5.661   0.201   0.329  0.6159 -0.0193 -0.1789
 6113TIP3    H139898   5.737   0.253   0.302 -0.1835  0.1702 -2.2284
 6113TIP3    H239899   5.631   0.158   0.249 -0.1653 -1.8226  1.0080
 6114TIP3   OH239900   1.454   3.595   6.980  0.3280  0.4956 -0.2640
 6114TIP3    H139901   1.398   3.662   7.018  2.4899  2.8190 -0.9357
 6114TIP3    H239902   1.426   3.589   6.888 -0.4185 -0.1878 -0.0053
 6115TIP3   OH239903   0.903   1.279   8.158  0.8012  0.0334  0.5231
 6115TIP3    H139904   0.969   1.298   8.092 -1.6816  2.8946 -1.4404
 6115TIP3    H239905   0.850   1.209   8.120 -0.1330  1.1083 -0.2067
 6116TIP3   OH239906   1.090   4.067   2.132 -0.2746  0.4500  0.4493
 6116TIP3    H139907   1.113   4.067   2.039 -0.8301  0.1122  0.3104
 6116TIP3    H239908   1.075   3.975   2.153  0.5050  0.4522  1.0406
 6117TIP3   OH239909   5.120   4.068   7.627  0.0739 -0.5698 -0.1448
 6117TIP3    H139910   5.147   4.140   7.685  1.2747 -1.1128 -0.0187
 6117TIP3    H239911   5.165   4.085   7.545 -0.0615 -0.8902 -0.2858
 6118TIP3   OH239912   3.483   6.348   0.852  0.1012  0.1672 -0.0687
 6118TIP3    H139913   3.430   6.419   0.816  1.2007  0.5001 -1.0839
 6118TIP3    H239914   3.419   6.280   0.873 -0.7992  0.7896 -0.6845
 6119TIP3   OH239915   3.773   2.474   0.615 -0.2977 -0.3404 -0.2673
 6119TIP3    H139916   3.817   2.523   0.685 -0.7434 -1.5875  0.9165
 6119TIP3    H239917   3.700   2.530   0.589 -0.7861 -0.3349  1.0437
 6120TIP3   OH239918   3.271   2.429   5.920 -0.0581  0.6241  0.1426
 6120TIP3    H139919   3.329   2.505   5.912  1.7280 -0.7809 -0.8823
 6120TIP3    H239920   3.310   2.376   5.990  0.8623 -1.0749 -1.5667
 6121TIP3   OH239921   3.286   3.703   6.433 -0.0224 -0.6101 -0.5337
 6121TIP3    H139922   3.341   3.648   6.378  0.5324  0.0362 -0.6337
 6121TIP3    H239923   3.256   3.773   6.375 -2.9465 -2.2267 -1.1611
 6122TIP3   OH239924   3.280   3.706   1.162  0.3431  0.2211 -0.2861
 6122TIP3    H139925   3.339   3.707   1.087 -2.4473 -0.1465 -2.6520
 6122TIP3    H239926   3.300   3.624   1.207  0.8569 -0.4540 -1.6917
 6123TIP3   OH239927   2.295   6.583   2.155 -0.3774  0.1082  0.0496
 6123TIP3    H139928   2.330   6.663   2.116 -1.7278 -0.1113 -1.7417
 6123TIP3    H239929   2.200   6.595   2.154 -0.5934 -1.3582  0.0757
 6124TIP3   OH239930   2.112   2.560   0.245 -0.2353 -0.1178  0.0640
 6124TIP3    H139931   2.121   2.486   0.305  0.9433 -0.3008 -0.3070
 6124TIP3    H239932   2.202   2.585   0.224 -0.6165  1.2501 -0.0377
 6125TIP3   OH239933   4.703   3.822   7.040  0.4088  0.3034  0.0481
 6125TIP3    H139934   4.757   3.802   7.116 -1.9657 -1.2142  1.4662
 6125TIP3    H239935   4.760   3.807   6.965  1.6414 -2.4378  1.4006
 6126TIP3   OH239936   2.289   0.497   6.986 -0.1020 -0.0339  0.1878
 6126TIP3    H139937   2.324   0.566   6.931 -0.2453  0.1914  0.3758
 6126TIP3    H239938   2.345   0.498   7.064 -1.9206  1.9167  1.5593
 6127TIP3   OH239939   0.244   5.171   0.255  0.3479  0.4689  1.0838
 6127TIP3    H139940   0.278   5.251   0.294  1.3651  0.8699 -0.5521
 6127TIP3    H239941   0.321   5.124   0.223 -0.4226  0.2232 -0.5275
 6128TIP3   OH239942   1.308   0.807   2.248 -0.0314  0.3817 -0.4294
 6128TIP3    H139943   1.353   0.767   2.174 -0.1324 -0.9067  0.1811
 6128TIP3    H239944   1.311   0.741   2.317 -0.8297  1.1660  0.3949
 6129TIP3   OH239945   2.976   4.512   1.810 -0.4902  0.0701  0.0011
 6129TIP3    H139946   2.922   4.542   1.737 -1.2634 -1.6464 -0.1752
 6129TIP3    H239947   2.914   4.495   1.881  0.1494  0.7965  0.7593
 6130TIP3   OH239948   6.310   6.025   7.048  0.8538  0.2179  0.3067
 6130TIP3    H139949   6.314   6.110   7.092 -2.6356 -0.1667  1.6296
 6130TIP3    H239950   6.240   6.034   6.984  0.0864 -1.7613  0.7982
 6131TIP3   OH239951   0.443   2.665   2.161  0.3425  0.6075 -0.1909
 6131TIP3    H139952   0.400   2.720   2.096  0.4761  0.7062 -0.1964
 6131TIP3    H239953   0.385   2.670   2.238  0.9898  1.8087  0.2624
 6132TIP3   OH239954   0.231   1.163   7.282 -0.2449 -0.1852  0.2424
 6132TIP3    H139955   0.257   1.191   7.194 -1.3131 -0.2132 -0.0921
 6132TIP3    H239956   0.196   1.242   7.323 -0.3563 -0.3258  0.4197
 6133TIP3   OH239957   3.489   2.773   2.101  0.1529  0.0290 -0.4133
 6133TIP3    H139958   3.399   2.753   2.127  0.6605  0.9949  2.4557
 6133TIP3    H239959   3.537   2.691   2.113 -0.1965 -0.3251 -1.3567
 6134TIP3   OH239960   0.404   1.436   7.320  0.0985 -0.2660 -0.1213
 6134TIP3    H139961   0.439   1.485   7.246  0.5840  0.7424  0.7511
 6134TIP3    H239962   0.469   1.367   7.335  0.2072 -0.2211 -0.3679
 6135TIP3   OH239963   4.242   5.407   0.786 -0.0140 -0.0688  0.2799
 6135TIP3    H139964   4.200   5.408   0.872  3.0731 -1.0914  1.9446
 6135TIP3    H239965   4.260   5.500   0.768  2.5101  0.0074  2.5707
 6136TIP3   OH239966   3.490   1.287   6.600  0.2330  0.2672  0.1263
 6136TIP3    H139967   3.476   1.342   6.523  1.9139 -0.2769 -0.6083
 6136TIP3    H239968   3.402   1.263   6.629 -0.4376  0.6424 -1.4996
 6137TIP3   OH239969   3.471   0.200   1.749 -0.4451  0.2900 -0.1586
 6137TIP3    H139970   3.523   0.169   1.823  0.1060  0.9974 -0.2362
 6137TIP3    H239971   3.476   0.295   1.754  0.7042  0.3805 -1.8392
 6138TIP3   OH239972   3.429   5.544   6.951 -0.2446 -0.3112 -0.3464
 6138TIP3    H139973   3.366   5.559   6.880  1.2666  0.4703 -1.5804
 6138TIP3    H239974   3.429   5.627   7.000 -1.4028 -0.9034  0.7146
 6139TIP3   OH239975   4.551   3.151   7.697 -0.7651 -0.1467 -0.0045
 6139TIP3    H139976   4.581   3.233   7.737 -2.3751  0.7791 -0.6010
 6139TIP3    H239977   4.457   3.165   7.682 -0.5591 -1.0720 -2.5847
 6140TIP3   OH239978   2.312   5.195   0.734 -0.1108  0.1544  0.2404
 6140TIP3    H139979   2.310   5.100   0.723  3.1406 -0.4764  3.3050
 6140TIP3    H239980   2.371   5.226   0.665 -0.1485 -0.2275  0.0348
 6141TIP3   OH239981   5.094   2.769   1.589  0.3510 -0.7229 -0.1091
 6141TIP3    H139982   5.122   2.682   1.614 -1.2765 -0.6652  2.2824
 6141TIP3    H239983   5.081   2.815   1.672 -2.3138  0.6029 -1.1153
 6142TIP3   OH239984   6.486   6.579   7.260 -0.0321 -0.1234  0.2756
 6142TIP3    H139985   6.487   6.485   7.241  0.3821 -0.5297  2.0923
 6142TIP3    H239986   6.419   6.588   7.329 -1.3346  1.2035 -1.0871
 6143TIP3   OH239987   5.048   0.059   7.923  0.3880 -0.0818  0.0330
 6143TIP3    H139988   4.982   0.123   7.896  0.7570  0.4253  0.3237
 6143TIP3    H239989   5.132   0.098   7.898  0.6292 -0.3671  0.3814
 6144TIP3   OH239990   1.952   6.003   0.134  0.5350 -0.5297 -0.4810
 6144TIP3    H139991   1.889   5.981   0.065  1.2957 -0.4505 -1.2227
 6144TIP3    H239992   1.982   6.091   0.111 -1.1682  0.6626  1.4547
 6145TIP3   OH239993   1.674   0.110   1.099  0.4089 -0.3529 -0.3504
 6145TIP3    H139994   1.678   0.016   1.113 -0.0733 -0.4059 -0.5494
 6145TIP3    H239995   1.599   0.123   1.042  1.7138 -0.0468 -2.0759
 6146TIP3   OH239996   4.543   0.957   6.950  0.5200  0.4059  0.4431
 6146TIP3    H139997   4.510   0.873   6.918 -1.1534  0.4280  2.0011
 6146TIP3    H239998   4.636   0.957   6.925 -0.2010 -0.3640 -2.6825
 6147TIP3   OH239999   5.963   2.563   1.116 -0.0315 -0.4939  0.0855
 6147TIP3    H140000   5.964   2.478   1.161  0.9103 -0.5463 -0.0248
 6147TIP3    H240001   5.895   2.554   1.050  0.3807 -1.3383 -0.2407
 6148TIP3   OH240002   5.692   5.356   6.811  0.0968 -0.6359  0.0942
 6148TIP3    H140003   5.660   5.445   6.826  0.4206 -0.9098  2.7925
 6148TIP3    H240004   5.633   5.321   6.744 -0.0614  1.5420 -1.0274
 6149TIP3   OH240005   2.439   4.873   1.170  0.1097 -0.4231  0.1379
 6149TIP3    H140006   2.486   4.879   1.253  0.8193 -0.6165 -0.2435
 6149TIP3    H240007   2.493   4.816   1.116 -0.7604 -0.9571 -0.1859
 6150TIP3   OH240008   5.701   4.982   1.498 -0.2527  0.1961  0.0421
 6150TIP3    H140009   5.790   5.006   1.524  0.0009  0.5515 -1.0951
 6150TIP3    H240010   5.647   5.003   1.574  0.7723 -1.0689  1.1702
 6151TIP3   OH240011   3.985   2.481   8.041  0.4688 -0.2254 -0.2985
 6151TIP3    H140012   4.011   2.461   8.131  0.6458  1.6191  0.1004
 6151TIP3    H240013   4.049   2.546   8.012  0.2524 -0.5976 -1.6734
 6152TIP3   OH240014   5.921   2.411   2.463  0.8088  0.7384  0.3356
 6152TIP3    H140015   5.879   2.388   2.546  1.6325  0.9550  0.8324
 6152TIP3    H240016   6.015   2.402   2.481  0.9893  0.2949 -0.7280
 6153TIP3   OH240017   2.472   5.290   6.691 -0.1489  0.0451 -0.2315
 6153TIP3    H140018   2.400   5.238   6.655  0.4246 -0.7960 -0.1825
 6153TIP3    H240019   2.545   5.229   6.696  0.6599  0.9615 -0.5651
 6154TIP3   OH240020   5.341   0.013   7.544  0.5153 -0.2264  0.1970
 6154TIP3    H140021   5.431  -0.013   7.562  1.1863  2.3064  0.7837
 6154TIP3    H240022   5.314   0.064   7.620 -0.3523  1.5862 -1.2504
 6155TIP3   OH240023   0.155   5.834   8.132 -0.4881 -0.1400  0.1728
 6155TIP3    H140024   0.245   5.851   8.103 -0.5219  0.8451  0.5826
 6155TIP3    H240025   0.157   5.745   8.166  0.1129 -0.4525 -0.6568
 6156TIP3   OH240026   3.091   1.541   0.137  0.1691  0.0044  0.2226
 6156TIP3    H140027   3.138   1.601   0.080  0.4985 -1.6599 -1.3239
 6156TIP3    H240028   3.029   1.495   0.080 -1.3332  0.0943  1.6872
 6157TIP3   OH240029   0.064   2.941   8.305  0.6765  0.3684 -0.2488
 6157TIP3    H140030   0.082   2.884   8.230 -0.5121  0.9268 -0.9874
 6157TIP3    H240031  -0.031   2.949   8.307  0.7380  1.0424  0.8166
 6158TIP3   OH240032   5.046   5.774   8.605 -0.0617 -0.4067 -0.3173
 6158TIP3    H140033   4.960   5.817   8.607  0.0828 -0.1328  1.0663
 6158TIP3    H240034   5.052   5.730   8.689  0.4713 -1.8517 -1.0818
 6159TIP3   OH240035   1.582   3.339   8.381 -0.2395  0.3502  0.4102
 6159TIP3    H140036   1.655   3.381   8.336 -1.6196  1.1526 -1.2178
 6159TIP3    H240037   1.510   3.342   8.318 -2.1671  1.0931  2.4923
 6160TIP3   OH240038   3.247   3.653   1.468  0.6461 -0.6169 -0.2920
 6160TIP3    H140039   3.248   3.624   1.559 -0.7494  0.2813  0.0327
 6160TIP3    H240040   3.161   3.691   1.455  0.8198 -0.7065 -2.0013
 6161TIP3   OH240041   3.983   3.310   1.088  0.3192  0.7433 -0.2830
 6161TIP3    H140042   3.904   3.265   1.117  0.7268  0.4169  0.3434
 6161TIP3    H240043   4.047   3.240   1.075  0.3642  0.9538 -1.2834
 6162TIP3   OH240044   2.032   6.332   0.733  0.4092 -0.4659 -0.6347
 6162TIP3    H140045   2.073   6.291   0.809  1.2781 -0.4543 -1.0850
 6162TIP3    H240046   2.072   6.419   0.729 -0.9414  0.2093 -0.0692
 6163TIP3   OH240047   6.501   4.287   7.856 -0.5298 -0.0977 -0.0613
 6163TIP3    H140048   6.509   4.381   7.842  0.1174  0.1152  1.5772
 6163TIP3    H240049   6.450   4.256   7.781 -1.0609  1.6060 -0.4438
 6164TIP3   OH240050   6.324   6.662   0.637  0.4958  0.1211  0.4207
 6164TIP3    H140051   6.271   6.704   0.569 -1.3640 -0.8526  1.2029
 6164TIP3    H240052   6.365   6.735   0.683 -0.0830  0.9052 -0.2764
 6165TIP3   OH240053   4.092   3.960   6.753  0.1893  0.3317  0.4381
 6165TIP3    H140054   4.183   3.987   6.762  0.0549  1.1697 -0.5691
 6165TIP3    H240055   4.086   3.878   6.801  1.4806  0.2666  0.4995
 6166TIP3   OH240056   3.993   5.522   8.351 -0.8333  0.3989 -0.0622
 6166TIP3    H140057   3.981   5.587   8.421  0.3084  1.9918 -1.2569
 6166TIP3    H240058   4.027   5.573   8.277 -0.5627 -1.4719 -1.2974
 6167TIP3   OH240059   5.973   6.730   2.057 -0.0960 -0.4281  0.4212
 6167TIP3    H140060   5.982   6.821   2.085  1.5632  0.3367 -2.2489
 6167TIP3    H240061   5.951   6.683   2.137 -2.0664  2.4129  1.7314
 6168TIP3   OH240062   0.061   3.669   1.939  0.2543  0.2188  0.0070
 6168TIP3    H140063   0.010   3.605   1.987  0.6673 -0.2242 -0.1416
 6168TIP3    H240064   0.069   3.633   1.851 -0.4898  1.0222 -0.4043
 6169TIP3   OH240065   2.327   3.597   7.784 -0.4663 -0.3102  0.0537
 6169TIP3    H140066   2.254   3.542   7.813 -1.3005 -0.3429 -1.9407
 6169TIP3    H240067   2.364   3.550   7.709  0.0858  0.8486 -0.4226
 6170TIP3   OH240068   1.465   5.196   8.402  0.2131 -0.7230  0.1484
 6170TIP3    H140069   1.535   5.232   8.347  0.8101 -0.4162  1.0824
 6170TIP3    H240070   1.448   5.109   8.366  0.8013 -0.6425 -0.3352
 6171TIP3   OH240071   1.134   5.453   0.747 -0.3276 -0.3550  0.1363
 6171TIP3    H140072   1.120   5.539   0.788 -0.9450 -1.0563  1.4538
 6171TIP3    H240073   1.225   5.454   0.719 -0.5762  1.0856 -0.7565
 6172TIP3   OH240074   4.052   6.613   0.045  0.4678 -0.4251  0.8591
 6172TIP3    H140075   3.971   6.561   0.046 -0.1428  0.3018 -2.1267
 6172TIP3    H240076   4.033   6.686   0.104 -0.8239 -0.5824  0.6796
 6173TIP3   OH240077   0.122   6.126   0.103 -0.0803 -0.5221  0.4317
 6173TIP3    H140078   0.081   6.196   0.153 -1.3136  1.1247 -2.6289
 6173TIP3    H240079   0.214   6.153   0.096 -0.1359 -0.2121  0.8471
 6174TIP3   OH240080   0.833   6.570   6.948  0.3473  0.4037 -0.3160
 6174TIP3    H140081   0.739   6.587   6.953  0.3033  0.2161 -0.5010
 6174TIP3    H240082   0.842   6.505   6.878  0.7513  1.4836 -1.3209
 6175TIP3   OH240083   2.280   5.688   0.833  0.0508  0.2085  0.1624
 6175TIP3    H140084   2.362   5.696   0.786  0.2552 -0.5773  0.3687
 6175TIP3    H240085   2.273   5.769   0.884  0.5823  0.3742 -0.0297
 6176TIP3   OH240086   3.092   6.271   8.321  0.3205  0.1692 -0.8120
 6176TIP3    H140087   3.114   6.259   8.228  0.5295 -1.3472 -0.5920
 6176TIP3    H240088   3.001   6.299   8.320  0.5220  0.8489 -1.4936
 6177TIP3   OH240089   0.153   3.575   8.144  0.2276  0.9228 -0.2608
 6177TIP3    H140090   0.138   3.506   8.209  1.1262  0.4219 -0.5727
 6177TIP3    H240091   0.084   3.562   8.079 -0.0333  0.7636  0.0431
 6178TIP3   OH240092   1.225   3.936   7.388  0.1250  0.4869  0.8616
 6178TIP3    H140093   1.316   3.931   7.420 -0.5050  0.0768  2.7022
 6178TIP3    H240094   1.196   3.844   7.385  0.4958  0.3699 -2.1200
 6179TIP3   OH240095   4.397   1.914   2.491 -0.0522  0.1331  0.1832
 6179TIP3    H140096   4.352   1.898   2.408 -0.8804  0.9066  0.4697
 6179TIP3    H240097   4.409   1.827   2.529  1.1780 -0.3340 -1.1548
 6180TIP3   OH240098   4.657   6.589   1.639 -0.9875 -0.0006 -0.4284
 6180TIP3    H140099   4.748   6.558   1.641 -1.4829 -1.4805  0.6356
 6180TIP3    H240100   4.619   6.548   1.562 -1.4370 -1.4911  0.5616
 6181TIP3   OH240101   4.273   0.864   8.342 -0.0877  0.8425  0.3309
 6181TIP3    H140102   4.280   0.769   8.334  0.5419  1.0263 -2.9206
 6181TIP3    H240103   4.192   0.885   8.296 -0.1516  1.9104  0.9059
 6182TIP3   OH240104   3.922   4.616   8.519  0.5785 -0.3603 -0.7556
 6182TIP3    H140105   4.000   4.662   8.549 -0.1249  0.7460 -0.5965
 6182TIP3    H240106   3.896   4.562   8.594  0.5887  0.0673 -0.4442
 6183TIP3   OH240107   1.482   4.604   1.021 -0.1551 -1.0299 -0.5719
 6183TIP3    H140108   1.526   4.689   1.017 -0.6022 -0.7593  0.0589
 6183TIP3    H240109   1.550   4.543   1.048 -0.0249 -0.7111 -0.1592
 6184TIP3   OH240110   5.887   2.884   6.541  0.1905 -0.3472  0.3065
 6184TIP3    H140111   5.830   2.914   6.470  1.4722 -1.8205 -1.4653
 6184TIP3    H240112   5.833   2.888   6.619 -1.0283  2.1640 -0.5766
 6185TIP3   OH240113   6.545   1.999   7.806 -0.0090  0.0074 -0.4579
 6185TIP3    H140114   6.571   1.923   7.856  0.6979  1.3756  1.3504
 6185TIP3    H240115   6.529   1.966   7.717 -1.0221 -2.4366  0.5695
 6186TIP3   OH240116   3.097   4.032   2.239 -0.3758 -0.3313  0.3205
 6186TIP3    H140117   3.134   4.073   2.161  0.5237  0.4739  1.1479
 6186TIP3    H240118   3.019   3.986   2.207 -0.2557  0.3215 -0.9785
 6187TIP3   OH240119   2.215   0.645   8.455 -0.1863  0.0952  0.2016
 6187TIP3    H140120   2.290   0.595   8.423 -0.8139  0.3779 -1.8496
 6187TIP3    H240121   2.244   0.681   8.539  1.2396 -1.4345  0.4154
 6188TIP3   OH240122   2.260   4.747   0.977  0.1421 -0.0753 -0.8309
 6188TIP3    H140123   2.284   4.680   0.913  0.5492 -1.9497  1.1479
 6188TIP3    H240124   2.343   4.788   1.002  0.0323  0.3855 -1.2150
 6189TIP3   OH240125   3.391   4.922   8.324  0.3194  1.2355 -0.3219
 6189TIP3    H140126   3.454   4.853   8.305  0.7966  1.3398  0.8022
 6189TIP3    H240127   3.444   4.999   8.344  0.0739  0.5834  3.6377
 6190TIP3   OH240128   4.506   2.035   0.947 -0.8006  0.4942 -0.4038
 6190TIP3    H140129   4.478   2.029   0.856  2.6137  1.7474 -1.7109
 6190TIP3    H240130   4.577   1.972   0.954 -0.4130  1.0640  1.1440
 6191TIP3   OH240131   4.370   5.575   8.096 -0.3108 -0.3734 -0.5520
 6191TIP3    H140132   4.466   5.582   8.096 -0.3433  0.9266  2.0229
 6191TIP3    H240133   4.353   5.483   8.119  0.3524 -0.0903  1.1868
 6192TIP3   OH240134   0.621   3.497   1.552 -0.0854  0.1413  0.3433
 6192TIP3    H140135   0.640   3.498   1.458 -1.0206 -0.6097  0.1283
 6192TIP3    H240136   0.692   3.446   1.590 -0.5004 -0.8680 -0.1771
 6193TIP3   OH240137   2.301   4.082   0.055 -0.1015  0.0233 -0.4272
 6193TIP3    H140138   2.320   4.173   0.033 -0.3776 -0.5597 -3.4925
 6193TIP3    H240139   2.207   4.073   0.041 -0.3481 -0.4303  1.2820
 6194TIP3   OH240140   3.073   5.099   8.504 -0.1463 -0.4436  0.0113
 6194TIP3    H140141   3.093   5.024   8.560 -0.9573 -0.6644  0.0128
 6194TIP3    H240142   3.091   5.068   8.415 -0.0656 -0.4955  0.0452
 6195TIP3   OH240143   6.024   5.599   1.544 -0.6098 -0.7692 -0.2520
 6195TIP3    H140144   6.047   5.533   1.609 -2.0565 -0.3850  0.6979
 6195TIP3    H240145   6.106   5.617   1.498  0.1404 -2.0729  0.5208
 6196TIP3   OH240146   2.116   6.594   0.818  0.3636 -0.5057 -0.0616
 6196TIP3    H140147   2.059   6.615   0.892  1.0344 -1.7387  0.8560
 6196TIP3    H240148   2.171   6.672   0.807  1.2367 -0.8085  1.7145
 6197TIP3   OH240149   2.437   2.338   0.626  0.5519 -0.8665 -0.0986
 6197TIP3    H140150   2.432   2.361   0.719 -0.0593 -2.1406  0.2144
 6197TIP3    H240151   2.496   2.402   0.588  0.8483 -0.3503  1.1883
 6198TIP3   OH240152   2.846   1.402   6.471  0.3868 -0.0447 -0.0328
 6198TIP3    H140153   2.838   1.347   6.393  3.4924 -1.5863  0.5866
 6198TIP3    H240154   2.817   1.345   6.543 -1.9179  1.1793  0.1093
 6199TIP3   OH240155   2.233   6.322   6.983  0.4760  0.9927 -0.0195
 6199TIP3    H140156   2.217   6.373   7.063  1.4149  1.4332 -0.0951
 6199TIP3    H240157   2.147   6.315   6.941 -0.1935  0.0951  1.3969
 6200TIP3   OH240158   5.906   3.868   2.349  0.2941 -0.1024  0.6408
 6200TIP3    H140159   5.835   3.932   2.354  0.9592  0.5550  2.5728
 6200TIP3    H240160   5.872   3.792   2.397  0.9301  0.2827  1.7299
 6201TIP3   OH240161   5.408   5.702   8.196 -0.5185  0.0827  0.0993
 6201TIP3    H140162   5.346   5.658   8.137 -0.0068  0.0185 -0.4013
 6201TIP3    H240163   5.377   5.679   8.284 -0.6067 -0.7995 -0.1496
 6202TIP3   OH240164   2.452   4.160   1.203  0.6468  0.5804  0.1342
 6202TIP3    H140165   2.519   4.109   1.158 -0.0079 -1.7985  1.6689
 6202TIP3    H240166   2.384   4.096   1.224 -1.6630  2.6924 -0.4518
 6203TIP3   OH240167   5.214   3.699   7.864 -0.1665  0.1809 -0.3446
 6203TIP3    H140168   5.169   3.783   7.855  1.6217  1.1875 -0.3034
 6203TIP3    H240169   5.186   3.667   7.950 -0.5989  0.8891 -0.2105
 6204TIP3   OH240170   3.960   6.074   0.472 -0.4994 -0.3289 -0.4891
 6204TIP3    H140171   4.047   6.061   0.433 -0.3442  0.1765 -0.3213
 6204TIP3    H240172   3.902   6.021   0.418 -0.3295  0.5274 -1.5557
 6205TIP3   OH240173   2.353   2.637   7.986 -0.0332  0.2143 -0.2885
 6205TIP3    H140174   2.289   2.688   8.035 -0.4595 -0.8751  0.3088
 6205TIP3    H240175   2.430   2.693   7.982  0.1586  0.1812  1.9821
 6206TIP3   OH240176   0.756   1.569   0.473 -0.1688  0.5387 -0.4976
 6206TIP3    H140177   0.670   1.527   0.472 -0.2966  0.6940  0.9874
 6206TIP3    H240178   0.750   1.632   0.545  1.8871 -1.0296  1.1909
 6207TIP3   OH240179   6.254   1.075   8.029 -0.0033 -0.1036 -0.3710
 6207TIP3    H140180   6.267   1.158   7.983  0.4257 -0.7312 -1.4294
 6207TIP3    H240181   6.225   1.100   8.117  2.0546  1.2070 -0.0005
 6208TIP3   OH240182   3.742   1.857   8.645  0.3539 -0.5797 -0.0824
 6208TIP3    H140183   3.675   1.850   8.713 -1.0359  0.8410 -1.2142
 6208TIP3    H240184   3.694   1.884   8.567  1.7601 -3.0300 -1.9208
 6209TIP3   OH240185   1.358   5.407   0.609  0.4762 -0.0098 -0.0230
 6209TIP3    H140186   1.430   5.428   0.668  0.3065  1.2611 -0.2448
 6209TIP3    H240187   1.377   5.318   0.579  0.2882 -0.9462  2.3483
 6210TIP3   OH240188   1.913   1.001   1.170 -0.0893 -0.0209 -0.0095
 6210TIP3    H140189   1.918   1.014   1.265  0.4807  0.0116 -0.0411
 6210TIP3    H240190   1.832   0.951   1.156 -1.7402  2.4057  0.2433
 6211TIP3   OH240191   5.440   3.808   6.659 -0.0682  0.2893 -0.2237
 6211TIP3    H140192   5.409   3.718   6.650 -1.6201  0.8389 -0.5869
 6211TIP3    H240193   5.519   3.800   6.713 -0.3299 -1.2531 -0.0084
 6212TIP3   OH240194   1.747   1.854   1.776 -0.7899 -0.1578  0.0657
 6212TIP3    H140195   1.705   1.921   1.829 -1.6214 -0.1095 -0.6376
 6212TIP3    H240196   1.808   1.811   1.836 -1.5592  0.0296  1.0091
 6213TIP3   OH240197   0.865   2.819   0.802  0.1953  0.4687 -0.9663
 6213TIP3    H140198   0.812   2.751   0.760 -1.3016  1.7214 -1.1612
 6213TIP3    H240199   0.901   2.870   0.730 -0.2118  1.0155 -0.7878
 6214TIP3   OH240200   2.493   5.674   1.390  0.0516 -0.1433 -0.3750
 6214TIP3    H140201   2.553   5.600   1.392  0.6925  0.3425  2.1171
 6214TIP3    H240202   2.534   5.737   1.331  0.3876 -1.0362 -1.1236
 6215TIP3   OH240203   0.226   1.122   6.713 -0.4400 -0.3025 -0.1939
 6215TIP3    H140204   0.179   1.197   6.750  1.4443  2.1754 -2.4143
 6215TIP3    H240205   0.315   1.132   6.746 -0.3823 -2.3555  0.4246
 6216TIP3   OH240206   5.820   5.636   1.314  0.0019 -0.3010  0.6839
 6216TIP3    H140207   5.834   5.609   1.405  2.5273  0.3391  0.5551
 6216TIP3    H240208   5.870   5.572   1.263 -0.7574 -0.1972 -0.2072
 6217TIP3   OH240209   4.712   5.772   0.998  0.6224 -0.5512  0.3638
 6217TIP3    H140210   4.634   5.807   0.955  0.0445 -2.1239  0.0658
 6217TIP3    H240211   4.785   5.800   0.942  0.1688 -0.0250  0.0267
 6218TIP3   OH240212   2.164   4.131   0.603  0.3091 -0.1941 -0.0625
 6218TIP3    H140213   2.077   4.112   0.639  0.7418  1.0991  1.7850
 6218TIP3    H240214   2.152   4.124   0.508 -1.6981 -0.4857  0.1662
 6219TIP3   OH240215   0.842   6.131   0.489  0.2682 -0.0422  0.1769
 6219TIP3    H140216   0.865   6.041   0.465 -1.7110 -0.5434 -0.0440
 6219TIP3    H240217   0.792   6.122   0.570  1.9399  1.1092  1.4000
 6220TIP3   OH240218   5.640   6.380   0.471  0.7030 -0.7598  0.9652
 6220TIP3    H140219   5.682   6.405   0.553 -0.9084 -0.0553  1.6187
 6220TIP3    H240220   5.650   6.458   0.415  0.6140 -0.7396  0.9779
 6221TIP3   OH240221   2.887   1.116   7.074 -0.2685 -0.6304 -0.0943
 6221TIP3    H140222   2.826   1.095   7.145  2.5053 -1.4940  2.2183
 6221TIP3    H240223   2.900   1.032   7.029  1.6675 -1.3295  1.5894
 6222TIP3   OH240224   2.352   5.382   8.480  0.3477 -0.2713  0.3235
 6222TIP3    H140225   2.273   5.329   8.490  0.4866 -0.2723  1.6331
 6222TIP3    H240226   2.422   5.318   8.468  0.5829 -0.4642  2.3616
 6223TIP3   OH240227   6.870   6.733   1.563 -0.0003 -0.3251 -0.8679
 6223TIP3    H140228   6.860   6.692   1.477  0.3616  0.1001 -1.1234
 6223TIP3    H240229   6.862   6.827   1.545 -3.0011 -0.3261  0.0051
 6224TIP3   OH240230   3.389   6.399   7.058  0.0537 -0.6975 -0.5065
 6224TIP3    H140231   3.474   6.380   7.097 -0.2309 -1.6755 -0.3557
 6224TIP3    H240232   3.330   6.408   7.132  0.3380  1.8380 -0.4786
 6225TIP3   OH240233   2.883   1.323   7.279  0.1617  0.4451 -0.4015
 6225TIP3    H140234   2.846   1.235   7.291 -0.7281  0.8754  0.1304
 6225TIP3    H240235   2.819   1.369   7.225 -1.4102  1.9437  2.4676
 6226TIP3   OH240236   4.979   6.431   0.746  0.1072  0.0700  0.4467
 6226TIP3    H140237   5.019   6.348   0.720  1.3358  0.8470 -0.2427
 6226TIP3    H240238   4.935   6.463   0.667  0.0296  0.2987  0.5805
 6227TIP3   OH240239   5.307   4.175   0.825 -0.0099 -0.2643 -0.5303
 6227TIP3    H140240   5.301   4.193   0.731  0.2733 -0.4580 -0.5857
 6227TIP3    H240241   5.269   4.088   0.836 -0.0853 -0.2222 -0.4602
 6228TIP3   OH240242   6.581   0.096   7.817  0.0124 -0.1931  0.1758
 6228TIP3    H140243   6.555   0.012   7.778 -0.6773 -0.5912  1.4493
 6228TIP3    H240244   6.502   0.127   7.861  0.8963 -0.0255  1.6948
 6229TIP3   OH240245   3.346   1.356   7.460  0.7059  0.5946  0.2457
 6229TIP3    H140246   3.251   1.364   7.469  0.5887  1.4806 -1.4687
 6229TIP3    H240247   3.359   1.265   7.432  0.1788  0.9294 -1.1967
 6230TIP3   OH240248   1.037   5.837   1.303 -0.3860 -0.2060 -0.3028
 6230TIP3    H140249   1.112   5.861   1.249 -0.7070 -1.4784 -1.3576
 6230TIP3    H240250   1.068   5.766   1.358 -0.9859 -1.2502 -1.2685
 6231TIP3   OH240251   5.438   0.141   7.860  0.2248  0.5515  0.2475
 6231TIP3    H140252   5.531   0.153   7.840  0.5413 -2.0232 -0.1663
 6231TIP3    H240253   5.437   0.071   7.926 -1.4142  0.8796  0.6072
 6232TIP3   OH240254   5.535   4.574   8.191  0.9445  0.1892 -0.4402
 6232TIP3    H140255   5.523   4.524   8.272  2.6987  0.0548 -0.2296
 6232TIP3    H240256   5.448   4.574   8.151 -0.1767  0.9071  1.7833
 6233TIP3   OH240257   3.091   2.917   1.124 -0.3960  0.2239 -0.2655
 6233TIP3    H140258   3.035   2.991   1.147 -1.3437 -0.8102  0.8936
 6233TIP3    H240259   3.153   2.909   1.196  1.0424  1.1151 -1.3542
 6234TIP3   OH240260   5.569   5.491   1.839 -0.5342  0.0592  1.3198
 6234TIP3    H140261   5.618   5.565   1.875 -0.3712 -0.6124  2.5328
 6234TIP3    H240262   5.527   5.526   1.761  0.9708  0.9517  0.8767
 6235TIP3   OH240263   1.380   5.061   2.820 -0.0721 -0.0973 -0.0583
 6235TIP3    H140264   1.296   5.017   2.810  0.3095 -0.9058  0.2009
 6235TIP3    H240265   1.360   5.140   2.869 -1.1176  1.1636 -2.3446
 6236TIP3   OH240266   4.689   1.575   8.015 -0.5004  0.4549 -0.1130
 6236TIP3    H140267   4.724   1.512   7.952 -1.0451  0.4516 -0.4208
 6236TIP3    H240268   4.655   1.521   8.086  0.9616  0.4912  0.6500
 6237TIP3   OH240269   4.183   5.008   6.996 -0.2462  0.3617 -0.1047
 6237TIP3    H140270   4.169   5.080   6.935 -0.8994  1.3839  1.2002
 6237TIP3    H240271   4.136   4.935   6.958 -0.1642  0.8166 -1.1034
 6238TIP3   OH240272   4.278   6.266   1.204 -0.2754  0.5152  0.1633
 6238TIP3    H140273   4.282   6.209   1.280 -0.9489 -0.0063 -0.1789
 6238TIP3    H240274   4.346   6.233   1.145 -1.4298 -0.7300 -0.5448
 6239TIP3   OH240275   2.395   5.047   0.313 -0.1961  0.3015  0.0104
 6239TIP3    H140276   2.394   4.962   0.356  0.2539 -0.5320 -1.5363
 6239TIP3    H240277   2.473   5.091   0.347 -1.7649  1.1916  2.7221
 6240TIP3   OH240278   2.709   1.771   1.558 -0.7033 -0.0548  0.1080
 6240TIP3    H140279   2.712   1.806   1.647  3.0660  0.0664  0.0697
 6240TIP3    H240280   2.783   1.711   1.553  0.1856  1.0792 -3.3872
 6241TIP3   OH240281   3.224   5.851   8.400 -0.0092 -0.3664  0.0381
 6241TIP3    H140282   3.272   5.929   8.431  0.0429 -0.4590  0.1940
 6241TIP3    H240283   3.173   5.824   8.476 -0.0412 -0.4742 -0.0223
 6242TIP3   OH240284   0.210   1.322   1.822  0.1330  0.3843  1.0596
 6242TIP3    H140285   0.176   1.396   1.872 -1.3291 -0.3978  1.2697
 6242TIP3    H240286   0.284   1.290   1.873  1.0258  1.8914  0.7815
 6243TIP3   OH240287   5.100   1.461   7.198  0.2033 -1.0235  0.0586
 6243TIP3    H140288   5.050   1.535   7.165  2.5417  1.7387  2.2082
 6243TIP3    H240289   5.160   1.439   7.127  0.1506 -0.2067 -0.2489
 6244TIP3   OH240290   3.409   2.195   6.371 -0.1405 -0.0915 -0.3683
 6244TIP3    H140291   3.426   2.272   6.424  2.6179  0.1601 -1.4737
 6244TIP3    H240292   3.324   2.164   6.401  0.6548  0.7781  3.2631
 6245TIP3   OH240293   4.584   4.272   0.343  0.1014  0.1367  0.1739
 6245TIP3    H140294   4.610   4.364   0.334 -1.2380  0.3762 -1.8991
 6245TIP3    H240295   4.653   4.223   0.298  0.7467  0.0987  1.1657
 6246TIP3   OH240296   3.559   3.097   8.567 -0.1184 -0.1238 -0.3406
 6246TIP3    H140297   3.598   3.095   8.479 -1.0884  2.8450 -0.9569
 6246TIP3    H240298   3.609   3.165   8.613  0.8459 -2.1151  1.7454
 6247TIP3   OH240299   2.849   0.798   7.266 -0.3580 -0.2520  0.4718
 6247TIP3    H140300   2.796   0.871   7.299  0.7176  0.6229  0.3257
 6247TIP3    H240301   2.819   0.784   7.176 -1.5970 -1.0079  0.9747
 6248TIP3   OH240302   2.882   2.573   1.419  0.4668  0.1342 -0.1499
 6248TIP3    H140303   2.916   2.497   1.372 -1.9744 -0.6117 -0.8469
 6248TIP3    H240304   2.788   2.557   1.426 -0.0426  2.8140  0.2092
 6249TIP3   OH240305   5.458   3.644   8.155 -0.0634  0.2689 -0.0901
 6249TIP3    H140306   5.449   3.727   8.109 -0.3010  0.1343 -0.2923
 6249TIP3    H240307   5.400   3.652   8.232  0.7052  0.6770  0.4563
 6250TIP3   OH240308   6.180   2.087   0.700 -0.0633  0.7836 -0.0744
 6250TIP3    H140309   6.098   2.080   0.651  1.1002  0.7935 -2.1641
 6250TIP3    H240310   6.215   1.997   0.702  0.0890  0.8503  0.4153
 6251TIP3   OH240311   4.328   4.119   0.700  0.5779 -0.1367  0.3351
 6251TIP3    H140312   4.386   4.124   0.776  2.5330  2.9075 -1.1608
 6251TIP3    H240313   4.371   4.056   0.642 -0.0847 -1.2722  1.0349
 6252TIP3   OH240314   1.725   3.315   7.878 -0.9411 -0.2430  0.3377
 6252TIP3    H140315   1.654   3.376   7.898  0.3571  1.4118  0.0581
 6252TIP3    H240316   1.720   3.302   7.783  0.3071  1.4548  0.0020
 6253TIP3   OH240317   0.123   5.291   1.801 -0.0851 -0.1478  0.0581
 6253TIP3    H140318   0.149   5.372   1.756 -1.4405 -0.5729 -1.6215
 6253TIP3    H240319   0.091   5.321   1.886 -2.4024  1.4284 -1.2409
 6254TIP3   OH240320   1.882   2.672   0.080  0.2561 -0.0484 -0.0645
 6254TIP3    H140321   1.838   2.729   0.143 -0.9317 -0.0603 -0.8524
 6254TIP3    H240322   1.953   2.632   0.130 -1.3618 -0.9660  1.6335
 6255TIP3   OH240323   4.094   4.382   1.262  0.5360  0.1778 -0.4207
 6255TIP3    H140324   4.036   4.416   1.331  1.3857 -1.3074  1.1137
 6255TIP3    H240325   4.169   4.441   1.262  1.2965 -0.7041  1.1571
 6256TIP3   OH240326   4.886   2.293   7.448 -0.2338 -0.1816  0.0194
 6256TIP3    H140327   4.849   2.376   7.415  0.3398 -0.0214 -0.2349
 6256TIP3    H240328   4.814   2.253   7.496 -0.8366 -0.0065 -0.7049
 6257TIP3   OH240329   5.287   5.743   0.132 -0.1457 -0.2362 -0.7442
 6257TIP3    H140330   5.328   5.739   0.046 -0.9221  1.1163 -1.2011
 6257TIP3    H240331   5.240   5.660   0.140 -0.8260 -0.0034 -2.0247
 6258TIP3   OH240332   3.053   0.142   7.041 -0.4065  0.1987  0.5821
 6258TIP3    H140333   3.072   0.055   7.074 -0.3878  0.4525  1.2527
 6258TIP3    H240334   3.015   0.127   6.954  1.2579 -0.3990 -0.0870
 6259TIP3   OH240335   5.503   3.403   0.320 -0.2718  0.5560 -0.7651
 6259TIP3    H140336   5.582   3.409   0.267  0.1857  0.2436 -0.1250
 6259TIP3    H240337   5.431   3.414   0.258  0.2092 -1.0974 -1.6726
 6260TIP3   OH240338   4.295   4.732   8.035  0.4764  0.2518  0.1716
 6260TIP3    H140339   4.346   4.736   8.117  1.3918  1.5994 -0.4254
 6260TIP3    H240340   4.257   4.644   8.035  0.8963  0.0285  1.7817
 6261TIP3   OH240341   1.619   4.640   1.678 -0.2080  0.2229  0.4973
 6261TIP3    H140342   1.592   4.549   1.685  3.6951 -1.0136  1.7570
 6261TIP3    H240343   1.653   4.649   1.588  0.5423  0.0392  0.7547
 6262TIP3   OH240344   2.207   1.104   1.395  0.1140  0.2231  0.5670
 6262TIP3    H140345   2.224   1.016   1.426  0.4479  0.7405  1.9040
 6262TIP3    H240346   2.242   1.105   1.306  2.0330 -0.3916  1.2667
 6263TIP3   OH240347   3.131   5.616   1.787 -0.3315 -0.0797 -0.8043
 6263TIP3    H140348   3.207   5.673   1.793 -0.1212 -0.2824 -1.5095
 6263TIP3    H240349   3.098   5.611   1.877  0.2103  0.3770 -0.5747
 6264TIP3   OH240350   6.732   3.931   7.479 -0.1765 -0.0129 -0.4605
 6264TIP3    H140351   6.756   4.017   7.513  0.3561 -0.3680  0.0844
 6264TIP3    H240352   6.776   3.869   7.537  0.1384 -0.6445 -1.3523
 6265TIP3   OH240353   0.295   1.113   8.551 -0.0807  0.1804 -0.4025
 6265TIP3    H140354   0.353   1.142   8.621  0.6103 -0.8152 -0.5477
 6265TIP3    H240355   0.350   1.113   8.473  0.5168 -3.1204 -0.1385
 6266TIP3   OH240356   4.860   3.974   1.218  0.4475 -0.2671 -0.2393
 6266TIP3    H140357   4.819   4.038   1.276  0.5186  1.6097 -2.0999
 6266TIP3    H240358   4.954   3.985   1.233  0.4693  0.2832 -0.7324
 6267TIP3   OH240359   2.280   1.310   6.770 -0.3927 -0.3730 -0.0440
 6267TIP3    H140360   2.239   1.228   6.740  2.6017 -1.0393 -2.9214
 6267TIP3    H240361   2.259   1.373   6.701  0.5638  0.1858  0.1645
 6268TIP3   OH240362   1.782   1.819   8.253 -0.7265 -0.4692  0.3373
 6268TIP3    H140363   1.835   1.885   8.298 -0.3633 -0.8267  0.4393
 6268TIP3    H240364   1.740   1.770   8.323  0.0303 -1.1825  0.2952
 6269TIP3   OH240365   1.621   2.122   7.876 -0.0978  0.2974 -0.1132
 6269TIP3    H140366   1.704   2.169   7.881  0.6097 -1.0433  2.0539
 6269TIP3    H240367   1.562   2.170   7.934 -0.2426  0.1582 -0.1452
 6270TIP3   OH240368   5.388   4.723   1.300 -0.3452  0.4212 -0.2571
 6270TIP3    H140369   5.379   4.748   1.208 -0.0654 -0.2426 -0.4714
 6270TIP3    H240370   5.302   4.690   1.325  0.3450 -2.4828 -1.2511
 6271TIP3   OH240371   5.134   1.942   1.209 -0.3117  0.0800 -0.5225
 6271TIP3    H140372   5.073   2.010   1.181  0.9016  1.8194  0.8217
 6271TIP3    H240373   5.112   1.926   1.300  0.0023 -0.7272 -0.5771
 6272TIP3   OH240374   1.341   2.903   8.361  0.3220 -0.6746  0.3922
 6272TIP3    H140375   1.338   2.823   8.413  0.6757 -1.1882 -0.3501
 6272TIP3    H240376   1.431   2.934   8.371  0.1429 -0.2817  0.8017
 6273TIP3   OH240377   6.232   2.872   0.273  0.2684  0.5576 -0.8301
 6273TIP3    H140378   6.279   2.948   0.305 -0.1946  0.8399 -0.8060
 6273TIP3    H240379   6.202   2.827   0.352  2.4825 -0.9198 -0.7720
 6274TIP3   OH240380   4.605   5.147   0.906  0.3426 -1.0530 -0.5562
 6274TIP3    H140381   4.613   5.055   0.880 -0.9311 -1.0746 -0.9720
 6274TIP3    H240382   4.515   5.170   0.883  0.2045 -0.0955  0.8284
 6275TIP3   OH240383   4.436   0.053   0.084  1.1370 -0.3408  0.3983
 6275TIP3    H140384   4.425   0.118   0.015  0.1968 -1.7526 -0.8438
 6275TIP3    H240385   4.452  -0.029   0.037  1.9920 -1.0688  1.9055
 6276TIP3   OH240386   1.893   1.304   6.802 -0.2677  0.2490 -0.0821
 6276TIP3    H140387   1.950   1.253   6.744  0.0129 -0.3182  0.6703
 6276TIP3    H240388   1.862   1.376   6.748  1.7518  0.9982 -0.3171
 6277TIP3   OH240389   5.530   6.319   8.109 -0.3485  0.2082  0.1065
 6277TIP3    H140390   5.498   6.234   8.080  0.1457  0.2087 -0.4643
 6277TIP3    H240391   5.573   6.356   8.032  1.6319 -0.0864  0.9940
 6278TIP3   OH240392   1.386   4.301   0.402  0.1831 -0.1147  0.4564
 6278TIP3    H140393   1.294   4.328   0.405 -0.0089 -0.8087  0.8419
 6278TIP3    H240394   1.416   4.305   0.493  1.6875  3.9316  0.0190
 6279TIP3   OH240395   3.244   2.742   7.807 -0.1709  0.1186  0.5408
 6279TIP3    H140396   3.193   2.660   7.805 -1.0649  0.6473  0.9742
 6279TIP3    H240397   3.231   2.780   7.721 -0.0968  0.0149  0.4826
 6280TIP3   OH240398   6.535   5.776   1.029  0.0057  0.4604  0.6009
 6280TIP3    H140399   6.456   5.823   1.002 -0.3348  0.8825  2.2152
 6280TIP3    H240400   6.607   5.831   0.996 -0.3291 -0.0742 -1.1284
 6281TIP3   OH240401   1.452   2.615   1.584 -0.1379  0.1890  0.0498
 6281TIP3    H140402   1.531   2.574   1.619 -0.4273  0.1207  0.6569
 6281TIP3    H240403   1.435   2.570   1.502 -0.3411 -0.8005  0.6109
 6282TIP3   OH240404   6.480   2.900   8.523 -0.0188 -0.1240  0.3697
 6282TIP3    H140405   6.441   2.986   8.507 -0.2655 -0.4293 -0.7397
 6282TIP3    H240406   6.528   2.911   8.606 -0.1083  1.0523  0.2892
 6283TIP3   OH240407   0.979   1.549   1.864  0.3578  0.1723 -0.2309
 6283TIP3    H140408   0.983   1.542   1.960 -1.6590 -2.5136 -0.2258
 6283TIP3    H240409   1.068   1.528   1.835  0.4862 -1.2193  1.0223
 6284TIP3   OH240410   5.795   5.397   0.647  0.3933  0.1969 -0.0970
 6284TIP3    H140411   5.877   5.356   0.620  1.4324  2.7310 -1.1397
 6284TIP3    H240412   5.758   5.433   0.566  0.7647  3.2112  0.9158
 6285TIP3   OH240413   6.623   3.710   7.343  0.2586  0.2720  0.0976
 6285TIP3    H140414   6.676   3.785   7.370  0.3882  0.1883  0.0756
 6285TIP3    H240415   6.566   3.693   7.418 -1.6698  2.0741 -0.8672
 6286TIP3   OH240416   2.889   0.656   0.778 -0.0571 -0.4191 -0.0101
 6286TIP3    H140417   2.975   0.646   0.737  1.3617  0.0986  2.6398
 6286TIP3    H240418   2.861   0.567   0.797  0.0475 -0.5686 -0.5287
 6287TIP3   OH240419   4.162   2.249   7.199 -0.5055  0.1089 -0.1274
 6287TIP3    H140420   4.243   2.233   7.151  0.1394  2.4426  0.0682
 6287TIP3    H240421   4.113   2.167   7.192  2.6640 -2.0905  1.4633
 6288TIP3   OH240422   6.475   5.429   0.809  0.2487 -0.2643  0.7206
 6288TIP3    H140423   6.458   5.509   0.759 -0.5925 -0.1804  1.1174
 6288TIP3    H240424   6.563   5.441   0.843  0.8578 -0.3311 -0.7390
 6289TIP3   OH240425   3.133   3.163   0.063 -0.0029  0.0148  0.5700
 6289TIP3    H140426   3.107   3.177  -0.028  0.5181  0.2913  0.4605
 6289TIP3    H240427   3.213   3.216   0.074 -0.1446  0.1028  1.2271
 6290TIP3   OH240428   2.335   1.360   1.539  0.3021  0.5180 -0.3058
 6290TIP3    H140429   2.363   1.272   1.562  0.1826 -0.1115 -2.3945
 6290TIP3    H240430   2.254   1.348   1.490  0.8816  1.6847 -1.6059
 6291TIP3   OH240431   4.586   4.880   8.016  0.3151  0.3290 -0.3753
 6291TIP3    H140432   4.635   4.815   8.067  1.9361 -0.8786 -3.2149
 6291TIP3    H240433   4.507   4.897   8.067  1.6107 -1.0565  2.2619
 6292TIP3   OH240434   4.952   2.872   1.299 -0.4386 -0.1744 -0.3710
 6292TIP3    H140435   4.997   2.793   1.269  0.3834 -0.1635  0.7762
 6292TIP3    H240436   4.859   2.850   1.292 -0.2320 -1.3963  0.2553
 6293TIP3   OH240437   1.627   4.347   1.429  0.1262  0.0611 -0.2570
 6293TIP3    H140438   1.647   4.430   1.387 -0.4886  0.2484 -0.1900
 6293TIP3    H240439   1.705   4.293   1.415 -0.1540  0.0115 -1.9017
 6294TIP3   OH240440   6.423   4.213   1.624 -0.5666 -0.3082 -0.0177
 6294TIP3    H140441   6.455   4.287   1.676 -2.4119  0.5070  0.0392
 6294TIP3    H240442   6.451   4.231   1.535  1.3295 -0.9537  0.4127
 6295TIP3   OH240443   3.912   4.654   7.189 -0.1382  0.1849  0.3926
 6295TIP3    H140444   3.997   4.696   7.204  1.4071 -1.8858 -1.8840
 6295TIP3    H240445   3.865   4.715   7.132  1.3750 -0.3023 -1.4563
 6296TIP3   OH240446   6.164   6.072   7.927 -0.7298  0.5796  0.0059
 6296TIP3    H140447   6.253   6.043   7.907 -0.0879  2.5176 -0.1801
 6296TIP3    H240448   6.150   6.044   8.017 -1.3204 -2.8224 -1.0136
 6297TIP3   OH240449   3.225   4.180   2.028  0.1352  0.4184 -0.7254
 6297TIP3    H140450   3.292   4.179   1.960 -0.1339  0.1966 -0.9936
 6297TIP3    H240451   3.264   4.228   2.100  0.5707  0.3205 -0.8923
 6298TIP3   OH240452   6.863   2.231   0.951  0.1285  0.3805 -0.1154
 6298TIP3    H140453   6.876   2.158   1.011 -0.3179 -0.0743 -0.5676
 6298TIP3    H240454   6.947   2.243   0.908  0.2741  0.3042  0.1455
 6299TIP3   OH240455   6.089   0.458   7.613  0.2189 -0.5432 -0.0997
 6299TIP3    H140456   6.004   0.500   7.596 -0.3709 -2.0171 -0.9699
 6299TIP3    H240457   6.109   0.483   7.703 -3.0669 -3.1993  1.6234
 6300TIP3   OH240458   4.322   1.697   1.060  0.3870 -0.1833 -0.4538
 6300TIP3    H140459   4.236   1.656   1.061  0.2290  0.1211  0.7964
 6300TIP3    H240460   4.350   1.694   0.969 -1.6357  1.2008 -1.1759
 6301TIP3   OH240461   2.946   2.363   1.257  0.7553  0.1275 -0.8492
 6301TIP3    H140462   3.002   2.393   1.185  1.1028  0.9096 -0.2695
 6301TIP3    H240463   2.979   2.275   1.278 -0.4782 -0.8684 -2.7814
 6302TIP3   OH240464   4.167   1.124   1.670 -0.3515 -0.1984 -0.5455
 6302TIP3    H140465   4.108   1.048   1.673  0.6607 -1.0070 -0.5536
 6302TIP3    H240466   4.133   1.183   1.736 -1.6218 -0.3067 -1.0691
 6303TIP3   OH240467   5.696   3.444   7.800  0.1330  0.2912 -0.3920
 6303TIP3    H140468   5.611   3.483   7.819 -1.1034 -2.3857  0.1002
 6303TIP3    H240469   5.675   3.355   7.771  2.7669 -0.6221  0.2176
 6304TIP3   OH240470   4.053   5.818   1.851  0.4812  0.4008 -0.2325
 6304TIP3    H140471   4.021   5.771   1.774  3.0059  0.9448 -1.7231
 6304TIP3    H240472   4.046   5.911   1.827  2.7001  0.5515 -0.5116
 6305TIP3   OH240473   2.814   3.268   7.344  0.3531 -0.3378  0.3151
 6305TIP3    H140474   2.877   3.267   7.416 -1.2473 -1.1634  1.7702
 6305TIP3    H240475   2.795   3.361   7.331 -0.1264 -0.2161  1.7174
 6306TIP3   OH240476   2.547   0.312   7.410 -0.0491  0.4924  0.6913
 6306TIP3    H140477   2.526   0.300   7.503 -0.7632 -0.8528  0.3869
 6306TIP3    H240478   2.634   0.274   7.399 -0.1631  0.2205  0.7230
 6307TIP3   OH240479   2.926   3.619   1.215 -0.2236 -0.3422  0.2369
 6307TIP3    H140480   3.019   3.595   1.221  0.6506  2.0955 -1.6688
 6307TIP3    H240481   2.882   3.561   1.277  2.4914 -1.9035  0.8769
 6308TIP3   OH240482   1.083   1.147   1.403 -0.3213 -0.4259  0.9593
 6308TIP3    H140483   1.004   1.195   1.379  0.9371  0.7438 -1.2923
 6308TIP3    H240484   1.056   1.087   1.472 -3.4739 -1.0657 -0.6730
 6309TIP3   OH240485   1.567   2.562   6.578  0.2695  0.1733  0.7032
 6309TIP3    H140486   1.476   2.575   6.606 -0.0040 -2.0268  0.9930
 6309TIP3    H240487   1.566   2.481   6.527  2.3299 -0.8836  2.1897
 6310TIP3   OH240488   4.291   6.099   1.448 -0.4371 -0.0198  0.0205
 6310TIP3    H140489   4.294   6.018   1.499 -2.5151  0.8048  1.5810
 6310TIP3    H240490   4.346   6.160   1.496  1.2173 -0.4625 -1.2147
 6311TIP3   OH240491   1.958   3.630   8.386  0.6513 -0.2788  0.1956
 6311TIP3    H140492   2.041   3.585   8.400 -0.2018 -1.2603  2.8061
 6311TIP3    H240493   1.916   3.630   8.472 -2.3211 -0.3545 -1.1251
 6312TIP3   OH240494   6.408   3.784   6.610  1.0544 -0.2244  0.3294
 6312TIP3    H140495   6.315   3.784   6.586  0.7822  1.1979  1.2222
 6312TIP3    H240496   6.429   3.693   6.628 -0.4905 -0.4344  1.2493
 6313TIP3   OH240497   6.717   6.844   1.085 -0.5212 -0.4749 -0.0179
 6313TIP3    H140498   6.629   6.880   1.098  1.0649  4.1165 -0.5622
 6313TIP3    H240499   6.725   6.778   1.155 -4.3415 -1.2416 -0.0456
 6314TIP3   OH240500   5.802   6.185   1.912  0.7469  0.1526 -0.1151
 6314TIP3    H140501   5.853   6.162   1.990 -0.3676 -0.1867  0.5347
 6314TIP3    H240502   5.737   6.115   1.903 -0.3363  1.1297 -0.2589
 6315TIP3   OH240503   1.276   4.995   0.511 -0.0143 -0.4068 -0.4285
 6315TIP3    H140504   1.226   5.024   0.434 -0.1729 -0.4162 -0.3300
 6315TIP3    H240505   1.253   5.057   0.579  1.3009  0.5224 -0.7895
 6316TIP3   OH240506   5.065   3.171   1.073  0.0669 -0.2091  0.8300
 6316TIP3    H140507   5.108   3.197   1.155 -0.6629  0.5235  0.9982
 6316TIP3    H240508   5.042   3.254   1.031 -1.1402 -0.5736  0.7281
 6317TIP3   OH240509   2.500   5.383   0.590  0.1465  0.1819  0.6572
 6317TIP3    H140510   2.444   5.451   0.628  1.8949  1.6505  0.7559
 6317TIP3    H240511   2.588   5.402   0.625  1.3908  0.1639 -2.2051
 6318TIP3   OH240512   1.554   4.581   6.736 -0.0036  0.3289 -0.2983
 6318TIP3    H140513   1.568   4.495   6.776 -0.8511  0.5342  0.4985
 6318TIP3    H240514   1.537   4.639   6.811 -0.6730  0.9333 -0.9005
 6319TIP3   OH240515   6.240   4.841   0.705 -0.0038  0.7632 -0.0214
 6319TIP3    H140516   6.256   4.916   0.763 -0.0647  0.2451  0.6764
 6319TIP3    H240517   6.318   4.836   0.650  1.4245 -0.5482  2.0269
 6320TIP3   OH240518   1.029   4.582   0.252  0.0492  0.0733  0.0476
 6320TIP3    H140519   0.962   4.598   0.186 -0.1363 -2.1101 -0.3612
 6320TIP3    H240520   1.092   4.654   0.241 -0.2430  0.0487 -2.1607
 6321TIP3   OH240521   1.687   5.804   2.027  0.0641  0.5881 -0.2197
 6321TIP3    H140522   1.772   5.832   2.061 -0.0300  0.7195 -0.0924
 6321TIP3    H240523   1.685   5.710   2.044 -1.5180  1.1479  3.5989
 6322TIP3   OH240524   1.336   0.406   6.888 -0.4407 -0.9224 -0.3452
 6322TIP3    H140525   1.308   0.441   6.804  0.6558 -0.5500 -0.5775
 6322TIP3    H240526   1.430   0.388   6.876 -0.1265 -0.2643  0.9787
 6323TIP3   OH240527   3.273   5.996   0.354  0.2258  0.7409 -0.3357
 6323TIP3    H140528   3.218   6.071   0.376 -0.5463 -0.0202  0.4200
 6323TIP3    H240529   3.240   5.925   0.410  0.4524 -0.3562 -1.5478
 6324TIP3   OH240530   5.383   6.603   8.168  0.3546  1.0261 -0.6259
 6324TIP3    H140531   5.420   6.526   8.126 -0.4734 -0.6702  1.5630
 6324TIP3    H240532   5.303   6.572   8.210 -0.6201  3.3439 -0.5790
 6325TIP3   OH240533   2.864   6.563   0.504 -0.2626  0.3066  0.3524
 6325TIP3    H140534   2.900   6.641   0.462 -0.5027 -0.4490 -1.3650
 6325TIP3    H240535   2.783   6.545   0.456  0.4038 -1.6728 -0.1194
 6326TIP3   OH240536   2.089   4.789   8.166  0.7371  0.3639 -0.2122
 6326TIP3    H140537   2.103   4.884   8.166  2.7632  0.2268  2.9635
 6326TIP3    H240538   2.176   4.752   8.155  0.2605 -1.0805  0.6829
 6327TIP3   OH240539   3.616   3.415   0.975 -0.1152 -0.2377 -0.6314
 6327TIP3    H140540   3.594   3.353   1.044  1.6145  1.4043  1.5510
 6327TIP3    H240541   3.547   3.481   0.979  1.0536  0.9818  1.1173
 6328TIP3   OH240542   1.198   4.420   0.847  0.0200 -0.5007 -0.3693
 6328TIP3    H140543   1.140   4.489   0.814  1.1837  1.5777  1.6323
 6328TIP3    H240544   1.227   4.373   0.769  1.4246  3.1092 -2.2309
 6329TIP3   OH240545   2.964   5.397   7.059  0.6763  0.1534 -0.1579
 6329TIP3    H140546   2.922   5.313   7.078  0.1308  0.6375  0.8327
 6329TIP3    H240547   2.998   5.387   6.970  1.1660 -1.3238  0.1695
 6330TIP3   OH240548   2.894   2.950   7.594  0.0087 -0.2667 -0.1932
 6330TIP3    H140549   2.990   2.957   7.599 -0.0394  0.1081  0.2359
 6330TIP3    H240550   2.868   2.917   7.680 -0.2241 -0.6486 -0.4106
 6331TIP3   OH240551   1.932   5.855   6.234 -0.5014 -0.0472  0.3961
 6331TIP3    H140552   1.956   5.911   6.160  3.0637 -0.2402  1.2085
 6331TIP3    H240553   1.949   5.766   6.202  2.2617 -0.0849  1.6248
 6332TIP3   OH240554   2.184   0.315   7.475 -0.2131  0.1119 -0.0617
 6332TIP3    H140555   2.265   0.302   7.523 -1.1425 -0.2699  1.4647
 6332TIP3    H240556   2.186   0.407   7.449  0.1420  0.4415  1.0768
 6333TIP3   OH240557   2.449   6.013   1.087  0.3117  0.0737  0.1551
 6333TIP3    H140558   2.461   5.927   1.126  0.9039  0.8861  1.8833
 6333TIP3    H240559   2.530   6.060   1.108  0.1768  0.9408 -1.1140
 6334TIP3   OH240560   2.166   1.404   7.300 -0.4219  0.3529 -0.2067
 6334TIP3    H140561   2.179   1.348   7.224  0.4984  1.3203 -0.7888
 6334TIP3    H240562   2.179   1.493   7.267 -1.2266  0.8683  0.8270
 6335TIP3   OH240563   0.710   1.138   0.499 -0.1857  0.0258 -0.5606
 6335TIP3    H140564   0.656   1.063   0.473 -1.5127  1.1048 -1.0560
 6335TIP3    H240565   0.669   1.170   0.579 -0.3438  0.9015 -0.9795
 6336TIP3   OH240566   4.748   5.151   7.742  0.1786  0.2088 -0.2107
 6336TIP3    H140567   4.810   5.080   7.761 -2.4081 -2.0392  0.4248
 6336TIP3    H240568   4.703   5.165   7.825 -0.8390  1.0865 -0.9046
 6337TIP3   OH240569   3.668   5.884   1.143  0.2333  0.2465  0.7024
 6337TIP3    H140570   3.740   5.872   1.205  0.6893  2.2754  0.6312
 6337TIP3    H240571   3.710   5.891   1.057 -0.1477  0.3124  0.5158
 6338TIP3   OH240572   1.590   6.802   2.470 -0.2440  0.5272 -0.3125
 6338TIP3    H140573   1.510   6.854   2.476  0.5940  1.7180  1.2956
 6338TIP3    H240574   1.659   6.866   2.455  0.7471 -0.1381  1.1235
 6339TIP3   OH240575   6.779   1.039   1.481  0.5648  0.0038 -0.3918
 6339TIP3    H140576   6.828   1.094   1.542 -0.6164  0.2807  0.3119
 6339TIP3    H240577   6.688   1.061   1.495  0.1647 -1.0579 -1.1654
 6340TIP3   OH240578   1.086   0.085   8.544 -0.8076  0.1946 -0.2491
 6340TIP3    H140579   0.995   0.060   8.528 -0.5378 -1.1550  0.2108
 6340TIP3    H240580   1.098   0.164   8.492 -2.1870  0.2833 -0.4745
 6341TIP3   OH240581   6.242   5.027   6.336  0.4775 -0.3640 -0.2493
 6341TIP3    H140582   6.149   5.013   6.316  0.4347  0.9998 -1.1218
 6341TIP3    H240583   6.263   4.959   6.400 -0.8631 -1.3349 -0.7820
 6342TIP3   OH240584   2.996   4.971   0.741  0.2503 -0.1369 -0.0672
 6342TIP3    H140585   3.031   5.009   0.822  0.1944  0.0024 -0.1088
 6342TIP3    H240586   3.073   4.933   0.697 -0.1316 -3.1581  1.6042
 6343TIP3   OH240587   0.213   5.546   1.550 -0.5257  0.3357  0.4081
 6343TIP3    H140588   0.262   5.596   1.485 -0.1839 -0.0359  0.3830
 6343TIP3    H240589   0.257   5.564   1.633 -0.4232  0.0957  0.4039
 6344TIP3   OH240590   3.619   0.991   8.063  0.4092  0.3720  0.3830
 6344TIP3    H140591   3.591   0.900   8.069  0.3351  0.4149  0.7122
 6344TIP3    H240592   3.625   1.009   7.969 -0.2508  0.2402  0.3151
 6345TIP3   OH240593   5.910   0.564   6.942 -0.5053  0.2554 -0.0999
 6345TIP3    H140594   5.832   0.563   6.887 -0.7501 -0.0683  0.2478
 6345TIP3    H240595   5.947   0.651   6.929 -1.0314  0.4804 -0.1217
 6346TIP3   OH240596   1.954   0.892   7.601  0.1637  0.0803  0.4040
 6346TIP3    H140597   1.868   0.856   7.625  1.1121 -1.8587  1.1122
 6346TIP3    H240598   2.010   0.868   7.674  0.7929  3.7652  1.3457
 6347TIP3   OH240599   5.912   3.602   0.175  0.5869 -0.1760  0.3155
 6347TIP3    H140600   5.943   3.654   0.101 -0.1396 -0.6801 -0.3643
 6347TIP3    H240601   5.922   3.511   0.147 -2.0778 -0.3849 -0.2457
 6348TIP3   OH240602   5.002   2.060   7.353  0.7995  0.2687  0.7497
 6348TIP3    H140603   4.975   2.070   7.261 -0.8847 -0.7325  1.1082
 6348TIP3    H240604   4.963   2.135   7.397  1.5848  0.7332  0.6791
 6349TIP3   OH240605   5.503   0.714   0.816 -0.6912  0.0491 -1.1558
 6349TIP3    H140606   5.571   0.720   0.749 -0.9431  1.4044 -1.3243
 6349TIP3    H240607   5.550   0.723   0.899 -0.4371 -1.1364 -1.1556
 6350TIP3   OH240608   6.070   0.806   1.309 -0.0953  0.3846  0.1609
 6350TIP3    H140609   6.052   0.897   1.334 -1.7286  0.2428 -0.3486
 6350TIP3    H240610   6.118   0.770   1.383 -0.7386  1.2640  1.0419
 6351TIP3   OH240611   3.198   4.947   0.573  0.0681  0.1312 -0.2617
 6351TIP3    H140612   3.168   4.871   0.523 -0.2719 -0.4388  0.8030
 6351TIP3    H240613   3.294   4.939   0.573  0.0217 -0.4152  0.0372
 6352TIP3   OH240614   2.864   5.926   0.039 -0.0249 -0.2405 -0.2791
 6352TIP3    H140615   2.956   5.939   0.017  0.6743 -0.4797  2.2821
 6352TIP3    H240616   2.822   5.907  -0.045  1.9838  1.1923 -1.7058
 6353TIP3   OH240617   1.893   4.154   2.695  0.3363  0.1429 -0.1154
 6353TIP3    H140618   1.859   4.200   2.772 -1.1383  0.9060 -1.1839
 6353TIP3    H240619   1.849   4.196   2.621  1.0079 -1.2166 -1.3158
 6354TIP3   OH240620   4.529   5.734   0.618 -0.0112 -0.1532  0.1888
 6354TIP3    H140621   4.552   5.650   0.578 -0.5785 -0.8256  1.2211
 6354TIP3    H240622   4.613   5.771   0.646  0.4496  0.5333 -1.9328
 6355TIP3   OH240623   5.752   4.055   7.129  0.6362 -0.3967 -0.2247
 6355TIP3    H140624   5.812   4.058   7.054 -0.4084 -1.6050 -1.1591
 6355TIP3    H240625   5.665   4.064   7.091  0.1196 -0.3002  0.9299
 6356TIP3   OH240626   4.661   1.847   8.080  0.0894 -0.1695 -0.2168
 6356TIP3    H140627   4.676   1.755   8.057  0.1309  0.1990 -1.7954
 6356TIP3    H240628   4.727   1.866   8.147 -0.0252 -1.3223  0.2483
 6357TIP3   OH240629   3.657   3.194   7.350  0.0887 -0.1829  0.1728
 6357TIP3    H140630   3.655   3.112   7.301 -1.3115 -0.3678  0.4754
 6357TIP3    H240631   3.706   3.174   7.430 -1.4343 -1.1544  0.9099
 6358TIP3   OH240632   3.607   4.849   2.379  0.3166 -0.4782  0.5952
 6358TIP3    H140633   3.644   4.845   2.467 -0.1340 -0.4058  0.7895
 6358TIP3    H240634   3.547   4.775   2.375 -2.4085  1.5234  1.6201
 6359TIP3   OH240635   2.612   5.473   7.420 -0.0743  0.0031 -0.2256
 6359TIP3    H140636   2.545   5.426   7.370 -0.7791  0.3742  0.3423
 6359TIP3    H240637   2.622   5.557   7.374 -0.3465  0.1348 -0.0501
 6360TIP3   OH240638   5.335   4.178   0.530  0.2612  0.0310  0.4387
 6360TIP3    H140639   5.343   4.273   0.521 -2.8548  0.3502  0.1131
 6360TIP3    H240640   5.420   4.144   0.502  1.1947  2.6537 -0.1696
 6361TIP3   OH240641   2.232   3.358   6.946  0.4889 -0.4538  0.0938
 6361TIP3    H140642   2.186   3.327   7.024 -1.0047 -0.9776 -0.9461
 6361TIP3    H240643   2.243   3.452   6.961 -1.4419 -0.1946  0.1830
 6362TIP3   OH240644   2.292   3.759   0.480 -0.0843 -0.1285  0.8306
 6362TIP3    H140645   2.385   3.750   0.500  0.2330  1.7827  0.4497
 6362TIP3    H240646   2.288   3.760   0.384 -0.3867  0.5327  0.8436
 6363TIP3   OH240647   5.662   1.629   1.521  0.2462  0.2608 -0.1358
 6363TIP3    H140648   5.617   1.555   1.563 -1.0539  0.9836 -0.2124
 6363TIP3    H240649   5.748   1.594   1.499 -0.2610 -1.1783  0.0201
 6364TIP3   OH240650   2.683   5.167   6.231  0.4094  0.0303 -0.4304
 6364TIP3    H140651   2.663   5.129   6.316  3.2366 -1.2355 -0.2436
 6364TIP3    H240652   2.641   5.108   6.168  0.7684 -0.7076  0.0071
 6365TIP3   OH240653   0.231   2.930   2.232  0.2463  0.5158  0.1591
 6365TIP3    H140654   0.248   2.886   2.148 -0.5017 -0.3701  0.4551
 6365TIP3    H240655   0.244   2.861   2.297 -2.4127  0.2871  0.5427
 6366TIP3   OH240656   1.309   4.384   6.906  0.1679  0.3438  0.3479
 6366TIP3    H140657   1.223   4.342   6.914  1.9331 -4.0099 -0.6236
 6366TIP3    H240658   1.336   4.365   6.816  2.7705  0.1454  1.1070
 6367TIP3   OH240659   4.653   0.453   7.694 -0.1096  0.0528 -0.0452
 6367TIP3    H140660   4.691   0.394   7.759 -3.6246 -0.9182  1.3352
 6367TIP3    H240661   4.635   0.397   7.618  0.0191  0.2343 -0.2120
 6368TIP3   OH240662   1.132   1.105   7.710 -0.1197 -0.0543  0.5524
 6368TIP3    H140663   1.127   1.011   7.693  0.5618 -0.1730  0.9880
 6368TIP3    H240664   1.165   1.142   7.628 -1.7628 -0.0079 -0.1285
 6369TIP3   OH240665   0.274   3.671   6.822  0.1205 -0.2595  0.8310
 6369TIP3    H140666   0.293   3.695   6.913  0.0732 -0.4744  0.8992
 6369TIP3    H240667   0.285   3.752   6.773  2.1236 -0.5476  0.7230
 6370TIP3   OH240668   5.528   5.424   0.368 -0.3989  0.0352  0.7165
 6370TIP3    H140669   5.599   5.363   0.347 -0.4017  0.6561 -1.3075
 6370TIP3    H240670   5.448   5.374   0.354 -0.3988 -0.3897  2.1047
 6371TIP3   OH240671   0.141   5.470   6.774  0.3332  0.4423 -0.2631
 6371TIP3    H140672   0.047   5.461   6.759  0.3134 -1.3110  0.6944
 6371TIP3    H240673   0.150   5.558   6.811 -0.9316  0.6295 -0.3503
 6372TIP3   OH240674   2.965   4.140   0.691  0.7242  0.0590  0.1861
 6372TIP3    H140675   2.906   4.142   0.766  0.0369 -0.7051 -0.3320
 6372TIP3    H240676   3.013   4.223   0.697 -0.9843  1.0911  0.1432
 6373TIP3   OH240677   1.700   0.163   7.005  0.3949 -0.2281  0.0132
 6373TIP3    H140678   1.734   0.252   7.000  0.2497 -0.2240 -1.3514
 6373TIP3    H240679   1.614   0.172   7.047  0.7361  0.1589  0.6338
 6374TIP3   OH240680   4.368   2.119   7.538 -0.2539 -0.4836  0.5825
 6374TIP3    H140681   4.287   2.156   7.574 -0.8446 -0.2225 -0.9451
 6374TIP3    H240682   4.354   2.025   7.538 -0.0684 -0.5198  1.4148
 6375TIP3   OH240683   3.096   2.557   8.544 -0.1842  0.3569 -0.3818
 6375TIP3    H140684   3.115   2.470   8.581 -1.3206  0.0024 -0.6143
 6375TIP3    H240685   3.029   2.594   8.602  1.6343  1.9102  0.8672
 6376TIP3   OH240686   0.158   5.706   7.844  0.0989 -0.3940 -0.2496
 6376TIP3    H140687   0.247   5.698   7.810 -0.0865  1.3930 -1.2711
 6376TIP3    H240688   0.165   5.680   7.936  1.7704  0.2148 -0.1774
 6377TIP3   OH240689   2.555   0.366   7.150  0.3108 -0.0299  0.4752
 6377TIP3    H140690   2.647   0.370   7.127  0.1993 -2.5616 -0.7845
 6377TIP3    H240691   2.554   0.351   7.245  1.1257  0.9152  0.6470
 6378TIP3   OH240692   5.320   1.499   0.715 -0.4375 -0.5043 -0.3123
 6378TIP3    H140693   5.331   1.529   0.805  1.6666  0.5128 -0.8458
 6378TIP3    H240694   5.292   1.408   0.723 -0.2338 -0.4385  1.3618
 6379TIP3   OH240695   0.289   6.609   0.505 -0.2155 -0.2468  0.6594
 6379TIP3    H140696   0.329   6.676   0.561 -2.2007  0.2562  1.5442
 6379TIP3    H240697   0.241   6.658   0.439  0.3840 -0.8452 -0.2449
 6380TIP3   OH240698   3.740   2.210   0.761 -0.0466  0.3364  0.0483
 6380TIP3    H140699   3.709   2.293   0.723 -0.7035 -0.2709 -0.7803
 6380TIP3    H240700   3.681   2.194   0.834 -0.7143 -0.0175 -0.5568
 6381TIP3   OH240701   1.104   2.848   8.179  0.1910  0.3901 -0.0144
 6381TIP3    H140702   1.095   2.753   8.170  1.0395  0.5128 -3.8488
 6381TIP3    H240703   1.197   2.862   8.195 -0.1385  0.6426  2.1225
 6382TIP3   OH240704   2.386   6.294   7.489  0.2564  0.4841 -0.7032
 6382TIP3    H140705   2.369   6.234   7.417  0.7784  0.8919 -1.1739
 6382TIP3    H240706   2.301   6.337   7.504 -0.8159 -2.0554  1.2828
 6383TIP3   OH240707   4.647   4.779   7.724 -0.2352  0.0428  0.0893
 6383TIP3    H140708   4.613   4.808   7.809 -1.7651 -1.1385 -0.0744
 6383TIP3    H240709   4.735   4.817   7.719 -1.3400  2.9864  0.7117
 6384TIP3   OH240710   4.567   2.258   1.120  0.1149  0.6300 -0.8443
 6384TIP3    H140711   4.585   2.183   1.064 -0.2951 -0.0042 -0.1538
 6384TIP3    H240712   4.496   2.229   1.178  0.5155  1.2530 -0.0064
 6385TIP3   OH240713   2.584   2.899   6.209  0.0092  0.3605  0.0013
 6385TIP3    H140714   2.650   2.966   6.193  0.3200  0.2856  0.9120
 6385TIP3    H240715   2.631   2.827   6.251 -0.2450 -0.6060 -1.3081
 6386TIP3   OH240716   0.155   0.235   0.750  0.0297 -0.5854  0.0090
 6386TIP3    H140717   0.195   0.302   0.807  1.3724 -0.8784 -0.5602
 6386TIP3    H240718   0.178   0.152   0.791  0.7443 -0.7882 -0.7866
 6387TIP3   OH240719   1.156   4.338   7.420  0.1129 -0.3173  0.1765
 6387TIP3    H140720   1.104   4.417   7.403  0.1312 -0.3812 -0.1762
 6387TIP3    H240721   1.109   4.268   7.375  1.2853 -0.1220 -1.4352
 6388TIP3   OH240722   0.216   6.150   0.780 -0.6008 -0.0325  0.5764
 6388TIP3    H140723   0.215   6.056   0.766 -2.1306  0.2449 -1.6845
 6388TIP3    H240724   0.150   6.165   0.848 -1.7122 -0.4602 -0.3860
 6389TIP3   OH240725   6.701   0.313   6.766  0.3491  0.4641 -0.4675
 6389TIP3    H140726   6.785   0.351   6.740  0.6181 -0.2005 -0.5794
 6389TIP3    H240727   6.669   0.371   6.835  1.4081  0.1303  0.3231
 6390TIP3   OH240728   3.532   6.283   7.975 -0.3580  0.8194  0.1755
 6390TIP3    H140729   3.460   6.224   7.997  1.0710 -0.5035  1.6778
 6390TIP3    H240730   3.532   6.348   8.045  1.9339 -1.2501  2.3498
 6391TIP3   OH240731   4.667   0.712   0.603  0.2027 -0.0202  0.3066
 6391TIP3    H140732   4.635   0.800   0.584 -0.2292  0.1661  1.7512
 6391TIP3    H240733   4.761   0.724   0.622  0.0733  0.1936  0.8317
 6392TIP3   OH240734   6.424   5.481   1.433 -0.0087 -0.5986 -0.6222
 6392TIP3    H140735   6.451   5.522   1.515 -1.0392 -1.9602  0.4431
 6392TIP3    H240736   6.356   5.538   1.398  0.6639  0.1631 -0.7398
 6393TIP3   OH240737   5.377   0.321   0.738 -0.3603 -0.0030  0.2132
 6393TIP3    H140738   5.456   0.362   0.703 -0.3319 -0.1446  0.1154
 6393TIP3    H240739   5.346   0.383   0.805  1.2528 -1.1249  2.1126
 6394TIP3   OH240740   2.969   0.847   0.525 -0.1009  0.3853 -0.1062
 6394TIP3    H140741   3.060   0.843   0.552 -0.5741 -1.2143  1.4384
 6394TIP3    H240742   2.971   0.837   0.430  1.3637  1.5978 -0.2401
 6395TIP3   OH240743   0.878   3.505   1.230 -0.3674  0.0733 -0.0531
 6395TIP3    H140744   0.922   3.570   1.284 -1.4669  1.7588 -1.1050
 6395TIP3    H240745   0.809   3.553   1.184 -3.9634 -2.5007  2.1066
 6396TIP3   OH240746   5.634   5.987   1.930 -0.3333 -0.4087  0.9336
 6396TIP3    H140747   5.641   5.891   1.925  2.4319 -0.2874  0.7711
 6396TIP3    H240748   5.571   6.010   1.863  0.0619 -2.0398 -0.0610
 6397TIP3   OH240749   5.563   1.060   8.422 -0.0213  0.0270  0.8192
 6397TIP3    H140750   5.620   1.032   8.494 -1.4525 -0.1008  1.9531
 6397TIP3    H240751   5.549   0.980   8.371  0.4407 -0.0469  0.8024
 6398TIP3   OH240752   4.063   6.417   0.913  0.5658 -0.3667 -0.6042
 6398TIP3    H140753   4.144   6.406   0.864  0.9904  0.9443 -0.2249
 6398TIP3    H240754   4.042   6.329   0.944  1.3309 -0.8772 -1.4824
 6399TIP3   OH240755   4.227   5.594   0.493 -0.5028  0.0353  0.2525
 6399TIP3    H140756   4.184   5.639   0.420  1.1030  0.5238 -0.4255
 6399TIP3    H240757   4.237   5.661   0.560 -0.2168  0.0835  0.1608
 6400TIP3   OH240758   0.374   1.431   2.649  0.2711 -0.0679  0.4008
 6400TIP3    H140759   0.458   1.437   2.602  0.5763 -0.2349  0.9175
 6400TIP3    H240760   0.329   1.357   2.608 -0.2751  0.9234 -0.8815
 6401TIP3   OH240761   4.896   6.140   2.818  0.1470 -0.6007 -0.1551
 6401TIP3    H140762   4.855   6.143   2.731  2.2600 -0.4138 -1.2095
 6401TIP3    H240763   4.930   6.051   2.825  1.6275 -0.0831 -0.3691
 6402TIP3   OH240764   6.308   0.310   1.759 -0.3728 -0.2120  0.5340
 6402TIP3    H140765   6.353   0.342   1.680  0.4616 -0.5420  0.8660
 6402TIP3    H240766   6.246   0.380   1.781 -0.9328 -0.3098 -0.6570
 6403TIP3   OH240767   0.761   3.909   8.272  0.1147  0.1374  0.8277
 6403TIP3    H140768   0.720   3.835   8.317  0.3004 -0.2891  0.3160
 6403TIP3    H240769   0.740   3.985   8.326 -1.0331 -0.1209  0.7685
 6404TIP3   OH240770   3.893   0.838   6.442 -0.1568  0.3416  0.7146
 6404TIP3    H140771   3.814   0.888   6.419  0.1624  1.6376  2.2448
 6404TIP3    H240772   3.963   0.881   6.393 -0.1133  0.4478  0.8681
 6405TIP3   OH240773   1.248   2.146   2.069 -0.4770  0.1885 -0.5991
 6405TIP3    H140774   1.204   2.177   1.990  0.2341  0.0449 -1.0530
 6405TIP3    H240775   1.197   2.184   2.141 -1.9360 -0.7565 -1.0859
 6406TIP3   OH240776   5.625   0.438   1.039 -0.2249 -0.1838 -0.5518
 6406TIP3    H140777   5.602   0.517   1.089  0.6485 -1.2481  1.6555
 6406TIP3    H240778   5.721   0.441   1.034 -0.2885  0.0049 -2.4585
 6407TIP3   OH240779   2.604   2.503   0.479 -0.1349 -0.0157 -0.2858
 6407TIP3    H140780   2.696   2.478   0.472 -0.5253 -1.3439 -0.9308
 6407TIP3    H240781   2.607   2.595   0.507  1.3584 -0.5103  1.3969
 6408TIP3   OH240782   4.610   1.200   7.846  0.1906  0.2973 -0.6758
 6408TIP3    H140783   4.603   1.105   7.833 -0.5355  0.3115 -0.3997
 6408TIP3    H240784   4.570   1.215   7.932 -1.4675  1.0871 -1.5462
 6409TIP3   OH240785   0.707   5.919   1.013  0.3773 -0.0770 -0.4800
 6409TIP3    H140786   0.674   5.885   1.096  1.7598 -0.3185 -0.0157
 6409TIP3    H240787   0.799   5.937   1.029  1.1095 -1.7233 -2.4332
 6410TIP3   OH240788   2.965   4.581   0.158  0.2332 -0.3013 -0.1533
 6410TIP3    H140789   2.946   4.488   0.168  0.4625 -0.4474 -0.9748
 6410TIP3    H240790   2.880   4.622   0.145 -0.0325 -0.1612  1.7649
 6411TIP3   OH240791   6.683   6.690   1.877 -0.0953  0.3183 -0.2056
 6411TIP3    H140792   6.664   6.637   1.954  0.4268 -0.3921 -0.5589
 6411TIP3    H240793   6.755   6.747   1.904  0.0281  0.1327 -0.1484
 6412TIP3   OH240794   0.503   0.739   2.022 -0.0541  0.1934  0.1742
 6412TIP3    H140795   0.545   0.739   2.108  0.9226 -2.8114 -0.2106
 6412TIP3    H240796   0.411   0.719   2.041 -0.1612  0.9995  0.5830
 6413TIP3   OH240797   6.449   4.427   8.563  0.1384  0.1876  0.1136
 6413TIP3    H140798   6.419   4.490   8.629 -0.3960  0.7187 -0.6237
 6413TIP3    H240799   6.543   4.418   8.580 -0.2378 -0.8791  1.9395
 6414TIP3   OH240800   4.626   6.852   7.434 -0.3934 -0.8766 -0.4236
 6414TIP3    H140801   4.629   6.878   7.526 -1.1484 -0.0669 -0.6123
 6414TIP3    H240802   4.708   6.885   7.397 -1.1836  1.0578 -0.5838
 6415TIP3   OH240803   3.628   1.199   0.799 -0.6625 -0.2767 -0.1051
 6415TIP3    H140804   3.650   1.289   0.823 -0.5407 -0.6602  1.2649
 6415TIP3    H240805   3.653   1.146   0.874 -2.4429 -1.2367 -0.1163
 6416TIP3   OH240806   6.109   1.326   8.561  0.2521  0.5572 -0.4172
 6416TIP3    H140807   6.162   1.351   8.636 -2.0206 -2.0590  2.2604
 6416TIP3    H240808   6.042   1.394   8.555 -1.6332 -0.8734  2.3083
 6417TIP3   OH240809   3.304   1.520   7.738  0.3472 -0.0073 -0.2496
 6417TIP3    H140810   3.398   1.535   7.742  0.2894  0.6504 -1.0239
 6417TIP3    H240811   3.284   1.519   7.644 -0.2637 -1.1828 -0.1315
 6418TIP3   OH240812   5.902   5.277   1.042  0.3486 -0.0246  0.1985
 6418TIP3    H140813   5.914   5.184   1.024  1.5572  0.1704 -0.1151
 6418TIP3    H240814   5.816   5.298   1.004 -0.0842 -1.0668  0.5646
 6419TIP3   OH240815   4.927   6.801   2.035  0.2715 -0.0980 -0.4395
 6419TIP3    H140816   4.860   6.737   2.059  0.4521 -0.4495 -0.8776
 6419TIP3    H240817   4.984   6.806   2.112  1.3232 -1.8386 -1.0489
 6420TIP3   OH240818   1.133   5.618   1.443 -1.0853  0.3405  0.6802
 6420TIP3    H140819   1.047   5.634   1.483 -0.6738  0.0993  1.6792
 6420TIP3    H240820   1.152   5.527   1.463 -0.1569  0.6675  1.3274
 6421TIP3   OH240821   1.128   3.477   1.928  0.0926  0.6690 -0.7862
 6421TIP3    H140822   1.055   3.507   1.981 -1.3772 -1.1320 -1.6547
 6421TIP3    H240823   1.119   3.524   1.845 -0.7195 -0.2440 -1.2437
 6422TIP3   OH240824   0.518   1.507   7.598 -0.2332  0.0717 -0.4345
 6422TIP3    H140825   0.607   1.507   7.562  0.0079  1.6140  0.1080
 6422TIP3    H240826   0.463   1.477   7.525  0.7498 -1.3468 -0.6464
 6423TIP3   OH240827   5.997   1.648   1.746 -0.2768  0.1220  0.3877
 6423TIP3    H140828   5.936   1.586   1.787 -0.0210 -0.1411  0.3699
 6423TIP3    H240829   6.046   1.685   1.819  0.1675 -0.3344  0.3226
 6424TIP3   OH240830   2.313   0.049   8.657 -0.1838 -0.5534 -0.3376
 6424TIP3    H140831   2.359   0.073   8.738 -0.4754  0.2417 -0.3973
 6424TIP3    H240832   2.223   0.032   8.684 -1.4803  4.0110 -0.9830
 6425TIP3   OH240833   5.135   4.612   1.398 -0.0554  0.2906  1.0276
 6425TIP3    H140834   5.163   4.558   1.472  1.4041  1.6478  1.5157
 6425TIP3    H240835   5.080   4.679   1.436  0.8270  1.0851  0.9361
 6426TIP3   OH240836   2.515   0.802   1.289 -0.3142  0.0199 -0.1234
 6426TIP3    H140837   2.483   0.830   1.203 -0.5560  0.8206  0.2157
 6426TIP3    H240838   2.589   0.744   1.269  0.4435  1.1954 -0.8633
 6427TIP3   OH240839   4.839   6.137   0.415 -0.2821 -0.9279 -0.0166
 6427TIP3    H140840   4.862   6.160   0.505 -2.4977 -0.0682  0.3737
 6427TIP3    H240841   4.873   6.209   0.362 -1.7195  0.1606  0.5091
 6428TIP3   OH240842   5.630   0.182   7.392  0.5783 -0.2564  0.1254
 6428TIP3    H140843   5.724   0.170   7.378  0.0831 -1.8102 -2.4576
 6428TIP3    H240844   5.601   0.234   7.317 -0.9247 -1.3805 -0.1081
 6429TIP3   OH240845   5.787   5.280   0.352  0.1634 -0.2008  0.6076
 6429TIP3    H140846   5.869   5.269   0.401  0.2641  1.2695  0.8127
 6429TIP3    H240847   5.816   5.309   0.265 -0.1421  0.6922  0.7976
 6430TIP3   OH240848   2.143   2.713   1.802  0.3930  0.0248  0.1186
 6430TIP3    H140849   2.107   2.682   1.885  0.9421  0.6880  0.6198
 6430TIP3    H240850   2.076   2.771   1.766 -0.0369 -0.6216 -0.1258
 6431TIP3   OH240851   1.262   1.189   7.461  0.0487 -0.1233 -0.0993
 6431TIP3    H140852   1.310   1.137   7.397  0.3809  1.0311 -0.8159
 6431TIP3    H240853   1.201   1.242   7.409  0.0811  0.5785  0.5477
 6432TIP3   OH240854   4.496   4.979   8.350  0.1071  0.2287  0.2040
 6432TIP3    H140855   4.481   5.041   8.421 -0.7880  1.4885 -1.0349
 6432TIP3    H240856   4.460   5.022   8.272  0.7968 -1.2243 -0.9710
 6433TIP3   OH240857   0.298   4.607   8.446 -0.0332 -0.2795 -0.4644
 6433TIP3    H140858   0.268   4.621   8.536 -0.8819  0.5277 -0.8585
 6433TIP3    H240859   0.393   4.620   8.451  0.0546 -1.1140  0.4699
 6434TIP3   OH240860   2.053   6.304   6.256 -0.3030 -0.3836  0.0512
 6434TIP3    H140861   1.963   6.335   6.244 -0.3717 -1.3616 -2.4126
 6434TIP3    H240862   2.108   6.378   6.229 -0.3207  0.2763  1.7242
 6435TIP3   OH240863   1.004   4.295   6.956 -0.5066 -0.4574 -0.2891
 6435TIP3    H140864   0.986   4.316   6.865  0.5219  2.4109  0.0674
 6435TIP3    H240865   0.918   4.301   6.999 -0.9954 -1.8250 -1.0180
 6436TIP3   OH240866   4.798   0.135   0.068 -0.2765  0.5960  0.1976
 6436TIP3    H140867   4.862   0.103   0.004 -0.6093 -0.6145  0.4407
 6436TIP3    H240868   4.815   0.229   0.074 -1.4336  1.1152 -3.0210
 6437TIP3   OH240869   1.374   6.140   0.711  0.6207  0.9376 -0.4570
 6437TIP3    H140870   1.305   6.163   0.649  0.3669 -2.2271 -1.5604
 6437TIP3    H240871   1.456   6.154   0.663  0.4722 -0.1816 -1.0886
 6438TIP3   OH240872   0.060   1.016   1.072  0.6021 -0.2056  0.1482
 6438TIP3    H140873   0.040   1.047   0.984 -0.3978  2.1042  1.1002
 6438TIP3    H240874   0.145   1.054   1.093  0.6663 -0.4368  0.3164
 6439TIP3   OH240875   1.035   3.802   0.158  0.0743  0.4763  0.2771
 6439TIP3    H140876   1.014   3.708   0.160  0.1376  0.4581  0.1201
 6439TIP3    H240877   0.954   3.843   0.129  0.1140  0.4474  0.1200
 6440TIP3   OH240878   0.779   0.220   6.552  0.2549  0.7484  0.2443
 6440TIP3    H140879   0.866   0.185   6.568  0.5962  1.0739 -0.8579
 6440TIP3    H240880   0.794   0.306   6.512 -0.5500  0.2319 -1.2089
 6441TIP3   OH240881   1.559   1.329   1.943  0.0192 -0.0687  0.0812
 6441TIP3    H140882   1.508   1.271   1.888  1.1245 -1.1238  0.1384
 6441TIP3    H240883   1.606   1.271   2.003 -0.5188  0.9985  1.6085
 6442TIP3   OH240884   5.783   3.435   2.105 -0.0572  0.2964 -0.4412
 6442TIP3    H140885   5.702   3.384   2.102 -0.4889  0.9901 -0.7245
 6442TIP3    H240886   5.852   3.371   2.085 -0.7795  0.2207 -3.0471
 6443TIP3   OH240887   0.040   0.609   8.067  0.5966 -0.3901  0.4517
 6443TIP3    H140888   0.074   0.698   8.059  0.7321 -0.5709 -1.3681
 6443TIP3    H240889  -0.002   0.607   8.153  0.1474  1.5830  0.3206
 6444TIP3   OH240890   2.383   1.700   0.912  0.0564 -0.5121 -0.6523
 6444TIP3    H140891   2.456   1.762   0.913  0.5814 -1.0785  1.9175
 6444TIP3    H240892   2.425   1.614   0.913 -0.6852 -0.9270 -2.0393
 6445TIP3   OH240893   5.284   4.616   0.929  0.0578  0.1344 -0.2976
 6445TIP3    H140894   5.239   4.700   0.929  0.1908  0.2103  0.1781
 6445TIP3    H240895   5.376   4.638   0.943  0.0387 -0.1157  0.2485
 6446TIP3   OH240896   2.657   1.905   6.878 -0.1893 -0.7443  0.0415
 6446TIP3    H140897   2.687   1.993   6.899 -0.3823 -0.8611  0.8420
 6446TIP3    H240898   2.626   1.911   6.788 -0.1684 -0.0012  0.0803
 6447TIP3   OH240899   4.928   2.500   8.429  0.0286 -0.1365 -0.4164
 6447TIP3    H140900   4.897   2.587   8.405 -0.1589 -0.0304  0.1817
 6447TIP3    H240901   4.873   2.475   8.503 -0.6051 -1.1832 -1.2084
 6448TIP3   OH240902   0.844   3.370   8.106 -0.3902 -0.6727  0.4461
 6448TIP3    H140903   0.839   3.465   8.117  0.0088 -0.4922 -0.8308
 6448TIP3    H240904   0.834   3.335   8.195 -1.7678  0.5001  0.7906
 6449TIP3   OH240905   1.788   1.346   1.041 -1.1398  0.0325 -0.6960
 6449TIP3    H140906   1.794   1.338   1.136  1.8560  0.6209 -0.7259
 6449TIP3    H240907   1.750   1.433   1.028 -1.1116  0.1587 -0.0137
 6450TIP3   OH240908   4.225   4.221   1.070  0.1785 -0.6867  0.0013
 6450TIP3    H140909   4.241   4.265   1.154  0.2001  0.1007 -0.4034
 6450TIP3    H240910   4.134   4.243   1.048  0.1657 -0.9053 -0.1656
 6451TIP3   OH240911   5.724   5.377   8.086 -0.2306 -0.5656 -0.3212
 6451TIP3    H140912   5.787   5.415   8.147 -1.1374  0.8620 -0.2405
 6451TIP3    H240913   5.766   5.297   8.054  1.3953  0.0936  0.1116
 6452TIP3   OH240914   2.876   5.189   0.519  0.0138  0.7153  0.4579
 6452TIP3    H140915   2.910   5.198   0.608  2.1991  1.5927 -0.3941
 6452TIP3    H240916   2.943   5.228   0.463 -0.2331 -1.7556 -1.7813
 6453TIP3   OH240917   2.158   6.325   0.453  0.2191  0.2945 -0.7919
 6453TIP3    H140918   2.125   6.237   0.432 -2.9905  1.2990 -0.5434
 6453TIP3    H240919   2.172   6.323   0.547 -0.6196  0.2317 -0.6571
 6454TIP3   OH240920   0.451   6.456   0.171 -0.2544 -0.5022 -0.3704
 6454TIP3    H140921   0.503   6.421   0.244 -2.1445 -0.8968  0.8481
 6454TIP3    H240922   0.464   6.551   0.175  0.3000 -0.5883 -0.0509
 6455TIP3   OH240923   0.840   5.490   6.657 -0.3128 -0.3378  0.0676
 6455TIP3    H140924   0.753   5.470   6.623 -0.4256  0.7010 -0.2977
 6455TIP3    H240925   0.825   5.557   6.724 -0.0109 -1.7816  1.6445
 6456TIP3   OH240926   2.825   2.052   0.856  0.1882 -0.2871  0.0237
 6456TIP3    H140927   2.879   2.029   0.781 -1.2410 -0.6265 -0.9321
 6456TIP3    H240928   2.747   1.997   0.848 -0.4022  0.3285  1.2401
 6457TIP3   OH240929   1.242   4.465   8.649  0.3500  0.2903 -0.2102
 6457TIP3    H140930   1.182   4.540   8.656 -0.1363 -0.1957  1.0993
 6457TIP3    H240931   1.329   4.505   8.641  0.2030  1.0317  1.4680
 6458TIP3   OH240932   5.879   3.188   8.470 -0.4872 -0.0016 -0.2699
 6458TIP3    H140933   5.793   3.228   8.460 -0.1459  0.4711 -1.5390
 6458TIP3    H240934   5.921   3.239   8.540 -0.8786  0.4160 -0.3349
 6459TIP3   OH240935   6.263   1.878   1.386  0.1513  0.1541  0.1928
 6459TIP3    H140936   6.205   1.814   1.426  0.7951 -0.8746 -0.4836
 6459TIP3    H240937   6.304   1.832   1.313  1.6805  0.9041  0.5272
 6460TIP3   OH240938   4.132   5.075   1.650 -0.2823  0.3874  0.1438
 6460TIP3    H140939   4.113   5.166   1.627  1.2951  1.3369  2.3517
 6460TIP3    H240940   4.098   5.065   1.739  1.6898 -0.4005  0.8670
 6461TIP3   OH240941   6.207   4.466   1.837 -0.2018  0.5981  0.0207
 6461TIP3    H140942   6.186   4.513   1.756  0.0491 -0.8808 -0.9395
 6461TIP3    H240943   6.296   4.433   1.822  0.2017  1.0654  1.2885
 6462TIP3   OH240944   2.137   2.854   0.195 -0.4732 -0.0980 -0.4855
 6462TIP3    H140945   2.182   2.796   0.256  0.4076 -0.3372 -1.3525
 6462TIP3    H240946   2.059   2.883   0.244  0.2989 -0.1285  0.8164
 6463TIP3   OH240947   2.382   2.799   7.632 -0.2373 -0.5276 -0.3732
 6463TIP3    H140948   2.334   2.843   7.703  0.4363  3.8469 -2.3052
 6463TIP3    H240949   2.320   2.797   7.559  0.8270  0.4247 -1.3406
 6464TIP3   OH240950   0.076   1.408   1.079  0.3948 -0.2797  0.4478
 6464TIP3    H140951   0.057   1.381   1.168 -0.1597 -1.4366 -0.0021
 6464TIP3    H240952   0.165   1.445   1.083  0.2108  0.0873  1.5372
 6465TIP3   OH240953   2.234   0.994   2.103  0.4819 -0.3493 -0.2075
 6465TIP3    H140954   2.182   1.040   2.168  0.0761 -0.6841 -0.2942
 6465TIP3    H240955   2.282   1.064   2.057 -1.3163  0.1569 -1.3947
 6466TIP3   OH240956   6.498   0.734   0.936  0.2972 -0.1174 -0.3720
 6466TIP3    H140957   6.564   0.691   0.882  0.3148 -0.1624 -0.3141
 6466TIP3    H240958   6.418   0.685   0.919 -0.2555  1.2922 -2.1761
 6467TIP3   OH240959   2.374   6.643   8.569  0.1634 -0.4575 -0.6131
 6467TIP3    H140960   2.314   6.645   8.494 -0.3845 -0.8178 -0.1895
 6467TIP3    H240961   2.456   6.678   8.534 -1.0423  2.9304 -0.5105
 6468TIP3   OH240962   5.219   2.933   6.622 -0.2005 -0.2233  0.1558
 6468TIP3    H140963   5.248   2.894   6.539 -0.1861 -1.5133  0.7439
 6468TIP3    H240964   5.127   2.910   6.628 -0.3505  0.3879  0.2190
 6469TIP3   OH240965   4.007   1.288   1.423 -0.2467 -0.4432 -0.5249
 6469TIP3    H140966   3.937   1.223   1.418  0.6672 -1.5130 -0.1642
 6469TIP3    H240967   4.085   1.241   1.392  0.2931  0.7337 -0.9931
 6470TIP3   OH240968   3.825   1.971   1.329  0.1561  0.1156 -0.4850
 6470TIP3    H140969   3.841   1.903   1.264 -1.7769 -1.1740  0.3083
 6470TIP3    H240970   3.904   1.971   1.383  0.2753 -1.3961 -0.6093
 6471TIP3   OH240971   0.280   6.584   2.724  0.3356 -0.4822 -0.1732
 6471TIP3    H140972   0.185   6.591   2.721  0.3824  2.0585  0.9968
 6471TIP3    H240973   0.299   6.494   2.697 -2.4475 -1.4569  0.7593
 6472TIP3   OH240974   2.007   3.106   7.505  0.1588 -0.1269  0.0984
 6472TIP3    H140975   1.914   3.124   7.522 -0.4830 -2.6669 -0.3244
 6472TIP3    H240976   2.049   3.192   7.508 -2.1119  1.0327  0.8288
 6473TIP3   OH240977   1.472   4.637   7.023  0.1403 -0.0126  0.4686
 6473TIP3    H140978   1.425   4.717   7.044 -0.5566 -0.2211 -0.2649
 6473TIP3    H240979   1.404   4.570   7.017  0.8602 -1.1438  3.1228
 6474TIP3   OH240980   1.079   3.949   8.391  0.0465  0.1200 -0.2731
 6474TIP3    H140981   0.997   3.973   8.435 -0.1674 -1.0312 -0.0115
 6474TIP3    H240982   1.061   3.963   8.298 -0.5935 -0.5111 -0.2530
 6475TIP3   OH240983   2.258   3.347   0.507 -0.4785 -0.0539  0.2458
 6475TIP3    H140984   2.351   3.333   0.524 -0.0280  1.4614 -0.7286
 6475TIP3    H240985   2.249   3.335   0.412 -1.5873 -1.6602  0.5243
 6476TIP3   OH240986   1.902   1.504   8.398  0.3305 -0.1003 -0.2500
 6476TIP3    H140987   1.940   1.420   8.424 -2.3071 -0.5547  2.6930
 6476TIP3    H240988   1.938   1.567   8.461 -0.1434  0.3511 -0.4266
 6477TIP3   OH240989   1.990   1.971   7.032  0.5666  0.6250 -0.0206
 6477TIP3    H140990   2.069   1.950   6.982 -0.6311  0.1752 -1.7948
 6477TIP3    H240991   1.936   1.893   7.027 -0.4480  1.2842  0.2502
 6478TIP3   OH240992   3.304   5.840   1.435 -0.0292 -0.1740 -0.0421
 6478TIP3    H140993   3.334   5.931   1.441  1.1194 -0.6274  2.1812
 6478TIP3    H240994   3.209   5.846   1.440  0.0798  0.8745  1.8615
 6479TIP3   OH240995   1.814   1.763   6.926  0.4239 -0.2217 -0.2840
 6479TIP3    H140996   1.784   1.691   6.982  2.3099 -0.9298 -0.0894
 6479TIP3    H240997   1.860   1.720   6.854 -0.4833  0.7494 -1.4883
 6480TIP3   OH240998   3.869   1.352   8.318  0.2428  0.0958  0.4191
 6480TIP3    H140999   3.790   1.390   8.279  0.3396 -0.4796 -0.3578
 6480TIP3    H241000   3.863   1.259   8.299  0.3391 -0.1924  1.7364
 6481TIP3   OH241001   6.760   4.099   1.128 -0.2461 -0.2788 -0.1062
 6481TIP3    H141002   6.847   4.060   1.139  1.2733  0.9557 -5.0882
 6481TIP3    H241003   6.767   4.185   1.169  0.9280 -0.1884 -0.4497
 6482TIP3   OH241004   1.918   3.309   6.838  0.3525  0.0465  0.3618
 6482TIP3    H141005   1.851   3.337   6.901  0.5624 -3.0281  2.1194
 6482TIP3    H241006   1.868   3.272   6.765  0.1626  1.0128 -0.0265
 6483TIP3   OH241007   2.154   6.747   8.089 -0.0598 -0.4007  0.3024
 6483TIP3    H141008   2.072   6.776   8.129 -0.6150 -1.1135 -0.2833
 6483TIP3    H241009   2.129   6.673   8.035  0.9553 -0.5250 -0.0187
 6484TIP3   OH241010   4.820   0.645   1.032 -0.1512  0.8529  0.8352
 6484TIP3    H141011   4.827   0.637   1.127 -1.4768 -0.8386  0.8433
 6484TIP3    H241012   4.889   0.587   0.998 -2.7702 -2.6369  0.8800
 6485TIP3   OH241013   6.744   6.666   6.887  0.0064  0.5091 -0.5352
 6485TIP3    H141014   6.752   6.686   6.981  1.1544  0.5548 -0.6309
 6485TIP3    H241015   6.665   6.712   6.860 -2.7966 -2.7572  1.2622
 6486TIP3   OH241016   4.098   1.191   7.446  0.1154  0.0094 -0.0133
 6486TIP3    H141017   4.121   1.121   7.506  1.2959  0.5530  0.2095
 6486TIP3    H241018   4.133   1.163   7.361 -1.5579 -0.7634 -0.4896
 6487TIP3   OH241019   5.858   5.355   0.076 -0.2654  0.1087 -0.0590
 6487TIP3    H141020   5.908   5.334  -0.003  0.1537  2.9928 -0.6659
 6487TIP3    H241021   5.777   5.393   0.044 -1.4106 -1.3563  0.9526
 6488TIP3   OH241022   6.806   4.204   8.298 -0.1860 -0.3838  0.3545
 6488TIP3    H141023   6.748   4.273   8.264 -0.8893 -0.7272  0.8285
 6488TIP3    H241024   6.891   4.224   8.260 -0.1871  1.2153  1.1125
 6489TIP3   OH241025   3.782   3.568   7.773 -0.0795  0.0088  0.4474
 6489TIP3    H141026   3.833   3.648   7.788 -1.7894  0.8988  1.8760
 6489TIP3    H241027   3.753   3.576   7.682 -0.4201  1.1428  0.6373
 6490TIP3   OH241028   2.922   3.855   2.074 -0.0253 -0.5213 -0.7776
 6490TIP3    H141029   2.834   3.894   2.076  0.4374  0.5313 -0.0931
 6490TIP3    H241030   2.912   3.773   2.122 -0.6527 -0.4273 -0.7332
 6491TIP3   OH241031   3.060   5.541   7.372 -0.3242 -0.1107 -0.1430
 6491TIP3    H141032   3.111   5.622   7.367  0.2375 -0.4808 -0.5225
 6491TIP3    H241033   2.979   5.559   7.324 -0.8626  0.7005  1.0196
 6492TIP3   OH241034   2.451   0.276   6.906  0.1215 -0.2411 -0.1043
 6492TIP3    H141035   2.508   0.289   6.981 -1.1399 -0.1478  0.8796
 6492TIP3    H241036   2.417   0.364   6.886  2.0250  0.1083 -2.1440
 6493TIP3   OH241037   4.754   2.143   8.373  0.3423 -0.6108 -0.2607
 6493TIP3    H141038   4.666   2.108   8.387  1.4727 -3.3255  0.8376
 6493TIP3    H241039   4.778   2.182   8.457  0.5784 -0.8264 -0.2278
 6494TIP3   OH241040   4.008   1.478   6.730  0.6803 -0.2542 -0.4939
 6494TIP3    H141041   4.067   1.405   6.746  0.7138 -0.1970 -0.3548
 6494TIP3    H241042   4.053   1.531   6.665  0.5005 -0.5376 -0.8527
 6495TIP3   OH241043   3.743   6.602   1.309  0.0810  0.4756 -0.4356
 6495TIP3    H141044   3.820   6.545   1.298 -0.6277 -0.8491  1.0996
 6495TIP3    H241045   3.697   6.595   1.225  1.2538  0.7658 -1.1441
 6496TIP3   OH241046   4.001   4.391   2.059 -0.1250  0.6240 -0.2096
 6496TIP3    H141047   3.937   4.426   2.121  0.3996  1.4395 -0.1087
 6496TIP3    H241048   3.948   4.355   1.987 -0.7295 -0.1444  0.6014
 6497TIP3   OH241049   1.919   2.736   7.615  0.1351 -0.0744  0.2860
 6497TIP3    H141050   1.920   2.642   7.600  0.1330 -0.0496  0.1294
 6497TIP3    H241051   1.963   2.773   7.538 -0.0299  0.0644  0.2569
 6498TIP3   OH241052   2.977   4.366   8.423  0.2812 -0.0849 -0.0736
 6498TIP3    H141053   2.888   4.367   8.389  1.3164  0.3734 -3.0332
 6498TIP3    H241054   3.012   4.452   8.402  1.4773 -0.2831  0.9852
 6499TIP3   OH241055   3.217   2.714   0.144 -0.2282  0.5548  0.7843
 6499TIP3    H141056   3.253   2.787   0.195  1.1148 -0.0915  0.7923
 6499TIP3    H241057   3.127   2.704   0.176 -0.7082  2.6615  0.2859
 6500TIP3   OH241058   3.723   2.012   2.139 -0.0401 -0.4014 -0.3050
 6500TIP3    H141059   3.722   2.030   2.045  0.3659  0.3689 -0.1705
 6500TIP3    H241060   3.795   1.949   2.151  0.6663  0.3699 -0.3756
 6501TIP3   OH241061   4.097   1.738   0.168 -0.2855  0.4607 -0.3813
 6501TIP3    H141062   4.185   1.765   0.195 -0.2194  0.1789 -0.3124
 6501TIP3    H241063   4.038   1.794   0.219 -0.1506  0.4407 -0.2017
 6502TIP3   OH241064   1.153   5.856   2.399  0.6615  0.9862 -0.5153
 6502TIP3    H141065   1.221   5.834   2.462 -0.1866  1.0554  0.4671
 6502TIP3    H241066   1.181   5.939   2.361  1.1010  1.0312 -0.1009
 6503TIP3   OH241067   2.343   6.311   2.153 -0.7695  0.1248  0.2203
 6503TIP3    H141068   2.263   6.264   2.130  0.0065 -0.4521 -1.3861
 6503TIP3    H241069   2.316   6.403   2.155 -1.4060 -0.0328 -0.6037
 6504TIP3   OH241070   3.676   6.356   1.856  0.5563  0.0353 -0.1922
 6504TIP3    H141071   3.763   6.391   1.873  0.1474  1.6399 -1.1712
 6504TIP3    H241072   3.682   6.314   1.770 -0.0418  1.8339 -1.1674
 6505TIP3   OH241073   4.070   3.960   7.574 -0.0594  0.3533  0.4845
 6505TIP3    H141074   4.132   3.897   7.538 -0.0646  0.2487  0.6586
 6505TIP3    H241075   4.087   4.041   7.526 -0.6369 -0.0070 -0.3433
 6506TIP3   OH241076   4.456   6.485   2.634 -0.2767 -0.3080 -0.5393
 6506TIP3    H141077   4.470   6.432   2.713  0.3867 -0.6035 -0.8459
 6506TIP3    H241078   4.505   6.439   2.566  0.7035  0.9362 -0.7120
 6507TIP3   OH241079   2.992   4.190   7.307 -0.2548  0.6705 -0.4841
 6507TIP3    H141080   3.064   4.152   7.357  1.1649 -1.0061 -3.5215
 6507TIP3    H241081   3.032   4.219   7.225 -2.9541  0.0480 -2.1539
 6508TIP3   OH241082   5.154   2.605   7.649  0.0351 -0.6938 -0.4734
 6508TIP3    H141083   5.083   2.650   7.603  0.0152 -0.5290 -0.2818
 6508TIP3    H241084   5.231   2.657   7.629 -0.1494 -0.0162  0.5373
 6509TIP3   OH241085   5.129   2.800   0.747 -0.0036 -0.2548 -0.0881
 6509TIP3    H141086   5.121   2.839   0.833 -0.7264 -0.2818 -0.1394
 6509TIP3    H241087   5.141   2.706   0.764 -0.6753 -0.3317 -0.0305
 6510TIP3   OH241088   1.353   2.504   8.136 -0.1977 -0.4515 -0.4790
 6510TIP3    H141089   1.339   2.494   8.042 -0.4904  0.8647 -0.5960
 6510TIP3    H241090   1.416   2.576   8.142 -2.0269  1.1528  0.3816
 6511TIP3   OH241091   3.452   2.888   0.920  0.1504 -0.1896  0.4859
 6511TIP3    H141092   3.536   2.919   0.887 -0.1535  2.0830  1.6521
 6511TIP3    H241093   3.388   2.922   0.858 -0.0853  0.2923  0.9880
 6512TIP3   OH241094   1.921   6.543   6.921 -0.2464 -0.0161  0.0508
 6512TIP3    H141095   1.839   6.495   6.910 -0.7593  0.6870  0.6674
 6512TIP3    H241096   1.925   6.563   7.014 -0.2735  1.4947 -0.2445
 6513TIP3   OH241097   0.995   1.728   6.859 -0.6814  0.1764 -0.1152
 6513TIP3    H141098   1.011   1.636   6.840  2.8192  0.4693  0.8308
 6513TIP3    H241099   1.072   1.757   6.906 -2.1741  3.3553  0.6480
 6514TIP3   OH241100   1.835   5.041   0.939  0.2064  0.4908  0.4075
 6514TIP3    H141101   1.853   5.048   0.846 -2.3321 -1.6951 -0.3605
 6514TIP3    H241102   1.911   4.997   0.976  0.2622 -0.7142 -1.0854
 6515TIP3   OH241103   1.406   0.252   8.175 -0.0146 -0.2790 -0.1663
 6515TIP3    H141104   1.405   0.218   8.265 -0.8778 -0.3698 -0.2051
 6515TIP3    H241105   1.464   0.192   8.128  2.3932  1.0978  0.8198
 6516TIP3   OH241106   5.018   3.633   8.534  0.6831  0.6803 -0.3738
 6516TIP3    H141107   5.071   3.620   8.613 -1.1322  0.0061  0.8026
 6516TIP3    H241108   5.043   3.562   8.476  0.7560  0.1074  0.3440
 6517TIP3   OH241109   5.260   3.277   0.465  0.0731  0.2417  0.4822
 6517TIP3    H141110   5.258   3.190   0.427  0.1814  1.0288 -1.4244
 6517TIP3    H241111   5.261   3.336   0.390 -0.8460  1.9154  1.7206
 6518TIP3   OH241112   0.502   4.619   6.504 -0.8108  0.2411  0.5234
 6518TIP3    H141113   0.458   4.601   6.587 -1.4000 -3.2746 -0.3840
 6518TIP3    H241114   0.431   4.633   6.441 -0.5807 -1.3576 -0.1466
 6519TIP3   OH241115   2.785   4.792   0.757 -0.7263  0.2794 -0.2791
 6519TIP3    H141116   2.792   4.759   0.847 -1.9471  1.4113  0.2669
 6519TIP3    H241117   2.855   4.858   0.751  0.3972 -0.9060 -0.7144
 6520TIP3   OH241118   4.486   5.280   1.610 -0.4085  0.5507  0.5280
 6520TIP3    H141119   4.432   5.227   1.669 -0.6665 -1.5625 -1.4637
 6520TIP3    H241120   4.436   5.361   1.598 -2.3077 -0.6282  0.1307
 6521TIP3   OH241121   3.039   1.884   7.811 -0.5489 -0.2201 -0.0941
 6521TIP3    H141122   3.111   1.917   7.757 -0.7513  1.3089  0.5259
 6521TIP3    H241123   3.071   1.893   7.901 -0.8314 -1.2610  0.1308
 6522TIP3   OH241124   3.167   2.647   8.068 -0.3639 -0.1710  0.9323
 6522TIP3    H141125   3.227   2.708   8.026 -0.7766  0.3555  1.1005
 6522TIP3    H241126   3.082   2.668   8.031 -0.3148 -1.5613 -0.0289
 6523TIP3   OH241127   2.045   3.053   6.881 -0.0412  0.1616 -0.3532
 6523TIP3    H141128   2.043   3.008   6.796  2.4769 -1.7327  0.4732
 6523TIP3    H241129   2.015   3.142   6.861 -2.7504 -1.0978 -2.5595
 6524TIP3   OH241130   4.480   6.014   2.690 -0.6675  0.3827  1.1278
 6524TIP3    H141131   4.498   5.922   2.711 -1.4901 -0.1854 -0.4813
 6524TIP3    H241132   4.404   6.036   2.743 -1.3217 -0.3224  0.5173
 6525TIP3   OH241133   1.774   6.770   0.800  0.3196 -0.0331 -0.5393
 6525TIP3    H141134   1.837   6.778   0.728  0.3014 -0.2707 -0.5823
 6525TIP3    H241135   1.713   6.842   0.787  0.8017  0.4244 -0.2812
 6526TIP3   OH241136   0.984   1.416   0.472  0.2782  0.1228  0.1498
 6526TIP3    H141137   0.899   1.458   0.463  0.7942  0.9674 -1.0459
 6526TIP3    H241138   1.004   1.382   0.385  1.2280  0.0483  0.3757
 6527TIP3   OH241139   0.042   6.457   7.652  0.1017  0.7593  0.1328
 6527TIP3    H141140  -0.026   6.524   7.654 -0.7105 -0.0422 -0.0963
 6527TIP3    H241141  -0.005   6.374   7.665  0.8927  0.0882 -1.1114
 6528TIP3   OH241142   2.748   0.929   0.948 -0.8598  0.0336  0.0799
 6528TIP3    H141143   2.809   1.001   0.937 -0.8363 -0.1100 -0.8478
 6528TIP3    H241144   2.781   0.880   1.023 -0.5898  0.6984  0.3995
 6529TIP3   OH241145   2.393   1.618   6.871  0.3485  0.2167  0.7413
 6529TIP3    H141146   2.445   1.640   6.949 -0.2193  1.6303  0.7507
 6529TIP3    H241147   2.455   1.623   6.799  0.6389 -0.0137  0.9683
 6530TIP3   OH241148   1.620   0.542   8.361  0.1429 -0.0483 -0.3949
 6530TIP3    H141149   1.637   0.450   8.383  0.3800  0.0213 -0.2815
 6530TIP3    H241150   1.540   0.540   8.308  0.7509 -0.4239 -1.3145
 6531TIP3   OH241151   5.254   3.078   0.002 -0.4648  0.3777  0.2865
 6531TIP3    H141152   5.337   3.038  -0.022 -0.6437 -0.5223  1.1132
 6531TIP3    H241153   5.210   3.012   0.055 -0.2818  2.0863  2.7217
 6532TIP3   OH241154   5.420   0.639   8.520 -0.0825  0.0215 -0.0217
 6532TIP3    H141155   5.508   0.659   8.488 -0.0759  2.3620  1.1885
 6532TIP3    H241156   5.427   0.552   8.558  1.7460  0.1606  0.0615
 6533TIP3   OH241157   2.697   5.029   1.183 -0.0860  0.1823 -0.1628
 6533TIP3    H141158   2.643   4.992   1.253 -1.2386  0.4380 -0.9028
 6533TIP3    H241159   2.638   5.084   1.133  1.3430  2.1972  0.2463
 6534TIP3   OH241160   3.268   1.581   2.477 -0.6896 -0.0386  0.2178
 6534TIP3    H141161   3.228   1.644   2.537 -0.3106  0.6620 -0.2580
 6534TIP3    H241162   3.359   1.577   2.505 -0.6245 -0.0849 -0.0050
 6535TIP3   OH241163   5.674   6.033   7.465  0.6091 -0.3644 -0.4842
 6535TIP3    H141164   5.716   5.969   7.523  0.4973 -0.0468 -0.0464
 6535TIP3    H241165   5.733   6.108   7.467 -1.1557  1.1241  2.1790
 6536TIP3   OH241166   0.733   4.459   7.512 -0.6214  0.3553  0.6081
 6536TIP3    H141167   0.711   4.390   7.449  2.0161 -0.1991  0.1778
 6536TIP3    H241168   0.656   4.516   7.513 -1.3583 -0.4466 -1.9976
 6537TIP3   OH241169   3.389   6.737   2.346  0.1838 -0.3003  0.2772
 6537TIP3    H141170   3.297   6.714   2.333 -0.1854  0.2302  1.7069
 6537TIP3    H241171   3.410   6.706   2.434  1.0259  0.6018  0.4210
 6538TIP3   OH241172   5.562   4.257   7.767  0.4316 -0.4737 -0.2922
 6538TIP3    H141173   5.617   4.322   7.812 -0.9806 -0.1021  0.9627
 6538TIP3    H241174   5.601   4.173   7.789  0.6222 -0.2054  0.4048
 6539TIP3   OH241175   6.428   0.360   1.196  0.5835 -0.0712  0.7178
 6539TIP3    H141176   6.391   0.295   1.256 -0.7511 -0.3585 -0.3547
 6539TIP3    H241177   6.371   0.436   1.204 -0.5638 -0.6327 -1.1898
 6540TIP3   OH241178   3.628   4.282   6.676 -0.4057  0.0244 -0.0161
 6540TIP3    H141179   3.716   4.317   6.692 -0.9643  1.0703  0.9552
 6540TIP3    H241180   3.634   4.238   6.592  1.1484 -0.2669  0.2225
 6541TIP3   OH241181   0.136   6.821   0.344  0.4931 -0.0293 -0.0915
 6541TIP3    H141182   0.172   6.898   0.300  0.3531  0.1845  0.1573
 6541TIP3    H241183   0.090   6.857   0.421  0.0501 -0.3221 -0.2129
 6542TIP3   OH241184   5.733   0.697   0.671  0.7798  0.4176  0.1865
 6542TIP3    H141185   5.766   0.770   0.725  1.8855 -0.0719  0.2103
 6542TIP3    H241186   5.788   0.699   0.593  0.9247 -0.4773  0.2587
 6543TIP3   OH241187   0.185   6.397   0.172  0.6256  0.3509  0.1772
 6543TIP3    H141188   0.277   6.422   0.183  0.2482  1.0517  1.9640
 6543TIP3    H241189   0.154   6.453   0.101  1.2903  0.9025  0.3090
 6544TIP3   OH241190   0.950   3.441   7.839 -0.3847 -0.3770  0.5194
 6544TIP3    H141191   0.994   3.515   7.880  2.9268 -0.2072 -2.7759
 6544TIP3    H241192   1.000   3.364   7.867 -0.1096 -0.6196 -0.5925
 6545TIP3   OH241193   5.820   0.951   0.265 -0.3175 -0.2448 -0.1877
 6545TIP3    H141194   5.832   0.953   0.360  2.1026  0.0255 -0.4311
 6545TIP3    H241195   5.764   1.027   0.246 -0.3613  0.0221  0.9757
 6546TIP3   OH241196   3.474   3.776   0.080  0.0030  0.1841 -0.4614
 6546TIP3    H141197   3.509   3.813   0.161  2.0920  0.4802 -1.4263
 6546TIP3    H241198   3.518   3.692   0.071 -0.9917 -0.3249 -0.7900
 6547TIP3   OH241199   4.288   0.438   6.870 -0.3080 -0.1843 -0.3523
 6547TIP3    H141200   4.370   0.431   6.919 -0.5728 -0.5034  0.0589
 6547TIP3    H241201   4.227   0.383   6.919 -0.5717 -0.5447 -1.0746
 6548TIP3   OH241202   1.632   4.517   8.667  0.3093  0.3886  0.5724
 6548TIP3    H141203   1.566   4.509   8.736 -2.1851  0.1642 -1.6900
 6548TIP3    H241204   1.651   4.611   8.663 -0.8823  0.6420  0.4102
 6549TIP3   OH241205   5.477   0.206   1.042 -0.4581 -0.2590 -0.3843
 6549TIP3    H141206   5.416   0.216   0.969  0.6782  0.8811 -1.2116
 6549TIP3    H241207   5.518   0.292   1.052  1.0031 -0.9813  0.1521
 6550TIP3   OH241208   1.200   4.746   0.994 -0.0243 -0.3186  0.1418
 6550TIP3    H141209   1.125   4.781   1.042  0.2898 -1.0352  1.1799
 6550TIP3    H241210   1.162   4.704   0.917 -0.5733  0.4493 -0.0169
 6551TIP3   OH241211   2.204   5.125   0.143 -0.0885  0.0423 -0.3628
 6551TIP3    H141212   2.272   5.083   0.196  1.1228  2.4540  0.1611
 6551TIP3    H241213   2.144   5.162   0.207  1.4171  3.0380 -0.4639
 6552TIP3   OH241214   1.929   5.626   0.605  0.2014  0.2861  0.8643
 6552TIP3    H141215   1.955   5.603   0.516 -0.6777  0.5699  0.5220
 6552TIP3    H241216   1.904   5.542   0.645  0.4840  0.1738  0.8065
 6553TIP3   OH241217   3.799   1.918   6.498  0.6541  0.1375  0.5090
 6553TIP3    H141218   3.712   1.883   6.479  0.9173 -0.0328 -0.4592
 6553TIP3    H241219   3.841   1.924   6.412  0.5794  2.9597  0.5775
 6554TIP3   OH241220   1.655   2.228   0.801  0.0118  0.0014 -0.1398
 6554TIP3    H141221   1.740   2.186   0.812 -0.4401 -1.1609 -0.8518
 6554TIP3    H241222   1.664   2.314   0.844  1.7426  0.1834 -0.7945
 6555TIP3   OH241223   5.976   0.131   2.065  0.1091  0.4697  0.3830
 6555TIP3    H141224   6.029   0.131   1.985  2.1809  1.5756  1.6885
 6555TIP3    H241225   5.923   0.210   2.058  2.1067  1.9617  1.1634
 6556TIP3   OH241226   1.502   2.963   1.308 -0.7384 -0.0315  0.1652
 6556TIP3    H141227   1.557   3.038   1.332  1.1099 -0.3607 -2.5519
 6556TIP3    H241228   1.543   2.888   1.350  1.0526 -0.2735 -1.8426
 6557TIP3   OH241229   1.191   1.727   0.225  0.1565  0.3821  0.0763
 6557TIP3    H141230   1.147   1.683   0.153 -0.8706 -0.0158  0.9273
 6557TIP3    H241231   1.250   1.661   0.262  1.5456  0.9188 -1.0713
 6558TIP3   OH241232   4.819   5.854   7.399 -0.3776  0.3355  0.2584
 6558TIP3    H141233   4.734   5.887   7.368 -0.8808 -1.7162 -0.7176
 6558TIP3    H241234   4.796   5.787   7.464  0.5187  0.1675  0.4114
 6559TIP3   OH241235   5.539   5.031   7.564 -0.5896  0.1351 -0.0848
 6559TIP3    H141236   5.586   4.973   7.505 -0.8568 -1.2652  1.0055
 6559TIP3    H241237   5.598   5.105   7.577  0.7379 -0.9193  0.1771
 6560TIP3   OH241238   2.106   1.069   6.866 -0.2886  0.3879 -0.0513
 6560TIP3    H141239   2.046   1.016   6.813 -1.5534  1.0283  0.6915
 6560TIP3    H241240   2.189   1.022   6.864 -1.3711 -1.6434  0.5996
 6561TIP3   OH241241   3.777   0.624   7.878  0.3521  0.4602 -0.0773
 6561TIP3    H141242   3.713   0.673   7.931  0.1372 -0.2508  0.3287
 6561TIP3    H241243   3.851   0.610   7.938  0.4229  0.3138 -0.1998
 6562TIP3   OH241244   6.409   6.543   6.079 -0.7685 -0.1503 -0.0653
 6562TIP3    H141245   6.500   6.541   6.109 -1.0619 -1.4711  0.7838
 6562TIP3    H241246   6.411   6.499   5.994 -0.6369 -0.2900  0.0104
 6563TIP3   OH241247   3.856   0.128   7.431  0.1030  0.4071  0.0938
 6563TIP3    H141248   3.810   0.154   7.351  0.4617  0.2166 -0.1750
 6563TIP3    H241249   3.947   0.119   7.405  0.0807 -0.5355  0.3189
 6564TIP3   OH241250   5.372   1.286   7.763  0.6720 -0.2966 -0.1491
 6564TIP3    H141251   5.292   1.322   7.801  0.8820 -0.1876  0.1917
 6564TIP3    H241252   5.435   1.358   7.766  0.6840 -0.2741 -0.7352
 6565TIP3   OH241253   5.928   3.297   1.438  0.0504 -0.3268 -0.1543
 6565TIP3    H141254   5.900   3.317   1.528 -0.0113 -0.1490 -0.2125
 6565TIP3    H241255   5.988   3.223   1.448  0.1465 -0.2243  0.0499
 6566TIP3   OH241256   4.449   3.319   2.224  0.4409  0.0349  0.3051
 6566TIP3    H141257   4.452   3.333   2.319 -0.6838 -0.7347  0.4775
 6566TIP3    H241258   4.540   3.330   2.195  1.0545 -1.0803  1.6873
 6567TIP3   OH241259   2.869   6.354   7.858 -0.3994  0.1559 -1.2332
 6567TIP3    H141260   2.846   6.340   7.767 -0.0804  1.0580 -1.4570
 6567TIP3    H241261   2.940   6.418   7.856 -0.3020  0.0959 -0.3608
 6568TIP3   OH241262   2.692   6.602   0.017  0.3268 -0.1068  0.4766
 6568TIP3    H141263   2.601   6.598   0.048 -0.5164  1.7499 -1.4577
 6568TIP3    H241264   2.685   6.637  -0.072  3.0400  1.1275  0.6540
 6569TIP3   OH241265   1.673   1.217   1.663 -0.0927  0.0467 -0.0176
 6569TIP3    H141266   1.589   1.246   1.627  0.3955 -0.1191 -1.3455
 6569TIP3    H241267   1.720   1.180   1.588  1.9469  1.8608  0.2525
 6570TIP3   OH241268   3.424   5.993   1.697 -0.0461  0.1497 -0.2300
 6570TIP3    H141269   3.504   6.037   1.725  0.2659 -0.4346 -0.1868
 6570TIP3    H241270   3.393   6.044   1.623  1.1218 -0.3966 -1.1337
 6571TIP3   OH241271   5.001   1.434   2.708  0.0888 -0.5172  0.1132
 6571TIP3    H141272   4.949   1.382   2.647 -0.2325  0.5780 -0.5653
 6571TIP3    H241273   5.091   1.426   2.677  0.0490 -0.6937  0.0417
 6572TIP3   OH241274   6.421   2.485   0.330  0.4846  0.0575 -0.5122
 6572TIP3    H141275   6.425   2.563   0.386 -2.1887 -1.1458  1.6325
 6572TIP3    H241276   6.427   2.412   0.391 -0.1020 -1.3885 -2.1016
 6573TIP3   OH241277   1.207   1.635   8.269 -0.2236 -0.0844 -0.1761
 6573TIP3    H141278   1.237   1.700   8.333 -0.6886  1.2305 -1.2182
 6573TIP3    H241279   1.127   1.674   8.232 -1.1523 -1.7986 -0.0521
 6574TIP3   OH241280   3.594   1.851   1.421  0.3780  0.3394 -0.2947
 6574TIP3    H141281   3.671   1.909   1.417 -0.7015  1.7414 -2.2862
 6574TIP3    H241282   3.537   1.893   1.486  0.4923  0.3681 -0.2124
 6575TIP3   OH241283   3.138   6.876   6.557 -0.1785 -0.0863  0.5301
 6575TIP3    H141284   3.191   6.892   6.635  0.4839  0.0005  0.0707
 6575TIP3    H241285   3.148   6.782   6.541  1.6583  0.2708 -0.8143
 6576TIP3   OH241286   0.976   0.894   1.544  0.6177  0.5846  0.3027
 6576TIP3    H141287   0.890   0.866   1.576  0.0855  1.0521 -0.6623
 6576TIP3    H241288   1.016   0.814   1.510 -0.2617  0.6712 -1.0240
 6577TIP3   OH241289   1.400   6.323   8.126  0.1220 -0.7195 -0.3930
 6577TIP3    H141290   1.313   6.311   8.165 -0.3145  1.1421 -0.6863
 6577TIP3    H241291   1.386   6.388   8.057  1.8658  0.1786  0.0381
 6578TIP3   OH241292   5.663   3.479   8.170  0.1285 -0.9395  0.3255
 6578TIP3    H141293   5.590   3.539   8.161  0.8456 -0.1664 -0.5822
 6578TIP3    H241294   5.738   3.535   8.189  1.3147 -1.1749 -2.9544
 6579TIP3   OH241295   0.296   0.965   0.452  0.2065  0.2439 -0.1243
 6579TIP3    H141296   0.380   0.935   0.417 -0.0506  0.0655 -0.5976
 6579TIP3    H241297   0.231   0.935   0.388 -0.5120 -1.8507  1.4607
 6580TIP3   OH241298   6.772   1.327   1.895  0.0302  0.4076 -0.4630
 6580TIP3    H141299   6.791   1.358   1.983 -0.0024 -0.2307 -0.2208
 6580TIP3    H241300   6.706   1.387   1.862 -1.5165 -0.5285  0.7436
 6581TIP3   OH241301   4.405   2.931   1.157  0.0663 -0.0302 -0.1668
 6581TIP3    H141302   4.379   3.020   1.184 -0.4456 -0.6848  1.6517
 6581TIP3    H241303   4.395   2.879   1.237  0.2773 -1.7455 -1.2319
 6582TIP3   OH241304   1.768   1.549   0.079  0.3933  0.6611 -0.2768
 6582TIP3    H141305   1.796   1.459   0.094  0.9459  0.8579 -0.1230
 6582TIP3    H241306   1.691   1.541   0.023 -1.5245 -0.0857  2.2606
 6583TIP3   OH241307   2.748   2.439   0.151  0.2119  0.0328  0.3871
 6583TIP3    H141308   2.704   2.354   0.160  2.4564 -1.3661 -0.7225
 6583TIP3    H241309   2.715   2.474   0.069  0.5597 -0.6518 -0.0617
 6584TIP3   OH241310   5.703   2.662   8.546  0.5359  0.1067  0.0144
 6584TIP3    H141311   5.753   2.744   8.544  0.6481  0.0356 -0.0634
 6584TIP3    H241312   5.746   2.605   8.482  0.6202 -0.1065  0.2584
 6585TIP3   OH241313   3.251   0.345   7.615 -0.2834  0.7896  0.3558
 6585TIP3    H141314   3.208   0.364   7.532  0.6506 -1.5623 -0.7433
 6585TIP3    H241315   3.240   0.425   7.666 -0.5079  2.4828 -2.1800
 6586TIP3   OH241316   5.546   3.730   1.111 -0.2842 -0.2016  1.0496
 6586TIP3    H141317   5.559   3.676   1.189  2.0762  0.4658  1.1888
 6586TIP3    H241318   5.633   3.762   1.089 -0.8353 -0.5204 -2.0207
 6587TIP3   OH241319   6.740   6.676   1.306 -0.0802  0.0223  0.2165
 6587TIP3    H141320   6.684   6.737   1.354 -0.1301  0.5886 -0.5377
 6587TIP3    H241321   6.702   6.590   1.324  0.7411  0.0310  2.3364
 6588TIP3   OH241322   3.692   2.919   0.712  0.0354  0.1593 -0.2851
 6588TIP3    H141323   3.757   2.972   0.666  0.6813 -0.7579 -0.4638
 6588TIP3    H241324   3.656   2.861   0.646 -2.7540  2.2183 -0.7431
 6589TIP3   OH241325   4.771   5.855   0.695  0.0855  0.4214 -0.0302
 6589TIP3    H141326   4.791   5.943   0.727  1.0789 -0.1905  1.0931
 6589TIP3    H241327   4.856   5.820   0.665  0.7764 -1.8540  3.8853
 6590TIP3   OH241328   4.962   2.986   8.622 -0.1922  0.5129  0.1569
 6590TIP3    H141329   4.928   3.030   8.699 -1.1365 -0.4577  0.3150
 6590TIP3    H241330   4.999   3.056   8.568  0.2687  1.2240  1.3754
 6591TIP3   OH241331   0.053   4.014   7.749 -0.4016 -0.2393 -0.3921
 6591TIP3    H141332  -0.022   4.071   7.769 -2.0105 -2.2284 -0.4986
 6591TIP3    H241333   0.067   4.025   7.655  0.1072  0.8574 -0.2101
 6592TIP3   OH241334   1.089   3.018   7.351  0.5376 -0.3248 -0.0862
 6592TIP3    H141335   1.066   2.992   7.441 -1.7217  0.2215 -0.4507
 6592TIP3    H241336   1.064   2.943   7.297  0.7404 -0.1735 -0.3930
 6593TIP3   OH241337   5.378   3.146   8.397  0.0946  0.5705  0.0984
 6593TIP3    H141338   5.321   3.083   8.440 -0.9633  0.6952 -1.0931
 6593TIP3    H241339   5.319   3.213   8.362  0.9972  0.8895 -0.8578
 6594TIP3   OH241340   2.445   3.160   6.598 -0.2098  0.9572 -0.6534
 6594TIP3    H141341   2.420   3.101   6.669  0.7325  3.1307  1.6054
 6594TIP3    H241342   2.379   3.145   6.530 -2.6179  0.4997  1.6277
 6595TIP3   OH241343   4.120   2.473   6.814 -0.1817 -0.2191 -0.0115
 6595TIP3    H141344   4.090   2.502   6.727  0.2171 -0.8490 -0.3709
 6595TIP3    H241345   4.214   2.456   6.802 -0.5180 -2.2837 -0.0110
 6596TIP3   OH241346   0.814   4.998   7.081  0.0417 -0.3705  0.5564
 6596TIP3    H141347   0.844   4.973   7.169  2.6871  0.2640 -0.0785
 6596TIP3    H241348   0.892   5.034   7.039 -1.4917  0.6176 -1.6078
 6597TIP3   OH241349   4.813   5.878   1.577 -0.1006  0.1899  0.9750
 6597TIP3    H141350   4.730   5.840   1.606 -0.3172  0.0863  0.2414
 6597TIP3    H241351   4.793   5.920   1.494  0.9856 -1.6304 -0.3002
 6598TIP3   OH241352   0.810   1.277   1.324 -0.4677  0.2751  1.0092
 6598TIP3    H141353   0.871   1.350   1.311 -0.3453 -0.1515 -1.3006
 6598TIP3    H241354   0.825   1.220   1.248 -2.3516 -0.8684  1.4356
 6599TIP3   OH241355   1.317   5.319   7.297  0.2730  0.1714  0.1060
 6599TIP3    H141356   1.233   5.291   7.334  1.8338 -0.7511  3.2559
 6599TIP3    H241357   1.353   5.380   7.360  2.3574 -0.1004 -0.7268
 6600TIP3   OH241358   2.898   4.480   0.963  0.1642 -0.5354 -0.0291
 6600TIP3    H141359   2.984   4.521   0.948  0.3784 -1.4577 -1.5570
 6600TIP3    H241360   2.914   4.415   1.031  1.1207 -1.8542 -1.4325
 6601TIP3   OH241361   6.665   5.211   7.824  0.2541 -0.5740 -0.4627
 6601TIP3    H141362   6.682   5.190   7.732  0.3527 -1.0512 -0.3376
 6601TIP3    H241363   6.595   5.151   7.850  2.1273 -2.4711  0.5648
 6602TIP3   OH241364   3.655   2.630   7.244  0.2411  0.5354  0.0324
 6602TIP3    H141365   3.695   2.640   7.158 -0.7997  1.2832 -0.3896
 6602TIP3    H241366   3.729   2.631   7.305  0.9985 -0.1072 -0.8438
 6603TIP3   OH241367   5.018   5.468   1.433 -0.7070 -0.0923 -0.0025
 6603TIP3    H141368   5.016   5.391   1.376  3.5972  0.1170 -0.7323
 6603TIP3    H241369   4.980   5.538   1.380  0.6924 -0.5116 -1.6598
 6604TIP3   OH241370   0.070   3.604   7.300 -0.0446 -0.1827  0.5883
 6604TIP3    H141371   0.058   3.662   7.225  1.8009 -2.9468 -2.0444
 6604TIP3    H241372   0.013   3.529   7.283 -0.9942 -0.1122  2.9799
 6605TIP3   OH241373   0.251   0.412   1.835 -0.5579  0.2603  0.2731
 6605TIP3    H141374   0.320   0.477   1.849 -0.3243 -0.2514  1.6068
 6605TIP3    H241375   0.193   0.453   1.770  1.2316  0.4925 -1.2765
 6606TIP3   OH241376   3.366   2.024   0.651  0.1797  0.4900  0.6269
 6606TIP3    H141377   3.425   1.998   0.580 -1.8065  0.4822 -1.1201
 6606TIP3    H241378   3.410   1.995   0.731  1.6947 -1.0968 -0.7139
 6607TIP3   OH241379   5.491   0.982   1.158  0.1606  0.1806 -0.1014
 6607TIP3    H141380   5.428   0.975   1.230  0.2437  0.7740  0.0315
 6607TIP3    H241381   5.439   0.969   1.079 -0.0932  0.4871  0.0179
 6608TIP3   OH241382   6.734   6.226   0.052  0.0988 -0.2386  0.0827
 6608TIP3    H141383   6.808   6.201  -0.004  0.0872  1.2374 -0.6404
 6608TIP3    H241384   6.658   6.186   0.010  0.4001 -1.3646  0.5641
 6609TIP3   OH241385   3.596   0.011   1.303  0.3223  0.3914  0.8010
 6609TIP3    H141386   3.578  -0.056   1.369 -1.1946  1.5700  1.6460
 6609TIP3    H241387   3.691   0.013   1.297  0.4387 -0.9374  1.6754
 6610TIP3   OH241388   0.625   1.642   8.386 -0.1628  0.2601  0.0922
 6610TIP3    H141389   0.558   1.583   8.421  0.8386 -0.2758  1.1680
 6610TIP3    H241390   0.684   1.585   8.337  1.5222  0.0908  2.1851
 6611TIP3   OH241391   4.951   2.903   6.592  0.0669  0.2869 -0.5859
 6611TIP3    H141392   4.906   2.851   6.658 -0.1812 -2.1021 -2.4844
 6611TIP3    H241393   4.895   2.898   6.515  0.4609  2.7621 -1.1168
 6612TIP3   OH241394   4.678   4.802   1.443 -0.6112  0.0734  0.1291
 6612TIP3    H141395   4.643   4.794   1.532 -3.0344 -1.4301 -0.8557
 6612TIP3    H241396   4.606   4.838   1.392  0.6308  0.5926 -1.3103
 6613TIP3   OH241397   6.726   6.193   6.568 -0.0606  0.6389  0.2198
 6613TIP3    H141398   6.690   6.271   6.609  0.0955 -0.3466  2.3229
 6613TIP3    H241399   6.815   6.187   6.601 -0.5705 -1.2730  1.3982
 6614TIP3   OH241400   5.453   1.521   1.826 -0.1963 -0.2135 -0.4836
 6614TIP3    H141401   5.459   1.509   1.920  2.2667 -1.1838 -0.6664
 6614TIP3    H241402   5.404   1.445   1.794 -1.4154  0.3427  0.0137
 6615TIP3   OH241403   0.984   0.495   7.865 -0.5288 -0.0842 -0.2382
 6615TIP3    H141404   0.918   0.517   7.930 -0.3773 -0.5523  0.0788
 6615TIP3    H241405   1.065   0.535   7.899 -1.0282  2.3634 -1.6852
 6616TIP3   OH241406   2.013   5.727   1.254  0.0980  0.4969  0.2018
 6616TIP3    H141407   1.972   5.741   1.169 -0.5569 -0.2472  0.3789
 6616TIP3    H241408   2.099   5.690   1.233  0.2061  0.9359 -0.1432
 6617TIP3   OH241409   0.537   4.715   1.049 -1.0070  0.0929 -0.2620
 6617TIP3    H141410   0.630   4.738   1.038 -0.8059 -1.5720 -2.9294
 6617TIP3    H241411   0.494   4.798   1.070  0.9765  1.0174  0.3867
 6618TIP3   OH241412   0.351   1.452   8.409  0.1299 -0.2939 -0.3512
 6618TIP3    H141413   0.260   1.436   8.386 -0.4672  0.2791  1.4671
 6618TIP3    H241414   0.401   1.393   8.352 -1.2111  0.6916 -2.7006
 6619TIP3   OH241415   0.807   2.960   0.308  0.4462 -0.1973  0.1203
 6619TIP3    H141416   0.880   2.907   0.276 -0.2380  0.2016 -2.2265
 6619TIP3    H241417   0.729   2.912   0.284 -0.1362  0.3545  0.8249
 6620TIP3   OH241418   4.177   2.640   7.947 -0.0252 -0.0308  0.6812
 6620TIP3    H141419   4.143   2.719   7.905 -0.3069  0.1106  1.1591
 6620TIP3    H241420   4.269   2.660   7.964  0.3918 -0.5325 -0.8935
 6621TIP3   OH241421   6.444   1.768   0.541  0.6311 -0.0143 -0.4142
 6621TIP3    H141422   6.484   1.710   0.605  0.4828 -0.4374 -0.7000
 6621TIP3    H241423   6.505   1.842   0.534  1.0890 -0.3894 -0.4425
 6622TIP3   OH241424   0.340   5.378   8.488 -0.2614 -0.2037 -0.4090
 6622TIP3    H141425   0.328   5.465   8.526  0.7709 -0.1509 -0.1750
 6622TIP3    H241426   0.324   5.391   8.394 -3.1887 -0.4063 -0.0334
 6623TIP3   OH241427   5.261   0.325   8.617  0.0102 -0.3831  0.2116
 6623TIP3    H141428   5.308   0.291   8.541  0.1443  0.8160 -0.2762
 6623TIP3    H241429   5.240   0.248   8.669  0.9133 -1.1225 -0.4752
 6624TIP3   OH241430   0.076   0.125   1.520  0.1707 -0.2087  0.0712
 6624TIP3    H141431   0.059   0.130   1.425 -2.9359 -1.7435  0.4224
 6624TIP3    H241432   0.007   0.178   1.559 -0.9347 -2.5946  1.5544
 6625TIP3   OH241433   6.480   0.441   0.529  0.2161 -0.1419  0.7259
 6625TIP3    H141434   6.547   0.475   0.469  0.5535 -0.0714  1.1324
 6625TIP3    H241435   6.530   0.396   0.597 -0.2181 -1.1349  0.3935
 6626TIP3   OH241436   4.533   6.438   1.878 -0.7854  0.2633  0.2964
 6626TIP3    H141437   4.572   6.513   1.834 -2.5550  0.4382 -1.0980
 6626TIP3    H241438   4.486   6.475   1.953 -1.5858  0.5739 -0.3416
 6627TIP3   OH241439   3.336   5.994   6.936 -0.9612  0.2374 -0.3655
 6627TIP3    H141440   3.359   5.924   6.997 -1.5268 -0.0232 -0.4446
 6627TIP3    H241441   3.302   5.949   6.859  2.2610  0.4019 -2.0625
 6628TIP3   OH241442   2.776   0.563   6.856 -0.1711 -0.4649  0.6091
 6628TIP3    H141443   2.781   0.536   6.764  1.2099  0.6236  0.3169
 6628TIP3    H241444   2.867   0.558   6.887 -0.3816  0.6204  1.4669
 6629TIP3   OH241445   0.694   2.446   0.452 -0.5367  0.1084  0.5821
 6629TIP3    H141446   0.663   2.356   0.458  1.4952 -0.6997 -0.1502
 6629TIP3    H241447   0.703   2.463   0.358  0.8299  0.4097  0.7440
 6630TIP3   OH241448   0.138   3.194   6.680  0.0945  0.4369  0.7031
 6630TIP3    H141449   0.213   3.253   6.686  1.6083 -1.3405 -0.0031
 6630TIP3    H241450   0.158   3.124   6.742  0.7735 -1.8813 -1.9786
 6631TIP3   OH241451   3.876   5.500   2.080  0.1145 -0.0525  0.1178
 6631TIP3    H141452   3.800   5.442   2.069  1.2467 -1.5193 -0.1684
 6631TIP3    H241453   3.915   5.473   2.163  3.2684 -2.9685 -2.0394
 6632TIP3   OH241454   2.672   3.255   1.240 -0.1168  0.6075  0.3567
 6632TIP3    H141455   2.657   3.315   1.312  0.9652  0.7878  0.4510
 6632TIP3    H241456   2.591   3.257   1.189 -1.4225 -0.5118  2.2536
 6633TIP3   OH241457   1.321   5.268   6.715  0.3222  0.0773 -0.3831
 6633TIP3    H141458   1.242   5.253   6.767  2.0131 -2.6296  1.6092
 6633TIP3    H241459   1.372   5.331   6.766  1.3088 -1.4492  0.5972
 6634TIP3   OH241460   2.544   5.923   0.022  0.6389  0.0905 -0.5542
 6634TIP3    H141461   2.592   5.925  -0.061  0.8310  1.9973 -0.4413
 6634TIP3    H241462   2.563   5.836   0.058  2.3389  0.0160 -1.4862
 6635TIP3   OH241463   3.808   3.704   8.483 -0.2138  0.3616 -0.0230
 6635TIP3    H141464   3.869   3.649   8.434  0.9727  0.2844  1.4693
 6635TIP3    H241465   3.740   3.644   8.513  0.3304 -0.0483  0.4131
 6636TIP3   OH241466   6.201   3.378   1.893 -0.1867  0.1575  0.5762
 6636TIP3    H141467   6.228   3.447   1.833 -0.8143  0.1779  0.3123
 6636TIP3    H241468   6.218   3.296   1.846 -1.6107  0.1889 -0.0625
 6637TIP3   OH241469   4.791   4.968   0.579 -0.2298  0.6990  0.6369
 6637TIP3    H141470   4.699   4.954   0.601  0.0985 -2.2581  0.4829
 6637TIP3    H241471   4.837   4.963   0.663 -0.0777  1.0212  0.5759
 6638TIP3   OH241472   6.439   5.282   7.508  0.1018 -0.2618 -0.0894
 6638TIP3    H141473   6.396   5.196   7.513 -2.6994  1.0588  0.2000
 6638TIP3    H241474   6.465   5.290   7.416 -0.8531 -0.8819 -0.4273
 6639TIP3   OH241475   5.062   1.799   7.273  0.3512  0.2694 -0.2556
 6639TIP3    H141476   5.064   1.885   7.314  0.4169  0.0622  0.1882
 6639TIP3    H241477   4.991   1.752   7.318  0.7451 -0.1245 -0.0304
 6640TIP3   OH241478   4.780   3.926   0.521 -0.5266 -0.3019  0.2147
 6640TIP3    H141479   4.847   3.990   0.496 -1.2554 -0.5465 -2.8153
 6640TIP3    H241480   4.827   3.842   0.526 -0.4397 -0.3638 -1.2355
 6641TIP3   OH241481   6.591   3.947   1.297 -0.0751 -0.6422  0.2846
 6641TIP3    H141482   6.641   4.008   1.243 -1.4081  0.0441 -0.2065
 6641TIP3    H241483   6.604   3.862   1.255  0.9442 -0.5499  0.3701
 6642TIP3   OH241484   1.086   2.599   6.314  0.0466 -0.1907  0.3090
 6642TIP3    H141485   1.075   2.612   6.408 -0.1513  0.1545  0.2399
 6642TIP3    H241486   1.180   2.610   6.300  0.1112 -0.4879  0.5028
 6643TIP3   OH241487   2.841   2.984   0.439  0.2784 -0.1848  0.2135
 6643TIP3    H141488   2.829   2.890   0.422 -1.5144 -0.1305  0.9493
 6643TIP3    H241489   2.753   3.020   0.434  0.9154  1.4373  0.1931
 6644TIP3   OH241490   0.097   3.046   1.820  0.1103  0.0608  0.3244
 6644TIP3    H141491   0.108   3.119   1.760  0.1099  0.8332  1.2406
 6644TIP3    H241492   0.084   3.087   1.906 -1.0568 -0.9738  0.6825
 6645TIP3   OH241493   0.838   4.659   7.143 -0.3771 -0.1390  0.3893
 6645TIP3    H141494   0.813   4.743   7.183 -0.6991 -0.4227  0.7936
 6645TIP3    H241495   0.851   4.679   7.051  0.0070  0.4546  0.5615
 6646TIP3   OH241496   5.060   1.028   8.209 -0.1984  0.2710 -0.5040
 6646TIP3    H141497   5.075   1.034   8.304 -2.6146  1.3005 -0.1112
 6646TIP3    H241498   5.038   0.937   8.194  0.3485  0.0685 -0.1122
 6647TIP3   OH241499   6.574   2.400   8.283  0.1829 -0.2931 -0.1043
 6647TIP3    H141500   6.505   2.363   8.228  0.6202 -1.0774 -0.1450
 6647TIP3    H241501   6.544   2.488   8.304 -0.0940 -0.0384 -1.4417
 6648TIP3   OH241502   4.134   3.677   8.190  0.3585 -0.1808 -0.4158
 6648TIP3    H141503   4.132   3.608   8.124 -0.2044 -0.2420 -0.3334
 6648TIP3    H241504   4.066   3.738   8.163 -0.2577 -0.4895  0.4087
 6649TIP3   OH241505   4.900   2.482   0.242  0.1467  0.5412  0.2135
 6649TIP3    H141506   4.878   2.555   0.184  0.6379  0.3066 -0.2749
 6649TIP3    H241507   4.817   2.435   0.254  0.0770  0.4720 -0.4750
 6650TIP3   OH241508   0.560   5.138   2.345 -0.8974  0.4831  0.2921
 6650TIP3    H141509   0.523   5.106   2.428 -0.7168 -3.0286 -0.8221
 6650TIP3    H241510   0.491   5.193   2.308 -1.9306  0.2008  1.7214
 6651TIP3   OH241511   5.638   3.244   0.090 -0.4314 -0.0047 -0.0683
 6651TIP3    H141512   5.567   3.257   0.027 -0.5746 -0.5659 -0.0210
 6651TIP3    H241513   5.655   3.150   0.088  0.5606  0.1660 -0.3534
 6652TIP3   OH241514   2.459   1.538   0.154 -0.0266  0.0291 -0.3179
 6652TIP3    H141515   2.409   1.600   0.102  0.3351  1.1311  0.5988
 6652TIP3    H241516   2.550   1.563   0.140  0.0594  1.7633  2.3719
 6653TIP3   OH241517   1.124   4.331   0.353  0.5807 -0.0195  0.1727
 6653TIP3    H141518   1.050   4.274   0.376  1.3256 -1.1995 -0.2682
 6653TIP3    H241519   1.083   4.409   0.315 -0.4400 -1.1958 -1.2795
 6654TIP3   OH241520   0.439   0.680   6.314 -0.2249 -0.1516 -0.1721
 6654TIP3    H141521   0.403   0.595   6.340  0.1039  0.2039  1.5618
 6654TIP3    H241522   0.529   0.678   6.346 -0.4170  1.0832  0.4960
 6655TIP3   OH241523   6.393   4.462   0.365  0.0519  0.4803 -0.0562
 6655TIP3    H141524   6.457   4.466   0.436 -0.3442 -2.3180  0.5529
 6655TIP3    H241525   6.309   4.480   0.408  0.1583  2.5805 -0.5837
 6656TIP3   OH241526   6.056   0.648   1.621  0.2458  0.1632  0.0973
 6656TIP3    H141527   5.983   0.650   1.683 -0.5623 -0.4134 -0.8030
 6656TIP3    H241528   6.032   0.579   1.559  0.7147  1.1736 -1.2417
 6657TIP3   OH241529   1.105   5.576   8.484 -0.1958 -0.1123  0.4929
 6657TIP3    H141530   1.043   5.504   8.490 -0.4491  0.2022  2.3368
 6657TIP3    H241531   1.053   5.650   8.454  0.0014 -0.5681 -1.0965
 6658TIP3   OH241532   5.067   0.471   7.154  0.5378  0.1741  0.0678
 6658TIP3    H141533   5.153   0.469   7.112  0.6873  1.9417  0.2368
 6658TIP3    H241534   5.076   0.412   7.229  1.7716  0.7476  0.3905
 6659TIP3   OH241535   4.828   3.614   1.636  0.4712 -0.2410  0.2475
 6659TIP3    H141536   4.735   3.606   1.617  0.7365 -1.0243 -0.8368
 6659TIP3    H241537   4.838   3.576   1.723 -0.3519  0.7784  0.8155
 6660TIP3   OH241538   4.162   1.794   0.712  0.0409 -0.0938  0.2176
 6660TIP3    H141539   4.245   1.751   0.730 -0.2558 -0.8898 -0.2637
 6660TIP3    H241540   4.104   1.723   0.683 -0.6833  0.5134  0.1479
 6661TIP3   OH241541   2.529   1.241   0.448 -0.2579 -0.3703  0.3954
 6661TIP3    H141542   2.436   1.260   0.435  0.1002 -0.3917 -3.5191
 6661TIP3    H241543   2.541   1.154   0.410  1.3960 -0.3235  0.7565
 6662TIP3   OH241544   3.324   1.111   7.368  0.2057 -0.1848 -0.3802
 6662TIP3    H141545   3.278   1.036   7.407  0.5993  0.1977  0.8465
 6662TIP3    H241546   3.415   1.083   7.364  0.3055  0.1198 -0.2067
 6663TIP3   OH241547   0.587   0.187   0.907 -0.6709  0.1807  0.0986
 6663TIP3    H141548   0.563   0.112   0.853 -2.7562 -0.1799  1.3891
 6663TIP3    H241549   0.600   0.151   0.995  1.9580  0.8500  0.0726
 6664TIP3   OH241550   4.899   1.270   1.147  0.8004  0.4728  0.5074
 6664TIP3    H141551   4.873   1.346   1.199  1.0714  0.8096  0.1550
 6664TIP3    H241552   4.884   1.296   1.056  1.3285  0.2714  0.3578
 6665TIP3   OH241553   6.301   3.210   7.939 -0.0082  0.1607  0.5141
 6665TIP3    H141554   6.292   3.274   8.010 -1.2358 -1.4174  1.8706
 6665TIP3    H241555   6.360   3.144   7.975 -0.3537 -0.4719 -0.0719
 6666TIP3   OH241556   6.034   5.280   8.492 -0.1445 -0.1959 -0.3934
 6666TIP3    H141557   6.001   5.242   8.410  1.1326 -0.4604 -0.8182
 6666TIP3    H241558   6.093   5.349   8.464 -0.4517  0.3729  0.3391
 6667TIP3   OH241559   4.743   4.657   1.182 -0.1061 -0.0803  0.3886
 6667TIP3    H141560   4.726   4.699   1.266  0.7749 -1.2775  1.2031
 6667TIP3    H241561   4.836   4.673   1.166  0.1633 -1.3809  0.5510
 6668TIP3   OH241562   4.118   2.273   7.692  0.0912  0.2151 -0.0240
 6668TIP3    H141563   4.103   2.202   7.629  0.6204  0.6684 -0.6723
 6668TIP3    H241564   4.048   2.263   7.757  0.3452 -1.0921  0.0698
 6669TIP3   OH241565   5.436   2.380   7.842  0.7092  0.0080  0.1675
 6669TIP3    H141566   5.500   2.340   7.902 -1.3977 -0.5736  2.1895
 6669TIP3    H241567   5.384   2.438   7.898 -0.7822  0.1485 -1.3046
 6670TIP3   OH241568   5.229   3.494   1.538 -0.1661 -0.0573  0.5760
 6670TIP3    H141569   5.228   3.422   1.475 -0.7496 -0.0979  0.6246
 6670TIP3    H241570   5.265   3.456   1.618 -0.9836 -0.4462  0.7689
 6671TIP3   OH241571   6.654   0.761   1.345 -0.1981  0.2508 -0.2656
 6671TIP3    H141572   6.669   0.818   1.270  2.9585  1.9628  1.4348
 6671TIP3    H241573   6.585   0.804   1.395 -1.8231 -0.5365 -1.7291
 6672TIP3   OH241574   5.460   0.810   7.892  0.0347 -0.3318 -0.0587
 6672TIP3    H141575   5.435   0.784   7.981  0.6214 -0.3875  0.0913
 6672TIP3    H241576   5.449   0.905   7.892 -0.0668 -0.3424  0.0399
 6673TIP3   OH241577   4.963   3.398   0.936  0.2806  0.2762 -0.4443
 6673TIP3    H141578   4.988   3.482   0.975  1.3547  0.0824 -0.6962
 6673TIP3    H241579   4.867   3.399   0.937  0.2234  0.2214  2.3367
 6674TIP3   OH241580   5.698   0.379   8.154 -0.3569 -0.5013  0.1161
 6674TIP3    H141581   5.604   0.383   8.169 -0.1398 -1.0297  1.8548
 6674TIP3    H241582   5.723   0.291   8.182  0.8366  0.0897  1.0069
 6675TIP3   OH241583   2.305   1.451   7.533 -0.2815 -0.1632 -0.0189
 6675TIP3    H141584   2.274   1.422   7.447  1.6074  2.8633 -1.9253
 6675TIP3    H241585   2.390   1.408   7.543 -1.0888 -1.5821  1.0592
 6676TIP3   OH241586   3.614   2.253   2.281  0.3238 -0.2798 -0.0007
 6676TIP3    H141587   3.655   2.179   2.238  1.2969 -0.0608  0.5253
 6676TIP3    H241588   3.684   2.294   2.332 -0.6816 -0.2927  1.4751
 6677TIP3   OH241589   1.401   2.460   7.249  0.1967  0.4659 -0.0110
 6677TIP3    H141590   1.416   2.477   7.156  3.3186  1.2188  0.5299
 6677TIP3    H241591   1.402   2.547   7.290  1.0398  0.0126  0.9729
 6678TIP3   OH241592   5.333   6.297   0.017  0.0202  0.0919  0.6120
 6678TIP3    H141593   5.416   6.250   0.023 -0.2044 -0.2426  1.1479
 6678TIP3    H241594   5.343   6.370   0.077  0.7909  1.4203 -1.0276
 6679TIP3   OH241595   2.439   0.020   6.475  0.2555 -0.1317 -0.3490
 6679TIP3    H141596   2.401   0.010   6.562 -0.3783  2.3437 -0.2653
 6679TIP3    H241597   2.403  -0.052   6.424 -0.3044 -0.9318  1.1253
 6680TIP3   OH241598   0.306   5.087   8.316 -0.2209 -0.2506 -0.1348
 6680TIP3    H141599   0.303   4.993   8.333 -1.8575 -0.4861 -1.4885
 6680TIP3    H241600   0.241   5.125   8.374 -0.4106 -0.1129 -0.4320
 6681TIP3   OH241601   5.087   1.075   2.438  0.3373 -0.0803  0.2343
 6681TIP3    H141602   5.030   1.124   2.497  0.1766  0.2428 -0.1886
 6681TIP3    H241603   5.164   1.054   2.492 -0.0086 -0.1848  0.6901
 6682TIP3   OH241604   5.707   1.124   7.855 -0.0709  0.1664 -0.1711
 6682TIP3    H141605   5.726   1.175   7.933  0.8951 -0.1515 -0.1803
 6682TIP3    H241606   5.618   1.091   7.868  0.2575 -0.2882  1.0281
 6683TIP3   OH241607   2.564   0.464   7.792 -0.0395 -0.0324 -0.0505
 6683TIP3    H141608   2.486   0.506   7.755  0.2526  0.6361  0.0904
 6683TIP3    H241609   2.543   0.370   7.790  0.0151 -0.0438 -2.0106
 6684TIP3   OH241610   5.811   2.453   7.390  0.0178 -0.2177 -0.5385
 6684TIP3    H141611   5.865   2.448   7.311 -0.7988 -0.5557 -1.0857
 6684TIP3    H241612   5.818   2.366   7.429 -0.3226 -0.3379 -0.7422
 6685TIP3   OH241613   5.403   6.525   7.485 -0.5773  0.0143 -0.1923
 6685TIP3    H141614   5.464   6.468   7.533  0.7240  1.4146 -0.0928
 6685TIP3    H241615   5.454   6.555   7.410 -0.9104  1.7318  0.2356
 6686TIP3   OH241616   1.610   4.136   1.820  0.5703 -0.2234  0.1141
 6686TIP3    H141617   1.700   4.125   1.852  1.2303 -0.7398 -1.7908
 6686TIP3    H241618   1.562   4.062   1.858  1.1488 -0.4101  0.4954
 6687TIP3   OH241619   2.179   6.305   6.513  0.3957  0.3990 -0.2526
 6687TIP3    H141620   2.099   6.312   6.565  0.8695  0.8536  0.4282
 6687TIP3    H241621   2.148   6.280   6.426 -0.4127 -0.3340  0.2273
 6688TIP3   OH241622   0.292   4.025   8.672 -0.0087 -0.4539  0.4410
 6688TIP3    H141623   0.283   3.978   8.755 -1.4550 -0.4177  0.3275
 6688TIP3    H241624   0.359   3.976   8.625  0.4161 -0.8234  1.3934
 6689TIP3   OH241625   4.394   2.892   2.013 -0.0584  0.3011  0.0401
 6689TIP3    H141626   4.318   2.836   2.027 -0.8232  0.8556 -1.6819
 6689TIP3    H241627   4.468   2.840   2.044 -1.0179 -0.6546  0.7971
 6690TIP3   OH241628   1.787   4.998   6.720 -0.6794  0.5732  0.6920
 6690TIP3    H141629   1.863   5.053   6.701  0.8289 -1.9576 -1.1938
 6690TIP3    H241630   1.747   4.980   6.635 -1.0661 -1.2790  1.2150
 6691TIP3   OH241631   6.417   2.065   6.870  1.0365 -0.4035  0.0765
 6691TIP3    H141632   6.463   2.066   6.787  2.2381  1.2850  0.6990
 6691TIP3    H241633   6.465   2.002   6.924 -0.1112 -1.9594 -0.6530
 6692TIP3   OH241634   5.231   5.286   1.750 -0.2263 -0.2006  0.3713
 6692TIP3    H141635   5.312   5.257   1.707 -0.3918 -0.8662  0.4978
 6692TIP3    H241636   5.178   5.206   1.757 -0.6038  0.0950  0.9290
 6693TIP3   OH241637   0.768   4.421   7.016  0.0903 -0.3594  0.2126
 6693TIP3    H141638   0.814   4.482   7.074  2.2328 -1.1564 -0.5490
 6693TIP3    H241639   0.691   4.470   6.985  1.0173  1.4557  0.6621
 6694TIP3   OH241640   1.253   1.677   0.810  0.4845 -0.2824 -0.1677
 6694TIP3    H141641   1.330   1.676   0.753 -0.9179 -1.1260 -2.1152
 6694TIP3    H241642   1.263   1.599   0.864  0.8305 -0.5558 -0.6185
 6695TIP3   OH241643   1.305   3.988   7.784  0.1704  0.2735  0.0723
 6695TIP3    H141644   1.360   4.055   7.825 -2.2929  1.4616  1.6104
 6695TIP3    H241645   1.264   4.033   7.710  0.6596 -0.4135 -0.6426
 6696TIP3   OH241646   0.677   6.688   7.587 -0.6225 -0.1651 -0.7016
 6696TIP3    H141647   0.747   6.631   7.617 -1.2177 -0.1755  0.7359
 6696TIP3    H241648   0.660   6.746   7.661 -1.3528  0.5894 -1.4458
 6697TIP3   OH241649   5.853   1.875   8.639 -0.3411  0.0139 -0.4578
 6697TIP3    H141650   5.933   1.917   8.607  0.1119 -0.3788  0.1278
 6697TIP3    H241651   5.819   1.827   8.563 -0.7375  1.2199 -1.0626
 6698TIP3   OH241652   6.314   2.175   7.630  0.0896 -0.0574  0.5914
 6698TIP3    H141653   6.376   2.239   7.596 -1.9251 -0.3495 -4.5499
 6698TIP3    H241654   6.232   2.224   7.639 -0.5611 -1.0745  0.3491
 6699TIP3   OH241655   6.368   1.312   1.237  0.1878 -0.2782  0.0542
 6699TIP3    H141656   6.309   1.284   1.307  0.6069 -1.2293  0.0382
 6699TIP3    H241657   6.364   1.408   1.239 -0.8868 -0.3208  0.4462
 6700TIP3   OH241658   2.029   4.832   0.625 -0.5026  0.4264 -0.4311
 6700TIP3    H141659   1.980   4.915   0.628 -1.3172  0.2041 -3.7715
 6700TIP3    H241660   2.120   4.858   0.637 -0.8884  1.6030  0.1469
 6701TIP3   OH241661   3.619   0.779   0.507 -0.0148  0.8272  0.5142
 6701TIP3    H141662   3.562   0.851   0.532 -0.3881 -0.2034  2.9580
 6701TIP3    H241663   3.574   0.738   0.433 -0.1967  2.5784 -0.3880
 6702TIP3   OH241664   3.702   2.305   7.247  0.1084  0.1611 -0.3938
 6702TIP3    H141665   3.758   2.323   7.322 -0.6515 -0.4795  0.3388
 6702TIP3    H241666   3.685   2.211   7.250 -0.1501  0.1662 -1.2193
 6703TIP3   OH241667   5.832   0.535   7.520 -0.3844  0.2371 -0.1556
 6703TIP3    H141668   5.857   0.601   7.455 -1.7699  0.0130 -0.9399
 6703TIP3    H241669   5.767   0.579   7.575  0.3601  0.2399  0.7500
 6704TIP3   OH241670   2.809   0.246   7.355  0.0742 -0.1677 -0.6449
 6704TIP3    H141671   2.857   0.328   7.365 -1.1774  0.4718  0.4353
 6704TIP3    H241672   2.865   0.179   7.393  0.3621  0.4642  0.0496
 6705TIP3   OH241673   6.161   5.252   0.067  0.2879 -0.0560 -0.3490
 6705TIP3    H141674   6.136   5.258  -0.025  1.5052  1.2949 -0.6281
 6705TIP3    H241675   6.139   5.162   0.092 -1.9347  0.1275 -1.3600
 6706TIP3   OH241676   6.319   6.549   1.699 -0.1076  0.2297 -0.1359
 6706TIP3    H141677   6.277   6.496   1.632  0.7663 -0.7875  0.0962
 6706TIP3    H241678   6.248   6.578   1.756 -0.4787 -1.8191  0.4967
 6707TIP3   OH241679   1.056   2.983   6.757 -0.1558  0.4269 -0.6488
 6707TIP3    H141680   1.143   2.999   6.793 -0.9218 -0.3135  1.7303
 6707TIP3    H241681   1.017   3.069   6.748  0.6658  0.7360 -1.3653
 6708TIP3   OH241682   5.166   1.178   1.164  0.7220  0.0359  0.5431
 6708TIP3    H141683   5.072   1.197   1.171  0.6046  0.8158 -2.1118
 6708TIP3    H241684   5.194   1.224   1.085  3.2089 -0.8121  0.8391
 6709TIP3   OH241685   6.357   4.227   7.622  0.7103  0.5659  0.4849
 6709TIP3    H141686   6.430   4.227   7.561  0.0382  2.6436 -0.3929
 6709TIP3    H241687   6.312   4.144   7.606  1.7971  0.0958 -0.2569
 6710TIP3   OH241688   3.601   1.015   0.098 -0.2413  0.3888 -0.0930
 6710TIP3    H141689   3.678   0.958   0.101 -1.0115 -0.9692 -2.6030
 6710TIP3    H241690   3.526   0.955   0.101 -1.1877  1.5663  0.8226
 6711TIP3   OH241691   3.777   2.586   7.002  0.0541  0.3243 -0.2108
 6711TIP3    H141692   3.827   2.624   6.930  1.7090  0.2290  0.8296
 6711TIP3    H241693   3.825   2.506   7.024 -0.3568  0.3958  1.0355
 6712TIP3   OH241694   5.671   3.684   7.458  0.0585  0.1853  0.3425
 6712TIP3    H141695   5.719   3.679   7.376  1.0228 -2.6720  0.9926
 6712TIP3    H241696   5.651   3.593   7.480 -0.0967  0.8485  3.3190
 6713TIP3   OH241697   0.621   5.534   6.473  0.6962 -0.6110  0.1483
 6713TIP3    H141698   0.538   5.572   6.501  0.8234  0.2372 -0.5920
 6713TIP3    H241699   0.661   5.602   6.418  0.8775 -1.8321 -1.3016
 6714TIP3   OH241700   3.876   1.026   0.312 -0.1185 -0.2698  0.4893
 6714TIP3    H141701   3.808   1.072   0.361 -0.1202 -1.2553  1.4676
 6714TIP3    H241702   3.923   0.976   0.379 -0.2067 -1.7824 -0.5222
 6715TIP3   OH241703   0.736   2.734   0.009 -0.2333  0.2069  0.3124
 6715TIP3    H141704   0.818   2.779  -0.012  0.0072  0.1253  1.0410
 6715TIP3    H241705   0.709   2.694  -0.074 -0.5963  1.8904 -0.4325
 6716TIP3   OH241706   0.978   5.222   7.845  0.5301  0.0119  0.1308
 6716TIP3    H141707   1.053   5.210   7.787  0.0952  2.0840 -0.9297
 6716TIP3    H241708   0.946   5.310   7.826 -1.2849 -0.2635  1.6129
 6717TIP3   OH241709   0.549   5.880   6.553  0.2723 -0.0929  0.3964
 6717TIP3    H141710   0.525   5.814   6.618  0.9174 -1.1023 -0.3735
 6717TIP3    H241711   0.577   5.830   6.477 -0.3906  1.0803 -0.6451
 6718TIP3   OH241712   5.767   0.897   7.352 -0.0149  0.4970  0.2874
 6718TIP3    H141713   5.698   0.957   7.382 -0.0681  0.1836  0.7905
 6718TIP3    H241714   5.743   0.877   7.261  0.8467  2.4834 -0.4555
 6719TIP3   OH241715   2.268   1.904   8.323 -0.4556  0.5676  0.7585
 6719TIP3    H141716   2.203   1.944   8.380 -0.8797  0.1191  0.5966
 6719TIP3    H241717   2.246   1.811   8.323 -1.9586  0.8002 -1.9682
 6720TIP3   OH241718   3.589   0.481   0.494 -0.1553 -0.1749 -0.1651
 6720TIP3    H141719   3.573   0.562   0.544 -0.6538  0.9196 -2.0073
 6720TIP3    H241720   3.535   0.490   0.416  0.3619 -1.9802 -0.7756
 6721TIP3   OH241721   0.661   1.850   1.070 -0.6626 -0.0897  0.2051
 6721TIP3    H141722   0.689   1.901   1.146 -0.5319  1.8809 -1.0965
 6721TIP3    H241723   0.692   1.761   1.089 -0.8528  0.2577  2.5434
 6722TIP3   OH241724   6.251   1.925   2.335 -0.2273  0.5268 -0.6513
 6722TIP3    H141725   6.193   1.866   2.287 -2.3348  0.0950  2.1700
 6722TIP3    H241726   6.294   1.869   2.400 -0.9069  1.7245  0.9008
 6723TIP3   OH241727   1.133   5.775   6.988  0.4226  0.1209  0.0068
 6723TIP3    H141728   1.152   5.704   7.050  0.4412 -0.5551 -0.7625
 6723TIP3    H241729   1.159   5.740   6.903 -0.4502  0.7140 -0.5113
 6724TIP3   OH241730   1.108   0.253   7.070  0.3023 -0.6598  0.7010
 6724TIP3    H141731   1.122   0.348   7.072  1.7840 -0.7714 -1.2798
 6724TIP3    H241732   1.160   0.220   7.143  0.4506 -0.0172  0.8925
 6725TIP3   OH241733   1.914   0.592   7.463  0.2128 -0.2703  0.6248
 6725TIP3    H141734   1.861   0.517   7.438  0.5132 -0.1965 -0.2573
 6725TIP3    H241735   1.923   0.584   7.558  1.0366 -1.8790  0.4481
 6726TIP3   OH241736   4.347   4.557   1.068 -0.0102  0.7429 -0.1712
 6726TIP3    H141737   4.414   4.490   1.057  0.3733  0.5766  2.4213
 6726TIP3    H241738   4.392   4.639   1.051  1.6876  0.8456  3.7650
 6727TIP3   OH241739   6.729   3.663   8.302  0.0318  0.0041  0.0773
 6727TIP3    H141740   6.672   3.737   8.283  3.3036  2.4194 -1.3199
 6727TIP3    H241741   6.753   3.629   8.216 -0.4433 -1.9878  0.6797
 6728TIP3   OH241742   6.546   1.987   8.324  0.1520  0.2611  0.1546
 6728TIP3    H141743   6.465   2.010   8.279 -0.9387 -2.0184  0.7609
 6728TIP3    H241744   6.553   2.051   8.395 -0.4762  1.1986 -0.6039
 6729TIP3   OH241745   2.619   2.328   1.736  0.1317 -0.0327 -0.3103
 6729TIP3    H141746   2.650   2.269   1.804  1.3028  1.9825  1.0113
 6729TIP3    H241747   2.608   2.412   1.780  0.9955  1.3613 -2.5854
 6730TIP3   OH241748   5.672   4.924   1.237 -0.6875  0.2734  0.3488
 6730TIP3    H141749   5.720   4.843   1.256  0.4490  0.7865 -0.2335
 6730TIP3    H241750   5.661   4.966   1.322 -0.9598 -0.3110  0.6078
 6731TIP3   OH241751   6.860   0.522   1.738  0.2791 -0.1603  0.1874
 6731TIP3    H141752   6.824   0.544   1.824  0.0657 -0.1833  0.1041
 6731TIP3    H241753   6.858   0.605   1.689  1.9582  0.2502  0.7511
 6732TIP3   OH241754   3.078   5.641   2.121 -0.6029 -0.0242 -0.2129
 6732TIP3    H141755   2.998   5.590   2.107 -0.6982 -0.0363  0.3422
 6732TIP3    H241756   3.058   5.696   2.197 -0.4466  0.7363 -0.7175
 6733TIP3   OH241757   0.358   2.652   1.237  0.0699  0.1674  0.0817
 6733TIP3    H141758   0.291   2.652   1.169  0.6370  0.3309 -0.4905
 6733TIP3    H241759   0.441   2.651   1.189  0.4807 -0.5267  0.7795
 6734TIP3   OH241760   1.670   2.849   0.466 -0.1124  0.1488  0.4330
 6734TIP3    H141761   1.670   2.925   0.523  0.8012  0.3833  0.1288
 6734TIP3    H241762   1.596   2.864   0.407  0.0097  0.7580  0.4284
 6735TIP3   OH241763   2.125   3.440   7.851  0.7860 -0.9127  0.1464
 6735TIP3    H141764   2.153   3.349   7.859  1.3103 -0.6887  1.1052
 6735TIP3    H241765   2.062   3.452   7.922 -0.1758 -0.8364 -0.7031
 6736TIP3   OH241766   4.879   4.546   7.643 -0.2134 -0.2125  0.4295
 6736TIP3    H141767   4.810   4.493   7.603 -0.1385 -0.0830  0.1244
 6736TIP3    H241768   4.878   4.628   7.594  1.3644 -0.8806 -0.8289
 6737TIP3   OH241769   6.876   1.358   2.601 -0.4573  0.0835  0.1031
 6737TIP3    H141770   6.953   1.324   2.555 -1.4172 -0.9265 -0.8194
 6737TIP3    H241771   6.869   1.449   2.572 -0.0967 -0.0619 -0.4651
 6738TIP3   OH241772   1.538   6.009   2.146 -0.1378  0.0139 -0.1673
 6738TIP3    H141773   1.611   5.948   2.152 -0.4408 -0.3022  0.3585
 6738TIP3    H241774   1.562   6.069   2.075 -0.1530 -1.1133 -1.1403
 6739TIP3   OH241775   5.728   2.545   8.056  0.5241 -0.0283  0.1415
 6739TIP3    H141776   5.815   2.584   8.064 -0.0398  1.5938 -1.0646
 6739TIP3    H241777   5.670   2.605   8.105 -0.4722  1.1836 -2.3377
 6740TIP3   OH241778   4.540   3.888   1.376  0.1218  0.1872 -0.3648
 6740TIP3    H141779   4.501   3.917   1.294  0.2523  0.2636 -0.4011
 6740TIP3    H241780   4.556   3.969   1.425 -0.2420  0.1189 -0.1334
 6741TIP3   OH241781   4.498   2.060   8.046 -0.4591  0.0333 -0.0369
 6741TIP3    H141782   4.555   1.983   8.038 -0.0400  0.4103 -0.8000
 6741TIP3    H241783   4.491   2.074   8.140  1.4277  0.4948  0.0793
 6742TIP3   OH241784   1.125   1.365   7.302  0.4086  0.3273  0.2210
 6742TIP3    H141785   1.034   1.340   7.315  0.2816  1.7194  2.6219
 6742TIP3    H241786   1.153   1.315   7.225 -2.5607  0.4096 -1.0617
 6743TIP3   OH241787   3.756   2.986   7.227 -0.4497  0.2223 -0.6401
 6743TIP3    H141788   3.827   2.992   7.162 -0.3825  2.0291 -0.4382
 6743TIP3    H241789   3.677   2.971   7.174  0.0555 -2.0851 -0.8519
 6744TIP3   OH241790   1.562   2.679   8.104  0.0748  0.1195  0.2930
 6744TIP3    H141791   1.626   2.683   8.175  0.3082  1.5775  0.0303
 6744TIP3    H241792   1.606   2.629   8.034 -0.3206 -1.7100  1.2868
 6745TIP3   OH241793   2.183   1.353   1.901  0.1126  0.0294  0.1342
 6745TIP3    H141794   2.248   1.302   1.950  1.2831 -0.1699 -1.5437
 6745TIP3    H241795   2.175   1.435   1.950  0.3215 -0.6206  1.3051
 6746TIP3   OH241796   1.736   4.708   0.317  0.2429  0.2081  0.3823
 6746TIP3    H141797   1.678   4.667   0.381  0.0326  1.4663  1.0340
 6746TIP3    H241798   1.764   4.636   0.260 -1.6679 -0.4850  0.2542
 6747TIP3   OH241799   5.565   4.343   8.445 -0.2550  0.1282 -0.6805
 6747TIP3    H141800   5.486   4.290   8.439 -0.3201  0.1991 -0.4857
 6747TIP3    H241801   5.534   4.428   8.478  0.1261 -0.4244  1.2637
 6748TIP3   OH241802   1.331   0.181   0.343 -0.1382 -0.1675 -0.3423
 6748TIP3    H141803   1.334   0.132   0.261 -0.9819 -1.0821  0.1508
 6748TIP3    H241804   1.333   0.113   0.411  0.4514  0.5710  0.3955
 6749TIP3   OH241805   1.452   2.499   0.538  0.3015  0.2532  0.0786
 6749TIP3    H141806   1.468   2.516   0.631 -1.6509 -0.1512  0.5489
 6749TIP3    H241807   1.394   2.422   0.538  1.3319 -0.5662 -1.5483
 6750TIP3   OH241808   3.760   6.202   7.748 -0.1323 -0.2555 -0.1751
 6750TIP3    H141809   3.700   6.130   7.730 -0.0217 -0.4933  0.3910
 6750TIP3    H241810   3.722   6.247   7.823 -0.6483  0.7943 -1.0430
 6751TIP3   OH241811   4.186   2.183   0.643  0.2144  0.0693  0.3394
 6751TIP3    H141812   4.186   2.277   0.625  0.3637 -0.0665 -0.3777
 6751TIP3    H241813   4.162   2.177   0.736 -2.3584  0.6977 -0.1960
 6752TIP3   OH241814   0.846   6.839   8.219  0.2298  0.2879 -0.6778
 6752TIP3    H141815   0.865   6.777   8.149  0.2711  1.1829 -1.4831
 6752TIP3    H241816   0.850   6.925   8.177 -1.8098  0.7526 -0.0494
 6753TIP3   OH241817   4.270   5.113   2.536 -0.2626 -0.6938  0.2869
 6753TIP3    H141818   4.293   5.021   2.530  2.2882 -0.0191 -2.8449
 6753TIP3    H241819   4.343   5.154   2.581 -0.4764  0.0355  0.0005
 6754TIP3   OH241820   5.358   6.032   8.500  0.1174 -0.2361  0.1114
 6754TIP3    H141821   5.386   5.945   8.529  2.6075 -0.0651 -1.5288
 6754TIP3    H241822   5.433   6.089   8.519 -0.2956  0.9387 -1.6048
 6755TIP3   OH241823   2.397   6.846   5.829 -0.3449  0.5306 -0.0180
 6755TIP3    H141824   2.407   6.836   5.734  1.9574 -0.1648  0.2289
 6755TIP3    H241825   2.324   6.788   5.851  0.3241 -0.8403 -1.1651
 6756TIP3   OH241826   4.158   3.440   0.657 -0.4811 -0.5848 -0.1329
 6756TIP3    H141827   4.224   3.508   0.673 -0.5270 -0.7454  0.8215
 6756TIP3    H241828   4.079   3.488   0.634 -0.4110 -0.3245  0.1623
 6757TIP3   OH241829   6.100   1.547   6.890  0.5549 -0.0616 -0.0505
 6757TIP3    H141830   6.162   1.601   6.841 -1.2301  1.7313 -0.4507
 6757TIP3    H241831   6.015   1.587   6.874 -0.5844 -1.7182  1.4532
 6758TIP3   OH241832   1.349   0.588   0.730 -0.0406 -0.0454 -0.1753
 6758TIP3    H141833   1.268   0.617   0.771 -0.2903 -0.8412 -0.1028
 6758TIP3    H241834   1.414   0.653   0.757  0.1135 -1.2436  2.6082
 6759TIP3   OH241835   1.595   2.590   7.706 -0.3834  0.1527 -0.0609
 6759TIP3    H141836   1.538   2.528   7.660  0.8820  0.4994 -2.2651
 6759TIP3    H241837   1.680   2.546   7.712 -0.0217  0.8650  0.2333
 6760TIP3   OH241838   6.495   3.383   1.888 -0.3390 -0.1149  0.3906
 6760TIP3    H141839   6.475   3.452   1.950  0.5897  1.1197 -0.6223
 6760TIP3    H241840   6.429   3.316   1.904 -1.7758  1.3540  0.8533
 6761TIP3   OH241841   3.690   4.887   7.390  0.1543  0.6453 -0.0415
 6761TIP3    H141842   3.701   4.792   7.384 -0.4289  0.5306  0.6202
 6761TIP3    H241843   3.606   4.904   7.348 -0.4175  0.6925  1.0903
 6762TIP3   OH241844   0.939   2.927   8.596  0.6029 -0.5054 -0.9875
 6762TIP3    H141845   0.967   2.939   8.505 -0.4470  1.1447 -1.1508
 6762TIP3    H241846   0.983   2.998   8.644  1.8237 -1.8709 -0.0106
 6763TIP3   OH241847   5.231   1.756   0.111 -0.5368 -0.2155 -0.4244
 6763TIP3    H141848   5.287   1.831   0.089 -1.1521  0.4376  0.1834
 6763TIP3    H241849   5.172   1.748   0.037 -0.6270  0.0620 -0.3846
 6764TIP3   OH241850   0.039   1.036   8.453  0.5185  0.0994 -0.5288
 6764TIP3    H141851   0.120   1.074   8.486  0.9146 -0.1107 -1.2245
 6764TIP3    H241852  -0.000   1.105   8.399  0.2125  0.2140 -0.1622
 6765TIP3   OH241853   2.465   1.766   7.472 -0.0937  0.1131  0.2711
 6765TIP3    H141854   2.508   1.682   7.453 -1.5143 -0.2876 -1.3881
 6765TIP3    H241855   2.468   1.773   7.567  0.3499 -1.6630  0.4300
 6766TIP3   OH241856   6.586   6.639   8.071  0.3206  0.1660 -0.4095
 6766TIP3    H141857   6.584   6.635   7.975 -0.5738  0.9765 -0.4400
 6766TIP3    H241858   6.647   6.570   8.097  0.8301  0.1632 -1.5740
 6767TIP3   OH241859   2.044   6.001   8.498  0.4584  0.0214  0.0156
 6767TIP3    H141860   2.108   5.945   8.453  0.0507  0.5676 -1.2598
 6767TIP3    H241861   1.960   5.958   8.484  0.6425 -1.7530  3.2955
 6768TIP3   OH241862   1.663   5.942   0.095  0.1374 -0.3643 -0.8160
 6768TIP3    H141863   1.624   6.021   0.058  0.5821 -0.7963 -2.3051
 6768TIP3    H241864   1.604   5.916   0.165 -2.0899 -0.7930 -2.7366
 6769TIP3   OH241865   5.791   4.546   0.434  0.4169 -0.0277 -0.0886
 6769TIP3    H141866   5.765   4.637   0.421 -0.4595 -0.2903 -0.2980
 6769TIP3    H241867   5.844   4.525   0.358  1.6455  0.6497  0.5526
 6770TIP3   OH241868   4.975   6.027   1.776 -0.0241 -0.5341  0.3053
 6770TIP3    H141869   4.930   5.976   1.708  0.5353 -1.1114  0.3563
 6770TIP3    H241870   4.906   6.049   1.838 -1.2645  2.8262 -2.0032
 6771TIP3   OH241871   6.156   5.514   0.635  0.6062 -0.8253  0.4755
 6771TIP3    H141872   6.207   5.443   0.595  1.7406  0.4087 -0.3226
 6771TIP3    H241873   6.132   5.480   0.721  2.8266 -1.4622  0.9101
 6772TIP3   OH241874   4.551   2.869   0.928 -0.6030 -0.1185  0.3648
 6772TIP3    H141875   4.523   2.778   0.917  0.3803 -0.3401 -0.4160
 6772TIP3    H241876   4.511   2.897   1.011 -1.5430 -1.0083  0.2283
 6773TIP3   OH241877   3.307   0.918   6.189 -0.0648 -0.0802 -0.0645
 6773TIP3    H141878   3.355   0.971   6.254 -1.3752 -0.7056  1.4785
 6773TIP3    H241879   3.373   0.899   6.122  1.4012  0.4841  1.1317
 6774TIP3   OH241880   2.958   1.986   8.359  0.5588  0.0383  0.6962
 6774TIP3    H141881   2.945   1.914   8.298  1.1194  2.2503 -2.2653
 6774TIP3    H241882   3.044   1.971   8.397  0.7562 -0.7233 -0.0375
 6775TIP3   OH241883   4.766   4.296   8.672 -0.0570  0.3227  0.8925
 6775TIP3    H141884   4.745   4.206   8.697 -2.0660  0.3911 -0.3813
 6775TIP3    H241885   4.684   4.344   8.684  0.5337  1.6184 -0.0776
 6776TIP3   OH241886   2.803   3.816   0.388  0.4352  0.1025  0.0797
 6776TIP3    H141887   2.858   3.885   0.426  0.1729 -0.8024  2.2197
 6776TIP3    H241888   2.854   3.784   0.313  1.1440  1.7090 -0.1767
 6777TIP3   OH241889   1.643   6.206   1.602 -0.0093 -0.5899  0.3310
 6777TIP3    H141890   1.626   6.293   1.565 -0.2074 -0.9162 -0.3561
 6777TIP3    H241891   1.675   6.154   1.528  2.6236 -0.4181  1.2445
 6778TIP3   OH241892   5.601   2.739   8.212 -0.3500 -0.3326 -0.2248
 6778TIP3    H141893   5.562   2.826   8.212 -0.5168 -0.3995  0.3018
 6778TIP3    H241894   5.582   2.705   8.300  0.1822 -0.6898 -0.2463
 6779TIP3   OH241895   6.250   0.614   1.204  0.0457  0.1790 -0.5955
 6779TIP3    H141896   6.209   0.682   1.151 -1.2913 -0.2211 -0.0963
 6779TIP3    H241897   6.282   0.660   1.281 -0.5579  0.2997 -0.4147
 6780TIP3   OH241898   3.941   1.669   8.630  0.0166 -0.1421  0.1550
 6780TIP3    H141899   3.860   1.721   8.627 -0.8636 -1.0622  3.5100
 6780TIP3    H241900   3.978   1.687   8.716  1.2134 -2.7921  0.2975
 6781TIP3   OH241901   4.255   5.387   2.404 -0.1124 -0.3067  0.3117
 6781TIP3    H141902   4.296   5.382   2.318  0.3806  0.6104  0.4766
 6781TIP3    H241903   4.276   5.304   2.446 -0.3745 -0.7682 -0.4582
 6782TIP3   OH241904   5.730   4.916   7.405  0.3767  0.1202  0.2224
 6782TIP3    H141905   5.789   4.978   7.447 -0.8163  1.9717 -0.6984
 6782TIP3    H241906   5.769   4.900   7.320  0.3780  0.0771  0.2314
 6783TIP3   OH241907   3.116   5.894   1.014 -0.2263 -0.0140 -0.3353
 6783TIP3    H141908   3.105   5.971   0.958 -0.5888  0.1406 -0.0560
 6783TIP3    H241909   3.210   5.885   1.025 -0.2026  0.6784  0.0309
 6784TIP3   OH241910   0.019   4.700   2.001  0.1788  0.1856  0.0476
 6784TIP3    H141911  -0.036   4.778   2.004 -1.9162 -1.0544 -2.4008
 6784TIP3    H241912   0.094   4.724   1.946 -0.5642  0.4440 -0.8713
 6785TIP3   OH241913   6.742   1.874   6.814  0.5192  0.0286 -0.1653
 6785TIP3    H141914   6.712   1.795   6.769 -1.7133  0.5814  0.2213
 6785TIP3    H241915   6.688   1.944   6.778  0.1269  0.8197  1.8100
 6786TIP3   OH241916   4.405   6.200   8.554 -0.0353  0.3591 -0.3620
 6786TIP3    H141917   4.404   6.277   8.497 -0.5038  1.0905  0.5961
 6786TIP3    H241918   4.452   6.229   8.632 -0.4707 -0.2416  0.1316
 6787TIP3   OH241919   2.509   3.909   0.045 -0.4324 -0.1348 -0.2683
 6787TIP3    H141920   2.433   3.966   0.038  0.9404  1.8969  0.5771
 6787TIP3    H241921   2.519   3.871  -0.042 -1.4257  0.8581 -0.8343
 6788TIP3   OH241922   2.856   2.864   0.699 -0.1296  0.1326  0.0852
 6788TIP3    H141923   2.888   2.774   0.711  1.3670  0.6422  0.1020
 6788TIP3    H241924   2.875   2.884   0.608 -0.5140  0.4296  0.0663
 6789TIP3   OH241925   0.286   0.588   7.501  0.3917  0.0269  0.0057
 6789TIP3    H141926   0.209   0.531   7.501  1.2179 -1.2750  2.8670
 6789TIP3    H241927   0.264   0.658   7.563  0.9676  0.4928 -0.3022
 6790TIP3   OH241928   1.365   6.546   7.992 -0.1077  0.2645 -0.1927
 6790TIP3    H141929   1.288   6.602   8.004  0.9565  2.1188 -1.4664
 6790TIP3    H241930   1.437   6.596   8.032  0.2104 -2.3630  2.8980
 6791TIP3   OH241931   6.178   3.949   8.566  0.3111 -0.0782 -0.3788
 6791TIP3    H141932   6.104   3.994   8.608 -0.3545 -0.1258 -1.4596
 6791TIP3    H241933   6.210   4.012   8.502  2.7584  0.8912  1.6367
 6792TIP3   OH241934   5.858   1.641   6.748  0.1621 -0.2656  0.2618
 6792TIP3    H141935   5.787   1.682   6.698  0.0841  0.7219  1.1409
 6792TIP3    H241936   5.921   1.615   6.682  0.9106  2.6435 -0.3151
 6793TIP3   OH241937   0.519   1.459   0.560 -0.1811  0.2553 -0.0185
 6793TIP3    H141938   0.460   1.386   0.577 -0.3740  0.5139  0.4166
 6793TIP3    H241939   0.524   1.506   0.642 -2.4618  2.5025 -1.0372
 6794TIP3   OH241940   3.192   1.423   2.265  0.0467 -0.1082  0.1680
 6794TIP3    H141941   3.123   1.471   2.219 -1.5364 -2.3893  0.0183
 6794TIP3    H241942   3.210   1.476   2.343  0.9307  2.4783 -1.6465
 6795TIP3   OH241943   3.896   3.662   7.042 -0.4777 -0.3358 -0.0868
 6795TIP3    H141944   3.963   3.710   7.090  1.3877 -0.9943 -1.8436
 6795TIP3    H241945   3.930   3.657   6.952 -3.0537 -0.4522 -1.1437
 6796TIP3   OH241946   3.353   6.680   6.963 -0.0239 -0.0838  0.1647
 6796TIP3    H141947   3.440   6.705   6.994  0.4784  0.2616 -1.4128
 6796TIP3    H241948   3.346   6.586   6.983 -0.5479  0.4682  3.0253
 6797TIP3   OH241949   3.140   6.278   8.604  0.3126  0.1001  0.8766
 6797TIP3    H141950   3.115   6.367   8.630 -1.9005 -0.8445  2.3446
 6797TIP3    H241951   3.129   6.276   8.509  0.8701  1.4973  0.7617
 6798TIP3   OH241952   3.438   4.185   6.851  0.4399 -0.7466 -0.5685
 6798TIP3    H141953   3.377   4.258   6.867 -1.1418 -2.1941  0.2710
 6798TIP3    H241954   3.497   4.219   6.783 -0.6693  1.0715 -0.7180
 6799TIP3   OH241955   3.261   0.956   7.989  0.0796 -0.3273  0.2313
 6799TIP3    H141956   3.239   1.044   7.960 -1.6142 -0.9494 -0.5229
 6799TIP3    H241957   3.329   0.926   7.929  1.6488  0.9201  1.3242
 6800TIP3   OH241958   4.860   4.056   7.123 -0.2223 -0.5834  0.2460
 6800TIP3    H141959   4.857   4.029   7.032  0.5911  1.7624 -0.5423
 6800TIP3    H241960   4.928   4.002   7.162 -1.6375 -2.7163 -0.0617
 6801TIP3   OH241961   5.060   0.924   0.143 -0.1727 -0.1844  0.0193
 6801TIP3    H141962   5.111   1.003   0.158 -2.2201  1.3159 -0.3510
 6801TIP3    H241963   5.012   0.911   0.225  0.5305 -1.3544  0.2513
 6802TIP3   OH241964   3.599   0.737   2.354  0.3554  0.0648 -0.0501
 6802TIP3    H141965   3.548   0.744   2.435 -0.5774  1.7742 -0.7500
 6802TIP3    H241966   3.690   0.739   2.384  0.0562 -1.2973  1.0820
 6803TIP3   OH241967   2.233   2.733   8.302  0.5983  0.2266  0.2793
 6803TIP3    H141968   2.223   2.731   8.397  0.3282 -0.8930  0.2406
 6803TIP3    H241969   2.264   2.645   8.279  1.2990  0.6907 -0.6020
 6804TIP3   OH241970   6.634   1.630   0.257 -0.1740  0.1154 -0.2992
 6804TIP3    H141971   6.650   1.576   0.180 -1.3670 -1.1631  0.3025
 6804TIP3    H241972   6.618   1.567   0.328 -3.2076  1.1619  0.0969
 6805TIP3   OH241973   0.245   6.316   1.546  0.5848  0.3512 -0.1056
 6805TIP3    H141974   0.158   6.278   1.532  0.9932  0.0862 -2.4047
 6805TIP3    H241975   0.241   6.400   1.500  1.5400  0.3157 -0.2704
 6806TIP3   OH241976   2.667   5.930   0.813  0.1312 -0.3979 -0.0230
 6806TIP3    H141977   2.747   5.911   0.764 -0.8635 -0.3802 -1.7013
 6806TIP3    H241978   2.693   6.000   0.873  0.8111  1.4607 -2.3143
 6807TIP3   OH241979   1.581   6.220   0.017 -0.4288 -0.1913 -0.1321
 6807TIP3    H141980   1.650   6.228   0.082  0.0412 -0.3071 -0.6095
 6807TIP3    H241981   1.513   6.280   0.046 -0.9224 -1.4116  1.3390
 6808TIP3   OH241982   3.926   5.918   0.921 -0.0618  0.4218 -0.7503
 6808TIP3    H141983   3.993   5.938   0.857  2.8065 -1.0983  1.5554
 6808TIP3    H241984   3.928   5.992   0.982 -0.2522  0.1881 -0.4589
 6809TIP3   OH241985   0.391   5.969   7.971  0.4109 -0.1071  0.4079
 6809TIP3    H141986   0.483   5.944   7.981  0.7246  1.7871  3.6543
 6809TIP3    H241987   0.393   6.051   7.923  0.3494 -0.3648 -0.0402
 6810TIP3   OH241988   4.280   0.202   2.078  0.6639  0.0068 -0.0052
 6810TIP3    H141989   4.280   0.265   2.150 -0.7654 -0.6005  0.5712
 6810TIP3    H241990   4.349   0.232   2.019  2.0846  0.3640  1.7489
 6811TIP3   OH241991   4.751   5.413   1.685 -0.1473  0.4143 -0.6091
 6811TIP3    H141992   4.830   5.359   1.674  0.6227  0.4053  3.5295
 6811TIP3    H241993   4.679   5.351   1.678  0.5984 -0.7879  1.4386
 6812TIP3   OH241994   5.958   5.053   7.518 -0.4521  0.3768 -0.2715
 6812TIP3    H141995   6.047   5.049   7.481  0.0019  0.7224  0.7440
 6812TIP3    H241996   5.969   5.101   7.600 -1.4708 -0.1651  0.1958
 6813TIP3   OH241997   5.677   1.454   0.464  0.0894 -0.1049 -0.0663
 6813TIP3    H141998   5.611   1.384   0.472 -2.5486  2.3913  2.3062
 6813TIP3    H241999   5.652   1.501   0.384  1.5533 -1.4261 -1.3758
 6814TIP3   OH242000   5.681   1.802   1.964  0.5046  0.0778 -0.2010
 6814TIP3    H142001   5.713   1.889   1.988 -0.9375  0.4569  0.4775
 6814TIP3    H242002   5.672   1.805   1.869  0.0293  0.8306 -0.1370
 6815TIP3   OH242003   6.121   2.710   6.596  0.3483  0.0997 -0.6173
 6815TIP3    H142004   6.065   2.633   6.583  0.8569 -0.3629 -0.0965
 6815TIP3    H242005   6.060   2.782   6.609 -0.1933  0.1922 -3.1726
 6816TIP3   OH242006   4.882   0.807   1.612  0.3307  0.1149  0.0597
 6816TIP3    H142007   4.882   0.872   1.682  2.5903  0.7443 -0.4231
 6816TIP3    H242008   4.872   0.723   1.656  1.5433  0.5134  1.1713
 6817TIP3   OH242009   6.067   4.705   8.052 -0.6625 -0.0669  0.2477
 6817TIP3    H142010   6.145   4.683   8.000 -0.7286  1.2484 -0.4454
 6817TIP3    H242011   6.092   4.686   8.142  0.1353 -0.5501 -0.0638
 6818TIP3   OH242012   5.964   6.367   2.100 -0.3542  0.1484  0.7109
 6818TIP3    H142013   5.948   6.276   2.127 -2.4629  0.5410  1.0235
 6818TIP3    H242014   5.919   6.419   2.167 -0.2812  1.3751 -0.1604
 6819TIP3   OH242015   5.895   1.322   2.267  0.0112 -0.1887  0.2258
 6819TIP3    H142016   5.936   1.330   2.353 -0.2798 -0.8791  0.4379
 6819TIP3    H242017   5.902   1.229   2.246 -0.8335 -0.2003 -0.0336
 6820TIP3   OH242018   1.821   1.140   7.736  0.2164 -0.0841 -0.7446
 6820TIP3    H142019   1.810   1.070   7.801 -3.3245  0.4372 -0.6116
 6820TIP3    H242020   1.855   1.095   7.659  0.6160 -1.4365  0.1632
 6821TIP3   OH242021   5.998   5.836   8.570  0.2774 -0.5861 -0.1601
 6821TIP3    H142022   5.933   5.862   8.506  1.2495  0.0202 -0.9289
 6821TIP3    H242023   6.011   5.742   8.555  0.1383 -0.5484 -0.5157
 6822TIP3   OH242024   1.643   2.895   7.934 -0.2007 -0.0399 -0.0815
 6822TIP3    H142025   1.700   2.956   7.981 -0.4638 -0.2841  0.5683
 6822TIP3    H242026   1.614   2.834   8.001  0.6230 -1.3132 -0.8513
 6823TIP3   OH242027   2.720   2.868   8.495 -0.3086  0.4387  0.3283
 6823TIP3    H142028   2.814   2.871   8.513 -0.1329 -0.1964 -0.4511
 6823TIP3    H242029   2.708   2.917   8.414 -0.5133 -0.3102 -0.1003
 6824TIP3   OH242030   4.028   2.501   6.529  0.5053 -0.0054 -0.2400
 6824TIP3    H142031   4.058   2.534   6.444  0.8768 -1.0029 -0.5223
 6824TIP3    H242032   3.941   2.538   6.540  0.3652 -0.0329 -1.1748
 6825TIP3   OH242033   6.612   1.546   1.868  0.1527 -0.1560  0.4104
 6825TIP3    H142034   6.522   1.564   1.843  0.0483 -0.7259  0.3704
 6825TIP3    H242035   6.662   1.621   1.834 -0.0268 -0.7593 -1.2696
 6826TIP3   OH242036   1.473   5.465   0.153  0.2671  0.4154  0.2946
 6826TIP3    H142037   1.450   5.543   0.101 -0.3036 -0.6054 -1.0585
 6826TIP3    H242038   1.509   5.500   0.234 -3.6874  2.2015  1.5235
 6827TIP3   OH242039   0.284   6.808   2.025 -0.0668  0.2366 -0.3075
 6827TIP3    H142040   0.313   6.720   2.047 -1.1769 -0.6059 -2.0703
 6827TIP3    H242041   0.208   6.796   1.969 -1.2267  2.3414  0.6891
 6828TIP3   OH242042   6.091   6.592   1.844 -0.1047  0.2989 -0.4961
 6828TIP3    H142043   6.020   6.528   1.843  0.7919 -0.8248  1.4963
 6828TIP3    H242044   6.065   6.657   1.909  0.6590 -0.1253  0.2559
 6829TIP3   OH242045   5.437   4.123   2.370  0.3339  0.6858 -0.3521
 6829TIP3    H142046   5.376   4.129   2.444 -0.4900  0.3671 -0.9818
 6829TIP3    H242047   5.397   4.178   2.302  1.0915  0.9935 -0.5525
 6830TIP3   OH242048   6.458   5.005   7.865 -0.3132 -0.0067 -0.1771
 6830TIP3    H142049   6.523   4.940   7.839  2.9228  2.4666  1.0017
 6830TIP3    H242050   6.457   5.001   7.960  1.2711  2.6084  0.0510
 6831TIP3   OH242051   1.326   2.565   0.154 -0.5494  1.1484  0.5051
 6831TIP3    H142052   1.315   2.475   0.185  0.5665  0.2260 -1.5604
 6831TIP3    H242053   1.262   2.574   0.084  1.2261  0.9325 -1.2228
 6832TIP3   OH242054   5.688   5.540   2.185 -0.1494  0.4206  0.4447
 6832TIP3    H142055   5.782   5.536   2.172 -0.3758 -0.3006 -1.2384
 6832TIP3    H242056   5.658   5.450   2.175 -1.2439  0.9277 -1.2970
 6833TIP3   OH242057   4.374   3.967   1.119 -0.1087  0.8097  0.4042
 6833TIP3    H142058   4.306   4.034   1.117  0.2166  1.1325 -0.1300
 6833TIP3    H242059   4.432   3.990   1.047  0.6521  0.6331  0.9446
 6834TIP3   OH242060   4.987   2.041   1.852 -0.2965 -0.4676  0.4477
 6834TIP3    H142061   4.898   2.008   1.865 -0.8397  0.2013 -1.2847
 6834TIP3    H242062   5.043   1.965   1.864 -1.1410 -1.0195  0.9841
 6835TIP3   OH242063   4.144   0.499   0.035  0.3998  0.0451  0.2829
 6835TIP3    H142064   4.114   0.562   0.101  1.4981 -0.1038  0.9542
 6835TIP3    H242065   4.070   0.441   0.021  0.3537 -0.3187  1.8821
 6836TIP3   OH242066   5.975   4.775   0.702 -0.4056  0.0129 -0.4795
 6836TIP3    H142067   6.052   4.831   0.688 -0.7967  0.7321  0.2072
 6836TIP3    H242068   5.982   4.747   0.793 -0.6198 -0.4347 -0.6016
 6837TIP3   OH242069   5.948   4.213   7.570  0.4213  0.2979 -0.2762
 6837TIP3    H142070   5.893   4.160   7.627  0.2608  1.1859  0.4123
 6837TIP3    H242071   5.935   4.175   7.483 -0.0470 -0.4888  0.1213
 6838TIP3   OH242072   4.946   5.574   0.434  0.0196  0.0051  0.2715
 6838TIP3    H142073   4.856   5.578   0.403 -0.2964  0.0390  1.1671
 6838TIP3    H242074   4.972   5.666   0.444  0.8661  0.0512 -1.9360
 6839TIP3   OH242075   2.088   1.867   0.654  0.3132  0.2995  0.4882
 6839TIP3    H142076   1.997   1.849   0.677 -0.4994  0.2772 -2.3269
 6839TIP3    H242077   2.115   1.935   0.716 -2.1179  1.3858  0.4857
 6840TIP3   OH242078   6.580   1.010   0.036 -0.1003  0.0656  0.4538
 6840TIP3    H142079   6.485   1.022   0.036 -0.1157  0.0733 -0.9178
 6840TIP3    H242080   6.593   0.920   0.007  0.2760 -0.6555  2.6672
 6841TIP3   OH242081   2.717   2.297   7.293 -0.8304 -0.5208 -0.6323
 6841TIP3    H142082   2.730   2.228   7.228  2.6141  1.2536 -2.0895
 6841TIP3    H242083   2.740   2.256   7.376  1.7015 -1.1340 -1.5276
 6842TIP3   OH242084   6.200   2.478   7.140 -1.1213  0.5630  0.0100
 6842TIP3    H142085   6.194   2.423   7.218 -2.1822  0.6029 -0.0208
 6842TIP3    H242086   6.194   2.417   7.067 -0.8012  0.5880 -0.0391
 6843TIP3   OH242087   1.221   3.864   1.792  0.5220  0.2011 -0.1448
 6843TIP3    H142088   1.195   3.956   1.798  0.8058  0.2272  0.8315
 6843TIP3    H242089   1.139   3.817   1.774  0.2486  0.5631  0.1596
 6844TIP3   OH242090   6.772   6.415   8.070 -0.0792 -0.2502  0.1479
 6844TIP3    H142091   6.747   6.377   8.154  0.2295 -0.1894  0.2677
 6844TIP3    H242092   6.766   6.342   8.008 -1.1775 -0.1019  0.0429
 6845TIP3   OH242093   0.313   0.629   0.470 -0.1857 -0.2542  0.0589
 6845TIP3    H142094   0.245   0.670   0.524  0.0585  0.6658 -0.3101
 6845TIP3    H242095   0.322   0.541   0.506 -0.3304  0.1963  1.2482
 6846TIP3   OH242096   5.913   0.463   0.057  0.1912  0.2985  0.4709
 6846TIP3    H142097   5.823   0.441   0.035  0.1032  2.2189 -1.3919
 6846TIP3    H242098   5.943   0.391   0.113 -2.3054 -0.6328  0.7002
 6847TIP3   OH242099   1.711   2.468   6.195 -1.1134  0.7700 -0.5835
 6847TIP3    H142100   1.668   2.548   6.164  0.5988  2.1613  0.4168
 6847TIP3    H242101   1.793   2.499   6.235 -0.7620 -1.4229  0.5454
 6848TIP3   OH242102   3.525   2.703   8.434 -0.4713  0.7831  0.1382
 6848TIP3    H142103   3.476   2.622   8.418 -0.0743  0.3708  0.9495
 6848TIP3    H242104   3.561   2.726   8.349 -0.8947  0.3011 -0.1784
 6849TIP3   OH242105   4.720   3.771   8.309 -0.6255 -0.5225 -0.4583
 6849TIP3    H142106   4.752   3.843   8.364  2.7407 -0.5362 -2.1414
 6849TIP3    H242107   4.667   3.814   8.242  0.0137  0.1988 -0.5084
 6850TIP3   OH242108   4.147   4.863   0.347 -0.0043  0.1328 -0.3995
 6850TIP3    H142109   4.214   4.930   0.361 -0.5885  1.2570 -2.6043
 6850TIP3    H242110   4.192   4.780   0.366  2.3128  0.7824 -2.5716
 6851TIP3   OH242111   3.198   3.359   1.559  0.4176  0.2465  0.6282
 6851TIP3    H142112   3.159   3.272   1.558  0.4928  0.2191  0.2660
 6851TIP3    H242113   3.264   3.355   1.629 -0.4372  0.3853  1.4620
 6852TIP3   OH242114   5.000   4.905   0.774 -0.0959  0.3564  0.0186
 6852TIP3    H142115   5.061   4.869   0.839 -0.0141 -0.8298 -0.6819
 6852TIP3    H242116   4.998   4.999   0.792  1.3942  0.3171  0.4983
 6853TIP3   OH242117   5.308   5.731   1.413 -0.4914 -0.5701  0.2335
 6853TIP3    H142118   5.363   5.808   1.395  0.1465 -0.9802  0.3734
 6853TIP3    H242119   5.222   5.767   1.434 -0.9967  0.0088 -2.4524
 6854TIP3   OH242120   2.118   5.047   7.098 -0.2916  0.5197  1.0512
 6854TIP3    H142121   2.203   5.022   7.135 -0.0104 -2.6467 -1.3036
 6854TIP3    H242122   2.069   4.965   7.095 -0.4732  0.4785 -4.7659
 6855TIP3   OH242123   3.681   4.930   1.636  0.3170 -0.6240  0.6070
 6855TIP3    H142124   3.732   4.851   1.650  0.1450 -0.7179  0.7025
 6855TIP3    H242125   3.633   4.914   1.555  0.3894 -0.5617  0.5518
 6856TIP3   OH242126   2.496   5.809   8.321  0.1338 -0.1311 -0.3792
 6856TIP3    H142127   2.489   5.714   8.325  2.2920 -0.3090  0.9361
 6856TIP3    H242128   2.527   5.827   8.233  0.1300 -0.6867 -0.4972
 6857TIP3   OH242129   0.184   0.168   7.317  0.0302 -0.3969  0.2004
 6857TIP3    H142130   0.259   0.110   7.325  0.8367  0.7767  1.7288
 6857TIP3    H242131   0.113   0.123   7.362  0.6034 -0.2774  1.2371
 6858TIP3   OH242132   3.287   0.929   7.099 -0.0782 -0.1380 -0.8303
 6858TIP3    H142133   3.349   0.964   7.036 -0.9384 -0.1695 -1.7241
 6858TIP3    H242134   3.291   0.989   7.173  0.3810  0.3430 -1.2382
 6859TIP3   OH242135   5.675   2.005   0.140 -0.1344  0.1910  0.2123
 6859TIP3    H142136   5.726   1.948   0.082  0.1767 -1.4794  2.0288
 6859TIP3    H242137   5.740   2.059   0.184 -0.3351  1.1326 -0.6114
 6860TIP3   OH242138   0.166   2.647   1.060 -0.4317 -0.2129  0.2248
 6860TIP3    H142139   0.132   2.625   0.973  0.8936  1.0061 -0.6644
 6860TIP3    H242140   0.123   2.729   1.082  1.0983  0.8321 -0.4789
 6861TIP3   OH242141   3.492   5.664   1.257 -0.6215 -0.0625 -0.3462
 6861TIP3    H142142   3.543   5.735   1.219 -0.3944  0.5320  1.0242
 6861TIP3    H242143   3.470   5.695   1.345 -1.2513 -1.3365 -0.0398
 6862TIP3   OH242144   5.830   6.133   0.411 -0.1798 -0.4494 -0.0280
 6862TIP3    H142145   5.754   6.183   0.439 -0.3973 -1.1727  0.7322
 6862TIP3    H242146   5.904   6.174   0.456 -0.1058  0.2866 -0.8102
 6863TIP3   OH242147   0.943   2.288   8.207 -0.2134  1.1142 -0.0673
 6863TIP3    H142148   0.949   2.336   8.289  0.3131  0.1527  0.4745
 6863TIP3    H242149   0.942   2.196   8.233  0.3820  0.7795 -1.1540
 6864TIP3   OH242150   6.858   6.170   8.007  0.2673 -0.0716  0.0810
 6864TIP3    H142151   6.774   6.140   7.973  0.1041 -0.1199  0.5243
 6864TIP3    H242152   6.922   6.145   7.940 -0.0787  0.0089 -0.2761
 6865TIP3   OH242153   5.900   6.331   1.443 -0.1164 -0.2842 -0.4938
 6865TIP3    H142154   5.865   6.242   1.438  0.7505 -0.7730  1.3329
 6865TIP3    H242155   5.851   6.379   1.376  0.3610 -2.4054 -2.5334
 6866TIP3   OH242156   6.830   4.862   8.389  0.4000  0.1257 -0.1889
 6866TIP3    H142157   6.761   4.927   8.406  1.9718  1.5450  1.0977
 6866TIP3    H242158   6.817   4.796   8.457  0.6552  0.7024  0.4342
 6867TIP3   OH242159   1.266   5.977   8.365  0.6041 -0.4347  0.1105
 6867TIP3    H142160   1.219   5.940   8.439  1.5108 -0.7038  0.5686
 6867TIP3    H242161   1.287   6.066   8.393  1.3333 -0.6818  0.3630
 6868TIP3   OH242162   5.596   6.465   0.955 -0.3159 -0.2826  0.0148
 6868TIP3    H142163   5.597   6.394   1.019  1.0003 -2.0161 -1.8151
 6868TIP3    H242164   5.522   6.445   0.898 -2.7652  2.3268  1.9474
 6869TIP3   OH242165   3.597   0.112   0.834  0.2651 -0.3456  0.2776
 6869TIP3    H142166   3.611   0.017   0.838 -0.2993 -0.5428 -1.5795
 6869TIP3    H242167   3.509   0.121   0.796 -0.1117  0.9386  1.3539
 6870TIP3   OH242168   4.842   0.908   7.434  0.6835 -0.2133 -0.6899
 6870TIP3    H142169   4.874   0.980   7.489  1.1128 -0.7900 -0.1788
 6870TIP3    H242170   4.830   0.948   7.347 -0.2889  0.7832 -0.1257
 6871TIP3   OH242171   0.765   4.020   2.195 -0.2293 -0.1243 -0.2956
 6871TIP3    H142172   0.787   3.927   2.185  1.8830  0.2156  0.5711
 6871TIP3    H242173   0.769   4.036   2.289  1.0065  1.1403 -0.5124
 6872TIP3   OH242174   6.602   6.677   6.264  0.3568 -0.3008 -0.2147
 6872TIP3    H142175   6.524   6.655   6.315 -0.6197  1.2987 -0.9088
 6872TIP3    H242176   6.649   6.740   6.319  1.5845 -1.8037  0.5158
 6873TIP3   OH242177   4.816   3.123   1.214 -0.1206  0.0057  0.2225
 6873TIP3    H142178   4.827   3.123   1.119  0.9997  0.2537  0.3299
 6873TIP3    H242179   4.896   3.082   1.247 -0.8798 -0.8683  1.0360
 6874TIP3   OH242180   2.384   3.954   1.558  0.2301 -0.0231 -0.5363
 6874TIP3    H142181   2.457   3.893   1.562 -0.9072 -1.4003  1.7587
 6874TIP3    H242182   2.311   3.901   1.525 -0.1223  0.8807 -1.2343
 6875TIP3   OH242183   5.940   1.386   0.543  1.0972  0.7390 -0.0382
 6875TIP3    H142184   5.917   1.311   0.598 -0.5660 -1.0444 -2.8948
 6875TIP3    H242185   5.857   1.413   0.503  2.2312  1.6793 -1.8927
 6876TIP3   OH242186   3.005   0.846   7.886 -0.2281  0.2783 -0.2542
 6876TIP3    H142187   3.007   0.900   7.806 -1.8589 -0.4583 -0.8250
 6876TIP3    H242188   3.098   0.830   7.905  0.3291  3.0387 -0.1885
 6877TIP3   OH242189   0.049   6.335   7.269 -0.5673  0.0953 -0.2489
 6877TIP3    H142190   0.124   6.330   7.210 -1.2438  0.2137 -1.1464
 6877TIP3    H242191   0.077   6.393   7.339  1.0380 -1.7866  0.7560
 6878TIP3   OH242192   6.740   4.490   1.137 -0.5302  0.8946 -0.6020
 6878TIP3    H142193   6.809   4.488   1.071 -0.1306  0.4659 -0.1768
 6878TIP3    H242194   6.697   4.575   1.125 -0.3051  0.9215 -1.2477
 6879TIP3   OH242195   1.507   5.787   0.494 -0.1446 -0.0159  0.2705
 6879TIP3    H142196   1.574   5.850   0.467  0.8873 -1.0659  0.2939
 6879TIP3    H242197   1.424   5.829   0.470  0.5844  0.5853 -1.3530
 6880TIP3   OH242198   2.010   2.587   1.454 -0.1997  0.3412  0.1134
 6880TIP3    H142199   2.070   2.621   1.522 -0.4112  1.2453 -0.1322
 6880TIP3    H242200   2.029   2.494   1.450  0.7115  0.4937  0.5283
 6881TIP3   OH242201   3.092   3.149   8.457 -0.5463 -0.0687  0.7372
 6881TIP3    H142202   3.175   3.190   8.433 -0.5301 -0.2643  0.4535
 6881TIP3    H242203   3.027   3.217   8.444 -0.5983 -0.3134 -0.3308
 6882TIP3   OH242204   4.927   5.887   6.963  0.1463 -0.6597 -0.2819
 6882TIP3    H142205   4.917   5.817   6.899 -2.5259 -0.1913 -0.4724
 6882TIP3    H242206   4.838   5.908   6.991  0.9003  2.0420  0.4383
 6883TIP3   OH242207   1.032   0.733   0.317 -0.0692  0.1635 -0.8878
 6883TIP3    H142208   1.097   0.702   0.254  1.0119 -2.3300  1.2661
 6883TIP3    H242209   1.069   0.713   0.402 -2.6296  0.9306  0.5287
 6884TIP3   OH242210   3.474   1.910   0.881  0.0502 -0.2445  0.0698
 6884TIP3    H142211   3.470   1.815   0.887  1.0976 -0.3977 -1.2674
 6884TIP3    H242212   3.554   1.934   0.927  0.7791 -0.2110 -1.1583
 6885TIP3   OH242213   3.590   6.702   7.975  0.4562  0.2864  0.1059
 6885TIP3    H142214   3.617   6.760   7.903  1.8704 -0.3767  0.0690
 6885TIP3    H242215   3.665   6.643   7.987  0.1302  0.2012  1.9378
 6886TIP3   OH242216   1.336   2.303   1.635  0.0649 -0.5862 -0.5092
 6886TIP3    H142217   1.260   2.265   1.678  0.6961 -1.2859  0.0132
 6886TIP3    H242218   1.400   2.232   1.630  0.9079  0.1303 -0.4017
 6887TIP3   OH242219   6.489   2.668   8.381  0.3775 -0.2596 -0.1836
 6887TIP3    H142220   6.489   2.710   8.295  0.2297 -0.2305 -0.1700
 6887TIP3    H242221   6.502   2.739   8.443 -0.1295 -0.2021 -0.1446
 6888TIP3   OH242222   4.562   2.095   6.759  0.0396  0.2182 -0.1481
 6888TIP3    H142223   4.498   2.080   6.689 -1.9973 -0.1320  1.6530
 6888TIP3    H242224   4.570   2.190   6.765  0.3183  0.2480 -0.9052
 6889TIP3   OH242225   0.146   1.536   8.061  0.2869  0.1833  0.3131
 6889TIP3    H142226   0.234   1.561   8.035 -0.3366  1.2093 -0.9581
 6889TIP3    H242227   0.091   1.609   8.032 -0.9801 -0.4073  1.1151
 6890TIP3   OH242228   3.763   5.361   8.283 -0.1951  0.4054 -0.2336
 6890TIP3    H142229   3.738   5.294   8.348  0.8103 -0.0185 -0.2680
 6890TIP3    H242230   3.848   5.392   8.313  0.9760 -0.8236 -2.1025
 6891TIP3   OH242231   4.470   4.788   0.989  0.3915  0.1032 -0.2980
 6891TIP3    H142232   4.541   4.847   1.013  1.2587 -0.8918 -0.3760
 6891TIP3    H242233   4.426   4.833   0.916  0.5259  1.0153  0.1654
 6892TIP3   OH242234   5.871   2.882   8.508 -0.0662  0.8951 -0.6327
 6892TIP3    H142235   5.895   2.974   8.524  0.4340  0.8847 -1.3113
 6892TIP3    H242236   5.954   2.835   8.510 -0.3872  0.3448  0.3585
 6893TIP3   OH242237   2.706   5.225   0.803 -0.7746  0.0870 -0.1258
 6893TIP3    H142238   2.671   5.304   0.761 -0.9388  0.1507  0.1329
 6893TIP3    H242239   2.800   5.242   0.810 -0.8648  0.4390  0.3109
 6894TIP3   OH242240   0.786   1.146   8.376  0.3896 -0.0661 -0.2466
 6894TIP3    H142241   0.872   1.184   8.357  1.0388 -1.7584 -0.8770
 6894TIP3    H242242   0.790   1.058   8.338 -2.0086  0.1893 -1.2600
 6895TIP3   OH242243   2.469   2.602   1.682  0.1681 -0.4319 -0.8468
 6895TIP3    H142244   2.556   2.596   1.721  0.2541  2.5452 -0.3345
 6895TIP3    H242245   2.409   2.585   1.755  0.2826 -2.2320 -1.1449
 6896TIP3   OH242246   4.824   4.483   7.052 -0.4970 -0.0391 -0.1909
 6896TIP3    H142247   4.767   4.413   7.022  0.9717 -0.9247 -1.0305
 6896TIP3    H242248   4.869   4.513   6.973  0.8854 -0.0254  0.5607
 6897TIP3   OH242249   0.684   6.456   8.259  0.3445  0.3346 -0.2895
 6897TIP3    H142250   0.639   6.490   8.337  1.1924  1.2801 -0.1935
 6897TIP3    H242251   0.615   6.410   8.210  0.0952 -1.7539  1.8071
 6898TIP3   OH242252   1.179   2.542   0.752  0.4333  0.0348  0.6461
 6898TIP3    H142253   1.152   2.582   0.834  0.6613  0.7465  0.3847
 6898TIP3    H242254   1.261   2.498   0.772  0.7514  0.6376  0.6887
 6899TIP3   OH242255   1.806   5.889   8.387 -0.1645 -0.0782  0.4353
 6899TIP3    H142256   1.730   5.947   8.393  0.0891  0.3181 -0.0105
 6899TIP3    H242257   1.789   5.820   8.450 -1.5396 -0.7455 -0.6050
 6900TIP3   OH242258   0.859   3.028   2.256  0.6002  0.0713  0.3076
 6900TIP3    H142259   0.938   3.016   2.204  0.6451 -0.2290  0.4387
 6900TIP3    H242260   0.791   2.981   2.207  0.5312  0.2207  0.2602
 6901TIP3   OH242261   2.081   1.041   0.123  0.3838 -0.3866 -0.7383
 6901TIP3    H142262   2.026   0.964   0.109 -0.2442  0.0759 -0.8455
 6901TIP3    H242263   2.054   1.074   0.208 -0.5274  0.6673 -1.4131
 6902TIP3   OH242264   3.143   2.421   1.522 -0.5113 -0.2497  0.2759
 6902TIP3    H142265   3.101   2.375   1.595  0.1555  0.1988  0.9562
 6902TIP3    H242266   3.222   2.370   1.505 -0.4052 -0.0583  0.2020
 6903TIP3   OH242267   4.973   1.169   8.475 -0.2224 -0.5490  0.2610
 6903TIP3    H142268   4.912   1.225   8.427  1.5919 -0.0087 -1.5447
 6903TIP3    H242269   4.938   1.081   8.464 -1.3737 -0.1165  0.3656
 6904TIP3   OH242270   0.520   2.815   7.084 -0.3655  0.3539  0.3534
 6904TIP3    H142271   0.429   2.822   7.054  0.2986  1.4057 -1.5523
 6904TIP3    H242272   0.567   2.775   7.011  0.3870 -2.2304  2.1153
 6905TIP3   OH242273   0.586   6.770   8.306 -0.0776  0.2600 -0.0081
 6905TIP3    H142274   0.658   6.828   8.281  1.2202 -1.5394 -0.6657
 6905TIP3    H242275   0.624   6.711   8.371 -1.2126 -0.1821  0.2749
 6906TIP3   OH242276   5.872   5.536   2.649 -0.0374  0.3922 -0.2862
 6906TIP3    H142277   5.952   5.491   2.676 -0.7128 -0.3238  0.6090
 6906TIP3    H242278   5.838   5.485   2.576 -0.8347 -0.6549  0.7661
 6907TIP3   OH242279   1.043   4.747   1.302 -0.5768  0.1720 -0.1329
 6907TIP3    H142280   1.136   4.773   1.303 -0.7882  1.2661 -2.2116
 6907TIP3    H242281   1.043   4.657   1.334  1.3944 -0.3079 -1.2870
 6908TIP3   OH242282   1.609   1.204   0.909  0.5670 -0.4830 -0.2095
 6908TIP3    H142283   1.571   1.160   0.985  1.6332 -1.8915 -0.4540
 6908TIP3    H242284   1.685   1.250   0.943 -0.0376  0.4806 -0.1152
 6909TIP3   OH242285   5.616   5.872   8.040 -0.2020  0.0134  0.2665
 6909TIP3    H142286   5.613   5.777   8.027 -0.0883  0.1237 -0.5869
 6909TIP3    H242287   5.626   5.882   8.135  0.2339 -0.8373  0.3249
 6910TIP3   OH242288   2.937   3.384   1.514 -0.2704 -0.0071  0.6872
 6910TIP3    H142289   3.032   3.381   1.508 -0.3259 -0.6405 -0.0186
 6910TIP3    H242290   2.907   3.304   1.471 -1.1428  0.5139  0.2894
 6911TIP3   OH242291   0.783   1.099   7.979 -0.4205  0.7421 -0.2251
 6911TIP3    H142292   0.866   1.055   7.996 -2.2944 -2.7478  0.7272
 6911TIP3    H242293   0.782   1.111   7.884 -0.0613 -2.0127 -0.6410
 6912TIP3   OH242294   1.427   2.021   1.620  0.2574 -0.3192  0.0446
 6912TIP3    H142295   1.506   1.992   1.575  1.8259  3.0177  0.3088
 6912TIP3    H242296   1.361   2.027   1.551  0.8279 -1.1827 -0.5949
 6913TIP3   OH242297   5.636   2.152   7.558  0.5061  0.3564 -0.0832
 6913TIP3    H142298   5.615   2.246   7.556  1.6352  0.6234  0.2845
 6913TIP3    H242299   5.639   2.130   7.651  0.0976 -0.0913 -0.1714
 6914TIP3   OH242300   2.887   4.008   7.511  0.2452 -0.1693  0.0847
 6914TIP3    H142301   2.859   3.987   7.422  0.7193 -0.1985 -0.0643
 6914TIP3    H242302   2.980   4.028   7.502  0.1392  0.5192  0.4650
 6915TIP3   OH242303   4.112   6.336   7.885 -0.2163  0.9158 -0.7271
 6915TIP3    H142304   4.199   6.298   7.897 -0.8215 -0.5488 -0.8053
 6915TIP3    H242305   4.066   6.318   7.967 -1.2704 -0.6800 -1.6133
 6916TIP3   OH242306   0.174   3.149   0.609  0.5765  0.7325 -0.2734
 6916TIP3    H142307   0.132   3.213   0.551  0.5289 -0.8554 -2.0922
 6916TIP3    H242308   0.137   3.065   0.584  1.8190 -0.2283  0.9195
 6917TIP3   OH242309   6.625   3.722   1.134  0.9777 -0.0408  0.0291
 6917TIP3    H142310   6.707   3.744   1.090  1.4052 -0.0465  0.7949
 6917TIP3    H242311   6.652   3.668   1.208  0.4591  1.2461  1.2065
 6918TIP3   OH242312   5.815   5.128   8.021 -0.2096  0.1357 -0.3751
 6918TIP3    H142313   5.842   5.183   7.947  0.5693 -0.2407 -0.3796
 6918TIP3    H242314   5.844   5.040   7.997 -0.2164 -0.0378  0.2517
 6919TIP3   OH242315   0.258   2.114   1.115 -0.6285  0.4633 -0.0183
 6919TIP3    H142316   0.305   2.060   1.052 -0.5971  1.2684 -0.7047
 6919TIP3    H242317   0.266   2.203   1.081 -0.1577  1.0002  1.3898
 6920TIP3   OH242318   5.343   2.501   7.289  0.1981 -0.1151  0.2570
 6920TIP3    H142319   5.355   2.531   7.379 -1.2611  0.7616  0.1957
 6920TIP3    H242320   5.384   2.415   7.287 -1.9671 -1.3512  2.5099
 6921TIP3   OH242321   5.400   2.258   0.678 -0.1926  0.1394  0.0314
 6921TIP3    H142322   5.441   2.292   0.758  1.1176 -1.0852 -0.0725
 6921TIP3    H242323   5.432   2.168   0.672 -0.9237 -0.0405 -1.4473
 6922TIP3   OH242324   3.932   4.275   6.591  0.1093  0.0606  0.0899
 6922TIP3    H142325   3.900   4.188   6.569 -0.2627  0.0597  0.6248
 6922TIP3    H242326   3.995   4.261   6.661  1.4953  0.0398 -1.1038
 6923TIP3   OH242327   1.011   6.822   7.016 -0.6198  1.1102  0.2420
 6923TIP3    H142328   1.023   6.895   6.955  1.7479  0.9733  0.4389
 6923TIP3    H242329   0.986   6.748   6.961  2.1732  0.8049 -0.7836
 6924TIP3   OH242330   6.391   1.514   7.001  0.4508 -0.8133 -0.3497
 6924TIP3    H142331   6.302   1.494   6.972  0.7920 -1.9464 -0.7010
 6924TIP3    H242332   6.440   1.528   6.920  1.1460 -2.7997 -0.3368
 6925TIP3   OH242333   2.506   1.540   1.621 -0.0620  0.4268 -0.0314
 6925TIP3    H142334   2.530   1.576   1.535  0.9064  0.7107  0.3417
 6925TIP3    H242335   2.446   1.469   1.601  0.3952  0.2904 -0.9711
 6926TIP3   OH242336   5.517   6.223   1.402  0.0850 -0.3285 -0.4773
 6926TIP3    H142337   5.548   6.249   1.316 -1.3108  2.7234 -0.1912
 6926TIP3    H242338   5.570   6.274   1.463 -0.6488 -0.5041  0.3291
 6927TIP3   OH242339   3.762   5.267   7.612 -0.0380 -0.5041 -0.4563
 6927TIP3    H142340   3.741   5.251   7.520  1.2594 -1.5999 -0.5927
 6927TIP3    H242341   3.848   5.227   7.624 -0.6326 -1.2923  1.4949
 6928TIP3   OH242342   2.704   2.918   2.165  0.2503  0.5136  0.0721
 6928TIP3    H142343   2.748   2.840   2.129  0.3201  1.3625 -1.8421
 6928TIP3    H242344   2.741   2.991   2.114 -0.7593  1.6491  0.9204
 6929TIP3   OH242345   0.052   6.378   0.413  0.9029  0.3644  0.1096
 6929TIP3    H142346   0.108   6.375   0.335  0.1318 -0.3293 -0.4456
 6929TIP3    H242347  -0.008   6.451   0.396  2.4480  1.9770  1.3103
 6930TIP3   OH242348   1.537   1.309   0.642 -0.2601 -0.0865  0.0345
 6930TIP3    H142349   1.557   1.250   0.715 -2.1165 -0.4199  0.3179
 6930TIP3    H242350   1.568   1.395   0.671  1.1955 -0.6265  0.1895
 6931TIP3   OH242351   0.087   5.830   7.551 -0.9614  0.0258  0.2652
 6931TIP3    H142352   0.049   5.910   7.515  0.9729  1.7494  1.7381
 6931TIP3    H242353   0.182   5.842   7.540 -0.6367 -2.6103 -0.4678
 6932TIP3   OH242354   3.618   0.921   6.409  0.1979  0.3943  0.2993
 6932TIP3    H142355   3.590   0.831   6.390  1.1494  0.2100 -0.2671
 6932TIP3    H242356   3.536   0.970   6.415 -0.2827 -0.0641 -1.6936
 6933TIP3   OH242357   0.565   0.911   8.508 -0.6078 -0.0386 -0.5996
 6933TIP3    H142358   0.525   0.952   8.585 -1.4829 -1.6396 -0.1611
 6933TIP3    H242359   0.549   0.974   8.438  0.0821  1.3904  0.4631
 6934TIP3   OH242360   5.141   6.285   1.918 -0.1917 -0.0570  0.1468
 6934TIP3    H142361   5.182   6.282   1.831 -2.1505 -0.3318 -0.8185
 6934TIP3    H242362   5.117   6.194   1.937 -0.9730  0.1837  0.3579
 6935TIP3   OH242363   0.243   4.759   7.460  0.3158  0.1084 -0.1244
 6935TIP3    H142364   0.212   4.849   7.454 -0.0021  0.0989  1.1242
 6935TIP3    H242365   0.297   4.747   7.382  1.2332  1.7059  0.2171
 6936TIP3   OH242366   0.807   3.653   7.088  0.4346  0.1746 -0.0232
 6936TIP3    H142367   0.757   3.577   7.117  1.3378  0.0830  1.4173
 6936TIP3    H242368   0.842   3.628   7.003 -2.0726  0.3334 -1.2017
 6937TIP3   OH242369   5.423   5.592   6.631  0.0551  0.4193  0.4449
 6937TIP3    H142370   5.367   5.656   6.587 -0.4825 -0.4579 -0.1733
 6937TIP3    H242371   5.503   5.589   6.579 -1.2182 -1.8606 -1.5952
 6938TIP3   OH242372   0.096   5.022   0.858 -0.3430  0.0068  0.1779
 6938TIP3    H142373   0.127   4.936   0.885 -0.0348  0.5393  1.6058
 6938TIP3    H242374   0.013   5.004   0.812  0.7627 -1.2076 -1.4547
 6939TIP3   OH242375   0.407   1.653   8.049  0.4034  0.1069 -0.3786
 6939TIP3    H142376   0.472   1.717   8.079  0.9367 -0.1876 -0.8778
 6939TIP3    H242377   0.417   1.652   7.954  1.7653 -2.0886 -0.2790
 6940TIP3   OH242378   6.567   6.523   1.023 -0.1964 -0.5818 -0.2127
 6940TIP3    H142379   6.570   6.459   0.952  0.0469  0.1667 -0.8855
 6940TIP3    H242380   6.653   6.565   1.022 -0.0091 -0.8939  0.8490
 6941TIP3   OH242381   2.396   2.512   8.289  0.1205 -0.3282  0.2601
 6941TIP3    H142382   2.390   2.444   8.222 -0.3263  0.5485 -0.6066
 6941TIP3    H242383   2.487   2.508   8.319  0.7533  0.2532 -1.4690
 6942TIP3   OH242384   4.367   1.802   7.479 -0.9073 -0.1225  0.1958
 6942TIP3    H142385   4.358   1.831   7.388 -3.1197 -2.1724 -0.3507
 6942TIP3    H242386   4.417   1.721   7.473 -0.1472  0.2783  0.9538
 6943TIP3   OH242387   5.242   2.637   8.280 -0.0114  0.2690  0.3016
 6943TIP3    H142388   5.196   2.719   8.261 -1.1904  0.2846  2.8163
 6943TIP3    H242389   5.326   2.664   8.317  0.0031  0.3353  0.2193
 6944TIP3   OH242390   6.557   6.719   1.639  0.5987  0.1225 -0.2302
 6944TIP3    H142391   6.634   6.703   1.693 -0.7481  0.8246  2.0269
 6944TIP3    H242392   6.498   6.646   1.658  0.6318 -0.3808 -1.8861
 6945TIP3   OH242393   6.107   0.969   6.547  0.1748  0.0586 -0.2564
 6945TIP3    H142394   6.029   0.941   6.596  0.5714 -0.4963  0.0728
 6945TIP3    H242395   6.180   0.926   6.592  0.7378  1.0277 -0.2021
 6946TIP3   OH242396   1.506   6.710   1.122  0.0493  0.2217 -0.3467
 6946TIP3    H142397   1.433   6.658   1.088 -0.0830  0.8599 -1.0454
 6946TIP3    H242398   1.467   6.763   1.191 -0.0467  0.2141 -0.3952
 6947TIP3   OH242399   3.665   3.968   8.436 -0.3932  0.5316  0.3686
 6947TIP3    H142400   3.688   3.883   8.474  1.2481  0.6194 -0.3454
 6947TIP3    H242401   3.610   4.009   8.502 -0.9379 -0.9323  0.8857
 6948TIP3   OH242402   0.026   1.914   8.156  0.1201 -0.1573  0.3592
 6948TIP3    H142403  -0.028   1.991   8.175 -0.0277 -0.1124 -0.2420
 6948TIP3    H242404   0.103   1.925   8.212  1.1574  1.5889 -1.2940
 6949TIP3   OH242405   4.985   0.295   0.770  0.0330  0.0937 -0.1228
 6949TIP3    H142406   4.985   0.274   0.676  0.7978 -0.0492 -0.0927
 6949TIP3    H242407   4.975   0.211   0.814 -1.5871  0.2706 -0.0806
 6950TIP3   OH242408   0.834   5.604   2.109  0.8025  0.2395  0.0874
 6950TIP3    H142409   0.778   5.559   2.172  0.1658  1.0275  0.0967
 6950TIP3    H242410   0.923   5.584   2.138  0.5212 -0.3792  0.5390
 6951TIP3   OH242411   1.124   5.621   8.088  0.2639 -0.6108  0.7945
 6951TIP3    H142412   1.179   5.593   8.161 -0.8618 -2.7522  0.9069
 6951TIP3    H242413   1.123   5.547   8.028  0.9033  0.9880 -1.3028
 6952TIP3   OH242414   3.573   2.480   8.222 -0.5791  0.1260 -0.0533
 6952TIP3    H142415   3.487   2.516   8.199 -0.7361 -0.3728 -0.2763
 6952TIP3    H242416   3.629   2.503   8.148 -0.7798 -0.4200 -0.3868
 6953TIP3   OH242417   0.965   4.525   7.349  0.1194  0.7877 -0.2662
 6953TIP3    H142418   0.886   4.481   7.379  1.6754 -1.8823  0.1689
 6953TIP3    H242419   0.939   4.568   7.267 -1.7313 -0.1561 -0.2200
 6954TIP3   OH242420   3.403   0.037   1.511 -0.3933 -0.3823 -0.1667
 6954TIP3    H142421   3.393   0.126   1.545 -0.5385 -0.4236 -0.0969
 6954TIP3    H242422   3.433   0.048   1.421  0.5025 -0.2781  0.1326
 6955TIP3   OH242423   1.156   0.663   0.928 -0.1226 -0.2776 -0.2564
 6955TIP3    H142424   1.209   0.716   0.988  0.2991 -1.1428  0.1571
 6955TIP3    H242425   1.066   0.687   0.948 -0.0018 -0.7150  0.9118
 6956TIP3   OH242426   3.081   6.440   6.905 -0.3153 -0.6609 -0.0374
 6956TIP3    H142427   3.062   6.471   6.994  0.2046  1.7733 -0.7252
 6956TIP3    H242428   3.013   6.479   6.851  1.1949  0.4961 -1.1530
 6957TIP3   OH242429   0.257   5.895   0.036  0.4562  0.6624  0.4832
 6957TIP3    H142430   0.188   5.957   0.058 -0.6136 -0.8045  1.4432
 6957TIP3    H242431   0.260   5.896  -0.060 -0.8106  0.8563  0.4275
 6958TIP3   OH242432   5.056   4.468   7.836 -0.5080  1.0009  0.0914
 6958TIP3    H142433   5.004   4.503   7.764 -0.5210 -0.1458 -0.4798
 6958TIP3    H242434   5.003   4.397   7.872  0.8230 -0.5065 -0.7973
 6959TIP3   OH242435   6.496   0.827   0.361 -0.3595 -0.3714  0.2932
 6959TIP3    H142436   6.516   0.887   0.288 -0.4934 -0.0564  0.5117
 6959TIP3    H242437   6.405   0.847   0.383  0.0127  0.3346  1.2849
 6960TIP3   OH242438   4.114   4.270   8.462 -0.2958 -0.0496  0.3794
 6960TIP3    H142439   4.032   4.235   8.427  0.4531 -0.8320 -0.6579
 6960TIP3    H242440   4.145   4.203   8.522 -0.5159  0.3538  0.9575
 6961TIP3   OH242441   5.492   3.891   1.366 -0.2146  0.6701  0.3000
 6961TIP3    H142442   5.416   3.837   1.387  0.5046  0.0280  1.3832
 6961TIP3    H242443   5.474   3.925   1.279 -1.3364 -0.1846  0.1699
 6962TIP3   OH242444   3.997   5.627   1.635  0.3456 -0.3425  0.2760
 6962TIP3    H142445   4.008   5.592   1.547  1.0559 -0.5274  0.4299
 6962TIP3    H242446   3.903   5.621   1.652  0.2013 -0.2695 -0.4793
 6963TIP3   OH242447   4.661   2.389   0.392 -1.4431  0.1095 -0.0306
 6963TIP3    H142448   4.608   2.357   0.465  0.6435 -2.6248  0.4553
 6963TIP3    H242449   4.731   2.324   0.384  0.2478  2.0768 -2.3874
 6964TIP3   OH242450   0.843   0.241   7.536  0.3651 -0.2296  0.3778
 6964TIP3    H142451   0.917   0.257   7.595 -0.4848  3.0128  0.8043
 6964TIP3    H242452   0.766   0.257   7.591 -0.5115  0.4245 -0.9985
 6965TIP3   OH242453   1.849   0.707   1.226 -0.0817  0.1365  0.5106
 6965TIP3    H142454   1.870   0.663   1.308 -0.7009 -0.6800  0.2458
 6965TIP3    H242455   1.762   0.744   1.240 -0.4714 -0.5623  0.0220
 6966TIP3   OH242456   5.929   3.309   0.926 -0.4394 -0.2788 -0.2835
 6966TIP3    H142457   5.944   3.357   1.008 -2.1461 -1.2557  0.6665
 6966TIP3    H242458   5.975   3.226   0.939 -0.7954 -0.4746 -0.2740
 6967TIP3   OH242459   3.670   3.492   7.496 -0.2714  0.6276 -0.0427
 6967TIP3    H142460   3.642   3.583   7.506 -1.3190  0.2040  1.2319
 6967TIP3    H242461   3.723   3.491   7.417  0.3122  2.4706  0.2910
 6968TIP3   OH242462   2.835   0.369   1.819  0.1529  0.1139 -0.8612
 6968TIP3    H142463   2.911   0.318   1.849  0.3031 -0.2395 -1.8177
 6968TIP3    H242464   2.873   0.449   1.782 -0.1395  1.5771  1.7705
 6969TIP3   OH242465   0.319   0.672   8.492 -0.2835  0.2988 -0.8541
 6969TIP3    H142466   0.360   0.742   8.542  1.0099 -1.8326  1.2917
 6969TIP3    H242467   0.225   0.690   8.499 -0.1234  0.6186  1.6946
 6970TIP3   OH242468   0.933   3.180   1.305 -0.6429 -0.5368 -0.3471
 6970TIP3    H142469   0.852   3.174   1.355  0.0315 -3.1630  0.6277
 6970TIP3    H242470   0.989   3.237   1.357  0.1029 -3.3354  2.2370
 6971TIP3   OH242471   1.566   1.163   1.385  0.1206 -0.1934 -0.0233
 6971TIP3    H142472   1.502   1.231   1.366  0.3436  0.7774  2.4331
 6971TIP3    H242473   1.651   1.208   1.382  0.4048 -0.7160  0.0752
 6972TIP3   OH242474   4.759   5.647   7.591 -0.3131 -0.1520 -0.1191
 6972TIP3    H142475   4.767   5.562   7.633 -0.2698  0.2411  0.7019
 6972TIP3    H242476   4.823   5.702   7.636 -0.1937  0.2622 -0.7797
 6973TIP3   OH242477   2.535   5.328   8.145 -0.4279  0.5758 -0.2727
 6973TIP3    H142478   2.475   5.322   8.071 -0.4317  0.8000 -0.2890
 6973TIP3    H242479   2.601   5.391   8.117 -1.7668  2.5651  0.8242
 6974TIP3   OH242480   5.253   4.048   1.625  0.1265 -0.3464 -0.1551
 6974TIP3    H142481   5.311   4.114   1.587  0.6621 -0.2717  0.7833
 6974TIP3    H242482   5.310   3.988   1.671 -0.5318 -0.2677  0.7941
 6975TIP3   OH242483   3.048   5.239   7.543 -0.2125 -0.1750  0.2874
 6975TIP3    H142484   3.084   5.215   7.628 -0.2844 -0.2411  0.2988
 6975TIP3    H242485   3.122   5.276   7.495  0.0672 -1.0533  0.0198
 6976TIP3   OH242486   1.626   3.259   7.238 -0.2255  0.1416  0.1350
 6976TIP3    H142487   1.632   3.334   7.297  1.4713  0.9152 -0.9525
 6976TIP3    H242488   1.586   3.190   7.291 -1.5054  1.6824  1.2643
 6977TIP3   OH242489   5.336   1.521   6.745  0.4929 -0.6844 -0.1937
 6977TIP3    H142490   5.351   1.499   6.653 -1.0846 -2.0416 -0.1867
 6977TIP3    H242491   5.402   1.587   6.766 -0.8783  1.8151 -3.0682
 6978TIP3   OH242492   6.139   6.848   1.595  0.4456  0.1778 -0.1860
 6978TIP3    H142493   6.129   6.761   1.556 -0.3605  0.8292 -1.5397
 6978TIP3    H242494   6.183   6.899   1.527 -0.4180  1.1922 -0.0110
 6979TIP3   OH242495   4.024   3.068   6.704  0.3312  0.1255 -0.0674
 6979TIP3    H142496   3.984   3.153   6.684 -1.0737  0.0182  1.9555
 6979TIP3    H242497   4.092   3.057   6.637 -1.8087  1.1604 -2.5730
 6980TIP3   OH242498   3.946   2.711   6.806 -0.4578  1.1522  0.2675
 6980TIP3    H142499   3.926   2.708   6.713 -0.0527 -0.2440  0.2122
 6980TIP3    H242500   4.035   2.676   6.813  0.3599  3.1762  0.9783
 6981TIP3   OH242501   0.445   1.242   6.810  0.4345  0.2502  0.0220
 6981TIP3    H142502   0.515   1.306   6.798  0.7749  0.0605  0.9315
 6981TIP3    H242503   0.461   1.205   6.896  0.1070 -0.9117 -0.4035
 6982TIP3   OH242504   1.264   2.082   1.186 -0.0309  0.7992  0.4790
 6982TIP3    H142505   1.242   2.172   1.160 -0.1063  0.4794 -0.6253
 6982TIP3    H242506   1.336   2.057   1.128 -0.0148  0.1386  0.7716
 6983TIP3   OH242507   6.557   4.276   0.164 -0.2626 -0.1266 -0.5036
 6983TIP3    H142508   6.602   4.200   0.127  0.3101  0.0018 -0.1033
 6983TIP3    H242509   6.547   4.255   0.257  1.6883  1.0718  0.0392
 6984TIP3   OH242510   6.836   2.583   0.536  0.6536 -0.3434 -0.5503
 6984TIP3    H142511   6.835   2.591   0.631  0.5274 -0.4588 -0.5430
 6984TIP3    H242512   6.891   2.507   0.518 -0.5271 -1.2349 -0.5125
 6985TIP3   OH242513   3.456   2.216   0.165 -0.2834  0.4473  0.0970
 6985TIP3    H142514   3.384   2.154   0.177 -0.1295  0.2424 -0.0401
 6985TIP3    H242515   3.417   2.289   0.117 -0.5250  0.5680  0.4692
 6986TIP3   OH242516   2.571   2.503   1.096 -0.1467 -0.1707  0.3339
 6986TIP3    H142517   2.643   2.476   1.040 -0.0734  0.2677  0.2076
 6986TIP3    H242518   2.569   2.440   1.167 -0.0153 -0.5271  0.0218
 6987TIP3   OH242519   3.993   3.310   7.740  0.1698 -0.2049  0.3816
 6987TIP3    H142520   4.059   3.315   7.809  0.8945  1.0707 -0.3715
 6987TIP3    H242521   3.963   3.400   7.729 -0.3104 -0.4778 -0.6071
 6988TIP3   OH242522   6.625   0.528   7.204  0.2621 -0.3713 -0.4274
 6988TIP3    H142523   6.634   0.553   7.112  1.9219 -0.6342 -0.3559
 6988TIP3    H242524   6.605   0.435   7.202  1.2664 -0.5911 -0.5088
 6989TIP3   OH242525   6.424   5.866   1.702 -0.6009  0.1016 -0.6944
 6989TIP3    H142526   6.481   5.826   1.636  0.8716 -0.1762  0.6995
 6989TIP3    H242527   6.470   5.853   1.785 -2.8393 -0.4231  0.5577
 6990TIP3   OH242528   6.757   5.780   7.300  0.3678  0.6158 -0.5329
 6990TIP3    H142529   6.711   5.825   7.371  0.0687  0.6769 -0.7629
 6990TIP3    H242530   6.837   5.830   7.287 -0.4640  1.7559 -1.5357
 6991TIP3   OH242531   5.330   0.513   0.921 -0.0050 -0.4731  0.2998
 6991TIP3    H142532   5.386   0.569   0.868 -4.2226  0.9420 -3.2802
 6991TIP3    H242533   5.334   0.550   1.009  3.2093  0.4830 -0.1292
 6992TIP3   OH242534   0.652   2.078   1.291 -0.1065  0.6879  0.1169
 6992TIP3    H142535   0.659   2.014   1.362 -0.8931 -0.2541 -0.6258
 6992TIP3    H242536   0.557   2.086   1.276  0.0508 -0.8918 -2.3325
 6993TIP3   OH242537   3.651   4.622   0.357  0.1493 -0.3044  0.3014
 6993TIP3    H142538   3.724   4.575   0.397  1.1647  1.5557  0.7857
 6993TIP3    H242539   3.575   4.602   0.412  0.6574 -0.9534  0.7750
 6994TIP3   OH242540   6.810   0.780   0.489  0.5690  0.5289 -0.3443
 6994TIP3    H142541   6.901   0.779   0.520  0.3482  0.3323  0.3013
 6994TIP3    H242542   6.805   0.705   0.429 -0.3783 -2.5964  3.2505
 6995TIP3   OH242543   1.301   6.504   0.050  0.0614 -0.0319  0.3775
 6995TIP3    H142544   1.213   6.471   0.031  0.4873  0.2352 -2.3659
 6995TIP3    H242545   1.313   6.578  -0.009  2.0773  0.0725  0.8309
 6996TIP3   OH242546   6.131   2.711   1.895  0.4065 -0.1157 -0.6959
 6996TIP3    H142547   6.183   2.776   1.847 -0.0212  1.1065  0.4106
 6996TIP3    H242548   6.133   2.742   1.986 -1.2351 -0.6883 -0.4265
 6997TIP3   OH242549   3.254   1.930   7.661  0.2027  0.1725  0.0200
 6997TIP3    H142550   3.331   1.922   7.717  0.4359  1.7951 -0.0236
 6997TIP3    H242551   3.276   2.000   7.599 -0.8423 -0.1688 -0.7687
 6998TIP3   OH242552   4.968   2.899   0.330  0.1402  0.4876  0.3570
 6998TIP3    H142553   5.012   2.814   0.329 -0.5010  0.1060  1.9698
 6998TIP3    H242554   4.969   2.926   0.422  0.1448  2.1380 -0.0927
 6999TIP3   OH242555   3.775   3.173   2.078 -0.2061  0.4730  0.0787
 6999TIP3    H142556   3.711   3.150   2.145 -0.3194  0.8176  0.0912
 6999TIP3    H242557   3.722   3.206   2.005 -0.0532  0.5511  0.0036
 7000TIP3   OH242558   0.021   2.615   0.828 -0.2538 -0.2963  0.0324
 7000TIP3    H142559  -0.038   2.553   0.870 -2.4214  0.9453 -0.9666
 7000TIP3    H242560  -0.007   2.701   0.860  1.0186  0.3527 -0.4894
 7001TIP3   OH242561   4.447   2.987   0.268 -0.3435  0.1784  0.4407
 7001TIP3    H142562   4.477   2.905   0.307 -3.1971 -1.6491 -0.8997
 7001TIP3    H242563   4.386   3.023   0.332  0.7920  1.2900  0.9623
 7002TIP3   OH242564   4.398   6.204   0.949  0.2990 -0.9976  0.4319
 7002TIP3    H142565   4.449   6.281   0.976 -1.6025  0.1027  1.0968
 7002TIP3    H242566   4.449   6.129   0.980  0.9551  0.0671  2.0860
 7003TIP3   OH242567   6.660   2.582   7.912  0.3632  0.1891 -0.6398
 7003TIP3    H142568   6.738   2.636   7.901 -0.5689  1.4935 -0.9660
 7003TIP3    H242569   6.636   2.555   7.823  1.1836 -1.3552 -0.4423
 7004TIP3   OH242570   3.386   6.775   1.014 -0.4620 -0.2141 -0.2439
 7004TIP3    H142571   3.309   6.719   1.024 -0.1956 -0.6189 -0.4563
 7004TIP3    H242572   3.457   6.715   0.994 -0.3171  0.2719 -1.2050
 7005TIP3   OH242573   1.895   4.526   8.417  0.0223 -0.2741  0.1236
 7005TIP3    H142574   1.857   4.612   8.399  1.1161  0.1566 -0.2573
 7005TIP3    H242575   1.886   4.478   8.334 -0.3468 -0.4362  0.2555
 7006TIP3   OH242576   0.825   1.531   0.858  0.4380  0.1784 -0.1588
 7006TIP3    H142577   0.901   1.481   0.829 -2.9043 -3.1033 -4.6271
 7006TIP3    H242578   0.807   1.592   0.786 -2.9363 -1.6507 -1.0830
 7007TIP3   OH242579   0.551   0.988   8.082 -0.0401  0.1584  0.3455
 7007TIP3    H142580   0.586   0.952   8.163 -0.7835  0.8852  1.0166
 7007TIP3    H242581   0.626   1.028   8.039  0.2464  0.3664  1.0210
 7008TIP3   OH242582   5.194   0.352   2.326  0.3155  0.5805  0.2033
 7008TIP3    H142583   5.186   0.443   2.351  0.7129  1.1598 -1.6088
 7008TIP3    H242584   5.272   0.349   2.270  0.6123 -0.9677  0.6281
 7009TIP3   OH242585   6.525   3.284   0.319  0.2629 -0.4807  0.1929
 7009TIP3    H142586   6.611   3.262   0.354 -0.4439 -1.6568  1.2700
 7009TIP3    H242587   6.476   3.317   0.395 -0.2571  0.1591 -0.4041
 7010TIP3   OH242588   2.239   4.737   7.503  0.0781  0.7049 -0.1568
 7010TIP3    H142589   2.243   4.690   7.420  1.9542  2.6120 -1.2637
 7010TIP3    H242590   2.300   4.691   7.561 -2.6410 -1.7971  0.9579
 7011TIP3   OH242591   5.305   2.168   0.179  0.2702 -0.1447 -0.2015
 7011TIP3    H142592   5.356   2.097   0.139 -0.3272 -0.5534 -0.2571
 7011TIP3    H242593   5.216   2.134   0.183  0.0082  0.5392 -0.0558
 7012TIP3   OH242594   2.958   5.824   7.547  0.4499 -0.3710 -0.2557
 7012TIP3    H142595   3.048   5.801   7.568 -0.1011 -0.4100  2.4183
 7012TIP3    H242596   2.965   5.904   7.494  2.0354 -0.6970 -0.5911
 7013TIP3   OH242597   4.939   1.765   6.707  0.3623 -0.2169  0.2598
 7013TIP3    H142598   4.991   1.844   6.693  0.7635 -0.6357 -0.7045
 7013TIP3    H242599   5.000   1.702   6.745  0.2361 -0.3075  0.3116
 7014TIP3   OH242600   1.142   1.883   7.760 -0.0892 -0.5429 -0.0412
 7014TIP3    H142601   1.089   1.959   7.735  1.2934 -0.0339 -1.6611
 7014TIP3    H242602   1.199   1.916   7.830 -0.0693 -0.3024 -0.1669
 7015TIP3   OH242603   0.709   3.299   8.336  0.2691 -0.5881 -0.6638
 7015TIP3    H142604   0.677   3.210   8.350 -2.5176  0.4429  0.1503
 7015TIP3    H242605   0.677   3.323   8.249  1.5637 -0.5407 -1.1629
 7016TIP3   OH242606   1.735   4.645   0.663  0.0542 -0.4081 -0.1402
 7016TIP3    H142607   1.799   4.644   0.734  2.6733  2.7320 -2.1488
 7016TIP3    H242608   1.772   4.586   0.597  0.6487  0.9269 -1.0490
 7017TIP3   OH242609   1.976   1.485   6.267  0.5613 -0.0245 -0.0202
 7017TIP3    H142610   2.005   1.563   6.316  0.8648  1.0274 -1.7892
 7017TIP3    H242611   2.036   1.481   6.192 -0.6001 -0.9006 -0.9240
 7018TIP3   OH242612   4.102   3.633   1.995  0.3186  0.9664 -0.0532
 7018TIP3    H142613   4.189   3.613   2.031 -0.3797  0.0895  1.2173
 7018TIP3    H242614   4.065   3.696   2.056 -1.1020 -0.9594  1.1865
 7019TIP3   OH242615   3.154   6.088   1.210  0.1863  0.1968 -0.2663
 7019TIP3    H142616   3.093   6.118   1.278 -1.3508 -1.2782 -0.9228
 7019TIP3    H242617   3.115   6.007   1.177  2.7832 -1.1086 -0.3878
 7020TIP3   OH242618   3.856   5.834   1.312 -0.6626 -1.2359 -0.3046
 7020TIP3    H142619   3.920   5.904   1.303 -2.7052  0.8668  0.5604
 7020TIP3    H242620   3.804   5.858   1.389 -2.6402 -2.7111 -1.0825
 7021TIP3   OH242621   6.445   5.973   7.480  0.1631 -0.3582 -0.3921
 7021TIP3    H142622   6.434   5.949   7.388 -0.2494 -2.0076  0.0634
 7021TIP3    H242623   6.388   5.914   7.528  0.3939  0.4594  0.9398
 7022TIP3   OH242624   2.478   3.420   7.611 -0.7022 -0.5209  0.0565
 7022TIP3    H142625   2.465   3.325   7.611 -0.6727 -0.5295 -0.9959
 7022TIP3    H242626   2.569   3.431   7.641 -0.4737 -0.8589 -0.5029
 7023TIP3   OH242627   3.087   3.094   1.447  0.3761 -0.3169  0.7554
 7023TIP3    H142628   2.999   3.130   1.457  0.3395 -0.1100 -0.1904
 7023TIP3    H242629   3.073   3.005   1.415  0.4968  0.0915 -0.5218
 7024TIP3   OH242630   3.814   6.241   1.201 -0.5147  0.3163 -0.0207
 7024TIP3    H142631   3.870   6.317   1.216 -1.8487  1.3669 -0.1137
 7024TIP3    H242632   3.796   6.242   1.107 -2.4934  1.4016  0.2953
 7025TIP3   OH242633   5.059   1.238   0.624  0.3519 -0.0271  0.4801
 7025TIP3    H142634   4.992   1.286   0.673 -0.4625 -0.0187 -0.5884
 7025TIP3    H242635   5.114   1.198   0.690 -0.2768  0.5814  1.3932
 7026TIP3   OH242636   0.024   3.161   0.088 -0.0716 -0.4433  0.4434
 7026TIP3    H142637  -0.038   3.161   0.015 -1.5068  0.2778  1.6043
 7026TIP3    H242638   0.073   3.242   0.078 -2.6805  1.4988  2.1411
 7027TIP3   OH242639   0.044   3.595   6.729 -0.0842  0.3497  0.5457
 7027TIP3    H142640   0.129   3.609   6.770  0.6951 -1.5751 -0.3034
 7027TIP3    H242641   0.060   3.529   6.662 -2.3263 -0.3600  0.6218
 7028TIP3   OH242642   1.202   6.024   0.907  0.4958 -0.3103  0.3387
 7028TIP3    H142643   1.118   6.056   0.873 -0.6653 -1.6060  1.8433
 7028TIP3    H242644   1.268   6.074   0.858 -1.1156  0.1977 -1.4392
 7029TIP3   OH242645   6.278   4.218   7.211 -0.7433  0.2475  0.0677
 7029TIP3    H142646   6.266   4.284   7.278  0.8557 -1.4740  2.2219
 7029TIP3    H242647   6.241   4.138   7.249  1.6682 -1.1450 -0.3125
 7030TIP3   OH242648   4.121   4.135   1.391 -0.2533 -0.8911  0.6474
 7030TIP3    H142649   4.118   4.220   1.348 -2.8091 -1.7974 -1.2127
 7030TIP3    H242650   4.208   4.132   1.431  0.2831  2.1673 -0.0061
 7031TIP3   OH242651   3.022   0.595   7.187  0.0397 -0.1118  0.1588
 7031TIP3    H142652   2.969   0.665   7.226 -0.0792 -0.1716  0.1070
 7031TIP3    H242653   2.959   0.525   7.169  0.2806 -0.5461  0.9310
 7032TIP3   OH242654   6.425   6.850   0.811  0.4080  0.0494  0.3971
 7032TIP3    H142655   6.461   6.825   0.896 -0.4960  2.5546  1.6012
 7032TIP3    H242656   6.429   6.945   0.809  0.2348  0.0877 -2.3301
 7033TIP3   OH242657   1.293   4.193   0.050  0.0972 -0.2303  0.3984
 7033TIP3    H142658   1.316   4.286   0.052  0.4245 -0.2835 -0.4212
 7033TIP3    H242659   1.236   4.181   0.126 -0.3775  0.7534  0.2221
 7034TIP3   OH242660   1.799   6.678   1.585  0.0947  0.2976  0.3765
 7034TIP3    H142661   1.872   6.740   1.581 -0.8552  1.4076 -0.4868
 7034TIP3    H242662   1.731   6.725   1.633 -0.8551  0.1874 -0.8153
 7035TIP3   OH242663   6.687   2.378   1.236  0.3451 -0.2703  0.7830
 7035TIP3    H142664   6.657   2.373   1.145  2.8385 -1.1779 -0.0656
 7035TIP3    H242665   6.609   2.356   1.287 -0.9693 -0.3881 -1.1409
 7036TIP3   OH242666   6.701   5.242   1.056  0.2374 -1.0001 -0.2791
 7036TIP3    H142667   6.775   5.291   1.021  0.1607 -1.4827 -1.1346
 7036TIP3    H242668   6.674   5.292   1.133  0.1118  0.3341 -1.1567
 7037TIP3   OH242669   1.506   1.721   1.685  0.5773  0.1264 -0.3142
 7037TIP3    H142670   1.588   1.765   1.710  0.6437 -0.4277  0.4771
 7037TIP3    H242671   1.437   1.781   1.714  0.5969 -1.0783  2.5664
 7038TIP3   OH242672   5.096   6.548   7.537 -0.1666 -0.1522  0.4388
 7038TIP3    H142673   5.086   6.621   7.476 -1.6315 -0.1575  0.6327
 7038TIP3    H242674   5.185   6.557   7.571 -0.0418  1.0592 -0.1571
 7039TIP3   OH242675   3.551   0.415   1.927 -0.1123 -0.5891  0.5346
 7039TIP3    H142676   3.587   0.496   1.891 -2.3070 -0.5335 -1.8033
 7039TIP3    H242677   3.490   0.444   1.995  0.1217 -0.3748  0.6571
 7040TIP3   OH242678   5.415   0.691   8.148 -0.3222 -0.0557  0.2174
 7040TIP3    H142679   5.440   0.601   8.127 -2.0785 -0.3784 -0.7078
 7040TIP3    H242680   5.337   0.681   8.203  0.1647  0.9114  1.1172
 7041TIP3   OH242681   1.334   3.302   0.412  0.0756 -0.3376 -0.2959
 7041TIP3    H142682   1.364   3.279   0.500  2.5142 -2.8349 -1.6112
 7041TIP3    H242683   1.299   3.220   0.376 -6.3025  1.6643  0.0033
 7042TIP3   OH242684   5.022   5.205   0.770  0.1767 -0.2750 -0.0482
 7042TIP3    H142685   5.030   5.288   0.723 -0.1656  0.5443  1.2873
 7042TIP3    H242686   5.110   5.186   0.802  0.1034  0.0013  0.3264
 7043TIP3   OH242687   2.033   3.608   7.093 -0.1681  0.1872 -0.6924
 7043TIP3    H142688   2.106   3.668   7.108  0.4754 -0.4624 -1.1311
 7043TIP3    H242689   2.018   3.613   6.999 -0.7830  0.4194 -0.5820
 7044TIP3   OH242690   6.615   0.509   7.530  0.2656 -0.4486 -0.6466
 7044TIP3    H142691   6.638   0.529   7.439 -0.9759 -1.1187 -1.1377
 7044TIP3    H242692   6.571   0.588   7.561  1.9412  0.3211 -0.1420
 7045TIP3   OH242693   1.693   0.716   8.021  0.2906 -0.0755 -0.6699
 7045TIP3    H142694   1.752   0.790   8.007  1.1385 -0.6336 -0.1560
 7045TIP3    H242695   1.738   0.662   8.086 -0.5272 -0.8119 -0.7026
 7046TIP3   OH242696   0.141   6.295   8.355  0.0065  0.0841 -0.0840
 7046TIP3    H142697   0.224   6.282   8.401  0.0811 -0.4999 -0.3736
 7046TIP3    H242698   0.111   6.206   8.334 -0.5839  0.2990 -0.1733
 7047TIP3   OH242699   2.788   4.508   8.069 -0.0266  0.1730 -0.0589
 7047TIP3    H142700   2.783   4.535   8.161  0.8177  1.2341 -0.3013
 7047TIP3    H242701   2.855   4.440   8.067 -0.9943 -0.8224  0.3010
 7048TIP3   OH242702   3.637   5.812   8.318 -0.0631 -0.2554  0.2866
 7048TIP3    H142703   3.615   5.803   8.225 -0.3265  1.8407  0.0964
 7048TIP3    H242704   3.577   5.879   8.350  0.9593  0.0417  1.6496
 7049TIP3   OH242705   5.389   5.782   0.841  0.7353  0.1918  0.2627
 7049TIP3    H142706   5.419   5.827   0.763 -1.0511 -0.9636 -1.1564
 7049TIP3    H242707   5.375   5.692   0.813  0.7895 -0.4429  2.1277
 7050TIP3   OH242708   2.533   5.113   0.036  0.0616  0.3334  0.4083
 7050TIP3    H142709   2.533   5.195  -0.013 -1.9296 -0.6146 -1.3649
 7050TIP3    H242710   2.473   5.128   0.108  0.6638  0.7907  0.8264
 7051TIP3   OH242711   2.583   3.500   7.154 -0.0091 -0.0146  0.5217
 7051TIP3    H142712   2.525   3.519   7.227 -3.0995  0.3188 -1.7989
 7051TIP3    H242713   2.614   3.585   7.124 -0.8295  0.0977 -0.0557
 7052TIP3   OH242714   3.242   5.854   6.693  0.4201 -0.1318 -0.6184
 7052TIP3    H142715   3.227   5.772   6.740  2.2696 -0.1153  0.0683
 7052TIP3    H242716   3.173   5.912   6.724 -0.2732 -1.0769 -0.3146
 7053TIP3   OH242717   5.275   1.352   1.725  0.0886  0.1580 -0.3410
 7053TIP3    H142718   5.224   1.280   1.762  1.4776 -0.9380 -0.4640
 7053TIP3    H242719   5.233   1.370   1.641 -0.5221 -0.2441 -0.1298
 7054TIP3   OH242720   2.669   0.296   1.518  0.5434  0.2541  0.0160
 7054TIP3    H142721   2.759   0.319   1.539  1.4555 -1.6174 -1.4800
 7054TIP3    H242722   2.648   0.223   1.576 -0.8070  1.9591  1.7934
 7055TIP3   OH242723   2.043   6.365   1.581  0.2691 -0.0321  0.4218
 7055TIP3    H142724   1.957   6.368   1.623 -0.2112  0.8877 -0.5949
 7055TIP3    H242725   2.024   6.357   1.488  1.2910  0.4442  0.1628
 7056TIP3   OH242726   1.688   1.639   1.121 -0.2418  0.1441  0.5838
 7056TIP3    H142727   1.698   1.722   1.074 -1.0543 -0.3628 -0.5463
 7056TIP3    H242728   1.704   1.661   1.212 -0.4024  1.5432  0.3040
 7057TIP3   OH242729   6.160   1.628   2.277 -0.7174  0.4218 -0.2860
 7057TIP3    H142730   6.243   1.608   2.320 -1.4083 -0.1037  0.8266
 7057TIP3    H242731   6.097   1.639   2.348 -1.5888  0.9398 -1.1054
 7058TIP3   OH242732   3.867   4.781   0.221  0.5966  0.2326 -0.0371
 7058TIP3    H142733   3.780   4.753   0.249  0.5505 -0.0033 -0.4118
 7058TIP3    H242734   3.908   4.817   0.301 -0.0370  0.8476  0.0231
 7059TIP3   OH242735   2.960   2.832   1.393 -0.1385 -0.4435  0.1980
 7059TIP3    H142736   2.931   2.742   1.413 -0.3275 -0.6919 -1.1172
 7059TIP3    H242737   2.889   2.887   1.427 -0.9617 -0.9139 -0.6896
 7060TIP3   OH242738   5.059   0.754   8.571 -0.0427  0.1813  0.4615
 7060TIP3    H142739   5.052   0.662   8.597 -1.7077  0.1172 -0.0964
 7060TIP3    H242740   5.082   0.800   8.651 -3.2928 -0.2315  1.7801
 7061TIP3   OH242741   4.320   0.397   0.788 -0.4511  0.4897 -0.2486
 7061TIP3    H142742   4.329   0.485   0.751  0.7715 -0.5782 -2.6903
 7061TIP3    H242743   4.284   0.345   0.717  1.0917 -1.4931  0.3518
 7062TIP3   OH242744   5.418   6.157   7.651  0.1086 -0.4818  0.2840
 7062TIP3    H142745   5.457   6.077   7.685 -1.8980 -1.6319  0.0454
 7062TIP3    H242746   5.373   6.196   7.726 -0.4199 -0.5417  0.0030
 7063TIP3   OH242747   2.064   5.246   0.393  0.2495  0.0939 -0.3722
 7063TIP3    H142748   2.090   5.223   0.483 -1.4792 -0.1566  0.0898
 7063TIP3    H242749   2.105   5.331   0.378 -0.5480  0.7998  1.1801
 7064TIP3   OH242750   0.655   4.876   2.327  0.1622 -0.2304 -0.5815
 7064TIP3    H142751   0.743   4.901   2.355  0.3330  1.1087 -2.1606
 7064TIP3    H242752   0.612   4.959   2.305 -1.2596 -0.9146 -0.5221
 7065TIP3   OH242753   0.142   5.539   8.103  0.4343  0.4926 -0.0501
 7065TIP3    H142754   0.219   5.497   8.064  0.1097 -1.2924  1.1064
 7065TIP3    H242755   0.067   5.493   8.064 -0.0408  1.5672 -0.4533
 7066TIP3   OH242756   3.331   4.406   6.931  0.1153 -0.3017 -0.3280
 7066TIP3    H142757   3.255   4.464   6.935 -0.1728 -0.7157  1.0611
 7066TIP3    H242758   3.401   4.460   6.896 -0.3209  0.6901  0.2868
 7067TIP3   OH242759   4.843   2.640   8.134 -0.4638 -0.0493 -0.3821
 7067TIP3    H142760   4.776   2.645   8.066 -0.4517 -0.3110 -0.4147
 7067TIP3    H242761   4.846   2.548   8.158 -0.3589  0.0178 -0.1349
 7068TIP3   OH242762   2.149   2.323   2.022 -0.2787 -0.3929  0.4120
 7068TIP3    H142763   2.153   2.283   2.109 -2.1660 -1.9133 -0.1134
 7068TIP3    H242764   2.159   2.249   1.961 -1.0486  0.3320 -0.6334
 7069TIP3   OH242765   5.092   1.520   8.092 -0.7236  0.2318 -0.4148
 7069TIP3    H142766   5.179   1.485   8.108 -1.4887 -1.6076 -0.0035
 7069TIP3    H242767   5.059   1.543   8.179 -0.5776  1.1239 -0.5904
 7070TIP3   OH242768   4.059   3.864   8.468  0.0323  0.6621  0.4964
 7070TIP3    H142769   4.048   3.931   8.535  0.6626 -0.4093  1.7152
 7070TIP3    H242770   3.987   3.802   8.484  0.4203  0.1906  0.4520
 7071TIP3   OH242771   6.724   6.873   6.436 -0.3552  0.2021 -0.3101
 7071TIP3    H142772   6.667   6.908   6.505  0.2773  1.5498 -0.4565
 7071TIP3    H242773   6.799   6.932   6.434  0.2607 -0.5804 -1.2790
 7072LIG      O42774   3.300   2.195   2.039  0.6281 -0.2606  1.1735
 7072LIG     C142775   3.384   2.247   1.934  0.2096 -0.7689 -0.1986
 7072LIG     C242776   3.506   2.169   1.921 -0.4347 -0.2118  0.0070
 7072LIG     C342777   3.313   2.263   1.802  0.0594 -0.1791  0.2844
 7072LIG     H142778   3.416   2.343   1.980 -0.2088 -0.4225 -0.6210
 7072LIG     H242779   3.486   2.073   1.867 -0.5277  0.2914 -0.8758
 7072LIG     H342780   3.553   2.141   2.018 -0.9552  0.6398  0.5100
 7072LIG     H442781   3.582   2.232   1.870  0.5938 -0.2671  1.4033
 7072LIG     H542782   3.239   2.345   1.812  1.4445  1.0447  0.8753
 7072LIG     H642783   3.267   2.169   1.765 -0.3538 -0.6156  1.8365
 7072LIG     H742784   3.379   2.312   1.728  0.7530  0.2656  1.1745
 7072LIG     H842785   3.336   2.228   2.121 -0.2181  0.2137  1.3660
   6.87853   6.87853   8.67295
