Title
42785
    1SAPS     N    1   5.967   4.361   6.885  0.0408  0.3232  0.0582
    1SAPS   HN1    2   5.901   4.281   6.896 -0.2299  0.4336 -0.6826
    1SAPS   HN2    3   5.902   4.436   6.853 -0.0714 -0.9886 -3.1635
    1SAPS   HN3    4   6.042   4.343   6.815 -0.6716 -0.6683 -0.4778
    1SAPS   C12    5   6.030   4.382   7.013 -0.3729  0.2727  0.0603
    1SAPS  H12A    6   6.094   4.468   6.998 -0.4417  0.1033 -1.2767
    1SAPS   C13    7   5.925   4.415   7.124 -0.2362  0.0152 -0.7697
    1SAPS  O13A    8   5.804   4.443   7.085 -0.1328 -0.2513 -0.2035
    1SAPS  O13B    9   5.973   4.467   7.233 -0.7115 -0.4401  0.4204
    1SAPS   C11   10   6.113   4.260   7.062  1.2627  0.1585  0.3828
    1SAPS  H11A   11   6.060   4.163   7.055 -2.3238  2.0201 -0.4435
    1SAPS  H11B   12   6.143   4.276   7.168  1.0810  1.9634  0.2079
    1SAPS     P   13   6.254   4.183   6.852 -0.0939  0.2470  0.2760
    1SAPS   O13   14   6.225   4.037   6.867 -0.3776 -0.2076  0.0014
    1SAPS   O14   15   6.174   4.254   6.752  0.1193  0.1034  0.2108
    1SAPS   O12   16   6.237   4.249   6.989 -0.5175  0.2564 -0.6213
    1SAPS   O11   17   6.402   4.201   6.829 -0.3434 -0.2482 -0.2418
    1SAPS    C1   18   6.479   4.316   6.806  0.6510 -0.8247  0.5967
    1SAPS    HA   19   6.424   4.408   6.835 -0.4793 -0.4893 -2.2353
    1SAPS    HB   20   6.569   4.303   6.869  0.6726  0.0951  0.7643
    1SAPS    C2   21   6.519   4.322   6.657  0.5190  0.1488 -0.2161
    1SAPS    HS   22   6.429   4.355   6.600  0.3017  0.8258  0.5066
    1SAPS   O21   23   6.579   4.203   6.606  0.1425 -0.0376 -0.0280
    1SAPS   C21   24   6.494   4.119   6.540 -0.7061 -0.2247 -0.4765
    1SAPS   O22   25   6.380   4.147   6.516  0.0707  0.8255  0.3144
    1SAPS   C22   26   6.569   3.994   6.493 -0.2933 -0.3803 -0.6733
    1SAPS   H2R   27   6.647   3.956   6.562  0.3635  0.2598 -1.0558
    1SAPS   H2S   28   6.492   3.915   6.478  0.0495 -0.9140  0.3431
    1SAPS    C3   29   6.616   4.443   6.639 -0.1202 -0.0087 -0.1312
    1SAPS    HX   30   6.704   4.431   6.706  0.2814 -2.3024 -0.9779
    1SAPS    HY   31   6.557   4.534   6.664  0.8336  0.8240 -0.8205
    1SAPS   O31   32   6.647   4.467   6.504  0.6386  0.4407  0.2755
    1SAPS   C31   33   6.747   4.407   6.452  0.5134  0.0021 -0.0982
    1SAPS   O32   34   6.819   4.318   6.502  0.3085 -0.5225  0.7712
    1SAPS   C32   35   6.768   4.473   6.310 -0.3666  0.1571  0.1045
    1SAPS   H2X   36   6.868   4.520   6.310  0.1892 -0.9682  1.7848
    1SAPS   H2Y   37   6.686   4.545   6.287 -0.7569 -0.5892 -0.9187
    1SAPS   C23   38   6.632   4.011   6.350  0.8512  0.1813  0.1596
    1SAPS   H3R   39   6.671   3.911   6.323 -2.2199 -1.2458  0.6067
    1SAPS   H3S   40   6.721   4.078   6.341 -0.0016  1.2087 -0.9799
    1SAPS   C24   41   6.539   4.062   6.235  0.0387  0.5760  0.1190
    1SAPS   H4R   42   6.594   4.072   6.139 -1.3213  0.4362 -0.7179
    1SAPS   H4S   43   6.510   4.164   6.267 -1.8316  1.2860 -3.2804
    1SAPS   C25   44   6.410   3.978   6.216 -0.0908 -0.0615 -0.6030
    1SAPS   H5R   45   6.327   3.988   6.288 -0.5380  2.4810 -1.3950
    1SAPS   C26   46   6.390   3.893   6.118  0.3356  0.5394 -0.1801
    1SAPS   H6R   47   6.295   3.844   6.091  0.4870  0.8131 -1.2617
    1SAPS   C27   48   6.488   3.853   6.009  0.1608 -0.9949 -0.4982
    1SAPS   H7R   49   6.467   3.750   5.972  1.2606 -1.8570  1.1643
    1SAPS   H7S   50   6.590   3.844   6.052 -0.3839 -0.7334  0.9050
    1SAPS   C28   51   6.509   3.951   5.895  0.2766 -0.4034  0.1361
    1SAPS   H8R   52   6.523   4.057   5.922  0.6892 -0.6286  0.8238
    1SAPS   C29   53   6.513   3.927   5.762 -0.7180 -0.0885  0.0114
    1SAPS   H9R   54   6.539   4.012   5.698  0.8598 -0.0277  0.6996
    1SAPS  C210   55   6.506   3.793   5.696  0.9739  0.1584 -0.3820
    1SAPS  H10R   56   6.409   3.765   5.650  1.0850  0.2877 -0.7005
    1SAPS  H10S   57   6.518   3.710   5.768 -1.8746  1.0640  1.2804
    1SAPS  C211   58   6.610   3.771   5.589  0.5345 -0.1238 -0.8266
    1SAPS  H11R   59   6.701   3.722   5.628  1.2767  3.1648  2.0566
    1SAPS  C212   60   6.604   3.794   5.454 -0.6620 -0.1414 -0.1006
    1SAPS  H12R   61   6.686   3.758   5.390 -1.2361 -2.5183  0.4163
    1SAPS  C213   62   6.486   3.867   5.390 -0.3473  0.7135 -0.2704
    1SAPS  H13R   63   6.397   3.855   5.455  1.3890  0.3748  2.2036
    1SAPS  H13S   64   6.475   3.818   5.291  1.6301  0.6837 -0.5275
    1SAPS  C214   65   6.518   4.008   5.360  0.4121  0.1285  0.2781
    1SAPS  H14R   66   6.581   4.059   5.434 -0.4555  0.6385  0.6753
    1SAPS  C215   67   6.470   4.084   5.263 -0.1612  0.5180 -0.0818
    1SAPS  H15R   68   6.521   4.180   5.243  1.7993 -0.7999 -1.8200
    1SAPS  C216   69   6.375   4.045   5.150 -0.9906  0.4143  0.2781
    1SAPS  H16R   70   6.339   4.140   5.106  1.4379  0.4246 -1.9479
    1SAPS  H16S   71   6.292   3.982   5.188 -2.9126  1.7989 -1.4136
    1SAPS  C217   72   6.447   3.970   5.038 -0.6733  0.0069  0.3577
    1SAPS  H17R   73   6.375   3.925   4.966 -1.2035 -0.7739  1.3368
    1SAPS  H17S   74   6.492   3.881   5.086 -1.1702 -0.5473 -0.1902
    1SAPS  C218   75   6.563   4.039   4.967  0.3950 -0.8884  0.2194
    1SAPS  H18R   76   6.629   4.071   5.050 -1.4656  1.5879  0.8566
    1SAPS  H18S   77   6.529   4.136   4.923  0.3012 -0.7916  0.5049
    1SAPS  C219   78   6.620   3.947   4.853  0.3085 -0.4410 -0.8083
    1SAPS  H19R   79   6.550   3.957   4.767  1.4223  1.7695 -1.5415
    1SAPS  H19S   80   6.598   3.842   4.880  0.0090 -0.6229 -1.7313
    1SAPS  C220   81   6.762   3.976   4.803  0.2574  0.3640  0.0415
    1SAPS  H20R   82   6.835   3.959   4.885 -0.8674  0.7666  1.1537
    1SAPS  H20S   83   6.770   4.084   4.779 -0.6755  0.8124  1.5556
    1SAPS  H20T   84   6.794   3.925   4.710  0.3331 -1.1846  0.8691
    1SAPS   C33   85   6.782   4.368   6.190  0.4880 -0.0425  0.1157
    1SAPS   H3X   86   6.768   4.428   6.098 -1.3355  0.7088  0.8281
    1SAPS   H3Y   87   6.698   4.295   6.194  0.9420 -0.5270  1.3726
    1SAPS   C34   88   6.918   4.302   6.188  0.6221  0.2421  0.1466
    1SAPS   H4X   89   6.968   4.282   6.285 -0.1318  2.3080  1.0001
    1SAPS   H4Y   90   6.985   4.375   6.137 -0.7915  1.2622 -0.3029
    1SAPS   C35   91   6.912   4.170   6.104  0.3521  0.4116 -0.6359
    1SAPS   H5X   92   6.863   4.094   6.169 -1.6621  0.8468 -1.5636
    1SAPS   H5Y   93   7.015   4.131   6.093 -0.0454 -2.3414  3.1964
    1SAPS   C36   94   6.842   4.168   5.972  0.4739  0.0158  0.1785
    1SAPS   H6X   95   6.732   4.180   5.981  0.6656  0.7804  2.0791
    1SAPS   H6Y   96   6.862   4.069   5.927  1.7119 -0.0818  0.8855
    1SAPS   C37   97   6.902   4.263   5.867  0.8400 -0.2460  0.0197
    1SAPS   H7X   98   7.013   4.255   5.865  0.8822  0.2163  0.4120
    1SAPS   H7Y   99   6.891   4.369   5.896  2.4064  0.0308 -0.2960
    1SAPS   C38  100   6.860   4.233   5.723  1.0935 -0.3737  0.6414
    1SAPS   H8X  101   6.753   4.256   5.742  1.9226  2.0941  2.8052
    1SAPS   H8Y  102   6.871   4.124   5.706 -0.3346 -0.4245 -0.1146
    1SAPS   C39  103   6.926   4.311   5.610  0.2400  0.4154  0.0801
    1SAPS   H9X  104   7.033   4.285   5.601  0.5670  2.3146 -3.1371
    1SAPS   H9Y  105   6.910   4.417   5.640 -0.2180 -0.0663  1.6246
    1SAPS  C310  106   6.855   4.283   5.482 -0.4950 -0.7170  0.2878
    1SAPS  H10X  107   6.745   4.289   5.497 -0.3125  1.1932  1.1316
    1SAPS  H10Y  108   6.871   4.177   5.452 -0.9603 -0.2916 -1.6352
    1SAPS  C311  109   6.875   4.378   5.361  0.4991  0.4444  1.2166
    1SAPS  H11X  110   6.869   4.481   5.403  1.3812  0.3457  1.6168
    1SAPS  H11Y  111   6.788   4.355   5.296 -0.1342  1.0783  1.8133
    1SAPS  C312  112   7.006   4.357   5.287  0.0685  0.7919 -0.2710
    1SAPS  H12X  113   7.011   4.247   5.272 -0.7807  0.7091  0.0084
    1SAPS  H12Y  114   7.098   4.383   5.344  0.9364  2.2142 -2.2160
    1SAPS  C313  115   7.008   4.432   5.155  0.5999 -1.0574  0.4279
    1SAPS  H13X  116   7.112   4.460   5.126  0.5454  0.1654  1.3501
    1SAPS  H13Y  117   6.947   4.524   5.165 -1.9834 -2.3042 -2.2662
    1SAPS  C314  118   6.938   4.354   5.037 -0.1040 -0.1925 -0.5126
    1SAPS  H14X  119   6.831   4.353   5.068  0.2449 -3.2522  0.9584
    1SAPS  H14Y  120   6.974   4.249   5.026 -3.6442 -1.5399 -0.4417
    1SAPS  C315  121   6.947   4.423   4.900  0.3887  0.2902 -0.3118
    1SAPS  H15X  122   6.891   4.354   4.833 -1.3845  2.1924 -0.8934
    1SAPS  H15Y  123   7.056   4.428   4.885  1.2352  1.5891  4.4798
    1SAPS  C316  124   6.887   4.562   4.901  0.6734 -0.0290  0.1348
    1SAPS  H16X  125   6.934   4.615   4.816 -2.6305 -0.5021 -2.1707
    1SAPS  H16Y  126   6.922   4.617   4.991  1.0382  0.8521 -0.5332
    1SAPS  C317  127   6.732   4.569   4.888 -0.6687  0.2896  0.1228
    1SAPS  H17X  128   6.694   4.667   4.923  1.7439  1.4719 -0.3834
    1SAPS  H17Y  129   6.691   4.488   4.953  0.1373  0.4526  0.8521
    1SAPS  C318  130   6.687   4.547   4.742 -0.0070  0.4139 -0.4467
    1SAPS  H18X  131   6.729   4.639   4.696 -1.3988  0.8030 -0.9712
    1SAPS  H18Y  132   6.578   4.547   4.722 -0.1392 -0.9157  0.1510
    1SAPS  H18Z  133   6.747   4.470   4.687  0.6664  1.2781 -0.9492
    2SAPS     N  134   0.922   6.623   6.567  0.3449 -0.2394  0.2021
    2SAPS   HN1  135   0.833   6.642   6.616 -0.0668 -1.6778  0.0751
    2SAPS   HN2  136   0.971   6.714   6.568  0.1996 -0.1028 -1.8101
    2SAPS   HN3  137   0.907   6.587   6.471  0.6853 -1.8495  0.7167
    2SAPS   C12  138   1.001   6.526   6.651  0.2804 -0.7353 -0.5967
    2SAPS  H12A  139   1.076   6.477   6.591 -0.4121 -1.5784 -0.7948
    2SAPS   C13  140   1.067   6.583   6.778 -0.3292  0.7494  0.2652
    2SAPS  O13A  141   1.051   6.702   6.802 -0.4038  0.0224 -0.1834
    2SAPS  O13B  142   1.150   6.513   6.841 -0.1457  0.5168 -0.3283
    2SAPS   C11  143   0.913   6.410   6.688  0.0737 -0.7403  0.1221
    2SAPS  H11A  144   0.819   6.441   6.738  0.6632  0.9061  0.2690
    2SAPS  H11B  145   0.951   6.337   6.762 -2.4044 -0.7593  1.4661
    2SAPS     P  146   0.962   6.213   6.533  0.6001  0.3490 -0.3864
    2SAPS   O13  147   1.109   6.215   6.560  0.2786  0.0803  0.4077
    2SAPS   O14  148   0.884   6.106   6.600 -0.1059 -0.5315 -0.2458
    2SAPS   O12  149   0.894   6.345   6.566  0.3627  0.1956  0.3355
    2SAPS   O11  150   0.932   6.194   6.386 -0.2897  0.3884  0.1109
    2SAPS    C1  151   0.995   6.265   6.270 -0.1857  0.7062 -0.4106
    2SAPS    HA  152   1.078   6.334   6.294  0.1372  1.4174 -3.1705
    2SAPS    HB  153   1.040   6.187   6.204  0.8032  0.2846  0.7271
    2SAPS    C2  154   0.896   6.343   6.173 -0.0386 -0.0366  0.5560
    2SAPS    HS  155   0.943   6.443   6.163  1.6515 -0.8379  0.2195
    2SAPS   O21  156   0.768   6.362   6.235 -0.2894 -0.1738  0.8054
    2SAPS   C21  157   0.759   6.456   6.323 -0.7660  0.5240  0.1132
    2SAPS   O22  158   0.845   6.541   6.342 -0.2262 -0.1172 -0.2152
    2SAPS   C22  159   0.618   6.461   6.379 -0.4683  0.1639  0.3352
    2SAPS   H2R  160   0.571   6.364   6.354  0.0218  0.7746 -3.5259
    2SAPS   H2S  161   0.641   6.456   6.488  1.4657 -0.1475 -0.0651
    2SAPS    C3  162   0.875   6.279   6.035 -0.1645  0.1969  0.4608
    2SAPS    HX  163   0.803   6.338   5.974 -1.4835 -0.2514  1.5357
    2SAPS    HY  164   0.831   6.181   6.061 -3.2188  0.8060 -1.7813
    2SAPS   O31  165   1.001   6.270   5.970  0.1294  0.2933 -0.0049
    2SAPS   C31  166   0.990   6.202   5.854 -0.5592  0.3117 -0.0084
    2SAPS   O32  167   0.889   6.143   5.823 -0.4725 -0.2265  0.2130
    2SAPS   C32  168   1.128   6.187   5.794  0.0492  0.4105  0.0438
    2SAPS   H2X  169   1.124   6.118   5.707 -1.3601  1.5858 -0.8746
    2SAPS   H2Y  170   1.198   6.138   5.865 -0.2798 -1.4903 -0.8895
    2SAPS   C23  171   0.547   6.591   6.360  0.5073 -0.0486 -0.0546
    2SAPS   H3R  172   0.600   6.667   6.420  0.0331  2.7000 -2.8857
    2SAPS   H3S  173   0.449   6.596   6.413 -0.5768 -0.3432 -1.9409
    2SAPS   C24  174   0.520   6.641   6.212 -1.0346  0.1818  0.7619
    2SAPS   H4R  175   0.607   6.693   6.168 -1.8836 -1.0256 -2.7115
    2SAPS   H4S  176   0.460   6.731   6.236 -0.9003 -0.0425  1.9934
    2SAPS   C25  177   0.436   6.549   6.123 -0.2784 -0.1738 -0.3988
    2SAPS   H5R  178   0.340   6.516   6.166 -0.1368 -1.2044 -0.8365
    2SAPS   C26  179   0.451   6.513   5.992 -0.2558 -0.3244 -0.4162
    2SAPS   H6R  180   0.367   6.453   5.952 -0.8111  1.5127 -2.1678
    2SAPS   C27  181   0.548   6.563   5.891  0.0636  0.2330  0.5041
    2SAPS   H7R  182   0.651   6.565   5.931  0.1050 -0.1722  0.4255
    2SAPS   H7S  183   0.505   6.662   5.864 -0.5130  0.2334  1.3911
    2SAPS   C28  184   0.560   6.471   5.772 -0.0102  0.0676  0.0368
    2SAPS   H8R  185   0.554   6.363   5.796 -0.8228 -0.1815 -1.1441
    2SAPS   C29  186   0.559   6.514   5.647  0.4377 -0.2375 -0.5609
    2SAPS   H9R  187   0.558   6.442   5.564  0.3325 -2.0850  0.9987
    2SAPS  C210  188   0.558   6.658   5.605 -0.2137 -0.8674 -0.0103
    2SAPS  H10R  189   0.632   6.709   5.670 -0.2491 -1.5892  0.6056
    2SAPS  H10S  190   0.461   6.707   5.625 -0.6169 -2.1902  1.5372
    2SAPS  C211  191   0.600   6.682   5.465  0.7031 -0.5836  1.3545
    2SAPS  H11R  192   0.708   6.691   5.450  0.2949  0.6810 -1.4142
    2SAPS  C212  193   0.531   6.722   5.354  0.4688  0.0701 -0.6499
    2SAPS  H12R  194   0.574   6.723   5.253 -1.5324 -0.1607 -1.5547
    2SAPS  C213  195   0.375   6.731   5.357 -0.1771 -0.0544  0.7131
    2SAPS  H13R  196   0.346   6.835   5.328  2.4052  0.5515  0.0148
    2SAPS  H13S  197   0.333   6.724   5.459 -1.3639 -0.9441  0.1910
    2SAPS  C214  198   0.306   6.634   5.263  0.7791 -0.6188 -0.3015
    2SAPS  H14R  199   0.286   6.532   5.297 -1.6925 -0.2724 -0.4748
    2SAPS  C215  200   0.249   6.652   5.138 -0.6013 -0.1411 -0.5436
    2SAPS  H15R  201   0.204   6.566   5.085  1.5063 -1.4080 -0.3909
    2SAPS  C216  202   0.253   6.775   5.046  0.5204  0.4194  0.5105
    2SAPS  H16R  203   0.293   6.863   5.100  1.9728  3.3446 -4.6568
    2SAPS  H16S  204   0.146   6.795   5.023  0.1466 -1.4699  0.4512
    2SAPS  C217  205   0.323   6.758   4.915 -0.7551 -0.6483 -0.1636
    2SAPS  H17R  206   0.427   6.725   4.938 -1.8996 -3.5134  1.4383
    2SAPS  H17S  207   0.329   6.860   4.871  1.6553 -1.0454 -0.9307
    2SAPS  C218  208   0.252   6.674   4.801 -0.0147 -0.5557  0.4005
    2SAPS  H18R  209   0.265   6.565   4.815 -2.6510 -1.0494 -0.4211
    2SAPS  H18S  210   0.306   6.685   4.705 -1.4829 -0.8857 -0.4868
    2SAPS  C219  211   0.106   6.697   4.777  0.0736  0.9070 -0.7441
    2SAPS  H19R  212   0.087   6.805   4.758  0.7584  1.3166  0.7469
    2SAPS  H19S  213   0.056   6.672   4.873  1.0485  0.9299 -0.2221
    2SAPS  C220  214   0.052   6.614   4.657  0.9030  0.8882  0.0641
    2SAPS  H20R  215   0.101   6.515   4.663  0.1916  0.3937 -1.6941
    2SAPS  H20S  216   0.051   6.669   4.560 -1.8720  0.3084 -0.3198
    2SAPS  H20T  217  -0.054   6.587   4.679  1.0489 -1.1056 -1.4300
    2SAPS   C33  218   1.178   6.324   5.747  0.5621 -0.3744 -0.2770
    2SAPS   H3X  219   1.284   6.300   5.723  0.9377  0.8077  0.1051
    2SAPS   H3Y  220   1.174   6.405   5.824  1.7500 -0.0188 -0.5673
    2SAPS   C34  221   1.121   6.373   5.621 -0.7344 -0.4969 -0.1245
    2SAPS   H4X  222   1.111   6.288   5.551 -1.5634 -0.8482  0.4048
    2SAPS   H4Y  223   1.196   6.446   5.584 -0.6681 -1.0171 -1.0584
    2SAPS   C35  224   0.991   6.448   5.646  0.2647  0.7227 -0.1918
    2SAPS   H5X  225   0.998   6.510   5.739  1.6087  0.2030  0.0699
    2SAPS   H5Y  226   0.908   6.376   5.655  0.2465  0.6526 -0.8572
    2SAPS   C36  227   0.946   6.535   5.541  0.8468 -0.2166 -0.0371
    2SAPS   H6X  228   1.023   6.614   5.525  2.2276 -1.6329 -0.7574
    2SAPS   H6Y  229   0.853   6.579   5.582 -0.1885 -0.4525 -2.0457
    2SAPS   C37  230   0.915   6.471   5.400 -0.1089 -0.1306 -0.6858
    2SAPS   H7X  231   0.821   6.412   5.407  0.9792 -1.8313  0.2442
    2SAPS   H7Y  232   1.006   6.411   5.377  0.2425 -0.5570  1.5805
    2SAPS   C38  233   0.901   6.561   5.283  0.1657  0.0305  0.5384
    2SAPS   H8X  234   1.006   6.590   5.259 -0.6381  2.7474 -0.0755
    2SAPS   H8Y  235   0.848   6.654   5.313  1.3956  0.2473  2.2127
    2SAPS   C39  236   0.839   6.486   5.162 -0.2808  0.1684  0.0842
    2SAPS   H9X  237   0.741   6.433   5.167 -1.0748  1.0127 -3.5112
    2SAPS   H9Y  238   0.908   6.406   5.126  0.4048  0.7072  0.1764
    2SAPS  C310  239   0.838   6.582   5.036 -0.4437 -0.8418  0.5023
    2SAPS  H10X  240   0.934   6.635   5.051 -0.5961 -0.2054 -0.6571
    2SAPS  H10Y  241   0.765   6.665   5.043  0.7382  0.0378  3.8056
    2SAPS  C311  242   0.843   6.511   4.906  0.1618  0.2393  0.0616
    2SAPS  H11X  243   0.742   6.467   4.897  0.0035  0.5964  0.0402
    2SAPS  H11Y  244   0.922   6.434   4.898 -0.5424 -0.5170  0.3240
    2SAPS  C312  245   0.864   6.606   4.788  0.2458  0.1424  0.0850
    2SAPS  H12X  246   0.947   6.673   4.818  0.5298 -0.4108  0.5494
    2SAPS  H12Y  247   0.786   6.684   4.782 -1.0733 -0.9790  1.6061
    2SAPS  C313  248   0.893   6.547   4.654 -0.4779 -0.2627  0.4386
    2SAPS  H13X  249   0.802   6.529   4.591 -0.5719 -1.1154  0.8015
    2SAPS  H13Y  250   0.944   6.451   4.676 -1.5203 -0.9717 -0.1190
    2SAPS  C314  251   0.984   6.634   4.563 -0.1080  0.7049  0.6374
    2SAPS  H14X  252   1.065   6.696   4.607  0.8987  0.1903 -0.4446
    2SAPS  H14Y  253   0.921   6.702   4.501  0.0290 -0.3806 -0.7315
    2SAPS  C315  254   1.052   6.541   4.462  0.5619 -0.2651 -0.1921
    2SAPS  H15X  255   0.981   6.502   4.386  0.2600 -0.1369  0.0225
    2SAPS  H15Y  256   1.110   6.462   4.515  0.0268  1.3879  3.1274
    2SAPS  C316  257   1.138   6.627   4.368  0.4055 -0.4427 -0.3956
    2SAPS  H16X  258   1.202   6.690   4.434 -1.7625  2.0558 -0.5115
    2SAPS  H16Y  259   1.066   6.700   4.326 -1.0645 -1.2165  0.6809
    2SAPS  C317  260   1.211   6.542   4.264 -0.0945  0.0244 -0.8032
    2SAPS  H17X  261   1.226   6.442   4.309  0.8405  0.1053 -0.9214
    2SAPS  H17Y  262   1.306   6.592   4.236  0.2577 -0.9566 -1.4008
    2SAPS  C318  263   1.137   6.526   4.133  0.6648  0.0553 -0.3911
    2SAPS  H18X  264   1.199   6.450   4.080 -0.2454 -0.0008 -1.3946
    2SAPS  H18Y  265   1.137   6.617   4.069 -0.0984 -0.4141 -1.0678
    2SAPS  H18Z  266   1.035   6.483   4.132  0.8722 -0.5102 -2.4601
    3SAPS     N  267   5.516   4.462   7.056  0.1230  0.1216  0.3193
    3SAPS   HN1  268   5.478   4.516   7.136 -0.7385  0.7305 -0.4751
    3SAPS   HN2  269   5.608   4.424   7.087 -1.0285 -2.0805  1.2461
    3SAPS   HN3  270   5.531   4.518   6.970 -2.0766  0.6854  0.2396
    3SAPS   C12  271   5.432   4.346   7.011  0.4071 -0.1078 -0.0758
    3SAPS  H12A  272   5.436   4.271   7.089  0.9279  1.0559  1.0680
    3SAPS   C13  273   5.278   4.392   7.014 -0.2244 -0.5518  0.1763
    3SAPS  O13A  274   5.253   4.509   7.056  0.5651 -0.0386 -0.0494
    3SAPS  O13B  275   5.196   4.318   6.954  0.1336  0.0791 -0.7001
    3SAPS   C11  276   5.482   4.295   6.876 -0.3764 -0.0787  0.1708
    3SAPS  H11A  277   5.475   4.367   6.792 -0.2508  0.6772  0.7868
    3SAPS  H11B  278   5.417   4.209   6.853  0.7867 -0.7322 -0.7744
    3SAPS     P  279   5.670   4.120   6.911  0.1929 -0.1788 -0.2719
    3SAPS   O13  280   5.817   4.110   6.913 -0.3266 -0.5251 -0.0038
    3SAPS   O14  281   5.591   4.068   7.021  0.4080 -0.0906  0.3779
    3SAPS   O12  282   5.622   4.264   6.873  0.4371  0.0341  0.1766
    3SAPS   O11  283   5.615   4.040   6.784 -0.0045 -0.2155 -0.0218
    3SAPS    C1  284   5.698   4.012   6.668 -0.4691 -0.2220 -0.1667
    3SAPS    HA  285   5.783   4.082   6.655 -0.9890  0.5281  0.4049
    3SAPS    HB  286   5.749   3.913   6.677 -0.0423  0.1342  1.5577
    3SAPS    C2  287   5.623   4.023   6.527  0.1823  0.3017  0.3490
    3SAPS    HS  288   5.602   3.921   6.488  0.5438 -0.4481  2.0122
    3SAPS   O21  289   5.705   4.081   6.419  0.3860  0.3410  0.3601
    3SAPS   C21  290   5.812   4.015   6.380 -0.1086 -0.0820  0.5364
    3SAPS   O22  291   5.836   3.901   6.414  0.2273  1.1405  0.0734
    3SAPS   C22  292   5.885   4.097   6.277 -0.2239  0.2667 -0.1316
    3SAPS   H2R  293   5.821   4.122   6.190  1.8439  2.3683 -1.1403
    3SAPS   H2S  294   5.905   4.199   6.316 -2.6448 -0.0529  2.2834
    3SAPS    C3  295   5.482   4.090   6.532 -0.1649 -0.4992  0.3914
    3SAPS    HX  296   5.504   4.196   6.554  1.2347 -0.6610 -0.1612
    3SAPS    HY  297   5.429   4.043   6.618 -1.8443  2.3264  1.0347
    3SAPS   O31  298   5.416   4.089   6.402 -0.4401  0.2570 -0.0284
    3SAPS   C31  299   5.336   3.989   6.375 -0.4061 -0.1354  0.1451
    3SAPS   O32  300   5.330   3.884   6.434  0.4541  0.7276 -0.2301
    3SAPS   C32  301   5.248   4.032   6.262 -0.1730  0.2390  0.2976
    3SAPS   H2X  302   5.308   4.039   6.169  0.5056 -0.4049  0.6739
    3SAPS   H2Y  303   5.204   4.130   6.291 -2.3147 -0.3292 -0.8648
    3SAPS   C23  304   6.009   4.041   6.218 -0.0642  0.3965 -0.0518
    3SAPS   H3R  305   5.987   3.953   6.154 -1.3752  0.2729  0.5553
    3SAPS   H3S  306   6.081   4.011   6.297  2.8430  0.8720 -2.3329
    3SAPS   C24  307   6.079   4.149   6.133  0.2727  0.1323  0.8944
    3SAPS   H4R  308   6.182   4.111   6.115 -0.2436 -0.1743 -1.7802
    3SAPS   H4S  309   6.105   4.244   6.185 -2.7230  1.4036  0.2338
    3SAPS   C25  310   6.007   4.184   6.001  0.2433  0.4040 -0.0595
    3SAPS   H5R  311   5.917   4.243   6.027  0.8302  1.8610 -1.1693
    3SAPS   C26  312   6.037   4.145   5.872  0.0712 -0.4012  0.0233
    3SAPS   H6R  313   5.971   4.177   5.790 -1.3267  0.6222  1.4688
    3SAPS   C27  314   6.138   4.047   5.834  0.0801 -0.4771  0.4029
    3SAPS   H7R  315   6.149   3.978   5.920 -0.4889 -0.4242  0.5212
    3SAPS   H7S  316   6.231   4.105   5.821 -0.3855  0.2905  0.4159
    3SAPS   C28  317   6.097   3.971   5.706 -0.5946  0.2479  0.1313
    3SAPS   H8R  318   6.023   3.890   5.719  0.7758 -1.2284 -0.8009
    3SAPS   C29  319   6.124   4.014   5.579  0.2738  0.4640 -0.0052
    3SAPS   H9R  320   6.094   3.951   5.494  0.6395 -2.0927  1.6620
    3SAPS  C210  321   6.212   4.133   5.547  0.4662 -0.4326  0.6882
    3SAPS  H10R  322   6.253   4.121   5.445 -0.2184 -0.7590  0.4458
    3SAPS  H10S  323   6.305   4.132   5.608  1.6404  1.7948 -0.9285
    3SAPS  C211  324   6.122   4.259   5.567 -0.8411  0.0213  0.9528
    3SAPS  H11R  325   6.125   4.308   5.666 -0.4970  1.2264  0.3664
    3SAPS  C212  326   6.044   4.310   5.470 -0.6110 -0.0415 -0.3610
    3SAPS  H12R  327   5.979   4.397   5.483 -1.7291 -0.8528 -0.3609
    3SAPS  C213  328   6.034   4.251   5.330  0.6278  0.1223  0.6951
    3SAPS  H13R  329   6.122   4.194   5.293  0.3209  1.1429 -1.7974
    3SAPS  H13S  330   6.030   4.340   5.263 -2.2936 -1.4743 -1.4467
    3SAPS  C214  331   5.902   4.180   5.305 -1.0045  0.9641  0.0627
    3SAPS  H14R  332   5.832   4.186   5.390 -1.7781  0.7781 -0.5445
    3SAPS  C215  333   5.865   4.106   5.206 -0.3081  0.0071 -0.4176
    3SAPS  H15R  334   5.763   4.065   5.199 -0.0928 -0.6343  0.0843
    3SAPS  C216  335   5.959   4.065   5.094  0.2966 -0.0438 -0.5658
    3SAPS  H16R  336   5.962   3.954   5.083  1.6478 -0.4476  2.6923
    3SAPS  H16S  337   6.061   4.109   5.104 -0.0166  0.7530 -0.8378
    3SAPS  C217  338   5.901   4.118   4.959  0.3909  0.5659 -0.3673
    3SAPS  H17R  339   5.876   4.224   4.979 -0.8440  0.3063 -0.4623
    3SAPS  H17S  340   5.804   4.067   4.940  0.4874  1.2067 -2.9271
    3SAPS  C218  341   5.986   4.101   4.835 -0.5562  0.7839 -0.1730
    3SAPS  H18R  342   6.073   4.170   4.843 -0.1961  0.3274 -0.0877
    3SAPS  H18S  343   5.940   4.129   4.738  0.9280 -0.4063 -1.2769
    3SAPS  C219  344   6.038   3.958   4.810  0.4516  0.2060  0.9013
    3SAPS  H19R  345   6.085   3.926   4.905 -1.0387  0.7002  1.8388
    3SAPS  H19S  346   5.953   3.886   4.803  0.7533 -0.0049 -1.7029
    3SAPS  C220  347   6.129   3.937   4.688  0.3731  0.2246 -0.2497
    3SAPS  H20R  348   6.080   3.977   4.596 -1.9839 -0.7750  0.5069
    3SAPS  H20S  349   6.153   3.830   4.674  2.2798  0.8987 -2.9651
    3SAPS  H20T  350   6.228   3.986   4.702 -0.2833  0.7618  3.3058
    3SAPS   C33  351   5.135   3.934   6.234 -0.1027  0.9299  0.0274
    3SAPS   H3X  352   5.052   3.998   6.197 -1.3924  0.4447  1.9388
    3SAPS   H3Y  353   5.102   3.897   6.333 -1.0931  2.8175  0.4410
    3SAPS   C34  354   5.162   3.840   6.107  0.6164  0.3968 -0.3538
    3SAPS   H4X  355   5.248   3.775   6.134  0.9709  0.0969 -2.0685
    3SAPS   H4Y  356   5.201   3.903   6.024  2.6237  1.3764  1.2591
    3SAPS   C35  357   5.038   3.749   6.078 -0.1148  0.0217 -0.0409
    3SAPS   H5X  358   4.990   3.706   6.169 -0.4508  0.6381  0.0767
    3SAPS   H5Y  359   4.957   3.814   6.039 -1.9718 -1.2255  1.5303
    3SAPS   C36  360   5.059   3.642   5.968  0.7401 -0.4674  0.1486
    3SAPS   H6X  361   4.959   3.620   5.925  0.6546  2.2301 -1.2830
    3SAPS   H6Y  362   5.107   3.549   6.005  0.7007 -0.6117 -0.1602
    3SAPS   C37  363   5.146   3.692   5.855  0.6544  0.8139  0.6565
    3SAPS   H7X  364   5.245   3.725   5.892  1.8473 -1.0475 -0.7121
    3SAPS   H7Y  365   5.104   3.785   5.811  0.7783  1.1812  1.2847
    3SAPS   C38  366   5.159   3.590   5.736 -1.2091  0.3328 -0.6949
    3SAPS   H8X  367   5.065   3.534   5.716  0.2085 -1.9060 -1.4944
    3SAPS   H8Y  368   5.220   3.505   5.773 -1.7947  1.3218  2.9618
    3SAPS   C39  369   5.228   3.642   5.606 -0.0812 -0.4114 -0.3748
    3SAPS   H9X  370   5.331   3.682   5.619 -0.4882 -0.3589  3.9899
    3SAPS   H9Y  371   5.155   3.721   5.579 -0.5409 -0.2451  1.2573
    3SAPS  C310  372   5.235   3.533   5.499 -0.1947 -0.0967  0.4315
    3SAPS  H10X  373   5.126   3.512   5.492  0.0111 -1.3842  0.9053
    3SAPS  H10Y  374   5.281   3.440   5.537  0.7099 -1.2595 -3.0846
    3SAPS  C311  375   5.317   3.567   5.379  0.0087 -0.0521  0.4162
    3SAPS  H11X  376   5.418   3.592   5.420 -0.4349  2.3633  0.1616
    3SAPS  H11Y  377   5.271   3.654   5.329 -0.4637 -0.0856  0.7884
    3SAPS  C312  378   5.308   3.439   5.289 -0.0560 -0.0844 -0.1701
    3SAPS  H12X  379   5.209   3.397   5.260 -0.8206  1.2854  0.3679
    3SAPS  H12Y  380   5.349   3.356   5.350 -1.4491  0.1365  1.1285
    3SAPS  C313  381   5.398   3.461   5.167 -0.1101  0.7196 -0.0918
    3SAPS  H13X  382   5.502   3.488   5.195  0.6564 -1.5503 -0.4814
    3SAPS  H13Y  383   5.339   3.526   5.099 -1.7454 -1.9536 -1.4357
    3SAPS  C314  384   5.411   3.325   5.087 -0.9116 -0.0085  0.1820
    3SAPS  H14X  385   5.315   3.296   5.040 -0.8233 -0.2195  0.1304
    3SAPS  H14Y  386   5.439   3.250   5.163 -0.2547 -0.6729 -0.6951
    3SAPS  C315  387   5.520   3.338   4.983  0.6302 -0.1760 -0.0716
    3SAPS  H15X  388   5.602   3.401   5.023 -0.2190  1.2711 -0.5472
    3SAPS  H15Y  389   5.475   3.397   4.901 -0.0388 -1.6661 -0.8317
    3SAPS  C316  390   5.561   3.208   4.924  0.0143  0.8648  0.1488
    3SAPS  H16X  391   5.478   3.159   4.868 -0.3427  1.1426  0.4293
    3SAPS  H16Y  392   5.589   3.138   5.006  3.5405  1.1766 -0.6254
    3SAPS  C317  393   5.686   3.227   4.838 -0.2987 -0.2622  0.2707
    3SAPS  H17X  394   5.770   3.275   4.894 -0.4244  1.1687 -0.7061
    3SAPS  H17Y  395   5.650   3.295   4.758  1.8768 -1.5311 -1.9272
    3SAPS  C318  396   5.730   3.096   4.767  0.4995  0.1550  0.2380
    3SAPS  H18X  397   5.815   3.136   4.709 -0.2985  1.0882 -0.3161
    3SAPS  H18Y  398   5.657   3.047   4.699  1.6258 -2.8064  0.9811
    3SAPS  H18Z  399   5.758   3.021   4.844  1.5972  1.2721  0.9617
    4SAPS     N  400   3.616   3.982   7.115 -0.1624 -0.3836 -0.4590
    4SAPS   HN1  401   3.692   3.999   7.185 -1.3894  1.3872  0.5278
    4SAPS   HN2  402   3.653   3.907   7.053  0.8459 -1.1173  0.9729
    4SAPS   HN3  403   3.594   4.070   7.063 -0.0966 -0.4200 -0.5507
    4SAPS   C12  404   3.498   3.931   7.189 -0.0511 -0.5823 -0.7152
    4SAPS  H12A  405   3.538   3.860   7.261  1.0133  1.3512  0.6946
    4SAPS   C13  406   3.433   4.043   7.271 -0.4002  0.0677 -0.2417
    4SAPS  O13A  407   3.487   4.159   7.277 -0.2182 -0.1206  0.1846
    4SAPS  O13B  408   3.337   4.014   7.346 -0.0772  0.2510 -0.2948
    4SAPS   C11  409   3.400   3.873   7.088 -0.2128  1.2100  0.3025
    4SAPS  H11A  410   3.312   3.823   7.135 -0.6458  0.4703 -1.2306
    4SAPS  H11B  411   3.448   3.786   7.039 -2.7841  0.4507 -1.0802
    4SAPS     P  412   3.285   3.932   6.867 -0.0788  0.3947 -0.1070
    4SAPS   O13  413   3.212   3.807   6.902  0.0334 -0.0573 -0.2367
    4SAPS   O14  414   3.207   4.048   6.824  0.3086  0.0183 -0.2333
    4SAPS   O12  415   3.361   3.974   6.995 -0.0671  0.7922  0.0928
    4SAPS   O11  416   3.394   3.912   6.753 -0.3936 -0.7741  0.5466
    4SAPS    C1  417   3.482   3.799   6.750  0.1902  0.1278 -0.3155
    4SAPS    HA  418   3.552   3.813   6.835 -1.0019  0.9947  0.5582
    4SAPS    HB  419   3.419   3.709   6.762  0.2792  0.2228  0.9726
    4SAPS    C2  420   3.570   3.785   6.622  0.3669 -0.5911  0.2943
    4SAPS    HS  421   3.635   3.875   6.620  2.0071 -1.7331 -1.5688
    4SAPS   O21  422   3.468   3.791   6.516 -0.2913  0.0422 -0.0044
    4SAPS   C21  423   3.520   3.839   6.405  0.3250 -0.4040  0.4846
    4SAPS   O22  424   3.632   3.880   6.385  0.2470  0.2698  0.2837
    4SAPS   C22  425   3.413   3.821   6.295  0.3389  0.3907  0.4650
    4SAPS   H2R  426   3.423   3.718   6.257 -2.3886 -0.6410  2.2333
    4SAPS   H2S  427   3.308   3.833   6.330  0.6369  0.0919  1.4989
    4SAPS    C3  428   3.643   3.650   6.619 -0.8378  0.3980  0.2465
    4SAPS    HX  429   3.559   3.577   6.628 -2.2792  1.7742 -1.3429
    4SAPS    HY  430   3.704   3.643   6.712 -1.0154 -3.4842  0.2393
    4SAPS   O31  431   3.720   3.627   6.501 -0.4594  0.2861  0.1491
    4SAPS   C31  432   3.767   3.498   6.495  0.3736  0.0763  0.0005
    4SAPS   O32  433   3.728   3.402   6.569 -0.3320 -0.0703 -0.1878
    4SAPS   C32  434   3.845   3.483   6.365  0.4925  0.2305 -0.0203
    4SAPS   H2X  435   3.786   3.535   6.286 -0.5954  0.6792  1.0494
    4SAPS   H2Y  436   3.852   3.375   6.339  0.2972  0.2770 -0.2708
    4SAPS   C23  437   3.443   3.913   6.173 -0.6474 -0.1455  0.2123
    4SAPS   H3R  438   3.538   3.883   6.124  0.7973  1.9071  1.5662
    4SAPS   H3S  439   3.438   4.018   6.210 -0.7743 -0.2969  0.6255
    4SAPS   C24  440   3.329   3.911   6.070  0.8208 -0.3661  0.1221
    4SAPS   H4R  441   3.320   4.007   6.013  1.7876 -1.0137 -1.1682
    4SAPS   H4S  442   3.234   3.897   6.127 -0.0527 -0.3521 -1.2736
    4SAPS   C25  443   3.343   3.793   5.988  0.1934 -0.2571 -0.1833
    4SAPS   H5R  444   3.331   3.705   6.053  0.2963  0.1667  0.4213
    4SAPS   C26  445   3.374   3.780   5.861 -0.1637  0.2986  0.3585
    4SAPS   H6R  446   3.387   3.687   5.804  0.2645  0.5971 -0.0490
    4SAPS   C27  447   3.399   3.896   5.772 -0.3541  0.0077  0.1596
    4SAPS   H7R  448   3.489   3.855   5.721  1.3654  0.5055  2.6167
    4SAPS   H7S  449   3.431   3.988   5.825 -1.5844  0.5588 -0.0229
    4SAPS   C28  450   3.285   3.923   5.676 -0.1537 -1.0734  0.8412
    4SAPS   H8R  451   3.196   3.972   5.720  0.6203 -0.1257  1.3746
    4SAPS   C29  452   3.285   3.898   5.543 -0.1073  0.3715 -0.4889
    4SAPS   H9R  453   3.199   3.938   5.487  0.6743  0.2756 -1.7867
    4SAPS  C210  454   3.374   3.803   5.469 -0.6323  0.5569  0.6666
    4SAPS  H10R  455   3.327   3.715   5.420 -0.5285  0.0106  1.5276
    4SAPS  H10S  456   3.446   3.757   5.540 -1.4713 -0.3351  0.9663
    4SAPS  C211  457   3.434   3.873   5.348 -0.7884 -0.2874  0.2988
    4SAPS  H11R  458   3.513   3.946   5.370 -0.2542 -0.1598 -1.7773
    4SAPS  C212  459   3.406   3.857   5.218  0.2098 -0.4282 -0.1562
    4SAPS  H12R  460   3.456   3.914   5.138 -0.7381  0.3598 -0.2019
    4SAPS  C213  461   3.295   3.776   5.169  0.2777 -0.4580  0.1863
    4SAPS  H13R  462   3.312   3.669   5.192 -0.7743 -0.7360 -0.2715
    4SAPS  H13S  463   3.306   3.755   5.061 -1.9980 -1.3170  0.0641
    4SAPS  C214  464   3.152   3.812   5.195 -0.0200 -0.1019 -0.0215
    4SAPS  H14R  465   3.104   3.767   5.283  0.2894  1.5675  1.0528
    4SAPS  C215  466   3.088   3.894   5.115  0.5096  0.3746  0.0362
    4SAPS  H15R  467   2.983   3.918   5.136  0.7166  2.6094 -1.1200
    4SAPS  C216  468   3.152   3.960   4.989 -0.0941 -0.2254 -0.7917
    4SAPS  H16R  469   3.261   3.941   4.978 -0.2994 -2.0871  0.1157
    4SAPS  H16S  470   3.135   4.070   4.988  1.0849 -0.0090 -2.5741
    4SAPS  C217  471   3.072   3.900   4.867  0.1716 -0.1610 -0.2486
    4SAPS  H17R  472   2.963   3.916   4.881 -0.3387 -2.7225 -0.8203
    4SAPS  H17S  473   3.072   3.789   4.866 -1.6689 -0.1997 -1.9663
    4SAPS  C218  474   3.116   3.945   4.727 -0.2524  0.1061  0.2753
    4SAPS  H18R  475   3.223   3.917   4.711 -0.2747  0.9170 -1.5542
    4SAPS  H18S  476   3.119   4.056   4.720 -0.1381  0.0620 -0.4355
    4SAPS  C219  477   3.036   3.891   4.607 -0.2373 -0.1645 -0.3415
    4SAPS  H19R  478   2.930   3.924   4.612 -0.5284 -1.2992  1.5830
    4SAPS  H19S  479   3.034   3.780   4.613 -0.5650 -0.2720 -1.8722
    4SAPS  C220  480   3.096   3.927   4.467  0.1158 -0.0458  0.2050
    4SAPS  H20R  481   3.076   3.848   4.392 -0.7281 -1.0946  1.4777
    4SAPS  H20S  482   3.206   3.934   4.482  0.0765  0.8556  0.1323
    4SAPS  H20T  483   3.053   4.025   4.439  1.6890 -0.1321 -2.9524
    4SAPS   C33  484   3.991   3.543   6.373 -0.2366  0.7759 -0.1646
    4SAPS   H3X  485   4.047   3.483   6.447 -0.5173  0.1917 -0.4118
    4SAPS   H3Y  486   3.981   3.649   6.404 -0.0042  0.5375  0.7674
    4SAPS   C34  487   4.055   3.528   6.240 -0.1580 -0.2537  0.5485
    4SAPS   H4X  488   4.163   3.544   6.259 -0.0900  0.5739 -0.5040
    4SAPS   H4Y  489   4.005   3.611   6.187 -0.1988 -0.5997  0.0401
    4SAPS   C35  490   4.042   3.392   6.163 -0.4382 -0.6565 -0.4514
    4SAPS   H5X  491   3.936   3.371   6.135 -0.3056 -0.4617 -1.1181
    4SAPS   H5Y  492   4.069   3.306   6.228 -0.8623  0.4946  1.3366
    4SAPS   C36  493   4.128   3.381   6.034  0.0550 -0.1495 -0.1595
    4SAPS   H6X  494   4.211   3.452   6.052 -1.1897  0.8875  1.9000
    4SAPS   H6Y  495   4.053   3.405   5.955 -0.9740 -0.4338  0.7019
    4SAPS   C37  496   4.191   3.241   6.011 -0.8893  0.3483  0.2927
    4SAPS   H7X  497   4.125   3.152   5.999  1.0003 -0.8965 -1.6736
    4SAPS   H7Y  498   4.251   3.213   6.101 -0.3735  0.7342  0.0733
    4SAPS   C38  499   4.286   3.239   5.889  0.4505  0.9363 -0.8298
    4SAPS   H8X  500   4.360   3.158   5.909 -0.1674  0.6618  0.4310
    4SAPS   H8Y  501   4.344   3.334   5.891 -0.2028  1.4612  3.4329
    4SAPS   C39  502   4.211   3.208   5.757 -0.2975  0.1312  0.3919
    4SAPS   H9X  503   4.133   3.282   5.731 -1.2579 -0.4519  1.5283
    4SAPS   H9Y  504   4.154   3.115   5.780  0.0907 -0.6388 -1.4964
    4SAPS  C310  505   4.308   3.184   5.634 -0.5177 -0.6654  0.1508
    4SAPS  H10X  506   4.382   3.104   5.658 -1.3305 -1.1833  0.9594
    4SAPS  H10Y  507   4.354   3.282   5.609 -1.2667  0.1532  1.8527
    4SAPS  C311  508   4.219   3.136   5.515 -0.4666  0.4359 -0.4206
    4SAPS  H11X  509   4.120   3.187   5.515 -0.9978 -0.5262  1.1565
    4SAPS  H11Y  510   4.202   3.027   5.526  0.6229  0.2261 -0.7146
    4SAPS  C312  511   4.279   3.161   5.373 -0.5933  0.4828 -0.3386
    4SAPS  H12X  512   4.286   3.271   5.356 -0.4169  0.1840 -2.4968
    4SAPS  H12Y  513   4.213   3.108   5.301 -0.6616 -1.9052  1.3712
    4SAPS  C313  514   4.426   3.109   5.355 -1.0793  0.2164  0.1973
    4SAPS  H13X  515   4.433   3.001   5.381 -2.8562  0.5692  2.4414
    4SAPS  H13Y  516   4.487   3.167   5.427  1.3667 -1.1885 -0.6129
    4SAPS  C314  517   4.494   3.145   5.215 -0.5341 -0.1475 -0.0980
    4SAPS  H14X  518   4.589   3.089   5.209 -1.6390 -2.0115 -1.5189
    4SAPS  H14Y  519   4.514   3.254   5.215  0.6512 -0.3405  1.3099
    4SAPS  C315  520   4.412   3.102   5.093  0.1739  0.4037  0.7981
    4SAPS  H15X  521   4.321   3.164   5.081  0.4280  0.6233 -0.0115
    4SAPS  H15Y  522   4.384   2.994   5.097 -2.0122  0.4923 -4.4992
    4SAPS  C316  523   4.479   3.104   4.958  0.4364 -0.2351 -0.3658
    4SAPS  H16X  524   4.584   3.067   4.954  0.2509 -0.6362 -2.4161
    4SAPS  H16Y  525   4.499   3.211   4.933  0.9307 -0.1577  0.3195
    4SAPS  C317  526   4.389   3.047   4.847  0.8306 -0.3701 -0.5960
    4SAPS  H17X  527   4.291   3.096   4.857  1.3373  0.6546 -0.5825
    4SAPS  H17Y  528   4.377   2.936   4.854  0.3734 -0.2498  1.0804
    4SAPS  C318  529   4.432   3.085   4.703 -0.0480  0.0525 -0.2482
    4SAPS  H18X  530   4.450   3.194   4.696  0.8147 -0.1328 -1.0536
    4SAPS  H18Y  531   4.350   3.067   4.631 -0.1680  0.2099 -0.1506
    4SAPS  H18Z  532   4.523   3.028   4.671 -0.5471 -0.2931 -1.0807
    5SAPS     N  533   6.542   3.700   6.774  0.6638  0.2269 -0.2447
    5SAPS   HN1  534   6.495   3.792   6.785 -0.5915 -0.4043 -0.1628
    5SAPS   HN2  535   6.645   3.711   6.761  0.9103 -1.9490 -0.4537
    5SAPS   HN3  536   6.502   3.659   6.688 -0.1147 -0.6167  0.4947
    5SAPS   C12  537   6.508   3.601   6.888  0.3045 -0.1402  0.1940
    5SAPS  H12A  538   6.562   3.512   6.858  0.3847 -0.5217  1.4446
    5SAPS   C13  539   6.531   3.659   7.032 -0.0929  0.3149  0.9632
    5SAPS  O13A  540   6.570   3.778   7.044 -0.5692  0.0172  0.7807
    5SAPS  O13B  541   6.531   3.577   7.124  0.0307  0.3278  0.3467
    5SAPS   C11  542   6.363   3.551   6.876  1.0457 -0.4095  0.4278
    5SAPS  H11A  543   6.298   3.640   6.885  1.0099 -0.0877 -2.4153
    5SAPS  H11B  544   6.348   3.493   6.970 -1.5800  1.5656  1.3531
    5SAPS     P  545   6.359   3.321   6.760  0.5405  0.0006  0.5377
    5SAPS   O13  546   6.448   3.278   6.876  0.0786  0.0123 -0.0563
    5SAPS   O14  547   6.227   3.256   6.763 -0.2003  0.4644 -0.1480
    5SAPS   O12  548   6.338   3.474   6.755  0.3606  0.2176  0.6454
    5SAPS   O11  549   6.427   3.282   6.621  0.1579 -0.2113  0.0509
    5SAPS    C1  550   6.536   3.197   6.614  0.6374  0.1113  0.0881
    5SAPS    HA  551   6.632   3.231   6.659  1.2811  1.2376 -2.0246
    5SAPS    HB  552   6.515   3.100   6.663 -2.4159  1.0051  0.7716
    5SAPS    C2  553   6.557   3.180   6.461  1.0057 -0.4994 -0.9370
    5SAPS    HS  554   6.618   3.087   6.455 -0.6731 -1.6293 -1.2165
    5SAPS   O21  555   6.626   3.300   6.414 -0.8526 -0.2833 -0.6704
    5SAPS   C21  556   6.756   3.290   6.397  0.1224 -0.0118  0.1875
    5SAPS   O22  557   6.818   3.195   6.434  0.2736 -0.0525  0.7353
    5SAPS   C22  558   6.813   3.413   6.310 -0.0158  0.2349 -0.2913
    5SAPS   H2R  559   6.775   3.401   6.206 -0.3358 -1.1325 -0.0382
    5SAPS   H2S  560   6.763   3.497   6.361  0.8667 -0.7768  2.4050
    5SAPS    C3  561   6.431   3.150   6.373 -0.2632 -0.3552  0.4732
    5SAPS    HX  562   6.372   3.244   6.363 -0.0999 -0.4410 -1.8167
    5SAPS    HY  563   6.378   3.078   6.440  0.8959 -1.3545  0.3394
    5SAPS   O31  564   6.469   3.101   6.244  0.2236 -0.0338  0.4012
    5SAPS   C31  565   6.455   2.978   6.221 -0.4098 -0.4319  0.1671
    5SAPS   O32  566   6.407   2.897   6.298  0.6979  0.2386  0.0195
    5SAPS   C32  567   6.504   2.951   6.070 -0.2523 -0.1456 -0.9523
    5SAPS   H2X  568   6.596   3.012   6.056 -0.4691  0.8129  1.4484
    5SAPS   H2Y  569   6.420   2.988   6.006 -1.0270 -0.4635 -0.1421
    5SAPS   C23  570   6.964   3.429   6.318 -0.4321 -1.3274  0.3234
    5SAPS   H3R  571   7.008   3.330   6.291 -0.3186 -1.4083  0.8042
    5SAPS   H3S  572   7.000   3.452   6.420 -0.0011  0.3352 -0.1685
    5SAPS   C24  573   7.018   3.534   6.224 -0.7866 -0.6305  0.2477
    5SAPS   H4R  574   7.017   3.500   6.119  1.5816  1.2524 -0.4584
    5SAPS   H4S  575   7.126   3.529   6.248 -1.1383 -1.6537  1.7830
    5SAPS   C25  576   6.951   3.670   6.256  0.3267 -0.4894  0.2085
    5SAPS   H5R  577   6.927   3.688   6.362  1.2365 -1.5908  0.6236
    5SAPS   C26  578   6.914   3.766   6.172 -0.8085  0.4025 -0.8115
    5SAPS   H6R  579   6.878   3.861   6.216  3.2585  0.6877  2.5327
    5SAPS   C27  580   6.947   3.769   6.021 -0.6015  0.4298  0.3253
    5SAPS   H7R  581   7.050   3.730   6.005  0.3400  2.1939  1.6903
    5SAPS   H7S  582   6.961   3.877   6.000 -2.1894  1.2199  2.9352
    5SAPS   C28  583   6.839   3.707   5.930  0.3214 -0.4306 -0.0708
    5SAPS   H8R  584   6.734   3.730   5.952  0.3434 -1.2362  0.9104
    5SAPS   C29  585   6.857   3.623   5.827  0.0386  0.6125  0.2218
    5SAPS   H9R  586   6.768   3.583   5.777  0.0440  0.9694 -0.0753
    5SAPS  C210  587   6.989   3.575   5.767  0.5284  0.7710 -0.5808
    5SAPS  H10R  588   6.994   3.464   5.765 -1.0195  0.6500  0.4677
    5SAPS  H10S  589   7.067   3.589   5.845 -0.1476 -0.6841  0.3897
    5SAPS  C211  590   7.026   3.646   5.638 -0.5349 -0.1343 -0.2872
    5SAPS  H11R  591   7.081   3.740   5.651  1.0456 -1.2211  1.4638
    5SAPS  C212  592   7.016   3.592   5.516 -0.1134 -0.2625  0.0777
    5SAPS  H12R  593   7.026   3.666   5.435  1.6810 -0.2342  0.2878
    5SAPS  C213  594   6.966   3.453   5.479  0.0595 -0.0147  0.3400
    5SAPS  H13R  595   7.011   3.376   5.546 -0.8102 -2.0842 -1.3501
    5SAPS  H13S  596   6.999   3.434   5.375 -3.3408 -0.4297 -0.7914
    5SAPS  C214  597   6.815   3.440   5.478 -0.2707 -0.1637 -0.5572
    5SAPS  H14R  598   6.763   3.435   5.575 -1.7882  1.3601 -1.2353
    5SAPS  C215  599   6.733   3.421   5.371  0.4750  0.0405  0.2073
    5SAPS  H15R  600   6.628   3.390   5.386  1.2347 -4.0040 -1.4539
    5SAPS  C216  601   6.775   3.429   5.222  0.5918 -0.1646 -0.1864
    5SAPS  H16R  602   6.875   3.475   5.203  0.4697 -0.3036 -1.1892
    5SAPS  H16S  603   6.706   3.498   5.169  0.7474 -0.7378 -1.1466
    5SAPS  C217  604   6.771   3.293   5.154 -0.8637 -0.8374 -0.4988
    5SAPS  H17R  605   6.824   3.217   5.216  2.0605  1.8092  0.5058
    5SAPS  H17S  606   6.820   3.297   5.055 -2.0349 -1.4354 -1.1198
    5SAPS  C218  607   6.627   3.252   5.120 -0.9991 -0.1087 -0.0509
    5SAPS  H18R  608   6.584   3.316   5.040 -0.1435  0.4204 -0.1062
    5SAPS  H18S  609   6.569   3.261   5.214 -2.4074 -4.4260 -0.2986
    5SAPS  C219  610   6.606   3.113   5.072 -0.4138  0.4554 -0.1692
    5SAPS  H19R  611   6.502   3.074   5.080 -0.5492  1.0237  1.0244
    5SAPS  H19S  612   6.676   3.052   5.134  1.3455  0.8778 -1.6459
    5SAPS  C220  613   6.657   3.088   4.928 -0.2245  0.1668  0.0329
    5SAPS  H20R  614   6.754   3.139   4.914  0.4411 -1.4462 -1.7924
    5SAPS  H20S  615   6.588   3.125   4.848  1.7241 -0.0700 -1.8385
    5SAPS  H20T  616   6.679   2.980   4.915  0.9329  0.3450  0.4479
    5SAPS   C33  617   6.523   2.800   6.030  0.4057  0.0649  0.2795
    5SAPS   H3X  618   6.425   2.752   6.050  0.2863  0.8628  1.8271
    5SAPS   H3Y  619   6.591   2.749   6.102  1.9784  0.2555 -1.0208
    5SAPS   C34  620   6.579   2.781   5.895  0.0975 -0.6139 -0.7681
    5SAPS   H4X  621   6.678   2.825   5.871 -0.2115  0.7942  0.3831
    5SAPS   H4Y  622   6.510   2.821   5.818 -0.3617 -2.3063 -1.2848
    5SAPS   C35  623   6.598   2.631   5.864  0.0796 -0.1175 -0.0469
    5SAPS   H5X  624   6.512   2.570   5.899 -0.5128  0.9417  0.3606
    5SAPS   H5Y  625   6.685   2.590   5.919 -1.0050 -0.0297  1.8228
    5SAPS   C36  626   6.622   2.599   5.719 -0.3263  0.1789  0.0567
    5SAPS   H6X  627   6.689   2.511   5.714  0.4940  0.7994 -0.0971
    5SAPS   H6Y  628   6.673   2.691   5.684 -0.3879  0.3325  0.3693
    5SAPS   C37  629   6.500   2.562   5.635 -0.3411 -0.1618  0.3462
    5SAPS   H7X  630   6.534   2.582   5.531  0.2761 -2.6211  0.0140
    5SAPS   H7Y  631   6.409   2.620   5.659 -0.1266 -0.0536  0.9232
    5SAPS   C38  632   6.470   2.412   5.649  0.3049  0.3357 -0.1433
    5SAPS   H8X  633   6.465   2.389   5.757  1.6203  1.2376  0.1316
    5SAPS   H8Y  634   6.556   2.354   5.609  1.4169  1.4673  0.5592
    5SAPS   C39  635   6.336   2.365   5.599 -0.3628  0.4751  0.1620
    5SAPS   H9X  636   6.252   2.431   5.631 -0.3263  0.3287  0.5659
    5SAPS   H9Y  637   6.302   2.277   5.658 -2.0507 -0.9293 -2.7085
    5SAPS  C310  638   6.326   2.338   5.453  0.7099  0.1616 -0.1685
    5SAPS  H10X  639   6.402   2.398   5.398 -0.4154  0.2739 -1.6287
    5SAPS  H10Y  640   6.226   2.367   5.416  0.3955 -0.2055  0.3856
    5SAPS  C311  641   6.354   2.191   5.421 -0.1665  0.5786 -0.0346
    5SAPS  H11X  642   6.286   2.123   5.477  2.6198 -1.8259  0.6642
    5SAPS  H11Y  643   6.457   2.170   5.457 -0.9134  0.3349  2.1315
    5SAPS  C312  644   6.325   2.144   5.275  0.4489  0.9790 -0.1433
    5SAPS  H12X  645   6.218   2.161   5.251  0.5090 -0.9654 -2.0354
    5SAPS  H12Y  646   6.347   2.036   5.280  0.7310  0.9365 -1.7806
    5SAPS  C313  647   6.423   2.209   5.174 -0.0050 -0.0965 -0.0329
    5SAPS  H13X  648   6.512   2.245   5.230  0.5853 -0.6560 -0.5974
    5SAPS  H13Y  649   6.370   2.296   5.130  1.6377  1.0846  0.2330
    5SAPS  C314  650   6.470   2.104   5.073  0.8400 -0.1350 -0.2553
    5SAPS  H14X  651   6.528   2.136   4.983 -0.0566 -1.9718 -1.5409
    5SAPS  H14Y  652   6.395   2.028   5.044  0.1235  0.1119  0.9009
    5SAPS  C315  653   6.585   2.021   5.144 -0.5318  0.4554 -0.1028
    5SAPS  H15X  654   6.552   1.973   5.239  1.5124  2.3053  1.6520
    5SAPS  H15Y  655   6.671   2.087   5.171  1.2914 -1.1347 -1.7609
    5SAPS  C316  656   6.646   1.912   5.048 -0.1273  0.5511  0.6943
    5SAPS  H16X  657   6.683   1.973   4.962 -0.6954 -1.5398 -1.1410
    5SAPS  H16Y  658   6.562   1.850   5.012 -1.3777  3.1943 -1.2637
    5SAPS  C317  659   6.754   1.834   5.110 -0.2318  0.2558 -0.3936
    5SAPS  H17X  660   6.710   1.790   5.202  0.9012 -1.4144 -0.6035
    5SAPS  H17Y  661   6.836   1.899   5.147  1.1780 -0.9723 -1.2582
    5SAPS  C318  662   6.819   1.724   5.031 -0.1182 -0.3637 -0.1807
    5SAPS  H18X  663   6.873   1.783   4.953 -1.5156  2.1937  0.6619
    5SAPS  H18Y  664   6.739   1.664   4.982 -1.5294  0.7600  0.6511
    5SAPS  H18Z  665   6.882   1.660   5.095  0.3335  1.4537  1.2819
    6SAPS     N  666   5.411   5.093   6.895 -0.7042  0.7839  0.1591
    6SAPS   HN1  667   5.406   5.196   6.906 -0.3696  1.2413 -2.9683
    6SAPS   HN2  668   5.322   5.059   6.852 -0.5340  0.6034 -0.0550
    6SAPS   HN3  669   5.409   5.044   6.987 -1.7364 -4.0231 -2.0659
    6SAPS   C12  670   5.538   5.050   6.818  0.4070 -0.3423 -0.1922
    6SAPS  H12A  671   5.518   5.076   6.715 -1.2909  2.0294  0.6210
    6SAPS   C13  672   5.657   5.124   6.872  0.3632  1.0066 -0.5349
    6SAPS  O13A  673   5.643   5.224   6.951  0.0535  0.0690  0.2300
    6SAPS  O13B  674   5.768   5.097   6.826 -0.3124  0.1066 -0.3648
    6SAPS   C11  675   5.572   4.893   6.822  0.0133 -0.5115  0.1799
    6SAPS  H11A  676   5.605   4.857   6.921  0.2710 -0.1768  0.2170
    6SAPS  H11B  677   5.658   4.882   6.753 -1.4190  1.0860 -2.0145
    6SAPS     P  678   5.479   4.659   6.733  0.1037  0.0590 -0.0418
    6SAPS   O13  679   5.575   4.608   6.832 -0.1208  0.8379  0.7455
    6SAPS   O14  680   5.343   4.612   6.738 -0.3069  0.0048 -0.5962
    6SAPS   O12  681   5.469   4.809   6.756 -0.5915 -0.2674  0.2226
    6SAPS   O11  682   5.539   4.650   6.588  0.3610  0.1956  0.6692
    6SAPS    C1  683   5.614   4.532   6.547 -0.4741 -0.4357 -0.0430
    6SAPS    HA  684   5.720   4.546   6.576 -1.1520  0.9113  1.9955
    6SAPS    HB  685   5.569   4.439   6.588 -2.2557  1.1636  1.8563
    6SAPS    C2  686   5.602   4.518   6.388 -0.2118 -0.8530  0.3372
    6SAPS    HS  687   5.618   4.410   6.364 -2.6189 -1.3736  0.7597
    6SAPS   O21  688   5.694   4.613   6.314  0.2832 -0.1774 -0.0116
    6SAPS   C21  689   5.812   4.561   6.296  0.3938 -0.4439  0.8725
    6SAPS   O22  690   5.853   4.459   6.341  0.3044 -0.3778 -0.0693
    6SAPS   C22  691   5.884   4.656   6.199 -0.5021  0.3779  0.4557
    6SAPS   H2R  692   5.830   4.751   6.177 -2.4048 -0.4178  1.4898
    6SAPS   H2S  693   5.982   4.682   6.244  0.3617 -1.7219 -0.1076
    6SAPS    C3  694   5.454   4.544   6.337 -0.1536 -0.0539 -0.3769
    6SAPS    HX  695   5.434   4.654   6.332 -1.5180 -0.2985 -0.8351
    6SAPS    HY  696   5.394   4.502   6.421  0.4983  1.3766  0.8641
    6SAPS   O31  697   5.437   4.486   6.209 -0.7415  0.0157  0.0985
    6SAPS   C31  698   5.320   4.430   6.185 -0.2600  0.0699 -0.1725
    6SAPS   O32  699   5.224   4.441   6.264 -0.8703 -0.1557  0.9476
    6SAPS   C32  700   5.329   4.355   6.048 -0.6369  0.1041 -0.8679
    6SAPS   H2X  701   5.298   4.420   5.963 -1.8882  0.0241 -0.4929
    6SAPS   H2Y  702   5.247   4.280   6.051 -0.2342 -0.3088  0.6662
    6SAPS   C23  703   5.903   4.594   6.059 -0.0757  0.4915 -0.6709
    6SAPS   H3R  704   5.802   4.572   6.017  0.4048 -3.0820 -0.2346
    6SAPS   H3S  705   5.943   4.494   6.086 -2.3351 -0.2397  0.1817
    6SAPS   C24  706   6.004   4.682   5.983 -0.2118 -0.1354  0.1266
    6SAPS   H4R  707   6.099   4.685   6.040  2.0482 -0.7093 -3.2605
    6SAPS   H4S  708   5.969   4.786   5.967  2.0553  0.3916 -2.0157
    6SAPS   C25  709   6.034   4.605   5.853 -0.0216 -0.0270 -0.0847
    6SAPS   H5R  710   6.096   4.514   5.858  1.5424  0.9518 -0.7079
    6SAPS   C26  711   6.003   4.638   5.730 -0.6592  0.2716  0.7870
    6SAPS   H6R  712   6.035   4.575   5.646 -2.2501  2.0244 -1.2632
    6SAPS   C27  713   5.941   4.772   5.696  0.0930  0.1346  0.5334
    6SAPS   H7R  714   6.015   4.844   5.654  0.3529 -0.9899 -1.0133
    6SAPS   H7S  715   5.896   4.819   5.786  0.1000  0.7128  0.2334
    6SAPS   C28  716   5.836   4.753   5.592  0.7653  0.5798  1.0484
    6SAPS   H8R  717   5.740   4.802   5.612 -0.1075 -0.7846  0.3316
    6SAPS   C29  718   5.850   4.715   5.461 -0.3842  1.0745  0.6215
    6SAPS   H9R  719   5.764   4.709   5.393  0.1170 -2.7480  0.1073
    6SAPS  C210  720   5.974   4.678   5.384  0.1971 -0.1379 -0.4204
    6SAPS  H10R  721   5.962   4.570   5.360 -0.7715 -1.0221  3.4211
    6SAPS  H10S  722   6.067   4.682   5.444  0.5869  0.1578 -1.0334
    6SAPS  C211  723   5.992   4.759   5.256 -0.2697  0.2500 -0.1012
    6SAPS  H11R  724   6.067   4.839   5.262 -0.1738  0.0540  3.0059
    6SAPS  C212  725   5.932   4.743   5.143  0.0195  0.0042 -0.1857
    6SAPS  H12R  726   5.968   4.809   5.063 -0.6927 -0.7528 -1.1591
    6SAPS  C213  727   5.820   4.649   5.104 -0.5862  0.3126  0.5579
    6SAPS  H13R  728   5.740   4.710   5.057  1.8349  1.9261 -1.7525
    6SAPS  H13S  729   5.788   4.589   5.192  1.1497 -1.1659  0.2302
    6SAPS  C214  730   5.861   4.546   5.000 -0.3099 -0.3942  0.7180
    6SAPS  H14R  731   5.880   4.446   5.041  0.5671 -0.9920 -1.0687
    6SAPS  C215  732   5.898   4.569   4.873 -0.4503 -0.7393 -0.0221
    6SAPS  H15R  733   5.917   4.479   4.812  0.9510  0.3847 -1.3167
    6SAPS  C216  734   5.891   4.706   4.807 -0.2644 -0.4169 -0.0399
    6SAPS  H16R  735   5.983   4.719   4.746  0.9012  2.4086  2.0521
    6SAPS  H16S  736   5.893   4.791   4.878 -0.4523 -2.2388  2.2696
    6SAPS  C217  737   5.774   4.706   4.704  0.2548 -0.4789 -0.5624
    6SAPS  H17R  738   5.682   4.673   4.758  0.5173 -0.3092 -0.0059
    6SAPS  H17S  739   5.800   4.634   4.624 -1.9595 -1.4094 -0.5223
    6SAPS  C218  740   5.742   4.838   4.634  0.8603  0.1706 -0.3059
    6SAPS  H18R  741   5.835   4.872   4.584  1.3130 -0.3168  0.1859
    6SAPS  H18S  742   5.711   4.921   4.701 -0.1185 -0.5342  0.1362
    6SAPS  C219  743   5.633   4.810   4.540 -0.3532 -0.1931 -0.7345
    6SAPS  H19R  744   5.550   4.754   4.590  1.2607 -0.5991  1.6926
    6SAPS  H19S  745   5.670   4.735   4.467 -0.9426 -1.8867  0.6305
    6SAPS  C220  746   5.578   4.926   4.470  0.3645  0.4878 -0.2094
    6SAPS  H20R  747   5.541   5.002   4.543 -1.0045  0.9412 -1.3247
    6SAPS  H20S  748   5.500   4.888   4.402  1.2394 -0.7503 -0.5491
    6SAPS  H20T  749   5.656   4.972   4.406 -0.7236  2.4779 -0.2106
    6SAPS   C33  750   5.466   4.281   6.030 -0.3690 -0.0983  0.0868
    6SAPS   H3X  751   5.461   4.193   6.098  0.5382  0.7409  1.2818
    6SAPS   H3Y  752   5.560   4.333   6.057  0.3345 -1.2267 -0.1414
    6SAPS   C34  753   5.488   4.250   5.881  0.5330 -0.2247 -0.0649
    6SAPS   H4X  754   5.587   4.199   5.871  0.1681 -0.6328 -1.9481
    6SAPS   H4Y  755   5.487   4.344   5.823 -1.3494 -0.7025 -0.8820
    6SAPS   C35  756   5.392   4.156   5.816 -0.1425 -0.2492 -0.3120
    6SAPS   H5X  757   5.287   4.192   5.818 -0.4414 -1.0998  1.4037
    6SAPS   H5Y  758   5.374   4.062   5.873  0.1202 -0.7522 -1.0535
    6SAPS   C36  759   5.448   4.102   5.680  1.2465 -0.5168 -0.3409
    6SAPS   H6X  760   5.528   4.035   5.718 -0.5273 -1.3750  2.1435
    6SAPS   H6Y  761   5.483   4.193   5.627  1.4579 -1.1979 -1.3971
    6SAPS   C37  762   5.340   4.032   5.590 -0.1666 -0.3374 -0.2481
    6SAPS   H7X  763   5.246   4.090   5.590  0.6039  1.0882 -3.0818
    6SAPS   H7Y  764   5.326   3.926   5.621  1.5005 -0.8148 -0.9817
    6SAPS   C38  765   5.393   4.031   5.446  0.2617  0.4659  0.1641
    6SAPS   H8X  766   5.474   3.956   5.442  1.1306  1.3702  0.4606
    6SAPS   H8Y  767   5.425   4.132   5.410 -2.5891  0.6248 -2.3853
    6SAPS   C39  768   5.297   3.977   5.334 -0.7902  0.4616  0.2363
    6SAPS   H9X  769   5.209   4.044   5.322  0.7999  2.7465  0.6933
    6SAPS   H9Y  770   5.258   3.874   5.348 -0.3994  0.2469 -0.2274
    6SAPS  C310  771   5.368   3.981   5.191 -1.0659  0.2086 -0.6376
    6SAPS  H10X  772   5.464   3.929   5.210 -0.2595  1.7738 -0.2931
    6SAPS  H10Y  773   5.380   4.082   5.148  2.3801  0.9017  1.5788
    6SAPS  C311  774   5.285   3.904   5.088  0.3426  0.2851 -0.5838
    6SAPS  H11X  775   5.209   3.968   5.039 -0.9322 -0.8340 -0.1358
    6SAPS  H11Y  776   5.225   3.829   5.143 -0.7393  1.5859  0.0467
    6SAPS  C312  777   5.378   3.835   4.980  0.0268  0.1091 -0.5718
    6SAPS  H12X  778   5.321   3.746   4.947  1.8322 -0.4803 -2.3024
    6SAPS  H12Y  779   5.464   3.797   5.039 -3.5519 -3.0605  3.1858
    6SAPS  C313  780   5.409   3.932   4.863 -0.1950  0.2610 -0.1760
    6SAPS  H13X  781   5.436   4.027   4.914 -3.0442  0.4483  1.2030
    6SAPS  H13Y  782   5.312   3.960   4.817  0.4420  1.2785 -0.9400
    6SAPS  C314  783   5.520   3.883   4.764 -0.1983 -0.5541  0.8095
    6SAPS  H14X  784   5.490   3.780   4.734 -1.7723  0.7808 -2.7841
    6SAPS  H14Y  785   5.614   3.874   4.822  0.3443  2.0170  0.4570
    6SAPS  C315  786   5.531   3.986   4.649 -0.3050 -0.5361  0.3287
    6SAPS  H15X  787   5.430   4.009   4.608 -0.4545 -3.4612 -1.2075
    6SAPS  H15Y  788   5.583   3.930   4.568 -2.6715 -1.0641 -0.9147
    6SAPS  C316  789   5.610   4.107   4.702  0.4473 -0.8907  0.0425
    6SAPS  H16X  790   5.684   4.131   4.623 -0.3405  0.6923 -0.2440
    6SAPS  H16Y  791   5.669   4.065   4.787  2.1452 -0.7945 -1.0485
    6SAPS  C317  792   5.530   4.241   4.731  0.7234  0.3000 -0.2381
    6SAPS  H17X  793   5.455   4.205   4.804 -0.1224  1.8880 -0.2703
    6SAPS  H17Y  794   5.474   4.278   4.643  0.5568  0.7178  0.0420
    6SAPS  C318  795   5.619   4.348   4.786 -0.2398 -0.6331  0.3459
    6SAPS  H18X  796   5.560   4.434   4.823  2.7992  0.9931  1.7675
    6SAPS  H18Y  797   5.698   4.382   4.716 -1.3511 -1.6730 -1.5212
    6SAPS  H18Z  798   5.669   4.307   4.876 -1.1263 -0.8250  0.7586
    7SAPS     N  799   6.246   0.558   6.907  0.1729  0.6809  0.3837
    7SAPS   HN1  800   6.247   0.454   6.906  0.7946  0.6793 -0.5288
    7SAPS   HN2  801   6.148   0.592   6.902 -0.9138 -2.1602  0.7924
    7SAPS   HN3  802   6.300   0.590   6.823  2.6168  0.4949  1.7756
    7SAPS   C12  803   6.319   0.599   7.029 -0.3579  0.1507  0.1509
    7SAPS  H12A  804   6.341   0.705   7.018 -0.2842 -0.0029 -1.5273
    7SAPS   C13  805   6.238   0.585   7.163 -0.0091  0.1916 -0.3637
    7SAPS  O13A  806   6.128   0.526   7.162  0.2335  0.4301 -0.1707
    7SAPS  O13B  807   6.287   0.632   7.267 -0.0275 -0.3531  0.5880
    7SAPS   C11  808   6.452   0.518   7.040  0.3228 -1.1550  0.0257
    7SAPS  H11A  809   6.428   0.413   7.068  0.0011 -0.7067  1.5405
    7SAPS  H11B  810   6.506   0.562   7.126  2.1910  1.9806 -2.5009
    7SAPS     P  811   6.656   0.433   6.903 -0.1064 -0.5042  0.2984
    7SAPS   O13  812   6.780   0.505   6.932  0.2663  0.1257 -0.0074
    7SAPS   O14  813   6.638   0.303   6.978  0.0961  0.2648  0.1787
    7SAPS   O12  814   6.534   0.542   6.926 -0.3559 -0.6528 -0.0952
    7SAPS   O11  815   6.647   0.399   6.754  0.1797 -0.5035 -0.8068
    7SAPS    C1  816   6.564   0.476   6.665 -0.3187 -0.2323 -0.2872
    7SAPS    HA  817   6.470   0.423   6.639 -2.5313  2.5134  1.4623
    7SAPS    HB  818   6.534   0.579   6.694  0.8868  0.8736 -2.7143
    7SAPS    C2  819   6.642   0.491   6.533  0.0294 -0.6591  0.1257
    7SAPS    HS  820   6.722   0.566   6.546 -0.7703 -0.3014  4.0209
    7SAPS   O21  821   6.538   0.531   6.435 -0.2799  0.1684 -0.0306
    7SAPS   C21  822   6.574   0.630   6.354 -0.5953  0.1974 -0.3990
    7SAPS   O22  823   6.679   0.695   6.357 -0.6742 -0.0053 -0.1146
    7SAPS   C22  824   6.455   0.662   6.262  1.0450 -0.1243 -0.0571
    7SAPS   H2R  825   6.397   0.570   6.241  1.2592 -0.4208  0.6153
    7SAPS   H2S  826   6.389   0.738   6.310 -0.1463 -1.5654  0.6719
    7SAPS    C3  827   6.708   0.357   6.488  0.1310  0.5989  0.2635
    7SAPS    HX  828   6.622   0.288   6.476  0.5442  0.1981 -0.4826
    7SAPS    HY  829   6.776   0.313   6.564  1.3691  1.6603 -0.1816
    7SAPS   O31  830   6.779   0.359   6.362  0.3653  0.3355  0.2664
    7SAPS   C31  831   6.889   0.425   6.356 -0.7048 -0.2282 -0.7712
    7SAPS   O32  832   6.949   0.479   6.449 -0.1788 -0.3850 -0.1609
    7SAPS   C32  833   6.939   0.408   6.210  0.7541 -0.5843 -0.2077
    7SAPS   H2X  834   6.861   0.446   6.140 -0.6974  1.2226  2.2189
    7SAPS   H2Y  835   6.958   0.302   6.180  0.2443 -1.0764  1.1553
    7SAPS   C23  836   6.506   0.724   6.131  0.0369 -0.0877 -0.2113
    7SAPS   H3R  837   6.566   0.813   6.157 -0.4628  0.1022  0.3231
    7SAPS   H3S  838   6.415   0.739   6.069  0.2971 -0.8061 -0.7791
    7SAPS   C24  839   6.600   0.621   6.052 -0.0209  0.1621  0.2354
    7SAPS   H4R  840   6.537   0.534   6.026 -0.3156 -0.0244  1.5004
    7SAPS   H4S  841   6.668   0.578   6.129  4.2938  1.1141 -2.6946
    7SAPS   C25  842   6.678   0.682   5.933  0.9896  0.4728 -0.6606
    7SAPS   H5R  843   6.712   0.785   5.955 -1.5180  0.7665  2.6470
    7SAPS   C26  844   6.711   0.633   5.815 -0.2504  0.4750  0.8041
    7SAPS   H6R  845   6.770   0.694   5.744  1.6199 -2.2143 -0.1157
    7SAPS   C27  846   6.691   0.489   5.766 -0.0343 -0.0738 -0.2316
    7SAPS   H7R  847   6.602   0.475   5.701 -1.6307  1.6168  1.4450
    7SAPS   H7S  848   6.667   0.418   5.848  0.0072 -0.0717 -0.2182
    7SAPS   C28  849   6.829   0.442   5.713  0.4390 -0.4798 -0.1663
    7SAPS   H8R  850   6.873   0.370   5.784 -0.5553 -0.3018  0.6531
    7SAPS   C29  851   6.883   0.469   5.595  0.1147 -0.6325 -0.4601
    7SAPS   H9R  852   6.976   0.415   5.571 -0.2735 -0.8566 -1.5073
    7SAPS  C210  853   6.843   0.561   5.488  0.0528 -0.0768 -0.1657
    7SAPS  H10R  854   6.928   0.559   5.415 -0.7086 -1.4780 -1.0548
    7SAPS  H10S  855   6.837   0.662   5.533 -1.6055 -0.1688 -0.1102
    7SAPS  C211  856   6.717   0.517   5.412 -0.0317  0.4472 -0.7191
    7SAPS  H11R  857   6.622   0.545   5.458  0.6543 -1.2858  1.9961
    7SAPS  C212  858   6.714   0.446   5.293  0.0731  0.3068 -0.0445
    7SAPS  H12R  859   6.619   0.416   5.247 -1.3061  0.1265  2.7289
    7SAPS  C213  860   6.845   0.386   5.233  0.7666 -0.0976 -1.1848
    7SAPS  H13R  861   6.833   0.276   5.219 -1.8218 -0.0386 -0.0726
    7SAPS  H13S  862   6.929   0.380   5.305 -0.2310 -0.7625 -0.0226
    7SAPS  C214  863   6.886   0.466   5.115 -0.7334 -0.6951  0.2197
    7SAPS  H14R  864   6.919   0.569   5.133 -0.8244 -0.9631  2.1737
    7SAPS  C215  865   6.879   0.425   4.988  0.8031 -0.5439 -0.0771
    7SAPS  H15R  866   6.916   0.501   4.918  1.8052  0.9598  1.9616
    7SAPS  C216  867   6.819   0.299   4.920  1.2700  0.3047 -0.5392
    7SAPS  H16R  868   6.841   0.205   4.974 -2.3511 -0.3224  0.0809
    7SAPS  H16S  869   6.871   0.288   4.823 -0.0360 -3.3085 -0.9692
    7SAPS  C217  870   6.664   0.299   4.883  0.0496  0.3158 -1.1067
    7SAPS  H17R  871   6.637   0.383   4.816 -1.1604 -0.3037 -1.4162
    7SAPS  H17S  872   6.603   0.312   4.975  0.0653 -1.7107 -0.7633
    7SAPS  C218  873   6.641   0.165   4.815 -0.2761  0.1527  0.3079
    7SAPS  H18R  874   6.688   0.073   4.857 -0.5374  0.2717  0.8765
    7SAPS  H18S  875   6.700   0.170   4.721  0.1826  2.0236  0.6668
    7SAPS  C219  876   6.498   0.132   4.781  0.3628 -0.1655 -0.7432
    7SAPS  H19R  877   6.445   0.124   4.878  3.5274 -1.0678  1.0539
    7SAPS  H19S  878   6.494   0.038   4.722 -0.4169  0.7549 -2.2393
    7SAPS  C220  879   6.433   0.245   4.691 -0.1740  0.6945 -0.2656
    7SAPS  H20R  880   6.511   0.279   4.619  1.6419 -0.0922  1.2562
    7SAPS  H20S  881   6.381   0.321   4.753  1.2758  1.8275 -0.3716
    7SAPS  H20T  882   6.358   0.193   4.627 -0.4662  1.4440 -0.5389
    7SAPS   C33  883   7.082   0.464   6.176 -0.0462 -0.8404  0.1123
    7SAPS   H3X  884   7.159   0.432   6.249  0.0983 -1.1249 -0.1605
    7SAPS   H3Y  885   7.069   0.574   6.187  1.4442 -0.5560 -0.7077
    7SAPS   C34  886   7.126   0.434   6.031 -0.1164 -0.5647 -0.7091
    7SAPS   H4X  887   7.209   0.507   6.016 -2.0216  2.3942  1.9508
    7SAPS   H4Y  888   7.046   0.475   5.965 -1.5436  1.8954  2.2507
    7SAPS   C35  889   7.172   0.292   6.011  0.6194  0.1437 -0.4537
    7SAPS   H5X  890   7.093   0.214   6.012  0.3262  0.3976 -2.0612
    7SAPS   H5Y  891   7.230   0.263   6.102 -0.9052 -1.8126 -0.0465
    7SAPS   C36  892   7.267   0.275   5.893 -0.1835 -0.3567 -0.0919
    7SAPS   H6X  893   7.312   0.173   5.892  1.7118  0.4322 -0.6702
    7SAPS   H6Y  894   7.355   0.340   5.913  0.0653 -0.6891 -0.0799
    7SAPS   C37  895   7.204   0.302   5.753 -0.0293  0.5515 -0.1720
    7SAPS   H7X  896   7.132   0.386   5.765 -1.6523 -0.1505 -3.8367
    7SAPS   H7Y  897   7.138   0.219   5.722 -0.7436  0.1160  2.2580
    7SAPS   C38  898   7.313   0.336   5.650  0.1001 -0.4837 -0.7993
    7SAPS   H8X  899   7.393   0.259   5.653 -0.2165 -0.7918  0.4505
    7SAPS   H8Y  900   7.355   0.434   5.679 -0.3396 -1.3374  3.4083
    7SAPS   C39  901   7.249   0.354   5.509  0.5369  0.2778 -0.1733
    7SAPS   H9X  902   7.184   0.444   5.512  0.4548  0.2441 -0.7794
    7SAPS   H9Y  903   7.191   0.260   5.502 -1.1395  1.0819  1.7966
    7SAPS  C310  904   7.352   0.360   5.397  0.5290 -0.0362  0.5642
    7SAPS  H10X  905   7.414   0.268   5.394 -1.9188 -1.9889  3.5688
    7SAPS  H10Y  906   7.412   0.454   5.402  0.3421  0.3290 -2.3389
    7SAPS  C311  907   7.273   0.377   5.263 -0.2458  0.0715 -0.1825
    7SAPS  H11X  908   7.237   0.482   5.254  0.5804  0.7785  3.3577
    7SAPS  H11Y  909   7.178   0.319   5.269  1.2670 -2.7275 -1.3291
    7SAPS  C312  910   7.358   0.342   5.140  0.3099 -0.6874  0.4703
    7SAPS  H12X  911   7.398   0.239   5.153 -0.3756 -0.9864  0.2522
    7SAPS  H12Y  912   7.446   0.409   5.131 -0.3289 -0.0537 -1.6223
    7SAPS  C313  913   7.275   0.354   5.014 -0.4368  0.5426  0.4925
    7SAPS  H13X  914   7.252   0.460   4.990  1.7039  1.0062  0.2209
    7SAPS  H13Y  915   7.185   0.291   5.026  1.5702 -2.7074 -0.2781
    7SAPS  C314  916   7.356   0.297   4.890  0.7166 -0.5411  0.3241
    7SAPS  H14X  917   7.380   0.196   4.930  1.7436  0.0807  1.3036
    7SAPS  H14Y  918   7.448   0.356   4.873  1.0793 -1.6483 -2.0330
    7SAPS  C315  919   7.281   0.294   4.752 -1.0624  0.6894  0.5821
    7SAPS  H15X  920   7.265   0.395   4.709  0.7405  0.6617 -0.2695
    7SAPS  H15Y  921   7.181   0.247   4.762 -0.3413 -0.8500  0.9061
    7SAPS  C316  922   7.366   0.201   4.662 -0.3183 -0.6563  0.1300
    7SAPS  H16X  923   7.473   0.208   4.690 -0.7066  1.1247  1.3260
    7SAPS  H16Y  924   7.365   0.251   4.563  1.3125  0.1502  0.4876
    7SAPS  C317  925   7.316   0.061   4.635 -0.1541  0.0328  0.7757
    7SAPS  H17X  926   7.216   0.066   4.586  0.5111  1.0895 -0.5492
    7SAPS  H17Y  927   7.305   0.022   4.739 -1.0658 -1.9390 -0.0114
    7SAPS  C318  928   7.410  -0.032   4.547  0.9371 -0.0049 -0.3982
    7SAPS  H18X  929   7.416   0.010   4.444 -0.6703 -3.6271 -2.1373
    7SAPS  H18Y  930   7.363  -0.131   4.531  2.1490 -0.4308 -1.4235
    7SAPS  H18Z  931   7.512  -0.054   4.584  1.1693 -2.5756 -2.3465
    8SAPS     N  932   4.712   1.526   7.018  0.1332  0.6324  0.2495
    8SAPS   HN1  933   4.714   1.514   6.915  0.3880  1.2503  0.1790
    8SAPS   HN2  934   4.776   1.601   7.051  0.1244  0.6322  0.2675
    8SAPS   HN3  935   4.751   1.435   7.051 -0.6917 -1.0600 -2.9983
    8SAPS   C12  936   4.570   1.530   7.074 -0.4870  0.1231  0.1108
    8SAPS  H12A  937   4.520   1.441   7.040 -0.5352  0.1940 -0.0073
    8SAPS   C13  938   4.566   1.524   7.228  0.1202 -0.2987  0.3141
    8SAPS  O13A  939   4.669   1.543   7.300  0.7458  0.0902  0.4323
    8SAPS  O13B  940   4.454   1.527   7.285 -0.2616 -0.2271  0.1788
    8SAPS   C11  941   4.490   1.651   7.034  0.0003  0.0402  0.3878
    8SAPS  H11A  942   4.555   1.736   7.065 -0.1132  0.3218 -0.1347
    8SAPS  H11B  943   4.387   1.671   7.071 -1.1677 -1.5105 -1.7815
    8SAPS     P  944   4.395   1.554   6.802  0.5718 -0.3791  0.2054
    8SAPS   O13  945   4.478   1.477   6.704 -0.0683 -0.3193  0.0035
    8SAPS   O14  946   4.309   1.482   6.903  0.1665 -0.0497  1.0300
    8SAPS   O12  947   4.486   1.653   6.891  0.3073 -0.7084  0.5126
    8SAPS   O11  948   4.312   1.670   6.729  0.6619 -0.1853 -0.4674
    8SAPS    C1  949   4.365   1.763   6.635  0.1279  0.2331 -0.2393
    8SAPS    HA  950   4.313   1.859   6.658  1.2296  0.7568  0.1662
    8SAPS    HB  951   4.476   1.770   6.638  0.2016 -0.7888 -0.2873
    8SAPS    C2  952   4.323   1.723   6.491  0.1950 -0.4239 -0.4215
    8SAPS    HS  953   4.214   1.738   6.500  0.4247  0.9315  0.2530
    8SAPS   O21  954   4.361   1.587   6.465 -0.6114  0.1254  0.4812
    8SAPS   C21  955   4.277   1.528   6.376 -0.3004  0.2097  0.6876
    8SAPS   O22  956   4.165   1.572   6.344 -0.0777 -0.5762 -0.4155
    8SAPS   C22  957   4.330   1.396   6.326 -0.0693  0.0725 -0.6413
    8SAPS   H2R  958   4.424   1.376   6.382 -0.3096  0.6282 -0.0266
    8SAPS   H2S  959   4.261   1.314   6.359  0.1778 -0.9140 -2.4562
    8SAPS    C3  960   4.374   1.824   6.385  0.2781 -0.3528  0.1973
    8SAPS    HX  961   4.474   1.865   6.410  0.6052 -0.2930 -1.1698
    8SAPS    HY  962   4.305   1.909   6.375  0.1437 -0.4719  0.1083
    8SAPS   O31  963   4.393   1.773   6.253  0.1839 -0.3114 -0.2072
    8SAPS   C31  964   4.322   1.813   6.149 -0.3828 -0.2153 -0.1992
    8SAPS   O32  965   4.257   1.920   6.148 -0.3316  0.2509  0.5776
    8SAPS   C32  966   4.345   1.730   6.028  0.1761  0.4819  0.6047
    8SAPS   H2X  967   4.298   1.632   6.051 -0.1121  0.5370  0.2576
    8SAPS   H2Y  968   4.451   1.698   6.021 -0.2007 -0.9618  1.1289
    8SAPS   C23  969   4.358   1.391   6.173  0.1288 -0.3308 -0.1966
    8SAPS   H3R  970   4.432   1.466   6.137  0.2092 -0.4396 -0.2613
    8SAPS   H3S  971   4.267   1.409   6.112  0.8288  0.3462 -1.0757
    8SAPS   C24  972   4.399   1.251   6.134 -0.0319  0.1503  0.3816
    8SAPS   H4R  973   4.380   1.238   6.025 -0.5805 -1.2811  0.6231
    8SAPS   H4S  974   4.314   1.192   6.174 -0.5101  1.4335  1.2956
    8SAPS   C25  975   4.532   1.181   6.174  0.1460  0.0503  0.0504
    8SAPS   H5R  976   4.606   1.252   6.215 -1.0220  1.0686  0.4619
    8SAPS   C26  977   4.538   1.054   6.212 -0.0705  0.2362 -0.4354
    8SAPS   H6R  978   4.632   1.013   6.250 -0.6451 -1.1426 -0.4751
    8SAPS   C27  979   4.436   0.945   6.197  1.1630  0.3822 -0.0364
    8SAPS   H7R  980   4.380   0.964   6.103  0.1407 -0.5667  0.3554
    8SAPS   H7S  981   4.368   0.952   6.284  0.0638  2.2395 -0.9835
    8SAPS   C28  982   4.481   0.800   6.185 -0.3908 -0.5541  0.1348
    8SAPS   H8R  983   4.562   0.778   6.256 -0.1906  0.4751  0.2371
    8SAPS   C29  984   4.436   0.705   6.100 -0.4190  0.4576  0.1686
    8SAPS   H9R  985   4.486   0.608   6.118 -2.0616 -0.1179  1.9183
    8SAPS  C210  986   4.316   0.726   6.012 -0.3599 -0.3584  0.4170
    8SAPS  H10R  987   4.344   0.813   5.948  2.2931 -0.6921  1.0486
    8SAPS  H10S  988   4.225   0.763   6.065 -0.0544  0.1291  0.6044
    8SAPS  C211  989   4.285   0.603   5.926  0.3064  0.4512  0.1577
    8SAPS  H11R  990   4.294   0.501   5.966  0.1709  0.2326 -0.3622
    8SAPS  C212  991   4.252   0.614   5.795  0.4088 -0.2503 -0.3117
    8SAPS  H12R  992   4.236   0.518   5.744 -0.2703 -0.1551 -0.2890
    8SAPS  C213  993   4.235   0.730   5.706 -0.0063 -0.2092 -0.8217
    8SAPS  H13R  994   4.322   0.750   5.640 -0.2171  1.2845 -0.6818
    8SAPS  H13S  995   4.249   0.822   5.766  1.6743  0.5392 -2.2703
    8SAPS  C214  996   4.102   0.724   5.633  0.5531 -0.3589 -0.5031
    8SAPS  H14R  997   4.009   0.744   5.687  0.1611 -3.0002 -0.0981
    8SAPS  C215  998   4.086   0.692   5.507 -0.4421  0.0199  0.6893
    8SAPS  H15R  999   3.985   0.683   5.465 -1.3529  0.9592  2.5837
    8SAPS  C216 1000   4.194   0.655   5.407 -0.1966 -0.5460  0.0531
    8SAPS  H16R 1001   4.171   0.554   5.366 -0.1024 -1.7622  2.7200
    8SAPS  H16S 1002   4.291   0.646   5.460 -1.0082  0.8033  1.9008
    8SAPS  C217 1003   4.197   0.755   5.284 -0.4052  0.3516 -0.3810
    8SAPS  H17R 1004   4.193   0.861   5.318 -2.1513 -0.1904  1.3576
    8SAPS  H17S 1005   4.107   0.749   5.219  0.5411  1.5783 -1.8487
    8SAPS  C218 1006   4.319   0.731   5.194  0.5087 -0.6755 -0.5483
    8SAPS  H18R 1007   4.324   0.625   5.160  4.2523 -0.3828 -1.3146
    8SAPS  H18S 1008   4.410   0.752   5.253 -1.1598  0.9777  1.6353
    8SAPS  C219 1009   4.322   0.813   5.066 -0.6246  0.3861  0.2556
    8SAPS  H19R 1010   4.300   0.920   5.084  0.9032  0.4963  1.7804
    8SAPS  H19S 1011   4.239   0.776   5.003  0.6960 -0.5619 -1.0056
    8SAPS  C220 1012   4.448   0.793   4.985  0.1854  0.0949  0.0861
    8SAPS  H20R 1013   4.529   0.866   5.007 -0.2463  0.4760  0.4543
    8SAPS  H20S 1014   4.421   0.807   4.878 -2.6173 -0.4719  0.6202
    8SAPS  H20T 1015   4.486   0.691   5.004 -0.7093 -0.0076  1.4793
    8SAPS   C33 1016   4.311   1.788   5.887  0.5081  0.0068 -0.1466
    8SAPS   H3X 1017   4.348   1.893   5.895 -1.5173  0.7584 -0.0040
    8SAPS   H3Y 1018   4.202   1.810   5.884  0.5809  0.8008  1.7001
    8SAPS   C34 1019   4.363   1.713   5.765 -0.6564  0.2156  0.9741
    8SAPS   H4X 1020   4.358   1.603   5.760  0.1080  0.2418 -2.3668
    8SAPS   H4Y 1021   4.472   1.734   5.772 -0.7349  1.4006 -0.6957
    8SAPS   C35 1022   4.309   1.773   5.628  0.6045  0.5996 -0.1583
    8SAPS   H5X 1023   4.312   1.883   5.623  2.3916  0.5017 -1.9189
    8SAPS   H5Y 1024   4.204   1.736   5.634  0.7424  0.3740  1.4696
    8SAPS   C36 1025   4.372   1.702   5.512  0.6941 -0.0639  0.5610
    8SAPS   H6X 1026   4.366   1.593   5.533  0.0965 -0.1038  0.2006
    8SAPS   H6Y 1027   4.477   1.733   5.493  0.5819  0.8533  1.3875
    8SAPS   C37 1028   4.283   1.723   5.384  0.7238  0.2788 -0.0607
    8SAPS   H7X 1029   4.270   1.832   5.366  2.1794  0.4468 -0.2336
    8SAPS   H7Y 1030   4.187   1.669   5.397  1.3300 -0.5232  1.1615
    8SAPS   C38 1031   4.350   1.678   5.257 -0.6555  0.3668 -0.9560
    8SAPS   H8X 1032   4.377   1.570   5.258  2.0804  0.9076 -3.1942
    8SAPS   H8Y 1033   4.447   1.731   5.242  1.5465 -2.7024  1.1606
    8SAPS   C39 1034   4.268   1.700   5.130 -0.9270 -0.3039 -0.4236
    8SAPS   H9X 1035   4.225   1.802   5.141  1.3465  0.8767 -1.6587
    8SAPS   H9Y 1036   4.197   1.616   5.119  1.8607 -3.1247  1.4517
    8SAPS  C310 1037   4.355   1.706   5.003 -0.2454 -0.6264 -0.2233
    8SAPS  H10X 1038   4.427   1.787   5.023 -1.1632 -0.0252  0.6810
    8SAPS  H10Y 1039   4.291   1.734   4.916  0.4808  1.6133 -0.0979
    8SAPS  C311 1040   4.431   1.575   4.967 -0.2286 -0.4087 -0.3452
    8SAPS  H11X 1041   4.361   1.489   4.972 -1.1713  0.4024  1.8189
    8SAPS  H11Y 1042   4.514   1.550   5.036 -1.0693  2.9782  2.1688
    8SAPS  C312 1043   4.491   1.592   4.824 -0.3470 -0.4617 -0.3018
    8SAPS  H12X 1044   4.415   1.625   4.750 -0.1523 -0.2722 -0.4171
    8SAPS  H12Y 1045   4.531   1.498   4.781  1.4377  1.4431 -3.1894
    8SAPS  C313 1046   4.609   1.686   4.820 -0.3510 -0.2861  0.0304
    8SAPS  H13X 1047   4.688   1.630   4.875 -0.0885 -0.9764 -1.0102
    8SAPS  H13Y 1048   4.595   1.785   4.867 -0.2779 -0.1726 -0.1900
    8SAPS  C314 1049   4.683   1.699   4.680 -0.3451  0.0914 -0.0491
    8SAPS  H14X 1050   4.688   1.602   4.628  3.3816  0.0271  0.1298
    8SAPS  H14Y 1051   4.789   1.727   4.697 -0.4210  1.5912 -1.7381
    8SAPS  C315 1052   4.629   1.808   4.588  0.3622 -0.0072  0.1491
    8SAPS  H15X 1053   4.714   1.848   4.528  1.5937  0.7894  2.3097
    8SAPS  H15Y 1054   4.595   1.894   4.651 -0.9615  0.5709 -1.2777
    8SAPS  C316 1055   4.520   1.753   4.494 -0.5528 -0.6313 -0.6742
    8SAPS  H16X 1056   4.460   1.679   4.551 -1.0285 -0.3807 -0.8547
    8SAPS  H16Y 1057   4.571   1.700   4.410  1.2747 -2.2683  1.3619
    8SAPS  C317 1058   4.419   1.854   4.447 -0.4076 -0.7469  0.7954
    8SAPS  H17X 1059   4.470   1.948   4.418 -0.2491 -1.3262 -0.8978
    8SAPS  H17Y 1060   4.347   1.891   4.523 -0.0818 -0.3204  0.8969
    8SAPS  C318 1061   4.347   1.790   4.332 -0.1386  0.0834 -0.1407
    8SAPS  H18X 1062   4.301   1.692   4.356  3.2424 -1.5951  0.0325
    8SAPS  H18Y 1063   4.403   1.779   4.236 -0.5884  0.1718 -0.4161
    8SAPS  H18Z 1064   4.262   1.853   4.298  0.4060  0.3946 -0.9707
    9SAPS     N 1065   4.740   5.987   7.396 -1.3951  0.1427  0.1865
    9SAPS   HN1 1066   4.823   5.973   7.336 -0.4080  1.7206  1.1175
    9SAPS   HN2 1067   4.732   6.082   7.438 -2.0412 -0.3286  1.1822
    9SAPS   HN3 1068   4.763   5.920   7.472  2.7732 -1.0758 -1.8569
    9SAPS   C12 1069   4.615   5.954   7.324 -0.5548 -0.0261  0.1154
    9SAPS  H12A 1070   4.617   5.850   7.295 -1.8155  0.0975 -0.4750
    9SAPS   C13 1071   4.486   5.978   7.402 -0.0720 -0.3011 -0.4023
    9SAPS  O13A 1072   4.488   6.019   7.521 -0.3658  0.1524 -0.9046
    9SAPS  O13B 1073   4.375   5.951   7.348  0.6530 -0.1971 -0.3853
    9SAPS   C11 1074   4.609   6.052   7.196  0.0204  0.1763 -0.2925
    9SAPS  H11A 1075   4.604   6.159   7.225 -0.8461  0.5116 -1.5838
    9SAPS  H11B 1076   4.519   6.026   7.137 -0.6852  1.6861  0.0702
    9SAPS     P 1077   4.729   5.905   7.012  0.0592  0.3210 -0.1462
    9SAPS   O13 1078   4.866   5.848   7.008  0.1075 -0.1385 -0.0882
    9SAPS   O14 1079   4.625   5.805   7.023  0.1095  0.9688 -0.4094
    9SAPS   O12 1080   4.724   6.020   7.122  0.2717  0.2885  0.1623
    9SAPS   O11 1081   4.696   5.998   6.882  0.1665 -0.0055  0.0347
    9SAPS    C1 1082   4.555   6.013   6.855 -0.6634  0.2925 -0.2100
    9SAPS    HA 1083   4.492   5.999   6.945  1.8644 -1.4752  1.4049
    9SAPS    HB 1084   4.545   6.108   6.799  2.3841 -0.4821 -2.3253
    9SAPS    C2 1085   4.505   5.908   6.759 -0.2960  0.0862  0.5549
    9SAPS    HS 1086   4.514   5.807   6.803 -0.3735 -0.3182 -0.3256
    9SAPS   O21 1087   4.577   5.912   6.636 -0.3334 -0.3147 -0.4293
    9SAPS   C21 1088   4.676   5.831   6.615 -0.6376 -0.3881  0.4567
    9SAPS   O22 1089   4.709   5.739   6.693 -0.2117  0.3227  0.1462
    9SAPS   C22 1090   4.728   5.858   6.475 -0.3216 -0.0639  0.6036
    9SAPS   H2R 1091   4.638   5.847   6.411  0.4429  0.3606 -0.5743
    9SAPS   H2S 1092   4.752   5.966   6.473 -1.9740  0.3127 -0.1828
    9SAPS    C3 1093   4.352   5.919   6.730  0.6077  0.2703 -0.0516
    9SAPS    HX 1094   4.318   6.014   6.682  1.3554  0.1503 -0.8546
    9SAPS    HY 1095   4.319   5.918   6.836  1.4106  1.1752  0.2187
    9SAPS   O31 1096   4.302   5.800   6.662  0.0226  0.4073 -0.1709
    9SAPS   C31 1097   4.172   5.783   6.659  0.1845  0.4558  0.0288
    9SAPS   O32 1098   4.087   5.860   6.705  0.4079 -0.0464 -0.6207
    9SAPS   C32 1099   4.137   5.643   6.602 -0.3077  0.1091 -0.4410
    9SAPS   H2X 1100   4.033   5.619   6.631  0.2331 -0.1446  1.4447
    9SAPS   H2Y 1101   4.209   5.574   6.652 -0.6054  1.3792  1.8725
    9SAPS   C23 1102   4.834   5.773   6.412 -0.2295 -0.0666  0.6440
    9SAPS   H3R 1103   4.807   5.666   6.396 -1.9586  0.2923  0.8839
    9SAPS   H3S 1104   4.921   5.769   6.481 -0.5336 -3.8277  1.0442
    9SAPS   C24 1105   4.902   5.828   6.284  0.1077  0.4586 -0.4679
    9SAPS   H4R 1106   4.988   5.761   6.263  0.4424  0.8770 -0.4355
    9SAPS   H4S 1107   4.935   5.932   6.307 -1.5685  0.6827  1.2050
    9SAPS   C25 1108   4.811   5.816   6.166  0.0415 -0.5913  0.0070
    9SAPS   H5R 1109   4.729   5.743   6.176 -0.1771 -0.8240 -2.7183
    9SAPS   C26 1110   4.801   5.905   6.068 -0.6669  0.3904  0.6433
    9SAPS   H6R 1111   4.723   5.886   5.993 -0.9721  3.3582  0.1018
    9SAPS   C27 1112   4.893   6.022   6.059  0.4057  0.4004  0.8640
    9SAPS   H7R 1113   4.945   6.004   5.962 -1.1491 -0.5751  0.1615
    9SAPS   H7S 1114   4.974   6.026   6.135 -0.2823  1.2694  1.5731
    9SAPS   C28 1115   4.819   6.151   6.062  0.7973 -0.5502  0.0175
    9SAPS   H8R 1116   4.826   6.206   6.157 -0.1958  0.7114 -0.6125
    9SAPS   C29 1117   4.786   6.226   5.953  0.3612  0.7588  0.0072
    9SAPS   H9R 1118   4.741   6.321   5.986 -1.0816  0.0520  0.1859
    9SAPS  C210 1119   4.788   6.176   5.808  0.5697  0.9655 -0.4374
    9SAPS  H10R 1120   4.713   6.235   5.752 -0.7603  0.6256  0.9244
    9SAPS  H10S 1121   4.747   6.073   5.801 -0.6769  1.4596 -0.6172
    9SAPS  C211 1122   4.929   6.188   5.750 -0.0455 -0.1483  0.4566
    9SAPS  H11R 1123   5.011   6.156   5.817  0.8697  1.9781  0.4242
    9SAPS  C212 1124   4.974   6.230   5.627  0.1022 -0.6743 -0.7999
    9SAPS  H12R 1125   5.082   6.236   5.612 -0.0941  0.1803 -2.1030
    9SAPS  C213 1126   4.893   6.253   5.501  0.0084 -0.1600  0.2045
    9SAPS  H13R 1127   4.786   6.246   5.530 -0.0127  0.4689  0.3010
    9SAPS  H13S 1128   4.909   6.175   5.424 -1.4719  0.4280 -0.7464
    9SAPS  C214 1129   4.921   6.387   5.441 -0.0741 -0.5314  0.2472
    9SAPS  H14R 1130   4.847   6.458   5.479  0.4353 -0.2577  0.7504
    9SAPS  C215 1131   5.031   6.415   5.365 -0.1683  0.8486 -0.4726
    9SAPS  H15R 1132   5.043   6.515   5.321 -1.6965  0.2334 -2.4271
    9SAPS  C216 1133   5.126   6.315   5.308  0.3993  0.3543 -0.0427
    9SAPS  H16R 1134   5.177   6.265   5.392 -0.5282 -0.6605 -0.0602
    9SAPS  H16S 1135   5.199   6.375   5.250 -0.7667  0.3680 -1.5878
    9SAPS  C217 1136   5.081   6.199   5.211 -0.7353 -0.9112 -0.8858
    9SAPS  H17R 1137   4.993   6.143   5.251 -1.0628 -0.5398 -1.0828
    9SAPS  H17S 1138   5.166   6.128   5.221 -0.7842 -1.0977 -1.7118
    9SAPS  C218 1139   5.069   6.241   5.070  0.3912 -0.7180  0.1709
    9SAPS  H18R 1140   5.021   6.341   5.071  0.3170 -0.7591  0.5587
    9SAPS  H18S 1141   5.004   6.170   5.014 -2.5714  1.5096  0.5354
    9SAPS  C219 1142   5.199   6.273   4.989  0.1396  0.3580  0.3523
    9SAPS  H19R 1143   5.245   6.175   4.967  0.2638  0.2131  1.2072
    9SAPS  H19S 1144   5.271   6.329   5.052  0.8725  0.0073 -0.1607
    9SAPS  C220 1145   5.166   6.345   4.859 -0.2686 -0.1806  0.6165
    9SAPS  H20R 1146   5.256   6.353   4.794  0.1527  6.0331  1.2979
    9SAPS  H20S 1147   5.114   6.440   4.884  0.6772  0.5410 -0.0652
    9SAPS  H20T 1148   5.097   6.278   4.805  1.5611 -1.6560 -0.0176
    9SAPS   C33 1149   4.170   5.656   6.454 -0.7787  0.4000 -0.4977
    9SAPS   H3X 1150   4.276   5.685   6.435 -0.5666 -0.5987 -0.9053
    9SAPS   H3Y 1151   4.109   5.740   6.415 -0.0618  0.4160 -1.6356
    9SAPS   C34 1152   4.133   5.533   6.367  0.6023  0.3392  1.0015
    9SAPS   H4X 1153   4.023   5.520   6.356  0.4128  1.2903  1.6461
    9SAPS   H4Y 1154   4.166   5.437   6.412  1.1289  0.1287  0.1748
    9SAPS   C35 1155   4.200   5.546   6.230 -0.7064  0.4464 -0.5619
    9SAPS   H5X 1156   4.296   5.600   6.242 -1.0231  0.9450 -0.2330
    9SAPS   H5Y 1157   4.134   5.614   6.173 -0.7713  0.0565 -0.9640
    9SAPS   C36 1158   4.206   5.413   6.157  0.9219  0.2238  0.3461
    9SAPS   H6X 1159   4.106   5.368   6.174 -0.2265  2.2383 -0.6670
    9SAPS   H6Y 1160   4.277   5.340   6.202  0.5435  0.2850  1.0632
    9SAPS   C37 1161   4.235   5.420   6.007  0.5163 -0.4751 -0.5143
    9SAPS   H7X 1162   4.340   5.450   5.989  1.2840 -2.4910  0.2886
    9SAPS   H7Y 1163   4.162   5.494   5.968 -1.5572 -2.4164 -0.5632
    9SAPS   C38 1164   4.206   5.296   5.926 -0.3792 -0.8573  0.1668
    9SAPS   H8X 1165   4.101   5.261   5.928 -0.0426 -1.9378  2.9542
    9SAPS   H8Y 1166   4.281   5.226   5.968  0.0575 -0.3691  0.2183
    9SAPS   C39 1167   4.237   5.308   5.775 -0.1033 -0.7219 -0.2015
    9SAPS   H9X 1168   4.179   5.396   5.742  0.2791  0.6261  2.4995
    9SAPS   H9Y 1169   4.208   5.216   5.720  0.9473 -0.4676 -1.2288
    9SAPS  C310 1170   4.385   5.337   5.739 -0.5511 -0.1016 -0.3626
    9SAPS  H10X 1171   4.455   5.264   5.785  0.6479  0.5844 -1.0459
    9SAPS  H10Y 1172   4.427   5.433   5.776 -1.7829 -0.3901  1.9741
    9SAPS  C311 1173   4.410   5.310   5.587  0.1121  0.0937  0.4015
    9SAPS  H11X 1174   4.360   5.393   5.532  0.3947  0.5647  0.8448
    9SAPS  H11Y 1175   4.361   5.212   5.567  2.6257 -1.0803 -0.3053
    9SAPS  C312 1176   4.550   5.310   5.536  0.2576  0.4724  0.6811
    9SAPS  H12X 1177   4.615   5.263   5.613 -0.5537 -1.6467  0.1408
    9SAPS  H12Y 1178   4.594   5.410   5.515  1.1923 -0.5150 -2.6069
    9SAPS  C313 1179   4.573   5.238   5.407 -0.0300  0.3781 -0.2228
    9SAPS  H13X 1180   4.486   5.241   5.338 -2.2360  1.2979  2.4652
    9SAPS  H13Y 1181   4.581   5.130   5.433 -1.2625  0.2409 -0.3520
    9SAPS  C314 1182   4.699   5.297   5.337  0.5456 -0.6414  0.2450
    9SAPS  H14X 1183   4.783   5.280   5.408  0.6822  2.3031  0.9324
    9SAPS  H14Y 1184   4.679   5.406   5.339  2.3541 -0.2804  0.1316
    9SAPS  C315 1185   4.743   5.251   5.191 -0.0111  0.0211  0.1638
    9SAPS  H15X 1186   4.667   5.284   5.118  0.7064  1.1340 -0.1109
    9SAPS  H15Y 1187   4.741   5.140   5.201 -0.1720 -0.1445 -1.4586
    9SAPS  C316 1188   4.877   5.313   5.142  0.1314 -0.1090 -0.0019
    9SAPS  H16X 1189   4.947   5.280   5.222 -0.6308  0.4469  0.9194
    9SAPS  H16Y 1190   4.868   5.423   5.129 -2.9008 -0.5150 -2.1402
    9SAPS  C317 1191   4.925   5.271   5.010  0.1974 -0.0206  0.3780
    9SAPS  H17X 1192   4.872   5.327   4.930  0.0200  0.1375  0.6040
    9SAPS  H17Y 1193   4.907   5.161   5.005  0.5370 -0.1684  1.8639
    9SAPS  C318 1194   5.080   5.303   4.996  0.4013  0.3737 -0.7557
    9SAPS  H18X 1195   5.087   5.413   5.009 -1.0362  0.3606  0.4568
    9SAPS  H18Y 1196   5.121   5.277   4.895  0.0301 -0.0369 -0.8081
    9SAPS  H18Z 1197   5.138   5.256   5.078 -2.1714 -0.1797  0.8886
   10SAPS     N 1198   5.798   5.421   6.871  0.4776 -0.4225  0.2096
   10SAPS   HN1 1199   5.734   5.341   6.886 -0.7974  0.8490  1.8427
   10SAPS   HN2 1200   5.824   5.431   6.770 -0.4368  0.6746  0.0697
   10SAPS   HN3 1201   5.886   5.387   6.915 -0.1505  0.5667  2.3426
   10SAPS   C12 1202   5.744   5.544   6.923  0.9890 -0.9480 -0.3524
   10SAPS  H12A 1203   5.710   5.521   7.023  0.5678  2.0867  0.3068
   10SAPS   C13 1204   5.852   5.653   6.943 -0.0833  0.1042 -0.4989
   10SAPS  O13A 1205   5.977   5.635   6.909 -0.4663  0.1246  0.2318
   10SAPS  O13B 1206   5.814   5.748   7.021  0.0444  0.5150  0.4055
   10SAPS   C11 1207   5.624   5.598   6.836 -0.5832 -0.3329  0.3052
   10SAPS  H11A 1208   5.665   5.628   6.737 -0.7042  0.2467  0.4285
   10SAPS  H11B 1209   5.594   5.689   6.892  0.3626  0.2858 -0.1586
   10SAPS     P 1210   5.386   5.500   6.876  0.4349  0.0265 -0.0767
   10SAPS   O13 1211   5.350   5.357   6.886 -0.0199  0.4200  0.4271
   10SAPS   O14 1212   5.377   5.584   6.993  0.3740  0.4015 -0.3068
   10SAPS   O12 1213   5.523   5.502   6.823 -0.0860  0.9631 -0.2910
   10SAPS   O11 1214   5.316   5.570   6.747  0.4777 -0.6006  0.1716
   10SAPS    C1 1215   5.299   5.500   6.622  0.0627 -0.1299  0.1779
   10SAPS    HA 1216   5.376   5.421   6.614  0.4812  0.1832  1.0556
   10SAPS    HB 1217   5.199   5.453   6.608 -0.6181  0.7807  1.7056
   10SAPS    C2 1218   5.309   5.600   6.502 -0.8964 -0.1745 -0.3375
   10SAPS    HS 1219   5.215   5.659   6.507 -1.4366 -1.0929  0.8235
   10SAPS   O21 1220   5.332   5.529   6.375 -0.1098 -0.0580 -0.1872
   10SAPS   C21 1221   5.221   5.487   6.318  0.2659 -0.6513 -0.1969
   10SAPS   O22 1222   5.107   5.505   6.364  0.4040  0.6803  0.3216
   10SAPS   C22 1223   5.255   5.442   6.178 -0.0759 -0.3896  0.0923
   10SAPS   H2R 1224   5.330   5.512   6.136 -0.4441  0.3757  0.6753
   10SAPS   H2S 1225   5.296   5.339   6.175 -0.5073 -0.6027  1.0186
   10SAPS    C3 1226   5.429   5.696   6.520 -1.2552  0.2786 -0.1779
   10SAPS    HX 1227   5.521   5.643   6.554  0.0202  2.7884  0.5273
   10SAPS    HY 1228   5.403   5.747   6.615  0.0282  1.0741 -0.2213
   10SAPS   O31 1229   5.451   5.784   6.411 -0.1076 -0.4215  0.5407
   10SAPS   C31 1230   5.432   5.915   6.431 -0.0617  0.2635  0.2103
   10SAPS   O32 1231   5.415   5.971   6.536  0.4941 -0.0341  0.2088
   10SAPS   C32 1232   5.453   5.994   6.296  0.1493  0.4599 -0.8983
   10SAPS   H2X 1233   5.564   6.007   6.299 -0.2101  4.3784  0.2268
   10SAPS   H2Y 1234   5.390   6.085   6.302  0.5128  0.8569 -2.5004
   10SAPS   C23 1235   5.135   5.453   6.082 -0.0869 -0.0261 -0.3258
   10SAPS   H3R 1236   5.098   5.557   6.099  0.5004  0.1116  0.1400
   10SAPS   H3S 1237   5.051   5.382   6.099 -1.2055  1.5080  0.9369
   10SAPS   C24 1238   5.184   5.455   5.938 -0.0982  0.7359  0.1730
   10SAPS   H4R 1239   5.264   5.530   5.919  1.4537 -0.4907  1.5092
   10SAPS   H4S 1240   5.096   5.476   5.874 -0.1793  2.8941  0.9048
   10SAPS   C25 1241   5.244   5.326   5.884 -0.7700  0.1446 -0.4473
   10SAPS   H5R 1242   5.284   5.262   5.965  2.8890  0.4115 -1.8819
   10SAPS   C26 1243   5.249   5.288   5.756  0.6593  0.4339  0.8709
   10SAPS   H6R 1244   5.289   5.188   5.733 -0.6658 -0.2195  1.3572
   10SAPS   C27 1245   5.206   5.366   5.640 -0.1316  0.0868  0.1485
   10SAPS   H7R 1246   5.296   5.412   5.594 -1.1646  3.1594  0.9068
   10SAPS   H7S 1247   5.136   5.444   5.677  1.0647 -0.0434  2.9015
   10SAPS   C28 1248   5.142   5.296   5.520  0.7595  0.1546 -0.2749
   10SAPS   H8R 1249   5.033   5.293   5.533  0.8608  2.4267  1.7251
   10SAPS   C29 1250   5.205   5.220   5.423 -0.0849  0.0704  0.2815
   10SAPS   H9R 1251   5.138   5.180   5.346 -0.1128  1.7258 -0.6064
   10SAPS  C210 1252   5.352   5.205   5.406  0.1420  0.2317 -0.1698
   10SAPS  H10R 1253   5.412   5.256   5.484 -0.2966 -0.7285  0.8257
   10SAPS  H10S 1254   5.394   5.260   5.319  1.2372  1.0671  0.8640
   10SAPS  C211 1255   5.382   5.060   5.406 -0.6963  0.8563  0.0011
   10SAPS  H11R 1256   5.388   5.014   5.506  0.9170 -0.9677 -0.8634
   10SAPS  C212 1257   5.382   4.988   5.291 -0.9989  0.0358 -0.5268
   10SAPS  H12R 1258   5.394   4.878   5.294  0.8190  0.2147 -0.4201
   10SAPS  C213 1259   5.354   5.036   5.149  0.2936  0.3242 -0.1378
   10SAPS  H13R 1260   5.312   5.137   5.162 -1.0086 -0.3668  1.3578
   10SAPS  H13S 1261   5.272   4.976   5.102 -1.6507  2.5311  0.2614
   10SAPS  C214 1262   5.480   5.035   5.066  0.2727 -0.1904 -0.5616
   10SAPS  H14R 1263   5.556   5.101   5.111  1.1666 -1.5159 -0.0724
   10SAPS  C215 1264   5.506   4.962   4.957  0.0704 -0.2298  0.0727
   10SAPS  H15R 1265   5.598   4.983   4.902  0.2754  0.2742  0.6072
   10SAPS  C216 1266   5.420   4.863   4.887 -0.0535 -0.9689 -0.2241
   10SAPS  H16R 1267   5.362   4.801   4.958 -2.8081  0.7998 -0.7688
   10SAPS  H16S 1268   5.472   4.788   4.824  0.7728  0.4488 -1.2995
   10SAPS  C217 1269   5.311   4.944   4.810 -0.2284  0.2480 -0.6508
   10SAPS  H17R 1270   5.352   5.033   4.758  1.0707  0.2715  0.3799
   10SAPS  H17S 1271   5.235   4.977   4.884 -2.1923  0.5258 -2.6545
   10SAPS  C218 1272   5.228   4.858   4.701 -0.7908  0.0120  0.2487
   10SAPS  H18R 1273   5.177   4.770   4.746 -3.6479  0.4570 -1.8727
   10SAPS  H18S 1274   5.307   4.825   4.630 -0.6182 -0.6513  0.7330
   10SAPS  C219 1275   5.126   4.942   4.629  0.3290  0.2590  0.0773
   10SAPS  H19R 1276   5.054   4.977   4.707 -2.3511 -1.0452 -1.6469
   10SAPS  H19S 1277   5.071   4.873   4.562  0.9683  1.3769 -1.6642
   10SAPS  C220 1278   5.186   5.056   4.548 -0.5697  0.3933  0.2563
   10SAPS  H20R 1279   5.262   5.018   4.477 -1.0359  0.8663 -0.5003
   10SAPS  H20S 1280   5.237   5.138   4.604  2.6609 -1.0004 -0.4048
   10SAPS  H20T 1281   5.107   5.096   4.481  0.5011 -0.7847 -1.8082
   10SAPS   C33 1282   5.405   5.915   6.173 -0.3853 -0.1328 -0.6086
   10SAPS   H3X 1283   5.444   5.811   6.178 -0.7788 -0.3095 -1.1066
   10SAPS   H3Y 1284   5.450   5.959   6.081  0.8403 -0.6437 -0.2665
   10SAPS   C34 1285   5.254   5.913   6.139  0.9423  0.5291 -0.2129
   10SAPS   H4X 1286   5.203   6.006   6.109 -2.2499 -1.3909 -1.1957
   10SAPS   H4Y 1287   5.205   5.880   6.233  0.0445  4.6283  0.9675
   10SAPS   C35 1288   5.229   5.813   6.020 -0.1524 -0.5758  0.3030
   10SAPS   H5X 1289   5.120   5.805   6.000 -0.1552  2.0368 -1.2366
   10SAPS   H5Y 1290   5.281   5.717   6.036  3.7179  1.3195  0.3404
   10SAPS   C36 1291   5.284   5.864   5.885  0.2970 -0.1206  0.1829
   10SAPS   H6X 1292   5.391   5.893   5.899  0.1259  2.1713 -2.4617
   10SAPS   H6Y 1293   5.233   5.962   5.871 -0.6567 -0.7884 -1.2451
   10SAPS   C37 1294   5.262   5.779   5.759  0.3925 -0.6645 -0.0397
   10SAPS   H7X 1295   5.152   5.775   5.740  0.8225 -0.9656 -2.8737
   10SAPS   H7Y 1296   5.305   5.678   5.777  1.2085 -1.1111 -3.6871
   10SAPS   C38 1297   5.331   5.822   5.632 -0.0409 -0.0834  0.3204
   10SAPS   H8X 1298   5.436   5.858   5.641  0.8019 -2.2241 -0.3684
   10SAPS   H8Y 1299   5.279   5.911   5.591 -0.8792 -0.5438  0.3594
   10SAPS   C39 1300   5.346   5.704   5.523  0.1382  0.5715  0.3415
   10SAPS   H9X 1301   5.246   5.655   5.516 -0.0545  0.9315  0.5017
   10SAPS   H9Y 1302   5.409   5.630   5.577  0.8524 -0.0948 -1.3424
   10SAPS  C310 1303   5.408   5.739   5.387 -0.4631  0.4809 -0.6257
   10SAPS  H10X 1304   5.511   5.778   5.401 -0.7647  1.9087 -2.1090
   10SAPS  H10Y 1305   5.353   5.823   5.341  0.3262  1.4776  0.2057
   10SAPS  C311 1306   5.415   5.611   5.300  0.1321  0.4915  0.1304
   10SAPS  H11X 1307   5.306   5.594   5.285  0.2619  0.8233 -1.3202
   10SAPS  H11Y 1308   5.463   5.528   5.357  2.9028  2.3135  0.6712
   10SAPS  C312 1309   5.499   5.637   5.171  0.2573 -0.0779  0.3424
   10SAPS  H12X 1310   5.601   5.675   5.196  0.0299 -0.1919  1.4764
   10SAPS  H12Y 1311   5.450   5.717   5.111 -0.4824 -0.5476  0.3182
   10SAPS  C313 1312   5.483   5.517   5.082 -0.4551  0.6015 -0.6418
   10SAPS  H13X 1313   5.372   5.512   5.082 -0.6232  2.8021 -1.9684
   10SAPS  H13Y 1314   5.533   5.442   5.146  0.1603  1.0066 -0.6433
   10SAPS  C314 1315   5.548   5.520   4.942  0.6351  0.2863  0.1095
   10SAPS  H14X 1316   5.658   5.509   4.952  0.7002  0.0065 -0.9017
   10SAPS  H14Y 1317   5.522   5.621   4.902  1.7487  0.9151  0.8974
   10SAPS  C315 1318   5.500   5.403   4.853  0.0305 -0.2769  0.0094
   10SAPS  H15X 1319   5.390   5.404   4.837  0.0596  2.4401 -0.5988
   10SAPS  H15Y 1320   5.529   5.307   4.900 -1.9125  0.0881  2.1100
   10SAPS  C316 1321   5.561   5.415   4.713  0.4417  0.3482 -0.1496
   10SAPS  H16X 1322   5.672   5.413   4.721  0.4001  0.1305  0.3966
   10SAPS  H16Y 1323   5.529   5.511   4.667 -2.0751  1.6011  3.7510
   10SAPS  C317 1324   5.513   5.300   4.622 -0.2247  0.6126  0.1687
   10SAPS  H17X 1325   5.403   5.314   4.621 -0.3179 -0.0788  0.3207
   10SAPS  H17Y 1326   5.529   5.198   4.662 -0.1044  0.4945 -0.1795
   10SAPS  C318 1327   5.574   5.298   4.483 -0.5380 -0.0859 -0.4226
   10SAPS  H18X 1328   5.538   5.381   4.419  0.5958  1.3105  0.6798
   10SAPS  H18Y 1329   5.541   5.207   4.428 -2.5884  0.5045 -0.2638
   10SAPS  H18Z 1330   5.684   5.299   4.496 -0.6300  1.6131  0.5309
   11SAPS     N 1331   5.774   4.126   1.912  0.3636 -0.6562 -0.2282
   11SAPS   HN1 1332   5.773   4.163   1.815  0.3430 -0.6186 -0.2133
   11SAPS   HN2 1333   5.803   4.026   1.918 -0.7661 -0.9374  1.2092
   11SAPS   HN3 1334   5.684   4.160   1.951  0.5171  0.4833 -0.8371
   11SAPS   C12 1335   5.892   4.187   1.975  0.2435 -0.3865 -0.1297
   11SAPS  H12A 1336   5.977   4.135   1.934  1.3747 -0.0765  1.7051
   11SAPS   C13 1337   5.899   4.349   1.953 -0.3612 -0.6076  0.5950
   11SAPS  O13A 1338   5.805   4.405   1.892 -0.3375 -0.4379  0.0391
   11SAPS  O13B 1339   6.005   4.408   1.978  0.0187 -0.6063 -0.5215
   11SAPS   C11 1340   5.886   4.159   2.126  0.1709 -0.3050 -0.8498
   11SAPS  H11A 1341   5.801   4.214   2.173  1.2280 -0.1173  0.9795
   11SAPS  H11B 1342   5.982   4.199   2.166 -0.6658  1.9173 -0.9319
   11SAPS     P 1343   5.819   3.964   2.288 -0.4551 -0.1527  0.1259
   11SAPS   O13 1344   5.673   3.993   2.302 -0.2329  0.2274  0.2162
   11SAPS   O14 1345   5.863   3.825   2.299  0.1997 -0.2050 -0.0078
   11SAPS   O12 1346   5.872   4.019   2.151 -0.0687  0.7192  0.3896
   11SAPS   O11 1347   5.900   4.045   2.395 -0.3712 -0.5955  0.3477
   11SAPS    C1 1348   6.041   4.035   2.387 -0.2653  0.3412  0.4607
   11SAPS    HA 1349   6.083   3.963   2.314 -0.1964 -0.1311  0.9628
   11SAPS    HB 1350   6.076   4.131   2.344  0.6177 -0.5868 -0.9580
   11SAPS    C2 1351   6.114   4.022   2.517 -0.3539  0.4184 -0.6353
   11SAPS    HS 1352   6.138   3.915   2.539  0.2497  0.7192  0.2092
   11SAPS   O21 1353   6.046   4.091   2.624  0.2609 -0.2650 -0.0553
   11SAPS   C21 1354   5.937   4.027   2.680 -0.0454 -0.5268  1.2315
   11SAPS   O22 1355   5.903   3.912   2.667 -0.3802  0.7435 -0.1499
   11SAPS   C22 1356   5.837   4.126   2.729  0.0848 -0.2397 -0.1596
   11SAPS   H2R 1357   5.848   4.223   2.676  1.4763 -1.5343 -2.3942
   11SAPS   H2S 1358   5.732   4.092   2.714  0.3427 -0.8335 -0.6703
   11SAPS    C3 1359   6.257   4.085   2.497  0.2348  0.2222  0.1010
   11SAPS    HX 1360   6.242   4.188   2.459 -0.1228 -0.1068 -0.6499
   11SAPS    HY 1361   6.292   4.028   2.408  1.9337  3.2947 -1.3442
   11SAPS   O31 1362   6.331   4.073   2.622 -0.5713  0.0182  1.2676
   11SAPS   C31 1363   6.464   4.073   2.606  0.3994 -0.3833  0.5159
   11SAPS   O32 1364   6.518   4.093   2.499 -0.5252 -0.0552  0.2874
   11SAPS   C32 1365   6.537   4.059   2.737 -0.5010  0.3876  0.5938
   11SAPS   H2X 1366   6.643   4.089   2.723 -0.3085 -0.4812  0.1428
   11SAPS   H2Y 1367   6.540   3.951   2.762  2.9289  0.0938 -0.5061
   11SAPS   C23 1368   5.876   4.168   2.872 -0.1978 -0.1062  0.4441
   11SAPS   H3R 1369   5.791   4.240   2.879  0.8361  1.3417 -1.0742
   11SAPS   H3S 1370   5.971   4.225   2.874 -0.4970  0.4528 -0.3961
   11SAPS   C24 1371   5.865   4.051   2.974  0.0085  0.3349  0.4031
   11SAPS   H4R 1372   5.873   4.089   3.078  0.7422 -0.2454  0.5727
   11SAPS   H4S 1373   5.960   3.995   2.954  1.0926  2.3672 -0.4637
   11SAPS   C25 1374   5.745   3.959   2.965 -0.1351  0.3453  0.3134
   11SAPS   H5R 1375   5.764   3.863   2.914 -1.3878 -1.7517  3.4492
   11SAPS   C26 1376   5.615   3.981   3.007 -0.0405  0.1148  0.1880
   11SAPS   H6R 1377   5.537   3.904   2.995 -0.6453  0.5644  1.1389
   11SAPS   C27 1378   5.561   4.103   3.074 -0.2591 -0.0271 -0.5035
   11SAPS   H7R 1379   5.541   4.175   2.991 -1.2975  0.7149  0.3510
   11SAPS   H7S 1380   5.641   4.161   3.124 -0.5867  1.5732 -1.7233
   11SAPS   C28 1381   5.433   4.101   3.156  0.3112 -0.8693 -0.5476
   11SAPS   H8R 1382   5.341   4.101   3.095 -0.7031 -0.3046  0.9040
   11SAPS   C29 1383   5.424   4.073   3.288 -0.6748  0.7593 -0.5173
   11SAPS   H9R 1384   5.328   4.089   3.339  0.5941 -0.1941  2.3929
   11SAPS  C210 1385   5.543   4.038   3.377 -0.2594 -0.0971 -0.2406
   11SAPS  H10R 1386   5.623   4.115   3.388  2.3416 -2.8622  2.3516
   11SAPS  H10S 1387   5.601   3.956   3.329  1.7382  2.0707 -1.7814
   11SAPS  C211 1388   5.494   3.993   3.511 -0.2524  0.1775 -0.1413
   11SAPS  H11R 1389   5.393   3.950   3.514 -0.1426 -0.0143  1.3344
   11SAPS  C212 1390   5.558   4.010   3.632  0.6558  0.3608  0.5611
   11SAPS  H12R 1391   5.513   3.975   3.726  0.1351 -0.7815 -0.0972
   11SAPS  C213 1392   5.695   4.058   3.666 -0.8337  0.9299  0.0733
   11SAPS  H13R 1393   5.698   4.164   3.700 -1.7487  1.2559 -0.8196
   11SAPS  H13S 1394   5.758   4.063   3.575  1.0374 -0.1147  1.2603
   11SAPS  C214 1395   5.764   3.954   3.750 -0.6780 -0.0394 -0.0597
   11SAPS  H14R 1396   5.818   3.877   3.694 -1.9588  0.8730 -2.6819
   11SAPS  C215 1397   5.795   3.979   3.881  0.5457 -0.3018  0.3887
   11SAPS  H15R 1398   5.853   3.901   3.932  0.2429 -2.7777 -2.6919
   11SAPS  C216 1399   5.741   4.093   3.971 -0.5932  0.3968 -0.2597
   11SAPS  H16R 1400   5.657   4.154   3.931 -1.0170 -0.2192 -0.3221
   11SAPS  H16S 1401   5.830   4.158   3.985 -0.4238  0.1383 -0.1230
   11SAPS  C217 1402   5.713   4.047   4.116 -0.0683 -0.2138 -0.4000
   11SAPS  H17R 1403   5.708   4.141   4.175  1.8303 -0.1646 -0.2490
   11SAPS  H17S 1404   5.793   3.990   4.168 -1.0343 -1.5836 -0.3470
   11SAPS  C218 1405   5.579   3.960   4.131 -0.1148 -0.2523  0.3838
   11SAPS  H18R 1406   5.585   3.874   4.061  1.4264 -0.6145  0.9141
   11SAPS  H18S 1407   5.491   4.022   4.104 -0.0685 -0.6346 -0.6994
   11SAPS  C219 1408   5.550   3.909   4.271  0.2537 -0.4620 -0.1606
   11SAPS  H19R 1409   5.566   3.992   4.344 -0.2333  0.4902 -1.1074
   11SAPS  H19S 1410   5.630   3.839   4.305 -1.0122 -0.6731  2.7290
   11SAPS  C220 1411   5.413   3.858   4.293  0.0012 -0.0286 -0.3274
   11SAPS  H20R 1412   5.380   3.843   4.398 -2.8477  1.3088 -0.9170
   11SAPS  H20S 1413   5.390   3.761   4.245  1.4745 -1.7758  2.2588
   11SAPS  H20T 1414   5.337   3.931   4.257  0.0858 -0.8708 -2.3881
   11SAPS   C33 1415   6.491   4.141   2.856  0.7730 -0.1590  0.2393
   11SAPS   H3X 1416   6.389   4.109   2.886  0.3083  0.3440 -0.7553
   11SAPS   H3Y 1417   6.469   4.248   2.835 -1.2454 -0.3198  1.2733
   11SAPS   C34 1418   6.579   4.126   2.979  0.3074 -0.1697 -0.3784
   11SAPS   H4X 1419   6.678   4.168   2.951  1.2245 -1.2217  1.1248
   11SAPS   H4Y 1420   6.592   4.017   2.997 -0.4650 -0.3561 -0.9294
   11SAPS   C35 1421   6.539   4.187   3.114  0.0118 -0.0731  0.3810
   11SAPS   H5X 1422   6.436   4.152   3.135 -0.1580  0.2746  0.1367
   11SAPS   H5Y 1423   6.534   4.298   3.104  0.1465  0.2470  3.0618
   11SAPS   C36 1424   6.634   4.144   3.225  0.3665  0.4017  0.1191
   11SAPS   H6X 1425   6.725   4.095   3.183 -0.1014 -0.0302 -0.4106
   11SAPS   H6Y 1426   6.585   4.058   3.277  0.0562 -0.0021 -0.8179
   11SAPS   C37 1427   6.665   4.245   3.326 -0.0062  0.3597  0.5228
   11SAPS   H7X 1428   6.572   4.296   3.358 -0.2001 -0.9576  2.1902
   11SAPS   H7Y 1429   6.741   4.315   3.286  1.2468 -1.1406  0.1582
   11SAPS   C38 1430   6.737   4.182   3.450 -0.2934  0.2109  0.2584
   11SAPS   H8X 1431   6.664   4.116   3.501 -1.1163 -0.1076 -1.2586
   11SAPS   H8Y 1432   6.759   4.271   3.512  1.4461  1.0454 -1.4467
   11SAPS   C39 1433   6.858   4.085   3.435 -0.2267 -0.4048  0.9058
   11SAPS   H9X 1434   6.835   3.990   3.382 -0.8404  0.0034  0.4280
   11SAPS   H9Y 1435   6.900   4.052   3.533  3.0212 -0.4436 -0.4004
   11SAPS  C310 1436   6.966   4.163   3.365  1.0216 -0.5049 -0.0936
   11SAPS  H10X 1437   6.925   4.236   3.292 -2.2242  0.1047  2.1131
   11SAPS  H10Y 1438   7.029   4.088   3.313  0.4704  0.5690 -2.4374
   11SAPS  C311 1439   7.057   4.250   3.455  0.2106 -0.7571 -0.3543
   11SAPS  H11X 1440   7.001   4.327   3.511  0.0319 -0.0915 -1.4252
   11SAPS  H11Y 1441   7.133   4.304   3.396 -1.0968 -1.1630 -2.5249
   11SAPS  C312 1442   7.127   4.170   3.564 -0.0323 -0.4460 -0.0606
   11SAPS  H12X 1443   7.201   4.101   3.517  1.7435  0.9510  0.5578
   11SAPS  H12Y 1444   7.055   4.110   3.623  1.4327 -0.5116  1.7518
   11SAPS  C313 1445   7.224   4.251   3.659 -0.7630  1.1909 -0.5762
   11SAPS  H13X 1446   7.170   4.279   3.752  2.8071 -0.8343  2.3805
   11SAPS  H13Y 1447   7.272   4.334   3.604  0.1912  1.3362  0.4435
   11SAPS  C314 1448   7.330   4.151   3.708  0.8740 -0.1509 -0.5009
   11SAPS  H14X 1449   7.396   4.108   3.630 -2.9713 -0.0805 -4.1177
   11SAPS  H14Y 1450   7.273   4.074   3.763 -0.6153  2.5058  1.9190
   11SAPS  C315 1451   7.415   4.218   3.828  0.0484 -0.2925 -0.1764
   11SAPS  H15X 1452   7.467   4.306   3.785 -1.1792  1.2052  1.2771
   11SAPS  H15Y 1453   7.493   4.142   3.850  1.5259  0.1273 -3.3462
   11SAPS  C316 1454   7.341   4.276   3.944  0.3356  0.2309 -0.2319
   11SAPS  H16X 1455   7.287   4.201   4.006  1.2686 -2.2640 -2.2385
   11SAPS  H16Y 1456   7.257   4.340   3.910 -0.6422 -0.0800  1.4762
   11SAPS  C317 1457   7.451   4.348   4.036  0.1372  0.6802  0.4480
   11SAPS  H17X 1458   7.488   4.441   3.988 -0.3939  0.1413 -1.0490
   11SAPS  H17Y 1459   7.536   4.276   4.043  0.1940  0.7554  0.5413
   11SAPS  C318 1460   7.408   4.393   4.172 -0.0928 -0.0447  0.0355
   11SAPS  H18X 1461   7.490   4.451   4.219 -1.4823  0.3638  2.1202
   11SAPS  H18Y 1462   7.391   4.306   4.240 -1.5833  1.3305  1.5181
   11SAPS  H18Z 1463   7.324   4.466   4.178  1.6425  1.9679  1.0304
   12SAPS     N 1464   4.715   2.071   1.988 -0.2477  0.0099  0.4586
   12SAPS   HN1 1465   4.672   2.117   1.905 -0.1695 -3.7730 -1.9757
   12SAPS   HN2 1466   4.672   2.128   2.063 -0.5860  0.0942  0.2001
   12SAPS   HN3 1467   4.818   2.080   1.975 -0.4243  0.3538 -0.8304
   12SAPS   C12 1468   4.699   1.929   2.001 -0.1022 -0.0202  0.5916
   12SAPS  H12A 1469   4.615   1.902   2.064  1.6031 -0.5724  2.8019
   12SAPS   C13 1470   4.703   1.853   1.868  0.0339  0.0135 -0.2255
   12SAPS  O13A 1471   4.706   1.917   1.760 -0.0019 -0.2342 -0.3988
   12SAPS  O13B 1472   4.678   1.727   1.866  0.0705 -0.1469  0.5184
   12SAPS   C11 1473   4.811   1.868   2.090 -0.2888 -0.1069 -0.3745
   12SAPS  H11A 1474   4.900   1.841   2.030  0.5452  2.6645 -0.5003
   12SAPS  H11B 1475   4.773   1.773   2.133  2.1556 -0.4020  1.3453
   12SAPS     P 1476   4.889   1.895   2.343  0.6014  0.4802 -0.0336
   12SAPS   O13 1477   4.766   1.839   2.400 -0.2769  0.0919  0.3386
   12SAPS   O14 1478   5.009   1.808   2.321  0.4983  0.1123 -0.2270
   12SAPS   O12 1479   4.846   1.948   2.200  0.5805  0.2406 -0.0272
   12SAPS   O11 1480   4.925   2.024   2.419 -0.0294 -0.1917 -0.1188
   12SAPS    C1 1481   4.825   2.132   2.423 -0.6536 -0.3996 -0.5000
   12SAPS    HA 1482   4.820   2.182   2.324 -0.4914 -2.5189 -1.6270
   12SAPS    HB 1483   4.726   2.097   2.457 -0.3272 -0.5017  0.3878
   12SAPS    C2 1484   4.870   2.241   2.525 -0.0197 -0.0392 -0.2349
   12SAPS    HS 1485   4.945   2.298   2.465  1.3295 -1.0263  0.4726
   12SAPS   O21 1486   4.950   2.188   2.638 -0.0663 -0.1267  0.0556
   12SAPS   C21 1487   4.893   2.095   2.715  0.1030  0.2316  0.1263
   12SAPS   O22 1488   4.782   2.044   2.704 -0.3849  0.1601 -0.6147
   12SAPS   C22 1489   4.998   2.042   2.814  0.2452 -0.6283 -0.0400
   12SAPS   H2R 1490   5.087   2.108   2.814 -0.5032  0.4508  1.4561
   12SAPS   H2S 1491   4.944   2.048   2.911 -1.1780 -0.3116 -0.8123
   12SAPS    C3 1492   4.747   2.341   2.560  0.7029  0.1241 -0.7007
   12SAPS    HX 1493   4.701   2.361   2.461  2.0677  3.9773 -0.7062
   12SAPS    HY 1494   4.787   2.431   2.611 -1.0914 -0.5272  2.1273
   12SAPS   O31 1495   4.659   2.273   2.652 -0.0246  0.4227  0.0200
   12SAPS   C31 1496   4.545   2.325   2.662  0.7397  0.1938  0.1507
   12SAPS   O32 1497   4.500   2.413   2.586 -0.2780 -0.7483 -0.6718
   12SAPS   C32 1498   4.472   2.268   2.792  0.0666 -0.0567  0.0639
   12SAPS   H2X 1499   4.372   2.241   2.754  0.7378 -0.5669 -1.4309
   12SAPS   H2Y 1500   4.456   2.361   2.851  0.5142  0.5037 -0.6816
   12SAPS   C23 1501   5.041   1.894   2.790  0.3691 -0.6402  0.3911
   12SAPS   H3R 1502   5.135   1.898   2.731 -0.0066  1.2697 -0.1603
   12SAPS   H3S 1503   4.977   1.825   2.731 -0.1908 -0.4198  0.7328
   12SAPS   C24 1504   5.061   1.830   2.928 -0.4536  0.1939 -0.6041
   12SAPS   H4R 1505   5.118   1.896   2.997  0.8326 -3.2639  1.9104
   12SAPS   H4S 1506   5.129   1.744   2.913  0.7730  1.1069 -0.4533
   12SAPS   C25 1507   4.932   1.782   2.988  0.0208 -0.5990 -0.6207
   12SAPS   H5R 1508   4.875   1.711   2.927  0.2258 -1.9788  0.7125
   12SAPS   C26 1509   4.892   1.789   3.113  0.3057 -0.2614 -0.9860
   12SAPS   H6R 1510   4.803   1.737   3.151 -0.2091  1.4382  0.2724
   12SAPS   C27 1511   4.972   1.851   3.220  0.2536  0.3396 -0.8416
   12SAPS   H7R 1512   4.899   1.916   3.272  0.1613 -0.0657 -0.4575
   12SAPS   H7S 1513   5.047   1.925   3.184  0.9048  0.3870  0.5383
   12SAPS   C28 1514   5.036   1.764   3.323  0.8545 -0.5302 -0.3744
   12SAPS   H8R 1515   5.024   1.658   3.294 -1.2620 -0.0177 -1.5202
   12SAPS   C29 1516   5.087   1.787   3.448 -0.0082 -0.2336  0.3417
   12SAPS   H9R 1517   5.143   1.709   3.502  1.5745  0.8387  0.2936
   12SAPS  C210 1518   5.095   1.919   3.506  0.0212  0.5615 -0.0896
   12SAPS  H10R 1519   4.990   1.937   3.538  0.0139 -0.3912  0.4511
   12SAPS  H10S 1520   5.119   1.999   3.433  1.5119  0.2188 -0.0157
   12SAPS  C211 1521   5.184   1.923   3.623  0.3269  1.0593 -0.3031
   12SAPS  H11R 1522   5.267   1.852   3.619 -1.6627 -1.3569 -1.7507
   12SAPS  C212 1523   5.174   2.019   3.719 -0.0728 -0.0552  0.2195
   12SAPS  H12R 1524   5.248   2.021   3.800  0.2867 -1.0859 -0.0600
   12SAPS  C213 1525   5.062   2.120   3.727 -0.5056 -0.4198 -0.3434
   12SAPS  H13R 1526   4.981   2.065   3.780  1.3431 -2.0590  0.9177
   12SAPS  H13S 1527   5.032   2.138   3.621  2.0195 -2.4185 -1.5004
   12SAPS  C214 1528   5.095   2.256   3.784  0.1828 -0.6691  0.0737
   12SAPS  H14R 1529   5.159   2.328   3.731 -0.8542  0.5785  0.4551
   12SAPS  C215 1530   5.061   2.286   3.908 -0.6521 -0.1502 -0.1048
   12SAPS  H15R 1531   5.095   2.383   3.948  0.6321 -0.5555 -0.1416
   12SAPS  C216 1532   4.993   2.187   4.002  0.6618 -0.6591  0.3059
   12SAPS  H16R 1533   4.997   2.079   3.977 -1.0616 -0.2576 -2.1012
   12SAPS  H16S 1534   4.886   2.215   3.989  0.8553 -0.1766 -0.2479
   12SAPS  C217 1535   5.035   2.207   4.154 -0.3002  0.1020  0.4545
   12SAPS  H17R 1536   4.947   2.189   4.219  0.0053 -0.2396  0.7784
   12SAPS  H17S 1537   5.059   2.314   4.169  1.4893 -0.0029 -1.2061
   12SAPS  C218 1538   5.151   2.117   4.199 -0.3221 -0.0608  0.1662
   12SAPS  H18R 1539   5.172   2.146   4.304 -1.4052  1.0872  0.0843
   12SAPS  H18S 1540   5.237   2.148   4.136 -1.9309 -2.0992 -3.2750
   12SAPS  C219 1541   5.129   1.965   4.193 -0.5974 -0.7133 -0.7629
   12SAPS  H19R 1542   5.221   1.927   4.241 -0.5036  2.9514  2.4936
   12SAPS  H19S 1543   5.118   1.933   4.087 -1.4194  0.9192 -1.1999
   12SAPS  C220 1544   5.012   1.917   4.285 -0.2225 -0.2520 -0.2722
   12SAPS  H20R 1545   5.005   1.982   4.374  0.8414  0.8247 -0.9345
   12SAPS  H20S 1546   5.038   1.816   4.324 -1.9751 -1.4868 -2.0801
   12SAPS  H20T 1547   4.918   1.914   4.226  0.6243 -2.0647 -1.6307
   12SAPS   C33 1548   4.545   2.157   2.871  0.4249  0.0962  0.5053
   12SAPS   H3X 1549   4.652   2.184   2.883  0.6046  0.3019 -1.2852
   12SAPS   H3Y 1550   4.537   2.059   2.819 -0.5515  0.5537 -0.2480
   12SAPS   C34 1551   4.483   2.122   3.011 -0.2247 -0.3638 -0.0981
   12SAPS   H4X 1552   4.374   2.109   2.997  0.0158 -1.6329 -1.0255
   12SAPS   H4Y 1553   4.494   2.207   3.082 -3.6538 -1.6206  2.1986
   12SAPS   C35 1554   4.565   1.999   3.066  0.3370  0.7214  0.7717
   12SAPS   H5X 1555   4.673   2.013   3.043 -0.0877  1.4941 -0.8852
   12SAPS   H5Y 1556   4.527   1.912   3.008 -0.3931  1.5357  0.0129
   12SAPS   C36 1557   4.546   1.975   3.213 -0.3133  0.3948  0.1426
   12SAPS   H6X 1558   4.569   1.877   3.262 -2.1927  0.4651  1.2673
   12SAPS   H6Y 1559   4.437   1.982   3.231 -0.4073  1.5252 -0.8236
   12SAPS   C37 1560   4.613   2.083   3.310  0.3866 -0.5092 -0.6520
   12SAPS   H7X 1561   4.565   2.176   3.272  1.1499  0.4776  0.6969
   12SAPS   H7Y 1562   4.724   2.089   3.303  0.6118 -0.8756  1.8388
   12SAPS   C38 1563   4.565   2.063   3.454 -0.4493 -0.1881 -0.0603
   12SAPS   H8X 1564   4.458   2.035   3.455 -0.4601 -0.1575 -0.2377
   12SAPS   H8Y 1565   4.561   2.168   3.490  1.3083  0.4430 -1.4827
   12SAPS   C39 1566   4.655   1.971   3.540 -0.9005  0.3843 -0.1362
   12SAPS   H9X 1567   4.760   2.004   3.527 -0.7842  1.6318  3.1591
   12SAPS   H9Y 1568   4.653   1.867   3.503 -0.2307  0.8308 -1.4941
   12SAPS  C310 1569   4.601   1.962   3.680  0.0195 -0.4841 -0.6645
   12SAPS  H10X 1570   4.495   1.929   3.675 -0.3562  0.8078 -2.3205
   12SAPS  H10Y 1571   4.580   2.066   3.711 -1.1042 -0.1319 -2.4689
   12SAPS  C311 1572   4.698   1.887   3.774  0.5617  1.0372  0.2809
   12SAPS  H11X 1573   4.796   1.935   3.751 -0.3209  1.8957 -2.0277
   12SAPS  H11Y 1574   4.710   1.778   3.759  1.8773  1.2187 -0.1209
   12SAPS  C312 1575   4.677   1.910   3.927  0.7631  0.0357  0.2421
   12SAPS  H12X 1576   4.772   1.877   3.974  1.6004 -0.0753 -1.4578
   12SAPS  H12Y 1577   4.594   1.840   3.952 -0.0500  0.6621 -0.6516
   12SAPS  C313 1578   4.636   2.053   3.970  0.2096 -0.7272 -1.4984
   12SAPS  H13X 1579   4.534   2.074   3.932 -1.4281 -2.4444  1.5469
   12SAPS  H13Y 1580   4.694   2.135   3.922 -1.8070  1.0077 -1.1098
   12SAPS  C314 1581   4.638   2.089   4.124  0.4131  0.2523  0.2212
   12SAPS  H14X 1582   4.734   2.068   4.177  0.1146 -0.3968  0.5108
   12SAPS  H14Y 1583   4.572   2.019   4.179  1.3051 -0.4862  0.3670
   12SAPS  C315 1584   4.609   2.237   4.150  0.3737  0.0927  0.1843
   12SAPS  H15X 1585   4.510   2.273   4.115 -0.0105 -0.4063  0.7368
   12SAPS  H15Y 1586   4.684   2.300   4.097  1.2327  0.3588  1.6636
   12SAPS  C316 1587   4.614   2.266   4.298  0.3739  0.7230 -0.0241
   12SAPS  H16X 1588   4.711   2.247   4.350 -0.3397  1.7769  1.8009
   12SAPS  H16Y 1589   4.534   2.207   4.347  0.6361  0.1723 -0.2628
   12SAPS  C317 1590   4.591   2.419   4.323  0.2736  0.2658  0.0248
   12SAPS  H17X 1591   4.671   2.476   4.270 -0.9790  3.1189  0.9827
   12SAPS  H17Y 1592   4.611   2.438   4.430  2.2386  0.0847 -0.2669
   12SAPS  C318 1593   4.466   2.481   4.265 -0.6367 -0.8704 -0.2222
   12SAPS  H18X 1594   4.444   2.587   4.290  0.6835 -1.0146  1.8364
   12SAPS  H18Y 1595   4.375   2.424   4.294 -0.7524  0.1527  1.5421
   12SAPS  H18Z 1596   4.471   2.471   4.154 -0.2826  0.1697 -0.3074
   13SAPS     N 1597   0.993   2.075   2.176 -0.3054 -0.3188 -0.3727
   13SAPS   HN1 1598   1.015   1.990   2.232  0.0003 -0.6447 -0.9704
   13SAPS   HN2 1599   0.978   2.039   2.079  1.8167  0.6204 -1.1213
   13SAPS   HN3 1600   1.076   2.138   2.173 -1.8891  1.9024  0.2284
   13SAPS   C12 1601   0.874   2.142   2.236 -0.4202 -0.2686  0.5654
   13SAPS  H12A 1602   0.846   2.224   2.171  1.3753 -2.2345 -2.9544
   13SAPS   C13 1603   0.748   2.052   2.225 -0.1007  0.4986 -0.2617
   13SAPS  O13A 1604   0.749   1.959   2.143 -0.0948  0.1241  0.5624
   13SAPS  O13B 1605   0.659   2.051   2.316  0.2767  0.1950 -0.1116
   13SAPS   C11 1606   0.882   2.175   2.391 -0.1017  0.2487  0.4118
   13SAPS  H11A 1607   0.901   2.086   2.454 -0.5041  0.6152  1.0613
   13SAPS  H11B 1608   0.785   2.219   2.423  0.5556  1.8762  0.2776
   13SAPS     P 1609   0.980   2.426   2.393  0.4434 -0.1034 -0.1132
   13SAPS   O13 1610   1.098   2.483   2.465  0.1847  0.3141  1.1475
   13SAPS   O14 1611   0.966   2.452   2.249 -0.2452  0.0701 -0.3245
   13SAPS   O12 1612   0.980   2.268   2.426 -0.0766 -0.3575  0.6390
   13SAPS   O11 1613   0.848   2.484   2.461 -0.0714  0.1135  0.4177
   13SAPS    C1 1614   0.832   2.527   2.597  0.2513  0.0262  0.6066
   13SAPS    HA 1615   0.928   2.571   2.632  1.2253  0.4656 -2.3083
   13SAPS    HB 1616   0.746   2.598   2.596 -0.2597 -0.5370 -1.5085
   13SAPS    C2 1617   0.793   2.401   2.685 -0.2073  0.2572  0.2674
   13SAPS    HS 1618   0.877   2.329   2.684 -1.9508 -1.8615  0.3126
   13SAPS   O21 1619   0.679   2.337   2.618  0.2835 -0.4333 -0.9719
   13SAPS   C21 1620   0.647   2.215   2.662 -0.8298 -0.4020 -0.5214
   13SAPS   O22 1621   0.714   2.148   2.742  0.4764 -1.2240  0.0295
   13SAPS   C22 1622   0.524   2.174   2.599 -0.0985  0.0563 -0.5219
   13SAPS   H2R 1623   0.506   2.226   2.502  1.0052 -0.0861 -0.8216
   13SAPS   H2S 1624   0.540   2.070   2.564  1.4487 -0.0093  0.2914
   13SAPS    C3 1625   0.759   2.444   2.835 -0.0371 -0.3132 -0.2474
   13SAPS    HX 1626   0.753   2.351   2.895 -1.3335  0.8441  1.4978
   13SAPS    HY 1627   0.659   2.491   2.834  0.6667  1.2655 -1.1386
   13SAPS   O31 1628   0.842   2.545   2.894  0.2884 -0.5770  0.2798
   13SAPS   C31 1629   0.939   2.497   2.969 -0.4749 -0.6976 -0.5991
   13SAPS   O32 1630   0.974   2.382   2.981  0.9172 -0.0859  0.1862
   13SAPS   C32 1631   1.016   2.614   3.025  0.4233  0.5497  0.0878
   13SAPS   H2X 1632   1.031   2.689   2.944 -2.8900 -0.5525 -1.7359
   13SAPS   H2Y 1633   1.116   2.581   3.063 -0.2732 -0.7466  0.8465
   13SAPS   C23 1634   0.399   2.165   2.701 -0.5300 -0.2009  0.3716
   13SAPS   H3R 1635   0.422   2.108   2.793  0.1296  0.4591  0.6347
   13SAPS   H3S 1636   0.318   2.118   2.641 -0.3533  0.5621 -0.4935
   13SAPS   C24 1637   0.352   2.310   2.743  0.2691  1.1798  0.1558
   13SAPS   H4R 1638   0.317   2.373   2.658 -1.3936 -0.3951 -0.3931
   13SAPS   H4S 1639   0.453   2.347   2.772  0.1032 -0.6337  3.6148
   13SAPS   C25 1640   0.264   2.318   2.860 -0.0803 -0.2154 -0.1652
   13SAPS   H5R 1641   0.159   2.287   2.845 -0.3155 -0.0406  0.9723
   13SAPS   C26 1642   0.303   2.368   2.981 -0.1450  0.7096  0.6412
   13SAPS   H6R 1643   0.231   2.367   3.065 -0.5076  0.7769  0.3351
   13SAPS   C27 1644   0.433   2.435   3.022 -0.1915 -0.4077  0.5657
   13SAPS   H7R 1645   0.404   2.514   3.094 -0.8453  0.4963 -0.6457
   13SAPS   H7S 1646   0.491   2.499   2.951  0.4082  0.0949  1.4911
   13SAPS   C28 1647   0.529   2.332   3.071 -0.3900  0.1427 -0.5878
   13SAPS   H8R 1648   0.533   2.234   3.020 -2.4870 -0.1543 -0.2802
   13SAPS   C29 1649   0.621   2.355   3.169  0.5867  0.0281 -0.0174
   13SAPS   H9R 1650   0.680   2.274   3.214  0.3762  0.7513  1.6584
   13SAPS  C210 1651   0.625   2.490   3.237  0.5624 -0.1220  0.2863
   13SAPS  H10R 1652   0.607   2.569   3.160  1.4601 -0.3626 -0.1851
   13SAPS  H10S 1653   0.729   2.514   3.266 -0.2259  1.4415  2.0065
   13SAPS  C211 1654   0.522   2.510   3.344 -0.2011  1.2540 -0.3973
   13SAPS  H11R 1655   0.420   2.483   3.312  0.3119 -1.4196  0.0085
   13SAPS  C212 1656   0.535   2.577   3.464 -0.6734 -0.5255 -0.1765
   13SAPS  H12R 1657   0.457   2.578   3.541  0.1808 -2.5037  0.7745
   13SAPS  C213 1658   0.668   2.633   3.506  0.1651 -0.0413 -0.5463
   13SAPS  H13R 1659   0.679   2.744   3.502 -0.0457  0.0293  0.4634
   13SAPS  H13S 1660   0.748   2.601   3.436  0.1140  1.6333 -1.4269
   13SAPS  C214 1661   0.713   2.584   3.644 -0.6298 -0.4633 -0.3316
   13SAPS  H14R 1662   0.759   2.484   3.638 -3.0354 -1.6179 -1.0952
   13SAPS  C215 1663   0.690   2.635   3.766  0.6002 -0.6693  0.2917
   13SAPS  H15R 1664   0.720   2.573   3.851  1.1144 -1.1580 -0.2323
   13SAPS  C216 1665   0.623   2.765   3.815 -0.4066  0.4747 -0.6496
   13SAPS  H16R 1666   0.514   2.742   3.824 -0.2184 -0.4206 -0.5960
   13SAPS  H16S 1667   0.640   2.847   3.742  2.2760  1.6137  1.1287
   13SAPS  C217 1668   0.667   2.796   3.958 -0.0940  0.2265  0.0820
   13SAPS  H17R 1669   0.777   2.786   3.962 -0.2023 -1.4434 -0.1606
   13SAPS  H17S 1670   0.621   2.716   4.020 -0.9415  0.3868 -0.3245
   13SAPS  C218 1671   0.615   2.927   4.013  0.2178  0.0570  0.3141
   13SAPS  H18R 1672   0.507   2.924   3.988 -0.0334 -3.0758  1.2305
   13SAPS  H18S 1673   0.656   3.018   3.966 -1.5849  1.1666  0.8032
   13SAPS  C219 1674   0.621   2.931   4.169 -0.0213  0.3323  0.7394
   13SAPS  H19R 1675   0.549   2.860   4.216  1.3868 -1.8447 -0.2291
   13SAPS  H19S 1676   0.581   3.031   4.194 -0.1045  0.6895 -0.7392
   13SAPS  C220 1677   0.763   2.914   4.237  0.0478  0.2734  0.3570
   13SAPS  H20R 1678   0.818   3.010   4.226 -1.7220  1.2296 -0.7668
   13SAPS  H20S 1679   0.822   2.831   4.195  1.1588  0.3031  1.7906
   13SAPS  H20T 1680   0.754   2.898   4.347 -1.4441 -5.6538 -0.2830
   13SAPS   C33 1681   0.932   2.680   3.143  0.6341 -0.9908 -0.3727
   13SAPS   H3X 1682   0.956   2.625   3.236 -1.0200 -0.5467  0.3443
   13SAPS   H3Y 1683   0.823   2.671   3.123 -0.1833  2.2482  1.9389
   13SAPS   C34 1684   0.961   2.834   3.155  0.2717 -1.2922 -0.7787
   13SAPS   H4X 1685   0.919   2.887   3.067  1.6673 -3.5166 -2.9327
   13SAPS   H4Y 1686   1.072   2.838   3.149  0.1749  1.5110 -2.3469
   13SAPS   C35 1687   0.906   2.905   3.287  0.2630  0.0164  0.2168
   13SAPS   H5X 1688   0.796   2.890   3.295  0.4765 -2.0758 -0.0272
   13SAPS   H5Y 1689   0.922   3.014   3.278  4.8597 -0.3612  1.4350
   13SAPS   C36 1690   0.975   2.860   3.413 -0.4863 -0.0592 -0.1206
   13SAPS   H6X 1691   1.083   2.872   3.390 -0.5108 -0.5316 -0.5141
   13SAPS   H6Y 1692   0.954   2.753   3.436  0.1693 -0.4785 -1.3416
   13SAPS   C37 1693   0.939   2.944   3.539 -0.2028  0.4320  1.6645
   13SAPS   H7X 1694   0.834   2.943   3.575  0.3245  2.2911  3.5150
   13SAPS   H7Y 1695   0.967   3.050   3.518  1.6611 -0.1194  1.1674
   13SAPS   C38 1696   1.008   2.917   3.671 -0.1250  0.3460  0.4769
   13SAPS   H8X 1697   1.116   2.923   3.645 -0.2614  0.8177  0.0021
   13SAPS   H8Y 1698   0.995   2.814   3.710  0.1858  0.0664 -0.1538
   13SAPS   C39 1699   0.990   3.025   3.784 -0.2806  0.0085 -0.2558
   13SAPS   H9X 1700   0.902   3.007   3.850 -0.7635  0.1802 -0.8464
   13SAPS   H9Y 1701   0.986   3.123   3.731 -0.2865  0.0681 -0.1484
   13SAPS  C310 1702   1.120   3.029   3.871  0.0310 -0.1314 -0.3763
   13SAPS  H10X 1703   1.201   3.047   3.798  0.8602 -0.8768  0.3372
   13SAPS  H10Y 1704   1.133   2.927   3.912 -1.3611  0.9366  3.1203
   13SAPS  C311 1705   1.096   3.134   3.976 -0.1598  0.0860 -0.0075
   13SAPS  H11X 1706   1.020   3.093   4.046  1.1546 -2.0557  0.2535
   13SAPS  H11Y 1707   1.054   3.230   3.938 -0.4391  0.3070  0.8478
   13SAPS  C312 1708   1.223   3.169   4.045 -0.3375 -0.3359 -0.2650
   13SAPS  H12X 1709   1.273   3.225   3.964 -1.1714  1.3469  0.3424
   13SAPS  H12Y 1710   1.286   3.082   4.074  1.4330  1.3201  1.0950
   13SAPS  C313 1711   1.200   3.273   4.164 -0.6712  0.3329  0.0164
   13SAPS  H13X 1712   1.171   3.374   4.128 -2.2646  0.6407  2.0223
   13SAPS  H13Y 1713   1.294   3.285   4.220  0.4590 -2.5917 -1.0360
   13SAPS  C314 1714   1.092   3.228   4.261  0.1325 -0.1809 -0.2658
   13SAPS  H14X 1715   1.130   3.130   4.295  2.3322  0.9738  0.8191
   13SAPS  H14Y 1716   0.995   3.211   4.211  0.3826  0.2198 -0.9060
   13SAPS  C315 1717   1.095   3.322   4.380 -0.3084 -0.2678 -0.2416
   13SAPS  H15X 1718   1.063   3.424   4.350 -0.9797 -1.0782 -2.4440
   13SAPS  H15Y 1719   1.192   3.328   4.433 -0.3062 -0.7588 -0.1851
   13SAPS  C316 1720   1.005   3.271   4.491 -0.6631 -0.3092 -0.7096
   13SAPS  H16X 1721   1.016   3.355   4.562  0.6461  1.8267 -3.2385
   13SAPS  H16Y 1722   1.034   3.181   4.550  0.0070  0.6525  0.4700
   13SAPS  C317 1723   0.861   3.242   4.454  0.9736  0.5094 -0.4859
   13SAPS  H17X 1724   0.854   3.145   4.401 -0.3698  1.3639 -1.9630
   13SAPS  H17Y 1725   0.807   3.314   4.388 -1.4886 -2.0530 -1.4693
   13SAPS  C318 1726   0.775   3.225   4.574  0.1356 -0.5619 -0.0628
   13SAPS  H18X 1727   0.677   3.181   4.546  0.2168 -0.0698 -1.1725
   13SAPS  H18Y 1728   0.749   3.328   4.609 -0.9118 -0.5645 -0.8022
   13SAPS  H18Z 1729   0.823   3.175   4.661  1.0974  0.1040 -0.1904
   14SAPS     N 1730   1.673   4.594   2.544 -0.8110 -0.0452 -0.6231
   14SAPS   HN1 1731   1.633   4.682   2.582 -0.2917  1.0255 -2.4384
   14SAPS   HN2 1732   1.631   4.513   2.594 -1.7783  0.4294 -0.6414
   14SAPS   HN3 1733   1.776   4.601   2.557 -1.1215  2.0184  1.2391
   14SAPS   C12 1734   1.627   4.576   2.398 -0.1650  0.3926 -0.0843
   14SAPS  H12A 1735   1.671   4.658   2.343 -0.3342  0.3328 -0.3127
   14SAPS   C13 1736   1.679   4.450   2.332 -0.2690 -0.2054 -1.2023
   14SAPS  O13A 1737   1.770   4.380   2.390  0.6976  0.0278 -0.4052
   14SAPS  O13B 1738   1.653   4.431   2.212 -0.0718 -0.3527  0.2875
   14SAPS   C11 1739   1.471   4.571   2.386 -0.5006 -0.0221  0.0157
   14SAPS  H11A 1740   1.433   4.565   2.282  0.3363 -1.2100 -0.2509
   14SAPS  H11B 1741   1.425   4.668   2.416 -1.0859  0.3818 -2.0538
   14SAPS     P 1742   1.316   4.349   2.422 -0.3078 -0.3379  0.2377
   14SAPS   O13 1743   1.235   4.399   2.311  0.4780 -0.2247  0.3172
   14SAPS   O14 1744   1.390   4.223   2.391 -0.0550  0.3927 -0.5244
   14SAPS   O12 1745   1.426   4.454   2.464  0.2102  0.1324 -0.1746
   14SAPS   O11 1746   1.233   4.343   2.555  0.0588 -0.1931 -0.1032
   14SAPS    C1 1747   1.278   4.373   2.687  0.1395  0.8346  0.2209
   14SAPS    HA 1748   1.234   4.297   2.755  0.8069 -1.6474 -1.9915
   14SAPS    HB 1749   1.389   4.372   2.690  0.1971  0.1888 -1.3731
   14SAPS    C2 1750   1.243   4.513   2.728 -0.0254 -0.3834  0.7914
   14SAPS    HS 1751   1.286   4.580   2.650 -1.2138  0.2419  0.6588
   14SAPS   O21 1752   1.297   4.543   2.859  0.3112  0.2649  0.1792
   14SAPS   C21 1753   1.422   4.581   2.860 -0.5055  0.4895 -0.0772
   14SAPS   O22 1754   1.491   4.605   2.763  0.3616 -0.5071 -0.4200
   14SAPS   C22 1755   1.468   4.566   3.003 -0.5600 -0.0931  0.0035
   14SAPS   H2R 1756   1.490   4.671   3.035 -0.6284  0.1860 -0.8440
   14SAPS   H2S 1757   1.388   4.530   3.072  1.7866 -1.7301  2.0090
   14SAPS    C3 1758   1.099   4.548   2.734 -0.5312 -0.3151  0.1204
   14SAPS    HX 1759   1.063   4.528   2.631 -2.0222  0.3336  0.4756
   14SAPS    HY 1760   1.075   4.653   2.761 -1.2038  0.2611 -2.4251
   14SAPS   O31 1761   1.026   4.471   2.838  0.7926 -0.1514  0.9226
   14SAPS   C31 1762   0.899   4.489   2.851  0.9702  0.7761 -0.6164
   14SAPS   O32 1763   0.828   4.566   2.790 -0.2509  0.3552 -0.2664
   14SAPS   C32 1764   0.841   4.379   2.940  0.1378 -0.0739 -0.0444
   14SAPS   H2X 1765   0.897   4.284   2.927 -1.4631 -1.0348 -0.2411
   14SAPS   H2Y 1766   0.733   4.367   2.914  0.4618 -0.7354 -1.1713
   14SAPS   C23 1767   1.586   4.467   3.009 -0.4451 -0.2757 -0.4450
   14SAPS   H3R 1768   1.675   4.498   2.950 -0.7150  1.3441 -0.0680
   14SAPS   H3S 1769   1.554   4.364   2.982  0.7975 -1.3827  1.9946
   14SAPS   C24 1770   1.633   4.449   3.147  0.2906 -0.8145 -0.0195
   14SAPS   H4R 1771   1.724   4.386   3.142  0.9446  0.1275 -0.5280
   14SAPS   H4S 1772   1.553   4.398   3.205  0.5457 -0.6936  0.4446
   14SAPS   C25 1773   1.675   4.587   3.206 -0.0861 -0.1431  0.3504
   14SAPS   H5R 1774   1.741   4.652   3.147 -1.8930  1.7956  0.3341
   14SAPS   C26 1775   1.626   4.642   3.317 -0.6252  0.2713 -0.3088
   14SAPS   H6R 1776   1.658   4.744   3.343  2.4916 -0.3282 -1.3866
   14SAPS   C27 1777   1.521   4.585   3.406 -0.7157  0.2926 -0.1886
   14SAPS   H7R 1778   1.456   4.518   3.346  0.1641 -0.5174 -0.2634
   14SAPS   H7S 1779   1.455   4.665   3.444 -0.1368  2.5239 -3.4194
   14SAPS   C28 1780   1.570   4.505   3.528  0.3791 -0.4784 -0.2069
   14SAPS   H8R 1781   1.553   4.396   3.524 -1.2950 -0.2568  0.3062
   14SAPS   C29 1782   1.624   4.558   3.634 -0.1779  0.3159  0.0561
   14SAPS   H9R 1783   1.643   4.487   3.716  0.5026 -0.2842 -0.6153
   14SAPS  C210 1784   1.643   4.707   3.659  0.3030 -0.4925 -0.2995
   14SAPS  H10R 1785   1.540   4.747   3.664  0.8954  1.4746 -2.2815
   14SAPS  H10S 1786   1.693   4.747   3.568  3.4632 -3.0210  0.1505
   14SAPS  C211 1787   1.703   4.750   3.790  0.1904  0.5685 -0.0682
   14SAPS  H11R 1788   1.808   4.778   3.771 -0.1903  3.5915  1.7711
   14SAPS  C212 1789   1.653   4.765   3.915  0.6309  0.7193  0.3011
   14SAPS  H12R 1790   1.711   4.802   4.000  1.1487 -0.4327  0.4694
   14SAPS  C213 1791   1.507   4.724   3.945 -0.3412 -0.6907 -0.1424
   14SAPS  H13R 1792   1.516   4.636   4.013  1.5732 -0.4727 -0.0590
   14SAPS  H13S 1793   1.466   4.682   3.851  1.1558 -0.8598 -0.7452
   14SAPS  C214 1794   1.433   4.844   3.998  0.2359  0.1918  0.1597
   14SAPS  H14R 1795   1.362   4.898   3.934 -0.0583 -0.9731 -0.5256
   14SAPS  C215 1796   1.438   4.874   4.128  0.7987 -0.8641  0.3077
   14SAPS  H15R 1797   1.396   4.972   4.154  2.0273 -0.6674  1.7439
   14SAPS  C216 1798   1.531   4.810   4.227  1.2067 -0.2505  0.1087
   14SAPS  H16R 1799   1.568   4.888   4.297  0.5465  0.4669 -0.3326
   14SAPS  H16S 1800   1.626   4.773   4.182  1.5628 -0.2342  0.8245
   14SAPS  C217 1801   1.462   4.696   4.306  0.2497 -0.1042  0.8883
   14SAPS  H17R 1802   1.426   4.622   4.231  0.1587  0.6186  0.2070
   14SAPS  H17S 1803   1.369   4.734   4.353 -2.0544 -0.6162 -2.7729
   14SAPS  C218 1804   1.563   4.624   4.403 -0.2299 -0.3972  0.6838
   14SAPS  H18R 1805   1.638   4.696   4.442  1.1401 -0.3127 -1.8895
   14SAPS  H18S 1806   1.606   4.548   4.334 -0.6878  0.0219 -0.0804
   14SAPS  C219 1807   1.492   4.550   4.522  0.0160  0.3314  0.5256
   14SAPS  H19R 1808   1.450   4.453   4.489 -0.8593  0.6146  0.7746
   14SAPS  H19S 1809   1.412   4.617   4.561  0.2986 -0.6787  3.0283
   14SAPS  C220 1810   1.588   4.528   4.632  0.3613 -0.3549  0.7311
   14SAPS  H20R 1811   1.685   4.484   4.602 -0.7684 -0.9597 -2.3638
   14SAPS  H20S 1812   1.546   4.462   4.711  1.0224 -2.4014 -0.5399
   14SAPS  H20T 1813   1.616   4.621   4.686  0.8623 -0.1930  0.1943
   14SAPS   C33 1814   0.868   4.422   3.079  0.1287  0.0990 -0.1185
   14SAPS   H3X 1815   0.803   4.507   3.111 -0.4831 -0.0265 -1.0057
   14SAPS   H3Y 1816   0.969   4.468   3.089  0.0931  0.5070 -1.4424
   14SAPS   C34 1817   0.841   4.310   3.176 -0.7140 -0.1638  0.0040
   14SAPS   H4X 1818   0.887   4.215   3.142 -2.8009 -1.5673  0.9319
   14SAPS   H4Y 1819   0.731   4.299   3.167 -1.0608  3.4833 -1.8286
   14SAPS   C35 1820   0.877   4.334   3.323 -0.3145  0.4371  0.1838
   14SAPS   H5X 1821   0.809   4.416   3.355 -0.5794  0.4150 -0.3058
   14SAPS   H5Y 1822   0.983   4.365   3.324  0.0560 -0.7842  0.1812
   14SAPS   C36 1823   0.857   4.211   3.409 -0.1721  0.0939  0.5251
   14SAPS   H6X 1824   0.922   4.133   3.364 -1.9984 -1.3114  0.1956
   14SAPS   H6Y 1825   0.759   4.161   3.419  0.2496 -0.6210  1.1750
   14SAPS   C37 1826   0.909   4.249   3.553  0.1361 -0.1494  0.5979
   14SAPS   H7X 1827   0.821   4.285   3.610 -0.8198 -1.8657  0.2985
   14SAPS   H7Y 1828   0.996   4.317   3.549  0.8610 -1.1146 -1.7691
   14SAPS   C38 1829   0.940   4.124   3.632  0.1629  0.2277  0.2276
   14SAPS   H8X 1830   1.020   4.065   3.583 -0.1294  0.3053 -0.3434
   14SAPS   H8Y 1831   0.850   4.059   3.622 -0.2584  1.0260 -1.5755
   14SAPS   C39 1832   0.986   4.162   3.781 -0.1404  0.2423  0.4050
   14SAPS   H9X 1833   0.915   4.235   3.827 -0.3214  1.1283 -1.1940
   14SAPS   H9Y 1834   1.085   4.211   3.782 -0.7370  1.5058  1.3009
   14SAPS  C310 1835   1.012   4.039   3.871 -0.0564 -0.1817  0.0121
   14SAPS  H10X 1836   1.107   3.995   3.835 -0.1708 -1.6249  1.3513
   14SAPS  H10Y 1837   0.942   3.955   3.848  2.2501 -1.6815 -1.9331
   14SAPS  C311 1838   1.023   4.069   4.021  0.2137  0.1297  0.1007
   14SAPS  H11X 1839   1.008   3.969   4.065  3.1171 -1.1976 -1.6257
   14SAPS  H11Y 1840   0.940   4.137   4.052 -0.1458 -0.9501  1.6073
   14SAPS  C312 1841   1.159   4.129   4.054  0.3192 -0.2143  0.0188
   14SAPS  H12X 1842   1.183   4.216   3.988 -1.7964 -0.3252 -0.9674
   14SAPS  H12Y 1843   1.238   4.054   4.031  0.0866 -0.5405  0.2775
   14SAPS  C313 1844   1.165   4.168   4.205 -0.0506  0.1523  0.0284
   14SAPS  H13X 1845   1.107   4.091   4.261 -0.0821  1.5623  2.0365
   14SAPS  H13Y 1846   1.119   4.267   4.227  1.9996  1.0265  0.6544
   14SAPS  C314 1847   1.305   4.171   4.263 -0.8838  0.0355 -0.3965
   14SAPS  H14X 1848   1.378   4.244   4.222  1.1322 -0.9771  1.2249
   14SAPS  H14Y 1849   1.345   4.068   4.260 -0.7463  0.1075 -1.8856
   14SAPS  C315 1850   1.310   4.201   4.413 -0.1958 -0.7608  0.2003
   14SAPS  H15X 1851   1.279   4.306   4.429  0.7494  0.0264 -2.6006
   14SAPS  H15Y 1852   1.416   4.186   4.441 -0.2730 -0.1718  0.8277
   14SAPS  C316 1853   1.230   4.107   4.501 -0.4874  0.2212 -0.3915
   14SAPS  H16X 1854   1.233   4.001   4.469  0.6560  0.0039  0.3860
   14SAPS  H16Y 1855   1.124   4.122   4.472 -0.6520  0.1287  0.1558
   14SAPS  C317 1856   1.252   4.129   4.653 -0.1798 -0.6871 -0.1416
   14SAPS  H17X 1857   1.213   4.223   4.697  1.4573 -0.4913  0.9921
   14SAPS  H17Y 1858   1.362   4.126   4.672 -0.3366 -1.0147  0.7734
   14SAPS  C318 1859   1.201   4.014   4.743  0.1897  0.3152 -0.6352
   14SAPS  H18X 1860   1.091   4.009   4.752  0.2505  0.6703  0.3796
   14SAPS  H18Y 1861   1.252   3.999   4.841  2.1353  1.1672 -1.4509
   14SAPS  H18Z 1862   1.236   3.925   4.686 -0.9257 -0.8619  0.4527
   15SAPS     N 1863   5.932   3.663   2.083 -0.2543  0.0701 -0.7237
   15SAPS   HN1 1864   5.838   3.637   2.047  0.7111 -0.7301 -2.8341
   15SAPS   HN2 1865   5.979   3.588   2.138  2.1014  2.8318  1.3601
   15SAPS   HN3 1866   5.910   3.733   2.157 -0.8395 -0.3554 -0.4852
   15SAPS   C12 1867   6.013   3.725   1.974 -0.0032  0.5817 -0.6214
   15SAPS  H12A 1868   6.029   3.644   1.903 -0.9956 -0.4538  0.2875
   15SAPS   C13 1869   5.950   3.845   1.900 -1.0308 -0.2230 -0.2037
   15SAPS  O13A 1870   5.827   3.852   1.890 -0.0863  0.4460 -0.2243
   15SAPS  O13B 1871   6.023   3.894   1.808  0.1828  0.0596  0.2113
   15SAPS   C11 1872   6.151   3.768   2.035  0.3418  0.2188  0.5823
   15SAPS  H11A 1873   6.129   3.844   2.113 -0.8007 -0.4687  0.9574
   15SAPS  H11B 1874   6.211   3.814   1.953 -2.8898  3.6423 -0.1129
   15SAPS     P 1875   6.367   3.672   2.148 -0.4911 -0.1725  0.3167
   15SAPS   O13 1876   6.469   3.577   2.087  0.0960 -0.2330  0.5724
   15SAPS   O14 1877   6.412   3.816   2.145 -0.0752 -0.5777  0.3854
   15SAPS   O12 1878   6.225   3.652   2.093  0.5744  0.0031  1.1643
   15SAPS   O11 1879   6.355   3.618   2.292  0.3118  0.2371 -0.6450
   15SAPS    C1 1880   6.290   3.685   2.399  0.4208  0.4390 -0.5520
   15SAPS    HA 1881   6.246   3.786   2.383 -0.5862  0.6299  2.6227
   15SAPS    HB 1882   6.204   3.625   2.437  0.1685  0.9122 -0.3707
   15SAPS    C2 1883   6.385   3.688   2.521 -0.6298 -0.5154  0.8229
   15SAPS    HS 1884   6.400   3.579   2.542 -1.0910 -1.1157 -1.7006
   15SAPS   O21 1885   6.321   3.763   2.619 -0.1816  0.2135 -0.2350
   15SAPS   C21 1886   6.252   3.702   2.716 -0.6286  0.5516 -0.5934
   15SAPS   O22 1887   6.223   3.585   2.718 -0.7881  0.6126  0.0630
   15SAPS   C22 1888   6.220   3.804   2.824 -0.4164 -0.0766 -0.0638
   15SAPS   H2R 1889   6.245   3.909   2.800 -0.5671  0.6534  2.6275
   15SAPS   H2S 1890   6.114   3.798   2.856 -0.1317  0.9786  1.1866
   15SAPS    C3 1891   6.520   3.755   2.471 -0.5335  0.3239 -0.4449
   15SAPS    HX 1892   6.501   3.845   2.409 -0.7346 -0.0277 -0.9040
   15SAPS    HY 1893   6.567   3.673   2.413 -0.3778 -1.8175  2.4817
   15SAPS   O31 1894   6.621   3.795   2.574  0.3113 -0.3341  0.7281
   15SAPS   C31 1895   6.706   3.705   2.604 -0.3064  0.0259 -0.1324
   15SAPS   O32 1896   6.694   3.584   2.592 -0.0221  0.2805  0.6518
   15SAPS   C32 1897   6.827   3.761   2.676 -0.3623 -0.3515 -0.1804
   15SAPS   H2X 1898   6.799   3.867   2.694 -1.0266 -0.9135  2.6386
   15SAPS   H2Y 1899   6.912   3.751   2.605 -0.3021  0.3924 -0.2205
   15SAPS   C23 1900   6.290   3.756   2.950 -0.3876  0.5769 -0.5241
   15SAPS   H3R 1901   6.399   3.750   2.927 -0.4533  0.2649 -0.7511
   15SAPS   H3S 1902   6.252   3.654   2.973 -1.7536  1.4637  1.4669
   15SAPS   C24 1903   6.279   3.848   3.075 -0.6927 -0.3312 -0.2468
   15SAPS   H4R 1904   6.288   3.954   3.043  1.0072  0.3434  2.1818
   15SAPS   H4S 1905   6.358   3.811   3.143 -0.9247 -2.0750 -0.8729
   15SAPS   C25 1906   6.146   3.826   3.141 -1.0171 -0.3838 -0.2942
   15SAPS   H5R 1907   6.110   3.722   3.135 -0.2305 -0.6350 -0.8570
   15SAPS   C26 1908   6.073   3.921   3.207 -0.0988  0.6752  0.5192
   15SAPS   H6R 1909   5.978   3.887   3.250 -0.2838 -0.5351 -0.7518
   15SAPS   C27 1910   6.123   4.065   3.221 -0.3142  0.0293 -1.0762
   15SAPS   H7R 1911   6.121   4.124   3.127  1.1159  0.5665 -0.8079
   15SAPS   H7S 1912   6.229   4.047   3.251 -0.2726 -0.2482 -1.3906
   15SAPS   C28 1913   6.051   4.149   3.327 -0.1853  0.3555  0.2920
   15SAPS   H8R 1914   5.966   4.211   3.296 -0.6365 -1.4920 -2.5569
   15SAPS   C29 1915   6.089   4.148   3.457  0.2415 -0.0580 -0.7322
   15SAPS   H9R 1916   6.035   4.207   3.533 -0.7850 -0.5833 -1.0494
   15SAPS  C210 1917   6.187   4.053   3.526  0.2129  0.2377  0.2943
   15SAPS  H10R 1918   6.240   3.989   3.453  0.2275  0.3556  0.2014
   15SAPS  H10S 1919   6.134   3.979   3.590  1.2908 -1.0661 -0.2689
   15SAPS  C211 1920   6.302   4.105   3.605 -0.3265 -0.5227 -0.4156
   15SAPS  H11R 1921   6.398   4.108   3.553 -0.9672 -0.0249 -1.6085
   15SAPS  C212 1922   6.304   4.148   3.738  0.4109 -0.3329  0.0042
   15SAPS  H12R 1923   6.397   4.185   3.783  1.0985 -0.3298 -1.3794
   15SAPS  C213 1924   6.189   4.142   3.833  0.0967  0.8389  0.1112
   15SAPS  H13R 1925   6.196   4.057   3.904  1.6183  2.3992  1.9516
   15SAPS  H13S 1926   6.095   4.139   3.773  1.1470  1.9973 -1.6818
   15SAPS  C214 1927   6.189   4.267   3.906  0.0011 -0.3230 -0.2447
   15SAPS  H14R 1928   6.162   4.359   3.853  0.4074  1.0011  1.7318
   15SAPS  C215 1929   6.196   4.279   4.041 -0.1526 -0.1843 -0.5124
   15SAPS  H15R 1930   6.188   4.379   4.086  0.6208 -0.7044  0.8642
   15SAPS  C216 1931   6.224   4.177   4.145  0.3474 -0.3357 -0.0650
   15SAPS  H16R 1932   6.318   4.204   4.199 -0.3734  1.4882  0.3247
   15SAPS  H16S 1933   6.253   4.086   4.089 -0.5440  0.8716 -2.6304
   15SAPS  C217 1934   6.114   4.172   4.249  0.4479 -0.4342  0.2434
   15SAPS  H17R 1935   6.145   4.081   4.304  0.0571 -0.1415  0.9657
   15SAPS  H17S 1936   6.015   4.159   4.200  1.0575  0.8461 -1.4312
   15SAPS  C218 1937   6.118   4.276   4.359 -0.5402  0.2353 -0.1297
   15SAPS  H18R 1938   6.120   4.383   4.331  0.9541  0.3861  0.4668
   15SAPS  H18S 1939   6.219   4.264   4.404 -1.6342 -1.5713  2.0011
   15SAPS  C219 1940   6.014   4.249   4.470 -0.3681  0.1272  0.8381
   15SAPS  H19R 1941   6.046   4.304   4.561  0.2292  1.3626 -0.0911
   15SAPS  H19S 1942   6.022   4.142   4.495  0.7414  0.7376  3.4457
   15SAPS  C220 1943   5.863   4.291   4.435  0.2289  0.1276 -0.0640
   15SAPS  H20R 1944   5.801   4.275   4.526  0.7681  0.5278  0.3882
   15SAPS  H20S 1945   5.829   4.218   4.359  0.5165  0.4825 -0.5343
   15SAPS  H20T 1946   5.858   4.398   4.406  2.8499 -0.7507 -4.6399
   15SAPS   C33 1947   6.848   3.707   2.818 -0.5105  0.0943  0.3891
   15SAPS   H3X 1948   6.938   3.755   2.861 -0.4020 -0.0917  0.3737
   15SAPS   H3Y 1949   6.866   3.597   2.823 -0.4799  0.0739 -0.1741
   15SAPS   C34 1950   6.730   3.734   2.912  0.1126 -0.4201 -0.5593
   15SAPS   H4X 1951   6.635   3.677   2.898 -2.0010  2.7993 -0.4148
   15SAPS   H4Y 1952   6.710   3.842   2.901  1.3189 -0.3810 -2.9161
   15SAPS   C35 1953   6.778   3.707   3.059  0.3077 -0.0341  0.2499
   15SAPS   H5X 1954   6.880   3.749   3.065 -0.3099  1.9879 -1.7415
   15SAPS   H5Y 1955   6.778   3.597   3.073  0.2051  0.0765  1.1576
   15SAPS   C36 1956   6.681   3.767   3.165  0.0380  0.1685  0.1342
   15SAPS   H6X 1957   6.579   3.766   3.121  0.1588 -0.0135 -0.1382
   15SAPS   H6Y 1958   6.704   3.875   3.176  0.0751  0.3413 -1.4201
   15SAPS   C37 1959   6.682   3.703   3.308  0.2938  0.0093 -0.6261
   15SAPS   H7X 1960   6.787   3.698   3.346  0.1845  0.7585 -0.2081
   15SAPS   H7Y 1961   6.640   3.600   3.304  2.3726 -0.9351  0.0311
   15SAPS   C38 1962   6.601   3.785   3.412 -0.1217  0.3905  0.6486
   15SAPS   H8X 1963   6.491   3.789   3.402  0.0285  2.5937 -0.7652
   15SAPS   H8Y 1964   6.639   3.888   3.397  0.0759  0.1774 -0.4669
   15SAPS   C39 1965   6.631   3.726   3.550 -0.3951 -0.6968 -0.5169
   15SAPS   H9X 1966   6.740   3.706   3.557 -0.2247  0.1832 -0.5236
   15SAPS   H9Y 1967   6.579   3.632   3.577  1.2421 -1.6300 -0.4975
   15SAPS  C310 1968   6.597   3.838   3.654 -0.0619  0.5993  0.6402
   15SAPS  H10X 1969   6.491   3.868   3.638  0.5680  2.0230 -1.2784
   15SAPS  H10Y 1970   6.661   3.924   3.623  0.6576 -0.0025  0.4432
   15SAPS  C311 1971   6.637   3.805   3.792  0.4731 -0.2994  0.1781
   15SAPS  H11X 1972   6.748   3.793   3.797  0.8581  2.8652  3.2277
   15SAPS  H11Y 1973   6.586   3.709   3.817  0.8103 -0.4037  0.4856
   15SAPS  C312 1974   6.579   3.913   3.889 -0.2651 -0.3318  0.4518
   15SAPS  H12X 1975   6.469   3.932   3.890  0.0661  1.7447  1.2506
   15SAPS  H12Y 1976   6.618   4.009   3.849 -1.8770 -0.7162 -2.3036
   15SAPS  C313 1977   6.614   3.895   4.038 -1.0410 -0.7846 -0.6443
   15SAPS  H13X 1978   6.714   3.850   4.053  0.1728  1.7116 -0.8676
   15SAPS  H13Y 1979   6.534   3.836   4.088 -1.3197  0.6403  0.6380
   15SAPS  C314 1980   6.616   4.028   4.111 -0.3318 -0.5639 -0.0295
   15SAPS  H14X 1981   6.518   4.071   4.083 -0.7323 -1.0817  0.5431
   15SAPS  H14Y 1982   6.694   4.099   4.076 -0.7578 -0.3576 -0.5662
   15SAPS  C315 1983   6.640   4.010   4.267  0.7254  0.4150 -0.2184
   15SAPS  H15X 1984   6.749   3.998   4.284  0.7153 -0.2715 -0.6110
   15SAPS  H15Y 1985   6.598   3.913   4.303  0.5053  0.4711 -0.3252
   15SAPS  C316 1986   6.571   4.119   4.345 -0.0821 -0.2151 -0.1858
   15SAPS  H16X 1987   6.460   4.121   4.343 -0.0810  0.5872  0.1820
   15SAPS  H16Y 1988   6.601   4.220   4.308 -1.1608  0.0184 -0.4549
   15SAPS  C317 1989   6.592   4.118   4.499  0.3700  0.0320 -0.2007
   15SAPS  H17X 1990   6.694   4.084   4.529 -0.7669 -2.5523  0.9977
   15SAPS  H17Y 1991   6.531   4.036   4.542  1.9070 -0.9373  0.2464
   15SAPS  C318 1992   6.554   4.251   4.557 -0.0985 -0.2475  0.4534
   15SAPS  H18X 1993   6.449   4.265   4.521  0.2620 -1.5925 -1.2924
   15SAPS  H18Y 1994   6.609   4.332   4.505 -2.0245 -0.4702 -2.1782
   15SAPS  H18Z 1995   6.554   4.270   4.666 -0.8229 -1.5854  0.7170
   16SAPS     N 1996   0.156   5.638   2.184 -0.4981  0.1108  0.4481
   16SAPS   HN1 1997   0.067   5.682   2.213  0.5691  1.8696  1.2343
   16SAPS   HN2 1998   0.151   5.548   2.133  1.0330  0.8755 -1.1644
   16SAPS   HN3 1999   0.207   5.624   2.274  0.8949 -1.3920 -0.5178
   16SAPS   C12 2000   0.247   5.735   2.106 -0.5270 -0.0803 -0.2591
   16SAPS  H12A 2001   0.345   5.694   2.086  0.3793  0.6691  2.2225
   16SAPS   C13 2002   0.177   5.799   1.983 -0.0830 -0.1064  0.2770
   16SAPS  O13A 2003   0.062   5.761   1.955  1.1169 -0.4718  0.3453
   16SAPS  O13B 2004   0.238   5.870   1.899 -0.3162  0.1754  0.1547
   16SAPS   C11 2005   0.281   5.850   2.201  0.4966 -0.2580  0.3580
   16SAPS  H11A 2006   0.186   5.901   2.230  0.7059  1.3945 -1.6736
   16SAPS  H11B 2007   0.336   5.928   2.146  0.6774 -0.0483  0.8260
   16SAPS     P 2008   0.506   5.783   2.298  0.0006  0.1375  0.2461
   16SAPS   O13 2009   0.526   5.638   2.293  0.2080  0.1760  0.0095
   16SAPS   O14 2010   0.559   5.859   2.183 -0.0461  0.4170  0.2677
   16SAPS   O12 2011   0.352   5.809   2.321  0.1685 -0.1408 -0.2535
   16SAPS   O11 2012   0.572   5.829   2.435 -0.5754 -0.0257  0.4418
   16SAPS    C1 2013   0.711   5.787   2.467 -1.0678 -1.3166 -0.0361
   16SAPS    HA 2014   0.752   5.691   2.428  3.0762 -0.0302  0.6161
   16SAPS    HB 2015   0.778   5.867   2.427 -2.2720 -0.2823 -0.0331
   16SAPS    C2 2016   0.730   5.793   2.620 -0.5182 -0.1868 -0.1523
   16SAPS    HS 2017   0.838   5.807   2.640 -0.1617 -0.2559 -1.8809
   16SAPS   O21 2018   0.684   5.680   2.694 -0.3616  0.2733 -0.2633
   16SAPS   C21 2019   0.771   5.574   2.699  0.2698 -0.3041 -0.4443
   16SAPS   O22 2020   0.874   5.559   2.642  0.6118  0.3398  0.8477
   16SAPS   C22 2021   0.736   5.482   2.820  0.4271 -0.0523  0.2874
   16SAPS   H2R 2022   0.640   5.526   2.854 -0.0925  1.1853 -2.4820
   16SAPS   H2S 2023   0.714   5.380   2.781 -0.5656  0.8427 -1.6757
   16SAPS    C3 2024   0.655   5.911   2.686 -0.3476 -0.0206  0.3546
   16SAPS    HX 2025   0.548   5.889   2.664  0.1046  0.3394 -2.7107
   16SAPS    HY 2026   0.684   6.000   2.626 -2.6378  1.1834  0.8971
   16SAPS   O31 2027   0.681   5.924   2.831  0.0231  0.1178 -0.8306
   16SAPS   C31 2028   0.787   6.006   2.855  0.0906  0.0399 -0.0151
   16SAPS   O32 2029   0.875   6.038   2.775  0.3264  0.7067  0.1322
   16SAPS   C32 2030   0.774   6.046   2.998 -0.4916  0.1019  0.0129
   16SAPS   H2X 2031   0.824   5.966   3.058 -0.0502  0.3510 -0.0219
   16SAPS   H2Y 2032   0.665   6.047   3.021 -0.6785 -1.2415 -0.6690
   16SAPS   C23 2033   0.838   5.471   2.936  0.2972  0.5167 -0.3050
   16SAPS   H3R 2034   0.942   5.443   2.910 -0.1051 -1.3465 -0.0065
   16SAPS   H3S 2035   0.806   5.404   3.018 -0.5353 -1.7169 -2.3504
   16SAPS   C24 2036   0.852   5.603   3.003 -0.0689  0.4077  0.0243
   16SAPS   H4R 2037   0.881   5.687   2.936 -0.9232  0.9370  0.2982
   16SAPS   H4S 2038   0.928   5.595   3.083  0.2468  0.9215 -0.2190
   16SAPS   C25 2039   0.732   5.669   3.069 -0.1375 -0.0126 -0.5686
   16SAPS   H5R 2040   0.659   5.704   2.995  1.5215  2.6554 -1.0722
   16SAPS   C26 2041   0.706   5.681   3.204 -0.1106 -0.5457  0.3271
   16SAPS   H6R 2042   0.606   5.717   3.234 -0.3564 -1.0724  0.1544
   16SAPS   C27 2043   0.801   5.651   3.320  0.1547  0.0436  0.0481
   16SAPS   H7R 2044   0.906   5.643   3.282  0.9059  1.4683  1.7264
   16SAPS   H7S 2045   0.774   5.556   3.371 -0.2296 -0.6311 -1.3430
   16SAPS   C28 2046   0.808   5.765   3.418 -0.6269 -0.5332  0.6529
   16SAPS   H8R 2047   0.770   5.858   3.373  0.0300 -0.1103  0.9396
   16SAPS   C29 2048   0.861   5.770   3.543  0.5853  0.0678 -0.4121
   16SAPS   H9R 2049   0.867   5.868   3.593  1.6296 -0.5087  0.6470
   16SAPS  C210 2050   0.904   5.650   3.620 -0.1734 -0.6098  0.7115
   16SAPS  H10R 2051   0.932   5.562   3.558  1.3453  0.6697 -0.4919
   16SAPS  H10S 2052   0.830   5.606   3.690 -0.0703 -1.2500  0.4317
   16SAPS  C211 2053   1.022   5.684   3.714  0.0865  0.2930 -0.3521
   16SAPS  H11R 2054   1.108   5.719   3.655  0.8610 -0.9752 -0.0158
   16SAPS  C212 2055   1.030   5.689   3.847  0.0336 -0.0418 -0.1172
   16SAPS  H12R 2056   1.127   5.716   3.890  1.7262 -0.0496 -3.6084
   16SAPS  C213 2057   0.915   5.646   3.936  0.9950  0.1983  0.5110
   16SAPS  H13R 2058   0.926   5.539   3.963  0.6195 -0.5835 -2.1611
   16SAPS  H13S 2059   0.815   5.647   3.889  1.2969 -1.5114 -0.2172
   16SAPS  C214 2060   0.912   5.737   4.052  0.3597 -0.1411  0.2049
   16SAPS  H14R 2061   0.836   5.815   4.034 -1.8108 -1.6798  2.0739
   16SAPS  C215 2062   0.955   5.715   4.179  1.0304  0.0880  0.3545
   16SAPS  H15R 2063   0.935   5.787   4.260 -0.8884 -1.4873  1.3732
   16SAPS  C216 2064   1.043   5.600   4.222  0.0636  0.4072 -0.0301
   16SAPS  H16R 2065   1.073   5.545   4.130  0.0487  0.6910 -0.2085
   16SAPS  H16S 2066   0.986   5.535   4.291  3.0226 -0.5565  1.6906
   16SAPS  C217 2067   1.172   5.641   4.301  0.1855  0.0635  0.3270
   16SAPS  H17R 2068   1.133   5.680   4.398 -1.0141 -1.0167  0.3109
   16SAPS  H17S 2069   1.221   5.716   4.235  1.4210 -0.6086  0.4481
   16SAPS  C218 2070   1.262   5.523   4.324 -0.1995  0.4671 -0.2082
   16SAPS  H18R 2071   1.321   5.485   4.238  0.6591 -0.3750  0.7254
   16SAPS  H18S 2072   1.201   5.433   4.345  1.0446 -0.3193  0.1618
   16SAPS  C219 2073   1.363   5.541   4.441  0.1691  0.0318 -0.6099
   16SAPS  H19R 2074   1.296   5.549   4.529 -2.5368 -1.9696 -2.3102
   16SAPS  H19S 2075   1.432   5.627   4.431 -2.4772  2.2278 -1.0640
   16SAPS  C220 2076   1.459   5.419   4.448 -0.2402  0.5831 -0.5695
   16SAPS  H20R 2077   1.528   5.404   4.361  0.1276  2.3129 -0.6031
   16SAPS  H20S 2078   1.384   5.338   4.462  0.0531  0.1459 -1.4351
   16SAPS  H20T 2079   1.527   5.439   4.533 -1.0051  2.0706 -0.2904
   16SAPS   C33 2080   0.852   6.172   3.041  0.1176 -0.1589  0.5169
   16SAPS   H3X 2081   0.806   6.263   2.997  0.0914 -1.0016 -1.2942
   16SAPS   H3Y 2082   0.953   6.163   2.996  0.4473  1.6927  0.8020
   16SAPS   C34 2083   0.866   6.191   3.192  0.3774 -0.1067 -0.1387
   16SAPS   H4X 2084   0.941   6.269   3.221  0.6190  0.0692 -1.2029
   16SAPS   H4Y 2085   0.879   6.100   3.255  1.6078  2.1308  3.1195
   16SAPS   C35 2086   0.738   6.238   3.256  0.1483 -0.4768  0.6386
   16SAPS   H5X 2087   0.647   6.175   3.251 -0.5662  0.5943 -0.3207
   16SAPS   H5Y 2088   0.712   6.336   3.211 -0.4152 -0.1861  1.5712
   16SAPS   C36 2089   0.753   6.255   3.405 -0.3900 -0.4729  0.0580
   16SAPS   H6X 2090   0.652   6.294   3.429  0.5679  1.9577  0.4060
   16SAPS   H6Y 2091   0.825   6.338   3.420 -1.9064  1.0268 -0.5563
   16SAPS   C37 2092   0.794   6.140   3.496  0.3160 -0.3645  0.0458
   16SAPS   H7X 2093   0.900   6.118   3.469  0.3107  0.8376 -1.0758
   16SAPS   H7Y 2094   0.718   6.060   3.487  0.0720 -0.2764  1.2104
   16SAPS   C38 2095   0.815   6.180   3.643 -0.6551 -0.4254  0.3568
   16SAPS   H8X 2096   0.715   6.207   3.685 -0.5324 -0.8583  0.9493
   16SAPS   H8Y 2097   0.881   6.268   3.651  1.3960 -1.8869  0.2530
   16SAPS   C39 2098   0.863   6.069   3.753 -0.0056 -0.0680 -0.0674
   16SAPS   H9X 2099   0.964   6.030   3.727  0.0878  0.4361 -0.4912
   16SAPS   H9Y 2100   0.789   5.986   3.748 -1.7479  1.4377 -0.5343
   16SAPS  C310 2101   0.872   6.112   3.899  0.2468 -0.0364 -0.4308
   16SAPS  H10X 2102   0.937   6.202   3.905 -2.0666  1.7407 -0.5157
   16SAPS  H10Y 2103   0.916   6.033   3.963 -0.3285 -1.3239 -1.5741
   16SAPS  C311 2104   0.733   6.143   3.958 -0.3656 -0.1642  0.8902
   16SAPS  H11X 2105   0.671   6.051   3.950 -1.8298  0.6522  2.2603
   16SAPS  H11Y 2106   0.692   6.213   3.883  1.4809 -0.7100 -0.7218
   16SAPS  C312 2107   0.737   6.199   4.095  0.6362 -0.1216 -0.0840
   16SAPS  H12X 2108   0.632   6.198   4.129  0.2478 -1.9899 -1.1938
   16SAPS  H12Y 2109   0.786   6.298   4.095  3.0595 -1.2370 -1.0124
   16SAPS  C313 2110   0.808   6.104   4.195 -0.1302  0.8033 -0.1530
   16SAPS  H13X 2111   0.808   5.998   4.161  1.3220 -0.2333  2.7136
   16SAPS  H13Y 2112   0.756   6.088   4.292  0.1376  0.0366 -0.1333
   16SAPS  C314 2113   0.949   6.150   4.252  0.2578  0.5011 -0.0074
   16SAPS  H14X 2114   0.924   6.251   4.292  0.5210  0.7634 -0.4926
   16SAPS  H14Y 2115   1.006   6.168   4.158 -2.5861  0.3004 -1.8924
   16SAPS  C315 2116   1.017   6.064   4.355 -0.3218  0.5300 -0.4404
   16SAPS  H15X 2117   1.059   5.971   4.312 -0.4299 -0.4078  1.4015
   16SAPS  H15Y 2118   0.948   6.034   4.437  1.0083  0.0929  0.5643
   16SAPS  C316 2119   1.128   6.138   4.432 -0.3204  0.1215 -0.6524
   16SAPS  H16X 2120   1.085   6.226   4.484 -1.5763 -0.7597 -0.1429
   16SAPS  H16Y 2121   1.205   6.179   4.363 -0.6160 -0.0067 -1.0602
   16SAPS  C317 2122   1.199   6.047   4.537 -0.1448  0.2407 -0.5406
   16SAPS  H17X 2123   1.307   6.072   4.538 -0.1461  0.2647  1.2246
   16SAPS  H17Y 2124   1.194   5.943   4.497 -0.3358  0.6817 -1.6940
   16SAPS  C318 2125   1.145   6.055   4.681  0.3709 -0.5919  0.8190
   16SAPS  H18X 2126   1.036   6.075   4.684  0.0285 -2.3626  1.2779
   16SAPS  H18Y 2127   1.190   6.136   4.742 -0.0779 -0.0543  0.4441
   16SAPS  H18Z 2128   1.164   5.962   4.739 -0.2683  0.1957  2.3584
   17SAPS     N 2129   4.237   2.034   1.617  0.2209  0.7188 -0.0905
   17SAPS   HN1 2130   4.333   1.995   1.601  0.0660  0.7983 -1.2610
   17SAPS   HN2 2131   4.156   1.979   1.583  1.6635 -0.5487 -1.6340
   17SAPS   HN3 2132   4.234   2.120   1.559 -0.8319 -1.3411 -3.3682
   17SAPS   C12 2133   4.207   2.061   1.768  0.7332 -0.1773  0.0447
   17SAPS  H12A 2134   4.104   2.094   1.769  0.4280 -1.0749  2.3678
   17SAPS   C13 2135   4.209   1.946   1.866 -0.1559  0.6427  0.6726
   17SAPS  O13A 2136   4.237   1.830   1.818  0.7089  0.4726  0.4610
   17SAPS  O13B 2137   4.202   1.966   1.988  0.2656 -0.7841  0.1612
   17SAPS   C11 2138   4.304   2.181   1.823  0.7573  0.4798 -0.9128
   17SAPS  H11A 2139   4.405   2.143   1.849 -0.5032 -0.0329  4.1891
   17SAPS  H11B 2140   4.271   2.191   1.928 -0.7821 -2.5102 -1.0084
   17SAPS     P 2141   4.195   2.416   1.784  0.3893 -0.1131 -0.2676
   17SAPS   O13 2142   4.232   2.549   1.732  0.3334  0.1641 -0.1429
   17SAPS   O14 2143   4.063   2.362   1.742  0.3467 -0.0258  0.3083
   17SAPS   O12 2144   4.304   2.307   1.749  0.5328 -0.2785 -0.3463
   17SAPS   O11 2145   4.187   2.409   1.939 -0.5107 -0.5401  0.6857
   17SAPS    C1 2146   4.256   2.513   2.015  0.2128 -0.1340 -0.5642
   17SAPS    HA 2147   4.360   2.479   2.030 -0.1709 -1.4348 -0.7037
   17SAPS    HB 2148   4.250   2.619   1.982 -4.3807  0.6417  1.8888
   17SAPS    C2 2149   4.181   2.535   2.157 -0.2432  0.4543 -0.2420
   17SAPS    HS 2150   4.247   2.599   2.219  0.0584  0.3161 -0.4198
   17SAPS   O21 2151   4.148   2.413   2.226 -0.0178 -0.5185  0.1364
   17SAPS   C21 2152   4.260   2.350   2.266  0.5926 -0.6779  0.2548
   17SAPS   O22 2153   4.372   2.398   2.254 -0.0780 -0.1581  0.3271
   17SAPS   C22 2154   4.222   2.216   2.330  0.2630 -0.1511 -0.1159
   17SAPS   H2R 2155   4.120   2.201   2.288  0.2048  1.4248 -0.6253
   17SAPS   H2S 2156   4.293   2.148   2.278  0.0359 -0.6992  0.2892
   17SAPS    C3 2157   4.049   2.613   2.137 -0.4365  0.2650  0.4295
   17SAPS    HX 2158   3.978   2.560   2.070 -0.0785  0.3725 -0.0413
   17SAPS    HY 2159   4.074   2.713   2.097 -0.4182  1.5553  3.3991
   17SAPS   O31 2160   3.991   2.645   2.269  0.1769 -0.1468  0.7532
   17SAPS   C31 2161   3.905   2.548   2.314  0.2907 -0.6645  0.1411
   17SAPS   O32 2162   3.854   2.463   2.244 -0.3592 -0.1883  0.0885
   17SAPS   C32 2163   3.897   2.575   2.467  0.4324 -0.2077  1.2756
   17SAPS   H2X 2164   3.797   2.548   2.508  1.0916  1.3372  4.1460
   17SAPS   H2Y 2165   3.905   2.685   2.483  2.0728  0.3116 -2.1922
   17SAPS   C23 2166   4.226   2.209   2.487 -0.5190 -0.0588 -0.7715
   17SAPS   H3R 2167   4.190   2.300   2.539  1.1657  0.5840 -0.6437
   17SAPS   H3S 2168   4.328   2.203   2.533  0.0248  1.6880 -1.6597
   17SAPS   C24 2169   4.155   2.085   2.545  0.5052  0.1278  1.3218
   17SAPS   H4R 2170   4.053   2.129   2.551  0.5858  0.5672 -0.1408
   17SAPS   H4S 2171   4.199   2.054   2.641  0.4857  0.5316  1.4639
   17SAPS   C25 2172   4.149   1.965   2.461 -0.1991 -0.3864  0.0650
   17SAPS   H5R 2173   4.094   1.983   2.367 -1.4024 -2.0704  0.4062
   17SAPS   C26 2174   4.214   1.843   2.479  0.9715 -1.1848 -0.2340
   17SAPS   H6R 2175   4.194   1.761   2.408 -1.7058 -2.8371  2.1702
   17SAPS   C27 2176   4.292   1.807   2.602  0.2647 -0.3920 -0.4233
   17SAPS   H7R 2177   4.276   1.885   2.680 -2.1184 -0.1209 -1.0953
   17SAPS   H7S 2178   4.401   1.800   2.580  0.6222 -0.9529  1.3620
   17SAPS   C28 2179   4.242   1.677   2.664  0.1893 -0.2731 -0.0998
   17SAPS   H8R 2180   4.167   1.624   2.604 -1.1013  0.5278  0.7648
   17SAPS   C29 2181   4.296   1.604   2.771 -0.3905 -0.4788 -0.0412
   17SAPS   H9R 2182   4.248   1.511   2.805 -1.2860 -0.8135 -2.0544
   17SAPS  C210 2183   4.420   1.646   2.839  0.3861 -0.3757  0.0054
   17SAPS  H10R 2184   4.387   1.712   2.922 -1.8621 -1.7983  0.3275
   17SAPS  H10S 2185   4.489   1.710   2.780 -0.3196  1.2330  0.8415
   17SAPS  C211 2186   4.496   1.527   2.893 -0.2302  0.3459  0.1903
   17SAPS  H11R 2187   4.567   1.488   2.818  1.5610 -0.7820  2.3489
   17SAPS  C212 2188   4.494   1.473   3.021 -0.7712  0.9147  0.0819
   17SAPS  H12R 2189   4.554   1.381   3.031 -1.1316  0.4435 -1.7191
   17SAPS  C213 2190   4.418   1.526   3.136 -0.7742  0.0549 -0.0771
   17SAPS  H13R 2191   4.328   1.581   3.102 -1.7739  1.0446  3.7099
   17SAPS  H13S 2192   4.477   1.610   3.179 -1.6792 -0.0260  1.4007
   17SAPS  C214 2193   4.372   1.421   3.236 -0.0357 -0.3099  0.0075
   17SAPS  H14R 2194   4.283   1.361   3.209  0.6833 -0.9558 -0.9820
   17SAPS  C215 2195   4.428   1.396   3.358  0.5097  0.0846  0.1545
   17SAPS  H15R 2196   4.377   1.326   3.426 -1.0059 -0.1985 -1.2276
   17SAPS  C216 2197   4.531   1.471   3.425 -0.3056 -0.7120  0.3556
   17SAPS  H16R 2198   4.566   1.553   3.359  0.5970 -0.3356  1.2821
   17SAPS  H16S 2199   4.616   1.401   3.440  0.1961 -0.7548 -2.2921
   17SAPS  C217 2200   4.491   1.535   3.559  0.5470  0.7884  0.1216
   17SAPS  H17R 2201   4.397   1.593   3.551 -0.3866 -0.0117  3.8013
   17SAPS  H17S 2202   4.576   1.601   3.586  1.2575  0.3061 -0.8403
   17SAPS  C218 2203   4.488   1.425   3.672 -0.1384 -0.1293  0.0756
   17SAPS  H18R 2204   4.580   1.365   3.684  0.3994  0.8381  0.9886
   17SAPS  H18S 2205   4.409   1.352   3.647 -0.4024  0.5768 -1.2570
   17SAPS  C219 2206   4.456   1.479   3.816 -0.1230 -0.4231 -0.3196
   17SAPS  H19R 2207   4.365   1.539   3.794  0.9346  1.9742  1.3824
   17SAPS  H19S 2208   4.524   1.554   3.862  1.1967 -0.1876 -2.5112
   17SAPS  C220 2209   4.417   1.369   3.920  0.6505 -0.0330 -0.2184
   17SAPS  H20R 2210   4.320   1.320   3.896  1.8033 -1.9478 -1.1524
   17SAPS  H20S 2211   4.392   1.416   4.018  0.8555 -0.9418  0.2840
   17SAPS  H20T 2212   4.490   1.287   3.937  1.0813  0.3272 -0.3159
   17SAPS   C33 2213   3.989   2.477   2.546 -0.2696 -0.1915 -0.4420
   17SAPS   H3X 2214   4.089   2.491   2.501 -0.0965  1.4972  0.3772
   17SAPS   H3Y 2215   3.950   2.375   2.526 -2.8130  0.7014 -0.3309
   17SAPS   C34 2216   3.978   2.508   2.696 -0.1619 -0.4875  1.0969
   17SAPS   H4X 2217   3.869   2.502   2.715 -0.8399  2.7733 -0.9158
   17SAPS   H4Y 2218   4.007   2.612   2.722 -1.0004  0.6731 -2.1574
   17SAPS   C35 2219   4.050   2.407   2.779 -0.1801 -0.4045  0.1950
   17SAPS   H5X 2220   4.160   2.418   2.762 -0.2112 -1.3621 -0.7359
   17SAPS   H5Y 2221   4.015   2.306   2.750 -0.3631 -0.2065 -0.2793
   17SAPS   C36 2222   4.022   2.432   2.929  0.4849  0.0743  0.1495
   17SAPS   H6X 2223   3.915   2.421   2.954 -0.3072  1.4216 -2.2576
   17SAPS   H6Y 2224   4.051   2.538   2.950  1.5094 -0.0509 -0.5410
   17SAPS   C37 2225   4.095   2.337   3.017 -0.5536  0.1301  0.6392
   17SAPS   H7X 2226   4.202   2.361   2.999 -0.4391  1.2965  2.6492
   17SAPS   H7Y 2227   4.073   2.233   2.985  0.3161 -0.6991  2.5697
   17SAPS   C38 2228   4.068   2.341   3.170  0.0822 -0.4363  0.0853
   17SAPS   H8X 2229   3.975   2.282   3.182 -1.1088  1.4945  0.7056
   17SAPS   H8Y 2230   4.045   2.446   3.197  0.5421 -0.5286  0.8706
   17SAPS   C39 2231   4.181   2.263   3.240 -0.1755 -0.4846 -0.0558
   17SAPS   H9X 2232   4.259   2.342   3.248 -0.3867 -0.3369  0.6853
   17SAPS   H9Y 2233   4.208   2.178   3.175 -1.2185  0.5855 -1.9747
   17SAPS  C310 2234   4.134   2.225   3.380 -0.7766 -0.3021 -0.1338
   17SAPS  H10X 2235   4.222   2.180   3.432 -2.1803 -3.9724 -0.6947
   17SAPS  H10Y 2236   4.053   2.150   3.371  1.1390 -2.5035  0.0482
   17SAPS  C311 2237   4.089   2.338   3.462  0.0634  0.0384  0.5069
   17SAPS  H11X 2238   4.006   2.394   3.415  0.4025  1.2242  1.2604
   17SAPS  H11Y 2239   4.173   2.410   3.455  0.2581 -0.3676 -4.4454
   17SAPS  C312 2240   4.051   2.309   3.607  0.1548 -0.0260  0.0425
   17SAPS  H12X 2241   4.137   2.259   3.655 -0.5554 -0.4469  0.9100
   17SAPS  H12Y 2242   3.960   2.245   3.606  0.8275 -1.0392  0.9232
   17SAPS  C313 2243   4.023   2.443   3.685  0.6001  0.2985 -0.6401
   17SAPS  H13X 2244   3.967   2.510   3.616  0.4524  0.4671 -0.3568
   17SAPS  H13Y 2245   4.124   2.481   3.711  2.1345 -3.4427 -0.5023
   17SAPS  C314 2246   3.964   2.415   3.822  0.0586  0.0316  0.3702
   17SAPS  H14X 2247   3.853   2.403   3.818  0.2117 -1.8878  0.7240
   17SAPS  H14Y 2248   3.984   2.514   3.867 -0.4554  0.5892 -0.6072
   17SAPS  C315 2249   4.038   2.305   3.897  1.2467  0.0861 -0.0737
   17SAPS  H15X 2250   4.144   2.304   3.862  1.7561  0.3603  1.3761
   17SAPS  H15Y 2251   3.995   2.206   3.870 -0.9687  0.5324  1.5661
   17SAPS  C316 2252   4.031   2.311   4.048  0.7761  0.5484  0.4623
   17SAPS  H16X 2253   3.922   2.310   4.069  0.2122 -1.1000 -2.0586
   17SAPS  H16Y 2254   4.075   2.403   4.093  2.2080 -0.0108  0.2480
   17SAPS  C317 2255   4.079   2.194   4.129 -0.3537  0.0329  0.0404
   17SAPS  H17X 2256   4.029   2.100   4.097  2.0372 -1.6886  0.9976
   17SAPS  H17Y 2257   4.050   2.202   4.236 -0.8454 -1.1228  0.0062
   17SAPS  C318 2258   4.230   2.168   4.127 -0.3978 -0.4402  0.8276
   17SAPS  H18X 2259   4.273   2.264   4.162 -1.3149  1.3081 -2.4100
   17SAPS  H18Y 2260   4.277   2.165   4.026  0.6499  2.4806  1.1304
   17SAPS  H18Z 2261   4.250   2.075   4.185 -3.2911 -3.4568 -2.5490
   18SAPS     N 2262   1.605   4.160   2.226  0.9018  0.3892  0.5970
   18SAPS   HN1 2263   1.648   4.254   2.221 -1.0481  1.3289  0.8940
   18SAPS   HN2 2264   1.537   4.167   2.304 -0.2352  2.6639 -0.5030
   18SAPS   HN3 2265   1.671   4.089   2.264 -0.9204  0.2366  3.8326
   18SAPS   C12 2266   1.552   4.124   2.085 -0.3581  0.6934 -0.0344
   18SAPS  H12A 2267   1.474   4.197   2.065 -1.3764 -0.6384 -1.1581
   18SAPS   C13 2268   1.653   4.147   1.974  0.0624  0.3805  0.4065
   18SAPS  O13A 2269   1.772   4.180   2.000  0.3255 -0.0706 -0.3603
   18SAPS  O13B 2270   1.606   4.149   1.861  0.6348 -0.2190 -0.7548
   18SAPS   C11 2271   1.504   3.969   2.086  0.0482  0.2124  0.7292
   18SAPS  H11A 2272   1.595   3.905   2.088  0.9400  1.3936 -0.0084
   18SAPS  H11B 2273   1.451   3.956   1.989 -0.3090 -0.4581  1.0075
   18SAPS     P 2274   1.285   3.871   2.167 -0.1264 -0.3959  0.0510
   18SAPS   O13 2275   1.196   3.968   2.098 -0.1260  0.5968  0.0575
   18SAPS   O14 2276   1.317   3.745   2.097 -0.3279 -0.3333 -0.2186
   18SAPS   O12 2277   1.421   3.937   2.194  0.3726  0.7020  0.5253
   18SAPS   O11 2278   1.235   3.845   2.317  0.1123  0.2848 -0.1037
   18SAPS    C1 2279   1.279   3.933   2.421 -1.1761  0.3431 -0.9006
   18SAPS    HA 2280   1.390   3.936   2.429 -1.3217  2.8975  1.2958
   18SAPS    HB 2281   1.243   4.036   2.406  0.3643  0.9831 -0.4249
   18SAPS    C2 2282   1.232   3.894   2.563  0.5849 -0.7888 -0.1852
   18SAPS    HS 2283   1.122   3.907   2.562  0.3249 -2.1800  2.1731
   18SAPS   O21 2284   1.290   3.972   2.668 -0.0620  0.0320 -0.7837
   18SAPS   C21 2285   1.221   4.000   2.771 -0.2908  0.6324 -0.3217
   18SAPS   O22 2286   1.099   3.982   2.780  1.0008  1.1047  0.4500
   18SAPS   C22 2287   1.316   4.049   2.876 -0.4247 -0.2610  0.1128
   18SAPS   H2R 2288   1.389   3.967   2.895 -0.3324 -0.0379  0.7530
   18SAPS   H2S 2289   1.377   4.133   2.836  0.0570 -0.6455  0.0199
   18SAPS    C3 2290   1.247   3.740   2.602  0.1684 -0.3177  0.0918
   18SAPS    HX 2291   1.353   3.709   2.620  0.8116 -0.2771 -3.0886
   18SAPS    HY 2292   1.221   3.670   2.520  1.5425 -1.3557  0.5002
   18SAPS   O31 2293   1.172   3.719   2.725  0.2359 -0.1394 -0.0774
   18SAPS   C31 2294   1.035   3.711   2.713  0.2466 -0.0473  0.2171
   18SAPS   O32 2295   0.974   3.707   2.605  0.5515 -0.2915 -0.3555
   18SAPS   C32 2296   0.959   3.713   2.845 -0.2848  0.0934  0.0042
   18SAPS   H2X 2297   0.896   3.622   2.857 -0.6840  0.6045  2.3872
   18SAPS   H2Y 2298   0.893   3.802   2.832 -1.5321 -0.9504 -1.1443
   18SAPS   C23 2299   1.244   4.082   3.006  0.0498 -0.9848 -0.3854
   18SAPS   H3R 2300   1.202   4.000   3.069 -3.3313  0.0206 -1.1358
   18SAPS   H3S 2301   1.156   4.139   2.970  0.5613 -0.2186 -0.4428
   18SAPS   C24 2302   1.328   4.182   3.090  0.5927  0.2034 -0.0926
   18SAPS   H4R 2303   1.371   4.252   3.016  1.9437  0.0556  0.5245
   18SAPS   H4S 2304   1.415   4.125   3.129  1.0622  0.5780 -0.5841
   18SAPS   C25 2305   1.240   4.243   3.195 -0.0458 -1.0177  0.7342
   18SAPS   H5R 2306   1.178   4.326   3.158  1.3939 -1.3646 -2.8577
   18SAPS   C26 2307   1.220   4.199   3.326 -0.7043 -0.2985 -0.1270
   18SAPS   H6R 2308   1.152   4.259   3.388  0.8837  2.0522 -0.5497
   18SAPS   C27 2309   1.276   4.068   3.380 -0.7444 -0.1550 -0.5736
   18SAPS   H7R 2310   1.288   3.996   3.296  0.4612  0.1117 -0.6513
   18SAPS   H7S 2311   1.217   4.021   3.461  1.3517 -0.7414  0.6958
   18SAPS   C28 2312   1.414   4.094   3.437  0.1746  0.6264 -0.1603
   18SAPS   H8R 2313   1.489   4.100   3.357 -0.9109  2.9890 -1.0984
   18SAPS   C29 2314   1.458   4.116   3.560  0.4967  0.3165 -0.3487
   18SAPS   H9R 2315   1.568   4.115   3.557  0.5008 -1.3743 -3.0130
   18SAPS  C210 2316   1.390   4.112   3.695  0.5530  0.0419  0.4423
   18SAPS  H10R 2317   1.405   4.011   3.739  0.0339 -0.0722  0.3689
   18SAPS  H10S 2318   1.280   4.128   3.690  0.8365  1.8369 -0.8048
   18SAPS  C211 2319   1.453   4.225   3.780  0.0221 -0.4420 -0.0418
   18SAPS  H11R 2320   1.438   4.326   3.739 -0.4986  0.6057  2.5165
   18SAPS  C212 2321   1.511   4.210   3.897 -0.3482 -0.1585 -0.2203
   18SAPS  H12R 2322   1.535   4.302   3.952 -0.3016 -0.2000 -0.1704
   18SAPS  C213 2323   1.537   4.080   3.963  0.5795 -0.3984  0.2744
   18SAPS  H13R 2324   1.462   4.007   3.926  0.5138  0.9344 -2.4504
   18SAPS  H13S 2325   1.509   4.083   4.071 -1.8221 -2.2730 -0.2102
   18SAPS  C214 2326   1.678   4.023   3.932  0.4364  1.0506 -0.6129
   18SAPS  H14R 2327   1.719   4.054   3.835 -1.2219  0.2277 -1.6161
   18SAPS  C215 2328   1.758   3.950   4.009  0.4137  0.3472 -0.1542
   18SAPS  H15R 2329   1.851   3.918   3.961 -0.7621  2.7025 -4.4777
   18SAPS  C216 2330   1.719   3.889   4.146  0.4579 -0.1442  0.3992
   18SAPS  H16R 2331   1.733   3.779   4.135 -1.1078 -0.3350  0.1357
   18SAPS  H16S 2332   1.614   3.913   4.173 -0.5896 -2.3687 -1.3592
   18SAPS  C217 2333   1.816   3.946   4.253  0.4844  0.0846  0.0626
   18SAPS  H17R 2334   1.797   4.055   4.270  0.4263  0.1126 -0.1816
   18SAPS  H17S 2335   1.924   3.934   4.230  0.7255 -0.1683  1.2405
   18SAPS  C218 2336   1.790   3.862   4.379  0.2287  0.2162  0.4974
   18SAPS  H18R 2337   1.824   3.757   4.362 -0.5950 -0.1622  1.0853
   18SAPS  H18S 2338   1.680   3.846   4.383 -0.2237  2.2259 -1.9299
   18SAPS  C219 2339   1.842   3.924   4.507 -0.1657 -0.2400 -0.6475
   18SAPS  H19R 2340   1.770   3.921   4.592  0.8923  3.4943  0.5988
   18SAPS  H19S 2341   1.846   4.035   4.501  1.9782 -0.1401  1.2364
   18SAPS  C220 2342   1.968   3.861   4.563  0.2876  0.2699 -0.1397
   18SAPS  H20R 2343   1.992   3.873   4.671 -1.3256 -0.6568  0.3665
   18SAPS  H20S 2344   2.058   3.877   4.501  0.7894 -3.3980 -0.5686
   18SAPS  H20T 2345   1.955   3.750   4.566  2.2698 -0.0411  3.5310
   18SAPS   C33 2346   1.050   3.712   2.973  0.2168 -0.3869  0.1253
   18SAPS   H3X 2347   1.089   3.815   2.981  1.4930 -0.8797  0.5282
   18SAPS   H3Y 2348   1.129   3.634   2.964  0.7280  0.2950 -1.6232
   18SAPS   C34 2349   0.973   3.706   3.111 -0.5480  0.0858  1.0306
   18SAPS   H4X 2350   0.918   3.610   3.115  0.1853 -0.3672  0.3489
   18SAPS   H4Y 2351   0.902   3.792   3.106  0.6852  1.0566 -1.7041
   18SAPS   C35 2352   1.076   3.716   3.225  0.4283 -0.1278 -0.0065
   18SAPS   H5X 2353   1.132   3.809   3.205 -0.6554  0.2041 -1.7040
   18SAPS   H5Y 2354   1.143   3.628   3.214  1.0875  0.4048 -0.2660
   18SAPS   C36 2355   1.027   3.721   3.365 -1.2510  0.0073 -0.1215
   18SAPS   H6X 2356   0.958   3.638   3.388 -2.4056  1.4069  1.7538
   18SAPS   H6Y 2357   0.982   3.821   3.384  0.2618  0.6439  0.2355
   18SAPS   C37 2358   1.135   3.713   3.473  0.5112  0.5592 -0.0035
   18SAPS   H7X 2359   1.209   3.795   3.466 -0.9699  1.9254 -0.2201
   18SAPS   H7Y 2360   1.183   3.613   3.460  0.2379  0.3935  0.2232
   18SAPS   C38 2361   1.081   3.710   3.620 -0.0932 -0.7920  0.7125
   18SAPS   H8X 2362   1.015   3.623   3.639 -0.3605 -0.5468  0.9369
   18SAPS   H8Y 2363   1.004   3.790   3.622 -0.3689 -0.8335 -2.5446
   18SAPS   C39 2364   1.188   3.723   3.729 -0.4600  0.4639 -0.0692
   18SAPS   H9X 2365   1.243   3.819   3.723  1.2327 -0.5368 -1.3219
   18SAPS   H9Y 2366   1.265   3.645   3.714 -1.7203 -1.0925  1.1648
   18SAPS  C310 2367   1.139   3.699   3.877  0.4315  0.1280 -0.3484
   18SAPS  H10X 2368   1.124   3.590   3.893  0.0133  0.4594  1.8766
   18SAPS  H10Y 2369   1.038   3.745   3.879 -0.1671 -1.1556 -0.0948
   18SAPS  C311 2370   1.237   3.749   3.991  0.8466  0.1290  0.6349
   18SAPS  H11X 2371   1.248   3.859   3.992 -2.2759  0.5174  1.1545
   18SAPS  H11Y 2372   1.333   3.696   3.973  1.3796  0.8061  1.4172
   18SAPS  C312 2373   1.195   3.703   4.128  0.4284 -0.4373  0.1372
   18SAPS  H12X 2374   1.171   3.595   4.117  4.0687 -1.2048 -2.0526
   18SAPS  H12Y 2375   1.124   3.776   4.171  2.0125  0.8727  0.6171
   18SAPS  C313 2376   1.311   3.709   4.233 -0.0768  0.3987  0.8455
   18SAPS  H13X 2377   1.354   3.807   4.204 -1.5390  0.5452 -1.0867
   18SAPS  H13Y 2378   1.363   3.615   4.205 -0.9224  0.8951 -3.0215
   18SAPS  C314 2379   1.267   3.697   4.381  0.4841 -0.4425  0.3332
   18SAPS  H14X 2380   1.219   3.597   4.387 -0.1619 -0.1068  0.9356
   18SAPS  H14Y 2381   1.181   3.767   4.393 -0.1075 -1.2544  0.9595
   18SAPS  C315 2382   1.376   3.721   4.487 -0.5487  0.0416  0.3310
   18SAPS  H15X 2383   1.330   3.730   4.587  1.1381 -2.3999  1.4333
   18SAPS  H15Y 2384   1.436   3.814   4.475 -1.7996  0.8314  0.1006
   18SAPS  C316 2385   1.473   3.601   4.499  1.0199 -0.2515  0.1039
   18SAPS  H16X 2386   1.537   3.600   4.408 -0.8103  4.0934 -1.5204
   18SAPS  H16Y 2387   1.412   3.508   4.495 -0.9116  0.9579  0.0442
   18SAPS  C317 2388   1.556   3.613   4.622  0.1046  0.0911 -0.4353
   18SAPS  H17X 2389   1.490   3.628   4.711 -1.2910 -0.6938 -1.2955
   18SAPS  H17Y 2390   1.613   3.708   4.611 -0.7344  0.6617 -0.0055
   18SAPS  C318 2391   1.657   3.498   4.624  0.1906 -0.2447  0.2091
   18SAPS  H18X 2392   1.724   3.488   4.536  2.0581 -2.5382  1.7622
   18SAPS  H18Y 2393   1.594   3.407   4.626  1.1958 -0.9414  0.8082
   18SAPS  H18Z 2394   1.716   3.500   4.718 -0.3780  0.4238  0.5597
   19SAPS     N 2395   6.778   5.934   1.734  0.1696  0.1040 -0.2430
   19SAPS   HN1 2396   6.827   5.993   1.664  0.5651 -2.6050 -2.3989
   19SAPS   HN2 2397   6.849   5.887   1.794 -0.0917 -0.4866 -0.3910
   19SAPS   HN3 2398   6.723   5.858   1.690  0.5924 -1.2240  1.3759
   19SAPS   C12 2399   6.686   6.017   1.831  0.3408 -0.1307  0.1255
   19SAPS  H12A 2400   6.674   5.956   1.919  2.5223  0.6741  1.0523
   19SAPS   C13 2401   6.753   6.148   1.874  0.4667 -0.0731  0.8748
   19SAPS  O13A 2402   6.858   6.189   1.825  0.7707 -0.6192  0.5942
   19SAPS  O13B 2403   6.703   6.202   1.975 -0.4411  0.8076  0.7031
   19SAPS   C11 2404   6.544   6.058   1.771 -0.0510 -0.2650  0.1883
   19SAPS  H11A 2405   6.560   6.121   1.680 -3.0443  3.4245  1.9221
   19SAPS  H11B 2406   6.496   6.139   1.830 -0.7601 -0.8941  0.5009
   19SAPS     P 2407   6.355   5.888   1.845 -0.3635 -0.5583 -0.5486
   19SAPS   O13 2408   6.250   5.991   1.863  0.0589  0.0674 -0.2647
   19SAPS   O14 2409   6.311   5.757   1.795  0.3927  0.3817 -0.3852
   19SAPS   O12 2410   6.461   5.945   1.745  0.0676 -0.2659  0.0614
   19SAPS   O11 2411   6.443   5.866   1.979  0.5476  0.6282  0.2045
   19SAPS    C1 2412   6.442   5.961   2.083  0.2285  0.4996  0.2276
   19SAPS    HA 2413   6.452   6.066   2.048 -0.1261 -0.0411 -1.6511
   19SAPS    HB 2414   6.336   5.950   2.114 -0.7519 -2.0194 -3.3645
   19SAPS    C2 2415   6.541   5.930   2.195  0.3104  0.2210  0.6609
   19SAPS    HS 2416   6.647   5.932   2.159 -0.5243  1.6672 -1.9908
   19SAPS   O21 2417   6.490   5.806   2.257  0.4879  0.0896  0.1610
   19SAPS   C21 2418   6.589   5.718   2.301  0.8189  0.2761  0.3360
   19SAPS   O22 2419   6.704   5.725   2.268  0.6429  0.6209 -0.2376
   19SAPS   C22 2420   6.518   5.602   2.370  0.0474  0.6221 -0.3142
   19SAPS   H2R 2421   6.455   5.652   2.446  1.2896  1.3218  0.2898
   19SAPS   H2S 2422   6.450   5.552   2.297 -2.0348  2.1214  0.4959
   19SAPS    C3 2423   6.527   6.039   2.304 -0.7847 -0.4087  0.6984
   19SAPS    HX 2424   6.418   6.060   2.314 -1.1528 -0.7394 -1.8215
   19SAPS    HY 2425   6.571   6.133   2.264  0.3030  0.2659  3.2794
   19SAPS   O31 2426   6.582   5.993   2.431 -0.1467 -0.1810 -0.3462
   19SAPS   C31 2427   6.713   6.011   2.441 -0.0133  0.3742  0.2206
   19SAPS   O32 2428   6.784   6.066   2.357 -0.0374  0.2976 -0.5872
   19SAPS   C32 2429   6.764   5.959   2.569  0.5498  0.3018 -0.0392
   19SAPS   H2X 2430   6.867   6.000   2.579  1.2969 -1.7187  1.3385
   19SAPS   H2Y 2431   6.777   5.849   2.570 -1.5946  0.0014 -1.1640
   19SAPS   C23 2432   6.607   5.489   2.429  0.1991  0.4589  0.2713
   19SAPS   H3R 2433   6.677   5.539   2.498 -0.8158  1.4412  0.6250
   19SAPS   H3S 2434   6.660   5.442   2.343 -0.2996  1.7634 -0.7798
   19SAPS   C24 2435   6.523   5.381   2.509  0.3712 -0.3379  0.0279
   19SAPS   H4R 2436   6.594   5.298   2.531 -1.3356 -2.1554 -0.8874
   19SAPS   H4S 2437   6.449   5.344   2.434 -2.8632  1.3974  2.1172
   19SAPS   C25 2438   6.462   5.444   2.631  0.0578  0.3588  0.0372
   19SAPS   H5R 2439   6.363   5.489   2.611 -1.0484 -1.9775 -0.1104
   19SAPS   C26 2440   6.516   5.448   2.753 -0.0402  0.3100  0.0338
   19SAPS   H6R 2441   6.446   5.488   2.829 -0.9983 -1.4684  0.1232
   19SAPS   C27 2442   6.654   5.409   2.806  0.3285  0.6996 -0.2092
   19SAPS   H7R 2443   6.714   5.501   2.816  0.6266  0.4477  0.3109
   19SAPS   H7S 2444   6.707   5.354   2.725  1.4461  0.9809  0.3171
   19SAPS   C28 2445   6.633   5.333   2.939  0.0761  0.8084  0.0424
   19SAPS   H8R 2446   6.590   5.233   2.921  0.8840  0.3263  0.7227
   19SAPS   C29 2447   6.644   5.370   3.069 -0.7494 -0.6636 -0.8166
   19SAPS   H9R 2448   6.616   5.303   3.152  1.4859 -0.3435  0.2685
   19SAPS  C210 2449   6.698   5.504   3.118  0.5304 -0.0712  0.0169
   19SAPS  H10R 2450   6.638   5.540   3.205 -1.8855 -1.0618 -1.1499
   19SAPS  H10S 2451   6.679   5.590   3.050 -1.8478 -1.4273 -1.1432
   19SAPS  C211 2452   6.846   5.491   3.156  0.8241  0.0648 -0.5694
   19SAPS  H11R 2453   6.919   5.434   3.096 -0.4436 -3.4966  0.9659
   19SAPS  C212 2454   6.888   5.515   3.279  0.3892 -0.1974 -0.1435
   19SAPS  H12R 2455   6.994   5.497   3.304  1.0223  0.6445 -2.0506
   19SAPS  C213 2456   6.817   5.586   3.392  0.9767 -0.0280  0.0770
   19SAPS  H13R 2457   6.799   5.511   3.472 -0.0774  1.2506  1.0752
   19SAPS  H13S 2458   6.719   5.627   3.359  0.8423  0.7944  1.4551
   19SAPS  C214 2459   6.903   5.686   3.469  0.3464  0.1587 -0.6320
   19SAPS  H14R 2460   6.953   5.770   3.420 -0.6334  1.5785  0.7066
   19SAPS  C215 2461   6.934   5.679   3.600 -0.1148 -0.1233 -0.3050
   19SAPS  H15R 2462   7.015   5.746   3.633 -1.4689  2.8888 -2.6467
   19SAPS  C216 2463   6.889   5.568   3.691  0.0315  0.2253 -0.7340
   19SAPS  H16R 2464   6.937   5.470   3.671 -0.8708 -1.1172  2.9339
   19SAPS  H16S 2465   6.780   5.547   3.691  0.1990 -0.7232  0.0911
   19SAPS  C217 2466   6.934   5.606   3.837  0.9594 -0.4266  0.2561
   19SAPS  H17R 2467   6.868   5.693   3.856  0.0343 -1.0738  0.1039
   19SAPS  H17S 2468   7.040   5.639   3.842  0.4837  0.9971  1.8041
   19SAPS  C218 2469   6.900   5.493   3.927  0.0456  0.1791 -0.2093
   19SAPS  H18R 2470   6.979   5.417   3.908 -1.9494 -1.9387 -0.4781
   19SAPS  H18S 2471   6.796   5.460   3.907 -1.3982  2.5899  2.6048
   19SAPS  C219 2472   6.909   5.522   4.086  0.0168 -0.8731  0.0192
   19SAPS  H19R 2473   6.836   5.599   4.119  2.4665  1.1101  1.2725
   19SAPS  H19S 2474   7.011   5.554   4.119  0.1332 -1.4827  0.2684
   19SAPS  C220 2475   6.866   5.397   4.176 -0.2119  0.4588  0.4296
   19SAPS  H20R 2476   6.867   5.427   4.283  0.8162 -0.3441  0.6640
   19SAPS  H20S 2477   6.943   5.324   4.140  0.2695  2.8308 -4.1833
   19SAPS  H20T 2478   6.765   5.362   4.146 -0.7697 -0.0632  2.7233
   19SAPS   C33 2479   6.685   6.013   2.692 -0.4904  0.5489 -0.3626
   19SAPS   H3X 2480   6.576   5.992   2.692 -0.0992 -1.6654  0.2178
   19SAPS   H3Y 2481   6.688   6.124   2.694 -1.3971  0.6004 -1.3980
   19SAPS   C34 2482   6.750   5.960   2.823 -0.6831  0.2033 -0.2771
   19SAPS   H4X 2483   6.855   5.995   2.818 -0.9752  1.1446 -0.1468
   19SAPS   H4Y 2484   6.757   5.849   2.818  2.4467  0.1713  1.7590
   19SAPS   C35 2485   6.677   6.006   2.951  0.6287  0.4208  1.2023
   19SAPS   H5X 2486   6.569   5.982   2.961  0.6872  0.0058  0.8680
   19SAPS   H5Y 2487   6.673   6.117   2.945 -2.6252  0.4286  1.7214
   19SAPS   C36 2488   6.743   5.964   3.091  0.8532 -0.6828  0.2126
   19SAPS   H6X 2489   6.848   6.001   3.086  1.4424 -2.4097 -1.7077
   19SAPS   H6Y 2490   6.743   5.854   3.100  0.4502 -0.8242 -1.2223
   19SAPS   C37 2491   6.675   6.025   3.212  0.2263  0.0244 -0.1750
   19SAPS   H7X 2492   6.567   5.997   3.216  0.2126  0.1690  0.7738
   19SAPS   H7Y 2493   6.690   6.134   3.197 -0.1291  0.1432  0.3042
   19SAPS   C38 2494   6.730   5.984   3.345  0.2093 -0.1087  0.8732
   19SAPS   H8X 2495   6.840   5.995   3.334  0.0691  1.8302  1.1482
   19SAPS   H8Y 2496   6.707   5.875   3.349  0.2359 -0.3030 -2.0725
   19SAPS   C39 2497   6.701   6.067   3.467 -0.0593  0.3204 -0.9881
   19SAPS   H9X 2498   6.592   6.072   3.490  0.2174  0.1349  0.4627
   19SAPS   H9Y 2499   6.737   6.170   3.450 -1.2574  0.6430 -1.7405
   19SAPS  C310 2500   6.764   5.999   3.591 -0.5143  0.0719 -0.2011
   19SAPS  H10X 2501   6.874   5.997   3.577 -0.5631  0.6210 -0.7061
   19SAPS  H10Y 2502   6.736   5.892   3.607  0.7459 -0.1386  0.8161
   19SAPS  C311 2503   6.725   6.078   3.710  0.0333  0.5477  1.0483
   19SAPS  H11X 2504   6.620   6.055   3.738 -0.6241  0.2664 -1.4182
   19SAPS  H11Y 2505   6.736   6.186   3.688  1.8572  0.4048  1.0374
   19SAPS  C312 2506   6.809   6.036   3.833 -0.1681 -0.2927 -0.3594
   19SAPS  H12X 2507   6.913   6.068   3.810 -0.2130 -1.3465 -2.3465
   19SAPS  H12Y 2508   6.819   5.925   3.832 -0.2169 -0.3199  1.0679
   19SAPS  C313 2509   6.767   6.087   3.967  0.1713 -0.1180 -0.4660
   19SAPS  H13X 2510   6.661   6.060   3.989 -0.2647  0.3173 -1.8921
   19SAPS  H13Y 2511   6.759   6.197   3.963  0.8202 -0.0850 -0.8185
   19SAPS  C314 2512   6.864   6.025   4.072 -0.3790 -0.5478  0.1070
   19SAPS  H14X 2513   6.961   6.072   4.045 -0.6561  0.0228  0.0863
   19SAPS  H14Y 2514   6.880   5.917   4.054 -1.5326 -0.6477 -0.4117
   19SAPS  C315 2515   6.812   6.051   4.216 -0.2659  0.2176  0.6186
   19SAPS  H15X 2516   6.886   6.010   4.288  0.3678  1.8158  0.9137
   19SAPS  H15Y 2517   6.721   5.986   4.217  1.4435 -2.3596 -0.4127
   19SAPS  C316 2518   6.788   6.200   4.250  0.4475  0.3248  0.1735
   19SAPS  H16X 2519   6.769   6.253   4.153  0.8815 -2.5989 -1.6270
   19SAPS  H16Y 2520   6.884   6.238   4.291  0.7041  1.7181 -1.5778
   19SAPS  C317 2521   6.670   6.231   4.337 -0.5684  0.2072 -0.1986
   19SAPS  H17X 2522   6.576   6.213   4.280 -1.3359 -0.5463  1.2380
   19SAPS  H17Y 2523   6.668   6.337   4.369 -1.2826  0.3325 -0.6311
   19SAPS  C318 2524   6.655   6.145   4.463  0.3412 -0.1363 -0.1826
   19SAPS  H18X 2525   6.646   6.039   4.432  0.7252 -0.5255  0.9673
   19SAPS  H18Y 2526   6.566   6.181   4.519  0.0748  0.2493 -0.8499
   19SAPS  H18Z 2527   6.740   6.160   4.533  0.3282  1.3773 -0.4600
   20SAPS     N 2528   6.512   0.808   1.973  0.2192  0.2537  0.8893
   20SAPS   HN1 2529   6.475   0.762   2.059  0.3806  1.3123  1.5529
   20SAPS   HN2 2530   6.456   0.894   1.956 -0.9659 -0.9410 -1.6465
   20SAPS   HN3 2531   6.486   0.746   1.894 -1.4587  2.2491 -0.2492
   20SAPS   C12 2532   6.658   0.831   1.980 -0.0995  0.2938  0.0642
   20SAPS  H12A 2533   6.705   0.736   2.000  0.1615  0.6358  1.1921
   20SAPS   C13 2534   6.713   0.902   1.854 -0.6425 -0.8012 -0.6141
   20SAPS  O13A 2535   6.643   0.915   1.749 -0.2407  0.3788  0.3892
   20SAPS  O13B 2536   6.832   0.955   1.852  0.5810 -0.2329  0.0415
   20SAPS   C11 2537   6.701   0.910   2.105  0.1568 -0.5685  0.1004
   20SAPS  H11A 2538   6.661   1.014   2.100  0.7813 -0.2645  1.0763
   20SAPS  H11B 2539   6.811   0.914   2.096  0.1554 -0.1927  0.2223
   20SAPS     P 2540   6.664   0.903   2.353 -0.5351 -0.1085 -0.3594
   20SAPS   O13 2541   6.652   1.057   2.343 -0.1669 -0.0917  0.2818
   20SAPS   O14 2542   6.572   0.833   2.448 -0.4599 -0.0686 -0.0393
   20SAPS   O12 2543   6.658   0.839   2.221 -0.0795  0.5188 -0.0986
   20SAPS   O11 2544   6.810   0.878   2.412  0.6097 -0.1571 -0.1144
   20SAPS    C1 2545   6.867   0.748   2.379 -0.0110  0.8971 -0.3244
   20SAPS    HA 2546   6.831   0.697   2.288 -0.9922 -1.8863  1.4857
   20SAPS    HB 2547   6.975   0.772   2.366  0.4652  0.4004  2.1120
   20SAPS    C2 2548   6.833   0.641   2.485 -0.3217 -0.1477  0.2392
   20SAPS    HS 2549   6.722   0.635   2.485 -0.3647  0.5061  0.6729
   20SAPS   O21 2550   6.892   0.681   2.610  0.4748 -0.8721 -0.0188
   20SAPS   C21 2551   6.815   0.660   2.713 -0.2351 -0.2082  0.0589
   20SAPS   O22 2552   6.700   0.627   2.708  0.0153 -0.3087  0.7170
   20SAPS   C22 2553   6.893   0.696   2.847  0.4849  0.4842  0.8384
   20SAPS   H2R 2554   6.988   0.639   2.846 -0.6332 -1.4818  1.5736
   20SAPS   H2S 2555   6.912   0.804   2.832  0.8176  0.2615 -0.4141
   20SAPS    C3 2556   6.899   0.507   2.435 -0.4087  0.3850  0.0979
   20SAPS    HX 2557   7.007   0.516   2.460 -0.2400  0.6174 -0.6852
   20SAPS    HY 2558   6.898   0.494   2.325 -0.8017 -0.9833  0.2506
   20SAPS   O31 2559   6.844   0.390   2.502  0.4646 -0.3339  0.2019
   20SAPS   C31 2560   6.720   0.353   2.468  0.2571 -0.4639 -0.0415
   20SAPS   O32 2561   6.655   0.406   2.380  0.2462  0.2095 -0.0396
   20SAPS   C32 2562   6.659   0.236   2.552 -0.4863  0.3874 -0.0035
   20SAPS   H2X 2563   6.745   0.204   2.615 -0.5186  2.7260  1.3421
   20SAPS   H2Y 2564   6.640   0.150   2.484 -0.3916  0.3312  0.0403
   20SAPS   C23 2565   6.817   0.660   2.976 -0.3162 -0.0231 -0.1995
   20SAPS   H3R 2566   6.781   0.558   2.951  0.1116 -0.2464  0.0838
   20SAPS   H3S 2567   6.732   0.730   2.991  0.4508  1.0176 -0.5823
   20SAPS   C24 2568   6.904   0.640   3.100 -0.2646  0.4253 -0.0551
   20SAPS   H4R 2569   6.977   0.565   3.061  0.1451  0.3273  0.8936
   20SAPS   H4S 2570   6.844   0.593   3.181  1.1129 -1.5248 -0.0781
   20SAPS   C25 2571   6.989   0.754   3.148  0.8421  0.5098  0.6127
   20SAPS   H5R 2572   7.032   0.810   3.063  2.5814  0.6937  1.5751
   20SAPS   C26 2573   6.986   0.808   3.273  0.0048  0.0478  0.4697
   20SAPS   H6R 2574   7.052   0.895   3.284  0.4652 -0.5258  2.7510
   20SAPS   C27 2575   6.921   0.742   3.392 -0.4553 -0.1562 -0.0778
   20SAPS   H7R 2576   6.917   0.631   3.389 -1.1093 -0.2672  2.6455
   20SAPS   H7S 2577   6.814   0.768   3.399 -0.9003 -2.1042  1.0254
   20SAPS   C28 2578   6.988   0.770   3.525  0.5532 -0.1396  0.5653
   20SAPS   H8R 2579   7.093   0.804   3.516 -0.1500  1.7402 -1.5978
   20SAPS   C29 2580   6.935   0.758   3.645  0.0338  0.3732  1.0790
   20SAPS   H9R 2581   6.990   0.778   3.738  0.3752 -0.3537  1.0473
   20SAPS  C210 2582   6.798   0.717   3.678 -0.4502  0.7970 -0.1458
   20SAPS  H10R 2583   6.806   0.631   3.748 -1.7260  0.4920 -0.3494
   20SAPS  H10S 2584   6.738   0.692   3.589 -1.9845 -0.2941  1.1360
   20SAPS  C211 2585   6.730   0.830   3.751  0.1856  0.7036  0.0091
   20SAPS  H11R 2586   6.674   0.896   3.683  1.2607  0.7458 -0.8726
   20SAPS  C212 2587   6.749   0.866   3.880  0.7908  0.5067  0.5935
   20SAPS  H12R 2588   6.681   0.946   3.913 -0.0226 -0.1980  0.6553
   20SAPS  C213 2589   6.834   0.806   3.988  0.1511  0.3278 -0.1491
   20SAPS  H13R 2590   6.919   0.877   3.991 -0.5103  1.2189 -1.5968
   20SAPS  H13S 2591   6.881   0.709   3.962 -0.3131 -0.6386  2.3433
   20SAPS  C214 2592   6.754   0.771   4.110  0.4518 -0.6103  0.3806
   20SAPS  H14R 2593   6.672   0.700   4.095 -0.9542  0.8250  0.9472
   20SAPS  C215 2594   6.766   0.831   4.228  0.1564 -0.5255  0.4123
   20SAPS  H15R 2595   6.693   0.803   4.306  0.8972 -2.2503  0.5412
   20SAPS  C216 2596   6.858   0.944   4.254  0.5409  0.2158  0.4534
   20SAPS  H16R 2597   6.903   0.991   4.164  0.0079 -0.0036  0.0691
   20SAPS  H16S 2598   6.944   0.900   4.310  1.1115 -1.5891 -1.7330
   20SAPS  C217 2599   6.780   1.055   4.333 -0.1996  0.2003 -0.1293
   20SAPS  H17R 2600   6.690   1.080   4.273  0.0877  0.8635 -0.2946
   20SAPS  H17S 2601   6.833   1.153   4.333  2.6831 -1.2517 -0.9038
   20SAPS  C218 2602   6.748   1.018   4.482 -0.5891  0.4589  0.3188
   20SAPS  H18R 2603   6.843   1.020   4.540 -0.7233  1.3322  0.5177
   20SAPS  H18S 2604   6.703   0.917   4.493  1.6040 -0.5485  0.7641
   20SAPS  C219 2605   6.673   1.129   4.552  0.2761 -0.5131  0.1200
   20SAPS  H19R 2606   6.571   1.133   4.509  0.9126 -2.6923 -1.7905
   20SAPS  H19S 2607   6.732   1.218   4.520  2.8674 -2.1914 -0.1181
   20SAPS  C220 2608   6.673   1.111   4.705 -0.4085  0.2147 -0.1574
   20SAPS  H20R 2609   6.599   1.032   4.731  1.6563 -2.1329 -1.0347
   20SAPS  H20S 2610   6.628   1.202   4.750 -0.2042  0.9039 -1.3026
   20SAPS  H20T 2611   6.766   1.082   4.758  0.6766 -0.2038 -2.2017
   20SAPS   C33 2612   6.540   0.269   2.650  0.4361  0.8188 -0.0735
   20SAPS   H3X 2613   6.455   0.309   2.590  0.4242  1.0023  0.0643
   20SAPS   H3Y 2614   6.563   0.326   2.743 -1.0768  1.7429 -0.2223
   20SAPS   C34 2615   6.497   0.130   2.710  0.0507 -0.5854 -0.5289
   20SAPS   H4X 2616   6.591   0.075   2.730  0.4035  0.0710 -0.3565
   20SAPS   H4Y 2617   6.432   0.074   2.639 -1.2839  0.4729 -0.1628
   20SAPS   C35 2618   6.436   0.134   2.848 -0.0810  0.7903  0.0815
   20SAPS   H5X 2619   6.503   0.177   2.926  0.0549 -1.0991  1.0565
   20SAPS   H5Y 2620   6.428   0.026   2.871 -0.0702  0.5196 -1.1240
   20SAPS   C36 2621   6.303   0.182   2.852  0.5560 -0.0210 -0.6477
   20SAPS   H6X 2622   6.230   0.120   2.795 -0.6884 -0.6482  1.4960
   20SAPS   H6Y 2623   6.301   0.284   2.809  1.8977  0.3842  0.1930
   20SAPS   C37 2624   6.241   0.181   2.994  0.1109 -0.0114 -0.0657
   20SAPS   H7X 2625   6.305   0.244   3.059  1.8209 -0.1428 -1.5618
   20SAPS   H7Y 2626   6.255   0.083   3.045  2.5287  0.1536 -0.3276
   20SAPS   C38 2627   6.097   0.231   2.993  0.1043 -0.6447 -0.4432
   20SAPS   H8X 2628   6.033   0.145   2.964  0.4759 -1.5028  1.1413
   20SAPS   H8Y 2629   6.100   0.301   2.908  1.4563  1.0443  0.9077
   20SAPS   C39 2630   6.041   0.294   3.129 -0.3613 -0.4983 -0.3924
   20SAPS   H9X 2631   6.099   0.383   3.163 -1.5004 -0.2797  1.0583
   20SAPS   H9Y 2632   6.033   0.224   3.214 -1.8681 -0.6157 -0.6041
   20SAPS  C310 2633   5.900   0.356   3.108 -0.3629  0.9224 -0.7496
   20SAPS  H10X 2634   5.822   0.283   3.078 -0.8867  1.0591  0.2299
   20SAPS  H10Y 2635   5.899   0.425   3.022 -3.6576  1.2697 -0.5776
   20SAPS  C311 2636   5.846   0.443   3.226  0.2497 -0.1371  0.2058
   20SAPS  H11X 2637   5.778   0.524   3.192 -1.0618 -1.8351 -1.4285
   20SAPS  H11Y 2638   5.933   0.486   3.280 -0.3120 -1.4297  2.2414
   20SAPS  C312 2639   5.769   0.347   3.319 -0.7516  0.3505  0.5849
   20SAPS  H12X 2640   5.836   0.261   3.335  2.0573  2.2819 -0.0523
   20SAPS  H12Y 2641   5.684   0.310   3.257  0.6755  0.0823 -1.3070
   20SAPS  C313 2642   5.720   0.405   3.450  0.1583 -0.7648 -0.1269
   20SAPS  H13X 2643   5.637   0.475   3.427  0.5366 -0.2351  0.1105
   20SAPS  H13Y 2644   5.796   0.462   3.508 -0.4862 -1.4694  1.4818
   20SAPS  C314 2645   5.664   0.303   3.553  0.2448 -0.2328 -0.0833
   20SAPS  H14X 2646   5.739   0.231   3.593 -2.5180 -2.3699  1.6564
   20SAPS  H14Y 2647   5.596   0.244   3.489  0.3941 -1.3726  0.7636
   20SAPS  C315 2648   5.579   0.366   3.673  0.0448  0.4502  0.0122
   20SAPS  H15X 2649   5.527   0.285   3.729 -1.3522  0.6382 -0.9604
   20SAPS  H15Y 2650   5.497   0.423   3.624  1.3787  2.1758 -0.3092
   20SAPS  C316 2651   5.656   0.450   3.763 -0.3507 -0.3214 -0.3499
   20SAPS  H16X 2652   5.722   0.518   3.706 -0.0800 -0.6883 -0.4787
   20SAPS  H16Y 2653   5.734   0.404   3.827  1.2020  0.0323 -1.9294
   20SAPS  C317 2654   5.570   0.536   3.852  0.5016  0.3537  0.0821
   20SAPS  H17X 2655   5.519   0.471   3.926 -0.5783  0.7993 -0.2580
   20SAPS  H17Y 2656   5.484   0.574   3.792 -1.2836 -1.4147  1.4145
   20SAPS  C318 2657   5.654   0.652   3.921 -0.1847  0.1735  0.4185
   20SAPS  H18X 2658   5.589   0.735   3.956 -0.8540 -0.1240 -0.1016
   20SAPS  H18Y 2659   5.718   0.690   3.839 -1.3158  0.5050 -0.3296
   20SAPS  H18Z 2660   5.722   0.615   4.001 -2.5354 -1.6109  1.7451
   21CHL1    C3 2661   5.206   5.017   6.637 -0.5492 -0.1726  0.4659
   21CHL1    H3 2662   5.276   4.931   6.646  0.4548  0.4448 -0.9787
   21CHL1    O3 2663   5.175   5.069   6.769  0.0919 -0.2482  0.1090
   21CHL1   H3' 2664   5.096   5.117   6.744 -0.8705 -0.4861  2.4568
   21CHL1    C4 2665   5.280   5.120   6.549 -0.0638 -0.0468  0.3715
   21CHL1   H4A 2666   5.213   5.209   6.542 -1.8097 -1.4012 -0.9399
   21CHL1   H4B 2667   5.378   5.148   6.593  0.3260  1.1009 -1.1530
   21CHL1    C5 2668   5.316   5.063   6.418 -0.8519 -0.5822  0.6564
   21CHL1    C6 2669   5.444   5.056   6.372  0.0808 -0.8338  0.3951
   21CHL1    H6 2670   5.529   5.093   6.432  1.2510  0.7101 -2.0479
   21CHL1    C7 2671   5.488   4.985   6.249  0.2685 -0.7671  0.0350
   21CHL1   H7A 2672   5.543   5.064   6.193 -0.6805 -0.5968 -0.6872
   21CHL1   H7B 2673   5.546   4.893   6.275 -1.7639 -1.8829  0.8331
   21CHL1    C8 2674   5.370   4.946   6.160 -0.3967 -1.1569  0.3119
   21CHL1    H8 2675   5.330   5.035   6.106  0.8326 -1.0319 -0.4544
   21CHL1   C14 2676   5.424   4.847   6.051  0.0279 -0.7067 -0.3584
   21CHL1   H14 2677   5.435   4.747   6.097 -0.7704  0.0936  1.6696
   21CHL1   C15 2678   5.547   4.878   5.970 -0.0483  0.0823 -0.2637
   21CHL1  H15A 2679   5.535   4.985   5.942 -1.5037 -0.2263 -0.9375
   21CHL1  H15B 2680   5.627   4.857   6.043 -0.7200 -0.9022  0.2114
   21CHL1   C16 2681   5.546   4.794   5.847  0.1178  0.4330  0.2491
   21CHL1  H16A 2682   5.564   4.866   5.764 -1.1455  0.2284 -0.2329
   21CHL1  H16B 2683   5.621   4.712   5.842 -0.1738  0.2164 -2.7023
   21CHL1   C17 2684   5.397   4.737   5.845  0.5025  0.1372  0.1952
   21CHL1   H17 2685   5.421   4.639   5.891 -2.0137 -1.0606 -0.8765
   21CHL1   C13 2686   5.317   4.824   5.942 -0.0154  0.1766 -0.6642
   21CHL1   C18 2687   5.283   4.951   5.859  0.1053 -0.0204 -0.7572
   21CHL1  H18A 2688   5.214   4.938   5.773  0.8082  0.5592 -1.4273
   21CHL1  H18B 2689   5.235   5.022   5.930 -1.7648 -1.7665 -0.1726
   21CHL1  H18C 2690   5.377   4.990   5.814  0.0420  0.7260 -0.2726
   21CHL1   C12 2691   5.193   4.766   6.008  0.4512 -0.4131 -0.0345
   21CHL1  H12A 2692   5.121   4.738   5.928  1.7941 -3.0325 -0.4390
   21CHL1  H12B 2693   5.230   4.667   6.043  0.3056 -0.0796  1.1110
   21CHL1   C11 2694   5.140   4.853   6.131  0.3103  0.0582  0.5097
   21CHL1  H11A 2695   5.083   4.936   6.084  0.1124 -0.7927 -0.7873
   21CHL1  H11B 2696   5.075   4.783   6.189  0.3929 -1.8329 -1.5493
   21CHL1    C9 2697   5.251   4.894   6.230 -0.8399 -0.3759  0.7683
   21CHL1    H9 2698   5.286   4.803   6.283  2.4338  0.8796  1.0386
   21CHL1   C10 2699   5.207   4.994   6.344 -1.1132 -0.5069 -0.6950
   21CHL1   C19 2700   5.119   5.112   6.286 -0.3805 -0.1376 -0.3189
   21CHL1  H19A 2701   5.031   5.071   6.232 -0.7394 -2.0171  1.5745
   21CHL1  H19B 2702   5.087   5.174   6.373 -0.4764 -1.1543  0.3839
   21CHL1  H19C 2703   5.182   5.170   6.215 -0.9964 -0.2392 -0.9481
   21CHL1    C1 2704   5.120   4.906   6.432 -0.6426  0.1102  0.0144
   21CHL1   H1A 2705   5.029   4.878   6.376  0.1721 -1.8174 -0.4246
   21CHL1   H1B 2706   5.166   4.808   6.454 -3.2140 -1.0510  0.5531
   21CHL1    C2 2707   5.075   4.964   6.568 -0.0794  0.5032 -0.0400
   21CHL1   H2A 2708   5.047   4.882   6.637  0.2667 -0.1669 -0.6848
   21CHL1   H2B 2709   5.001   5.047   6.554  2.3718  2.8615  0.1299
   21CHL1   C20 2710   5.353   4.710   5.699  0.0456  0.2867  0.4589
   21CHL1   H20 2711   5.361   4.806   5.643  0.8931 -0.3907 -0.6085
   21CHL1   C21 2712   5.205   4.659   5.685 -0.2825  0.5599  0.4001
   21CHL1  H21A 2713   5.192   4.567   5.747  0.1728 -0.1614 -0.5403
   21CHL1  H21B 2714   5.175   4.648   5.579  0.4888  0.9276  0.1388
   21CHL1  H21C 2715   5.130   4.732   5.722 -0.7536  0.4670 -0.3477
   21CHL1   C22 2716   5.448   4.610   5.616  0.1922  0.1736 -0.0685
   21CHL1  H22A 2717   5.549   4.657   5.612  0.8698 -1.2071  0.4317
   21CHL1  H22B 2718   5.450   4.515   5.674  0.3500  0.0555 -0.2688
   21CHL1   C23 2719   5.392   4.578   5.471 -0.4721 -0.2457 -0.2839
   21CHL1  H23A 2720   5.296   4.523   5.479 -0.4095 -0.8259 -2.8341
   21CHL1  H23B 2721   5.372   4.677   5.424  0.8636 -0.7816 -2.0984
   21CHL1   C24 2722   5.496   4.497   5.393  1.0196  0.8766  0.6005
   21CHL1  H24A 2723   5.585   4.562   5.379  0.9328  1.2656  1.7898
   21CHL1  H24B 2724   5.537   4.412   5.451  3.3696  2.8408  1.9969
   21CHL1   C25 2725   5.446   4.448   5.249  0.6124 -0.6506  0.5371
   21CHL1   H25 2726   5.354   4.391   5.275 -0.0536  0.4781  0.7240
   21CHL1   C26 2727   5.414   4.570   5.160 -0.8571 -0.0079  0.2877
   21CHL1  H26A 2728   5.416   4.536   5.055 -0.3322 -2.3925  0.9950
   21CHL1  H26B 2729   5.315   4.618   5.176 -0.6288  0.8407 -0.7681
   21CHL1  H26C 2730   5.498   4.642   5.166  0.1147 -1.2033  2.3170
   21CHL1   C27 2731   5.548   4.352   5.185 -0.1310 -0.0794 -0.2742
   21CHL1  H27A 2732   5.549   4.260   5.248  2.5870  0.9618  1.3666
   21CHL1  H27B 2733   5.515   4.327   5.082 -0.7989 -0.6907  0.0749
   21CHL1  H27C 2734   5.650   4.395   5.196 -1.4843  2.9660  1.8158
   22CHL1    C3 2735   3.662   3.568   5.951 -0.1113  0.0737  0.0717
   22CHL1    H3 2736   3.633   3.668   5.913  0.0588  0.5619  1.1887
   22CHL1    O3 2737   3.648   3.571   6.093  0.0347 -0.2361  0.3334
   22CHL1   H3' 2738   3.594   3.497   6.119 -0.9603  0.5373  0.5345
   22CHL1    C4 2739   3.590   3.457   5.888 -0.1376  0.3584 -0.1511
   22CHL1   H4A 2740   3.628   3.369   5.943 -1.2011 -0.3747 -0.5662
   22CHL1   H4B 2741   3.484   3.466   5.920 -0.0725 -0.2779  0.2459
   22CHL1    C5 2742   3.611   3.435   5.742  1.1440  0.2153  0.5855
   22CHL1    C6 2743   3.505   3.449   5.661 -0.2284 -0.0542  0.4858
   22CHL1    H6 2744   3.403   3.469   5.698 -1.0898 -0.2453 -1.6300
   22CHL1    C7 2745   3.514   3.428   5.513 -0.7554 -0.4993  0.8144
   22CHL1   H7A 2746   3.434   3.356   5.484 -1.2368  0.1822  0.4164
   22CHL1   H7B 2747   3.488   3.523   5.462 -1.4500 -0.1465  1.7979
   22CHL1    C8 2748   3.650   3.374   5.464  0.2728  0.2134 -0.4342
   22CHL1    H8 2749   3.638   3.265   5.482  0.5411  0.1562 -0.5834
   22CHL1   C14 2750   3.667   3.393   5.312 -0.4539 -0.2689  0.6540
   22CHL1   H14 2751   3.682   3.503   5.299 -0.1621 -0.3725  0.0294
   22CHL1   C15 2752   3.554   3.355   5.216  1.1087  0.3548 -0.6380
   22CHL1  H15A 2753   3.514   3.253   5.237  0.7426  0.7634  0.7705
   22CHL1  H15B 2754   3.478   3.436   5.219 -0.1188 -0.7034 -1.8602
   22CHL1   C16 2755   3.629   3.347   5.083 -0.1401 -0.1944  0.6306
   22CHL1  H16A 2756   3.617   3.245   5.042 -1.8512 -0.9692  2.8454
   22CHL1  H16B 2757   3.586   3.413   5.005 -1.1194 -1.7784 -0.2238
   22CHL1   C17 2758   3.781   3.356   5.101  0.0739 -0.0841 -0.7872
   22CHL1   H17 2759   3.822   3.460   5.096 -0.6609  0.1536 -3.0723
   22CHL1   C13 2760   3.787   3.321   5.259  0.3621  0.3061  0.8395
   22CHL1   C18 2761   3.775   3.161   5.264  0.1610 -0.2901 -0.5554
   22CHL1  H18A 2762   3.691   3.120   5.204 -0.2474 -0.1734 -0.0705
   22CHL1  H18B 2763   3.875   3.120   5.238  1.4788  2.5287 -0.3434
   22CHL1  H18C 2764   3.761   3.135   5.371 -1.1763  2.0169 -0.0939
   22CHL1   C12 2765   3.906   3.381   5.322  0.1864  0.1013 -0.5452
   22CHL1  H12A 2766   4.008   3.343   5.296  0.4491  1.5314 -1.7079
   22CHL1  H12B 2767   3.915   3.487   5.290  1.0336  1.2587  3.0216
   22CHL1   C11 2768   3.908   3.378   5.475  0.5852 -0.1799 -0.9503
   22CHL1  H11A 2769   3.919   3.268   5.488 -0.4591 -0.7670 -4.1006
   22CHL1  H11B 2770   3.995   3.437   5.513  0.8618 -0.8764 -0.4779
   22CHL1    C9 2771   3.770   3.425   5.541 -0.1284  0.6199 -0.0171
   22CHL1    H9 2772   3.759   3.531   5.509  0.6670 -0.2289 -3.4991
   22CHL1   C10 2773   3.754   3.418   5.692 -0.4130  0.2477 -1.5770
   22CHL1   C19 2774   3.809   3.276   5.737 -0.0402  0.4424 -1.3190
   22CHL1  H19A 2775   3.739   3.198   5.698  1.3379 -2.0333  0.9106
   22CHL1  H19B 2776   3.909   3.259   5.693  0.4601 -1.7136  0.4561
   22CHL1  H19C 2777   3.812   3.273   5.848 -1.0500 -0.7708 -1.2952
   22CHL1    C1 2778   3.830   3.536   5.766  0.8565 -0.7905  0.5037
   22CHL1   H1A 2779   3.935   3.513   5.737  1.1641  2.5805 -1.6172
   22CHL1   H1B 2780   3.808   3.633   5.717 -0.1749 -0.6073  1.3076
   22CHL1    C2 2781   3.814   3.546   5.918  0.2040  0.6440  0.2840
   22CHL1   H2A 2782   3.876   3.627   5.963 -2.7600  2.5594  1.2044
   22CHL1   H2B 2783   3.838   3.444   5.956  1.0171 -0.3724 -2.6919
   22CHL1   C20 2784   3.865   3.271   5.007  0.2731  0.0900  0.3762
   22CHL1   H20 2785   3.837   3.165   5.022 -0.8079  0.3731  0.4539
   22CHL1   C21 2786   4.020   3.278   5.034  0.1333 -0.1853  0.4747
   22CHL1  H21A 2787   4.077   3.234   4.950 -2.0852 -2.2139 -0.0721
   22CHL1  H21B 2788   4.040   3.211   5.120  1.8895  0.4256  0.5735
   22CHL1  H21C 2789   4.042   3.384   5.060 -3.0489  0.8201 -0.3950
   22CHL1   C22 2790   3.840   3.311   4.861  0.5970  0.1837 -0.0552
   22CHL1  H22A 2791   3.732   3.307   4.833  0.5024  0.5634  0.2552
   22CHL1  H22B 2792   3.860   3.419   4.849  1.1793  0.1047  0.2054
   22CHL1   C23 2793   3.923   3.227   4.755 -0.8955  0.2264  0.2021
   22CHL1  H23A 2794   4.029   3.261   4.756 -0.9849  0.6451 -1.2602
   22CHL1  H23B 2795   3.935   3.122   4.790 -0.7808 -0.4697 -1.7748
   22CHL1   C24 2796   3.868   3.229   4.612  0.5294  0.1025 -0.3244
   22CHL1  H24A 2797   3.761   3.199   4.616  0.1632  1.3164 -0.5035
   22CHL1  H24B 2798   3.870   3.331   4.568  2.0671  0.3542  0.2517
   22CHL1   C25 2799   3.943   3.143   4.515 -0.1198  0.3012  0.5935
   22CHL1   H25 2800   3.895   3.163   4.417  1.2334  2.1983  0.2705
   22CHL1   C26 2801   4.091   3.182   4.500  0.0745 -0.1758 -0.1356
   22CHL1  H26A 2802   4.139   3.106   4.434 -0.8848 -1.5022  0.6274
   22CHL1  H26B 2803   4.120   3.283   4.464  1.7293 -0.4135  0.4036
   22CHL1  H26C 2804   4.130   3.170   4.604 -0.3819 -0.5857 -0.0104
   22CHL1   C27 2805   3.923   2.989   4.554  0.5432 -0.0952  0.2127
   22CHL1  H27A 2806   3.956   2.917   4.475  0.9076 -0.4952  0.7190
   22CHL1  H27B 2807   3.981   2.967   4.647  2.4504  0.9641 -0.6619
   22CHL1  H27C 2808   3.815   2.966   4.567  0.3271 -0.0776 -1.3408
   23CHL1    C3 2809   2.629   3.276   5.796 -0.2993 -0.2475  0.1723
   23CHL1    H3 2810   2.721   3.335   5.817 -0.6446  0.5739 -0.5784
   23CHL1    O3 2811   2.571   3.243   5.919  0.0846  0.5946 -0.3166
   23CHL1   H3' 2812   2.642   3.213   5.976  0.5915 -0.6477 -1.5525
   23CHL1    C4 2813   2.525   3.359   5.720  0.3428 -0.2149 -0.4311
   23CHL1   H4A 2814   2.425   3.311   5.729  0.7744 -0.9426  0.5580
   23CHL1   H4B 2815   2.511   3.452   5.780 -0.5926  0.1489 -1.1841
   23CHL1    C5 2816   2.565   3.389   5.576 -0.0931 -0.4829 -0.0782
   23CHL1    C6 2817   2.585   3.515   5.535 -0.0491 -0.0796  0.3188
   23CHL1    H6 2818   2.566   3.600   5.603 -0.3621  0.2256 -0.1430
   23CHL1    C7 2819   2.620   3.560   5.396  1.6622 -0.3964  0.1576
   23CHL1   H7A 2820   2.549   3.636   5.356  1.4657 -0.6177  0.0815
   23CHL1   H7B 2821   2.722   3.602   5.396  1.3199  0.5202 -1.4896
   23CHL1    C8 2822   2.611   3.436   5.302 -0.3098 -0.1615  0.2196
   23CHL1    H8 2823   2.502   3.417   5.286 -0.2598 -0.7029  0.4888
   23CHL1   C14 2824   2.686   3.471   5.177  0.2931 -0.5195  0.0943
   23CHL1   H14 2825   2.792   3.471   5.212 -0.0111 -4.5087  1.4772
   23CHL1   C15 2826   2.663   3.611   5.104 -0.7537 -0.4514 -0.3415
   23CHL1  H15A 2827   2.556   3.637   5.120 -0.2811  1.0983  0.5266
   23CHL1  H15B 2828   2.735   3.675   5.160 -0.1401 -1.5556  0.1607
   23CHL1   C16 2829   2.706   3.596   4.963  0.3972  0.2313  0.2803
   23CHL1  H16A 2830   2.611   3.590   4.906 -0.6103  0.3530  1.8836
   23CHL1  H16B 2831   2.767   3.678   4.919 -3.0616  2.4852 -0.7374
   23CHL1   C17 2832   2.757   3.447   4.950 -0.0193 -0.1594  0.2933
   23CHL1   H17 2833   2.861   3.449   4.988 -0.4483 -3.2342  1.9524
   23CHL1   C13 2834   2.686   3.370   5.060  0.0419  0.0267  0.0001
   23CHL1   C18 2835   2.536   3.348   5.009 -0.4163  0.5803  0.5692
   23CHL1  H18A 2836   2.483   3.291   5.089 -0.8956  0.7070  0.3415
   23CHL1  H18B 2837   2.478   3.440   4.989 -2.9847 -1.1044 -0.2146
   23CHL1  H18C 2838   2.545   3.283   4.920 -1.5297 -0.5291  1.2233
   23CHL1   C12 2839   2.750   3.241   5.122  0.6871 -0.2472 -0.1212
   23CHL1  H12A 2840   2.746   3.152   5.056  0.6487  0.3945 -1.0013
   23CHL1  H12B 2841   2.860   3.249   5.134  0.7138  1.6043 -1.1918
   23CHL1   C11 2842   2.689   3.189   5.251 -0.5939 -0.2123  0.0567
   23CHL1  H11A 2843   2.584   3.160   5.228 -1.2315  1.4302  0.7249
   23CHL1  H11B 2844   2.755   3.117   5.303 -1.3314  0.2968  1.7707
   23CHL1    C9 2845   2.672   3.307   5.356 -0.1722 -0.1920  0.7372
   23CHL1    H9 2846   2.777   3.332   5.382  0.6845 -1.8372 -0.9570
   23CHL1   C10 2847   2.593   3.264   5.489 -0.2460 -0.7917 -0.1194
   23CHL1   C19 2848   2.468   3.174   5.455  0.3603  0.0607 -0.7747
   23CHL1  H19A 2849   2.508   3.086   5.401  0.9704 -1.2410  1.6899
   23CHL1  H19B 2850   2.416   3.130   5.542  1.4109 -0.3697 -0.3619
   23CHL1  H19C 2851   2.391   3.221   5.389 -1.4912 -1.7524  0.0031
   23CHL1    C1 2852   2.696   3.185   5.578  0.0239 -0.3163  0.6698
   23CHL1   H1A 2853   2.721   3.090   5.527  0.2643  0.5264 -0.8614
   23CHL1   H1B 2854   2.793   3.241   5.579  1.8007 -3.1960  0.3966
   23CHL1    C2 2855   2.654   3.150   5.717 -0.3520  0.1008 -0.6358
   23CHL1   H2A 2856   2.734   3.086   5.760  1.0428  1.6202 -0.9068
   23CHL1   H2B 2857   2.555   3.101   5.708 -0.0621 -0.1199 -3.6910
   23CHL1   C20 2858   2.759   3.409   4.801  0.2562  0.1762  0.0442
   23CHL1   H20 2859   2.654   3.421   4.764 -0.1553  1.4846  1.5369
   23CHL1   C21 2860   2.807   3.265   4.790 -0.0955 -0.5447  0.7836
   23CHL1  H21A 2861   2.904   3.253   4.843 -0.2949 -1.1847  1.0135
   23CHL1  H21B 2862   2.821   3.248   4.681 -0.4322  3.2334 -0.0084
   23CHL1  H21C 2863   2.735   3.195   4.838 -0.3968  0.0310  1.1825
   23CHL1   C22 2864   2.840   3.497   4.701  0.2207 -0.5272 -0.5387
   23CHL1  H22A 2865   2.849   3.601   4.740 -0.9155  0.6485 -3.1250
   23CHL1  H22B 2866   2.941   3.460   4.672  0.9921 -0.6706  2.0979
   23CHL1   C23 2867   2.766   3.515   4.568  0.5748 -0.9357  0.6600
   23CHL1  H23A 2868   2.777   3.411   4.531  1.9840  0.0712 -1.9727
   23CHL1  H23B 2869   2.655   3.516   4.568  0.5325 -1.2591 -1.3392
   23CHL1   C24 2870   2.821   3.634   4.487  0.3878 -0.2467 -0.1544
   23CHL1  H24A 2871   2.806   3.730   4.540 -0.8457 -0.5725  0.1407
   23CHL1  H24B 2872   2.927   3.615   4.461  0.7078 -1.8465  2.0123
   23CHL1   C25 2873   2.751   3.665   4.353 -0.9321  0.5817 -0.2399
   23CHL1   H25 2874   2.737   3.569   4.299 -1.6650  0.9886 -0.8109
   23CHL1   C26 2875   2.606   3.717   4.370  0.2520  0.1440  0.0257
   23CHL1  H26A 2876   2.578   3.726   4.262  3.0322  1.0479 -0.7000
   23CHL1  H26B 2877   2.538   3.646   4.422 -0.5133 -1.1624 -2.5694
   23CHL1  H26C 2878   2.607   3.818   4.415  1.5095 -0.3346  1.1189
   23CHL1   C27 2879   2.833   3.759   4.264  0.3006  0.0013  0.1402
   23CHL1  H27A 2880   2.934   3.715   4.248  1.0174  0.8440  2.0003
   23CHL1  H27B 2881   2.786   3.789   4.168  3.5095 -1.2140 -1.9783
   23CHL1  H27C 2882   2.858   3.845   4.330 -0.2081 -0.6424  1.1894
   24CHL1    C3 2883   5.697   0.217   5.754  0.0425 -0.0614 -0.9239
   24CHL1    H3 2884   5.761   0.281   5.690 -1.3917  0.8517 -1.4982
   24CHL1    O3 2885   5.716   0.231   5.894  0.0481 -0.3382 -0.5686
   24CHL1   H3' 2886   5.808   0.209   5.906  0.5420  1.3799 -0.9847
   24CHL1    C4 2887   5.549   0.235   5.732  0.2269 -0.0842  0.2703
   24CHL1   H4A 2888   5.491   0.164   5.794 -0.6379  0.2960 -0.0706
   24CHL1   H4B 2889   5.514   0.337   5.761  0.6490  0.3388 -0.6521
   24CHL1    C5 2890   5.510   0.210   5.585 -0.1577  0.0702 -1.1239
   24CHL1    C6 2891   5.436   0.295   5.510 -0.2513 -0.3231  0.6416
   24CHL1    H6 2892   5.397   0.386   5.557 -1.3372 -0.4665  0.0351
   24CHL1    C7 2893   5.382   0.270   5.371 -0.4444 -0.2013  0.7077
   24CHL1   H7A 2894   5.284   0.321   5.357 -0.5535 -0.6831 -0.4395
   24CHL1   H7B 2895   5.452   0.324   5.303  0.3021  0.0428  1.6408
   24CHL1    C8 2896   5.397   0.127   5.329  0.1810  0.7781 -0.4194
   24CHL1    H8 2897   5.309   0.070   5.367 -0.2353  2.2507  0.9025
   24CHL1   C14 2898   5.387   0.104   5.175 -0.3083  0.1710  0.3612
   24CHL1   H14 2899   5.482   0.149   5.137 -1.7748  1.8487 -1.5806
   24CHL1   C15 2900   5.271   0.178   5.102 -0.0513  0.0698  0.3027
   24CHL1  H15A 2901   5.177   0.174   5.161  0.2297 -1.5213  0.6861
   24CHL1  H15B 2902   5.292   0.287   5.090  0.7908 -0.1202 -0.0956
   24CHL1   C16 2903   5.270   0.110   4.967  0.0831 -0.3805 -0.4243
   24CHL1  H16A 2904   5.172   0.067   4.937  0.7297 -2.1454 -0.1639
   24CHL1  H16B 2905   5.296   0.179   4.884  2.2629 -0.1975  0.3426
   24CHL1   C17 2906   5.375  -0.001   4.971 -1.0499  0.2412 -0.3889
   24CHL1   H17 2907   5.475   0.040   4.946 -1.0043  1.2667  1.3040
   24CHL1   C13 2908   5.389  -0.041   5.117  0.1622  0.4673 -0.3473
   24CHL1   C18 2909   5.265  -0.119   5.163  0.1004 -0.2014 -0.1680
   24CHL1  H18A 2910   5.269  -0.132   5.273  2.3839 -1.8154 -0.3740
   24CHL1  H18B 2911   5.169  -0.075   5.128  0.5098  1.6957  0.9937
   24CHL1  H18C 2912   5.263  -0.221   5.119 -0.5159 -0.3659  0.2232
   24CHL1   C12 2913   5.520  -0.100   5.167 -0.7938  0.2382  0.2325
   24CHL1  H12A 2914   5.532  -0.204   5.132 -0.0370  0.7255 -1.0150
   24CHL1  H12B 2915   5.608  -0.044   5.130 -2.2988  2.0390 -0.7846
   24CHL1   C11 2916   5.537  -0.090   5.321  0.1293 -0.4112 -0.3844
   24CHL1  H11A 2917   5.466  -0.158   5.373  1.8356 -0.7345  1.6427
   24CHL1  H11B 2918   5.639  -0.126   5.345  0.7954  1.7334  0.2128
   24CHL1    C9 2919   5.527   0.057   5.377 -0.1257  0.8316  0.2351
   24CHL1    H9 2920   5.607   0.116   5.327 -2.3460  3.3722 -0.5602
   24CHL1   C10 2921   5.557   0.074   5.531  0.4661  0.1889 -0.3552
   24CHL1   C19 2922   5.478  -0.036   5.598  0.5277  0.1266 -0.5239
   24CHL1  H19A 2923   5.510  -0.135   5.560  2.1568  1.5089 -3.0066
   24CHL1  H19B 2924   5.498  -0.029   5.707 -0.3504 -0.0840 -0.3452
   24CHL1  H19C 2925   5.368  -0.023   5.594  0.1911 -1.1673  2.2667
   24CHL1    C1 2926   5.704   0.067   5.559  0.2567  0.3013 -0.4960
   24CHL1   H1A 2927   5.728  -0.038   5.533  0.7992  0.4753 -0.7135
   24CHL1   H1B 2928   5.759   0.149   5.508 -1.0423  2.0857  0.8371
   24CHL1    C2 2929   5.740   0.075   5.716 -0.1982  0.5228  0.0430
   24CHL1   H2A 2930   5.850   0.061   5.729 -0.0080 -1.5794 -2.8586
   24CHL1   H2B 2931   5.681   0.003   5.777  0.9777  0.2974  0.9703
   24CHL1   C20 2932   5.347  -0.118   4.876 -0.5164  0.0189  0.6218
   24CHL1   H20 2933   5.245  -0.147   4.907 -1.7274  1.5946 -1.5734
   24CHL1   C21 2934   5.448  -0.238   4.890  0.2648  0.8456 -0.5874
   24CHL1  H21A 2935   5.424  -0.301   4.977 -0.2581  1.6349 -0.1516
   24CHL1  H21B 2936   5.552  -0.199   4.903 -0.3284  1.9751  0.9110
   24CHL1  H21C 2937   5.425  -0.305   4.804 -2.0842  2.4990 -1.3431
   24CHL1   C22 2938   5.336  -0.068   4.728 -0.5590 -0.0461  0.0368
   24CHL1  H22A 2939   5.303  -0.158   4.671 -1.1208 -0.2272  0.6327
   24CHL1  H22B 2940   5.254   0.006   4.717 -0.2243 -0.0463 -3.8409
   24CHL1   C23 2941   5.459   0.009   4.680  0.4680  0.5971 -0.1758
   24CHL1  H23A 2942   5.462   0.109   4.729  0.4484 -0.3633  1.8886
   24CHL1  H23B 2943   5.553  -0.031   4.722  0.0930 -2.3415 -1.8860
   24CHL1   C24 2944   5.470   0.020   4.533 -0.6100  0.4676 -0.3332
   24CHL1  H24A 2945   5.445  -0.077   4.485  0.1687  0.7977 -1.4690
   24CHL1  H24B 2946   5.393   0.093   4.501 -0.7116  1.2436  1.5557
   24CHL1   C25 2947   5.612   0.073   4.486  0.3630 -0.0913 -0.0624
   24CHL1   H25 2948   5.640   0.169   4.534 -0.1521  1.3334 -2.4348
   24CHL1   C26 2949   5.730  -0.015   4.516 -0.2746  0.7378 -0.2643
   24CHL1  H26A 2950   5.713  -0.101   4.448 -0.6337  0.6801 -0.1055
   24CHL1  H26B 2951   5.829   0.035   4.520  1.0875 -1.8728  1.6225
   24CHL1  H26C 2952   5.722  -0.053   4.620  0.6128 -0.4237 -0.6012
   24CHL1   C27 2953   5.611   0.086   4.330 -0.0274 -0.0795  0.5740
   24CHL1  H27A 2954   5.607  -0.015   4.284  0.1522 -0.6601  1.7976
   24CHL1  H27B 2955   5.531   0.153   4.291  2.1130  2.0457 -0.4110
   24CHL1  H27C 2956   5.709   0.125   4.296  0.6041 -2.0093  0.0667
   25CHL1    C3 2957   2.340   6.210   5.863 -0.4765  0.7508 -0.7728
   25CHL1    H3 2958   2.435   6.174   5.819 -0.5531  1.0574 -1.1990
   25CHL1    O3 2959   2.362   6.274   5.989 -0.6777 -0.2372  0.5576
   25CHL1   H3' 2960   2.434   6.229   6.033  0.5881 -0.3206 -1.4835
   25CHL1    C4 2961   2.283   6.313   5.768 -0.4713  0.4731 -0.1424
   25CHL1   H4A 2962   2.192   6.354   5.817 -0.1807 -0.3607  1.1447
   25CHL1   H4B 2963   2.347   6.403   5.755  0.2403 -0.1800 -1.3280
   25CHL1    C5 2964   2.239   6.260   5.631  0.4124  0.5378 -0.8752
   25CHL1    C6 2965   2.296   6.294   5.520  0.7053 -0.6542  0.4614
   25CHL1    H6 2966   2.375   6.371   5.517  0.0972 -0.0404 -0.1473
   25CHL1    C7 2967   2.252   6.244   5.383 -0.2216  0.3276  0.1250
   25CHL1   H7A 2968   2.225   6.328   5.314  0.6092  0.4716 -0.0327
   25CHL1   H7B 2969   2.332   6.185   5.334  0.5217  1.2743  0.1748
   25CHL1    C8 2970   2.118   6.166   5.384  0.2791  0.9494  0.2702
   25CHL1    H8 2971   2.034   6.238   5.386 -0.5488  0.0879 -1.6668
   25CHL1   C14 2972   2.113   6.079   5.260  0.4151 -0.3177  0.0777
   25CHL1   H14 2973   2.199   6.008   5.266  1.3156  0.7846  0.5150
   25CHL1   C15 2974   2.130   6.154   5.130 -0.2465  0.3378  0.1845
   25CHL1  H15A 2975   2.073   6.248   5.151  0.0364  0.5002  0.2284
   25CHL1  H15B 2976   2.236   6.176   5.105 -0.3067 -1.0846 -1.5558
   25CHL1   C16 2977   2.065   6.061   5.026  0.0409 -0.2374  0.0916
   25CHL1  H16A 2978   2.001   6.131   4.969 -0.6702  0.1261  1.3164
   25CHL1  H16B 2979   2.145   6.033   4.954  1.5826  1.3868  1.0922
   25CHL1   C17 2980   1.990   5.953   5.112 -0.0347 -0.4994  0.0964
   25CHL1   H17 2981   2.065   5.871   5.118 -0.3604 -0.7596  0.7263
   25CHL1   C13 2982   1.983   6.001   5.255  0.9364 -0.3056  0.8839
   25CHL1   C18 2983   1.856   6.102   5.250  0.8012  1.0733 -0.0674
   25CHL1  H18A 2984   1.817   6.131   5.350 -0.5092 -1.5083  0.2390
   25CHL1  H18B 2985   1.868   6.182   5.173 -0.2041  0.8159 -0.5065
   25CHL1  H18C 2986   1.770   6.038   5.220  2.0035 -1.9308  2.3740
   25CHL1   C12 2987   1.980   5.901   5.371  0.2860 -0.2972  0.4066
   25CHL1  H12A 2988   1.885   5.843   5.369 -0.0941  0.3316 -0.6738
   25CHL1  H12B 2989   2.059   5.824   5.369  1.4923  0.9066 -0.0904
   25CHL1   C11 2990   1.992   5.977   5.504  0.0374  0.2905  0.0697
   25CHL1  H11A 2991   1.905   6.046   5.505 -1.4602 -1.3257 -3.2520
   25CHL1  H11B 2992   1.979   5.907   5.590  0.8639 -0.2297 -0.2171
   25CHL1    C9 2993   2.111   6.075   5.505 -0.4149 -0.0562  0.3563
   25CHL1    H9 2994   2.202   6.013   5.493  0.2626  1.0058 -0.0461
   25CHL1   C10 2995   2.140   6.148   5.641  0.8649  0.1304 -0.2137
   25CHL1   C19 2996   1.996   6.202   5.686 -0.8997 -0.5110  0.0877
   25CHL1  H19A 2997   1.938   6.113   5.719  1.0564 -1.4031  1.3239
   25CHL1  H19B 2998   2.009   6.261   5.780  0.0698  0.8179 -0.8334
   25CHL1  H19C 2999   1.963   6.263   5.599 -0.7500  0.0376  0.4119
   25CHL1    C1 3000   2.196   6.039   5.738 -0.9122 -0.1390  0.1302
   25CHL1   H1A 3001   2.128   5.952   5.749 -1.4157  0.0346 -1.3548
   25CHL1   H1B 3002   2.286   6.002   5.684  0.5070  1.2594  1.4352
   25CHL1    C2 3003   2.240   6.088   5.877 -0.7241 -0.8116  0.0109
   25CHL1   H2A 3004   2.288   6.005   5.933 -1.3997  1.2009  3.8937
   25CHL1   H2B 3005   2.154   6.129   5.934  0.4219  0.1253  1.1227
   25CHL1   C20 3006   1.872   5.880   5.050 -0.7877  0.3984 -0.2296
   25CHL1   H20 3007   1.793   5.958   5.044 -0.1647  1.0755  0.2985
   25CHL1   C21 3008   1.805   5.761   5.124 -0.4510  0.1101 -0.2269
   25CHL1  H21A 3009   1.733   5.714   5.054 -0.3354  1.5500 -1.3474
   25CHL1  H21B 3010   1.745   5.787   5.214 -0.1268  4.1780 -0.9962
   25CHL1  H21C 3011   1.888   5.692   5.150 -0.8095  0.1388  1.1047
   25CHL1   C22 3012   1.906   5.840   4.896 -0.0087 -0.5461 -0.1957
   25CHL1  H22A 3013   1.976   5.916   4.856 -0.8772  0.6442  0.4703
   25CHL1  H22B 3014   1.952   5.739   4.891  0.3440 -0.3568 -1.0426
   25CHL1   C23 3015   1.775   5.837   4.816  0.8536  0.2368 -0.4630
   25CHL1  H23A 3016   1.709   5.750   4.836  0.8042 -0.1619 -2.1977
   25CHL1  H23B 3017   1.718   5.929   4.842 -1.1938 -0.8074 -1.0539
   25CHL1   C24 3018   1.788   5.843   4.660  0.1410 -0.5353 -0.1633
   25CHL1  H24A 3019   1.862   5.918   4.624 -0.3644 -0.2585 -0.6359
   25CHL1  H24B 3020   1.836   5.745   4.640  0.2311 -0.2100 -1.6718
   25CHL1   C25 3021   1.655   5.853   4.581 -0.1724  0.8576  0.2647
   25CHL1   H25 3022   1.589   5.779   4.631 -1.1417  0.7477 -1.1034
   25CHL1   C26 3023   1.594   5.989   4.582  0.2474  1.1085  0.4816
   25CHL1  H26A 3024   1.494   5.983   4.534  0.3551  1.1889  0.2454
   25CHL1  H26B 3025   1.586   6.028   4.685 -0.8257  0.0156  0.8364
   25CHL1  H26C 3026   1.655   6.059   4.521  2.6418 -0.7513  0.5448
   25CHL1   C27 3027   1.677   5.802   4.434  0.3632  0.6040  0.2355
   25CHL1  H27A 3028   1.578   5.791   4.386 -0.0097  0.8633  0.9213
   25CHL1  H27B 3029   1.743   5.876   4.385  1.5263  0.5131  1.5799
   25CHL1  H27C 3030   1.721   5.702   4.453  2.0541  0.9545 -1.5759
   26CHL1    C3 3031   5.588   3.309   6.135 -0.2073 -0.0513  1.0029
   26CHL1    H3 3032   5.592   3.420   6.126  1.1125 -0.1521  0.0661
   26CHL1    O3 3033   5.530   3.271   6.256 -0.5259  0.3345  0.2603
   26CHL1   H3' 3034   5.602   3.269   6.320 -1.1056 -0.5401  0.8983
   26CHL1    C4 3035   5.512   3.244   6.019  0.4346 -0.3607  0.0806
   26CHL1   H4A 3036   5.495   3.137   6.044 -1.2220 -0.2446 -0.4392
   26CHL1   H4B 3037   5.411   3.287   6.031  0.7799  0.6056 -0.3148
   26CHL1    C5 3038   5.570   3.268   5.885 -0.4911  0.0987  0.1719
   26CHL1    C6 3039   5.498   3.320   5.783  0.4281 -0.5634  0.6412
   26CHL1    H6 3040   5.396   3.351   5.809  0.6930  1.5709 -0.6187
   26CHL1    C7 3041   5.553   3.326   5.642  0.9936  0.6588 -0.6561
   26CHL1   H7A 3042   5.483   3.301   5.560  1.5934 -0.0886 -0.9541
   26CHL1   H7B 3043   5.589   3.429   5.620  1.8378  0.7539  0.9947
   26CHL1    C8 3044   5.679   3.230   5.626  0.0071  0.1855 -0.0888
   26CHL1    H8 3045   5.643   3.125   5.620  0.4596 -0.0264  0.6981
   26CHL1   C14 3046   5.758   3.260   5.498 -0.0252  0.5718  0.3462
   26CHL1   H14 3047   5.797   3.364   5.507  1.8446 -0.2369  2.5650
   26CHL1   C15 3048   5.672   3.271   5.360 -0.1041  0.5980  0.0459
   26CHL1  H15A 3049   5.620   3.173   5.344 -1.5614  1.5714 -1.5233
   26CHL1  H15B 3050   5.603   3.357   5.348  1.3108  1.5233 -1.8328
   26CHL1   C16 3051   5.779   3.291   5.257 -0.2286  0.1193  0.7641
   26CHL1  H16A 3052   5.767   3.229   5.165 -1.2268 -0.8233  1.5018
   26CHL1  H16B 3053   5.794   3.399   5.234 -0.2144 -0.2745 -1.2287
   26CHL1   C17 3054   5.917   3.247   5.324 -0.0284  0.1486  0.2541
   26CHL1   H17 3055   5.977   3.340   5.342  0.8156 -0.5363  1.0666
   26CHL1   C13 3056   5.880   3.187   5.467  0.8964  0.0421 -0.3257
   26CHL1   C18 3057   5.848   3.036   5.446 -0.2722 -0.0521  0.0854
   26CHL1  H18A 3058   5.777   3.016   5.363 -0.4781  0.6922  0.0797
   26CHL1  H18B 3059   5.941   2.987   5.407 -0.2479  0.0570  0.0060
   26CHL1  H18C 3060   5.823   2.994   5.546 -1.6857  2.7910  1.0297
   26CHL1   C12 3061   5.980   3.219   5.582 -1.2806  0.3525 -0.6723
   26CHL1  H12A 3062   6.066   3.153   5.559 -0.9090  0.8672 -0.7634
   26CHL1  H12B 3063   6.000   3.329   5.581  0.8405  0.0583  0.9293
   26CHL1   C11 3064   5.920   3.195   5.717  0.2798 -0.1310 -0.0202
   26CHL1  H11A 3065   5.927   3.086   5.732 -1.7512 -0.1573  1.2395
   26CHL1  H11B 3066   5.993   3.236   5.790  0.2947 -0.6683  0.2713
   26CHL1    C9 3067   5.776   3.249   5.743 -0.1514  0.0717  0.2386
   26CHL1    H9 3068   5.777   3.360   5.738 -1.0969  0.0930  0.3350
   26CHL1   C10 3069   5.711   3.210   5.877  0.2580  0.1262 -0.2752
   26CHL1   C19 3070   5.717   3.064   5.884  0.0798  0.1032 -0.1373
   26CHL1  H19A 3071   5.654   3.022   5.965 -1.8821  1.7943 -0.6975
   26CHL1  H19B 3072   5.681   3.016   5.790  0.0625  1.8535 -1.0618
   26CHL1  H19C 3073   5.820   3.030   5.907 -0.6296 -2.1721  0.0276
   26CHL1    C1 3074   5.797   3.266   5.991  0.0859 -0.4822 -0.2307
   26CHL1   H1A 3075   5.902   3.231   5.985  0.6037  1.0369 -0.6535
   26CHL1   H1B 3076   5.807   3.376   5.973 -1.0170 -0.2993  0.1866
   26CHL1    C2 3077   5.735   3.261   6.129 -0.2430  0.6157 -0.0401
   26CHL1   H2A 3078   5.810   3.312   6.194  0.2547  2.3276 -1.8555
   26CHL1   H2B 3079   5.732   3.154   6.159  1.5377  0.0277 -1.6939
   26CHL1   C20 3080   6.005   3.169   5.226 -0.1343 -0.4638  0.4663
   26CHL1   H20 3081   5.959   3.074   5.192  0.9639 -0.0714 -2.4402
   26CHL1   C21 3082   6.147   3.144   5.285  0.5806  0.0507  0.1151
   26CHL1  H21A 3083   6.145   3.091   5.382 -2.3312  0.4407  0.3599
   26CHL1  H21B 3084   6.200   3.239   5.303  1.4306 -0.2994 -0.4548
   26CHL1  H21C 3085   6.203   3.078   5.215  0.1513 -1.8312  1.4651
   26CHL1   C22 3086   6.029   3.245   5.099 -0.1523 -0.4468  0.4346
   26CHL1  H22A 3087   5.936   3.284   5.053  0.2780  0.8745  0.6593
   26CHL1  H22B 3088   6.091   3.335   5.115  0.3547 -0.9572  1.4818
   26CHL1   C23 3089   6.091   3.151   4.992 -0.1387 -0.1263 -0.2592
   26CHL1  H23A 3090   6.195   3.125   5.021 -0.4136 -0.7001  0.2106
   26CHL1  H23B 3091   6.037   3.055   4.997 -0.9448  0.0771 -3.1047
   26CHL1   C24 3092   6.121   3.223   4.863  0.5697  0.0867 -0.5419
   26CHL1  H24A 3093   6.032   3.271   4.817 -0.5378  0.4188  1.8064
   26CHL1  H24B 3094   6.195   3.304   4.879  1.4619 -0.4967 -1.5286
   26CHL1   C25 3095   6.203   3.130   4.769  0.8524 -0.6657  0.6457
   26CHL1   H25 3096   6.268   3.060   4.826  1.0299 -1.9037 -1.0122
   26CHL1   C26 3097   6.112   3.032   4.691  0.4418  0.5262 -0.0778
   26CHL1  H26A 3098   6.166   2.978   4.610  0.4239  0.1911  0.1334
   26CHL1  H26B 3099   6.079   2.948   4.756 -0.2209  0.0579 -1.0059
   26CHL1  H26C 3100   6.024   3.087   4.653  0.0672  0.1060  0.1808
   26CHL1   C27 3101   6.304   3.206   4.675 -0.7653  0.0549 -0.5724
   26CHL1  H27A 3102   6.358   3.130   4.615  0.1997  1.9055 -2.1492
   26CHL1  H27B 3103   6.242   3.278   4.616  0.9221  1.1756 -1.0524
   26CHL1  H27C 3104   6.374   3.264   4.739 -0.2271  0.7223 -1.7170
   27CHL1    C3 3105   3.114   2.864   6.273 -0.3982  0.3188  0.5235
   27CHL1    H3 3106   3.201   2.796   6.287  0.2822  0.8688 -0.8680
   27CHL1    O3 3107   3.070   2.894   6.402  0.0649  0.6696 -0.5232
   27CHL1   H3' 3108   3.003   2.827   6.418 -1.3137  1.6674 -1.7899
   27CHL1    C4 3109   3.159   2.997   6.216  0.5660 -0.7721  0.4826
   27CHL1   H4A 3110   3.076   3.070   6.224  0.1569 -0.9741 -1.5847
   27CHL1   H4B 3111   3.235   3.042   6.285  0.1459 -0.7653  0.9489
   27CHL1    C5 3112   3.205   2.994   6.069 -0.7801 -0.4713  0.6183
   27CHL1    C6 3113   3.332   3.041   6.040 -0.0751 -0.1758 -0.4053
   27CHL1    H6 3114   3.386   3.088   6.123 -0.5802 -0.6806  0.2173
   27CHL1    C7 3115   3.391   3.033   5.896 -0.4112 -1.0062  0.1842
   27CHL1   H7A 3116   3.411   3.139   5.867 -3.3337 -0.0370  1.4178
   27CHL1   H7B 3117   3.483   2.970   5.905  1.7588  1.7749 -0.8162
   27CHL1    C8 3118   3.296   2.985   5.782 -0.1656  0.4186  0.1986
   27CHL1    H8 3119   3.236   3.072   5.749  0.4908  1.0264  0.5602
   27CHL1   C14 3120   3.373   2.940   5.662  0.6030  0.0277 -0.3439
   27CHL1   H14 3121   3.442   2.865   5.706  0.9623  0.4923 -0.1069
   27CHL1   C15 3122   3.462   3.043   5.606  0.0978 -0.2578  0.4475
   27CHL1  H15A 3123   3.407   3.139   5.603  1.0230  0.2860  0.4665
   27CHL1  H15B 3124   3.554   3.062   5.666  0.6435 -1.0226 -0.1224
   27CHL1   C16 3125   3.495   2.993   5.464  0.2327 -0.4112 -0.0078
   27CHL1  H16A 3126   3.475   3.069   5.386 -0.2267 -1.5336 -1.0134
   27CHL1  H16B 3127   3.600   2.957   5.456  1.2902  1.6935  2.7591
   27CHL1   C17 3128   3.405   2.867   5.435 -0.9236 -0.4462  0.7543
   27CHL1   H17 3129   3.469   2.780   5.458 -1.2421 -0.9018 -0.0488
   27CHL1   C13 3130   3.294   2.878   5.546 -0.1353 -0.4162 -0.2100
   27CHL1   C18 3131   3.178   2.966   5.499  0.0002 -0.5809 -1.1200
   27CHL1  H18A 3132   3.088   2.983   5.562 -0.3657 -0.5274 -1.6424
   27CHL1  H18B 3133   3.226   3.063   5.473  0.0513  0.0352  1.0974
   27CHL1  H18C 3134   3.119   2.928   5.412 -1.4009  2.1558 -1.4691
   27CHL1   C12 3135   3.235   2.745   5.611 -0.1890 -0.3577  0.1587
   27CHL1  H12A 3136   3.174   2.691   5.536 -1.2795  1.5871 -0.4370
   27CHL1  H12B 3137   3.317   2.678   5.644 -0.8062 -1.1966  0.0280
   27CHL1   C11 3138   3.148   2.777   5.739 -0.4290  0.2760  0.5364
   27CHL1  H11A 3139   3.061   2.825   5.690 -1.0063 -2.8284 -1.7828
   27CHL1  H11B 3140   3.118   2.680   5.786  0.4122 -0.4467 -0.3723
   27CHL1    C9 3141   3.214   2.872   5.843 -0.5769  0.2284  0.5337
   27CHL1    H9 3142   3.297   2.815   5.890 -0.8121  0.4688  1.2583
   27CHL1   C10 3143   3.121   2.920   5.963  0.1079  0.1040 -0.2130
   27CHL1   C19 3144   3.005   3.008   5.910  0.5112  0.2098 -0.1226
   27CHL1  H19A 3145   2.942   2.954   5.836 -0.6603  0.3894  0.7157
   27CHL1  H19B 3146   2.932   3.040   5.987  0.8537  0.8471 -0.0517
   27CHL1  H19C 3147   3.050   3.100   5.866 -0.5781  1.4812  1.3107
   27CHL1    C1 3148   3.068   2.789   6.038  0.6056 -0.0465  0.2211
   27CHL1   H1A 3149   3.006   2.726   5.972 -2.2179  2.2836  0.4332
   27CHL1   H1B 3150   3.162   2.731   6.045  0.8633  0.2845 -0.4128
   27CHL1    C2 3151   3.010   2.804   6.174  1.0273  0.3065 -0.9228
   27CHL1   H2A 3152   2.976   2.703   6.206  2.8642  0.1589  0.7627
   27CHL1   H2B 3153   2.927   2.876   6.189 -0.1587 -0.9977 -0.9464
   27CHL1   C20 3154   3.369   2.857   5.288 -0.0264  0.4220 -0.1362
   27CHL1   H20 3155   3.319   2.950   5.254 -1.7945 -1.6098 -3.7181
   27CHL1   C21 3156   3.284   2.736   5.267  0.1426  0.1318  0.3664
   27CHL1  H21A 3157   3.257   2.719   5.160  2.7121  0.7828 -0.4529
   27CHL1  H21B 3158   3.191   2.732   5.327 -0.9908  3.4332 -0.9353
   27CHL1  H21C 3159   3.334   2.639   5.290 -0.9297 -0.4256  0.4219
   27CHL1   C22 3160   3.497   2.851   5.195  0.1983 -0.4301  0.2858
   27CHL1  H22A 3161   3.570   2.931   5.223  0.4297  1.4545 -4.6403
   27CHL1  H22B 3162   3.558   2.759   5.211  1.7662  0.2766 -1.3169
   27CHL1   C23 3163   3.477   2.851   5.047 -0.0957 -0.1923  0.6819
   27CHL1  H23A 3164   3.571   2.806   5.010  0.4293  0.2086  1.5127
   27CHL1  H23B 3165   3.399   2.777   5.016 -1.0113  0.5743  1.0940
   27CHL1   C24 3166   3.457   2.985   4.973  0.3332 -0.0209  0.6036
   27CHL1  H24A 3167   3.357   3.026   4.999  0.3603  0.2796  0.2434
   27CHL1  H24B 3168   3.526   3.065   5.008 -0.6331  0.3618  1.7202
   27CHL1   C25 3169   3.473   2.973   4.822  0.4565 -0.5876  0.2853
   27CHL1   H25 3170   3.399   2.895   4.792 -2.7493  1.4232  2.2859
   27CHL1   C26 3171   3.428   3.106   4.759 -0.2280  0.8444  0.0815
   27CHL1  H26A 3172   3.505   3.185   4.778  1.3054 -0.0797 -1.8848
   27CHL1  H26B 3173   3.418   3.086   4.650 -0.2667 -3.7372  0.7348
   27CHL1  H26C 3174   3.330   3.125   4.807 -1.2441  0.5206 -1.7728
   27CHL1   C27 3175   3.619   2.932   4.774  0.3695 -0.0488  1.1078
   27CHL1  H27A 3176   3.638   2.826   4.800  0.8039  0.0081  1.0324
   27CHL1  H27B 3177   3.691   2.999   4.826  0.3980 -1.1841  2.6121
   27CHL1  H27C 3178   3.610   2.934   4.664  1.6886  0.8774  0.9922
   28CHL1    C3 3179   1.196   2.581   6.567  0.6132 -0.4006  0.0040
   28CHL1    H3 3180   1.304   2.570   6.594 -0.3631 -1.6422  4.1717
   28CHL1    O3 3181   1.125   2.616   6.689 -0.1773  0.0322 -0.4631
   28CHL1   H3' 3182   1.034   2.587   6.678  0.0368 -0.3812 -1.1851
   28CHL1    C4 3183   1.173   2.691   6.466  0.3884  0.4804 -0.0487
   28CHL1   H4A 3184   1.062   2.703   6.467 -0.1364 -3.0398 -1.7170
   28CHL1   H4B 3185   1.210   2.785   6.513 -1.9616  0.6883  1.5599
   28CHL1    C5 3186   1.226   2.668   6.323 -0.1102  0.6552  0.1292
   28CHL1    C6 3187   1.303   2.761   6.263  0.2331 -0.0330  0.0125
   28CHL1    H6 3188   1.326   2.860   6.302 -0.0687 -0.7160  2.0178
   28CHL1    C7 3189   1.364   2.740   6.127 -0.2853  0.1336  0.1420
   28CHL1   H7A 3190   1.337   2.826   6.062  0.7799 -0.2544 -0.8586
   28CHL1   H7B 3191   1.475   2.739   6.135 -0.1215  0.8499 -1.6508
   28CHL1    C8 3192   1.311   2.614   6.053 -0.4910 -1.0760 -0.0361
   28CHL1    H8 3193   1.211   2.652   6.024  0.2288  1.3271  0.4539
   28CHL1   C14 3194   1.395   2.577   5.933  0.3166 -0.4940  0.2942
   28CHL1   H14 3195   1.490   2.545   5.980 -0.0907 -0.4352  1.1818
   28CHL1   C15 3196   1.421   2.688   5.823 -0.1368 -0.0659  0.2680
   28CHL1  H15A 3197   1.324   2.737   5.800  0.1801  0.2177 -0.4853
   28CHL1  H15B 3198   1.491   2.756   5.876  0.3194 -1.8786  2.0935
   28CHL1   C16 3199   1.478   2.611   5.700 -0.1601 -0.0943 -0.4746
   28CHL1  H16A 3200   1.405   2.635   5.620 -0.4857  0.5821  0.0247
   28CHL1  H16B 3201   1.581   2.649   5.682 -0.8706  2.0603 -0.2458
   28CHL1   C17 3202   1.464   2.466   5.735 -0.2167 -0.4260 -0.0601
   28CHL1   H17 3203   1.558   2.437   5.786  0.5180  2.1835  0.2417
   28CHL1   C13 3204   1.361   2.452   5.855  0.3842 -1.1744  0.0832
   28CHL1   C18 3205   1.227   2.470   5.784 -0.3361 -0.0767 -0.4374
   28CHL1  H18A 3206   1.235   2.533   5.692 -0.1400  2.0526  0.9518
   28CHL1  H18B 3207   1.175   2.377   5.753 -1.4028  0.0772  0.7990
   28CHL1  H18C 3208   1.162   2.535   5.848  2.2731  2.0334  0.2550
   28CHL1   C12 3209   1.363   2.330   5.948  0.1265 -0.6818 -0.8297
   28CHL1  H12A 3210   1.333   2.231   5.909  0.0809 -0.2253 -1.9810
   28CHL1  H12B 3211   1.467   2.319   5.985  0.2102  2.6053  0.2978
   28CHL1   C11 3212   1.269   2.363   6.078  0.1868  0.5283  0.1535
   28CHL1  H11A 3213   1.168   2.374   6.035 -0.4711  2.6633  2.0946
   28CHL1  H11B 3214   1.273   2.272   6.142  3.0509 -0.7292 -1.5830
   28CHL1    C9 3215   1.303   2.497   6.147  0.2561  0.1400  0.3538
   28CHL1    H9 3216   1.406   2.485   6.186 -1.3234  2.1257  6.3694
   28CHL1   C10 3217   1.211   2.525   6.268  0.6172 -0.3253  0.5424
   28CHL1   C19 3218   1.057   2.512   6.225 -0.6141  0.1163  0.2466
   28CHL1  H19A 3219   1.030   2.415   6.177  1.0587 -0.6559  0.7729
   28CHL1  H19B 3220   0.999   2.525   6.318  1.4039  4.0546  1.1613
   28CHL1  H19C 3221   1.018   2.589   6.156 -1.1924 -0.7052 -0.3682
   28CHL1    C1 3222   1.248   2.423   6.382  0.0918  0.0585 -0.4028
   28CHL1   H1A 3223   1.216   2.324   6.343 -3.7324  0.3772  1.3620
   28CHL1   H1B 3224   1.358   2.432   6.394  0.3151  0.5678 -2.4241
   28CHL1    C2 3225   1.170   2.436   6.511 -0.4664 -0.0842 -0.5151
   28CHL1   H2A 3226   1.184   2.368   6.598 -0.0066  1.2944  0.5212
   28CHL1   H2B 3227   1.060   2.425   6.502 -0.4388 -3.5615  1.5970
   28CHL1   C20 3228   1.445   2.384   5.607  0.0236 -0.1154  0.8468
   28CHL1   H20 3229   1.356   2.420   5.551 -1.0727 -0.2319  2.4226
   28CHL1   C21 3230   1.430   2.237   5.637  0.3335  0.0153  0.5167
   28CHL1  H21A 3231   1.439   2.169   5.550 -0.2216 -2.3706  2.2289
   28CHL1  H21B 3232   1.332   2.219   5.685  0.2654  0.1138  0.4140
   28CHL1  H21C 3233   1.503   2.202   5.713  1.6921 -2.3002 -1.6955
   28CHL1   C22 3234   1.561   2.410   5.508  0.4320 -0.0214  0.3526
   28CHL1  H22A 3235   1.576   2.516   5.480 -1.3374 -0.6237 -3.5004
   28CHL1  H22B 3236   1.655   2.364   5.547 -0.0053 -2.1604 -0.9386
   28CHL1   C23 3237   1.542   2.364   5.357 -0.1115 -0.4648 -0.2929
   28CHL1  H23A 3238   1.541   2.253   5.368  2.8294 -0.5013  0.4645
   28CHL1  H23B 3239   1.446   2.401   5.314  0.4802 -1.2734 -2.4318
   28CHL1   C24 3240   1.659   2.406   5.271  0.1233  0.1386 -0.5796
   28CHL1  H24A 3241   1.673   2.514   5.290 -1.6996  0.3021  0.0184
   28CHL1  H24B 3242   1.746   2.344   5.302 -1.3920 -3.1459 -2.3529
   28CHL1   C25 3243   1.644   2.383   5.121 -0.7622  0.3012 -0.2496
   28CHL1   H25 3244   1.548   2.425   5.084 -1.9713 -0.2588  2.0993
   28CHL1   C26 3245   1.749   2.460   5.032 -0.2873  0.0049 -0.3827
   28CHL1  H26A 3246   1.741   2.569   5.052 -1.1423 -0.4792  2.3454
   28CHL1  H26B 3247   1.847   2.428   5.072 -1.4970 -1.9433  1.2221
   28CHL1  H26C 3248   1.746   2.433   4.924 -1.1351 -0.3976 -0.2639
   28CHL1   C27 3249   1.639   2.230   5.083  0.3701 -0.1850 -0.9431
   28CHL1  H27A 3250   1.588   2.184   5.171  3.4736 -0.6940  0.7370
   28CHL1  H27B 3251   1.591   2.209   4.985 -1.3527 -0.8747  0.0160
   28CHL1  H27C 3252   1.738   2.181   5.095  0.7617  0.8109  0.1309
   29CHL1    C3 3253   5.826   5.577   6.312  0.7724 -0.5571 -0.4602
   29CHL1    H3 3254   5.841   5.674   6.259 -0.4244 -0.5900 -0.8906
   29CHL1    O3 3255   5.819   5.600   6.451  0.5279  0.2335 -0.7358
   29CHL1   H3' 3256   5.860   5.522   6.490  1.8462  1.6187  0.8540
   29CHL1    C4 3257   5.688   5.529   6.262  0.2643  0.3323  0.3538
   29CHL1   H4A 3258   5.637   5.452   6.324 -1.7770  1.7135  0.4958
   29CHL1   H4B 3259   5.612   5.609   6.274 -1.8296 -1.3436 -1.0281
   29CHL1    C5 3260   5.682   5.493   6.122 -0.7789  0.3836  0.5029
   29CHL1    C6 3261   5.611   5.556   6.030 -1.1342  0.3928 -0.1511
   29CHL1    H6 3262   5.551   5.639   6.070  1.3782  1.5783  1.4859
   29CHL1    C7 3263   5.608   5.513   5.886 -0.1214  0.9755 -0.3937
   29CHL1   H7A 3264   5.503   5.502   5.851 -0.3399 -0.0824  0.5177
   29CHL1   H7B 3265   5.658   5.600   5.839  0.8861  1.1690  0.9510
   29CHL1    C8 3266   5.686   5.384   5.846  0.1031  0.6759  0.1165
   29CHL1    H8 3267   5.629   5.289   5.855  1.2514 -0.0140  0.3033
   29CHL1   C14 3268   5.730   5.388   5.701  0.7455 -0.8062 -0.1163
   29CHL1   H14 3269   5.799   5.475   5.696  1.0939 -0.9997  1.0312
   29CHL1   C15 3270   5.628   5.435   5.597  0.3902 -0.6995 -0.5262
   29CHL1  H15A 3271   5.538   5.373   5.617 -0.1627  0.1230 -0.4524
   29CHL1  H15B 3272   5.611   5.545   5.597  2.5904 -0.3019  0.0148
   29CHL1   C16 3273   5.700   5.392   5.467  0.0410 -0.1292 -0.2466
   29CHL1  H16A 3274   5.627   5.340   5.402  0.3905  0.9098 -1.5099
   29CHL1  H16B 3275   5.732   5.484   5.413  0.2006 -0.5069 -0.8083
   29CHL1   C17 3276   5.826   5.304   5.505  0.2742  0.6514  0.4170
   29CHL1   H17 3277   5.917   5.365   5.522 -0.0782  1.1485  0.5340
   29CHL1   C13 3278   5.796   5.262   5.651  0.2952  0.7743 -0.4937
   29CHL1   C18 3279   5.696   5.143   5.646  0.9914 -0.1359 -0.2190
   29CHL1  H18A 3280   5.724   5.050   5.591  1.4716 -1.5889  2.3140
   29CHL1  H18B 3281   5.667   5.110   5.748 -0.5427  0.7233 -0.3532
   29CHL1  H18C 3282   5.598   5.171   5.601  1.8412 -1.1202 -2.8714
   29CHL1   C12 3283   5.917   5.230   5.742 -0.1363  0.2373  0.0433
   29CHL1  H12A 3284   5.963   5.129   5.738 -0.6134  0.0558 -1.2693
   29CHL1  H12B 3285   5.993   5.309   5.725 -0.6105  0.7895  0.4434
   29CHL1   C11 3286   5.884   5.240   5.896  0.0121  0.1932  0.5118
   29CHL1  H11A 3287   5.820   5.151   5.915  0.3431 -0.1487  0.0265
   29CHL1  H11B 3288   5.980   5.235   5.951  1.5177  2.2509 -1.7160
   29CHL1    C9 3289   5.806   5.373   5.938 -0.6019 -0.3153  0.5557
   29CHL1    H9 3290   5.884   5.445   5.903  0.2456 -1.0389  0.9364
   29CHL1   C10 3291   5.790   5.386   6.086 -0.5073  0.1617  0.4054
   29CHL1   C19 3292   5.728   5.259   6.141 -0.4689 -1.0470 -0.2349
   29CHL1  H19A 3293   5.680   5.266   6.242 -1.2227  0.8996 -0.6898
   29CHL1  H19B 3294   5.635   5.241   6.084 -0.2039  0.6629 -1.2716
   29CHL1  H19C 3295   5.793   5.168   6.136 -0.0495 -0.9843  2.3798
   29CHL1    C1 3296   5.934   5.417   6.140  0.0019 -0.7401 -0.2939
   29CHL1   H1A 3297   5.989   5.321   6.134 -0.2647 -0.8695 -0.6728
   29CHL1   H1B 3298   5.984   5.496   6.080 -0.4348  0.6595  1.0940
   29CHL1    C2 3299   5.928   5.469   6.285  0.0852 -0.3260  0.0894
   29CHL1   H2A 3300   6.025   5.514   6.316 -1.6260  2.3352  2.1230
   29CHL1   H2B 3301   5.904   5.382   6.349 -0.1957  0.8360  1.6223
   29CHL1   C20 3302   5.861   5.200   5.391 -0.4473  0.1685 -0.1171
   29CHL1   H20 3303   5.776   5.129   5.390 -2.5253  2.5374 -1.2090
   29CHL1   C21 3304   5.995   5.129   5.417 -0.1258 -0.0384 -0.3346
   29CHL1  H21A 3305   5.993   5.084   5.518  1.5312  0.7076  0.0723
   29CHL1  H21B 3306   6.084   5.195   5.420 -0.8743  0.9574  0.4548
   29CHL1  H21C 3307   6.024   5.038   5.360  1.5139  0.1148  0.1965
   29CHL1   C22 3308   5.875   5.261   5.244 -0.0840 -0.2234  0.1001
   29CHL1  H22A 3309   5.785   5.313   5.206  1.6251  0.2997 -3.7561
   29CHL1  H22B 3310   5.956   5.336   5.235 -0.0731 -0.4268 -1.9016
   29CHL1   C23 3311   5.910   5.164   5.128  0.5984  0.4307 -0.6137
   29CHL1  H23A 3312   6.009   5.116   5.139 -0.3617 -2.2684 -2.5293
   29CHL1  H23B 3313   5.846   5.073   5.120  0.3103  0.5190  0.5377
   29CHL1   C24 3314   5.906   5.223   4.984  0.7613  0.6911 -0.2330
   29CHL1  H24A 3315   5.804   5.264   4.970  0.4543  0.7590  1.9008
   29CHL1  H24B 3316   5.978   5.307   4.969  2.5401 -0.5105  1.1567
   29CHL1   C25 3317   5.934   5.111   4.876 -0.7257 -0.5062 -0.2189
   29CHL1   H25 3318   5.870   5.024   4.902 -1.9914  0.1393 -1.0763
   29CHL1   C26 3319   5.890   5.162   4.738 -0.3483 -0.0005 -0.1138
   29CHL1  H26A 3320   5.780   5.165   4.723 -0.4771 -0.6888  0.6676
   29CHL1  H26B 3321   5.942   5.258   4.715  3.6764 -1.0041  3.5771
   29CHL1  H26C 3322   5.923   5.084   4.666  0.3213  1.0991 -1.0391
   29CHL1   C27 3323   6.076   5.061   4.882  0.2581  0.0948  0.0376
   29CHL1  H27A 3324   6.152   5.141   4.875  0.4586 -0.1881 -1.4747
   29CHL1  H27B 3325   6.094   4.996   4.970 -1.7664  0.4253  0.7608
   29CHL1  H27C 3326   6.096   4.981   4.807 -0.0497 -1.9098  1.9876
   30CHL1    C3 3327   4.282   4.372   5.986 -1.3088 -0.1774 -1.2098
   30CHL1    H3 3328   4.370   4.306   6.004 -0.1002  0.6448 -3.6029
   30CHL1    O3 3329   4.241   4.413   6.115  0.0944 -0.5230 -0.1871
   30CHL1   H3' 3330   4.158   4.461   6.108  0.5879  0.1389 -2.0550
   30CHL1    C4 3331   4.331   4.488   5.894  0.2424 -0.0544  0.4334
   30CHL1   H4A 3332   4.242   4.555   5.896 -1.1293 -1.7784  0.0279
   30CHL1   H4B 3333   4.409   4.550   5.943  0.5251  0.5113 -0.7047
   30CHL1    C5 3334   4.371   4.433   5.763 -0.2140 -0.0466 -0.2137
   30CHL1    C6 3335   4.495   4.464   5.722  0.6404 -0.6043 -0.6547
   30CHL1    H6 3336   4.549   4.525   5.796 -0.7287 -0.1019 -0.0369
   30CHL1    C7 3337   4.560   4.429   5.598 -0.8232  0.1501  0.3500
   30CHL1   H7A 3338   4.631   4.503   5.556  0.7797 -1.0130  0.8847
   30CHL1   H7B 3339   4.626   4.340   5.606 -2.7123 -1.8701 -3.5205
   30CHL1    C8 3340   4.451   4.373   5.506 -0.1348  1.1283  0.8368
   30CHL1    H8 3341   4.393   4.460   5.468 -1.2526 -0.3278 -0.9731
   30CHL1   C14 3342   4.507   4.307   5.378 -0.3467 -0.4041  0.1779
   30CHL1   H14 3343   4.566   4.222   5.418 -1.0504 -1.5723 -1.2107
   30CHL1   C15 3344   4.609   4.384   5.296 -0.3959 -0.1376  0.1073
   30CHL1  H15A 3345   4.575   4.487   5.274  2.2754  0.6096 -0.8526
   30CHL1  H15B 3346   4.704   4.404   5.349  0.2149  0.5695 -1.1989
   30CHL1   C16 3347   4.629   4.293   5.177 -1.2260 -0.1225  1.0218
   30CHL1  H16A 3348   4.626   4.348   5.081  1.6516 -2.7453 -0.7737
   30CHL1  H16B 3349   4.727   4.242   5.185 -1.9829 -1.6084  1.1548
   30CHL1   C17 3350   4.513   4.189   5.179  0.1834  0.2093  1.0997
   30CHL1   H17 3351   4.554   4.099   5.230  3.0590 -0.3154 -1.7698
   30CHL1   C13 3352   4.416   4.245   5.278  1.0543 -0.6912 -0.0086
   30CHL1   C18 3353   4.321   4.358   5.215  0.3146 -0.4119  0.3957
   30CHL1  H18A 3354   4.386   4.428   5.157 -2.4530  2.4206  0.4307
   30CHL1  H18B 3355   4.252   4.318   5.137  1.2182  0.5973 -0.9717
   30CHL1  H18C 3356   4.268   4.419   5.291  0.8501  2.8210 -1.6252
   30CHL1   C12 3357   4.332   4.132   5.349  0.7378 -1.0240  0.2603
   30CHL1  H12A 3358   4.255   4.090   5.280  0.7037  0.2172 -0.4731
   30CHL1  H12B 3359   4.393   4.046   5.385 -0.3126 -2.0192 -0.2645
   30CHL1   C11 3360   4.261   4.196   5.464  0.6245  0.8835  0.3159
   30CHL1  H11A 3361   4.182   4.257   5.416 -1.3546 -2.0629 -0.4506
   30CHL1  H11B 3362   4.218   4.113   5.524  1.4264  1.9164  2.4340
   30CHL1    C9 3363   4.352   4.272   5.574  0.0604  0.0865  0.3941
   30CHL1    H9 3364   4.412   4.187   5.614  2.0512  0.3113 -1.8607
   30CHL1   C10 3365   4.275   4.330   5.689 -0.1679  0.6942 -0.0983
   30CHL1   C19 3366   4.144   4.396   5.632 -0.0139  0.0538  0.1060
   30CHL1  H19A 3367   4.165   4.467   5.549  3.1176 -1.8873 -0.9454
   30CHL1  H19B 3368   4.066   4.324   5.600  1.1543 -1.2947  0.1641
   30CHL1  H19C 3369   4.101   4.452   5.718 -1.1721 -0.5600 -0.0574
   30CHL1    C1 3370   4.228   4.217   5.787 -0.4418 -0.2264 -0.4340
   30CHL1   H1A 3371   4.147   4.157   5.740  0.3578 -1.6982  0.0010
   30CHL1   H1B 3372   4.312   4.149   5.814 -1.0117 -0.9808 -0.5209
   30CHL1    C2 3373   4.176   4.276   5.923 -0.6028 -0.2051  0.0317
   30CHL1   H2A 3374   4.155   4.194   5.995  0.5696 -0.0277  0.5957
   30CHL1   H2B 3375   4.087   4.337   5.895  0.2125  0.6177 -0.8545
   30CHL1   C20 3376   4.474   4.148   5.036 -0.2571 -0.2796  0.1091
   30CHL1   H20 3377   4.447   4.241   4.982 -1.6723 -0.1272  1.0347
   30CHL1   C21 3378   4.347   4.065   5.028  0.6576 -0.0392 -0.5790
   30CHL1  H21A 3379   4.368   3.989   5.107  0.5008 -0.2473 -0.7379
   30CHL1  H21B 3380   4.328   4.006   4.936 -1.4250  2.9325 -2.2334
   30CHL1  H21C 3381   4.256   4.121   5.060  1.3145  0.9678 -0.4193
   30CHL1   C22 3382   4.585   4.069   4.957  0.2513 -0.5024  0.1626
   30CHL1  H22A 3383   4.681   4.122   4.969  0.2481 -0.9871  3.1518
   30CHL1  H22B 3384   4.587   3.973   5.012 -2.9447  0.2810  1.8953
   30CHL1   C23 3385   4.562   4.048   4.806 -0.8743 -0.7350 -0.0020
   30CHL1  H23A 3386   4.648   3.995   4.761 -3.2771 -2.3936 -2.9915
   30CHL1  H23B 3387   4.475   3.987   4.773  1.5427 -2.4253 -3.9235
   30CHL1   C24 3388   4.536   4.182   4.740  0.1714  0.2533 -0.2242
   30CHL1  H24A 3389   4.446   4.235   4.777  0.0037 -0.1805 -0.0152
   30CHL1  H24B 3390   4.618   4.254   4.761 -0.2898  1.1343 -1.3268
   30CHL1   C25 3391   4.515   4.162   4.592 -0.5543 -0.3167 -0.2050
   30CHL1   H25 3392   4.420   4.109   4.574 -0.6624 -0.4262  0.6602
   30CHL1   C26 3393   4.481   4.301   4.527 -0.3076  0.5851  0.6663
   30CHL1  H26A 3394   4.388   4.350   4.564  0.6848  1.7873  1.6154
   30CHL1  H26B 3395   4.562   4.375   4.540 -1.7049  2.6633 -1.5448
   30CHL1  H26C 3396   4.476   4.304   4.416  2.2558  0.5215  0.4912
   30CHL1   C27 3397   4.619   4.090   4.511 -0.0555 -0.4470  0.2385
   30CHL1  H27A 3398   4.611   3.980   4.523 -0.0823 -0.7970 -2.4040
   30CHL1  H27B 3399   4.590   4.115   4.407 -1.7355 -0.9440  0.5684
   30CHL1  H27C 3400   4.727   4.109   4.528  0.5270 -1.8108 -1.6138
   31CHL1    C3 3401   3.275   4.363   5.821 -0.1662  0.8295 -0.3293
   31CHL1    H3 3402   3.296   4.254   5.818  1.2389  1.0847 -0.5119
   31CHL1    O3 3403   3.241   4.387   5.957  0.4661 -0.0148  0.1706
   31CHL1   H3' 3404   3.324   4.391   6.005  1.0553 -1.2999 -0.6615
   31CHL1    C4 3405   3.407   4.429   5.785 -0.4492  0.1297 -0.0474
   31CHL1   H4A 3406   3.426   4.538   5.801  1.8044  0.1511 -2.2944
   31CHL1   H4B 3407   3.476   4.380   5.857 -0.9819  1.3400  1.3430
   31CHL1    C5 3408   3.441   4.391   5.640 -0.1946  0.6886  0.2420
   31CHL1    C6 3409   3.550   4.318   5.608  0.2063  0.4462 -0.0683
   31CHL1    H6 3410   3.630   4.296   5.680  0.0879  0.1216 -0.0341
   31CHL1    C7 3411   3.590   4.278   5.467  0.1005  0.3031 -0.1316
   31CHL1   H7A 3412   3.697   4.305   5.458  0.0251  1.3822  1.7573
   31CHL1   H7B 3413   3.573   4.168   5.457  1.1002 -0.0848  1.9290
   31CHL1    C8 3414   3.502   4.340   5.353 -0.5620  0.4274  1.2276
   31CHL1    H8 3415   3.540   4.440   5.323 -1.1560  0.4735  0.6020
   31CHL1   C14 3416   3.509   4.260   5.224 -0.0093  0.3553 -0.3430
   31CHL1   H14 3417   3.460   4.162   5.245  2.9684 -1.1364  0.1022
   31CHL1   C15 3418   3.639   4.207   5.167 -0.4203 -0.5621 -1.1749
   31CHL1  H15A 3419   3.715   4.283   5.195 -1.0957 -0.2412 -0.1882
   31CHL1  H15B 3420   3.673   4.116   5.221  0.5821 -0.9455 -2.3885
   31CHL1   C16 3421   3.617   4.183   5.010  0.0747  0.0757 -0.4995
   31CHL1  H16A 3422   3.679   4.252   4.949 -1.2659  2.2509  0.4714
   31CHL1  H16B 3423   3.628   4.083   4.963 -1.1146  1.4108 -3.9422
   31CHL1   C17 3424   3.470   4.229   4.986  0.0173  0.0339  0.4584
   31CHL1   H17 3425   3.402   4.141   4.984 -0.1045  0.1396 -0.4818
   31CHL1   C13 3426   3.435   4.318   5.102  0.0237 -0.3492 -0.9534
   31CHL1   C18 3427   3.482   4.458   5.070 -0.0085  0.4494  0.0988
   31CHL1  H18A 3428   3.581   4.470   5.021  0.5979  2.3571  1.6325
   31CHL1  H18B 3429   3.403   4.500   5.004  0.1465 -2.2073 -1.9307
   31CHL1  H18C 3430   3.483   4.526   5.158 -3.1813 -0.6230  1.1257
   31CHL1   C12 3431   3.284   4.316   5.147  0.6353 -0.2993  0.0199
   31CHL1  H12A 3432   3.209   4.360   5.078  0.8983  1.4599  0.8025
   31CHL1  H12B 3433   3.258   4.212   5.176 -1.3231  0.4773  1.2870
   31CHL1   C11 3434   3.265   4.402   5.276 -0.6994 -0.2820 -0.3392
   31CHL1  H11A 3435   3.284   4.508   5.247 -0.3137 -0.7996 -2.0574
   31CHL1  H11B 3436   3.160   4.406   5.312 -0.6128  1.1499 -0.1605
   31CHL1    C9 3437   3.355   4.347   5.397  0.7105 -0.0010 -0.0811
   31CHL1    H9 3438   3.318   4.243   5.408  2.2830 -0.4743  1.1154
   31CHL1   C10 3439   3.327   4.420   5.534 -0.6365 -0.4174  0.3517
   31CHL1   C19 3440   3.322   4.576   5.507 -0.4783 -0.1943  0.5864
   31CHL1  H19A 3441   3.241   4.612   5.440  1.4484  1.0446 -1.2244
   31CHL1  H19B 3442   3.309   4.623   5.607  0.1660  1.5885 -0.1253
   31CHL1  H19C 3443   3.415   4.615   5.461 -0.2087  1.4844  2.4249
   31CHL1    C1 3444   3.190   4.374   5.589  0.6963 -0.5561 -0.0527
   31CHL1   H1A 3445   3.109   4.410   5.522  0.5988  0.4048  0.5647
   31CHL1   H1B 3446   3.189   4.263   5.581  0.7260 -0.4510 -2.1018
   31CHL1    C2 3447   3.150   4.399   5.734  0.2307  0.1533 -0.2908
   31CHL1   H2A 3448   3.058   4.347   5.765  0.3779  0.5531  0.8713
   31CHL1   H2B 3449   3.120   4.505   5.749  1.3123  0.5285 -0.6315
   31CHL1   C20 3450   3.445   4.287   4.847  0.0111  0.5448  0.0506
   31CHL1   H20 3451   3.486   4.390   4.837  0.8447  0.8476  4.3863
   31CHL1   C21 3452   3.292   4.296   4.814 -0.5749  0.0592  0.3989
   31CHL1  H21A 3453   3.240   4.204   4.849 -0.3931 -0.8886 -1.6904
   31CHL1  H21B 3454   3.269   4.311   4.706 -1.3197 -1.4513  0.3157
   31CHL1  H21C 3455   3.244   4.374   4.877 -1.1988 -0.2014  0.2575
   31CHL1   C22 3456   3.506   4.198   4.733 -0.4605  0.6918 -0.8782
   31CHL1  H22A 3457   3.607   4.164   4.764 -0.6250  1.8215  1.1027
   31CHL1  H22B 3458   3.443   4.107   4.719 -0.9612  0.5406  1.7054
   31CHL1   C23 3459   3.525   4.272   4.596 -0.6788  0.3896  0.7652
   31CHL1  H23A 3460   3.424   4.310   4.571 -0.5635  0.9799  1.1737
   31CHL1  H23B 3461   3.601   4.352   4.612 -1.8919  1.9597 -0.9436
   31CHL1   C24 3462   3.587   4.182   4.492  0.0399  0.4325 -0.0805
   31CHL1  H24A 3463   3.684   4.151   4.536 -1.0628  0.5607  2.6342
   31CHL1  H24B 3464   3.529   4.087   4.493  1.0386 -0.1928  0.8113
   31CHL1   C25 3465   3.596   4.227   4.341  0.3222  0.3707  1.0005
   31CHL1   H25 3466   3.638   4.145   4.280 -1.0118  0.8094 -0.6100
   31CHL1   C26 3467   3.463   4.244   4.275  0.2000  0.7077 -0.2074
   31CHL1  H26A 3468   3.413   4.339   4.302 -2.2190  0.0448 -2.0486
   31CHL1  H26B 3469   3.479   4.236   4.165  2.1418 -1.5963  0.1345
   31CHL1  H26C 3470   3.395   4.160   4.301  1.1516 -0.4638 -1.2922
   31CHL1   C27 3471   3.680   4.356   4.323 -0.1190  1.0608  0.3411
   31CHL1  H27A 3472   3.711   4.360   4.216 -0.1687 -2.2887  0.1020
   31CHL1  H27B 3473   3.616   4.446   4.340 -2.3158 -0.4006  0.2680
   31CHL1  H27C 3474   3.772   4.351   4.384  1.0311 -4.4326 -1.2982
   32CHL1    C3 3475   3.856   1.586   6.180 -0.1603  0.4329  0.2196
   32CHL1    H3 3476   3.758   1.639   6.183 -0.1271  0.4647  0.8462
   32CHL1    O3 3477   3.904   1.558   6.310 -0.0116  0.0877 -0.1468
   32CHL1   H3' 3478   3.999   1.572   6.309  0.1119 -0.3491 -2.9706
   32CHL1    C4 3479   3.844   1.459   6.095  0.1066 -0.3480 -0.0052
   32CHL1   H4A 3480   3.945   1.413   6.084  0.8847  1.7907 -3.1961
   32CHL1   H4B 3481   3.782   1.382   6.148 -1.0509  0.3924 -0.2457
   32CHL1    C5 3482   3.799   1.486   5.951 -1.0794 -0.1548 -0.1603
   32CHL1    C6 3483   3.697   1.421   5.892 -0.2128  0.1669  0.1786
   32CHL1    H6 3484   3.626   1.359   5.949 -0.2854 -1.4136 -1.5182
   32CHL1    C7 3485   3.647   1.443   5.755 -0.8372 -0.5769 -0.2917
   32CHL1   H7A 3486   3.618   1.344   5.712 -3.1483 -0.6243  1.2011
   32CHL1   H7B 3487   3.556   1.506   5.760  0.9514  2.1080  0.4107
   32CHL1    C8 3488   3.748   1.519   5.659  0.2257 -0.5806 -0.2786
   32CHL1    H8 3489   3.818   1.442   5.620  0.6346  0.3972 -1.5108
   32CHL1   C14 3490   3.680   1.574   5.531  0.0465  0.2543  0.1693
   32CHL1   H14 3491   3.629   1.668   5.562  1.1264  0.9920 -0.2051
   32CHL1   C15 3492   3.590   1.471   5.452 -1.2226  0.2114 -0.1955
   32CHL1  H15A 3493   3.636   1.371   5.438  0.1241  0.6312  0.9364
   32CHL1  H15B 3494   3.494   1.460   5.506 -0.8921  3.3199  1.2384
   32CHL1   C16 3495   3.576   1.543   5.313  0.2214  0.1249 -1.0699
   32CHL1  H16A 3496   3.580   1.466   5.233 -1.3713 -0.7219 -0.3731
   32CHL1  H16B 3497   3.472   1.582   5.315  0.7161  1.4813  0.1582
   32CHL1   C17 3498   3.679   1.670   5.316  0.9360 -0.0200  0.0682
   32CHL1   H17 3499   3.614   1.748   5.362  0.7628  0.0260 -0.2545
   32CHL1   C13 3500   3.781   1.637   5.426 -1.0050 -0.5700  0.3797
   32CHL1   C18 3501   3.886   1.526   5.372  0.4705  0.0610 -0.0046
   32CHL1  H18A 3502   3.940   1.562   5.282  1.3869 -2.0762 -0.3763
   32CHL1  H18B 3503   3.961   1.494   5.447 -0.8948  0.2198  1.4803
   32CHL1  H18C 3504   3.833   1.434   5.339  1.3857 -0.5180  0.1067
   32CHL1   C12 3505   3.856   1.751   5.498  0.2084  0.3765 -0.3066
   32CHL1  H12A 3506   3.941   1.795   5.441  3.2780 -1.2647  2.6416
   32CHL1  H12B 3507   3.781   1.834   5.504  1.1815  1.1543  2.7222
   32CHL1   C11 3508   3.912   1.715   5.638 -0.0822  0.5477 -1.2973
   32CHL1  H11A 3509   4.010   1.666   5.618 -1.4068 -2.5211 -0.7832
   32CHL1  H11B 3510   3.940   1.804   5.699 -0.3740 -1.9365  2.7935
   32CHL1    C9 3511   3.823   1.631   5.736 -0.3900 -0.1142  0.8440
   32CHL1    H9 3512   3.746   1.705   5.768  0.1063 -0.1819  2.2532
   32CHL1   C10 3513   3.888   1.582   5.873  0.2307 -0.7040 -0.0344
   32CHL1   C19 3514   4.020   1.506   5.838  0.0408 -0.0149 -0.7619
   32CHL1  H19A 3515   3.978   1.439   5.760  1.7444 -2.1244  0.0302
   32CHL1  H19B 3516   4.096   1.575   5.795 -0.8751  1.2295 -0.4630
   32CHL1  H19C 3517   4.065   1.454   5.925 -1.2827  1.0110  0.5755
   32CHL1    C1 3518   3.907   1.706   5.963 -0.5033  0.3868  0.1476
   32CHL1   H1A 3519   3.983   1.776   5.921  0.2169 -1.1648 -1.2671
   32CHL1   H1B 3520   3.807   1.752   5.978 -0.2930  1.0389 -0.4002
   32CHL1    C2 3521   3.950   1.675   6.105  0.5963  0.5250  0.1554
   32CHL1   H2A 3522   3.945   1.774   6.156 -1.9366  0.8046 -0.5202
   32CHL1   H2B 3523   4.050   1.628   6.094  0.5535  0.8870 -2.6530
   32CHL1   C20 3524   3.733   1.719   5.178  0.5603  0.7260  0.0156
   32CHL1   H20 3525   3.803   1.641   5.143  0.6964  0.2683  1.2657
   32CHL1   C21 3526   3.785   1.853   5.202 -0.2361  0.1129 -0.2087
   32CHL1  H21A 3527   3.806   1.922   5.118  0.9579 -1.1385 -0.9859
   32CHL1  H21B 3528   3.883   1.838   5.253 -0.9375 -1.7832  0.6885
   32CHL1  H21C 3529   3.722   1.907   5.275 -1.4952  0.2124 -1.3408
   32CHL1   C22 3530   3.609   1.732   5.075 -0.6723  0.2486 -0.5534
   32CHL1  H22A 3531   3.558   1.633   5.066  0.0853 -0.3273  1.1137
   32CHL1  H22B 3532   3.538   1.803   5.122  0.1863  0.1359  0.9750
   32CHL1   C23 3533   3.668   1.782   4.942 -0.6419  0.4984 -0.0519
   32CHL1  H23A 3534   3.686   1.891   4.954  1.9583  0.1839 -0.5391
   32CHL1  H23B 3535   3.756   1.723   4.910 -1.1212  0.5044 -1.4483
   32CHL1   C24 3536   3.572   1.761   4.826 -0.2699  0.4334  0.1620
   32CHL1  H24A 3537   3.541   1.655   4.835  1.8267 -0.1228  1.8250
   32CHL1  H24B 3538   3.487   1.832   4.824 -1.1790 -0.6443 -1.3193
   32CHL1   C25 3539   3.638   1.783   4.688  0.4259  0.7966 -0.1786
   32CHL1   H25 3540   3.723   1.711   4.688  1.1148  1.5851 -0.2496
   32CHL1   C26 3541   3.540   1.743   4.574  0.2043  0.2568 -0.3624
   32CHL1  H26A 3542   3.523   1.830   4.507  1.2035  1.1164  0.4725
   32CHL1  H26B 3543   3.593   1.667   4.513  1.6098  0.5719  0.4171
   32CHL1  H26C 3544   3.447   1.701   4.617  0.0690  0.0507 -0.8471
   32CHL1   C27 3545   3.698   1.925   4.680  0.1372 -0.0936 -0.2210
   32CHL1  H27A 3546   3.761   1.943   4.771 -1.6871 -1.1856  1.3215
   32CHL1  H27B 3547   3.766   1.936   4.593  3.1786 -2.4137  1.6387
   32CHL1  H27C 3548   3.620   2.004   4.680 -0.4080 -0.6289 -0.4175
   33CHL1    C3 3549   3.967   2.265   6.258 -0.1222 -0.2567  0.2818
   33CHL1    H3 3550   4.073   2.293   6.269 -0.1374 -0.0792 -0.0305
   33CHL1    O3 3551   3.905   2.267   6.389  0.5943  0.4399 -0.2410
   33CHL1   H3' 3552   3.963   2.216   6.447  1.8801 -0.3290 -2.1285
   33CHL1    C4 3553   3.884   2.357   6.160  0.2406  0.0484  0.0162
   33CHL1   H4A 3554   3.781   2.315   6.168 -0.1690  1.4126  3.2653
   33CHL1   H4B 3555   3.882   2.457   6.208 -1.0553 -1.4252  3.3416
   33CHL1    C5 3556   3.945   2.349   6.018  0.6616  0.3912 -0.0607
   33CHL1    C6 3557   4.009   2.453   5.962  0.0607 -0.0233  0.0342
   33CHL1    H6 3558   4.040   2.538   6.025 -0.0040  0.2404 -0.2841
   33CHL1    C7 3559   4.054   2.461   5.822 -0.2500  0.3982 -0.2670
   33CHL1   H7A 3560   4.028   2.558   5.774  1.1179  1.1152  0.3688
   33CHL1   H7B 3561   4.165   2.448   5.819 -0.2862  0.1684 -0.6047
   33CHL1    C8 3562   3.988   2.341   5.738 -0.4544 -0.1562 -0.5076
   33CHL1    H8 3563   3.880   2.362   5.722  0.0056  2.0863 -0.9450
   33CHL1   C14 3564   4.059   2.339   5.605  0.1158 -0.2314 -0.8294
   33CHL1   H14 3565   4.167   2.322   5.619 -0.2716 -1.9409  0.3863
   33CHL1   C15 3566   4.039   2.460   5.514 -0.1002 -0.5331  0.3459
   33CHL1  H15A 3567   3.931   2.485   5.517  0.5301  2.5004  0.3594
   33CHL1  H15B 3568   4.101   2.542   5.555 -0.7110 -0.2669  0.7545
   33CHL1   C16 3569   4.074   2.415   5.376 -0.3627 -0.4966  0.1503
   33CHL1  H16A 3570   3.983   2.437   5.315 -1.6502 -2.0846  1.4108
   33CHL1  H16B 3571   4.172   2.456   5.343 -0.0362 -2.1242 -0.9914
   33CHL1   C17 3572   4.093   2.257   5.386 -0.1195  0.9310  0.4846
   33CHL1   H17 3573   4.202   2.239   5.400 -0.0668 -0.3191 -1.1998
   33CHL1   C13 3574   4.027   2.219   5.521  0.4501  0.1751 -0.0497
   33CHL1   C18 3575   3.872   2.213   5.492 -1.2091  0.1859  0.3312
   33CHL1  H18A 3576   3.846   2.303   5.432 -0.6735  0.2039  0.1186
   33CHL1  H18B 3577   3.848   2.129   5.423  1.9560 -0.9955  0.5043
   33CHL1  H18C 3578   3.813   2.213   5.586  0.4519  1.7146  1.4409
   33CHL1   C12 3579   4.065   2.089   5.608  0.3191  0.4900 -0.1539
   33CHL1  H12A 3580   4.042   1.990   5.563 -2.4676  0.5650  0.9369
   33CHL1  H12B 3581   4.173   2.099   5.631  0.5927 -2.7840  0.5003
   33CHL1   C11 3582   3.985   2.080   5.734 -0.3551 -0.9149 -0.1358
   33CHL1  H11A 3583   3.879   2.054   5.711 -1.6787  3.7764 -0.5216
   33CHL1  H11B 3584   4.032   1.997   5.790  0.4213 -1.1237 -1.0661
   33CHL1    C9 3585   4.006   2.209   5.812 -0.2691 -1.0049  0.2017
   33CHL1    H9 3586   4.115   2.214   5.833  0.1670  0.4094 -2.1073
   33CHL1   C10 3587   3.929   2.214   5.951 -0.0577 -0.5117  0.0872
   33CHL1   C19 3588   3.787   2.164   5.924  0.2468 -0.4000  0.4730
   33CHL1  H19A 3589   3.777   2.057   5.899  1.8330 -0.3328 -0.6460
   33CHL1  H19B 3590   3.721   2.178   6.012 -0.3506 -1.5705  0.2305
   33CHL1  H19C 3591   3.745   2.222   5.839  2.4799 -0.1998 -0.5670
   33CHL1    C1 3592   4.001   2.111   6.048  0.0380 -0.5416  0.1287
   33CHL1   H1A 3593   3.979   2.010   6.009  2.5664 -0.8583 -0.6771
   33CHL1   H1B 3594   4.110   2.129   6.036  0.1484 -1.5485 -0.4891
   33CHL1    C2 3595   3.970   2.123   6.201 -0.4485 -0.3079  0.1936
   33CHL1   H2A 3596   4.023   2.055   6.270  0.7335  0.1873 -0.2101
   33CHL1   H2B 3597   3.866   2.083   6.207 -0.1523 -1.0230  0.6487
   33CHL1   C20 3598   4.054   2.179   5.255  0.6836  0.3178 -0.2299
   33CHL1   H20 3599   3.945   2.184   5.237  0.7135 -2.5604 -1.7883
   33CHL1   C21 3600   4.095   2.033   5.257 -0.1310  0.5517 -0.5942
   33CHL1  H21A 3601   4.204   2.012   5.251 -0.6176 -2.1911 -1.0118
   33CHL1  H21B 3602   4.034   1.978   5.182  0.3881 -1.6387  0.5015
   33CHL1  H21C 3603   4.067   1.979   5.350  1.6001 -1.1593 -0.9941
   33CHL1   C22 3604   4.111   2.246   5.126 -1.2009  0.6034  0.3782
   33CHL1  H22A 3605   4.062   2.345   5.123 -3.5074 -0.4886 -0.4113
   33CHL1  H22B 3606   4.221   2.262   5.129 -1.1867  1.9139 -2.9078
   33CHL1   C23 3607   4.072   2.176   4.993 -0.0684 -0.1379 -0.2705
   33CHL1  H23A 3608   4.109   2.073   4.975 -0.7018 -0.3968 -0.1145
   33CHL1  H23B 3609   3.962   2.166   5.005  0.0040  1.0785  2.0088
   33CHL1   C24 3610   4.118   2.254   4.876  0.8465 -0.3205 -0.0179
   33CHL1  H24A 3611   4.047   2.340   4.872 -0.9890 -1.7216  0.6861
   33CHL1  H24B 3612   4.223   2.285   4.891  1.0605 -0.6416 -0.8168
   33CHL1   C25 3613   4.105   2.198   4.729 -0.3079 -0.2088  0.2245
   33CHL1   H25 3614   4.129   2.265   4.644 -2.3216 -1.7034 -1.6412
   33CHL1   C26 3615   4.200   2.078   4.705 -0.2662 -0.0862  0.1201
   33CHL1  H26A 3616   4.300   2.101   4.749 -0.4768  0.3290  0.3852
   33CHL1  H26B 3617   4.171   1.977   4.743 -0.1957  0.1602  0.8513
   33CHL1  H26C 3618   4.219   2.074   4.596  0.1974 -0.3566  0.2060
   33CHL1   C27 3619   3.963   2.153   4.684 -0.3128  0.3143  0.2393
   33CHL1  H27A 3620   3.903   2.244   4.662  0.6475  0.2849 -3.1928
   33CHL1  H27B 3621   3.968   2.089   4.594  0.6037 -0.2659  0.6893
   33CHL1  H27C 3622   3.912   2.100   4.766 -0.5809  0.5211  0.2070
   34CHL1    C3 3623   4.736   2.668   6.263  0.3064 -0.1000 -0.0596
   34CHL1    H3 3624   4.739   2.558   6.279 -0.4679 -0.2164 -0.6383
   34CHL1    O3 3625   4.710   2.738   6.387  0.1630 -0.2048 -0.1555
   34CHL1   H3' 3626   4.652   2.680   6.436  3.0613 -3.1072  0.2177
   34CHL1    C4 3627   4.876   2.719   6.214  0.0580 -0.5618  0.1427
   34CHL1   H4A 3628   4.881   2.829   6.229 -2.0459 -0.3937 -0.0759
   34CHL1   H4B 3629   4.946   2.674   6.288 -0.5305  1.5772  2.1286
   34CHL1    C5 3630   4.914   2.681   6.079 -0.2082  1.0155  0.3571
   34CHL1    C6 3631   5.032   2.627   6.052  0.3754 -0.4917 -0.7196
   34CHL1    H6 3632   5.107   2.620   6.132 -1.7488  1.1297  1.6187
   34CHL1    C7 3633   5.074   2.573   5.927 -0.0025 -0.1454  0.7876
   34CHL1   H7A 3634   5.182   2.596   5.914 -0.2014  0.7657  0.6908
   34CHL1   H7B 3635   5.073   2.462   5.919 -0.7220 -0.0317 -1.4508
   34CHL1    C8 3636   4.995   2.631   5.806  0.2297 -1.0214 -0.2570
   34CHL1    H8 3637   5.035   2.735   5.802  0.2696 -0.9067  2.0481
   34CHL1   C14 3638   5.028   2.558   5.680 -0.6303 -0.0516 -0.2108
   34CHL1   H14 3639   4.994   2.453   5.695 -2.1665  0.4487 -0.0422
   34CHL1   C15 3640   5.171   2.540   5.642 -0.1504 -0.4956 -0.4734
   34CHL1  H15A 3641   5.219   2.641   5.644 -1.9439  0.3816  0.6935
   34CHL1  H15B 3642   5.219   2.469   5.713  0.0718  1.9885  2.0651
   34CHL1   C16 3643   5.167   2.493   5.502  0.7716  0.8787  0.7942
   34CHL1  H16A 3644   5.224   2.562   5.437  2.6085 -0.3772  1.0012
   34CHL1  H16B 3645   5.211   2.392   5.487  1.6070  1.2664  0.5409
   34CHL1   C17 3646   5.016   2.504   5.451  0.1334  0.0126  0.1149
   34CHL1   H17 3647   4.968   2.405   5.468  1.4474 -0.6374  0.1767
   34CHL1   C13 3648   4.953   2.601   5.556  0.2936 -0.4783 -0.2124
   34CHL1   C18 3649   4.989   2.746   5.523  0.6270  0.1156  0.4488
   34CHL1  H18A 3650   5.095   2.752   5.490  0.2211  1.4458 -0.6949
   34CHL1  H18B 3651   4.930   2.786   5.438 -0.5330 -3.2517 -0.5113
   34CHL1  H18C 3652   4.980   2.807   5.616  0.6915  1.8965 -0.6851
   34CHL1   C12 3653   4.794   2.585   5.592 -0.4968  0.7302 -0.8388
   34CHL1  H12A 3654   4.737   2.638   5.513  0.4026  0.0006 -2.0237
   34CHL1  H12B 3655   4.758   2.481   5.610 -1.7159  1.4112  0.9964
   34CHL1   C11 3656   4.761   2.668   5.718  0.5436 -0.3282  0.2247
   34CHL1  H11A 3657   4.772   2.773   5.684  1.4189 -0.1139  1.1090
   34CHL1  H11B 3658   4.657   2.639   5.743  0.4388 -1.6230 -1.5462
   34CHL1    C9 3659   4.850   2.630   5.841  0.1289 -0.6080  0.0731
   34CHL1    H9 3660   4.829   2.523   5.862 -0.1322 -0.5433  0.1525
   34CHL1   C10 3661   4.803   2.703   5.975 -0.4576 -1.0537 -0.5443
   34CHL1   C19 3662   4.798   2.851   5.947 -0.2935 -0.5323  0.0525
   34CHL1  H19A 3663   4.707   2.886   5.894  0.0176  2.7558  1.4830
   34CHL1  H19B 3664   4.789   2.906   6.042  2.1512  1.6031 -0.8416
   34CHL1  H19C 3665   4.890   2.883   5.894 -0.4112  0.9335  0.6936
   34CHL1    C1 3666   4.669   2.647   6.028 -0.5752  0.2095  0.9294
   34CHL1   H1A 3667   4.585   2.672   5.960 -2.3140 -2.2962  1.9965
   34CHL1   H1B 3668   4.677   2.536   6.020 -2.7700  0.0468  0.2871
   34CHL1    C2 3669   4.625   2.696   6.163  0.2283  0.5034  0.3552
   34CHL1   H2A 3670   4.547   2.625   6.199  2.2625 -2.5947 -0.9482
   34CHL1   H2B 3671   4.604   2.805   6.164  0.0392  0.4731 -0.0793
   34CHL1   C20 3672   5.015   2.537   5.307 -0.6572 -0.4375  0.0559
   34CHL1   H20 3673   5.062   2.636   5.290 -0.8768 -0.4894 -0.8783
   34CHL1   C21 3674   4.878   2.568   5.243  0.7162 -0.1332 -0.0789
   34CHL1  H21A 3675   4.878   2.613   5.141 -1.3170 -0.2674 -0.1859
   34CHL1  H21B 3676   4.813   2.634   5.305  0.7494  1.0348 -1.2279
   34CHL1  H21C 3677   4.821   2.473   5.244  2.0735 -0.9860 -0.7277
   34CHL1   C22 3678   5.080   2.430   5.219  0.2857  0.1548 -0.5165
   34CHL1  H22A 3679   5.168   2.384   5.269 -0.9692  0.2818  1.9646
   34CHL1  H22B 3680   5.009   2.346   5.203 -1.9483  1.5271  1.4319
   34CHL1   C23 3681   5.142   2.495   5.098  0.4666 -0.7658 -0.3334
   34CHL1  H23A 3682   5.051   2.529   5.045 -0.0116 -2.3529 -0.6003
   34CHL1  H23B 3683   5.208   2.576   5.136  1.2333 -0.0611 -2.9844
   34CHL1   C24 3684   5.219   2.413   4.999  0.2052 -0.3650  0.2625
   34CHL1  H24A 3685   5.146   2.347   4.948 -0.6193  0.6502  0.1098
   34CHL1  H24B 3686   5.253   2.487   4.924  0.7524  2.0655  2.7603
   34CHL1   C25 3687   5.327   2.323   5.056  0.0471  0.3728  0.2469
   34CHL1   H25 3688   5.284   2.241   5.116  0.3509  2.0448  2.9393
   34CHL1   C26 3689   5.400   2.265   4.933  0.0403 -0.8106 -0.4066
   34CHL1  H26A 3690   5.429   2.352   4.869  2.6349 -0.2457  1.3731
   34CHL1  H26B 3691   5.484   2.202   4.969 -0.2973 -0.2539  1.4599
   34CHL1  H26C 3692   5.332   2.196   4.878  0.6490  0.3485 -2.7544
   34CHL1   C27 3693   5.433   2.403   5.139  0.2273 -0.2422 -0.1833
   34CHL1  H27A 3694   5.386   2.451   5.227 -0.5586 -2.4128  0.6541
   34CHL1  H27B 3695   5.515   2.336   5.173 -0.6235 -1.9928 -1.4408
   34CHL1  H27C 3696   5.486   2.483   5.082 -2.0899  2.4145  1.1613
   35CHL1    C3 3697   6.510   6.127   6.117  1.1629  1.0455  0.1127
   35CHL1    H3 3698   6.612   6.125   6.073  0.8056  2.2883 -0.8398
   35CHL1    O3 3699   6.509   6.130   6.261  0.4247 -0.0216  0.1521
   35CHL1   H3' 3700   6.421   6.108   6.294  0.0387  3.3539  1.8472
   35CHL1    C4 3701   6.432   6.247   6.075  0.4061 -0.1715  0.7291
   35CHL1   H4A 3702   6.343   6.258   6.141  0.5418  1.2293  0.7154
   35CHL1   H4B 3703   6.498   6.328   6.114  0.5291  1.5673 -2.7397
   35CHL1    C5 3704   6.412   6.249   5.924  0.1147  0.1020  0.0944
   35CHL1    C6 3705   6.455   6.351   5.851 -0.8710 -0.4155 -0.1542
   35CHL1    H6 3706   6.514   6.432   5.898  0.5886 -1.0713 -0.7868
   35CHL1    C7 3707   6.453   6.355   5.700  0.1602 -0.6069 -0.2500
   35CHL1   H7A 3708   6.418   6.455   5.665  0.4167 -0.1561  0.7378
   35CHL1   H7B 3709   6.556   6.337   5.660  1.2528  2.6848  0.7307
   35CHL1    C8 3710   6.356   6.253   5.643  0.6779 -0.6059  0.1405
   35CHL1    H8 3711   6.258   6.294   5.676  1.7254 -0.1475  2.8939
   35CHL1   C14 3712   6.378   6.245   5.491  0.5320  0.1676 -0.2633
   35CHL1   H14 3713   6.471   6.187   5.477 -0.9872 -2.6260  0.3634
   35CHL1   C15 3714   6.389   6.373   5.416 -0.2106 -1.0492 -0.1362
   35CHL1  H15A 3715   6.321   6.453   5.453 -1.2037 -1.9230 -0.0198
   35CHL1  H15B 3716   6.481   6.433   5.433 -0.9493  0.4293 -1.0711
   35CHL1   C16 3717   6.348   6.331   5.268 -0.4628 -0.5135  0.8565
   35CHL1  H16A 3718   6.274   6.406   5.230 -1.0823 -1.3947  0.2836
   35CHL1  H16B 3719   6.441   6.332   5.207 -0.9164  0.9255  0.1416
   35CHL1   C17 3720   6.299   6.181   5.269 -0.0620  1.1208 -0.4062
   35CHL1   H17 3721   6.386   6.120   5.238 -0.7646  0.1175 -0.4681
   35CHL1   C13 3722   6.266   6.171   5.428 -0.7322  0.0350  0.5725
   35CHL1   C18 3723   6.121   6.229   5.452 -0.0883 -0.5248 -1.1713
   35CHL1  H18A 3724   6.057   6.152   5.403  0.2082 -1.4347 -0.1497
   35CHL1  H18B 3725   6.079   6.226   5.555 -2.8418 -0.8993 -2.2078
   35CHL1  H18C 3726   6.100   6.330   5.411 -0.2632 -0.7739 -1.7142
   35CHL1   C12 3727   6.274   6.021   5.480 -0.8334 -0.1916  0.1221
   35CHL1  H12A 3728   6.180   5.980   5.439 -0.5880  1.5296 -2.3922
   35CHL1  H12B 3729   6.362   5.978   5.428 -0.3274  2.2084 -1.1483
   35CHL1   C11 3730   6.282   6.008   5.633 -0.1992 -0.4112  0.3686
   35CHL1  H11A 3731   6.174   6.021   5.658 -1.2876 -2.2852 -2.7569
   35CHL1  H11B 3732   6.305   5.905   5.669 -0.8885 -0.8573 -0.4244
   35CHL1    C9 3733   6.368   6.118   5.701 -0.2929 -0.0851  0.3318
   35CHL1    H9 3734   6.472   6.094   5.668 -0.4362 -0.0363 -0.1708
   35CHL1   C10 3735   6.358   6.122   5.860 -0.2919  0.5045 -0.3948
   35CHL1   C19 3736   6.210   6.102   5.898  0.6600  0.1164  0.3452
   35CHL1  H19A 3737   6.152   6.176   5.838  2.5932  0.9454 -0.5672
   35CHL1  H19B 3738   6.181   6.001   5.863 -1.6775  1.1898 -1.0244
   35CHL1  H19C 3739   6.185   6.110   6.006 -2.9195  0.6301 -0.3895
   35CHL1    C1 3740   6.440   6.000   5.912  0.1586  0.1440  0.2874
   35CHL1   H1A 3741   6.386   5.908   5.879 -0.3003  0.5292 -0.0482
   35CHL1   H1B 3742   6.538   5.999   5.861 -0.0473 -0.6672 -0.1060
   35CHL1    C2 3743   6.453   5.990   6.064 -0.2904 -0.2786  0.0099
   35CHL1   H2A 3744   6.513   5.903   6.097  0.0790  0.6187  1.8223
   35CHL1   H2B 3745   6.355   5.961   6.106  0.5652 -1.4046  1.3026
   35CHL1   C20 3746   6.186   6.162   5.167 -0.0076  0.7691 -1.0928
   35CHL1   H20 3747   6.103   6.231   5.195 -1.4157 -1.1477 -0.3090
   35CHL1   C21 3748   6.138   6.015   5.172  0.4759 -0.2345 -0.3937
   35CHL1  H21A 3749   6.223   5.944   5.163  1.2096  0.7393 -1.4473
   35CHL1  H21B 3750   6.069   5.992   5.088  0.2038  0.8712 -0.4912
   35CHL1  H21C 3751   6.091   6.000   5.271  1.1191  0.3235  0.0101
   35CHL1   C22 3752   6.240   6.192   5.032 -0.1083  0.3966  0.2552
   35CHL1  H22A 3753   6.316   6.272   5.045  1.0002 -0.7828  1.2779
   35CHL1  H22B 3754   6.293   6.112   4.976 -1.6309  0.2451 -1.0518
   35CHL1   C23 3755   6.133   6.247   4.932  0.1708  0.3660  0.5820
   35CHL1  H23A 3756   6.037   6.191   4.930  1.2480 -1.6486  1.6224
   35CHL1  H23B 3757   6.104   6.349   4.965 -0.7106 -0.3610  2.1488
   35CHL1   C24 3758   6.182   6.256   4.787 -0.0868  0.6158  0.2107
   35CHL1  H24A 3759   6.283   6.303   4.785  1.5656 -2.6612  0.5754
   35CHL1  H24B 3760   6.202   6.158   4.739 -2.8577  0.3556 -0.6058
   35CHL1   C25 3761   6.096   6.341   4.690 -0.5100  0.2951  0.6387
   35CHL1   H25 3762   5.988   6.314   4.695 -1.2556  2.7321 -0.6334
   35CHL1   C26 3763   6.117   6.491   4.737  0.7036  0.0305  0.1286
   35CHL1  H26A 3764   6.051   6.555   4.674 -0.0010 -0.0196  0.8084
   35CHL1  H26B 3765   6.105   6.498   4.847 -1.1516 -0.6816  0.0089
   35CHL1  H26C 3766   6.218   6.533   4.718 -0.0227  1.9899  0.2828
   35CHL1   C27 3767   6.144   6.331   4.546  0.0418  0.1402 -0.8280
   35CHL1  H27A 3768   6.245   6.373   4.527  0.9456 -0.8249  1.4244
   35CHL1  H27B 3769   6.140   6.221   4.530 -0.6877 -0.1186  0.9222
   35CHL1  H27C 3770   6.076   6.378   4.472  1.2228  2.9455 -0.2279
   36CHL1    C3 3771   2.513   4.330   6.048  0.1044  0.1593  0.3493
   36CHL1    H3 3772   2.563   4.233   6.025 -1.3768 -0.7441  0.7634
   36CHL1    O3 3773   2.510   4.343   6.192  0.3598 -0.1910 -0.0156
   36CHL1   H3' 3774   2.495   4.250   6.209 -1.0911 -0.0850 -0.5767
   36CHL1    C4 3775   2.585   4.450   5.976 -0.4299  0.3366 -0.0378
   36CHL1   H4A 3776   2.547   4.550   6.005 -0.1412  0.6495 -0.7158
   36CHL1   H4B 3777   2.695   4.443   5.989 -0.2180 -0.6051 -1.8649
   36CHL1    C5 3778   2.553   4.457   5.824 -0.0974  0.2145 -0.2604
   36CHL1    C6 3779   2.656   4.466   5.739  0.3580 -0.4179  0.1868
   36CHL1    H6 3780   2.758   4.459   5.780  1.2668  1.7643 -1.5299
   36CHL1    C7 3781   2.643   4.480   5.585 -0.0350  0.5254  0.2620
   36CHL1   H7A 3782   2.701   4.570   5.558  2.2899 -0.3033  2.1719
   36CHL1   H7B 3783   2.686   4.397   5.524  2.3603  1.7223  0.2091
   36CHL1    C8 3784   2.491   4.494   5.553 -0.4358  0.8534 -0.2163
   36CHL1    H8 3785   2.461   4.599   5.574 -1.3654  0.6074 -0.2917
   36CHL1   C14 3786   2.483   4.485   5.402  0.4598  0.0499  0.2396
   36CHL1   H14 3787   2.508   4.379   5.378 -1.7594 -0.0244 -2.1292
   36CHL1   C15 3788   2.572   4.576   5.309  0.4096  0.3399 -0.1321
   36CHL1  H15A 3789   2.569   4.684   5.338  0.3966  0.6965 -1.4229
   36CHL1  H15B 3790   2.681   4.556   5.316  0.6919  1.9364  0.6434
   36CHL1   C16 3791   2.507   4.566   5.170  0.1700 -0.2015 -0.6363
   36CHL1  H16A 3792   2.516   4.670   5.133 -0.3234  0.5488  1.2456
   36CHL1  H16B 3793   2.549   4.487   5.104 -1.9106 -0.6836 -1.4590
   36CHL1   C17 3794   2.362   4.505   5.192 -0.0784 -0.5940  0.1143
   36CHL1   H17 3795   2.371   4.396   5.170 -0.5728 -0.4944 -0.6252
   36CHL1   C13 3796   2.344   4.507   5.347 -0.2946  0.3070  0.0724
   36CHL1   C18 3797   2.284   4.646   5.392  0.4391  0.1542 -0.6009
   36CHL1  H18A 3798   2.185   4.644   5.342 -0.1942 -0.6923  0.6004
   36CHL1  H18B 3799   2.263   4.662   5.500 -0.0663 -1.7931 -0.3630
   36CHL1  H18C 3800   2.338   4.730   5.345  0.3625  0.4163 -0.2308
   36CHL1   C12 3801   2.257   4.396   5.408 -0.5039  0.5199 -0.2412
   36CHL1  H12A 3802   2.150   4.411   5.384  0.4740  3.9155 -3.4170
   36CHL1  H12B 3803   2.301   4.300   5.373  2.7216  2.2057 -1.1626
   36CHL1   C11 3804   2.254   4.393   5.567  0.0549  0.5516  0.0686
   36CHL1  H11A 3805   2.202   4.484   5.604  1.1992  0.1996  2.7671
   36CHL1  H11B 3806   2.212   4.295   5.597  0.9911  0.3319  0.6962
   36CHL1    C9 3807   2.399   4.395   5.630  0.4744  0.3148 -0.3867
   36CHL1    H9 3808   2.426   4.289   5.613 -3.0138 -0.7012 -0.3424
   36CHL1   C10 3809   2.409   4.421   5.778  0.0442 -0.2186  0.1899
   36CHL1   C19 3810   2.333   4.549   5.819 -0.6405  0.1034  0.0727
   36CHL1  H19A 3811   2.223   4.532   5.809 -0.2931 -0.9730 -2.8495
   36CHL1  H19B 3812   2.354   4.586   5.922 -0.2770  0.8399 -0.2599
   36CHL1  H19C 3813   2.361   4.630   5.748  2.0423  0.5276  1.4925
   36CHL1    C1 3814   2.355   4.298   5.858  1.0403 -0.0978 -0.5422
   36CHL1   H1A 3815   2.246   4.288   5.840  0.6835 -3.1935  2.3862
   36CHL1   H1B 3816   2.407   4.210   5.816  1.2189  0.1163 -0.7687
   36CHL1    C2 3817   2.367   4.317   6.007 -0.5068 -0.0812 -0.4774
   36CHL1   H2A 3818   2.322   4.224   6.049 -0.0001  0.8268  2.2406
   36CHL1   H2B 3819   2.312   4.403   6.050  0.6686 -0.5835  2.1955
   36CHL1   C20 3820   2.258   4.563   5.102 -0.0390 -0.0679 -0.2347
   36CHL1   H20 3821   2.245   4.668   5.136  1.6811 -0.1798  0.9017
   36CHL1   C21 3822   2.123   4.505   5.122 -0.2920  0.2776  0.0681
   36CHL1  H21A 3823   2.056   4.537   5.040 -0.1528  1.0772  0.2588
   36CHL1  H21B 3824   2.082   4.534   5.221  0.4899  1.0187  0.1825
   36CHL1  H21C 3825   2.140   4.395   5.130  0.1497  0.4700  2.7055
   36CHL1   C22 3826   2.309   4.558   4.958 -0.7608  0.2231  0.7291
   36CHL1  H22A 3827   2.416   4.588   4.952 -1.0647  1.4873  1.3105
   36CHL1  H22B 3828   2.285   4.462   4.908  0.4800  1.3256 -2.2232
   36CHL1   C23 3829   2.242   4.667   4.872  0.0074 -0.4038 -0.5446
   36CHL1  H23A 3830   2.145   4.637   4.828 -0.2424  1.3990 -1.3403
   36CHL1  H23B 3831   2.216   4.745   4.947  0.7356 -2.2103  1.6888
   36CHL1   C24 3832   2.329   4.712   4.755  1.1003  0.2642 -0.3793
   36CHL1  H24A 3833   2.354   4.619   4.700 -2.5667  0.0125 -1.8657
   36CHL1  H24B 3834   2.261   4.770   4.689  0.4955  1.0506  0.8957
   36CHL1   C25 3835   2.447   4.805   4.796 -0.3323 -0.5528  0.2899
   36CHL1   H25 3836   2.520   4.742   4.852 -0.6926 -1.4049 -0.1672
   36CHL1   C26 3837   2.525   4.852   4.664 -0.2803 -0.0661 -0.1578
   36CHL1  H26A 3838   2.467   4.935   4.618 -0.4738  1.3782  2.4874
   36CHL1  H26B 3839   2.619   4.890   4.709 -0.5176 -2.5795  2.8058
   36CHL1  H26C 3840   2.560   4.769   4.598  1.8759  0.5216  0.1653
   36CHL1   C27 3841   2.413   4.923   4.874  0.0707 -0.4384 -0.0526
   36CHL1  H27A 3842   2.483   5.004   4.847 -0.0744  0.4176  1.9566
   36CHL1  H27B 3843   2.312   4.957   4.840  0.6513  0.8621 -0.5425
   36CHL1  H27C 3844   2.411   4.907   4.984 -1.3362 -1.5578 -0.2037
   37CHL1    C3 3845   2.493   0.591   6.272  0.4819  0.3033 -0.1266
   37CHL1    H3 3846   2.434   0.685   6.262 -0.0214 -0.1723 -2.0618
   37CHL1    O3 3847   2.518   0.579   6.411 -0.2643  0.3062  0.0220
   37CHL1   H3' 3848   2.463   0.506   6.442 -1.2082  0.7034 -0.6512
   37CHL1    C4 3849   2.387   0.484   6.227 -0.1265 -0.8376 -0.4200
   37CHL1   H4A 3850   2.437   0.388   6.249  1.7623  0.1339 -0.2260
   37CHL1   H4B 3851   2.300   0.497   6.294  1.0306  2.1187  0.7160
   37CHL1    C5 3852   2.345   0.490   6.086 -0.5997 -1.1833 -0.4003
   37CHL1    C6 3853   2.222   0.485   6.038  0.1246  0.7586  0.4384
   37CHL1    H6 3854   2.133   0.473   6.102 -2.9251  2.4531 -3.1017
   37CHL1    C7 3855   2.187   0.486   5.891  0.1080 -0.2987  0.1616
   37CHL1   H7A 3856   2.105   0.414   5.874 -3.1507  2.3676  2.9458
   37CHL1   H7B 3857   2.141   0.585   5.866  0.8200 -0.0420 -0.1467
   37CHL1    C8 3858   2.314   0.466   5.792  0.0907 -0.3962 -0.4403
   37CHL1    H8 3859   2.340   0.358   5.801  1.1345 -0.0682  0.8313
   37CHL1   C14 3860   2.290   0.517   5.651 -0.4103  0.7709 -0.3604
   37CHL1   H14 3861   2.269   0.625   5.664  0.4890  0.9007  0.0831
   37CHL1   C15 3862   2.166   0.457   5.588 -0.3062  0.0799 -0.2087
   37CHL1  H15A 3863   2.155   0.353   5.625  2.0178 -0.2642 -0.3401
   37CHL1  H15B 3864   2.070   0.507   5.612  1.1679  2.6577  0.6809
   37CHL1   C16 3865   2.188   0.469   5.435  0.1492  0.1825 -1.2733
   37CHL1  H16A 3866   2.209   0.365   5.405  0.0692 -1.7464  4.2070
   37CHL1  H16B 3867   2.111   0.528   5.380 -0.2016  2.4943  1.4558
   37CHL1   C17 3868   2.329   0.531   5.424  0.1226  0.3908  0.0121
   37CHL1   H17 3869   2.308   0.639   5.439 -2.8666 -0.1507  0.2731
   37CHL1   C13 3870   2.405   0.501   5.555 -0.2353  0.4507  0.7184
   37CHL1   C18 3871   2.454   0.347   5.548 -0.5441  0.2628 -0.2541
   37CHL1  H18A 3872   2.533   0.327   5.473 -1.2823 -3.3678 -0.2295
   37CHL1  H18B 3873   2.480   0.309   5.649 -1.8898 -0.5577 -0.1914
   37CHL1  H18C 3874   2.368   0.283   5.519 -0.6628 -0.4857  1.6306
   37CHL1   C12 3875   2.519   0.592   5.602  0.1551  0.7108 -0.7121
   37CHL1  H12A 3876   2.612   0.599   5.542  0.4086  2.0203 -0.1997
   37CHL1  H12B 3877   2.465   0.688   5.593 -0.6153  0.1985 -1.8011
   37CHL1   C11 3878   2.551   0.558   5.757  0.4610  0.4453 -0.0397
   37CHL1  H11A 3879   2.612   0.467   5.743 -4.1877 -2.5988 -2.9526
   37CHL1  H11B 3880   2.617   0.644   5.782  1.1336 -0.0908  0.0427
   37CHL1    C9 3881   2.433   0.545   5.849  0.6279 -0.1109  0.9312
   37CHL1    H9 3882   2.404   0.652   5.848  1.7326  0.2096  1.0804
   37CHL1   C10 3883   2.475   0.495   5.994 -0.1402 -0.2346  0.6856
   37CHL1   C19 3884   2.535   0.349   5.993  0.0417 -0.4237  0.3736
   37CHL1  H19A 3885   2.458   0.274   5.963 -0.7646 -0.5391  2.5986
   37CHL1  H19B 3886   2.626   0.354   5.930  0.8194  1.4815  1.5580
   37CHL1  H19C 3887   2.574   0.317   6.092 -3.0787 -2.1679  1.1576
   37CHL1    C1 3888   2.564   0.607   6.044 -0.1686 -0.0506  0.3872
   37CHL1   H1A 3889   2.662   0.612   5.991  0.4402  0.7399  1.5431
   37CHL1   H1B 3890   2.532   0.713   6.033  2.0742  0.7240  0.6588
   37CHL1    C2 3891   2.616   0.588   6.181 -0.4617  0.6331  0.0074
   37CHL1   H2A 3892   2.686   0.669   6.212 -1.1625  0.3428  2.6531
   37CHL1   H2B 3893   2.672   0.494   6.199  2.0473  2.3006  1.7800
   37CHL1   C20 3894   2.398   0.518   5.289  0.0446 -0.4158 -0.8437
   37CHL1   H20 3895   2.506   0.501   5.312 -0.5153 -2.4496  0.5195
   37CHL1   C21 3896   2.391   0.655   5.215  0.0879 -0.2844  0.4448
   37CHL1  H21A 3897   2.287   0.673   5.178  0.5325  5.3419  1.0191
   37CHL1  H21B 3898   2.463   0.653   5.130  0.4232 -0.0598  0.7262
   37CHL1  H21C 3899   2.427   0.740   5.277  1.5823 -3.0404  3.6406
   37CHL1   C22 3900   2.367   0.392   5.208  0.0067  0.9648  0.0628
   37CHL1  H22A 3901   2.365   0.303   5.275 -2.1552 -1.2510 -2.7036
   37CHL1  H22B 3902   2.275   0.419   5.152  1.7893  0.3571 -3.4306
   37CHL1   C23 3903   2.457   0.365   5.087 -0.7734  0.4583  0.0734
   37CHL1  H23A 3904   2.413   0.277   5.034 -1.1872  0.8735 -0.2830
   37CHL1  H23B 3905   2.456   0.452   5.018 -0.6483 -0.0916 -0.6368
   37CHL1   C24 3906   2.604   0.342   5.131 -0.0906  0.0160  0.1228
   37CHL1  H24A 3907   2.637   0.443   5.164 -0.1716 -0.1924  0.8791
   37CHL1  H24B 3908   2.605   0.269   5.214  1.1099 -0.2735 -0.1361
   37CHL1   C25 3909   2.700   0.297   5.020 -0.9185  0.1642 -0.3564
   37CHL1   H25 3910   2.681   0.367   4.936  0.4363 -0.2354 -1.0230
   37CHL1   C26 3911   2.844   0.327   5.068  0.1607 -0.5314 -0.4009
   37CHL1  H26A 3912   2.860   0.431   5.103 -2.8976 -0.8694  2.5536
   37CHL1  H26B 3913   2.882   0.258   5.146 -0.1710 -1.7384 -1.2748
   37CHL1  H26C 3914   2.914   0.315   4.983  1.2392  1.3094  0.1794
   37CHL1   C27 3915   2.683   0.146   4.986  0.3700  0.2010 -0.1241
   37CHL1  H27A 3916   2.751   0.135   4.898 -0.4653 -2.2974 -0.5253
   37CHL1  H27B 3917   2.717   0.081   5.069  1.9316  1.9769  0.7155
   37CHL1  H27C 3918   2.578   0.134   4.952 -1.7192  2.4176  4.6331
   38CHL1    C3 3919   3.155   1.273   6.073 -0.9385 -0.3058 -0.1742
   38CHL1    H3 3920   3.147   1.162   6.071  1.4857 -0.5541  0.9206
   38CHL1    O3 3921   3.179   1.307   6.209 -0.1603  0.1812  0.1308
   38CHL1   H3' 3922   3.192   1.401   6.197 -0.1344 -0.0840 -2.4618
   38CHL1    C4 3923   3.289   1.307   6.003  0.2727  0.3595 -0.7269
   38CHL1   H4A 3924   3.313   1.416   6.013 -2.6886  1.1896 -1.6793
   38CHL1   H4B 3925   3.364   1.248   6.061 -0.6696  0.9812  1.2245
   38CHL1    C5 3926   3.275   1.255   5.860  0.5042 -0.1880 -0.0249
   38CHL1    C6 3927   3.350   1.156   5.809  0.3159  0.3210 -1.0339
   38CHL1    H6 3928   3.425   1.106   5.872 -0.7719 -0.4662 -0.3218
   38CHL1    C7 3929   3.351   1.108   5.666  0.0329 -0.3531 -0.4721
   38CHL1   H7A 3930   3.456   1.099   5.631  0.1476  0.3344 -0.3157
   38CHL1   H7B 3931   3.299   1.009   5.656  0.2066 -0.3647 -1.3766
   38CHL1    C8 3932   3.260   1.205   5.578 -1.3425  0.1044  0.1706
   38CHL1    H8 3933   3.321   1.295   5.554 -3.6374  1.6723 -0.1047
   38CHL1   C14 3934   3.217   1.127   5.451  0.4170 -0.4215  0.3316
   38CHL1   H14 3935   3.145   1.049   5.484  0.8206 -0.0873  2.1141
   38CHL1   C15 3936   3.323   1.060   5.374 -0.4466 -0.1296  0.4411
   38CHL1  H15A 3937   3.410   1.128   5.363 -0.8203  0.7086  2.2454
   38CHL1  H15B 3938   3.353   0.973   5.435 -0.9333 -1.6036 -1.3529
   38CHL1   C16 3939   3.258   1.029   5.238 -0.0736  0.0544  0.3812
   38CHL1  H16A 3940   3.322   1.054   5.151 -1.2825  0.0808 -0.5222
   38CHL1  H16B 3941   3.233   0.921   5.235 -0.4040  0.1487 -0.4227
   38CHL1   C17 3942   3.127   1.109   5.232  0.3902 -0.6407 -0.5327
   38CHL1   H17 3943   3.045   1.041   5.263 -0.4100  0.9246  0.9746
   38CHL1   C13 3944   3.140   1.216   5.345  0.0762  0.3233 -0.1531
   38CHL1   C18 3945   3.226   1.326   5.289  0.1328 -0.1032  0.4580
   38CHL1  H18A 3946   3.174   1.391   5.216  2.3464  3.2748  1.6478
   38CHL1  H18B 3947   3.243   1.406   5.365 -1.5167 -0.1386  0.9001
   38CHL1  H18C 3948   3.322   1.292   5.245  0.4507  0.4749  0.6822
   38CHL1   C12 3949   3.015   1.265   5.414 -0.1590 -0.1950  0.1759
   38CHL1  H12A 3950   2.944   1.327   5.354 -0.5388 -0.8871 -0.1080
   38CHL1  H12B 3951   2.954   1.172   5.422 -0.8355  0.2576  0.3864
   38CHL1   C11 3952   3.043   1.329   5.549  0.6904 -0.9217 -0.0333
   38CHL1  H11A 3953   3.084   1.430   5.525 -3.9168  1.0753 -0.4984
   38CHL1  H11B 3954   2.947   1.349   5.600  1.8648 -1.8979  2.7599
   38CHL1    C9 3955   3.135   1.251   5.649 -0.0616 -0.2369  0.5833
   38CHL1    H9 3956   3.077   1.158   5.669  1.1013 -0.8883  1.0341
   38CHL1   C10 3957   3.153   1.324   5.780 -0.6402 -0.7990  0.2850
   38CHL1   C19 3958   3.181   1.478   5.762  0.2785 -0.4425  0.3110
   38CHL1  H19A 3959   3.098   1.528   5.707  0.4463 -0.2429  0.2369
   38CHL1  H19B 3960   3.194   1.531   5.859  1.3622 -0.5510  0.2374
   38CHL1  H19C 3961   3.273   1.500   5.704 -0.8665  1.8379 -0.7810
   38CHL1    C1 3962   3.030   1.305   5.867  1.0668 -0.1012  0.2666
   38CHL1   H1A 3963   2.947   1.359   5.815  1.6093  1.1300  0.6307
   38CHL1   H1B 3964   2.997   1.199   5.866 -1.3762  0.6065  0.0819
   38CHL1    C2 3965   3.038   1.350   6.010  0.1576  0.4850 -0.4094
   38CHL1   H2A 3966   2.942   1.330   6.063 -0.3931 -1.0113 -1.8890
   38CHL1   H2B 3967   3.064   1.457   6.021  0.2053  0.3281  1.2978
   38CHL1   C20 3968   3.082   1.168   5.097 -0.0857 -0.0439  0.5345
   38CHL1   H20 3969   3.158   1.243   5.067  2.5260 -2.4006  0.8878
   38CHL1   C21 3970   2.943   1.228   5.109 -0.3469  0.0822  0.2213
   38CHL1  H21A 3971   2.950   1.334   5.141 -0.7410 -0.1272  1.0200
   38CHL1  H21B 3972   2.869   1.172   5.170 -2.8411  1.7285 -1.1312
   38CHL1  H21C 3973   2.904   1.250   5.008  1.4562  2.0333 -0.1446
   38CHL1   C22 3974   3.074   1.053   4.999  0.1093  0.3475 -0.1890
   38CHL1  H22A 3975   3.163   0.988   5.008  0.5881  0.9399 -0.5732
   38CHL1  H22B 3976   2.974   1.007   5.017 -0.1733  0.6652 -0.8776
   38CHL1   C23 3977   3.063   1.093   4.849 -0.4894  1.1011 -0.6396
   38CHL1  H23A 3978   2.998   1.016   4.802  0.5320  0.2599 -0.7127
   38CHL1  H23B 3979   3.015   1.193   4.841 -0.8976  0.9426 -0.2031
   38CHL1   C24 3980   3.208   1.104   4.801  0.3847  0.2837  0.5254
   38CHL1  H24A 3981   3.252   1.192   4.852  0.3239  1.6349 -1.6529
   38CHL1  H24B 3982   3.281   1.024   4.826  2.2321  1.4843 -0.8472
   38CHL1   C25 3983   3.215   1.137   4.652  0.0787  0.5002 -0.0167
   38CHL1   H25 3984   3.167   1.232   4.620 -0.0271 -0.2534 -2.3400
   38CHL1   C26 3985   3.367   1.154   4.617 -0.2328 -0.4824 -0.4756
   38CHL1  H26A 3986   3.381   1.177   4.510  1.3930  1.3447  0.0692
   38CHL1  H26B 3987   3.410   1.241   4.671 -0.6590  0.3350 -1.4291
   38CHL1  H26C 3988   3.433   1.067   4.638 -0.0960 -0.0067  1.2604
   38CHL1   C27 3989   3.163   1.019   4.568  0.2732 -0.1752 -0.4746
   38CHL1  H27A 3990   3.055   0.997   4.588 -0.4714  0.1478 -3.6459
   38CHL1  H27B 3991   3.167   1.038   4.459  0.7810  0.1405 -0.4020
   38CHL1  H27C 3992   3.213   0.925   4.602 -1.3652 -0.0566  2.6101
   39CHL1    C3 3993   4.824   2.295   6.504  0.3834 -0.2161 -0.0324
   39CHL1    H3 3994   4.735   2.343   6.458 -0.4474 -2.7032 -1.2385
   39CHL1    O3 3995   4.843   2.311   6.642  0.0040  0.1648  0.3003
   39CHL1   H3' 3996   4.934   2.284   6.657 -0.0047 -0.5316 -0.8271
   39CHL1    C4 3997   4.799   2.145   6.479  0.0314 -0.5719 -0.1334
   39CHL1   H4A 3998   4.877   2.087   6.533 -0.3699 -1.6329 -0.6515
   39CHL1   H4B 3999   4.700   2.120   6.521  0.4360  1.2734  2.0735
   39CHL1    C5 4000   4.801   2.103   6.333 -0.3019  0.5357 -1.0513
   39CHL1    C6 4001   4.700   2.032   6.278 -0.1175  1.2587  0.6067
   39CHL1    H6 4002   4.621   1.994   6.345  0.7451 -0.6215  0.6017
   39CHL1    C7 4003   4.694   1.983   6.129 -0.3074  0.6453  0.1233
   39CHL1   H7A 4004   4.678   1.873   6.129  0.4674  0.5272  0.1905
   39CHL1   H7B 4005   4.614   2.039   6.076 -1.8891 -0.6180  1.0627
   39CHL1    C8 4006   4.828   2.010   6.061  0.2105 -1.1262 -0.9158
   39CHL1    H8 4007   4.905   1.935   6.090 -0.7316 -0.8580  2.6468
   39CHL1   C14 4008   4.805   1.997   5.911  0.2101  0.9224  0.1124
   39CHL1   H14 4009   4.732   2.077   5.887 -0.0623  0.5605 -0.2625
   39CHL1   C15 4010   4.747   1.866   5.847 -0.1074 -1.0754  0.4096
   39CHL1  H15A 4011   4.808   1.781   5.884  1.6519  0.5125  1.2915
   39CHL1  H15B 4012   4.639   1.856   5.870 -0.3174 -1.4199 -0.6702
   39CHL1   C16 4013   4.783   1.891   5.697 -0.5280  0.3345  0.5375
   39CHL1  H16A 4014   4.826   1.801   5.649 -1.8420  0.3624 -0.7837
   39CHL1  H16B 4015   4.699   1.893   5.623  2.9313 -0.1711 -3.8265
   39CHL1   C17 4016   4.870   2.013   5.685  0.4215  0.3676 -0.6575
   39CHL1   H17 4017   4.806   2.101   5.662 -0.4622  0.7384  2.6283
   39CHL1   C13 4018   4.926   2.029   5.825  0.5656 -0.5732 -0.0193
   39CHL1   C18 4019   5.031   1.918   5.847 -0.2399  0.4614  0.2184
   39CHL1  H18A 4020   4.991   1.816   5.830 -2.4011  1.1246  0.9925
   39CHL1  H18B 4021   5.121   1.933   5.783  0.5261  0.7469  1.3256
   39CHL1  H18C 4022   5.075   1.919   5.949  0.4672 -3.1572  0.0530
   39CHL1   C12 4023   4.967   2.170   5.862  0.5858 -0.5085 -0.6374
   39CHL1  H12A 4024   5.053   2.205   5.802  1.3312 -1.1807  0.0163
   39CHL1  H12B 4025   4.881   2.233   5.828  1.1372 -0.8816 -2.8973
   39CHL1   C11 4026   5.001   2.188   6.009  0.3545 -0.7968 -0.3646
   39CHL1  H11A 4027   5.093   2.134   6.039  1.5394  0.9124 -0.7590
   39CHL1  H11B 4028   5.018   2.297   6.021 -1.2297 -0.4543 -1.0178
   39CHL1    C9 4029   4.889   2.148   6.100  0.4485 -0.1850 -0.5824
   39CHL1    H9 4030   4.810   2.224   6.083  0.7567  1.5878  4.1571
   39CHL1   C10 4031   4.915   2.164   6.251 -0.3338 -0.5200 -0.7198
   39CHL1   C19 4032   5.041   2.082   6.289  0.1406  0.1886 -0.0379
   39CHL1  H19A 4033   5.042   1.976   6.256 -0.9955 -0.3169  1.4411
   39CHL1  H19B 4034   5.127   2.127   6.235  0.0291  1.9024  1.1473
   39CHL1  H19C 4035   5.075   2.079   6.395  1.0802  0.0847 -0.3379
   39CHL1    C1 4036   4.952   2.313   6.286 -0.3014  0.1048 -0.7174
   39CHL1   H1A 4037   5.048   2.329   6.233  0.3278 -2.7129 -0.6348
   39CHL1   H1B 4038   4.870   2.377   6.248 -1.3679 -0.1004  1.0890
   39CHL1    C2 4039   4.952   2.345   6.441 -0.5484  0.4970  0.6168
   39CHL1   H2A 4040   4.954   2.456   6.446 -1.7308  0.5110  1.0091
   39CHL1   H2B 4041   5.045   2.301   6.482 -0.4864  0.4024  0.3803
   39CHL1   C20 4042   4.971   2.008   5.571  0.2140  0.0747  1.0769
   39CHL1   H20 4043   5.042   1.924   5.584  1.6221  0.8419 -1.2256
   39CHL1   C21 4044   5.050   2.139   5.554  0.1419  0.2790  0.2769
   39CHL1  H21A 4045   5.128   2.147   5.633  3.3771  1.8910 -2.8003
   39CHL1  H21B 4046   4.993   2.234   5.568  1.2112  1.0585 -0.4770
   39CHL1  H21C 4047   5.112   2.149   5.462  1.1338  0.0617  0.9113
   39CHL1   C22 4048   4.896   1.970   5.435  0.5332  0.2898 -0.8070
   39CHL1  H22A 4049   4.848   1.871   5.454  1.2634 -0.4192 -2.4054
   39CHL1  H22B 4050   4.819   2.046   5.411  0.2225  0.3753  0.3909
   39CHL1   C23 4051   4.980   1.970   5.305  0.2175 -0.6415 -0.9152
   39CHL1  H23A 4052   4.998   2.075   5.273  3.7174 -0.8541 -0.1155
   39CHL1  H23B 4053   5.077   1.918   5.319  0.2962 -0.5031 -0.9432
   39CHL1   C24 4054   4.905   1.914   5.184 -0.3530  0.2847  0.7546
   39CHL1  H24A 4055   4.860   1.818   5.217  2.9160 -1.9653 -0.7497
   39CHL1  H24B 4056   4.825   1.985   5.151 -1.3087 -1.4582 -0.9243
   39CHL1   C25 4057   4.996   1.890   5.059  0.5783  0.6949 -0.1084
   39CHL1   H25 4058   5.069   1.812   5.087 -0.3012 -0.0183  0.2440
   39CHL1   C26 4059   4.912   1.813   4.953 -0.1745  0.5446 -0.0994
   39CHL1  H26A 4060   4.818   1.871   4.938 -0.3359  0.5297  0.8103
   39CHL1  H26B 4061   4.962   1.806   4.854 -0.1571  3.0627 -0.3512
   39CHL1  H26C 4062   4.891   1.712   4.994 -0.7623  0.7870  0.2184
   39CHL1   C27 4063   5.070   2.016   5.013 -0.1718 -0.1174  0.0659
   39CHL1  H27A 4064   5.108   2.001   4.910 -1.5149 -1.4616 -0.2709
   39CHL1  H27B 4065   4.991   2.094   5.024 -0.6276 -0.6860  0.9259
   39CHL1  H27C 4066   5.156   2.026   5.081  0.2461 -1.8037 -0.1684
   40CHL1    C3 4067   6.394   5.690   6.355 -0.1500 -0.2230 -0.0286
   40CHL1    H3 4068   6.434   5.789   6.325  0.1997 -0.7922 -1.5088
   40CHL1    O3 4069   6.370   5.693   6.496 -0.3731 -0.0145  0.3540
   40CHL1   H3' 4070   6.458   5.685   6.532 -1.0044  1.2219  2.3998
   40CHL1    C4 4071   6.264   5.664   6.300 -0.4322 -0.3056  0.1150
   40CHL1   H4A 4072   6.234   5.567   6.344  0.9047 -1.9856 -2.4200
   40CHL1   H4B 4073   6.184   5.736   6.330 -2.2920 -1.9044 -0.7925
   40CHL1    C5 4074   6.262   5.645   6.150  0.4920 -0.0955  0.5977
   40CHL1    C6 4075   6.177   5.713   6.066 -0.0084  0.4877 -0.6107
   40CHL1    H6 4076   6.108   5.787   6.110 -0.6067  0.2416 -1.1264
   40CHL1    C7 4077   6.173   5.695   5.917  0.4086 -0.9055  0.0046
   40CHL1   H7A 4078   6.066   5.677   5.892 -0.1103  1.6124  0.1444
   40CHL1   H7B 4079   6.215   5.778   5.856 -1.0743 -0.0032  0.1699
   40CHL1    C8 4080   6.253   5.565   5.867 -0.5767  0.5104  0.0997
   40CHL1    H8 4081   6.189   5.474   5.880 -0.7495  0.2808 -2.0160
   40CHL1   C14 4082   6.282   5.576   5.718  0.1303  0.2109  0.2476
   40CHL1   H14 4083   6.334   5.673   5.702  0.1538  0.2202  0.3802
   40CHL1   C15 4084   6.155   5.602   5.632 -0.6594  0.1342 -0.0756
   40CHL1  H15A 4085   6.058   5.561   5.666 -1.1403 -1.3862 -2.9536
   40CHL1  H15B 4086   6.148   5.712   5.636 -1.1526  0.0870  0.4127
   40CHL1   C16 4087   6.203   5.568   5.495 -0.7858 -0.3626  0.1526
   40CHL1  H16A 4088   6.140   5.489   5.449 -1.9176 -0.1041  1.2363
   40CHL1  H16B 4089   6.189   5.658   5.431  0.5296  0.7002  1.2905
   40CHL1   C17 4090   6.349   5.505   5.506 -1.0096 -0.1467 -0.2131
   40CHL1   H17 4091   6.408   5.595   5.479 -0.7424 -0.1720  0.2664
   40CHL1   C13 4092   6.358   5.464   5.653 -0.1296  0.2465 -0.3075
   40CHL1   C18 4093   6.293   5.325   5.676 -0.7392 -0.3656 -0.5015
   40CHL1  H18A 4094   6.193   5.322   5.627 -1.1500 -0.2340  0.3247
   40CHL1  H18B 4095   6.353   5.239   5.638  1.1011  0.4998  0.3048
   40CHL1  H18C 4096   6.268   5.306   5.782  1.5144  1.5427  0.4655
   40CHL1   C12 4097   6.498   5.476   5.724 -0.0289 -0.5181 -0.0675
   40CHL1  H12A 4098   6.574   5.405   5.684 -0.8665 -0.6058 -1.5695
   40CHL1  H12B 4099   6.542   5.576   5.705  0.7051 -1.0693 -1.4725
   40CHL1   C11 4100   6.491   5.460   5.879  0.1226 -0.5992  0.0290
   40CHL1  H11A 4101   6.471   5.354   5.904 -1.5025 -0.0962  1.0138
   40CHL1  H11B 4102   6.595   5.480   5.913  0.0357 -0.2683  0.1003
   40CHL1    C9 4103   6.392   5.559   5.940  0.3141 -0.2931 -0.0899
   40CHL1    H9 4104   6.431   5.663   5.934 -2.3450  0.7891 -0.2062
   40CHL1   C10 4105   6.376   5.545   6.094  0.1079 -0.4204 -0.0988
   40CHL1   C19 4106   6.338   5.405   6.133  0.5617  0.0669  0.4636
   40CHL1  H19A 4107   6.313   5.383   6.239 -1.5964 -0.3298 -0.0707
   40CHL1  H19B 4108   6.256   5.366   6.069  2.4839 -2.9821 -0.3496
   40CHL1  H19C 4109   6.417   5.329   6.113 -1.1113 -1.0332 -2.5907
   40CHL1    C1 4110   6.510   5.584   6.161 -0.0784  0.7339  0.0631
   40CHL1   H1A 4111   6.588   5.509   6.138  0.1578  0.0581  2.7390
   40CHL1   H1B 4112   6.551   5.679   6.119  0.8171 -0.1481 -1.1400
   40CHL1    C2 4113   6.498   5.587   6.316  0.0334  0.3711  0.1554
   40CHL1   H2A 4114   6.597   5.617   6.357  1.5467 -1.0514 -2.1635
   40CHL1   H2B 4115   6.469   5.486   6.351 -1.0452 -0.2056 -2.1871
   40CHL1   C20 4116   6.374   5.398   5.400  0.3804 -0.6008  0.7340
   40CHL1   H20 4117   6.320   5.303   5.422 -0.9213 -0.0584  0.0009
   40CHL1   C21 4118   6.528   5.362   5.400  0.1038  0.3595  0.4549
   40CHL1  H21A 4119   6.526   5.274   5.333  0.0743  0.8009 -0.1270
   40CHL1  H21B 4120   6.548   5.323   5.502  1.7864 -2.1903 -0.7281
   40CHL1  H21C 4121   6.606   5.435   5.368  0.3452 -0.4304 -0.8210
   40CHL1   C22 4122   6.331   5.438   5.259 -0.3292 -0.4262 -0.0969
   40CHL1  H22A 4123   6.222   5.455   5.259 -0.2171  0.4749 -2.0431
   40CHL1  H22B 4124   6.382   5.536   5.252  2.4329 -1.8526 -2.3876
   40CHL1   C23 4125   6.355   5.345   5.138 -0.0812  0.0249  0.0160
   40CHL1  H23A 4126   6.449   5.288   5.153  0.7203  1.6043  1.2379
   40CHL1  H23B 4127   6.274   5.269   5.148 -0.1713  0.0150 -0.7268
   40CHL1   C24 4128   6.357   5.413   5.009  0.2128 -0.1687  0.4625
   40CHL1  H24A 4129   6.251   5.444   4.999  0.2703 -0.0938  0.0645
   40CHL1  H24B 4130   6.414   5.507   5.027  0.0648 -0.0182  0.1680
   40CHL1   C25 4131   6.397   5.327   4.886 -0.8434  0.2765  0.7959
   40CHL1   H25 4132   6.338   5.233   4.899 -0.9592  0.5833  2.7943
   40CHL1   C26 4133   6.349   5.402   4.759 -0.2857  0.1910 -0.0807
   40CHL1  H26A 4134   6.241   5.429   4.760 -0.9338 -1.9163 -2.1602
   40CHL1  H26B 4135   6.404   5.497   4.746  1.8352 -0.6786  1.9211
   40CHL1  H26C 4136   6.371   5.343   4.667  4.3069 -0.8717  1.4331
   40CHL1   C27 4137   6.555   5.321   4.886  0.2198  0.2752 -0.3366
   40CHL1  H27A 4138   6.577   5.259   4.976 -1.3657  0.2624  0.0805
   40CHL1  H27B 4139   6.580   5.269   4.791 -2.1310 -1.4372 -0.1119
   40CHL1  H27C 4140   6.589   5.427   4.880  2.0793 -0.3261 -1.1774
   41CHL1    C3 4141   2.965   5.723   6.231  0.0231  0.3838 -0.8012
   41CHL1    H3 4142   3.040   5.641   6.229 -0.0157  0.2166  1.8946
   41CHL1    O3 4143   2.899   5.727   6.355 -0.8543  0.4905 -0.1282
   41CHL1   H3' 4144   2.965   5.746   6.422 -0.5872 -0.7657 -0.0118
   41CHL1    C4 4145   3.033   5.857   6.197  0.1756 -0.2064 -1.0072
   41CHL1   H4A 4146   2.960   5.937   6.221  0.2643 -0.3861 -0.0988
   41CHL1   H4B 4147   3.108   5.874   6.277 -4.1975  1.6154  3.1879
   41CHL1    C5 4148   3.080   5.871   6.054 -0.2549 -0.5022  0.0113
   41CHL1    C6 4149   3.210   5.901   6.018  0.0376  0.8019 -0.0619
   41CHL1    H6 4150   3.287   5.907   6.096  2.6807 -1.1578 -2.3243
   41CHL1    C7 4151   3.257   5.920   5.879 -0.4488  0.3013 -0.1585
   41CHL1   H7A 4152   3.331   6.002   5.870 -0.3035 -0.0490 -4.3231
   41CHL1   H7B 4153   3.317   5.832   5.849  0.8611  1.1309 -0.0248
   41CHL1    C8 4154   3.139   5.941   5.778 -0.0344  0.4016  0.5216
   41CHL1    H8 4155   3.096   6.043   5.788 -1.3093  0.2049 -2.1832
   41CHL1   C14 4156   3.193   5.913   5.638 -0.8565 -0.1752 -1.1340
   41CHL1   H14 4157   3.231   5.809   5.632  0.0525  0.1176 -0.6243
   41CHL1   C15 4158   3.314   5.996   5.592 -0.5170 -0.2619  0.2345
   41CHL1  H15A 4159   3.306   6.089   5.653 -0.0725  1.4376 -2.1263
   41CHL1  H15B 4160   3.412   5.953   5.621  0.3678  1.0084 -0.7095
   41CHL1   C16 4161   3.297   5.990   5.442 -0.1941 -0.0803  1.0249
   41CHL1  H16A 4162   3.285   6.093   5.403  1.1982 -1.1099 -2.4662
   41CHL1  H16B 4163   3.384   5.944   5.390  0.2763 -1.5844  3.0039
   41CHL1   C17 4164   3.160   5.913   5.406 -0.8386 -0.7245 -0.2590
   41CHL1   H17 4165   3.185   5.805   5.396  1.8442 -0.0855 -1.1020
   41CHL1   C13 4166   3.072   5.929   5.535  0.0373 -0.0025 -0.5468
   41CHL1   C18 4167   3.016   6.077   5.537 -0.2137 -0.3353  0.5566
   41CHL1  H18A 4168   3.092   6.145   5.493  0.1131 -1.2155 -0.2765
   41CHL1  H18B 4169   2.924   6.088   5.475  0.7743  2.5247 -0.5670
   41CHL1  H18C 4170   2.990   6.116   5.638  1.9789  0.9500  0.6943
   41CHL1   C12 4171   2.959   5.831   5.563 -0.0761  1.2916  0.4690
   41CHL1  H12A 4172   2.884   5.831   5.481 -0.2966 -1.2919  0.5828
   41CHL1  H12B 4173   3.003   5.730   5.549 -2.6667  0.2689 -1.0432
   41CHL1   C11 4174   2.908   5.843   5.702 -0.7443  0.3997 -0.3155
   41CHL1  H11A 4175   2.860   5.943   5.702 -2.5655 -0.4244 -0.9061
   41CHL1  H11B 4176   2.823   5.771   5.707  1.0082 -1.7001  2.5931
   41CHL1    C9 4177   3.023   5.842   5.804  0.0573  0.2135  0.5135
   41CHL1    H9 4178   3.073   5.743   5.800 -0.7412 -0.2182  0.9514
   41CHL1   C10 4179   2.969   5.845   5.950  0.8115 -0.0873 -0.1302
   41CHL1   C19 4180   2.865   5.961   5.968 -0.1450  0.3178 -0.4794
   41CHL1  H19A 4181   2.899   6.065   5.946  2.6467 -0.2058  0.8775
   41CHL1  H19B 4182   2.783   5.939   5.897 -1.7233  0.9317  1.0757
   41CHL1  H19C 4183   2.819   5.968   6.069 -0.7844 -1.2738 -0.6421
   41CHL1    C1 4184   2.918   5.704   5.991  0.3075  0.5818  0.1513
   41CHL1   H1A 4185   2.833   5.680   5.924  0.0186  1.7301  0.0819
   41CHL1   H1B 4186   3.002   5.631   5.994  0.0222  0.2857  1.3093
   41CHL1    C2 4187   2.855   5.693   6.125 -0.4261 -0.1657 -0.0726
   41CHL1   H2A 4188   2.805   5.594   6.139  1.4583 -1.2362 -0.5632
   41CHL1   H2B 4189   2.789   5.780   6.144 -0.3002 -0.0201 -0.3020
   41CHL1   C20 4190   3.101   5.969   5.275  0.0386 -0.7919  0.0367
   41CHL1   H20 4191   3.074   6.076   5.287  0.8773 -0.6923  1.2804
   41CHL1   C21 4192   2.970   5.891   5.234 -0.1462  0.4482  0.1228
   41CHL1  H21A 4193   2.873   5.929   5.274 -1.0874  0.0618 -1.7054
   41CHL1  H21B 4194   2.974   5.782   5.257 -1.8255  0.6125  1.3604
   41CHL1  H21C 4195   2.948   5.911   5.127 -0.5095  1.0724  0.3100
   41CHL1   C22 4196   3.199   5.967   5.155 -0.2482 -0.2801  0.1170
   41CHL1  H22A 4197   3.141   6.003   5.066 -0.0186  0.4454  0.2512
   41CHL1  H22B 4198   3.281   6.041   5.169 -0.1615 -0.3906  0.1940
   41CHL1   C23 4199   3.250   5.822   5.131  0.3026 -0.4662 -0.1194
   41CHL1  H23A 4200   3.331   5.810   5.206 -0.4980 -0.3184  0.7964
   41CHL1  H23B 4201   3.181   5.739   5.159  1.7205 -1.4419  0.5947
   41CHL1   C24 4202   3.310   5.815   4.986  0.0712  0.5913  0.2033
   41CHL1  H24A 4203   3.318   5.716   4.937 -3.5711 -0.4361  1.3747
   41CHL1  H24B 4204   3.246   5.873   4.916  1.5099  1.3754 -0.5144
   41CHL1   C25 4205   3.448   5.883   4.964  0.8868 -0.2068 -0.2034
   41CHL1   H25 4206   3.435   5.980   5.017 -2.6130  0.6333 -2.3034
   41CHL1   C26 4207   3.567   5.812   5.031 -0.3145 -0.0900 -0.2320
   41CHL1  H26A 4208   3.665   5.860   5.011 -0.0513 -0.9520 -1.0462
   41CHL1  H26B 4209   3.543   5.793   5.138 -0.7749 -1.3539 -0.5412
   41CHL1  H26C 4210   3.565   5.711   4.984  1.6769 -0.9217  1.2813
   41CHL1   C27 4211   3.481   5.905   4.818  1.1138 -0.3123 -0.7414
   41CHL1  H27A 4212   3.424   5.987   4.768  1.2330 -0.7047 -1.5322
   41CHL1  H27B 4213   3.586   5.941   4.809  0.6586  1.6568  1.0201
   41CHL1  H27C 4214   3.464   5.816   4.755 -2.5461 -1.0988  1.1036
   42CHL1    C3 4215   0.817   3.551   6.224  0.1855  0.2679  0.6501
   42CHL1    H3 4216   0.928   3.547   6.214  0.1475 -1.2954  0.7141
   42CHL1    O3 4217   0.776   3.525   6.357  0.1369 -0.3129 -0.3117
   42CHL1   H3' 4218   0.760   3.608   6.403  0.4753 -0.1693 -0.4569
   42CHL1    C4 4219   0.743   3.679   6.172  0.3884  0.2244  1.1063
   42CHL1   H4A 4220   0.633   3.668   6.186  0.5624 -0.7603  1.7685
   42CHL1   H4B 4221   0.782   3.765   6.230 -0.7002  1.7484 -0.3053
   42CHL1    C5 4222   0.776   3.704   6.023  0.6919  0.3969  0.2703
   42CHL1    C6 4223   0.821   3.821   5.972 -0.4342 -0.3205  0.1884
   42CHL1    H6 4224   0.838   3.907   6.038 -0.5602  0.8604 -1.2694
   42CHL1    C7 4225   0.853   3.856   5.829 -0.2254 -0.0569 -0.2403
   42CHL1   H7A 4226   0.826   3.960   5.798 -1.2673 -0.6312 -1.3718
   42CHL1   H7B 4227   0.963   3.856   5.814 -0.2287  1.3049 -0.3856
   42CHL1    C8 4228   0.804   3.744   5.735 -0.0520  0.4069  0.2099
   42CHL1    H8 4229   0.694   3.759   5.727 -0.0217  1.1217  0.9754
   42CHL1   C14 4230   0.868   3.760   5.596 -0.0123  0.5228  0.1319
   42CHL1   H14 4231   0.978   3.749   5.605 -0.2851 -3.1687  0.2638
   42CHL1   C15 4232   0.857   3.893   5.533  0.3950 -0.9118  0.3001
   42CHL1  H15A 4233   0.753   3.930   5.550 -0.1414 -1.3134 -1.8579
   42CHL1  H15B 4234   0.919   3.966   5.589 -0.0199 -1.7088  1.8752
   42CHL1   C16 4235   0.870   3.870   5.383 -0.0528 -0.3624 -0.0427
   42CHL1  H16A 4236   0.777   3.891   5.327  0.6381  0.6889 -0.8365
   42CHL1  H16B 4237   0.957   3.924   5.338  0.7172 -0.0296  1.7616
   42CHL1   C17 4238   0.895   3.713   5.368 -0.2958 -0.4764 -0.9593
   42CHL1   H17 4239   1.004   3.700   5.383 -0.6273 -0.3818  2.1938
   42CHL1   C13 4240   0.828   3.658   5.494 -0.2966 -0.3894 -0.1411
   42CHL1   C18 4241   0.679   3.665   5.465  0.3017  0.4962  0.3396
   42CHL1  H18A 4242   0.645   3.768   5.443 -0.9585 -0.2243 -1.3387
   42CHL1  H18B 4243   0.646   3.599   5.382  0.5059  0.3016  0.4113
   42CHL1  H18C 4244   0.625   3.629   5.555  0.5965 -0.1337  0.2697
   42CHL1   C12 4245   0.870   3.523   5.557 -0.4629 -0.1897  0.3998
   42CHL1  H12A 4246   0.837   3.436   5.497  1.0861 -0.9078  0.5264
   42CHL1  H12B 4247   0.980   3.524   5.574  0.3143 -2.6351 -3.3905
   42CHL1   C11 4248   0.802   3.497   5.691  0.1616  0.0836  0.3754
   42CHL1  H11A 4249   0.697   3.466   5.672  0.8879 -0.6172 -3.2198
   42CHL1  H11B 4250   0.856   3.406   5.726  1.6719  0.0522 -1.8181
   42CHL1    C9 4251   0.821   3.603   5.794  0.7080 -0.7515  0.2880
   42CHL1    H9 4252   0.930   3.591   5.817  0.5733 -0.8312  0.9100
   42CHL1   C10 4253   0.752   3.579   5.928  1.0460  0.0040 -0.1310
   42CHL1   C19 4254   0.598   3.569   5.913  0.0853  0.3284  0.4840
   42CHL1  H19A 4255   0.567   3.487   5.845  0.5620  0.1316  0.5002
   42CHL1  H19B 4256   0.542   3.545   6.007 -1.1570 -1.3488 -0.6100
   42CHL1  H19C 4257   0.554   3.663   5.873 -1.8032 -1.0927 -0.9882
   42CHL1    C1 4258   0.809   3.443   5.986 -0.1434  0.2387  0.7666
   42CHL1   H1A 4259   0.757   3.360   5.933 -2.0340  1.9613 -0.2262
   42CHL1   H1B 4260   0.916   3.441   5.957 -0.2610  0.0473  0.3441
   42CHL1    C2 4261   0.772   3.427   6.137 -0.5078  0.4306  0.3841
   42CHL1   H2A 4262   0.817   3.333   6.175 -0.3514  0.9750  1.5899
   42CHL1   H2B 4263   0.662   3.418   6.149 -0.2588 -1.0563  1.7930
   42CHL1   C20 4264   0.869   3.644   5.229 -0.0897  0.0992 -0.9345
   42CHL1   H20 4265   0.762   3.665   5.208 -0.8231 -0.3223  1.9456
   42CHL1   C21 4266   0.890   3.488   5.233  0.5183  0.0334 -0.5467
   42CHL1  H21A 4267   0.818   3.446   5.306 -0.7788  0.5282 -1.5047
   42CHL1  H21B 4268   0.999   3.471   5.247  0.7606  0.3746 -1.8606
   42CHL1  H21C 4269   0.874   3.447   5.131 -0.2483  0.8332 -0.7562
   42CHL1   C22 4270   0.948   3.705   5.112  0.3004  0.2556  0.5649
   42CHL1  H22A 4271   0.941   3.814   5.131 -0.6549  0.3937 -0.5195
   42CHL1  H22B 4272   1.050   3.662   5.111 -0.2817 -1.1863  0.5651
   42CHL1   C23 4273   0.881   3.679   4.976  0.4102 -0.1486  0.2717
   42CHL1  H23A 4274   0.880   3.570   4.958  3.9941  0.0384 -1.9472
   42CHL1  H23B 4275   0.777   3.717   4.993  0.8742  0.6537  1.4317
   42CHL1   C24 4276   0.951   3.737   4.854  0.3680  0.5084  0.2798
   42CHL1  H24A 4277   0.937   3.846   4.833  0.7295  0.4167 -0.4885
   42CHL1  H24B 4278   1.059   3.719   4.872  0.3960  0.6690  0.2792
   42CHL1   C25 4279   0.909   3.661   4.724  0.1273  0.4085 -0.6349
   42CHL1   H25 4280   0.929   3.553   4.746  2.1536  0.8438 -0.1720
   42CHL1   C26 4281   0.761   3.685   4.673 -0.7138  0.3363  0.4466
   42CHL1  H26A 4282   0.682   3.653   4.744  1.0096 -0.4408  2.1222
   42CHL1  H26B 4283   0.759   3.791   4.641  4.7739  0.0857 -1.9739
   42CHL1  H26C 4284   0.747   3.624   4.581 -1.4250  1.0390  0.0853
   42CHL1   C27 4285   1.008   3.693   4.614 -0.1267 -0.3013 -0.5742
   42CHL1  H27A 4286   1.004   3.802   4.593  0.5604  0.3572  2.2851
   42CHL1  H27B 4287   1.110   3.654   4.633  0.0564  0.0645 -0.8070
   42CHL1  H27C 4288   0.969   3.647   4.521  0.3448 -1.8212 -0.0476
   43CHL1    C3 4289   1.202   1.451   6.195 -0.1736 -0.1421 -0.7431
   43CHL1    H3 4290   1.103   1.499   6.208 -0.5988 -1.5008  1.6005
   43CHL1    O3 4291   1.222   1.376   6.310  0.1101 -0.3947 -0.0666
   43CHL1   H3' 4292   1.138   1.331   6.319 -0.0673 -0.0009  0.3150
   43CHL1    C4 4293   1.201   1.356   6.078  0.5153 -0.3786 -0.6612
   43CHL1   H4A 4294   1.283   1.282   6.087 -1.4591 -2.4763  1.6741
   43CHL1   H4B 4295   1.104   1.302   6.087  0.5071 -0.0655  1.6189
   43CHL1    C5 4296   1.199   1.437   5.947  0.7756 -0.3613  0.3650
   43CHL1    C6 4297   1.115   1.404   5.845  0.5545  0.5915 -0.1653
   43CHL1    H6 4298   1.043   1.323   5.866  0.1551  0.9572 -0.0905
   43CHL1    C7 4299   1.106   1.465   5.706  0.3374 -0.1563 -0.7387
   43CHL1   H7A 4300   1.095   1.393   5.623  2.5375  1.7521 -2.8645
   43CHL1   H7B 4301   1.018   1.532   5.704  0.3857  0.0512  1.5115
   43CHL1    C8 4302   1.229   1.546   5.679  0.7259 -0.3182 -0.9996
   43CHL1    H8 4303   1.311   1.476   5.651  1.1184  0.0939 -0.8985
   43CHL1   C14 4304   1.202   1.638   5.555 -0.8235 -0.6496 -0.8937
   43CHL1   H14 4305   1.128   1.715   5.584  0.9148  0.3330  1.2648
   43CHL1   C15 4306   1.152   1.564   5.438  1.1085  0.2876  0.5353
   43CHL1  H15A 4307   1.205   1.467   5.440  2.5994  1.0749  1.4361
   43CHL1  H15B 4308   1.044   1.542   5.433  1.3073 -0.4516 -0.8030
   43CHL1   C16 4309   1.195   1.647   5.320  0.6267  0.4078  0.0401
   43CHL1  H16A 4310   1.257   1.597   5.242  1.6911 -1.2379  1.8600
   43CHL1  H16B 4311   1.110   1.686   5.261  1.8305  1.7952 -0.8661
   43CHL1   C17 4312   1.269   1.776   5.375  0.1238 -0.2963  0.1000
   43CHL1   H17 4313   1.194   1.852   5.406  0.6917 -0.6218  2.4390
   43CHL1   C13 4314   1.325   1.721   5.509  0.1908  0.8022  0.4739
   43CHL1   C18 4315   1.461   1.640   5.482  0.2345  0.3315 -0.1768
   43CHL1  H18A 4316   1.542   1.696   5.431  2.2067 -0.1477  2.2498
   43CHL1  H18B 4317   1.501   1.587   5.571  0.5583 -0.3390 -0.7143
   43CHL1  H18C 4318   1.439   1.552   5.418  2.2862 -1.3969  1.3423
   43CHL1   C12 4319   1.349   1.820   5.620  0.4303 -0.4612  0.3488
   43CHL1  H12A 4320   1.437   1.885   5.600  1.1464 -1.0067  1.5969
   43CHL1  H12B 4321   1.260   1.884   5.631  0.1943 -0.3746 -1.6138
   43CHL1   C11 4322   1.372   1.742   5.759 -0.0232 -0.6930  0.2126
   43CHL1  H11A 4323   1.474   1.704   5.738 -0.5384 -1.4149 -1.1127
   43CHL1  H11B 4324   1.373   1.816   5.842  0.5935  1.6373 -1.7487
   43CHL1    C9 4325   1.270   1.638   5.797 -0.0379  0.7672  0.1769
   43CHL1    H9 4326   1.176   1.685   5.832 -0.5240 -0.6869  0.9291
   43CHL1   C10 4327   1.304   1.550   5.923  0.4408 -0.6490 -0.1022
   43CHL1   C19 4328   1.439   1.479   5.898  0.1891 -0.4126 -0.6153
   43CHL1  H19A 4329   1.513   1.561   5.888  1.9575 -2.1998 -3.2950
   43CHL1  H19B 4330   1.472   1.420   5.986 -0.3972 -0.4352 -0.4005
   43CHL1  H19C 4331   1.437   1.408   5.813  1.5630 -1.7821  0.4554
   43CHL1    C1 4332   1.298   1.640   6.060 -1.1918  0.4423  0.1880
   43CHL1   H1A 4333   1.379   1.716   6.055 -1.2276  0.4687  0.0135
   43CHL1   H1B 4334   1.203   1.696   6.053 -0.5721  1.4785 -0.1504
   43CHL1    C2 4335   1.305   1.563   6.188  0.2311  0.2789 -0.1118
   43CHL1   H2A 4336   1.288   1.639   6.266  0.6213  1.4610 -1.1403
   43CHL1   H2B 4337   1.408   1.524   6.203  0.7819  2.2993  1.6998
   43CHL1   C20 4338   1.371   1.832   5.269  0.3297  0.0167 -0.6369
   43CHL1   H20 4339   1.449   1.755   5.252  1.3276  0.8647 -0.0413
   43CHL1   C21 4340   1.441   1.963   5.321  0.7287 -0.2044 -0.0963
   43CHL1  H21A 4341   1.536   1.988   5.268  0.9866 -1.4273 -0.2337
   43CHL1  H21B 4342   1.485   1.943   5.421 -2.5977 -2.6724  1.0346
   43CHL1  H21C 4343   1.364   2.042   5.335  0.1658 -0.2737 -2.4003
   43CHL1   C22 4344   1.306   1.856   5.134  0.0577  0.0619  0.3711
   43CHL1  H22A 4345   1.276   1.760   5.088 -0.6819  1.4175 -2.1981
   43CHL1  H22B 4346   1.210   1.910   5.151 -0.0920 -0.8768  2.9993
   43CHL1   C23 4347   1.402   1.921   5.038 -0.2845  0.4709 -0.3374
   43CHL1  H23A 4348   1.431   2.023   5.070  2.2461 -0.2270 -0.1905
   43CHL1  H23B 4349   1.498   1.866   5.040  0.0015  0.9796  1.6537
   43CHL1   C24 4350   1.356   1.931   4.891 -0.0570  0.0577  0.3632
   43CHL1  H24A 4351   1.342   1.830   4.845  1.3849  0.4602 -1.0480
   43CHL1  H24B 4352   1.255   1.977   4.902  0.3023  1.0323 -0.3773
   43CHL1   C25 4353   1.442   2.025   4.807 -0.3896  0.6786 -0.6030
   43CHL1   H25 4354   1.453   2.123   4.857 -0.4798  1.7163 -2.5199
   43CHL1   C26 4355   1.577   1.958   4.788  0.0559  0.1419  0.4006
   43CHL1  H26A 4356   1.636   2.027   4.725  2.6384  0.1604  2.6720
   43CHL1  H26B 4357   1.633   1.952   4.884  0.0137  2.5324  0.6254
   43CHL1  H26C 4358   1.571   1.861   4.735  2.2166  0.0285  0.2943
   43CHL1   C27 4359   1.374   2.048   4.665  0.7273 -0.3897 -0.9464
   43CHL1  H27A 4360   1.274   2.091   4.689  0.0600 -1.7530 -1.1895
   43CHL1  H27B 4361   1.433   2.114   4.597  1.4154  0.7318  0.6692
   43CHL1  H27C 4362   1.366   1.949   4.616  2.9488 -0.3297 -1.5412
   44CHL1    C3 4363   2.460   2.794   6.149  0.6902 -0.0449  0.2508
   44CHL1    H3 4364   2.394   2.878   6.118  1.3126  0.2727 -0.2116
   44CHL1    O3 4365   2.437   2.767   6.285 -0.3754  0.2258  0.2706
   44CHL1   H3' 4366   2.527   2.755   6.319 -1.0290  0.2131  2.1415
   44CHL1    C4 4367   2.401   2.677   6.070 -0.6651 -0.2500  0.3140
   44CHL1   H4A 4368   2.445   2.581   6.105  0.6256  0.6576  1.2591
   44CHL1   H4B 4369   2.293   2.681   6.094 -0.1686  0.8241  2.6456
   44CHL1    C5 4370   2.429   2.692   5.920 -0.2473 -0.7255  0.4601
   44CHL1    C6 4371   2.340   2.693   5.821 -0.0080 -0.2611 -0.2538
   44CHL1    H6 4372   2.233   2.678   5.843  0.2052 -0.0504  0.9869
   44CHL1    C7 4373   2.374   2.696   5.679 -0.7964 -0.5217 -0.0733
   44CHL1   H7A 4374   2.299   2.636   5.622 -2.1802  1.2348 -0.1877
   44CHL1   H7B 4375   2.360   2.800   5.641  2.0264 -0.1142 -0.2200
   44CHL1    C8 4376   2.518   2.653   5.644 -0.2419 -0.7328  0.8531
   44CHL1    H8 4377   2.517   2.542   5.651  0.9640 -0.6935  1.9378
   44CHL1   C14 4378   2.554   2.702   5.500  0.5258  0.0266 -0.1022
   44CHL1   H14 4379   2.537   2.811   5.495  0.5114 -0.0067 -0.9624
   44CHL1   C15 4380   2.466   2.648   5.381 -0.8131  0.2457  0.8848
   44CHL1  H15A 4381   2.450   2.538   5.376  1.6545 -0.1524 -2.8349
   44CHL1  H15B 4382   2.372   2.707   5.374 -0.0274  1.3877 -1.5425
   44CHL1   C16 4383   2.554   2.670   5.257 -0.5743 -0.1206 -0.3336
   44CHL1  H16A 4384   2.550   2.575   5.200 -0.5819  0.8985 -2.1139
   44CHL1  H16B 4385   2.514   2.754   5.196  0.8749  1.4871  0.8290
   44CHL1   C17 4386   2.694   2.720   5.303  0.0934  0.3548  0.8022
   44CHL1   H17 4387   2.697   2.831   5.303  0.9932  0.3420 -0.1260
   44CHL1   C13 4388   2.695   2.677   5.453  0.4011 -0.1832 -0.6079
   44CHL1   C18 4389   2.718   2.518   5.452  0.0356 -0.8017  0.4511
   44CHL1  H18A 4390   2.674   2.469   5.362  0.4145  0.2853 -0.3375
   44CHL1  H18B 4391   2.826   2.498   5.432 -0.4521 -2.0304 -1.1955
   44CHL1  H18C 4392   2.692   2.471   5.549  1.1614 -0.3209  1.0041
   44CHL1   C12 4393   2.796   2.750   5.551  0.3093 -0.0584 -0.1719
   44CHL1  H12A 4394   2.901   2.721   5.530  0.5851  0.6163  0.2464
   44CHL1  H12B 4395   2.784   2.858   5.530  2.3122  0.1613 -0.3724
   44CHL1   C11 4396   2.767   2.706   5.697 -0.1075  0.1880 -0.2344
   44CHL1  H11A 4397   2.786   2.597   5.696  0.9846  0.3816 -1.3065
   44CHL1  H11B 4398   2.835   2.754   5.771 -1.1827  0.2984  0.7128
   44CHL1    C9 4399   2.613   2.725   5.739 -0.2470 -0.4592  0.1584
   44CHL1    H9 4400   2.595   2.834   5.727  1.0995 -0.0873  1.1554
   44CHL1   C10 4401   2.581   2.702   5.884 -0.2982 -1.2696  0.0650
   44CHL1   C19 4402   2.659   2.579   5.930  0.1040  0.3195 -0.5885
   44CHL1  H19A 4403   2.634   2.545   6.033  0.5460  0.2105 -0.5129
   44CHL1  H19B 4404   2.627   2.495   5.866  1.0652  0.0702 -0.7564
   44CHL1  H19C 4405   2.769   2.595   5.922 -0.1488  3.6303  0.7751
   44CHL1    C1 4406   2.621   2.833   5.963 -0.0774  0.7812  0.1666
   44CHL1   H1A 4407   2.727   2.850   5.935 -0.1646 -0.5426 -1.0586
   44CHL1   H1B 4408   2.555   2.916   5.930 -0.8923  0.4930  1.0288
   44CHL1    C2 4409   2.603   2.826   6.118  0.2453  0.5659  0.0926
   44CHL1   H2A 4410   2.641   2.921   6.162  0.9281 -0.0655  0.9026
   44CHL1   H2B 4411   2.679   2.752   6.150  0.0831  0.0448 -0.6903
   44CHL1   C20 4412   2.804   2.673   5.210 -0.5072  0.5129  0.3385
   44CHL1   H20 4413   2.835   2.568   5.225  1.2240  0.5379 -2.3393
   44CHL1   C21 4414   2.930   2.755   5.230  0.2192  0.4724  0.1316
   44CHL1  H21A 4415   2.966   2.721   5.330 -0.0603 -1.7706 -0.4725
   44CHL1  H21B 4416   2.907   2.863   5.239  0.8625  0.5203  1.5098
   44CHL1  H21C 4417   3.009   2.731   5.155 -0.3110 -4.6189  0.8434
   44CHL1   C22 4418   2.757   2.677   5.061 -0.5506  0.0016  0.1281
   44CHL1  H22A 4419   2.686   2.597   5.031 -0.6677  0.3379 -0.5189
   44CHL1  H22B 4420   2.717   2.775   5.029  2.1023  1.1983  0.2076
   44CHL1   C23 4421   2.881   2.644   4.967 -0.1514  0.2747  0.3086
   44CHL1  H23A 4422   2.948   2.733   4.969 -1.3157  1.2021  2.4985
   44CHL1  H23B 4423   2.932   2.553   5.005 -0.4710 -0.4890 -1.0591
   44CHL1   C24 4424   2.839   2.619   4.827 -0.4785  0.0400  1.1708
   44CHL1  H24A 4425   2.783   2.523   4.822 -1.4103  0.5960  0.7793
   44CHL1  H24B 4426   2.783   2.707   4.791 -0.0220  0.3868  1.2989
   44CHL1   C25 4427   2.942   2.618   4.712 -0.2126  0.0997 -0.2869
   44CHL1   H25 4428   3.014   2.535   4.725 -0.9114 -0.6315 -0.9544
   44CHL1   C26 4429   2.873   2.604   4.577 -0.1920 -0.5128  0.1654
   44CHL1  H26A 4430   2.822   2.694   4.537  1.8895  0.7394  0.1805
   44CHL1  H26B 4431   2.949   2.588   4.497 -1.9361 -1.8870 -1.3042
   44CHL1  H26C 4432   2.809   2.513   4.577 -1.5570  0.4212 -0.1600
   44CHL1   C27 4433   3.020   2.753   4.708  0.4892 -0.2752 -0.1480
   44CHL1  H27A 4434   3.063   2.781   4.806  0.9274 -0.3002 -0.3298
   44CHL1  H27B 4435   3.107   2.757   4.639 -1.8707  2.8537 -3.3151
   44CHL1  H27C 4436   2.952   2.832   4.669  1.3483  0.1720 -0.7710
   45CHL1    C3 4437   2.378   5.036   6.386 -0.0628  0.3234 -0.1833
   45CHL1    H3 4438   2.279   4.991   6.368  0.2128 -0.5612  0.4642
   45CHL1    O3 4439   2.410   5.047   6.525  0.1519  0.4979 -0.4819
   45CHL1   H3' 4440   2.505   5.058   6.523  0.4311 -1.6210 -1.0890
   45CHL1    C4 4441   2.491   4.945   6.320  0.5814  0.4105  0.4104
   45CHL1   H4A 4442   2.592   4.971   6.359  2.2638 -3.5729 -0.7543
   45CHL1   H4B 4443   2.475   4.843   6.361  0.3029  0.4939  0.5070
   45CHL1    C5 4444   2.502   4.964   6.169 -0.8926  0.4692 -0.1630
   45CHL1    C6 4445   2.522   4.852   6.099 -0.5423 -0.2773  0.0226
   45CHL1    H6 4446   2.530   4.764   6.165  0.6426  0.2211  0.5829
   45CHL1    C7 4447   2.542   4.853   5.952  0.7142 -0.2392  0.3115
   45CHL1   H7A 4448   2.636   4.810   5.912 -1.0154 -0.5156 -4.0991
   45CHL1   H7B 4449   2.460   4.790   5.911 -0.1476  0.5229  0.7977
   45CHL1    C8 4450   2.535   4.993   5.879 -0.4699  0.4244 -0.3026
   45CHL1    H8 4451   2.641   5.027   5.877 -0.7017  1.2053  0.1432
   45CHL1   C14 4452   2.483   4.971   5.740 -0.1624  0.4297  0.2340
   45CHL1   H14 4453   2.391   4.908   5.743 -0.5795  1.0020  3.1090
   45CHL1   C15 4454   2.586   4.880   5.658 -0.5465 -0.3838  0.3541
   45CHL1  H15A 4455   2.688   4.907   5.692 -1.2950 -0.2711  2.6498
   45CHL1  H15B 4456   2.580   4.770   5.666 -0.4712 -0.4075  0.1057
   45CHL1   C16 4457   2.551   4.918   5.514 -0.7946  0.0648 -0.8539
   45CHL1  H16A 4458   2.648   4.941   5.464 -1.1444  1.0007 -1.1243
   45CHL1  H16B 4459   2.506   4.825   5.473 -2.5263 -0.5367  2.1573
   45CHL1   C17 4460   2.453   5.035   5.525  0.3097 -0.0829  0.3486
   45CHL1   H17 4461   2.354   4.984   5.529  1.0046 -1.6058 -0.8151
   45CHL1   C13 4462   2.477   5.100   5.659  0.2006 -0.5166 -0.3346
   45CHL1   C18 4463   2.610   5.178   5.659  0.1196  0.4389 -0.1935
   45CHL1  H18A 4464   2.696   5.124   5.614 -0.6345 -0.9160 -0.0671
   45CHL1  H18B 4465   2.595   5.276   5.609 -0.0667  0.9215  0.7823
   45CHL1  H18C 4466   2.642   5.212   5.760 -1.9573  1.2917  0.2420
   45CHL1   C12 4467   2.363   5.175   5.725 -0.3202  0.1377 -0.3204
   45CHL1  H12A 4468   2.354   5.276   5.681  1.2890 -0.4039 -2.0325
   45CHL1  H12B 4469   2.270   5.114   5.729 -0.8131  0.9231  1.7409
   45CHL1   C11 4470   2.402   5.204   5.871  0.2156  0.3660 -0.3756
   45CHL1  H11A 4471   2.484   5.279   5.879  0.2500  0.3924 -0.9607
   45CHL1  H11B 4472   2.315   5.250   5.921  0.6721 -0.5071  1.3098
   45CHL1    C9 4473   2.443   5.082   5.958 -0.0173  0.0915 -0.7295
   45CHL1    H9 4474   2.341   5.038   5.964  0.1082 -0.1376 -0.2532
   45CHL1   C10 4475   2.485   5.098   6.102  0.6108 -0.8213 -0.3074
   45CHL1   C19 4476   2.606   5.193   6.114  0.1252  0.1582  0.3414
   45CHL1  H19A 4477   2.691   5.148   6.058 -1.2061 -2.5577  0.3491
   45CHL1  H19B 4478   2.577   5.293   6.075 -0.4377 -0.5603 -1.1389
   45CHL1  H19C 4479   2.639   5.219   6.217  1.6453  1.7622 -0.4880
   45CHL1    C1 4480   2.364   5.167   6.172 -0.0281  0.7593  0.0722
   45CHL1   H1A 4481   2.349   5.272   6.140  1.4743  0.9109 -0.2332
   45CHL1   H1B 4482   2.274   5.105   6.153  2.3215 -2.7828 -0.7263
   45CHL1    C2 4483   2.374   5.173   6.325 -0.3930 -0.6777  0.0240
   45CHL1   H2A 4484   2.279   5.226   6.351 -1.5496 -2.0088 -1.3105
   45CHL1   H2B 4485   2.458   5.243   6.344 -0.1898  0.0009 -2.9312
   45CHL1   C20 4486   2.443   5.128   5.400 -0.6160 -0.3606  0.4085
   45CHL1   H20 4487   2.378   5.215   5.422  0.2894  0.6962 -0.8954
   45CHL1   C21 4488   2.381   5.037   5.291  0.0030 -0.2416  0.3274
   45CHL1  H21A 4489   2.367   5.099   5.200 -0.0690 -0.5841  0.1064
   45CHL1  H21B 4490   2.287   4.982   5.313 -0.0677 -0.3212 -0.1627
   45CHL1  H21C 4491   2.457   4.961   5.263 -1.3029 -1.7774  0.8262
   45CHL1   C22 4492   2.579   5.191   5.351  0.3111 -0.2078 -0.5932
   45CHL1  H22A 4493   2.599   5.284   5.409  0.3991 -0.1675 -0.6866
   45CHL1  H22B 4494   2.668   5.128   5.370  0.7900  1.2210  2.4654
   45CHL1   C23 4495   2.577   5.238   5.208 -0.5849 -0.2855  0.4617
   45CHL1  H23A 4496   2.572   5.142   5.152  0.8340 -1.0384  1.5546
   45CHL1  H23B 4497   2.486   5.293   5.177 -0.1905 -0.5554 -1.3192
   45CHL1   C24 4498   2.706   5.318   5.173  0.0792  0.1550 -0.0862
   45CHL1  H24A 4499   2.725   5.391   5.254  0.4708  0.5079 -0.4920
   45CHL1  H24B 4500   2.792   5.248   5.165  1.0880  1.3302  0.2030
   45CHL1   C25 4501   2.693   5.381   5.042  0.2546  0.4689  0.6714
   45CHL1   H25 4502   2.591   5.422   5.027 -1.0402 -2.9777 -0.8219
   45CHL1   C26 4503   2.786   5.495   5.013 -0.5130  0.0028 -0.7890
   45CHL1  H26A 4504   2.786   5.531   4.907  0.0609  0.8433 -0.5153
   45CHL1  H26B 4505   2.761   5.581   5.079 -2.2899 -0.6969 -0.5043
   45CHL1  H26C 4506   2.888   5.467   5.046 -0.8700 -1.5533 -0.9456
   45CHL1   C27 4507   2.714   5.272   4.936  0.4274 -0.2651  0.6734
   45CHL1  H27A 4508   2.654   5.180   4.956  1.3914 -1.5397 -1.9092
   45CHL1  H27B 4509   2.674   5.298   4.836  1.0058  1.6816  0.9187
   45CHL1  H27C 4510   2.821   5.246   4.929  0.9590  1.9954 -0.5017
   46CHL1    C3 4511   4.194   6.139   6.380 -0.0651 -0.6133  0.9934
   46CHL1    H3 4512   4.115   6.062   6.387  0.5190 -1.1750  1.5637
   46CHL1    O3 4513   4.193   6.215   6.503 -0.1923 -0.6053 -0.1707
   46CHL1   H3' 4514   4.245   6.295   6.497 -1.7264  0.5250  1.0262
   46CHL1    C4 4515   4.330   6.082   6.357 -0.2813  0.5364  0.8586
   46CHL1   H4A 4516   4.408   6.160   6.367  3.3815 -2.3326 -2.3003
   46CHL1   H4B 4517   4.334   5.997   6.428 -0.7621  0.4822  0.8244
   46CHL1    C5 4518   4.334   6.022   6.219  1.0547  0.3740  0.3689
   46CHL1    C6 4519   4.378   5.896   6.201 -0.0012  0.4759 -0.3776
   46CHL1    H6 4520   4.398   5.836   6.291  1.2812  0.8712 -0.3849
   46CHL1    C7 4521   4.386   5.827   6.065  0.0775  0.0119 -0.4151
   46CHL1   H7A 4522   4.485   5.777   6.065  1.7741  3.0931  0.6987
   46CHL1   H7B 4523   4.303   5.754   6.055  0.3121 -0.2806 -0.2615
   46CHL1    C8 4524   4.382   5.923   5.944  0.3211  0.0474  0.1353
   46CHL1    H8 4525   4.482   5.972   5.942 -0.0658  0.8447  0.2849
   46CHL1   C14 4526   4.370   5.851   5.810 -0.0276  0.6150 -0.4232
   46CHL1   H14 4527   4.271   5.801   5.812  0.2037  0.1402  1.8947
   46CHL1   C15 4528   4.488   5.749   5.785 -0.7863  0.3457 -0.2953
   46CHL1  H15A 4529   4.586   5.786   5.823 -1.5076  1.1561  0.8526
   46CHL1  H15B 4530   4.465   5.649   5.828  1.9475  0.6126  2.0612
   46CHL1   C16 4531   4.487   5.733   5.634 -0.3641 -0.5261  0.3098
   46CHL1  H16A 4532   4.589   5.753   5.595 -0.5120 -2.0840 -1.0318
   46CHL1  H16B 4533   4.464   5.630   5.597 -1.5923 -0.5170  1.0060
   46CHL1   C17 4534   4.378   5.834   5.584 -0.3473  0.1033  0.0723
   46CHL1   H17 4535   4.275   5.791   5.588 -1.0893  1.8057  3.1805
   46CHL1   C13 4536   4.360   5.944   5.690 -0.5603  0.7905  0.0006
   46CHL1   C18 4537   4.480   6.039   5.674  0.8282  0.2471  0.1909
   46CHL1  H18A 4538   4.483   6.103   5.584  1.6740 -0.0952 -0.0319
   46CHL1  H18B 4539   4.498   6.108   5.760 -2.1192  1.5783 -0.1296
   46CHL1  H18C 4540   4.575   5.982   5.664  0.5055 -0.1674 -0.5817
   46CHL1   C12 4541   4.234   6.031   5.707 -0.2008  0.2136 -0.0248
   46CHL1  H12A 4542   4.206   6.098   5.624  1.4310  0.8031 -0.1269
   46CHL1  H12B 4543   4.147   5.964   5.726  0.8753 -1.2539 -0.1386
   46CHL1   C11 4544   4.248   6.111   5.845 -0.5519  0.4529  0.8488
   46CHL1  H11A 4545   4.324   6.191   5.828 -1.1871  1.7367  3.5650
   46CHL1  H11B 4546   4.153   6.168   5.855 -1.4410 -0.5205 -1.3655
   46CHL1    C9 4547   4.275   6.032   5.971 -0.2208  0.6184  0.5770
   46CHL1    H9 4548   4.186   5.970   5.994  0.0693  0.0748  0.2694
   46CHL1   C10 4549   4.290   6.114   6.102 -0.5521 -0.0757 -0.2065
   46CHL1   C19 4550   4.402   6.224   6.087  0.7090  0.8766 -0.3227
   46CHL1  H19A 4551   4.370   6.301   6.014 -1.6991 -0.5265 -0.8447
   46CHL1  H19B 4552   4.422   6.274   6.184 -1.4116 -0.2745  0.7739
   46CHL1  H19C 4553   4.494   6.168   6.059  0.3792  0.0097  0.2631
   46CHL1    C1 4554   4.156   6.179   6.136 -0.6258 -0.6292 -0.1218
   46CHL1   H1A 4555   4.137   6.256   6.057  1.6596 -0.7328 -0.8322
   46CHL1   H1B 4556   4.073   6.106   6.136 -2.1330  0.9976 -0.9759
   46CHL1    C2 4557   4.152   6.241   6.273 -0.3978 -0.1817  0.0352
   46CHL1   H2A 4558   4.045   6.268   6.286 -0.3237 -0.2494  0.7926
   46CHL1   H2B 4559   4.220   6.328   6.279  0.6035 -1.0366  2.1114
   46CHL1   C20 4560   4.412   5.875   5.437 -0.8117 -0.6926 -0.3701
   46CHL1   H20 4561   4.511   5.925   5.428 -0.5666 -0.9583  0.6518
   46CHL1   C21 4562   4.289   5.957   5.392  0.5980 -0.3046 -0.1473
   46CHL1  H21A 4563   4.299   5.966   5.281  0.3998 -2.2541 -0.3637
   46CHL1  H21B 4564   4.275   6.059   5.432  1.4896 -0.7107  1.2435
   46CHL1  H21C 4565   4.197   5.898   5.416  1.3666 -1.1832  0.6935
   46CHL1   C22 4566   4.427   5.757   5.342  0.8086  0.7489  0.4727
   46CHL1  H22A 4567   4.504   5.688   5.382  0.1394 -0.9837 -1.1016
   46CHL1  H22B 4568   4.330   5.704   5.342  0.8421  0.5019  3.4928
   46CHL1   C23 4569   4.480   5.791   5.199 -0.3171 -0.4196  0.5977
   46CHL1  H23A 4570   4.413   5.858   5.140 -0.4451 -1.1907 -0.1405
   46CHL1  H23B 4571   4.576   5.846   5.208  1.3735 -3.4595  2.8419
   46CHL1   C24 4572   4.522   5.673   5.102  0.3653  0.4278 -0.7069
   46CHL1  H24A 4573   4.599   5.619   5.161  1.0148 -0.0344 -1.9348
   46CHL1  H24B 4574   4.444   5.595   5.089 -0.3583  0.6824  1.6924
   46CHL1   C25 4575   4.581   5.714   4.967  0.4126  0.2281  0.3909
   46CHL1   H25 4576   4.666   5.786   4.978  0.6381  0.1816 -0.9050
   46CHL1   C26 4577   4.631   5.593   4.898 -0.1569  0.2342  0.0950
   46CHL1  H26A 4578   4.664   5.621   4.796 -2.9265  2.2415 -0.3893
   46CHL1  H26B 4579   4.716   5.541   4.947 -0.5852  0.2323  0.8472
   46CHL1  H26C 4580   4.547   5.521   4.892 -1.1309  1.3814 -0.6260
   46CHL1   C27 4581   4.469   5.767   4.872  0.1685 -0.7223 -0.4243
   46CHL1  H27A 4582   4.409   5.849   4.917 -0.4661 -2.0338  1.1898
   46CHL1  H27B 4583   4.503   5.807   4.773  1.6641  0.2614  0.4461
   46CHL1  H27C 4584   4.413   5.674   4.846 -0.8584 -0.3290  0.2945
   47CHL1    C3 4585   5.504   6.371   5.999  0.6571 -0.2503  0.0839
   47CHL1    H3 4586   5.599   6.314   6.008  0.7131 -0.1525  0.1150
   47CHL1    O3 4587   5.470   6.424   6.122  0.1768 -0.4779  0.2168
   47CHL1   H3' 4588   5.397   6.375   6.161  1.0879  0.5519  3.5478
   47CHL1    C4 4589   5.532   6.487   5.901 -0.7112  0.2475 -0.1855
   47CHL1   H4A 4590   5.447   6.558   5.909 -0.8579  0.0523  0.0116
   47CHL1   H4B 4591   5.619   6.536   5.948  0.6979 -1.9691 -0.3659
   47CHL1    C5 4592   5.574   6.436   5.760  0.2756  0.3948  0.2852
   47CHL1    C6 4593   5.695   6.468   5.710  0.3002  0.3504 -0.2777
   47CHL1    H6 4594   5.756   6.544   5.761 -0.3073  0.5192  0.2151
   47CHL1    C7 4595   5.752   6.416   5.588  0.0033 -0.0308  0.3917
   47CHL1   H7A 4596   5.791   6.508   5.539 -0.3512 -0.1125 -0.0536
   47CHL1   H7B 4597   5.831   6.339   5.601  0.7215  0.5167 -0.5533
   47CHL1    C8 4598   5.648   6.345   5.501  0.1679  0.2625  0.2133
   47CHL1    H8 4599   5.588   6.427   5.459 -1.8510 -1.8433 -1.2476
   47CHL1   C14 4600   5.714   6.268   5.395 -0.4196 -0.4964  0.8278
   47CHL1   H14 4601   5.786   6.198   5.444  1.9649  1.5327  0.4371
   47CHL1   C15 4602   5.808   6.346   5.296  0.5013  0.3385 -0.4616
   47CHL1  H15A 4603   5.774   6.449   5.274 -0.9814 -0.3903 -1.7470
   47CHL1  H15B 4604   5.910   6.357   5.339  0.4628  0.0548 -0.2967
   47CHL1   C16 4605   5.808   6.260   5.172 -0.3863  0.8315 -0.5443
   47CHL1  H16A 4606   5.765   6.316   5.087 -3.9263 -0.8565 -0.0475
   47CHL1  H16B 4607   5.913   6.226   5.156 -0.2401 -0.5015  2.6102
   47CHL1   C17 4608   5.712   6.132   5.198  0.0594 -0.1171 -0.5387
   47CHL1   H17 4609   5.772   6.047   5.236 -1.6036 -1.9254 -1.7752
   47CHL1   C13 4610   5.615   6.191   5.308 -0.4646  0.1801 -0.5491
   47CHL1   C18 4611   5.504   6.281   5.249  0.0467  0.2596  0.0272
   47CHL1  H18A 4612   5.555   6.360   5.190 -1.6332  1.7641  0.4786
   47CHL1  H18B 4613   5.426   6.229   5.190  0.2181 -1.3179  1.1318
   47CHL1  H18C 4614   5.447   6.338   5.325 -2.9811 -0.6798 -1.3593
   47CHL1   C12 4615   5.547   6.078   5.391  0.1000 -0.4467  0.2131
   47CHL1  H12A 4616   5.466   6.030   5.332  0.6887  0.0194 -1.0290
   47CHL1  H12B 4617   5.615   6.001   5.432  1.2725 -0.1874 -1.1588
   47CHL1   C11 4618   5.469   6.150   5.503 -0.6948 -0.3125 -0.1279
   47CHL1  H11A 4619   5.380   6.199   5.460 -0.2705 -0.3132 -1.0200
   47CHL1  H11B 4620   5.429   6.074   5.573 -1.6704  0.4945  0.2085
   47CHL1    C9 4621   5.561   6.252   5.582 -0.1968  0.4697 -0.1905
   47CHL1    H9 4622   5.630   6.178   5.628 -2.7708 -2.3614 -0.5776
   47CHL1   C10 4623   5.493   6.320   5.701 -0.0893  0.3512 -0.5696
   47CHL1   C19 4624   5.360   6.386   5.655 -0.5131  0.1016  0.4762
   47CHL1  H19A 4625   5.282   6.308   5.641 -1.4823  1.3759 -1.8932
   47CHL1  H19B 4626   5.307   6.443   5.735  1.4410 -0.0665  1.9577
   47CHL1  H19C 4627   5.382   6.433   5.557 -0.1620  2.3742  1.5629
   47CHL1    C1 4628   5.458   6.220   5.814 -0.3823  0.4888 -0.1443
   47CHL1   H1A 4629   5.375   6.156   5.778 -3.5216  2.1079  3.4291
   47CHL1   H1B 4630   5.549   6.163   5.841  0.0898  1.7676  1.1134
   47CHL1    C2 4631   5.404   6.275   5.943  0.3724 -0.1171 -0.1069
   47CHL1   H2A 4632   5.394   6.190   6.014 -0.2940 -1.5146 -1.7875
   47CHL1   H2B 4633   5.309   6.331   5.930  0.5056 -0.0187 -0.6674
   47CHL1   C20 4634   5.641   6.097   5.063  0.3921 -0.3334 -0.5457
   47CHL1   H20 4635   5.570   6.178   5.036  2.4859  2.1548  1.0019
   47CHL1   C21 4636   5.554   5.966   5.069  0.6063  0.1564  0.1449
   47CHL1  H21A 4637   5.525   5.926   4.969 -0.1985  0.3589  0.2912
   47CHL1  H21B 4638   5.459   5.980   5.125 -1.2599 -0.8680 -2.5171
   47CHL1  H21C 4639   5.625   5.893   5.112  0.8263  0.5012  0.3661
   47CHL1   C22 4640   5.744   6.084   4.951  0.3238 -0.4195 -0.1412
   47CHL1  H22A 4641   5.817   6.168   4.947 -2.0115  1.7599  0.1077
   47CHL1  H22B 4642   5.813   5.999   4.966  1.3794 -0.1182 -2.7471
   47CHL1   C23 4643   5.690   6.078   4.813  0.8383 -0.3434 -0.6324
   47CHL1  H23A 4644   5.774   6.060   4.743  0.4835  1.4199 -1.5743
   47CHL1  H23B 4645   5.634   5.982   4.804 -2.8040  1.4871  0.3726
   47CHL1   C24 4646   5.607   6.203   4.775  0.1317  0.1157 -0.2279
   47CHL1  H24A 4647   5.523   6.222   4.845 -0.2987 -2.3619  0.0313
   47CHL1  H24B 4648   5.676   6.290   4.777 -0.7042  0.7845  0.1413
   47CHL1   C25 4649   5.547   6.205   4.637 -0.4040  0.0284 -0.2287
   47CHL1   H25 4650   5.477   6.290   4.625 -0.7841  0.2622  2.8376
   47CHL1   C26 4651   5.663   6.244   4.536  0.6774 -0.9612  0.1519
   47CHL1  H26A 4652   5.705   6.346   4.554  0.5885 -0.5589 -1.7082
   47CHL1  H26B 4653   5.751   6.177   4.544  0.1029 -1.6023  1.3814
   47CHL1  H26C 4654   5.634   6.258   4.430  2.5016  1.1477 -0.1589
   47CHL1   C27 4655   5.485   6.075   4.597 -0.3398 -0.4543 -0.1296
   47CHL1  H27A 4656   5.399   6.056   4.664 -1.2277  3.7213  0.2195
   47CHL1  H27B 4657   5.444   6.082   4.494 -0.8698 -0.8505  0.0528
   47CHL1  H27C 4658   5.550   5.985   4.602 -2.0601 -1.7258  0.2816
   48CHL1    C3 4659   2.392   5.744   6.104 -0.0356  0.3864 -0.2554
   48CHL1    H3 4660   2.333   5.836   6.088  0.7083  1.2421  1.7186
   48CHL1    O3 4661   2.396   5.720   6.244  0.3251  0.0554 -0.0487
   48CHL1   H3' 4662   2.445   5.639   6.258 -1.2708 -0.7760  1.0159
   48CHL1    C4 4663   2.327   5.620   6.032 -0.5397  0.4523 -0.2958
   48CHL1   H4A 4664   2.374   5.529   6.076  0.3591  0.8584 -0.4040
   48CHL1   H4B 4665   2.221   5.631   6.064 -0.6912 -0.1046 -0.5772
   48CHL1    C5 4666   2.332   5.623   5.882  0.4714 -0.4836  0.2866
   48CHL1    C6 4667   2.226   5.594   5.806 -0.1970  0.0112 -0.6358
   48CHL1    H6 4668   2.128   5.565   5.849  0.1007  0.2571  0.2425
   48CHL1    C7 4669   2.222   5.584   5.659  0.8441  0.1360  0.3996
   48CHL1   H7A 4670   2.185   5.485   5.626  0.7979  0.4112 -0.3798
   48CHL1   H7B 4671   2.158   5.663   5.614 -0.2633 -0.2272  1.2869
   48CHL1    C8 4672   2.360   5.615   5.594 -0.1886  0.0351  0.2989
   48CHL1    H8 4673   2.404   5.513   5.592 -3.4100 -1.4743  0.6192
   48CHL1   C14 4674   2.342   5.679   5.459 -0.3475  0.5156 -0.4266
   48CHL1   H14 4675   2.311   5.785   5.474  1.3641  1.2937 -2.1048
   48CHL1   C15 4676   2.247   5.604   5.371 -0.3249  0.5676  0.0918
   48CHL1  H15A 4677   2.258   5.495   5.385 -1.6612  0.3379 -0.4871
   48CHL1  H15B 4678   2.136   5.613   5.377 -0.2480  1.0611  0.9291
   48CHL1   C16 4679   2.284   5.656   5.224  0.0486 -0.1316 -0.2279
   48CHL1  H16A 4680   2.314   5.572   5.158 -0.0022  0.6184 -1.2460
   48CHL1  H16B 4681   2.207   5.715   5.169 -0.1734 -0.6651 -0.5036
   48CHL1   C17 4682   2.402   5.751   5.241 -0.6031 -0.6752  0.6816
   48CHL1   H17 4683   2.359   5.851   5.265  2.9588  0.9790  0.9115
   48CHL1   C13 4684   2.469   5.699   5.376 -0.2865  0.6528  0.2228
   48CHL1   C18 4685   2.545   5.572   5.337 -0.0386 -0.3413  0.2318
   48CHL1  H18A 4686   2.609   5.535   5.421  2.8264  1.4971 -0.9619
   48CHL1  H18B 4687   2.477   5.487   5.315  1.0812 -1.2872  0.3156
   48CHL1  H18C 4688   2.615   5.601   5.255 -1.4418  3.1884  0.0921
   48CHL1   C12 4689   2.562   5.791   5.452  0.2123 -0.6127 -0.2428
   48CHL1  H12A 4690   2.656   5.796   5.393  0.2755 -1.3433 -0.2048
   48CHL1  H12B 4691   2.521   5.894   5.443  1.8224  0.1916  0.9890
   48CHL1   C11 4692   2.579   5.750   5.602 -0.6878  0.5542 -0.4905
   48CHL1  H11A 4693   2.651   5.666   5.602 -1.1965  0.1031  0.8728
   48CHL1  H11B 4694   2.618   5.841   5.653  0.7284  0.7703 -1.8963
   48CHL1    C9 4695   2.446   5.716   5.667  0.3808  0.4632  0.0120
   48CHL1    H9 4696   2.404   5.819   5.669  0.6323  0.5805  2.5860
   48CHL1   C10 4697   2.463   5.670   5.814 -0.2432 -0.4099  0.3647
   48CHL1   C19 4698   2.562   5.548   5.817 -0.7790  0.5215  0.3344
   48CHL1  H19A 4699   2.574   5.518   5.924 -0.4701 -2.3789 -0.4129
   48CHL1  H19B 4700   2.522   5.458   5.764  2.1014 -0.4623 -0.3660
   48CHL1  H19C 4701   2.664   5.570   5.778 -0.5887 -1.1692 -0.2122
   48CHL1    C1 4702   2.530   5.784   5.895  0.0154 -0.4210 -0.4973
   48CHL1   H1A 4703   2.633   5.788   5.854  0.8897  0.5644  1.6476
   48CHL1   H1B 4704   2.487   5.882   5.866 -0.1571 -1.0159 -2.3994
   48CHL1    C2 4705   2.535   5.758   6.046  0.4075 -0.5391 -0.0139
   48CHL1   H2A 4706   2.595   5.838   6.095  0.3013 -0.3423 -0.1986
   48CHL1   H2B 4707   2.589   5.663   6.062  1.1775 -0.5621 -2.3903
   48CHL1   C20 4708   2.480   5.772   5.109  0.3113  0.2646 -0.3858
   48CHL1   H20 4709   2.547   5.685   5.090  0.3109 -0.1336  1.3205
   48CHL1   C21 4710   2.561   5.902   5.131  0.0657  0.1768  0.4144
   48CHL1  H21A 4711   2.616   5.912   5.226 -1.6508  0.4448  1.4307
   48CHL1  H21B 4712   2.628   5.920   5.044 -0.0742 -0.1412  0.2378
   48CHL1  H21C 4713   2.490   5.988   5.131  1.2143  1.1361  0.6027
   48CHL1   C22 4714   2.389   5.793   4.984  0.0089  0.0150 -0.3975
   48CHL1  H22A 4715   2.344   5.692   4.974  1.8468 -1.0738  1.5438
   48CHL1  H22B 4716   2.318   5.877   5.002 -2.7200 -1.5825 -2.7994
   48CHL1   C23 4717   2.466   5.818   4.856  0.1528 -0.6554 -0.6665
   48CHL1  H23A 4718   2.493   5.926   4.847 -0.0513 -0.5522 -0.0823
   48CHL1  H23B 4719   2.562   5.763   4.870  1.9358  2.6680  1.4681
   48CHL1   C24 4720   2.401   5.783   4.733  0.8105 -0.4644 -0.2679
   48CHL1  H24A 4721   2.335   5.695   4.751  1.5541 -0.5721  2.2853
   48CHL1  H24B 4722   2.341   5.867   4.692  2.0340  1.9564  2.5401
   48CHL1   C25 4723   2.502   5.753   4.609  0.0569 -0.5665 -0.2667
   48CHL1   H25 4724   2.582   5.689   4.653  0.8100  1.8523  2.1336
   48CHL1   C26 4725   2.426   5.674   4.501 -0.5475  0.5469 -0.1463
   48CHL1  H26A 4726   2.398   5.572   4.534 -3.0384  1.8621  2.2725
   48CHL1  H26B 4727   2.334   5.728   4.471 -3.2247 -1.8321  3.0357
   48CHL1  H26C 4728   2.486   5.686   4.409  0.3008  1.0113  0.4508
   48CHL1   C27 4729   2.561   5.886   4.549  0.5126  0.1432 -0.3330
   48CHL1  H27A 4730   2.627   5.927   4.628 -0.6285  2.3619 -0.4435
   48CHL1  H27B 4731   2.616   5.864   4.455 -1.2094 -1.1632 -1.0988
   48CHL1  H27C 4732   2.478   5.960   4.543  1.7956  1.9058  1.9136
   49CHL1    C3 4733   6.165   5.103   2.738 -0.1620  0.2432 -0.4085
   49CHL1    H3 4734   6.269   5.106   2.699 -0.3644  2.7332 -0.8795
   49CHL1    O3 4735   6.067   5.094   2.635  0.1413  0.6921  0.4667
   49CHL1   H3' 4736   6.093   5.138   2.554 -0.6889  0.2683 -0.0487
   49CHL1    C4 4737   6.149   4.990   2.840 -0.2876 -0.3545 -0.4782
   49CHL1   H4A 4738   6.043   4.965   2.864  0.5192 -3.5353  0.2342
   49CHL1   H4B 4739   6.192   4.907   2.781  0.0952 -0.0725 -0.5948
   49CHL1    C5 4740   6.226   5.002   2.966 -0.5055  0.6988  0.3809
   49CHL1    C6 4741   6.307   4.908   3.019 -0.0762 -0.0137 -0.3899
   49CHL1    H6 4742   6.313   4.808   2.972  0.0103 -0.6862  1.0093
   49CHL1    C7 4743   6.387   4.918   3.143 -0.0429 -0.2901 -0.2275
   49CHL1   H7A 4744   6.387   4.821   3.197  1.0265  0.4028  1.0658
   49CHL1   H7B 4745   6.497   4.923   3.126  0.1775 -1.8896  0.5345
   49CHL1    C8 4746   6.339   5.027   3.241  0.0543  0.6676 -0.2251
   49CHL1    H8 4747   6.238   4.995   3.274 -0.1525 -1.2576 -2.4408
   49CHL1   C14 4748   6.442   5.067   3.342 -0.1452 -0.9309 -0.1867
   49CHL1   H14 4749   6.534   5.112   3.300  0.0248 -1.7484 -0.7120
   49CHL1   C15 4750   6.504   4.955   3.434  0.1293  0.0073 -0.4652
   49CHL1  H15A 4751   6.420   4.891   3.470  0.6691 -0.1527  0.5300
   49CHL1  H15B 4752   6.581   4.888   3.392 -0.1136 -0.8549  0.4239
   49CHL1   C16 4753   6.556   5.033   3.558 -0.7390  0.8011 -0.1326
   49CHL1  H16A 4754   6.517   4.978   3.646 -0.4301 -1.3422 -1.2585
   49CHL1  H16B 4755   6.665   5.011   3.568 -1.4364 -2.8717  0.5951
   49CHL1   C17 4756   6.503   5.180   3.548 -0.3927  0.6971  0.2677
   49CHL1   H17 4757   6.587   5.237   3.504 -1.1219  1.2102 -0.4989
   49CHL1   C13 4758   6.391   5.176   3.444 -0.3760  0.0628 -0.3642
   49CHL1   C18 4759   6.257   5.132   3.508  0.5304  0.8522 -0.3467
   49CHL1  H18A 4760   6.223   5.199   3.590 -3.0228 -0.6878 -0.3954
   49CHL1  H18B 4761   6.168   5.123   3.443 -1.2786 -0.3008  2.1256
   49CHL1  H18C 4762   6.278   5.030   3.546 -1.3004 -0.2345 -2.0529
   49CHL1   C12 4763   6.375   5.310   3.364  0.2002  0.3494  0.1653
   49CHL1  H12A 4764   6.329   5.380   3.437  1.6692  2.6545 -0.9945
   49CHL1  H12B 4765   6.476   5.348   3.338  0.1533 -0.3277 -1.0941
   49CHL1   C11 4766   6.280   5.273   3.243  0.8570  0.0970 -0.6346
   49CHL1  H11A 4767   6.181   5.258   3.292  1.1428 -2.8301 -0.8064
   49CHL1  H11B 4768   6.285   5.366   3.182  1.5437  0.7225  0.3358
   49CHL1    C9 4769   6.317   5.155   3.153  0.4190 -0.4006  0.0494
   49CHL1    H9 4770   6.413   5.180   3.103 -0.1925 -0.8265 -1.3884
   49CHL1   C10 4771   6.215   5.132   3.039 -0.4922  0.3910 -0.9225
   49CHL1   C19 4772   6.070   5.150   3.093  0.9257  0.2594 -1.0485
   49CHL1  H19A 4773   5.987   5.119   3.025 -0.4318  0.2313  0.5615
   49CHL1  H19B 4774   6.063   5.085   3.182  0.0197  0.3438 -1.0428
   49CHL1  H19C 4775   6.039   5.255   3.116  1.3078  0.7189 -2.5019
   49CHL1    C1 4776   6.234   5.247   2.933 -0.1646  0.3278 -0.2736
   49CHL1   H1A 4777   6.194   5.338   2.983 -1.3423 -0.2214 -0.1919
   49CHL1   H1B 4778   6.338   5.256   2.895 -0.5538 -1.7664 -1.9580
   49CHL1    C2 4779   6.143   5.240   2.807 -0.0955  0.6511 -0.3664
   49CHL1   H2A 4780   6.159   5.326   2.739 -0.8733  0.8083 -0.3594
   49CHL1   H2B 4781   6.040   5.238   2.849  0.7252 -0.1038  1.7718
   49CHL1   C20 4782   6.473   5.256   3.679 -0.1454 -0.2110  0.2353
   49CHL1   H20 4783   6.400   5.336   3.654 -0.3795 -0.2208  0.8695
   49CHL1   C21 4784   6.600   5.332   3.731  0.5103 -0.4951 -0.1926
   49CHL1  H21A 4785   6.572   5.401   3.814  0.3094  1.3968 -1.7749
   49CHL1  H21B 4786   6.640   5.391   3.646 -2.0613  2.3678  0.4046
   49CHL1  H21C 4787   6.670   5.258   3.775  1.0338 -0.2854 -0.6629
   49CHL1   C22 4788   6.421   5.173   3.797 -0.5560 -0.6041  0.6830
   49CHL1  H22A 4789   6.343   5.098   3.772 -1.3286 -0.0583  1.3907
   49CHL1  H22B 4790   6.510   5.122   3.840  0.5395 -0.3585 -1.1592
   49CHL1   C23 4791   6.350   5.260   3.897 -0.3745  0.3788 -0.1544
   49CHL1  H23A 4792   6.411   5.346   3.933  0.1883  0.2979 -0.8946
   49CHL1  H23B 4793   6.265   5.308   3.844 -0.8821  0.0411  0.3450
   49CHL1   C24 4794   6.274   5.200   4.012  0.1660  0.2371 -0.8769
   49CHL1  H24A 4795   6.226   5.272   4.081  1.1623 -0.0228  0.1306
   49CHL1  H24B 4796   6.195   5.131   3.976  0.6707 -1.4556  1.0175
   49CHL1   C25 4797   6.357   5.108   4.103  0.2477  0.0044  0.3292
   49CHL1   H25 4798   6.403   5.031   4.037 -0.7807  1.5110 -2.2856
   49CHL1   C26 4799   6.473   5.182   4.184 -0.6490  0.1584 -0.3980
   49CHL1  H26A 4800   6.564   5.188   4.121 -1.5717  0.9286 -1.6892
   49CHL1  H26B 4801   6.441   5.287   4.198  0.2708  0.1835  1.9019
   49CHL1  H26C 4802   6.486   5.132   4.283 -1.1140 -0.8522 -0.8288
   49CHL1   C27 4803   6.267   5.039   4.209 -0.1384  0.1278  0.2806
   49CHL1  H27A 4804   6.232   5.121   4.276  0.1740  2.2291 -2.0115
   49CHL1  H27B 4805   6.177   4.990   4.169 -0.6555  0.7415  0.6663
   49CHL1  H27C 4806   6.327   4.971   4.274 -1.4434 -1.6993 -0.3710
   50CHL1    C3 4807   0.434   4.117   2.852 -0.3814 -0.9506 -0.1227
   50CHL1    H3 4808   0.429   4.209   2.915 -0.1066  0.8486 -2.5936
   50CHL1    O3 4809   0.427   4.147   2.721  0.1830  0.0857 -0.5012
   50CHL1   H3' 4810   0.412   4.058   2.689  2.4937 -0.5940  0.1411
   50CHL1    C4 4811   0.561   4.028   2.885 -0.3227 -0.3016  0.0967
   50CHL1   H4A 4812   0.550   3.944   2.814  0.4129 -0.9081  0.6741
   50CHL1   H4B 4813   0.651   4.090   2.866 -0.5791  0.3169  0.8566
   50CHL1    C5 4814   0.572   3.971   3.019  0.3512  0.7354 -0.6366
   50CHL1    C6 4815   0.679   3.989   3.107 -0.3307  0.2693 -0.0959
   50CHL1    H6 4816   0.770   4.036   3.068 -0.3528  0.2107 -0.2190
   50CHL1    C7 4817   0.671   3.936   3.245 -0.4470  0.5689 -0.2097
   50CHL1   H7A 4818   0.776   3.910   3.270 -0.4994  1.0643  0.5492
   50CHL1   H7B 4819   0.659   4.020   3.317  1.7310  1.3625 -0.7023
   50CHL1    C8 4820   0.557   3.832   3.285  0.2087  0.6057 -0.2370
   50CHL1    H8 4821   0.591   3.736   3.239  0.1976 -0.2369  1.4195
   50CHL1   C14 4822   0.550   3.818   3.432 -0.1384 -0.3579 -0.3845
   50CHL1   H14 4823   0.516   3.918   3.465 -2.0796 -0.9291 -0.5689
   50CHL1   C15 4824   0.685   3.788   3.510  0.5681  0.3661  0.2317
   50CHL1  H15A 4825   0.737   3.709   3.452  2.8845  2.5307 -0.8267
   50CHL1  H15B 4826   0.734   3.888   3.518 -0.2235  0.6908  1.3164
   50CHL1   C16 4827   0.630   3.730   3.640  0.3697 -0.2518 -0.3950
   50CHL1  H16A 4828   0.678   3.631   3.656  4.6029  1.3794 -1.5927
   50CHL1  H16B 4829   0.660   3.787   3.730 -0.5929  1.4125 -1.0964
   50CHL1   C17 4830   0.475   3.740   3.633  0.4785  0.3653  0.1965
   50CHL1   H17 4831   0.440   3.843   3.658 -3.3323 -1.3146  2.7608
   50CHL1   C13 4832   0.438   3.733   3.485  0.0774 -0.7773 -0.2320
   50CHL1   C18 4833   0.461   3.584   3.447 -0.4805 -0.4138  0.0093
   50CHL1  H18A 4834   0.558   3.539   3.478 -0.1729  1.2183  1.5918
   50CHL1  H18B 4835   0.373   3.533   3.492 -0.1702 -0.0804  1.0190
   50CHL1  H18C 4836   0.461   3.583   3.336  3.0259  2.9279 -0.2221
   50CHL1   C12 4837   0.304   3.795   3.437 -0.0890 -0.2953  0.5005
   50CHL1  H12A 4838   0.222   3.728   3.468 -0.1240 -1.0414 -1.0884
   50CHL1  H12B 4839   0.296   3.894   3.487 -1.3050  0.5916 -1.3230
   50CHL1   C11 4840   0.305   3.807   3.284 -0.1973  0.1370 -0.7521
   50CHL1  H11A 4841   0.297   3.707   3.236  0.2957  1.2655 -3.3360
   50CHL1  H11B 4842   0.212   3.858   3.253 -0.8482 -2.2960 -3.1882
   50CHL1    C9 4843   0.430   3.890   3.228  0.1698 -0.0670  0.2036
   50CHL1    H9 4844   0.426   3.995   3.264  0.5928 -0.4149  1.3108
   50CHL1   C10 4845   0.441   3.903   3.071 -0.1554 -0.0586  0.1150
   50CHL1   C19 4846   0.435   3.762   3.011 -0.3712 -0.2803  0.3723
   50CHL1  H19A 4847   0.511   3.695   3.058 -0.2466  1.5827  3.0589
   50CHL1  H19B 4848   0.336   3.716   3.029 -1.4217  1.8837  0.3906
   50CHL1  H19C 4849   0.463   3.759   2.904 -2.3290 -0.9253 -0.1618
   50CHL1    C1 4850   0.314   3.985   3.031  0.0377  0.1117 -0.2479
   50CHL1   H1A 4851   0.222   3.932   3.065  1.1480 -1.7312 -0.0309
   50CHL1   H1B 4852   0.318   4.077   3.093  0.2311  1.4908 -2.2075
   50CHL1    C2 4853   0.306   4.042   2.892 -0.1811 -1.6072  0.7997
   50CHL1   H2A 4854   0.215   4.103   2.878 -0.2398 -1.9283 -0.3779
   50CHL1   H2B 4855   0.305   3.955   2.822 -0.8157 -0.0598 -1.2161
   50CHL1   C20 4856   0.404   3.643   3.731  0.0716 -0.2565 -0.2835
   50CHL1   H20 4857   0.437   3.542   3.700  2.4892  0.6427 -0.8330
   50CHL1   C21 4858   0.247   3.645   3.718 -0.0766  0.3684 -0.5693
   50CHL1  H21A 4859   0.201   3.745   3.721 -3.4147 -1.0420  2.1784
   50CHL1  H21B 4860   0.197   3.589   3.800 -0.7290  0.6030 -0.8083
   50CHL1  H21C 4861   0.221   3.598   3.621 -1.1043  2.4651 -1.3560
   50CHL1   C22 4862   0.444   3.661   3.874 -0.3443 -1.1175 -0.4521
   50CHL1  H22A 4863   0.382   3.596   3.940 -0.4646  1.6664  2.4629
   50CHL1  H22B 4864   0.552   3.642   3.889 -0.3778  0.4914  3.0063
   50CHL1   C23 4865   0.406   3.798   3.937  0.0273 -0.0410 -0.7871
   50CHL1  H23A 4866   0.479   3.878   3.914  1.1678 -0.9508 -0.3935
   50CHL1  H23B 4867   0.317   3.841   3.885  0.9033  4.7130  1.1159
   50CHL1   C24 4868   0.379   3.807   4.092 -0.7790  0.7809  0.0375
   50CHL1  H24A 4869   0.282   3.757   4.109 -1.6184  0.8361 -3.7098
   50CHL1  H24B 4870   0.461   3.753   4.145 -0.6373 -0.4072 -1.3177
   50CHL1   C25 4871   0.374   3.951   4.145 -0.1052  0.2127 -0.5703
   50CHL1   H25 4872   0.459   4.010   4.105  0.2962  0.5667  0.7409
   50CHL1   C26 4873   0.242   4.031   4.114  0.3002 -0.3851  0.1888
   50CHL1  H26A 4874   0.152   3.969   4.133  0.5434 -1.4461 -1.8561
   50CHL1  H26B 4875   0.234   4.123   4.176  0.1674 -0.5785  0.4636
   50CHL1  H26C 4876   0.240   4.068   4.009 -0.8119 -1.5781 -0.2265
   50CHL1   C27 4877   0.409   3.953   4.298  0.6579  0.0626  0.4339
   50CHL1  H27A 4878   0.320   3.935   4.362 -0.2794 -0.7771 -1.0444
   50CHL1  H27B 4879   0.483   3.872   4.315 -0.0581 -0.6220  0.3426
   50CHL1  H27C 4880   0.444   4.054   4.326  0.9189 -0.2216  1.1649
   51CHL1    C3 4881   0.322   4.679   2.864 -0.3182 -0.2611  0.0350
   51CHL1    H3 4882   0.284   4.782   2.882  0.5846  0.0752  0.1142
   51CHL1    O3 4883   0.300   4.666   2.721 -0.5337 -0.2523 -0.3074
   51CHL1   H3' 4884   0.213   4.625   2.713 -0.5475 -0.2985  0.0590
   51CHL1    C4 4885   0.468   4.682   2.892 -1.2074  0.7132  0.2814
   51CHL1   H4A 4886   0.515   4.588   2.856  2.1227  2.1935  0.3366
   51CHL1   H4B 4887   0.510   4.766   2.832  1.2118 -0.4608  0.2020
   51CHL1    C5 4888   0.498   4.713   3.037 -0.2821 -0.2046  0.0947
   51CHL1    C6 4889   0.577   4.815   3.078  0.0623  0.0861 -0.9326
   51CHL1    H6 4890   0.628   4.881   3.007 -0.0335  1.2443  0.0450
   51CHL1    C7 4891   0.609   4.857   3.216  0.6134  0.3119  0.0854
   51CHL1   H7A 4892   0.715   4.888   3.233  0.4007  0.3656  1.4134
   51CHL1   H7B 4893   0.548   4.944   3.250  0.6845  0.2732  0.3198
   51CHL1    C8 4894   0.581   4.741   3.316  0.0078 -0.5448 -0.9971
   51CHL1    H8 4895   0.656   4.660   3.306  1.1992  0.3054  0.5484
   51CHL1   C14 4896   0.585   4.797   3.463 -0.2806  0.6731  0.2457
   51CHL1   H14 4897   0.510   4.879   3.464 -1.6416 -0.5249 -0.3671
   51CHL1   C15 4898   0.717   4.863   3.525 -0.0553 -0.0040  0.5806
   51CHL1  H15A 4899   0.800   4.791   3.512 -1.1627 -1.0680 -1.0108
   51CHL1  H15B 4900   0.747   4.959   3.477 -2.4740  0.2764 -0.5246
   51CHL1   C16 4901   0.676   4.868   3.677 -0.1687 -0.0032  0.5156
   51CHL1  H16A 4902   0.765   4.845   3.740  0.8080 -0.6920 -1.0774
   51CHL1  H16B 4903   0.651   4.974   3.702 -3.0454 -1.0321  2.5537
   51CHL1   C17 4904   0.556   4.780   3.706 -0.0813  0.5930  0.2467
   51CHL1   H17 4905   0.463   4.841   3.696 -1.2081 -1.0424  0.2980
   51CHL1   C13 4906   0.549   4.695   3.577  0.0389  0.1929  0.3600
   51CHL1   C18 4907   0.650   4.578   3.580 -0.0529  0.3362  0.2287
   51CHL1  H18A 4908   0.756   4.601   3.605 -0.2703  0.3267  1.2359
   51CHL1  H18B 4909   0.608   4.507   3.654  0.6036 -1.5287 -1.1140
   51CHL1  H18C 4910   0.648   4.516   3.488 -0.6259  0.4804  0.1411
   51CHL1   C12 4911   0.412   4.640   3.542  0.5757 -0.7525 -0.5346
   51CHL1  H12A 4912   0.371   4.565   3.614  1.8464 -0.2114  0.8149
   51CHL1  H12B 4913   0.331   4.715   3.558  0.0754 -1.3327 -0.2820
   51CHL1   C11 4914   0.398   4.580   3.396 -0.4907  0.3095  0.1244
   51CHL1  H11A 4915   0.476   4.503   3.385  0.8541  1.8378 -1.6575
   51CHL1  H11B 4916   0.300   4.527   3.389  0.5907 -1.6887 -0.4729
   51CHL1    C9 4917   0.441   4.679   3.286  0.4623  0.2373  0.2341
   51CHL1    H9 4918   0.375   4.768   3.296  0.5495  0.3582 -0.2236
   51CHL1   C10 4919   0.422   4.624   3.137 -0.0538 -0.3454 -0.0730
   51CHL1   C19 4920   0.495   4.485   3.138  0.1848  0.1803 -0.0181
   51CHL1  H19A 4921   0.500   4.451   3.032  1.0898 -1.9557  0.6407
   51CHL1  H19B 4922   0.596   4.492   3.183 -0.0860 -0.9111  0.8005
   51CHL1  H19C 4923   0.436   4.412   3.198 -2.8122  1.2431 -1.4888
   51CHL1    C1 4924   0.273   4.612   3.098 -0.2308  0.2064 -0.1680
   51CHL1   H1A 4925   0.225   4.525   3.147 -0.6177 -1.2775 -2.9451
   51CHL1   H1B 4926   0.218   4.700   3.140 -0.4981 -0.9330  2.0028
   51CHL1    C2 4927   0.257   4.573   2.945 -0.0908 -0.2507  0.2495
   51CHL1   H2A 4928   0.149   4.570   2.919  0.0540 -1.9599 -0.3202
   51CHL1   H2B 4929   0.300   4.472   2.925  2.4044  0.8306 -0.1362
   51CHL1   C20 4930   0.563   4.718   3.845  0.3589 -0.7320  0.2235
   51CHL1   H20 4931   0.653   4.653   3.836  0.4422 -0.3208 -3.5792
   51CHL1   C21 4932   0.447   4.625   3.877 -0.2262  0.2361  0.3539
   51CHL1  H21A 4933   0.349   4.678   3.875  0.1891  1.0687  1.0767
   51CHL1  H21B 4934   0.463   4.580   3.977 -1.1313  0.8615  0.7924
   51CHL1  H21C 4935   0.453   4.534   3.815  3.7450 -0.5148  1.5205
   51CHL1   C22 4936   0.587   4.821   3.958 -0.3438 -0.2885  0.4544
   51CHL1  H22A 4937   0.671   4.884   3.920  0.4760 -1.1710  0.7631
   51CHL1  H22B 4938   0.494   4.880   3.974 -0.8001 -1.3447  1.7694
   51CHL1   C23 4939   0.623   4.765   4.094 -0.3074 -0.0344 -0.4034
   51CHL1  H23A 4940   0.544   4.690   4.116 -1.3378  0.9547 -0.6239
   51CHL1  H23B 4941   0.724   4.721   4.081 -0.1252  0.4232 -0.5929
   51CHL1   C24 4942   0.622   4.874   4.205  0.3286  0.4517  0.4549
   51CHL1  H24A 4943   0.713   4.933   4.180  1.6615 -0.8336  1.9755
   51CHL1  H24B 4944   0.526   4.930   4.202 -0.0652 -0.0646  2.2307
   51CHL1   C25 4945   0.644   4.819   4.350  0.0246  0.4528 -0.1472
   51CHL1   H25 4946   0.739   4.761   4.347 -1.3741 -1.9337 -1.3011
   51CHL1   C26 4947   0.656   4.930   4.448 -0.2985  0.2857 -0.0754
   51CHL1  H26A 4948   0.681   4.889   4.548 -0.5218 -0.8732 -0.4859
   51CHL1  H26B 4949   0.719   5.013   4.410 -1.2548  0.6705 -0.8616
   51CHL1  H26C 4950   0.557   4.976   4.469 -0.0961  0.4431  0.5860
   51CHL1   C27 4951   0.531   4.724   4.394  0.1623 -0.2262  1.1519
   51CHL1  H27A 4952   0.543   4.631   4.335  0.3146  0.6928 -0.3443
   51CHL1  H27B 4953   0.525   4.701   4.502 -1.2291  1.7471  1.5596
   51CHL1  H27C 4954   0.433   4.762   4.358  0.3379 -1.8197 -1.2486
   52CHL1    C3 4955   5.925   4.655   2.885  0.1286 -0.0132  0.3206
   52CHL1    H3 4956   6.024   4.698   2.861  1.2197 -2.1728  0.6564
   52CHL1    O3 4957   5.848   4.634   2.762 -0.1612 -0.1471 -0.0309
   52CHL1   H3' 4958   5.881   4.551   2.726 -0.0224 -0.6105  1.1333
   52CHL1    C4 4959   5.953   4.515   2.950 -0.0440  0.0734 -0.1951
   52CHL1   H4A 4960   5.865   4.451   2.972  0.5189 -0.4069  0.7467
   52CHL1   H4B 4961   6.017   4.456   2.880 -0.1885 -0.7566  0.3482
   52CHL1    C5 4962   6.028   4.543   3.076 -0.1428  0.0308 -0.3601
   52CHL1    C6 4963   6.146   4.488   3.098  0.4031 -0.4223  0.5990
   52CHL1    H6 4964   6.190   4.437   3.012 -0.2603  1.4464 -0.9258
   52CHL1    C7 4965   6.221   4.496   3.221 -0.1064 -0.1251 -0.2682
   52CHL1   H7A 4966   6.255   4.393   3.247  0.3478  0.4469  1.5138
   52CHL1   H7B 4967   6.305   4.566   3.204 -0.8072  0.6832 -0.4451
   52CHL1    C8 4968   6.147   4.545   3.342  0.2087 -0.9732  1.2379
   52CHL1    H8 4969   6.085   4.461   3.380 -0.3154 -0.5132  1.4082
   52CHL1   C14 4970   6.242   4.584   3.456 -0.5970 -0.2311  0.1988
   52CHL1   H14 4971   6.295   4.674   3.416  0.4561 -0.7542  0.3787
   52CHL1   C15 4972   6.345   4.481   3.502 -0.2087  0.6795  0.4002
   52CHL1  H15A 4973   6.300   4.379   3.503  2.2735 -0.5116 -1.0313
   52CHL1  H15B 4974   6.427   4.494   3.429 -1.1021  0.2108 -0.7131
   52CHL1   C16 4975   6.381   4.526   3.642  0.2418 -0.2594  0.0640
   52CHL1  H16A 4976   6.358   4.434   3.700 -2.2963  1.0967  1.3208
   52CHL1  H16B 4977   6.490   4.543   3.660  0.2442 -0.3789  0.1612
   52CHL1   C17 4978   6.291   4.646   3.677  0.7034  0.4295 -0.0348
   52CHL1   H17 4979   6.336   4.737   3.634  3.3116 -1.2854 -1.1622
   52CHL1   C13 4980   6.165   4.632   3.584  0.1985 -0.2023 -0.1871
   52CHL1   C18 4981   6.066   4.525   3.635  0.0532  0.7629 -0.0433
   52CHL1  H18A 4982   6.123   4.430   3.644  0.1909  0.9432  1.1271
   52CHL1  H18B 4983   6.019   4.554   3.731  0.8319 -0.1954  0.6507
   52CHL1  H18C 4984   5.986   4.508   3.560  0.7243 -1.6674 -0.3063
   52CHL1   C12 4985   6.097   4.769   3.547 -0.2803 -0.5294  0.0935
   52CHL1  H12A 4986   6.036   4.804   3.633 -0.6845 -1.2914  0.1266
   52CHL1  H12B 4987   6.180   4.841   3.530 -0.8459 -0.0391 -0.5857
   52CHL1   C11 4988   6.000   4.748   3.424  0.1092  0.8948  0.1684
   52CHL1  H11A 4989   5.916   4.687   3.464  0.0375  1.7057  1.3042
   52CHL1  H11B 4990   5.948   4.842   3.396 -1.5827  0.2238  0.8737
   52CHL1    C9 4991   6.057   4.668   3.302 -0.5292  0.5719  0.1603
   52CHL1    H9 4992   6.127   4.744   3.261  1.1266 -0.6185  0.7008
   52CHL1   C10 4993   5.954   4.632   3.186 -0.6143  0.1952  0.4069
   52CHL1   C19 4994   5.831   4.564   3.242 -0.2140  0.0590  0.4068
   52CHL1  H19A 4995   5.871   4.487   3.311  0.3020 -0.5098 -0.4984
   52CHL1  H19B 4996   5.769   4.639   3.296  1.1879  0.8686  0.9495
   52CHL1  H19C 4997   5.769   4.520   3.160 -0.0802  1.7916 -0.6800
   52CHL1    C1 4998   5.922   4.770   3.112  0.6885  0.7836 -0.0035
   52CHL1   H1A 4999   5.853   4.820   3.183 -1.5815 -0.2161 -1.3978
   52CHL1   H1B 5000   6.015   4.825   3.088  0.2474  2.1199  1.2188
   52CHL1    C2 5001   5.847   4.740   2.986  0.6551 -0.1131 -0.1308
   52CHL1   H2A 5002   5.822   4.838   2.939 -0.7027 -0.4659 -0.2016
   52CHL1   H2B 5003   5.751   4.689   3.010  1.4963 -1.9749 -0.5351
   52CHL1   C20 5004   6.273   4.670   3.829  0.7607 -0.7242  0.0697
   52CHL1   H20 5005   6.217   4.583   3.870 -1.0879  0.4062  0.0317
   52CHL1   C21 5006   6.198   4.804   3.855  0.6022 -0.4777 -0.1950
   52CHL1  H21A 5007   6.186   4.819   3.964 -1.3631  0.7987 -0.5279
   52CHL1  H21B 5008   6.091   4.804   3.825  0.2865  2.5855  0.6002
   52CHL1  H21C 5009   6.255   4.886   3.806  0.0652 -0.3620 -0.6363
   52CHL1   C22 5010   6.419   4.673   3.901  0.0902 -0.2597 -0.0508
   52CHL1  H22A 5011   6.480   4.589   3.861 -2.0875 -2.5248  1.1069
   52CHL1  H22B 5012   6.473   4.768   3.880  2.3471 -1.0333  1.7268
   52CHL1   C23 5013   6.400   4.652   4.052  0.3983 -0.4878 -0.1711
   52CHL1  H23A 5014   6.357   4.746   4.095  1.0743 -1.1173  2.0180
   52CHL1  H23B 5015   6.327   4.570   4.068 -1.0729  0.8145  0.1321
   52CHL1   C24 5016   6.531   4.627   4.132 -0.1462 -0.0611  0.2211
   52CHL1  H24A 5017   6.569   4.537   4.079  0.4966  1.2205 -1.5714
   52CHL1  H24B 5018   6.612   4.700   4.116  1.7653 -1.9268  0.8945
   52CHL1   C25 5019   6.511   4.607   4.281 -0.2200  0.0441  0.5258
   52CHL1   H25 5020   6.455   4.697   4.314  0.9925  1.1436 -0.3165
   52CHL1   C26 5021   6.424   4.481   4.302  0.2529 -0.5625 -0.1236
   52CHL1  H26A 5022   6.318   4.502   4.276 -0.2779 -0.0632  2.1900
   52CHL1  H26B 5023   6.471   4.399   4.244  1.8627  1.2798 -1.5409
   52CHL1  H26C 5024   6.421   4.450   4.409 -4.4014 -0.4796  0.0031
   52CHL1   C27 5025   6.645   4.586   4.350 -0.1953  0.6340  0.5676
   52CHL1  H27A 5026   6.637   4.594   4.461  0.7304 -0.6513  0.7571
   52CHL1  H27B 5027   6.686   4.485   4.326  1.6411  1.3828  0.3835
   52CHL1  H27C 5028   6.721   4.652   4.305  0.9688 -2.0681 -1.7613
   53CHL1    C3 5029   5.293   3.396   3.317 -0.2007  0.8033  0.8359
   53CHL1    H3 5030   5.385   3.450   3.349  1.5114 -1.0059 -0.6914
   53CHL1    O3 5031   5.270   3.428   3.180  0.4456 -0.1334  0.3329
   53CHL1   H3' 5032   5.259   3.523   3.177  1.3350  0.0453  1.6203
   53CHL1    C4 5033   5.312   3.245   3.333 -0.0781 -0.2913  0.7041
   53CHL1   H4A 5034   5.220   3.194   3.297 -0.2157  0.8381 -0.6689
   53CHL1   H4B 5035   5.391   3.204   3.267  0.1107  0.3991  0.4960
   53CHL1    C5 5036   5.339   3.209   3.478  0.4262 -0.2136 -0.1641
   53CHL1    C6 5037   5.454   3.154   3.516  0.2616 -0.4439  0.1764
   53CHL1    H6 5038   5.527   3.128   3.439 -0.0223 -0.9955  0.0864
   53CHL1    C7 5039   5.491   3.103   3.653  0.1408  0.1202 -0.1030
   53CHL1   H7A 5040   5.533   3.000   3.651 -1.3973 -0.6326  2.0351
   53CHL1   H7B 5041   5.566   3.177   3.686 -1.7239  2.1071 -0.1449
   53CHL1    C8 5042   5.367   3.111   3.748  0.2999 -0.6943  0.4433
   53CHL1    H8 5043   5.310   3.021   3.717  0.9307 -0.3524 -1.8973
   53CHL1   C14 5044   5.413   3.108   3.887  0.8515  0.0667  0.5066
   53CHL1   H14 5045   5.484   3.193   3.898  2.0036 -0.8846  0.6454
   53CHL1   C15 5046   5.510   2.998   3.931 -0.5624 -0.5640 -0.0229
   53CHL1  H15A 5047   5.470   2.903   3.891  0.0309 -1.4229  1.3359
   53CHL1  H15B 5048   5.618   3.018   3.914 -0.8188 -1.1888 -2.9310
   53CHL1   C16 5049   5.498   2.994   4.083  0.2570  0.0689  1.1118
   53CHL1  H16A 5050   5.451   2.901   4.121 -0.7459 -0.6398 -1.6270
   53CHL1  H16B 5051   5.582   3.018   4.151  0.5744  0.0784  0.7243
   53CHL1   C17 5052   5.379   3.094   4.115 -0.4367 -0.3789 -0.2633
   53CHL1   H17 5053   5.426   3.193   4.134 -0.6296 -0.0335 -1.5471
   53CHL1   C13 5054   5.302   3.101   3.982 -0.1849  0.1393  0.0349
   53CHL1   C18 5055   5.208   2.983   3.975  0.3869  0.3386  0.3463
   53CHL1  H18A 5056   5.138   2.990   4.060  2.4485  1.8270  2.0140
   53CHL1  H18B 5057   5.151   2.988   3.880  0.2889 -1.3212  0.2938
   53CHL1  H18C 5058   5.263   2.886   3.971 -0.4170 -0.0912 -0.7798
   53CHL1   C12 5059   5.217   3.234   3.968 -0.2251 -0.2003 -0.1380
   53CHL1  H12A 5060   5.124   3.229   4.028 -0.6443  0.1691 -0.7410
   53CHL1  H12B 5061   5.283   3.313   4.009 -0.0599  0.4250 -1.5395
   53CHL1   C11 5062   5.172   3.270   3.826  0.4325  0.4274 -0.0225
   53CHL1  H11A 5063   5.083   3.208   3.803 -0.2158  1.6193 -0.8092
   53CHL1  H11B 5064   5.135   3.375   3.823 -0.6674  0.0616 -2.9259
   53CHL1    C9 5065   5.279   3.234   3.719  0.0629 -0.2449  0.3915
   53CHL1    H9 5066   5.346   3.320   3.736  1.3318 -1.4868  1.9399
   53CHL1   C10 5067   5.227   3.250   3.577  0.7227  1.0158 -0.7546
   53CHL1   C19 5068   5.111   3.142   3.561  0.2430  0.2490  0.1057
   53CHL1  H19A 5069   5.136   3.047   3.613 -0.8748  0.1181  0.4510
   53CHL1  H19B 5070   5.020   3.181   3.612  0.9986  2.5393 -0.1800
   53CHL1  H19C 5071   5.077   3.127   3.456  0.3909  2.0902 -0.2414
   53CHL1    C1 5072   5.185   3.396   3.547 -0.6799 -0.0722  0.3569
   53CHL1   H1A 5073   5.098   3.422   3.610 -0.7808 -0.0862  0.2231
   53CHL1   H1B 5074   5.272   3.457   3.578 -0.4978  0.3319 -0.9182
   53CHL1    C2 5075   5.166   3.433   3.398  0.3195 -0.3869 -0.7568
   53CHL1   H2A 5076   5.156   3.543   3.393  0.8912 -0.0505  2.7234
   53CHL1   H2B 5077   5.077   3.383   3.354  0.4624 -0.7765 -0.6079
   53CHL1   C20 5078   5.302   3.054   4.244  0.2257  0.4919 -0.5617
   53CHL1   H20 5079   5.260   2.953   4.221  0.0954  0.2725  0.5901
   53CHL1   C21 5080   5.193   3.152   4.266  0.1703  0.0737 -0.7333
   53CHL1  H21A 5081   5.146   3.136   4.365  2.6418  0.6266  0.6011
   53CHL1  H21B 5082   5.110   3.159   4.192  0.3682  3.4606 -0.7688
   53CHL1  H21C 5083   5.240   3.252   4.270  0.6955 -0.1233 -1.5499
   53CHL1   C22 5084   5.386   3.025   4.372 -0.2102 -0.2211  0.0880
   53CHL1  H22A 5085   5.483   2.987   4.332 -0.5474 -0.1554 -0.8243
   53CHL1  H22B 5086   5.415   3.120   4.422  0.9180  0.5262 -1.8666
   53CHL1   C23 5087   5.325   2.927   4.471 -0.0809 -0.3778 -0.5274
   53CHL1  H23A 5088   5.218   2.957   4.480  0.4055  1.1276  0.6146
   53CHL1  H23B 5089   5.333   2.822   4.435 -0.7091 -0.3959 -0.6326
   53CHL1   C24 5090   5.393   2.940   4.611  0.0862 -0.6449  0.3640
   53CHL1  H24A 5091   5.503   2.927   4.597  0.3271 -0.1600  1.6668
   53CHL1  H24B 5092   5.363   3.042   4.643  1.7149  0.6195 -1.7891
   53CHL1   C25 5093   5.346   2.843   4.717  0.2936  2.0572  0.3220
   53CHL1   H25 5094   5.235   2.835   4.722  0.3281 -2.3256 -1.0730
   53CHL1   C26 5095   5.392   2.697   4.691  0.8054  0.3106  0.4041
   53CHL1  H26A 5096   5.499   2.681   4.669  0.1080 -1.4694 -2.1639
   53CHL1  H26B 5097   5.358   2.640   4.780 -0.9150  1.3701  0.4658
   53CHL1  H26C 5098   5.336   2.646   4.609 -0.4312  1.7393  0.3231
   53CHL1   C27 5099   5.407   2.882   4.845  0.0157  0.4139 -0.2343
   53CHL1  H27A 5100   5.517   2.893   4.836  0.1376 -0.5690 -0.0538
   53CHL1  H27B 5101   5.365   2.981   4.872 -0.6708 -0.1360  0.7589
   53CHL1  H27C 5102   5.374   2.814   4.926  0.0965  2.6323  1.7725
   54CHL1    C3 5103   4.551   4.059   2.671 -0.5984  0.6010 -0.8463
   54CHL1    H3 5104   4.461   3.998   2.651 -0.0702  0.1672 -1.9781
   54CHL1    O3 5105   4.601   4.090   2.546 -0.3473 -0.9464  0.1317
   54CHL1   H3' 5106   4.664   4.021   2.527  0.4075 -0.3060  0.2384
   54CHL1    C4 5107   4.505   4.174   2.753 -0.4641 -0.3878 -0.1407
   54CHL1   H4A 5108   4.589   4.244   2.774 -0.6742 -0.2328  0.1937
   54CHL1   H4B 5109   4.433   4.229   2.689  0.0893 -2.1833 -2.4332
   54CHL1    C5 5110   4.444   4.143   2.890  0.2880  0.0708  0.8241
   54CHL1    C6 5111   4.316   4.169   2.912  0.2039 -0.5168 -0.1472
   54CHL1    H6 5112   4.251   4.205   2.832  0.5510  0.0450 -0.1800
   54CHL1    C7 5113   4.265   4.149   3.051  0.5243 -0.2868 -0.3419
   54CHL1   H7A 5114   4.205   4.239   3.079 -1.9202 -1.1766 -2.3703
   54CHL1   H7B 5115   4.186   4.071   3.052 -1.7050  1.8157 -1.4710
   54CHL1    C8 5116   4.378   4.126   3.163 -0.6488 -0.7367  0.6659
   54CHL1    H8 5117   4.434   4.219   3.188  2.3769 -2.1784 -0.3138
   54CHL1   C14 5118   4.321   4.061   3.281 -0.4674  0.1585 -0.2817
   54CHL1   H14 5119   4.271   3.970   3.242 -1.9653  0.5997  0.5260
   54CHL1   C15 5120   4.212   4.143   3.352  0.3922 -0.1498 -0.5010
   54CHL1  H15A 5121   4.228   4.253   3.351 -1.5088  0.1903  1.1217
   54CHL1  H15B 5122   4.120   4.118   3.295  0.2055 -0.9020  0.1117
   54CHL1   C16 5123   4.199   4.086   3.490 -0.3712  0.1878 -0.7898
   54CHL1  H16A 5124   4.209   4.164   3.568  0.2138 -0.1406 -0.5290
   54CHL1  H16B 5125   4.098   4.044   3.506  0.2923 -0.8776  0.9598
   54CHL1   C17 5126   4.309   3.979   3.501  0.3966 -0.3515 -0.0459
   54CHL1   H17 5127   4.277   3.875   3.477  6.3467 -2.8632  1.1249
   54CHL1   C13 5128   4.414   4.017   3.392 -0.1847  0.1413 -0.4806
   54CHL1   C18 5129   4.502   4.136   3.438 -0.1830 -0.0921  0.0380
   54CHL1  H18A 5130   4.432   4.210   3.483  0.4053  1.8837 -2.0859
   54CHL1  H18B 5131   4.576   4.107   3.515  0.9368 -0.2364 -1.0531
   54CHL1  H18C 5132   4.548   4.196   3.357  0.8043  0.3880  0.9363
   54CHL1   C12 5133   4.494   3.901   3.332  0.3750  0.3479 -0.2123
   54CHL1  H12A 5134   4.581   3.871   3.394  0.8112 -0.8185 -1.3396
   54CHL1  H12B 5135   4.440   3.810   3.299  1.6900  0.0802 -1.7544
   54CHL1   C11 5136   4.573   3.953   3.207 -0.1570 -0.6753  0.2201
   54CHL1  H11A 5137   4.655   4.017   3.245 -0.8662  1.2377 -1.2979
   54CHL1  H11B 5138   4.621   3.864   3.160  1.4752 -1.2220  2.6815
   54CHL1    C9 5139   4.475   4.023   3.098 -0.5848 -0.4333  0.6926
   54CHL1    H9 5140   4.409   3.937   3.071 -2.6036  1.4451 -0.6504
   54CHL1   C10 5141   4.552   4.076   2.976  0.3250 -0.5329  0.4018
   54CHL1   C19 5142   4.674   4.172   3.024  0.5514 -0.1060  0.3150
   54CHL1  H19A 5143   4.760   4.111   3.060  1.8155  1.6424  0.3669
   54CHL1  H19B 5144   4.719   4.225   2.937  1.7160  1.1471  1.6196
   54CHL1  H19C 5145   4.654   4.251   3.099  2.8924 -0.3629  1.2958
   54CHL1    C1 5146   4.599   3.957   2.896 -0.8268  0.2975  0.5638
   54CHL1   H1A 5147   4.693   3.914   2.938  0.7149  0.8002 -2.1274
   54CHL1   H1B 5148   4.521   3.879   2.882 -0.4496 -0.0342  0.2828
   54CHL1    C2 5149   4.656   3.984   2.755 -0.1775  0.0165 -0.3499
   54CHL1   H2A 5150   4.699   3.889   2.717  0.7840 -0.2043  1.2042
   54CHL1   H2B 5151   4.747   4.048   2.762 -1.4696  1.8828  0.1816
   54CHL1   C20 5152   4.359   3.964   3.640 -0.5479 -1.0304  0.0955
   54CHL1   H20 5153   4.412   4.055   3.676 -0.4902 -0.7030 -0.8114
   54CHL1   C21 5154   4.463   3.857   3.650  0.5746  0.1826 -0.0164
   54CHL1  H21A 5155   4.426   3.757   3.619 -3.9146  1.4020  0.6570
   54CHL1  H21B 5156   4.491   3.836   3.755 -1.2603 -1.3476  0.2117
   54CHL1  H21C 5157   4.557   3.889   3.600  0.2994  0.6371 -0.2538
   54CHL1   C22 5158   4.238   3.941   3.734 -0.1999 -0.1639 -0.0967
   54CHL1  H22A 5159   4.162   4.023   3.733  1.2029  1.2046  0.9887
   54CHL1  H22B 5160   4.186   3.846   3.711 -0.7638  0.2244 -0.4687
   54CHL1   C23 5161   4.268   3.928   3.887  0.4407 -0.6402  0.2225
   54CHL1  H23A 5162   4.182   3.897   3.950 -0.1150 -0.1522 -0.2832
   54CHL1  H23B 5163   4.349   3.854   3.905 -0.4652 -1.7799 -0.2117
   54CHL1   C24 5164   4.304   4.072   3.939  0.2411 -0.3229 -0.0918
   54CHL1  H24A 5165   4.383   4.115   3.874  1.0894 -0.4163  0.8495
   54CHL1  H24B 5166   4.214   4.136   3.930  0.9453  0.4764 -1.8245
   54CHL1   C25 5167   4.356   4.067   4.079  0.4340 -0.3728 -0.0182
   54CHL1   H25 5168   4.454   4.017   4.071  1.0443  1.0446 -2.4936
   54CHL1   C26 5169   4.399   4.211   4.120 -0.6790 -0.0732 -0.2417
   54CHL1  H26A 5170   4.425   4.268   4.028  0.5787 -0.5592 -0.2099
   54CHL1  H26B 5171   4.315   4.249   4.182  1.8430  0.5875  3.0516
   54CHL1  H26C 5172   4.486   4.196   4.188 -0.9272 -1.4454 -0.2009
   54CHL1   C27 5173   4.258   4.011   4.192 -0.0754  0.7961 -0.1035
   54CHL1  H27A 5174   4.154   4.047   4.176 -0.0537  0.9028 -0.0121
   54CHL1  H27B 5175   4.253   3.901   4.178 -0.4040  0.9710 -1.5464
   54CHL1  H27C 5176   4.291   4.044   4.293  0.7694 -0.8729  0.1846
   55CHL1    C3 5177   6.376   1.202   3.010  0.1801 -0.6985  0.2001
   55CHL1    H3 5178   6.456   1.190   3.087 -1.0810 -0.1381  1.6427
   55CHL1    O3 5179   6.424   1.166   2.885 -0.3511 -0.2949 -0.2951
   55CHL1   H3' 5180   6.438   1.071   2.887 -0.7202 -0.3429  0.4642
   55CHL1    C4 5181   6.256   1.113   3.066 -0.0447  0.0711 -0.2300
   55CHL1   H4A 5182   6.174   1.126   2.992 -0.9564  0.9389  0.9047
   55CHL1   H4B 5183   6.286   1.006   3.057  0.9556  0.4374 -1.5980
   55CHL1    C5 5184   6.220   1.160   3.206 -0.0957 -0.1035 -0.4845
   55CHL1    C6 5185   6.213   1.079   3.308 -0.2603  0.6853 -0.2712
   55CHL1    H6 5186   6.224   0.972   3.285  0.2230  0.4879  0.8491
   55CHL1    C7 5187   6.180   1.115   3.450  0.4234  0.2373  0.0709
   55CHL1   H7A 5188   6.118   1.037   3.499  1.5659 -0.0237  1.1184
   55CHL1   H7B 5189   6.276   1.123   3.505  1.8280 -1.2656 -1.9948
   55CHL1    C8 5190   6.111   1.247   3.458  0.0584 -0.1814 -0.2703
   55CHL1    H8 5191   6.003   1.239   3.431 -0.0546 -3.6562  0.7231
   55CHL1   C14 5192   6.119   1.297   3.606 -0.5717  0.6041  0.5411
   55CHL1   H14 5193   6.225   1.324   3.625 -0.6022 -0.2589  2.1064
   55CHL1   C15 5194   6.078   1.200   3.717  0.0607  0.7658  0.9548
   55CHL1  H15A 5195   5.978   1.153   3.703  0.0509  0.9804  0.2722
   55CHL1  H15B 5196   6.159   1.127   3.737 -0.9846 -0.6953  0.0983
   55CHL1   C16 5197   6.066   1.291   3.841  0.0105 -0.4285  0.1589
   55CHL1  H16A 5198   5.966   1.289   3.888  0.9039 -1.3746  2.1548
   55CHL1  H16B 5199   6.139   1.266   3.922  1.2358 -0.8118 -1.0228
   55CHL1   C17 5200   6.078   1.443   3.787  0.2500 -0.4071  0.4094
   55CHL1   H17 5201   6.182   1.476   3.810 -0.1030  1.4227 -0.4594
   55CHL1   C13 5202   6.068   1.434   3.633  0.1996 -0.3313 -0.1620
   55CHL1   C18 5203   5.913   1.436   3.605  0.3546  0.4987 -0.2255
   55CHL1  H18A 5204   5.844   1.373   3.666 -2.1980  1.8895 -1.5446
   55CHL1  H18B 5205   5.881   1.542   3.606  1.0206  0.7394 -1.5127
   55CHL1  H18C 5206   5.902   1.404   3.499  2.3880  0.1377 -0.3747
   55CHL1   C12 5207   6.148   1.538   3.546 -0.4617  0.3611  0.0716
   55CHL1  H12A 5208   6.116   1.645   3.546 -0.8521  0.3250 -2.7184
   55CHL1  H12B 5209   6.252   1.534   3.584  0.2247 -0.3905 -1.7789
   55CHL1   C11 5210   6.146   1.499   3.402  0.0310 -0.2223 -0.3965
   55CHL1  H11A 5211   6.042   1.510   3.363 -0.7266 -3.3910  0.4509
   55CHL1  H11B 5212   6.209   1.570   3.345  2.0924 -0.5433  1.3586
   55CHL1    C9 5213   6.189   1.351   3.375  0.1857  0.2655 -0.5203
   55CHL1    H9 5214   6.289   1.337   3.422 -0.2255 -2.8471 -0.3377
   55CHL1   C10 5215   6.191   1.313   3.220  0.8617  0.5716 -0.3619
   55CHL1   C19 5216   6.046   1.337   3.156  0.7329 -0.2130 -0.0510
   55CHL1  H19A 5217   5.977   1.299   3.235 -0.9947  1.2214 -0.8118
   55CHL1  H19B 5218   6.016   1.443   3.140  0.8643  0.4940  3.5329
   55CHL1  H19C 5219   6.029   1.285   3.059  1.5786  0.3738 -0.5244
   55CHL1    C1 5220   6.297   1.402   3.148  0.2137  0.9494 -0.8022
   55CHL1   H1A 5221   6.259   1.506   3.143  1.1304  1.4644  1.5729
   55CHL1   H1B 5222   6.381   1.401   3.221 -0.4146  3.4561  0.0510
   55CHL1    C2 5223   6.336   1.349   3.008 -0.3365  0.5258  0.1810
   55CHL1   H2A 5224   6.423   1.409   2.972 -1.2347  3.3532  2.3156
   55CHL1   H2B 5225   6.261   1.363   2.928 -0.2691  0.8646  0.1744
   55CHL1   C20 5226   6.001   1.542   3.873 -0.1841 -0.7579 -0.0229
   55CHL1   H20 5227   5.893   1.523   3.860 -0.6728  0.2946  2.0431
   55CHL1   C21 5228   6.019   1.686   3.821 -0.7973 -0.3698  0.5714
   55CHL1  H21A 5229   5.979   1.714   3.721 -0.0146 -0.1601  0.3110
   55CHL1  H21B 5230   6.128   1.707   3.811 -0.7096 -0.9614  0.2044
   55CHL1  H21C 5231   5.968   1.754   3.892 -2.6068 -0.9267 -0.1223
   55CHL1   C22 5232   6.022   1.543   4.033  1.1021  0.1133 -0.7186
   55CHL1  H22A 5233   6.021   1.435   4.060  0.0106 -0.1490 -1.7094
   55CHL1  H22B 5234   6.119   1.594   4.047  0.6419  0.7649  0.1908
   55CHL1   C23 5235   5.913   1.612   4.118  0.2173 -0.4509  0.6765
   55CHL1  H23A 5236   5.925   1.722   4.117 -0.2069 -0.4067  0.3016
   55CHL1  H23B 5237   5.811   1.590   4.081  1.2044 -0.2721 -2.4748
   55CHL1   C24 5238   5.937   1.558   4.266  0.5209 -0.4290  0.5399
   55CHL1  H24A 5239   5.920   1.449   4.255 -0.5345 -0.2995  0.8470
   55CHL1  H24B 5240   6.046   1.580   4.268  0.6766 -0.4938 -2.2684
   55CHL1   C25 5241   5.859   1.609   4.389 -0.1492  0.0534  0.3704
   55CHL1   H25 5242   5.754   1.572   4.388 -0.8481  1.9133  0.2238
   55CHL1   C26 5243   5.927   1.535   4.506  0.2428  0.7241 -0.2357
   55CHL1  H26A 5244   6.021   1.586   4.536  0.9291 -0.9516  0.6364
   55CHL1  H26B 5245   5.848   1.543   4.585 -0.2315 -0.9135 -0.5006
   55CHL1  H26C 5246   5.944   1.427   4.489 -1.5527  0.2095  0.8876
   55CHL1   C27 5247   5.850   1.759   4.410 -0.2205  0.1820 -0.0890
   55CHL1  H27A 5248   5.788   1.777   4.501 -0.1735  0.8806 -0.1926
   55CHL1  H27B 5249   5.943   1.818   4.421 -1.0683  2.1129 -2.3775
   55CHL1  H27C 5250   5.790   1.795   4.323 -0.0161 -0.7876 -0.6465
   56CHL1    C3 5251   1.400   3.433   2.890  0.5172  0.5418 -0.1888
   56CHL1    H3 5252   1.304   3.434   2.946  0.6588  1.3253  0.0527
   56CHL1    O3 5253   1.360   3.389   2.759 -0.4334 -0.0774  0.0256
   56CHL1   H3' 5254   1.434   3.389   2.698  0.5542 -0.7728  1.1645
   56CHL1    C4 5255   1.457   3.577   2.893 -0.4983 -0.4447 -0.5238
   56CHL1   H4A 5256   1.529   3.586   2.809  1.0829 -1.1612  0.6958
   56CHL1   H4B 5257   1.371   3.643   2.871 -0.3418  0.1340  0.5472
   56CHL1    C5 5258   1.510   3.606   3.035 -0.3664 -0.6177 -0.0115
   56CHL1    C6 5259   1.462   3.708   3.113 -0.0611  0.3128  0.5278
   56CHL1    H6 5260   1.380   3.770   3.075 -0.0156  0.0797  0.0411
   56CHL1    C7 5261   1.518   3.741   3.246  0.3343  0.3838  0.4253
   56CHL1   H7A 5262   1.527   3.849   3.270  0.6652  0.3178  0.5927
   56CHL1   H7B 5263   1.455   3.686   3.319  1.6349 -0.2438  1.0973
   56CHL1    C8 5264   1.668   3.679   3.267 -0.3796  0.5351  0.0221
   56CHL1    H8 5265   1.736   3.735   3.199  1.3819  0.9655  2.0107
   56CHL1   C14 5266   1.712   3.694   3.412 -0.4441 -0.1355 -0.3593
   56CHL1   H14 5267   1.646   3.633   3.477  2.0465  0.9008  3.4136
   56CHL1   C15 5268   1.696   3.829   3.475 -0.2777 -0.3151  0.2968
   56CHL1  H15A 5269   1.724   3.914   3.410 -0.8241 -0.5972 -0.3245
   56CHL1  H15B 5270   1.594   3.854   3.511 -0.6087 -0.7748 -0.2901
   56CHL1   C16 5271   1.784   3.822   3.603 -0.1296  0.1888  0.0878
   56CHL1  H16A 5272   1.857   3.905   3.616 -0.9244  0.9390 -0.1246
   56CHL1  H16B 5273   1.717   3.810   3.691 -0.4282 -1.7874 -0.3761
   56CHL1   C17 5274   1.870   3.687   3.590 -0.0866 -0.4642 -0.0727
   56CHL1   H17 5275   1.816   3.606   3.644 -1.5390  1.7315  1.9726
   56CHL1   C13 5276   1.856   3.649   3.441 -0.1218 -0.1640  0.1003
   56CHL1   C18 5277   1.969   3.726   3.361  0.5510  0.0429  0.3885
   56CHL1  H18A 5278   1.977   3.828   3.405 -2.6866  0.3520  0.5129
   56CHL1  H18B 5279   2.065   3.676   3.383 -0.3822 -1.9654  0.1362
   56CHL1  H18C 5280   1.952   3.728   3.251  2.6466 -0.6906  0.0159
   56CHL1   C12 5281   1.856   3.504   3.412 -0.2230  1.4494  0.8017
   56CHL1  H12A 5282   1.952   3.449   3.410 -0.5643  0.8517 -0.3862
   56CHL1  H12B 5283   1.770   3.457   3.465  0.7997 -0.8681  0.5446
   56CHL1   C11 5284   1.809   3.473   3.262  0.0823  0.4924 -0.0274
   56CHL1  H11A 5285   1.885   3.517   3.195 -0.4360  1.4951  0.0253
   56CHL1  H11B 5286   1.808   3.362   3.250 -0.9197  0.3086  1.4842
   56CHL1    C9 5287   1.667   3.529   3.225 -0.1683  0.0615  0.0726
   56CHL1    H9 5288   1.585   3.485   3.286  0.4575 -0.6955  0.3814
   56CHL1   C10 5289   1.624   3.508   3.081  0.8883 -0.2555  0.0321
   56CHL1   C19 5290   1.750   3.546   2.994  0.5519 -0.4602 -0.5426
   56CHL1  H19A 5291   1.826   3.465   3.001  0.0240 -1.0985 -1.8269
   56CHL1  H19B 5292   1.721   3.543   2.887 -1.9497 -1.7102  0.0822
   56CHL1  H19C 5293   1.790   3.643   3.030  0.1928 -0.9466  1.2809
   56CHL1    C1 5294   1.578   3.371   3.063 -0.8624  0.0067  0.0366
   56CHL1   H1A 5295   1.667   3.308   3.085  0.4898  1.4707 -1.0081
   56CHL1   H1B 5296   1.504   3.345   3.142 -0.4209  0.5166  0.6262
   56CHL1    C2 5297   1.504   3.331   2.932 -0.4940 -0.5195 -0.3201
   56CHL1   H2A 5298   1.456   3.231   2.930 -1.1428 -0.2076 -1.2016
   56CHL1   H2B 5299   1.575   3.328   2.847 -2.2507  0.1110 -1.8959
   56CHL1   C20 5300   2.011   3.702   3.655 -0.3020 -0.2084 -0.1539
   56CHL1   H20 5301   2.073   3.777   3.602 -0.9047  1.5976  1.5683
   56CHL1   C21 5302   2.092   3.572   3.662  0.4238 -0.1910  0.3854
   56CHL1  H21A 5303   2.094   3.527   3.561 -0.6964 -0.2881  0.4015
   56CHL1  H21B 5304   2.034   3.505   3.728 -2.4908  2.4235  0.6982
   56CHL1  H21C 5305   2.196   3.586   3.701  1.0866 -0.0255 -1.3443
   56CHL1   C22 5306   2.003   3.758   3.805 -0.2156 -0.0073  0.0528
   56CHL1  H22A 5307   1.980   3.867   3.801  1.0054  0.2530 -0.1837
   56CHL1  H22B 5308   1.914   3.703   3.844 -1.7084  0.7513 -2.0879
   56CHL1   C23 5309   2.118   3.723   3.900 -0.4439 -0.1322 -0.1176
   56CHL1  H23A 5310   2.137   3.614   3.904  0.1052 -0.0248  0.2597
   56CHL1  H23B 5311   2.203   3.768   3.844  0.1760 -0.0477  0.8556
   56CHL1   C24 5312   2.095   3.802   4.031  0.1382 -0.3855  0.7352
   56CHL1  H24A 5313   2.065   3.904   3.999  0.9657 -0.0207  1.0704
   56CHL1  H24B 5314   2.003   3.755   4.072 -2.0137 -0.2301 -3.4132
   56CHL1   C25 5315   2.219   3.807   4.125  0.4418 -0.4054 -0.3963
   56CHL1   H25 5316   2.286   3.721   4.104  0.8169 -0.2805  0.2363
   56CHL1   C26 5317   2.308   3.937   4.100 -0.1293  0.3456 -0.1044
   56CHL1  H26A 5318   2.397   3.932   4.167 -0.8329 -0.7899  0.8014
   56CHL1  H26B 5319   2.330   3.927   3.992  0.8506 -1.0419  0.1989
   56CHL1  H26C 5320   2.258   4.035   4.113  0.0417  0.1676  2.5007
   56CHL1   C27 5321   2.175   3.795   4.268 -0.7085  0.0479 -0.2165
   56CHL1  H27A 5322   2.110   3.705   4.268 -0.1461 -0.3678 -1.0608
   56CHL1  H27B 5323   2.261   3.771   4.333 -0.6639  0.0390 -0.2788
   56CHL1  H27C 5324   2.120   3.887   4.299 -0.5854  0.0584 -0.0287
   57CHL1    C3 5325   0.439   1.786   3.266 -0.1520 -0.4463  0.4440
   57CHL1    H3 5326   0.432   1.695   3.329 -0.7712  0.0833  1.1511
   57CHL1    O3 5327   0.437   1.753   3.130  0.5116  0.4922  0.6450
   57CHL1   H3' 5328   0.359   1.697   3.125  1.8801 -1.5946  1.5566
   57CHL1    C4 5329   0.320   1.883   3.287 -0.6684 -0.9804 -0.1798
   57CHL1   H4A 5330   0.309   1.966   3.214 -2.3745 -0.7621  0.2782
   57CHL1   H4B 5331   0.230   1.821   3.266 -1.0155  0.0755 -2.0428
   57CHL1    C5 5332   0.318   1.943   3.425 -0.6368  0.4676  0.3124
   57CHL1    C6 5333   0.208   1.939   3.502 -0.1481  0.4374  0.1577
   57CHL1    H6 5334   0.118   1.885   3.469  1.2771 -1.7993 -0.3015
   57CHL1    C7 5335   0.194   2.003   3.635 -0.2655  0.1488  0.2786
   57CHL1   H7A 5336   0.095   2.053   3.647 -1.0889 -1.6684  1.4246
   57CHL1   H7B 5337   0.207   1.928   3.715  0.6717  0.7370  0.6996
   57CHL1    C8 5338   0.299   2.111   3.652  0.0726  0.0830  0.0167
   57CHL1    H8 5339   0.262   2.199   3.594 -1.7065 -0.7304 -0.1404
   57CHL1   C14 5340   0.310   2.145   3.801  0.2090 -1.0019 -0.0203
   57CHL1   H14 5341   0.345   2.055   3.857 -3.7304 -1.9811  1.1732
   57CHL1   C15 5342   0.178   2.177   3.862  0.0008 -0.2880 -0.5752
   57CHL1  H15A 5343   0.119   2.245   3.798 -2.3959 -0.7018  1.0630
   57CHL1  H15B 5344   0.134   2.081   3.896 -0.8318  0.8765  1.8397
   57CHL1   C16 5345   0.216   2.266   3.981 -0.0839  0.2034  0.4045
   57CHL1  H16A 5346   0.168   2.361   3.950 -1.2946 -0.7810 -0.8781
   57CHL1  H16B 5347   0.186   2.233   4.083  1.0593  0.8112  0.9537
   57CHL1   C17 5348   0.366   2.275   3.982  0.2189 -0.6377 -0.1244
   57CHL1   H17 5349   0.400   2.182   4.033  1.2951 -0.5639 -0.6925
   57CHL1   C13 5350   0.413   2.251   3.836  0.4293 -0.2260  0.1091
   57CHL1   C18 5351   0.392   2.380   3.744 -0.1984  0.3440 -0.4592
   57CHL1  H18A 5352   0.293   2.427   3.767  0.2312  0.5809  1.0412
   57CHL1  H18B 5353   0.469   2.457   3.764 -2.4163  2.6325 -0.1113
   57CHL1  H18C 5354   0.393   2.350   3.637  0.9642  0.7059 -0.5557
   57CHL1   C12 5355   0.550   2.187   3.802 -0.2738 -0.0377 -0.4392
   57CHL1  H12A 5356   0.635   2.259   3.802 -0.6318  0.4170 -1.6893
   57CHL1  H12B 5357   0.572   2.100   3.867 -3.6132  0.0986  1.0872
   57CHL1   C11 5358   0.557   2.146   3.653  0.0462 -0.0746 -0.3742
   57CHL1  H11A 5359   0.549   2.240   3.594 -1.3391  0.3268  0.4000
   57CHL1  H11B 5360   0.651   2.089   3.642 -0.2040 -0.7954  0.9732
   57CHL1    C9 5361   0.436   2.056   3.615 -0.1751 -1.0238  0.9515
   57CHL1    H9 5362   0.448   1.967   3.681  0.2338 -0.9003  1.0480
   57CHL1   C10 5363   0.449   2.008   3.466 -0.7059 -0.4716  0.4430
   57CHL1   C19 5364   0.459   2.133   3.376  0.3067  0.1411  0.6446
   57CHL1  H19A 5365   0.461   2.117   3.266  0.0788  0.5545  0.5777
   57CHL1  H19B 5366   0.374   2.203   3.388 -0.6108 -0.5519 -1.3665
   57CHL1  H19C 5367   0.558   2.174   3.407  0.8600 -0.7929  0.1729
   57CHL1    C1 5368   0.563   1.912   3.444  0.0460 -0.4174 -0.3798
   57CHL1   H1A 5369   0.662   1.953   3.471 -0.3672  1.3330 -1.3626
   57CHL1   H1B 5370   0.536   1.826   3.509  0.4099  1.1456  1.9495
   57CHL1    C2 5371   0.570   1.855   3.294 -1.0709 -0.5299 -0.0072
   57CHL1   H2A 5372   0.652   1.780   3.299  0.0115  0.6783  1.2135
   57CHL1   H2B 5373   0.607   1.932   3.222 -1.3490 -0.9453 -0.5989
   57CHL1   C20 5374   0.417   2.400   4.059 -1.0123 -0.1051 -1.2334
   57CHL1   H20 5375   0.382   2.493   4.009  0.8038  0.0638 -2.2800
   57CHL1   C21 5376   0.572   2.406   4.044  0.0701  0.0494 -0.1127
   57CHL1  H21A 5377   0.618   2.319   4.096 -0.0713  1.1061  1.8659
   57CHL1  H21B 5378   0.614   2.495   4.095 -0.9108 -0.2814  1.3288
   57CHL1  H21C 5379   0.595   2.401   3.935 -0.5772  0.6535 -0.2769
   57CHL1   C22 5380   0.364   2.413   4.200 -0.3493  0.0346  0.5663
   57CHL1  H22A 5381   0.408   2.510   4.230 -0.4405  0.6266 -1.0867
   57CHL1  H22B 5382   0.254   2.426   4.204 -0.4119 -0.7157  2.6718
   57CHL1   C23 5383   0.396   2.296   4.303 -0.5142 -0.3659 -0.5965
   57CHL1  H23A 5384   0.343   2.200   4.286  1.6162 -1.4974 -1.1335
   57CHL1  H23B 5385   0.506   2.281   4.295 -0.4724  0.8196 -3.1413
   57CHL1   C24 5386   0.362   2.348   4.451  0.3080  0.1941  0.4006
   57CHL1  H24A 5387   0.259   2.387   4.461  0.7975  1.4992  0.5451
   57CHL1  H24B 5388   0.367   2.250   4.503  2.3774  0.3534  0.5974
   57CHL1   C25 5389   0.454   2.451   4.518  0.1391  0.5715 -0.0704
   57CHL1   H25 5390   0.466   2.531   4.440  0.4325  0.9740  0.3808
   57CHL1   C26 5391   0.404   2.520   4.647  0.8456  0.3151 -0.8579
   57CHL1  H26A 5392   0.487   2.592   4.665  0.2931  0.4931  1.2375
   57CHL1  H26B 5393   0.306   2.569   4.635 -1.0277 -2.5444  1.2912
   57CHL1  H26C 5394   0.388   2.445   4.727 -1.9907  1.0779 -0.6173
   57CHL1   C27 5395   0.596   2.398   4.550 -0.4477  0.2339 -0.0564
   57CHL1  H27A 5396   0.600   2.337   4.642  0.7721  0.0472 -0.2211
   57CHL1  H27B 5397   0.622   2.334   4.463 -2.2673  1.2483 -1.4302
   57CHL1  H27C 5398   0.669   2.482   4.558 -1.6897  1.2757  0.7980
   58CHL1    C3 5399   0.978   2.176   3.254  0.1496  0.0653  0.2625
   58CHL1    H3 5400   0.898   2.245   3.218  1.1809  1.3111  0.2860
   58CHL1    O3 5401   1.017   2.095   3.145  0.7693  0.3065 -0.5826
   58CHL1   H3' 5402   0.935   2.065   3.107  1.3125  0.0848 -1.6125
   58CHL1    C4 5403   1.102   2.266   3.292  0.5687  0.8981 -0.4076
   58CHL1   H4A 5404   1.184   2.191   3.292 -1.7581 -1.8384  0.3697
   58CHL1   H4B 5405   1.125   2.343   3.216  0.3294  1.9634  0.5790
   58CHL1    C5 5406   1.091   2.325   3.430  0.5999  0.3120 -0.4807
   58CHL1    C6 5407   1.120   2.452   3.453 -0.1415  0.3012 -0.2440
   58CHL1    H6 5408   1.147   2.517   3.369 -1.4351  0.3075 -0.6731
   58CHL1    C7 5409   1.109   2.527   3.585  0.4220 -0.0435  0.5045
   58CHL1   H7A 5410   1.187   2.605   3.595  0.3369  0.2536 -0.8664
   58CHL1   H7B 5411   1.008   2.574   3.585 -0.1993 -1.2554  2.7564
   58CHL1    C8 5412   1.118   2.425   3.700 -0.2650  1.1709  0.0592
   58CHL1    H8 5413   1.224   2.390   3.706 -0.9745 -1.2423 -0.3696
   58CHL1   C14 5414   1.076   2.490   3.831 -0.0993 -0.7659 -0.0034
   58CHL1   H14 5415   0.967   2.507   3.818 -0.1187 -0.7124  0.2159
   58CHL1   C15 5416   1.148   2.614   3.874  0.2996  0.0143 -0.0127
   58CHL1  H15A 5417   1.258   2.610   3.869  0.2942  0.1951 -0.2789
   58CHL1  H15B 5418   1.136   2.701   3.805 -1.4187 -0.9877 -1.0534
   58CHL1   C16 5419   1.101   2.644   4.021 -0.1158  0.3341 -0.1761
   58CHL1  H16A 5420   1.189   2.651   4.088 -1.2686 -1.6271  1.6502
   58CHL1  H16B 5421   1.027   2.726   4.033  0.2514  0.4287  1.6475
   58CHL1   C17 5422   1.021   2.520   4.055 -0.0657  0.0304 -0.3154
   58CHL1   H17 5423   0.913   2.536   4.035 -0.3788 -0.1295  1.1026
   58CHL1   C13 5424   1.069   2.403   3.965  0.4449 -0.4787  0.4045
   58CHL1   C18 5425   1.217   2.364   4.006  0.3626 -0.1419 -0.1193
   58CHL1  H18A 5426   1.213   2.292   4.090  1.0820  0.9315  0.8716
   58CHL1  H18B 5427   1.263   2.320   3.915  0.4277  1.6071 -0.9898
   58CHL1  H18C 5428   1.273   2.454   4.041 -1.4522  1.0331 -0.1144
   58CHL1   C12 5429   0.990   2.272   3.941  0.1220  0.5760 -0.0546
   58CHL1  H12A 5430   0.999   2.203   4.028 -2.1409 -0.4733 -0.5629
   58CHL1  H12B 5431   0.879   2.277   3.930 -0.1319 -1.4681  0.9950
   58CHL1   C11 5432   1.037   2.208   3.806  0.1983 -0.2824  0.0034
   58CHL1  H11A 5433   1.139   2.167   3.820  1.3358  1.8265 -1.4634
   58CHL1  H11B 5434   0.960   2.131   3.785 -0.2701 -0.2413  1.4566
   58CHL1    C9 5435   1.029   2.304   3.679 -0.4408  0.3224 -0.2236
   58CHL1    H9 5436   0.920   2.326   3.679 -0.6394 -0.4599  1.7981
   58CHL1   C10 5437   1.060   2.233   3.545  0.0635  0.6899 -0.1141
   58CHL1   C19 5438   1.175   2.127   3.566 -0.3339 -0.3405  0.8582
   58CHL1  H19A 5439   1.204   2.078   3.471  0.2413  0.3342  0.6704
   58CHL1  H19B 5440   1.267   2.179   3.602 -1.1172  0.7691  1.2950
   58CHL1  H19C 5441   1.148   2.047   3.638 -2.9669 -1.5417 -1.2848
   58CHL1    C1 5442   0.932   2.148   3.497  0.4008 -0.5699 -0.0346
   58CHL1   H1A 5443   0.921   2.069   3.575 -0.6862  0.5120  0.9480
   58CHL1   H1B 5444   0.840   2.209   3.490  0.4604 -0.5652 -0.8294
   58CHL1    C2 5445   0.942   2.080   3.367  0.1073 -0.4116  0.1413
   58CHL1   H2A 5446   0.854   2.019   3.341  0.6967 -1.5027  0.6136
   58CHL1   H2B 5447   1.029   2.010   3.366  2.6639  2.5222 -1.2698
   58CHL1   C20 5448   1.027   2.488   4.202 -0.4394 -0.5219 -0.4363
   58CHL1   H20 5449   1.134   2.478   4.229  0.5906  0.3016 -3.7171
   58CHL1   C21 5450   0.947   2.356   4.226  0.0993 -0.6049 -0.5202
   58CHL1  H21A 5451   0.849   2.354   4.173  0.2919 -1.1990 -0.8681
   58CHL1  H21B 5452   0.927   2.354   4.335  1.4647 -2.2239 -0.2661
   58CHL1  H21C 5453   1.007   2.263   4.220  1.1427  0.0711 -0.8088
   58CHL1   C22 5454   0.961   2.606   4.287  0.0167 -0.2472  1.1611
   58CHL1  H22A 5455   0.986   2.702   4.237 -0.4101 -0.9870 -0.5704
   58CHL1  H22B 5456   0.852   2.585   4.286 -0.2150  0.5949 -1.7633
   58CHL1   C23 5457   0.997   2.594   4.430  0.4011  0.4635  0.6903
   58CHL1  H23A 5458   0.960   2.505   4.486 -0.7340  1.1079  0.9976
   58CHL1  H23B 5459   1.107   2.585   4.440  0.3404 -0.4980  0.6253
   58CHL1   C24 5460   0.944   2.715   4.512  0.1869 -0.4568 -0.0758
   58CHL1  H24A 5461   0.974   2.810   4.461 -0.4168 -0.4620 -0.4441
   58CHL1  H24B 5462   0.834   2.727   4.521  0.4877  2.1967  1.0524
   58CHL1   C25 5463   0.994   2.717   4.662 -0.3335  0.1456  0.6286
   58CHL1   H25 5464   1.096   2.675   4.655 -0.0301  1.0807 -1.9510
   58CHL1   C26 5465   0.998   2.857   4.709 -0.4852 -0.1218  0.3402
   58CHL1  H26A 5466   0.904   2.915   4.697 -0.3183  0.1651  0.4084
   58CHL1  H26B 5467   1.037   2.864   4.813 -1.1490  0.3392  0.5641
   58CHL1  H26C 5468   1.075   2.900   4.641 -1.6875 -0.1864 -1.1248
   58CHL1   C27 5469   0.912   2.625   4.751 -0.0652  0.0479 -0.2453
   58CHL1  H27A 5470   0.979   2.591   4.832 -0.2437  1.0947  0.3608
   58CHL1  H27B 5471   0.830   2.685   4.796 -0.9995  0.1445 -1.9954
   58CHL1  H27C 5472   0.871   2.531   4.707  1.8405 -1.7540  1.5732
   59CHL1    C3 5473   4.750   6.237   2.673  0.2630 -0.4711 -0.5840
   59CHL1    H3 5474   4.836   6.298   2.705 -1.2427  2.1019 -1.1737
   59CHL1    O3 5475   4.764   6.214   2.540 -0.0467  0.0379  0.1306
   59CHL1   H3' 5476   4.858   6.201   2.526  0.1511 -0.7564  1.9149
   59CHL1    C4 5477   4.759   6.096   2.740  0.4997 -0.5676 -0.2996
   59CHL1   H4A 5478   4.685   6.023   2.702  0.6568 -2.5647  2.8591
   59CHL1   H4B 5479   4.862   6.061   2.716  0.4022 -1.2654  0.2878
   59CHL1    C5 5480   4.737   6.105   2.888 -0.1741  0.5243 -0.8696
   59CHL1    C6 5481   4.833   6.042   2.967  0.8236  0.4972  0.8167
   59CHL1    H6 5482   4.912   5.987   2.915 -0.7568 -1.8800  0.7595
   59CHL1    C7 5483   4.816   6.036   3.118  0.1310 -0.4107 -0.4111
   59CHL1   H7A 5484   4.831   5.937   3.165 -1.4847  0.2955  1.7593
   59CHL1   H7B 5485   4.893   6.107   3.158  0.2758 -0.1025 -1.2166
   59CHL1    C8 5486   4.679   6.092   3.176  0.0191 -0.2127  0.4189
   59CHL1    H8 5487   4.601   6.013   3.166  0.3329 -0.4649 -0.1255
   59CHL1   C14 5488   4.699   6.130   3.322 -0.6819  0.4883  0.7548
   59CHL1   H14 5489   4.771   6.214   3.314 -1.3116  0.9373 -0.3215
   59CHL1   C15 5490   4.756   6.021   3.418  0.2362 -0.1875  0.2756
   59CHL1  H15A 5491   4.703   5.924   3.406 -0.0913 -0.1592  1.4295
   59CHL1  H15B 5492   4.865   5.997   3.414  0.2453 -0.5239  1.9502
   59CHL1   C16 5493   4.719   6.077   3.560 -0.1175  0.6691 -0.5644
   59CHL1  H16A 5494   4.659   6.000   3.613  0.5047 -0.1191 -0.9914
   59CHL1  H16B 5495   4.812   6.106   3.614 -0.8919  1.2806  0.4743
   59CHL1   C17 5496   4.636   6.205   3.537 -0.1432 -0.2167 -0.2847
   59CHL1   H17 5497   4.722   6.276   3.533  0.3359 -0.6202  1.5572
   59CHL1   C13 5498   4.577   6.191   3.395 -0.6116  0.5390  0.8415
   59CHL1   C18 5499   4.461   6.088   3.397 -0.2167  0.1212 -0.2554
   59CHL1  H18A 5500   4.372   6.141   3.438 -0.8943  0.6013 -2.1917
   59CHL1  H18B 5501   4.419   6.055   3.299  0.8536 -0.7151 -0.4448
   59CHL1  H18C 5502   4.498   6.000   3.452  2.2091  0.8273 -0.6613
   59CHL1   C12 5503   4.546   6.325   3.324  0.3488 -0.8990  0.4405
   59CHL1  H12A 5504   4.448   6.353   3.366 -0.1121  0.4699 -1.4389
   59CHL1  H12B 5505   4.624   6.402   3.341  0.6994 -1.4778  1.5185
   59CHL1   C11 5506   4.517   6.296   3.173 -0.5530  0.6185 -0.3917
   59CHL1  H11A 5507   4.431   6.225   3.171  0.5053 -0.9211  2.2434
   59CHL1  H11B 5508   4.491   6.393   3.128  1.2335  0.6159 -1.5296
   59CHL1    C9 5509   4.636   6.227   3.100  0.1011 -0.0831  0.0144
   59CHL1    H9 5510   4.728   6.289   3.105  1.8152 -2.4510 -0.1603
   59CHL1   C10 5511   4.620   6.193   2.952  0.3315 -0.5050  0.4301
   59CHL1   C19 5512   4.488   6.120   2.945  0.0784  0.4337  0.4197
   59CHL1  H19A 5513   4.482   6.029   3.009 -0.7762  0.1305 -0.0799
   59CHL1  H19B 5514   4.398   6.181   2.968  0.5221  0.4687  2.1899
   59CHL1  H19C 5515   4.468   6.081   2.843 -0.6010  0.9085  0.3710
   59CHL1    C1 5516   4.618   6.326   2.871 -0.6979  0.0250  0.6568
   59CHL1   H1A 5517   4.522   6.375   2.899 -1.3430 -0.9871  0.2747
   59CHL1   H1B 5518   4.703   6.391   2.903  0.7606 -1.2957 -0.4204
   59CHL1    C2 5519   4.625   6.312   2.713  0.3559 -0.2453 -0.1672
   59CHL1   H2A 5520   4.619   6.414   2.670  0.1137 -0.4171 -0.5518
   59CHL1   H2B 5521   4.536   6.254   2.679 -0.1698  0.0680  0.6418
   59CHL1   C20 5522   4.548   6.254   3.650 -0.2500  0.1922  0.1039
   59CHL1   H20 5523   4.444   6.262   3.614 -0.1865  1.3005  0.1544
   59CHL1   C21 5524   4.594   6.400   3.681  0.4879 -0.0625  0.6158
   59CHL1  H21A 5525   4.695   6.397   3.729  1.8334 -0.7002 -2.0815
   59CHL1  H21B 5526   4.527   6.454   3.752 -1.5020 -1.7133  0.0873
   59CHL1  H21C 5527   4.607   6.459   3.588  3.3237  0.2396  1.1217
   59CHL1   C22 5528   4.534   6.170   3.772  0.5072 -0.3206 -0.1365
   59CHL1  H22A 5529   4.491   6.071   3.745 -1.7039  0.5390  0.0130
   59CHL1  H22B 5530   4.628   6.148   3.826  0.5563  0.0061 -0.0915
   59CHL1   C23 5531   4.440   6.229   3.878  0.0185 -0.5165 -0.3367
   59CHL1  H23A 5532   4.478   6.313   3.940 -1.1393 -2.6974  3.6226
   59CHL1  H23B 5533   4.338   6.250   3.839 -0.4280 -5.2696 -2.3834
   59CHL1   C24 5534   4.387   6.117   3.972 -0.3428  0.1860 -0.8062
   59CHL1  H24A 5535   4.329   6.166   4.053  0.4644 -0.5998  0.2823
   59CHL1  H24B 5536   4.312   6.057   3.917  0.3525 -0.9549 -0.5404
   59CHL1   C25 5537   4.493   6.034   4.049  0.1881  0.9316  0.0791
   59CHL1   H25 5538   4.551   5.987   3.967 -1.1740 -1.2056  0.2644
   59CHL1   C26 5539   4.584   6.118   4.145 -0.0681  0.1473  0.0597
   59CHL1  H26A 5540   4.532   6.199   4.201 -0.4932  0.5234 -0.8478
   59CHL1  H26B 5541   4.634   6.052   4.218  0.6247  0.4577 -0.1301
   59CHL1  H26C 5542   4.649   6.180   4.080  1.0168 -1.5408 -0.5378
   59CHL1   C27 5543   4.434   5.918   4.132  0.2204  0.0417 -0.3586
   59CHL1  H27A 5544   4.517   5.873   4.190 -1.1793 -2.4425 -0.1642
   59CHL1  H27B 5545   4.361   5.953   4.207  0.9488  0.4392  0.1843
   59CHL1  H27C 5546   4.397   5.841   4.062  1.1263  0.5760 -1.4657
   60CHL1    C3 5547   1.379   0.134   3.131  0.2774 -0.5024  0.5216
   60CHL1    H3 5548   1.487   0.154   3.111 -0.0828 -0.8563 -2.0032
   60CHL1    O3 5549   1.310   0.140   3.008 -0.1951 -0.3056 -0.0349
   60CHL1   H3' 5550   1.329   0.221   2.961  0.3335 -2.0409 -3.0422
   60CHL1    C4 5551   1.339   0.004   3.202 -0.1010 -0.2351  0.1781
   60CHL1   H4A 5552   1.233  -0.022   3.181 -0.0439  0.7244 -1.5212
   60CHL1   H4B 5553   1.388  -0.069   3.134 -1.3803 -0.2423 -0.7669
   60CHL1    C5 5554   1.384   0.000   3.349  0.2710  0.2448  0.8283
   60CHL1    C6 5555   1.452  -0.107   3.398 -0.3746  0.7192  0.3654
   60CHL1    H6 5556   1.482  -0.186   3.327  1.0326  0.2149  1.4604
   60CHL1    C7 5557   1.483  -0.127   3.538  0.0443  0.2675  0.3792
   60CHL1   H7A 5558   1.460  -0.232   3.566  4.3330 -0.9252  0.1387
   60CHL1   H7B 5559   1.591  -0.109   3.557 -0.1696  1.6904  0.3374
   60CHL1    C8 5560   1.417  -0.024   3.635  0.4443 -0.0295 -0.5772
   60CHL1    H8 5561   1.312  -0.059   3.648  0.7358 -1.0994 -0.9323
   60CHL1   C14 5562   1.473  -0.019   3.773  0.9921  0.6121 -0.2537
   60CHL1   H14 5563   1.579   0.012   3.764  1.1810  0.1435  0.3240
   60CHL1   C15 5564   1.463  -0.155   3.851  0.1382  0.1364  0.8662
   60CHL1  H15A 5565   1.362  -0.201   3.844 -1.0805  2.4004  2.4254
   60CHL1  H15B 5566   1.542  -0.227   3.819 -1.5095 -2.2054  1.7974
   60CHL1   C16 5567   1.499  -0.110   3.990  0.1327 -0.1192  0.2383
   60CHL1  H16A 5568   1.441  -0.168   4.065  0.0355  0.8942  0.9649
   60CHL1  H16B 5569   1.603  -0.131   4.023 -0.4579 -0.7177  1.8175
   60CHL1   C17 5570   1.494   0.044   3.998  0.4616  0.0220 -0.2193
   60CHL1   H17 5571   1.596   0.088   3.987  0.2178  1.3372  2.2044
   60CHL1   C13 5572   1.410   0.081   3.869  0.3400  0.1245  0.1626
   60CHL1   C18 5573   1.261   0.053   3.893 -0.6558  0.0284  0.2619
   60CHL1  H18A 5574   1.205   0.061   3.798 -0.2553 -2.4606 -0.2583
   60CHL1  H18B 5575   1.240  -0.049   3.933 -0.4256 -0.7250 -1.4847
   60CHL1  H18C 5576   1.218   0.123   3.968 -1.3609 -0.3681  0.2285
   60CHL1   C12 5577   1.437   0.219   3.809 -0.1989 -0.5181 -0.0551
   60CHL1  H12A 5578   1.399   0.298   3.877  1.8291  0.0212  0.5152
   60CHL1  H12B 5579   1.547   0.228   3.798 -0.0852 -1.7126 -0.0551
   60CHL1   C11 5580   1.376   0.231   3.671 -0.9265  0.5133  0.3726
   60CHL1  H11A 5581   1.265   0.234   3.679 -0.9811 -0.4427  0.0101
   60CHL1  H11B 5582   1.420   0.326   3.635  2.0608 -0.7679  0.3785
   60CHL1    C9 5583   1.418   0.119   3.571 -0.2757 -0.1997  0.1536
   60CHL1    H9 5584   1.525   0.143   3.552 -0.5113  0.9754  0.2431
   60CHL1   C10 5585   1.346   0.120   3.434  0.4812  0.2972  0.3475
   60CHL1   C19 5586   1.189   0.104   3.446 -0.0889  0.6138 -0.0126
   60CHL1  H19A 5587   1.133   0.098   3.350 -2.6554  0.6285  1.3752
   60CHL1  H19B 5588   1.172   0.001   3.485  0.7635  0.9823  1.3980
   60CHL1  H19C 5589   1.134   0.189   3.492  0.9721  0.6037  1.3363
   60CHL1    C1 5590   1.381   0.254   3.359 -0.0704 -0.4947 -0.4827
   60CHL1   H1A 5591   1.328   0.341   3.404  2.8214  1.3102 -0.3348
   60CHL1   H1B 5592   1.489   0.277   3.362  0.1522 -0.9292 -3.0788
   60CHL1    C2 5593   1.329   0.253   3.212 -0.1889  0.4909  0.3801
   60CHL1   H2A 5594   1.364   0.343   3.156 -0.7287  0.4303 -0.0574
   60CHL1   H2B 5595   1.220   0.261   3.230 -0.4639  1.4692 -1.4704
   60CHL1   C20 5596   1.456   0.098   4.143 -0.3818  0.1115 -0.2631
   60CHL1   H20 5597   1.362   0.043   4.165 -1.2427  0.5840 -2.4543
   60CHL1   C21 5598   1.449   0.256   4.148 -0.4268  0.0279  0.5201
   60CHL1  H21A 5599   1.547   0.293   4.112  0.3478 -1.4003  1.0615
   60CHL1  H21B 5600   1.438   0.288   4.253  0.6649  1.6202  0.1800
   60CHL1  H21C 5601   1.373   0.298   4.078  0.5560  0.0178 -0.5935
   60CHL1   C22 5602   1.549   0.047   4.260  0.0286  0.3712 -0.2620
   60CHL1  H22A 5603   1.562  -0.060   4.233  1.2925  0.6361 -0.7546
   60CHL1  H22B 5604   1.645   0.102   4.255 -0.1036  0.4972 -1.7307
   60CHL1   C23 5605   1.483   0.073   4.399 -0.1195 -0.6081 -0.5360
   60CHL1  H23A 5606   1.491   0.180   4.427 -0.6940 -0.8235  0.4893
   60CHL1  H23B 5607   1.373   0.064   4.395 -0.3172  1.6830 -2.5348
   60CHL1   C24 5608   1.560  -0.014   4.502 -0.3118  0.4209 -0.1156
   60CHL1  H24A 5609   1.525   0.018   4.602  1.0168  1.0328  0.1847
   60CHL1  H24B 5610   1.533  -0.118   4.474  1.4860  0.3706 -1.8961
   60CHL1   C25 5611   1.715   0.007   4.503 -0.0123  0.2862 -0.3354
   60CHL1   H25 5612   1.757  -0.006   4.401  0.5913  0.4953 -0.1139
   60CHL1   C26 5613   1.743   0.157   4.528  0.3343  0.0151  0.3293
   60CHL1  H26A 5614   1.691   0.187   4.621 -0.6930 -0.9952  0.1091
   60CHL1  H26B 5615   1.853   0.171   4.533  0.4363 -0.7370  0.2618
   60CHL1  H26C 5616   1.706   0.220   4.444  0.8423  1.1750  0.9552
   60CHL1   C27 5617   1.784  -0.096   4.595 -0.3797  0.3618  0.0631
   60CHL1  H27A 5618   1.892  -0.107   4.573 -0.7224 -1.6541 -0.9534
   60CHL1  H27B 5619   1.765  -0.072   4.702  0.7815  0.7895  0.1815
   60CHL1  H27C 5620   1.737  -0.197   4.586 -0.0080  0.1897  0.0205
   61CHL1    C3 5621   2.575   2.914   3.066  0.2970  0.0764  0.0913
   61CHL1    H3 5622   2.627   2.816   3.062 -0.9787 -0.6594  0.8353
   61CHL1    O3 5623   2.581   2.971   2.935 -0.0125 -0.1516  0.1152
   61CHL1   H3' 5624   2.502   3.023   2.917  0.1981  0.6158  1.2933
   61CHL1    C4 5625   2.439   2.897   3.121 -0.0611  0.3294 -0.8988
   61CHL1   H4A 5626   2.390   2.997   3.116 -0.5849  0.1629  0.4587
   61CHL1   H4B 5627   2.377   2.828   3.060 -2.4470  0.0473  1.6526
   61CHL1    C5 5628   2.428   2.842   3.261 -0.7669  0.3474 -0.7854
   61CHL1    C6 5629   2.350   2.735   3.299  0.0782 -0.7364  0.5032
   61CHL1    H6 5630   2.296   2.676   3.223  0.2185  3.3573 -3.2337
   61CHL1    C7 5631   2.338   2.684   3.437 -0.5053  0.0618  0.1822
   61CHL1   H7A 5632   2.229   2.687   3.460 -0.4989 -1.2278  0.4151
   61CHL1   H7B 5633   2.353   2.574   3.436 -2.4387 -0.2463  0.5440
   61CHL1    C8 5634   2.408   2.771   3.544 -0.0744  0.3834 -0.3635
   61CHL1    H8 5635   2.337   2.852   3.568  0.8683  1.7294 -1.9298
   61CHL1   C14 5636   2.445   2.686   3.678 -0.6453  0.2195  0.7531
   61CHL1   H14 5637   2.516   2.608   3.645 -0.7267  0.9453 -1.2465
   61CHL1   C15 5638   2.343   2.596   3.740 -0.5749 -0.3262  0.0891
   61CHL1  H15A 5639   2.247   2.652   3.751 -2.6268 -3.1241 -2.0641
   61CHL1  H15B 5640   2.336   2.510   3.670 -1.6657  0.1676 -0.4333
   61CHL1   C16 5641   2.405   2.560   3.873  0.4348  0.3333 -0.1925
   61CHL1  H16A 5642   2.347   2.602   3.957  0.3726  0.8801 -0.5070
   61CHL1  H16B 5643   2.411   2.449   3.883  0.0534  0.4188  1.1593
   61CHL1   C17 5644   2.539   2.635   3.881 -0.4304  0.1628  0.4994
   61CHL1   H17 5645   2.628   2.576   3.849  1.2580  2.3176  0.9679
   61CHL1   C13 5646   2.515   2.758   3.784 -0.4911  0.3247  0.3975
   61CHL1   C18 5647   2.409   2.846   3.854  0.2677  0.2807  0.5912
   61CHL1  H18A 5648   2.340   2.788   3.919  0.3642 -0.6186 -0.0977
   61CHL1  H18B 5649   2.455   2.926   3.916 -0.7978  1.9815 -0.7283
   61CHL1  H18C 5650   2.358   2.909   3.778  2.0271 -0.9296 -1.7046
   61CHL1   C12 5651   2.641   2.830   3.730  0.6129  1.0475 -0.1366
   61CHL1  H12A 5652   2.694   2.899   3.799 -0.4159  0.6770  1.0436
   61CHL1  H12B 5653   2.718   2.756   3.698 -2.5455 -2.2196 -0.7508
   61CHL1   C11 5654   2.608   2.913   3.606 -0.2468  0.7208  0.3578
   61CHL1  H11A 5655   2.541   2.992   3.645 -0.0045  0.5780  1.0879
   61CHL1  H11B 5656   2.705   2.957   3.571  0.5861  1.5153  3.3555
   61CHL1    C9 5657   2.536   2.839   3.490  0.2422  0.1961  0.5759
   61CHL1    H9 5658   2.610   2.760   3.464  0.8315  0.4764  1.3562
   61CHL1   C10 5659   2.516   2.921   3.364 -0.6236 -0.2745 -0.0424
   61CHL1   C19 5660   2.454   3.049   3.409 -1.0574 -0.4022 -0.0394
   61CHL1  H19A 5661   2.420   3.121   3.331 -0.7342  0.0549  0.2374
   61CHL1  H19B 5662   2.371   3.030   3.480  0.4333  0.1169  1.9337
   61CHL1  H19C 5663   2.533   3.108   3.460 -0.1068 -0.5132 -1.3426
   61CHL1    C1 5664   2.653   2.936   3.300  1.4286 -0.4162  0.3122
   61CHL1   H1A 5665   2.712   3.002   3.368 -0.8779  1.5320  0.5496
   61CHL1   H1B 5666   2.697   2.835   3.292 -0.7520 -1.4610  0.8155
   61CHL1    C2 5667   2.652   3.006   3.160 -0.3597 -0.6158  0.5182
   61CHL1   H2A 5668   2.758   3.027   3.134 -0.2507 -1.0509  0.6124
   61CHL1   H2B 5669   2.602   3.104   3.175  1.6969  0.6296 -0.3937
   61CHL1   C20 5670   2.579   2.668   4.025  1.1757 -0.6300 -1.4069
   61CHL1   H20 5671   2.509   2.740   4.073  0.9349 -1.5418 -0.3528
   61CHL1   C21 5672   2.715   2.739   4.035 -0.2882 -0.2909  0.1708
   61CHL1  H21A 5673   2.790   2.695   3.965 -0.6734  0.1010 -0.5016
   61CHL1  H21B 5674   2.763   2.752   4.134  1.8701  0.2514 -0.8820
   61CHL1  H21C 5675   2.695   2.843   4.005 -0.7345  0.8612  3.9222
   61CHL1   C22 5676   2.572   2.540   4.116 -0.0371 -0.0715 -0.1814
   61CHL1  H22A 5677   2.477   2.485   4.101 -0.3669 -0.5057  2.9409
   61CHL1  H22B 5678   2.650   2.469   4.081  2.1554  1.9589  0.3244
   61CHL1   C23 5679   2.570   2.562   4.273 -0.0137 -0.6524  0.2500
   61CHL1  H23A 5680   2.581   2.464   4.324  1.8564 -0.8636 -0.4913
   61CHL1  H23B 5681   2.653   2.623   4.313 -0.8990  1.4692 -0.9610
   61CHL1   C24 5682   2.447   2.634   4.323 -0.1969  0.0635 -0.1268
   61CHL1  H24A 5683   2.427   2.722   4.259  0.5659  0.6008  0.3577
   61CHL1  H24B 5684   2.365   2.559   4.325  1.4022 -1.7641  0.6797
   61CHL1   C25 5685   2.456   2.691   4.464  1.0654  0.0021 -0.0281
   61CHL1   H25 5686   2.558   2.735   4.477 -0.0900  2.7084  0.6566
   61CHL1   C26 5687   2.356   2.810   4.471  0.8589 -0.1774 -0.2882
   61CHL1  H26A 5688   2.252   2.772   4.477  1.3919 -1.5208  0.9872
   61CHL1  H26B 5689   2.369   2.868   4.565 -0.5034  1.4753 -1.0544
   61CHL1  H26C 5690   2.367   2.889   4.392 -2.2333  2.9791  2.1119
   61CHL1   C27 5691   2.427   2.591   4.577  0.4081  0.1213 -0.3451
   61CHL1  H27A 5692   2.329   2.545   4.555  1.1583 -1.6167 -0.1839
   61CHL1  H27B 5693   2.498   2.506   4.575 -1.6781 -1.6844 -1.9343
   61CHL1  H27C 5694   2.430   2.646   4.674  0.0799  1.5481 -1.1200
   62CHL1    C3 5695   3.866   1.201   2.563  0.0621 -0.2037 -1.2813
   62CHL1    H3 5696   3.759   1.182   2.585 -0.2135  0.9301 -1.5941
   62CHL1    O3 5697   3.895   1.236   2.428  0.2664 -0.4156  0.3530
   62CHL1   H3' 5698   3.989   1.256   2.419  0.7711 -2.4346  0.5487
   62CHL1    C4 5699   3.921   1.321   2.647  0.4970 -0.2726  0.0844
   62CHL1   H4A 5700   4.018   1.352   2.604 -0.6647  1.1475 -1.7053
   62CHL1   H4B 5701   3.856   1.406   2.616  0.0480 -1.1649 -1.5356
   62CHL1    C5 5702   3.917   1.305   2.799 -0.1958 -0.6156  0.6854
   62CHL1    C6 5703   3.869   1.401   2.881  0.0654 -0.0023  0.2723
   62CHL1    H6 5704   3.827   1.492   2.837 -0.4233  0.2882  1.3054
   62CHL1    C7 5705   3.864   1.399   3.035  0.3058 -0.5372  0.3248
   62CHL1   H7A 5706   3.915   1.486   3.082  0.3712 -1.1131  1.3510
   62CHL1   H7B 5707   3.765   1.391   3.085  0.7070  1.0427  1.4493
   62CHL1    C8 5708   3.946   1.283   3.090 -0.3612  0.1456  0.1017
   62CHL1    H8 5709   4.051   1.314   3.075  0.0269 -0.6765  1.0277
   62CHL1   C14 5710   3.925   1.262   3.234  0.0032 -0.1124  0.6089
   62CHL1   H14 5711   3.817   1.239   3.251  0.5491 -1.6339  2.2829
   62CHL1   C15 5712   3.961   1.381   3.328 -0.1567 -0.3845 -0.5950
   62CHL1  H15A 5713   4.065   1.414   3.306  1.0727 -3.5901 -0.1597
   62CHL1  H15B 5714   3.886   1.462   3.335 -1.9349 -2.0515  1.0213
   62CHL1   C16 5715   3.956   1.309   3.471 -0.7425 -0.7851 -0.2467
   62CHL1  H16A 5716   4.052   1.330   3.522 -0.1881 -2.4452 -0.5394
   62CHL1  H16B 5717   3.868   1.346   3.528 -0.0891 -2.7612  2.2123
   62CHL1   C17 5718   3.948   1.159   3.439 -0.0961 -1.0196  0.5003
   62CHL1   H17 5719   3.840   1.134   3.442 -0.6648  0.7698 -2.1577
   62CHL1   C13 5720   3.988   1.138   3.295 -0.3123 -0.7180  0.6774
   62CHL1   C18 5721   4.142   1.139   3.287 -0.1340 -0.1981 -0.4009
   62CHL1  H18A 5722   4.188   1.224   3.342  1.8110 -0.5507 -1.4000
   62CHL1  H18B 5723   4.185   1.047   3.330  0.6997  0.9087  1.2505
   62CHL1  H18C 5724   4.179   1.150   3.183 -1.2022  2.2582 -0.6011
   62CHL1   C12 5725   3.930   1.017   3.224  0.0269 -0.0848  0.3901
   62CHL1  H12A 5726   3.974   0.921   3.258 -3.1437 -1.5348  0.7793
   62CHL1  H12B 5727   3.820   1.017   3.241 -0.0354  0.6838 -0.0006
   62CHL1   C11 5728   3.957   1.025   3.070  0.1920 -0.0146  0.1527
   62CHL1  H11A 5729   4.062   0.996   3.048 -0.0848  0.1334 -1.4476
   62CHL1  H11B 5730   3.896   0.945   3.024 -0.8223  0.6199  0.3616
   62CHL1    C9 5731   3.918   1.157   3.001  0.6904 -0.1049 -0.1957
   62CHL1    H9 5732   3.808   1.157   2.991  0.2304  1.8231  3.2784
   62CHL1   C10 5733   3.970   1.170   2.851  0.5720 -0.2672  0.0515
   62CHL1   C19 5734   4.116   1.157   2.847 -0.2375  0.0584  0.3035
   62CHL1  H19A 5735   4.170   1.190   2.756 -1.5661  2.9223  0.4406
   62CHL1  H19B 5736   4.172   1.224   2.916 -1.7665 -0.0985  1.7749
   62CHL1  H19C 5737   4.147   1.053   2.870  2.2700  1.1601  2.3841
   62CHL1    C1 5738   3.920   1.048   2.758  0.4228  0.4056  0.2961
   62CHL1   H1A 5739   3.986   0.967   2.796  0.8925  0.0284 -1.2535
   62CHL1   H1B 5740   3.816   1.023   2.790 -0.1100  0.8570 -1.0211
   62CHL1    C2 5741   3.934   1.070   2.606 -0.3484 -0.2176 -0.2078
   62CHL1   H2A 5742   3.891   0.984   2.550  0.4130 -2.7383  2.7529
   62CHL1   H2B 5743   4.040   1.084   2.575 -0.4432  2.3473  0.4664
   62CHL1   C20 5744   4.014   1.085   3.557  0.1496 -0.0511 -0.6223
   62CHL1   H20 5745   4.125   1.087   3.552  0.2462  0.6297  1.0884
   62CHL1   C21 5746   3.984   0.935   3.558 -0.2594 -0.6860  0.1933
   62CHL1  H21A 5747   3.877   0.912   3.575  0.0217 -0.6850  2.1463
   62CHL1  H21B 5748   4.043   0.883   3.636 -0.7259 -1.1508  0.2350
   62CHL1  H21C 5749   4.018   0.895   3.459  2.6544  0.6642  0.5297
   62CHL1   C22 5750   3.967   1.145   3.690  0.2225 -0.2320  0.7408
   62CHL1  H22A 5751   4.020   1.242   3.704  0.6864 -0.0929 -1.6987
   62CHL1  H22B 5752   3.859   1.168   3.674  0.5470  1.2282  0.5885
   62CHL1   C23 5753   3.994   1.067   3.810  0.2446  0.0307 -0.0593
   62CHL1  H23A 5754   3.929   0.977   3.811 -0.1043  0.2773  0.5377
   62CHL1  H23B 5755   4.102   1.043   3.804 -0.1139 -1.2660 -2.3264
   62CHL1   C24 5756   3.952   1.158   3.930  0.2749 -0.3539 -0.1952
   62CHL1  H24A 5757   4.011   1.252   3.929  0.7037 -0.5870  1.1117
   62CHL1  H24B 5758   3.845   1.184   3.920 -0.1698 -1.9008  0.2015
   62CHL1   C25 5759   3.984   1.091   4.065 -0.6205 -0.2458 -0.5182
   62CHL1   H25 5760   3.951   0.986   4.050 -2.2580  0.3456 -1.3335
   62CHL1   C26 5761   4.143   1.090   4.077  0.0579  0.1873  0.4827
   62CHL1  H26A 5762   4.173   1.196   4.065  1.8821 -0.0814  2.1137
   62CHL1  H26B 5763   4.160   1.059   4.182 -2.2985  0.4695  1.0087
   62CHL1  H26C 5764   4.204   1.023   4.013 -0.2893 -1.4971  1.8361
   62CHL1   C27 5765   3.916   1.150   4.190  0.0152  0.0539  0.1411
   62CHL1  H27A 5766   3.950   1.255   4.199  0.8558 -0.2683  0.9010
   62CHL1  H27B 5767   3.805   1.160   4.188  0.1869  2.4319 -1.9529
   62CHL1  H27C 5768   3.945   1.095   4.283  0.3981 -0.7827 -0.4555
   63CHL1    C3 5769   0.222   0.129   2.870  0.1226  0.1038 -0.2297
   63CHL1    H3 5770   0.158   0.039   2.882  1.0782 -0.5213  0.2603
   63CHL1    O3 5771   0.249   0.166   2.738 -0.0703 -0.0519 -0.2729
   63CHL1   H3' 5772   0.288   0.254   2.732 -1.5031  0.5856 -0.7821
   63CHL1    C4 5773   0.140   0.243   2.932 -0.5653  0.0232  0.2093
   63CHL1   H4A 5774   0.194   0.338   2.908 -0.7325  0.5517  1.7773
   63CHL1   H4B 5775   0.042   0.243   2.879 -0.9620 -1.6171  0.8907
   63CHL1    C5 5776   0.117   0.238   3.078  0.7130  0.3948 -0.0463
   63CHL1    C6 5777   0.002   0.269   3.130  0.7589 -0.1617 -0.2237
   63CHL1    H6 5778  -0.080   0.302   3.065  1.4082 -0.8381 -1.4218
   63CHL1    C7 5779  -0.031   0.272   3.281 -1.3590  0.0167 -0.2058
   63CHL1   H7A 5780  -0.100   0.356   3.303 -0.4724  0.4873  0.8770
   63CHL1   H7B 5781  -0.086   0.183   3.318 -1.7974  0.8025  1.0889
   63CHL1    C8 5782   0.096   0.285   3.365  0.3080 -0.6957  0.1033
   63CHL1    H8 5783   0.127   0.392   3.363 -0.0574 -0.4991  2.3163
   63CHL1   C14 5784   0.069   0.251   3.515 -0.2837  0.2810 -0.0371
   63CHL1   H14 5785   0.044   0.145   3.532 -0.4536  0.3805  0.3382
   63CHL1   C15 5786  -0.051   0.316   3.583  0.5706 -0.0426 -0.6915
   63CHL1  H15A 5787  -0.053   0.426   3.567  1.0518  0.5702  2.7095
   63CHL1  H15B 5788  -0.148   0.266   3.562  0.8767 -2.2462  2.5437
   63CHL1   C16 5789  -0.027   0.304   3.733  0.0504  0.1280 -0.0418
   63CHL1  H16A 5790  -0.054   0.404   3.772 -0.7259 -0.3640  0.6884
   63CHL1  H16B 5791  -0.081   0.219   3.779  1.9276 -1.2926 -0.3291
   63CHL1   C17 5792   0.120   0.261   3.743 -0.4909 -0.2663 -0.3431
   63CHL1   H17 5793   0.130   0.154   3.769  0.7418  0.0870  0.7606
   63CHL1   C13 5794   0.191   0.270   3.605 -0.1150 -0.2045  0.8494
   63CHL1   C18 5795   0.242   0.419   3.587 -0.1088  0.1083  0.2589
   63CHL1  H18A 5796   0.156   0.489   3.595 -1.5288 -1.6001  0.5973
   63CHL1  H18B 5797   0.317   0.445   3.665 -0.3490  2.5597 -0.2536
   63CHL1  H18C 5798   0.289   0.435   3.488 -0.6821  0.0393 -0.0309
   63CHL1   C12 5799   0.294   0.167   3.566 -0.3204 -0.2874 -0.1957
   63CHL1  H12A 5800   0.384   0.186   3.628 -0.6286 -0.8228  0.4220
   63CHL1  H12B 5801   0.260   0.063   3.581  2.1767 -1.3822 -1.4030
   63CHL1   C11 5802   0.328   0.187   3.420  0.0463 -0.3383  0.1398
   63CHL1  H11A 5803   0.388   0.281   3.421 -2.3573  1.2996  1.4935
   63CHL1  H11B 5804   0.388   0.105   3.376  0.0720 -0.6476  0.7331
   63CHL1    C9 5805   0.205   0.188   3.321 -0.6153 -0.2411 -0.3561
   63CHL1    H9 5806   0.164   0.085   3.332 -1.2233  0.0942  0.5713
   63CHL1   C10 5807   0.239   0.214   3.164 -0.1595 -0.5808 -0.9563
   63CHL1   C19 5808   0.326   0.336   3.158  0.6136 -0.0857 -0.1990
   63CHL1  H19A 5809   0.288   0.409   3.233  0.9495  0.6557 -0.7357
   63CHL1  H19B 5810   0.430   0.316   3.190  0.3713 -0.6113  0.2675
   63CHL1  H19C 5811   0.341   0.372   3.054  0.4977  0.3330 -0.0742
   63CHL1    C1 5812   0.313   0.092   3.105 -0.3347 -0.2129  0.0896
   63CHL1   H1A 5813   0.409   0.085   3.160  0.5823  0.4096 -1.3713
   63CHL1   H1B 5814   0.252   0.003   3.132  1.4256 -1.2843  0.6483
   63CHL1    C2 5815   0.340   0.089   2.949  0.0806 -0.5595 -0.2548
   63CHL1   H2A 5816   0.389  -0.005   2.918  0.3700 -0.8113  0.9215
   63CHL1   H2B 5817   0.413   0.172   2.938 -2.3182  1.8190  0.5117
   63CHL1   C20 5818   0.187   0.333   3.861 -0.0157  0.1902 -0.3979
   63CHL1   H20 5819   0.194   0.441   3.839 -0.7706  0.3517  0.1348
   63CHL1   C21 5820   0.333   0.275   3.885 -0.5413  0.3294 -0.4225
   63CHL1  H21A 5821   0.402   0.297   3.801 -1.0025  2.4355 -0.2943
   63CHL1  H21B 5822   0.325   0.165   3.897  1.5128  0.1939 -0.0818
   63CHL1  H21C 5823   0.385   0.315   3.974  0.7592 -0.1098 -0.9685
   63CHL1   C22 5824   0.101   0.320   3.994  0.2874 -0.4437 -0.3201
   63CHL1  H22A 5825   0.030   0.405   4.002 -0.0888 -0.7886  0.0650
   63CHL1  H22B 5826   0.049   0.221   3.989 -2.8585  1.0980 -1.0418
   63CHL1   C23 5827   0.174   0.312   4.129  0.1027  0.3456  0.7019
   63CHL1  H23A 5828   0.240   0.223   4.134 -1.3973 -0.8855 -0.5195
   63CHL1  H23B 5829   0.233   0.406   4.142  0.9093 -0.0973  0.3194
   63CHL1   C24 5830   0.077   0.309   4.246 -0.8630  0.3091  0.5549
   63CHL1  H24A 5831  -0.025   0.337   4.211 -1.4478 -2.3547 -0.0838
   63CHL1  H24B 5832   0.080   0.207   4.288 -0.2039 -0.9519 -2.3092
   63CHL1   C25 5833   0.119   0.396   4.361 -0.1103 -0.2447 -0.9752
   63CHL1   H25 5834   0.140   0.494   4.313 -2.0371  0.2194 -0.9445
   63CHL1   C26 5835   0.014   0.408   4.472 -0.4683  0.1919  0.0208
   63CHL1  H26A 5836  -0.010   0.306   4.511  1.7412 -0.6449 -0.6420
   63CHL1  H26B 5837   0.048   0.482   4.547 -0.7281  1.6233 -1.2425
   63CHL1  H26C 5838  -0.081   0.446   4.428 -0.0808  0.0855 -0.9337
   63CHL1   C27 5839   0.256   0.344   4.423  0.6727  0.0969 -0.4163
   63CHL1  H27A 5840   0.245   0.251   4.483  0.9797 -0.4997 -1.2554
   63CHL1  H27B 5841   0.329   0.325   4.341 -0.2926  1.2734 -1.5925
   63CHL1  H27C 5842   0.307   0.411   4.495 -1.6645  0.8553  0.6381
   64CHL1    C3 5843   6.098   2.236   3.281  0.0195  0.3029 -0.0625
   64CHL1    H3 5844   6.074   2.344   3.293 -0.0779  0.3075 -0.2949
   64CHL1    O3 5845   6.160   2.212   3.158  0.5252  0.0485  0.0162
   64CHL1   H3' 5846   6.081   2.200   3.104 -0.9792  0.0494  2.0685
   64CHL1    C4 5847   6.203   2.196   3.382  0.2069  0.3204  0.2760
   64CHL1   H4A 5848   6.229   2.092   3.352 -1.3113  0.0404 -0.1411
   64CHL1   H4B 5849   6.294   2.257   3.360 -1.8004  4.0943  1.5376
   64CHL1    C5 5850   6.153   2.216   3.522  0.3168 -0.6347 -0.1458
   64CHL1    C6 5851   6.215   2.305   3.600 -0.1602  0.8198  0.2202
   64CHL1    H6 5852   6.311   2.345   3.563  0.9790 -1.3962  0.6150
   64CHL1    C7 5853   6.178   2.321   3.743  0.6910 -0.7373  0.1175
   64CHL1   H7A 5854   6.273   2.323   3.800 -0.0249  1.5900  1.3598
   64CHL1   H7B 5855   6.124   2.418   3.753  0.9763 -0.5869  0.2211
   64CHL1    C8 5856   6.086   2.210   3.795 -0.3664 -0.1330 -1.1239
   64CHL1    H8 5857   6.155   2.124   3.812 -1.8558 -0.9005  1.7860
   64CHL1   C14 5858   6.030   2.243   3.934  0.0644 -0.2869 -0.3880
   64CHL1   H14 5859   5.956   2.325   3.919 -0.8361 -1.2561 -1.4215
   64CHL1   C15 5860   6.130   2.302   4.036  0.3930  1.2705 -0.5914
   64CHL1  H15A 5861   6.210   2.228   4.056 -0.3189 -0.0792 -2.5333
   64CHL1  H15B 5862   6.182   2.393   3.999  2.0375  0.7130  0.2297
   64CHL1   C16 5863   6.041   2.314   4.159  0.8839  0.3888  0.7234
   64CHL1  H16A 5864   6.097   2.271   4.244  0.6089 -1.3074  0.0815
   64CHL1  H16B 5865   6.002   2.417   4.176  1.2761  0.2394  2.7275
   64CHL1   C17 5866   5.913   2.224   4.133  0.1736 -0.3828  0.2921
   64CHL1   H17 5867   5.834   2.297   4.107  1.0264  0.6811  0.5876
   64CHL1   C13 5868   5.941   2.142   4.005 -0.8915 -0.0890  0.1017
   64CHL1   C18 5869   6.025   2.012   4.031  1.0080 -0.0577 -0.1662
   64CHL1  H18A 5870   6.102   2.028   4.109 -1.5139 -2.1579  3.0386
   64CHL1  H18B 5871   5.969   1.927   4.076  1.8589 -1.3928 -1.5518
   64CHL1  H18C 5872   6.050   1.977   3.929 -0.9145  0.0299 -0.7042
   64CHL1   C12 5873   5.825   2.114   3.910  0.7174  0.1629  0.3737
   64CHL1  H12A 5874   5.754   2.033   3.937  1.4325 -0.2480  1.0491
   64CHL1  H12B 5875   5.776   2.214   3.914  0.8695  0.2704 -0.3428
   64CHL1   C11 5876   5.875   2.082   3.762  0.4117 -0.0630  0.3132
   64CHL1  H11A 5877   5.915   1.978   3.769  3.2486  0.8088 -1.3054
   64CHL1  H11B 5878   5.789   2.082   3.692  0.5406  1.4260  0.1227
   64CHL1    C9 5879   5.972   2.181   3.702  0.1847  0.7345  0.3597
   64CHL1    H9 5880   5.921   2.280   3.703 -0.0842  0.5963  0.2209
   64CHL1   C10 5881   6.024   2.138   3.554 -0.3148 -0.9313 -0.2236
   64CHL1   C19 5882   6.057   1.987   3.562  0.6917 -0.5101 -0.1392
   64CHL1  H19A 5883   5.958   1.935   3.561 -0.0160  0.7982 -1.1780
   64CHL1  H19B 5884   6.112   1.958   3.470  1.1611  0.2481 -0.1044
   64CHL1  H19C 5885   6.096   1.951   3.659 -0.7804  0.8733  1.0229
   64CHL1    C1 5886   5.917   2.177   3.443  0.0819  0.3894  0.3023
   64CHL1   H1A 5887   5.826   2.116   3.454  0.1811 -0.1951 -1.6726
   64CHL1   H1B 5888   5.887   2.284   3.455 -0.3734  0.1750  1.1116
   64CHL1    C2 5889   5.972   2.156   3.301 -0.2285  0.1623  0.6603
   64CHL1   H2A 5890   5.902   2.184   3.220 -0.7191  0.1097  1.0563
   64CHL1   H2B 5891   5.998   2.048   3.291 -0.7699 -0.1659  2.3942
   64CHL1   C20 5892   5.857   2.154   4.255  0.1148  0.0713 -0.4948
   64CHL1   H20 5893   5.939   2.083   4.277  0.2941  0.2386 -0.6231
   64CHL1   C21 5894   5.714   2.088   4.234 -0.1370  0.1929 -0.5369
   64CHL1  H21A 5895   5.682   2.037   4.327 -3.5445  2.3858 -0.3235
   64CHL1  H21B 5896   5.700   2.020   4.148 -2.8634  0.2024 -0.1765
   64CHL1  H21C 5897   5.647   2.176   4.219 -0.3430  0.2325  0.5520
   64CHL1   C22 5898   5.846   2.257   4.372  0.5313  0.1586 -0.6833
   64CHL1  H22A 5899   5.934   2.324   4.387  1.8457 -1.7522  0.5031
   64CHL1  H22B 5900   5.751   2.307   4.344  0.0272 -0.5269 -0.2110
   64CHL1   C23 5901   5.824   2.196   4.516  0.3239  0.8656 -0.0515
   64CHL1  H23A 5902   5.809   2.286   4.579  0.7125  1.1203 -0.3188
   64CHL1  H23B 5903   5.736   2.129   4.525  1.1173  0.0184  2.0998
   64CHL1   C24 5904   5.941   2.115   4.587 -0.3582  0.3995  0.2591
   64CHL1  H24A 5905   5.936   2.012   4.545 -1.8185  0.4797  0.1702
   64CHL1  H24B 5906   6.039   2.157   4.559 -0.0327 -1.5561 -1.8861
   64CHL1   C25 5907   5.935   2.119   4.741  0.2713  0.1286  0.1872
   64CHL1   H25 5908   6.021   2.056   4.772  0.2745  0.6042  1.1656
   64CHL1   C26 5909   5.949   2.259   4.793  0.7991 -0.3764 -0.1580
   64CHL1  H26A 5910   6.017   2.321   4.730 -0.2035  2.0298  1.0060
   64CHL1  H26B 5911   5.851   2.310   4.794  0.1667 -1.5462 -0.5056
   64CHL1  H26C 5912   5.986   2.265   4.897 -2.3868  2.9722  0.9965
   64CHL1   C27 5913   5.802   2.051   4.790 -0.3341  0.6295 -0.6885
   64CHL1  H27A 5914   5.808   2.046   4.901  3.1237  0.5835 -0.7602
   64CHL1  H27B 5915   5.710   2.106   4.760 -0.7915 -0.0484 -0.5366
   64CHL1  H27C 5916   5.791   1.949   4.748 -0.5215 -0.0586  0.9810
   65CHL1    C3 5917   0.494   1.199   3.326  0.1322 -0.5957  0.6621
   65CHL1    H3 5918   0.576   1.147   3.379  0.8813  0.0319  0.1467
   65CHL1    O3 5919   0.497   1.137   3.196 -0.1483 -0.4100 -0.4653
   65CHL1   H3' 5920   0.408   1.119   3.166 -0.4770 -1.6936  1.1180
   65CHL1    C4 5921   0.358   1.169   3.392  0.4757  0.5537  0.4296
   65CHL1   H4A 5922   0.273   1.209   3.331 -0.7795 -0.7854  1.2228
   65CHL1   H4B 5923   0.336   1.060   3.395  0.0740  0.6183  0.0890
   65CHL1    C5 5924   0.364   1.235   3.521 -0.2375  0.1599 -0.0715
   65CHL1    C6 5925   0.338   1.152   3.631 -0.4591 -0.4501 -0.3413
   65CHL1    H6 5926   0.321   1.044   3.616  0.2696 -0.7375  0.7945
   65CHL1    C7 5927   0.331   1.212   3.771  0.3223  0.6922 -0.2648
   65CHL1   H7A 5928   0.249   1.166   3.831  0.0514  0.1883 -1.0083
   65CHL1   H7B 5929   0.423   1.198   3.831  0.5359 -2.8008 -1.1597
   65CHL1    C8 5930   0.310   1.371   3.771  0.1591  0.7048  0.5415
   65CHL1    H8 5931   0.202   1.386   3.749  0.2772  1.2484  0.3192
   65CHL1   C14 5932   0.325   1.424   3.913  0.0302  0.1234 -0.5541
   65CHL1   H14 5933   0.432   1.414   3.941  0.0335 -0.0418 -0.6260
   65CHL1   C15 5934   0.251   1.351   4.032  0.3485  0.3979  0.3286
   65CHL1  H15A 5935   0.145   1.323   4.010  0.5178 -0.4099  0.4919
   65CHL1  H15B 5936   0.310   1.265   4.069  0.1833  1.0632  2.2504
   65CHL1   C16 5937   0.256   1.456   4.138 -0.0482  0.1687  0.2234
   65CHL1  H16A 5938   0.152   1.456   4.178 -0.1471  0.0829 -0.0312
   65CHL1  H16B 5939   0.323   1.423   4.220 -0.3914 -0.5333  0.2289
   65CHL1   C17 5940   0.308   1.588   4.077  0.0821  0.1049 -0.6959
   65CHL1   H17 5941   0.417   1.588   4.101  0.0104  0.6609 -0.3813
   65CHL1   C13 5942   0.296   1.577   3.930  0.0227 -0.4246  1.4702
   65CHL1   C18 5943   0.154   1.617   3.877 -0.9251 -0.1443  0.1284
   65CHL1  H18A 5944   0.072   1.552   3.915 -2.7924  1.3485 -1.1533
   65CHL1  H18B 5945   0.143   1.725   3.901  1.8531  0.4094 -0.7316
   65CHL1  H18C 5946   0.151   1.605   3.767  0.4875  0.9504 -0.0539
   65CHL1   C12 5947   0.407   1.640   3.842  0.3580  0.2667  0.1270
   65CHL1  H12A 5948   0.397   1.750   3.833  1.1119  0.6230  2.6943
   65CHL1  H12B 5949   0.505   1.615   3.888 -0.3454  0.1813  1.6415
   65CHL1   C11 5950   0.407   1.591   3.696  0.6214 -0.0527 -0.6261
   65CHL1  H11A 5951   0.313   1.635   3.656  0.1317  1.3536  1.8413
   65CHL1  H11B 5952   0.484   1.639   3.633  1.5063 -1.0516 -0.3285
   65CHL1    C9 5953   0.403   1.438   3.677  0.3178  0.0459  0.0407
   65CHL1    H9 5954   0.503   1.397   3.705 -0.4924 -2.5998 -0.5958
   65CHL1   C10 5955   0.390   1.387   3.531  0.2117 -0.0362 -0.1851
   65CHL1   C19 5956   0.277   1.463   3.460 -0.1841 -0.2161 -0.3272
   65CHL1  H19A 5957   0.251   1.427   3.358  2.0380  0.4341 -1.1798
   65CHL1  H19B 5958   0.181   1.448   3.515 -0.0314 -0.1491 -0.0387
   65CHL1  H19C 5959   0.278   1.574   3.457  0.2535 -0.1905  0.4228
   65CHL1    C1 5960   0.524   1.415   3.453 -0.6123  0.2925  0.4250
   65CHL1   H1A 5961   0.545   1.524   3.455  3.2451 -0.2936 -0.9976
   65CHL1   H1B 5962   0.610   1.377   3.511 -0.3313 -0.1857 -0.2977
   65CHL1    C2 5963   0.522   1.352   3.315 -0.3370 -0.0074  0.2008
   65CHL1   H2A 5964   0.625   1.369   3.277  0.4314 -1.4031  1.5003
   65CHL1   H2B 5965   0.445   1.392   3.247  0.5107  1.0859 -0.1410
   65CHL1   C20 5966   0.254   1.713   4.155  0.5925  0.1327  0.0849
   65CHL1   H20 5967   0.150   1.730   4.119  1.0316 -0.1120 -1.3936
   65CHL1   C21 5968   0.361   1.827   4.127  0.3432 -0.0393  0.0345
   65CHL1  H21A 5969   0.342   1.924   4.177 -1.6553 -0.3648 -0.0038
   65CHL1  H21B 5970   0.366   1.851   4.018 -0.8848 -1.3137 -0.3236
   65CHL1  H21C 5971   0.463   1.798   4.160  0.6214  1.1371  0.2621
   65CHL1   C22 5972   0.242   1.694   4.310 -0.4838 -0.0226 -0.2563
   65CHL1  H22A 5973   0.164   1.615   4.315 -0.9968  0.2583 -2.5740
   65CHL1  H22B 5974   0.336   1.652   4.351  1.6246  1.9305 -2.7055
   65CHL1   C23 5975   0.193   1.812   4.393 -0.2026 -0.2736 -0.1082
   65CHL1  H23A 5976   0.199   1.806   4.504 -0.4136 -0.2837 -0.0958
   65CHL1  H23B 5977   0.249   1.906   4.378  1.4863 -0.3580  4.3863
   65CHL1   C24 5978   0.039   1.842   4.362 -0.2812 -0.3603 -0.1232
   65CHL1  H24A 5979   0.037   1.858   4.252  0.8587  0.4379 -0.0462
   65CHL1  H24B 5980  -0.016   1.753   4.397 -0.2489  0.0181  0.9139
   65CHL1   C25 5981  -0.020   1.962   4.443  0.3364 -0.5508 -0.0384
   65CHL1   H25 5982  -0.127   1.977   4.418  0.1125 -0.4812  0.9408
   65CHL1   C26 5983  -0.028   1.940   4.595  0.3274  0.2589  0.6063
   65CHL1  H26A 5984   0.075   1.937   4.636  0.6095  2.6675  0.1857
   65CHL1  H26B 5985  -0.076   2.033   4.631  1.0078  1.2986 -1.0600
   65CHL1  H26C 5986  -0.087   1.852   4.629  1.9943 -0.9665  0.4719
   65CHL1   C27 5987   0.065   2.092   4.421  0.4003 -0.2969 -0.3267
   65CHL1  H27A 5988   0.065   2.106   4.311 -2.7481 -1.9497 -0.6225
   65CHL1  H27B 5989   0.019   2.177   4.476  1.2203 -0.4791  0.6796
   65CHL1  H27C 5990   0.168   2.076   4.460 -0.4277 -1.8937  1.3580
   66CHL1    C3 5991   1.361   2.704   2.932  0.1246 -0.5523 -0.8636
   66CHL1    H3 5992   1.260   2.749   2.941  0.3815 -0.1975  0.5519
   66CHL1    O3 5993   1.392   2.671   2.797  0.4211 -0.5456  0.2301
   66CHL1   H3' 5994   1.320   2.612   2.774 -1.9603  1.2026  2.5602
   66CHL1    C4 5995   1.458   2.816   2.976  0.5606  1.0255  0.4782
   66CHL1   H4A 5996   1.557   2.775   2.946 -0.3121  0.5306 -1.9887
   66CHL1   H4B 5997   1.439   2.911   2.921  0.8105  0.5176 -0.5043
   66CHL1    C5 5998   1.470   2.842   3.125 -0.2397  0.0200  0.7000
   66CHL1    C6 5999   1.461   2.962   3.179  0.7550  0.0468 -0.0284
   66CHL1    H6 6000   1.431   3.046   3.115  2.0210  1.3113  0.9876
   66CHL1    C7 6001   1.473   2.993   3.327 -0.2364 -0.5430  0.0320
   66CHL1   H7A 6002   1.519   3.091   3.352  0.7762 -1.6466  2.8055
   66CHL1   H7B 6003   1.370   3.007   3.365 -0.7994  0.6114 -1.7580
   66CHL1    C8 6004   1.544   2.883   3.408  0.1076  0.8721  0.3994
   66CHL1    H8 6005   1.652   2.880   3.385  0.5116 -2.8014  2.1207
   66CHL1   C14 6006   1.510   2.896   3.555 -0.0512  0.0496  0.4387
   66CHL1   H14 6007   1.399   2.899   3.557 -0.0415  0.0800  1.4377
   66CHL1   C15 6008   1.548   3.028   3.622  0.2284 -0.3197  0.9524
   66CHL1  H15A 6009   1.654   3.053   3.600  0.6062 -2.4222  0.1165
   66CHL1  H15B 6010   1.479   3.108   3.588 -0.9662 -1.2854  1.0324
   66CHL1   C16 6011   1.537   2.997   3.771  0.6954 -0.1641 -0.8609
   66CHL1  H16A 6012   1.628   3.028   3.826 -0.5497 -1.7337  2.3678
   66CHL1  H16B 6013   1.452   3.052   3.817 -1.3326 -1.6626 -2.5997
   66CHL1   C17 6014   1.517   2.841   3.780 -0.3614 -0.4730 -0.2604
   66CHL1   H17 6015   1.408   2.818   3.784 -0.5681  0.4893  0.1869
   66CHL1   C13 6016   1.569   2.790   3.647  0.5251  0.0898 -0.4628
   66CHL1   C18 6017   1.718   2.807   3.660 -0.6985 -0.2020 -0.2704
   66CHL1  H18A 6018   1.759   2.909   3.675  0.4847 -0.6151 -0.6030
   66CHL1  H18B 6019   1.765   2.741   3.735  0.9485 -0.6275 -1.6049
   66CHL1  H18C 6020   1.767   2.775   3.565 -1.7322 -1.4809 -0.3979
   66CHL1   C12 6021   1.522   2.650   3.598  0.3922 -0.2701 -0.3131
   66CHL1  H12A 6022   1.576   2.571   3.655 -0.8920  0.5146  2.0931
   66CHL1  H12B 6023   1.415   2.639   3.626  0.6922  0.3649  1.1356
   66CHL1   C11 6024   1.557   2.632   3.449  0.3123 -0.2676 -0.1782
   66CHL1  H11A 6025   1.668   2.629   3.440  0.4697 -1.6967  1.5747
   66CHL1  H11B 6026   1.513   2.535   3.417 -0.9008 -0.2631  1.3272
   66CHL1    C9 6027   1.489   2.742   3.364 -0.1095 -0.6143  0.2452
   66CHL1    H9 6028   1.382   2.744   3.394  0.4248  2.9426  2.4542
   66CHL1   C10 6029   1.493   2.720   3.209 -0.1050 -0.2663  0.4085
   66CHL1   C19 6030   1.635   2.660   3.182  0.6928 -1.0932  0.0632
   66CHL1  H19A 6031   1.651   2.649   3.073 -2.8943 -2.2870 -0.5063
   66CHL1  H19B 6032   1.711   2.732   3.219  0.7793  0.2366 -2.5027
   66CHL1  H19C 6033   1.656   2.560   3.226 -1.6959 -1.3483  0.8075
   66CHL1    C1 6034   1.385   2.615   3.171 -0.1841 -0.3928 -0.6193
   66CHL1   H1A 6035   1.407   2.527   3.235  2.4773  0.5308 -0.1118
   66CHL1   H1B 6036   1.288   2.657   3.204  0.1738 -0.1116  0.1064
   66CHL1    C2 6037   1.386   2.583   3.020  0.1474  0.1083 -0.2967
   66CHL1   H2A 6038   1.306   2.509   2.996 -0.1755  0.1618  0.5790
   66CHL1   H2B 6039   1.477   2.533   2.981 -0.4084  0.2595 -1.8851
   66CHL1   C20 6040   1.573   2.783   3.918 -0.4032 -0.5749  1.1359
   66CHL1   H20 6041   1.683   2.793   3.928 -0.3820  0.5535  0.0488
   66CHL1   C21 6042   1.556   2.628   3.924 -0.1137 -0.0755  0.2349
   66CHL1  H21A 6043   1.637   2.573   3.871  0.3414  2.1701 -1.5774
   66CHL1  H21B 6044   1.458   2.598   3.882  0.7058 -1.2768 -0.9060
   66CHL1  H21C 6045   1.559   2.599   4.031 -2.1899 -2.0660 -0.1850
   66CHL1   C22 6046   1.504   2.857   4.040 -0.2982  0.3346  0.6971
   66CHL1  H22A 6047   1.521   2.964   4.017 -0.4481  0.1522 -0.3080
   66CHL1  H22B 6048   1.394   2.849   4.025 -0.2305  0.3120  0.2046
   66CHL1   C23 6049   1.553   2.807   4.174  0.2416 -0.2080  0.1183
   66CHL1  H23A 6050   1.500   2.713   4.199 -1.6774  0.6554 -0.5354
   66CHL1  H23B 6051   1.664   2.808   4.166  0.1859 -0.0026 -0.7789
   66CHL1   C24 6052   1.530   2.908   4.289 -0.2094  0.4550 -0.2337
   66CHL1  H24A 6053   1.573   2.879   4.388 -2.2282  2.2715  1.2552
   66CHL1  H24B 6054   1.562   3.008   4.254  1.2366  0.4360  0.9248
   66CHL1   C25 6055   1.375   2.924   4.335  0.3968  0.0063 -0.3319
   66CHL1   H25 6056   1.326   2.987   4.257 -0.1108  0.6829  0.5105
   66CHL1   C26 6057   1.310   2.795   4.374 -0.0903 -0.2020  0.7452
   66CHL1  H26A 6058   1.298   2.722   4.291  0.7603  0.3246  0.1494
   66CHL1  H26B 6059   1.372   2.737   4.447 -2.9510 -1.3379  2.4438
   66CHL1  H26C 6060   1.216   2.819   4.429 -1.1353  2.9207 -2.1348
   66CHL1   C27 6061   1.376   3.010   4.462 -0.1592  0.2582 -0.1110
   66CHL1  H27A 6062   1.276   3.057   4.471 -0.2922 -0.0894  0.2180
   66CHL1  H27B 6063   1.459   3.084   4.450  1.9625 -1.4692  2.6831
   66CHL1  H27C 6064   1.391   2.942   4.548 -0.0270 -2.1659 -1.9594
   67CHL1    C3 6065   6.340   0.579   3.099  0.0152 -0.1694 -0.1150
   67CHL1    H3 6066   6.275   0.489   3.087 -1.5764  1.0138 -0.6642
   67CHL1    O3 6067   6.382   0.624   2.970  0.1491 -0.5875 -0.2727
   67CHL1   H3' 6068   6.422   0.710   2.985 -0.9849 -0.1127  0.1334
   67CHL1    C4 6069   6.262   0.696   3.169  0.2669 -0.2517  1.0276
   67CHL1   H4A 6070   6.318   0.791   3.151  1.9328 -1.3154  0.3113
   67CHL1   H4B 6071   6.171   0.705   3.106  0.2047 -1.3518  0.9416
   67CHL1    C5 6072   6.231   0.677   3.314  0.1717 -0.2294  0.0723
   67CHL1    C6 6073   6.101   0.688   3.362 -0.1737 -0.4508  0.8131
   67CHL1    H6 6074   6.021   0.720   3.294  1.3693  2.9996  0.3912
   67CHL1    C7 6075   6.062   0.670   3.501 -0.8394  0.2467 -0.0893
   67CHL1   H7A 6076   5.996   0.756   3.524 -1.8855 -0.7366  0.7364
   67CHL1   H7B 6077   6.000   0.583   3.531 -0.4085  0.4774  1.5708
   67CHL1    C8 6078   6.187   0.664   3.595 -0.4874  0.0824 -0.9777
   67CHL1    H8 6079   6.220   0.770   3.603  0.9663 -0.2560 -2.1727
   67CHL1   C14 6080   6.147   0.602   3.731  0.3409 -0.0932  0.0076
   67CHL1   H14 6081   6.117   0.497   3.711 -0.3576  0.1222 -0.1269
   67CHL1   C15 6082   6.030   0.661   3.813  0.4116 -0.7233  0.1689
   67CHL1  H15A 6083   6.046   0.770   3.817 -1.0645 -0.5019  0.7167
   67CHL1  H15B 6084   5.930   0.636   3.771  1.1957 -1.0244 -1.6127
   67CHL1   C16 6085   6.049   0.607   3.953  1.1199  0.0002  0.4472
   67CHL1  H16A 6086   6.067   0.681   4.033  1.1938 -0.5155  0.9087
   67CHL1  H16B 6087   5.974   0.526   3.971  2.1465 -1.8687 -2.8524
   67CHL1   C17 6088   6.188   0.530   3.953 -0.5499  0.0220 -0.2575
   67CHL1   H17 6089   6.179   0.425   3.918  1.6151 -0.3478  0.1417
   67CHL1   C13 6090   6.260   0.584   3.830 -0.0759  0.0537  0.1373
   67CHL1   C18 6091   6.304   0.727   3.870  0.4559  0.3732 -0.4934
   67CHL1  H18A 6092   6.289   0.801   3.790  2.9854  0.3399 -1.0831
   67CHL1  H18B 6093   6.247   0.765   3.958  1.8869  0.3220  0.4923
   67CHL1  H18C 6094   6.411   0.740   3.899  0.3742 -1.4506  0.8433
   67CHL1   C12 6095   6.373   0.506   3.766  0.6381  0.3343  0.4826
   67CHL1  H12A 6096   6.454   0.491   3.840 -0.6958 -0.5195  1.8399
   67CHL1  H12B 6097   6.339   0.404   3.735  0.3708 -0.3650  2.8835
   67CHL1   C11 6098   6.431   0.569   3.636  0.0776  0.2420  0.4219
   67CHL1  H11A 6099   6.471   0.669   3.661 -2.2558  0.5061  3.8339
   67CHL1  H11B 6100   6.512   0.508   3.591 -0.1947 -0.8633  1.3751
   67CHL1    C9 6101   6.312   0.590   3.534  0.3119 -1.0129 -0.4062
   67CHL1    H9 6102   6.269   0.490   3.508 -0.2433 -0.4454 -1.7965
   67CHL1   C10 6103   6.355   0.640   3.398  0.1675  0.2102  0.0729
   67CHL1   C19 6104   6.431   0.772   3.402 -0.0075  0.3935 -0.5864
   67CHL1  H19A 6105   6.520   0.780   3.468 -1.3090  4.2996  0.9932
   67CHL1  H19B 6106   6.457   0.816   3.303 -1.2165  1.8621 -0.2855
   67CHL1  H19C 6107   6.373   0.848   3.459  0.2037 -0.2787  0.5509
   67CHL1    C1 6108   6.437   0.530   3.328  0.0161 -0.0694 -0.2315
   67CHL1   H1A 6109   6.541   0.525   3.366  1.0171  0.5181 -2.7025
   67CHL1   H1B 6110   6.382   0.433   3.327  0.2230 -0.2064  0.9966
   67CHL1    C2 6111   6.465   0.554   3.180 -0.4088 -0.1020  0.7131
   67CHL1   H2A 6112   6.516   0.461   3.147 -1.0462  0.1365 -1.1046
   67CHL1   H2B 6113   6.539   0.633   3.156 -0.2192 -1.0742 -2.3411
   67CHL1   C20 6114   6.239   0.517   4.097 -0.4025 -0.0820 -0.5679
   67CHL1   H20 6115   6.243   0.621   4.138 -1.1320 -0.2722  0.0098
   67CHL1   C21 6116   6.386   0.471   4.095  0.1761 -0.2604  0.5717
   67CHL1  H21A 6117   6.422   0.446   4.197 -1.1375 -0.3071  1.0535
   67CHL1  H21B 6118   6.450   0.544   4.042 -1.3118  0.8457  0.2182
   67CHL1  H21C 6119   6.391   0.376   4.038  1.4376 -0.0046  0.2419
   67CHL1   C22 6120   6.148   0.437   4.197  0.4493 -0.6089 -0.0467
   67CHL1  H22A 6121   6.042   0.459   4.169  0.4422  0.1171  0.5372
   67CHL1  H22B 6122   6.156   0.328   4.177  2.1045 -0.5436  0.1592
   67CHL1   C23 6123   6.178   0.468   4.348 -0.2575  0.4390 -0.7248
   67CHL1  H23A 6124   6.277   0.427   4.377 -0.2297  0.4889 -0.7482
   67CHL1  H23B 6125   6.169   0.576   4.374  0.3868  0.5515 -0.9622
   67CHL1   C24 6126   6.090   0.394   4.448 -0.1478 -0.1309 -0.0515
   67CHL1  H24A 6127   5.982   0.418   4.442 -0.3239 -0.4638  1.4268
   67CHL1  H24B 6128   6.095   0.284   4.429 -2.4102 -0.4136  0.7271
   67CHL1   C25 6129   6.131   0.410   4.599  0.5812  0.1974 -0.3337
   67CHL1   H25 6130   6.242   0.413   4.607  0.6943  0.4441 -1.7843
   67CHL1   C26 6131   6.101   0.546   4.655  0.4820 -0.6809  0.5549
   67CHL1  H26A 6132   6.001   0.559   4.701  0.8347  0.4762  1.0181
   67CHL1  H26B 6133   6.168   0.566   4.741 -1.2500 -0.8793  1.9960
   67CHL1  H26C 6134   6.109   0.622   4.574  0.8304 -0.4889  0.7670
   67CHL1   C27 6135   6.061   0.305   4.696 -0.5843  0.0571  0.7429
   67CHL1  H27A 6136   6.102   0.203   4.681 -4.6363 -1.7033  0.2364
   67CHL1  H27B 6137   6.066   0.335   4.803  0.6838  0.0128  0.7082
   67CHL1  H27C 6138   5.952   0.297   4.673 -1.9910  2.9419  5.1127
   68CHL1    C3 6139   4.270   5.668   2.790  0.3838 -0.5162 -0.4476
   68CHL1    H3 6140   4.225   5.763   2.826 -2.4034 -1.9318  0.0886
   68CHL1    O3 6141   4.280   5.671   2.651 -0.1052 -0.0367 -0.0805
   68CHL1   H3' 6142   4.358   5.722   2.626 -0.7107  0.8321 -0.2201
   68CHL1    C4 6143   4.408   5.642   2.850  0.8643 -0.1830 -0.4223
   68CHL1   H4A 6144   4.442   5.547   2.803 -0.9732 -0.7253 -0.7516
   68CHL1   H4B 6145   4.470   5.728   2.818 -0.7089  1.8948  1.7536
   68CHL1    C5 6146   4.425   5.647   2.998 -0.5994  0.6482  0.1060
   68CHL1    C6 6147   4.505   5.737   3.067 -0.2608 -0.3128  0.0401
   68CHL1    H6 6148   4.576   5.805   3.018  0.9039 -0.1604  1.8134
   68CHL1    C7 6149   4.511   5.734   3.217  0.7741  0.2400  0.3007
   68CHL1   H7A 6150   4.612   5.744   3.261  1.0183  1.6791 -0.5418
   68CHL1   H7B 6151   4.461   5.829   3.245  0.4740  1.3333 -3.4622
   68CHL1    C8 6152   4.449   5.613   3.289  0.0523 -0.6025 -0.2378
   68CHL1    H8 6153   4.524   5.533   3.272  1.0533 -0.3678  2.5232
   68CHL1   C14 6154   4.426   5.630   3.434 -0.3575  0.0362  0.1373
   68CHL1   H14 6155   4.352   5.712   3.439 -0.3296  0.2556 -2.1847
   68CHL1   C15 6156   4.537   5.686   3.531  0.0337  0.2811  0.4461
   68CHL1  H15A 6157   4.637   5.642   3.510 -0.6490  0.3721 -3.7855
   68CHL1  H15B 6158   4.545   5.797   3.532  1.2339  0.2557 -1.6382
   68CHL1   C16 6159   4.493   5.638   3.671  0.3542  0.7914  0.5694
   68CHL1  H16A 6160   4.573   5.572   3.711  0.0249 -0.5556 -0.8874
   68CHL1  H16B 6161   4.473   5.715   3.748 -0.4278 -0.2348  1.4142
   68CHL1   C17 6162   4.361   5.554   3.651 -0.2823 -0.2233  0.0823
   68CHL1   H17 6163   4.278   5.627   3.641  0.7787  1.1303  0.7294
   68CHL1   C13 6164   4.362   5.507   3.503  0.0799  0.7634 -0.3565
   68CHL1   C18 6165   4.452   5.373   3.496 -0.1289  0.1427 -0.0155
   68CHL1  H18A 6166   4.410   5.296   3.565  0.9433 -0.1904  0.2905
   68CHL1  H18B 6167   4.456   5.330   3.393  0.1147 -3.5139  1.3790
   68CHL1  H18C 6168   4.556   5.392   3.530 -0.1139 -1.3880  0.8916
   68CHL1   C12 6169   4.222   5.493   3.432  0.3330  0.2684 -0.8608
   68CHL1  H12A 6170   4.159   5.412   3.475 -3.0084  1.6921 -2.6671
   68CHL1  H12B 6171   4.161   5.585   3.447 -0.3453 -0.4135  0.7336
   68CHL1   C11 6172   4.232   5.477   3.285 -0.6157  0.2865  0.2839
   68CHL1  H11A 6173   4.287   5.383   3.261  1.9366  1.7522  0.0177
   68CHL1  H11B 6174   4.134   5.462   3.234 -0.1505 -1.1225 -0.2503
   68CHL1    C9 6175   4.318   5.582   3.210 -0.0686  0.1892  0.0858
   68CHL1    H9 6176   4.249   5.670   3.210 -0.2708  0.1115  2.5131
   68CHL1   C10 6177   4.331   5.545   3.061 -0.3710  0.2981 -0.2281
   68CHL1   C19 6178   4.385   5.406   3.037  0.5344  0.0767  0.2334
   68CHL1  H19A 6179   4.403   5.387   2.929 -2.0735 -0.3833 -0.1780
   68CHL1  H19B 6180   4.483   5.402   3.089  0.8346  0.2185 -0.3139
   68CHL1  H19C 6181   4.316   5.326   3.072 -0.0933  1.8626  3.4632
   68CHL1    C1 6182   4.189   5.563   2.995  0.5802  0.4541  0.1091
   68CHL1   H1A 6183   4.134   5.468   3.014  1.9114 -0.5567 -0.8360
   68CHL1   H1B 6184   4.127   5.647   3.032 -1.6180  0.1745 -2.6100
   68CHL1    C2 6185   4.183   5.563   2.841 -0.2590 -0.3075  0.4465
   68CHL1   H2A 6186   4.078   5.587   2.813 -0.0286  0.3596  0.1364
   68CHL1   H2B 6187   4.205   5.463   2.797  1.5310  1.0221 -1.9702
   68CHL1   C20 6188   4.337   5.450   3.756 -0.1543  0.1759 -0.9115
   68CHL1   H20 6189   4.423   5.379   3.758 -1.2618 -1.2311 -1.3807
   68CHL1   C21 6190   4.210   5.365   3.735 -0.6884  0.5548  0.6763
   68CHL1  H21A 6191   4.120   5.418   3.699 -0.2350  0.3402 -0.8654
   68CHL1  H21B 6192   4.184   5.329   3.837 -3.7729  1.3994  0.2690
   68CHL1  H21C 6193   4.233   5.287   3.658 -0.8244 -0.5166  1.6862
   68CHL1   C22 6194   4.317   5.508   3.897 -0.1090  0.3375  0.2088
   68CHL1  H22A 6195   4.371   5.603   3.916 -1.4486  1.1541  0.0814
   68CHL1  H22B 6196   4.208   5.530   3.905 -1.1181 -2.0865 -3.7547
   68CHL1   C23 6197   4.376   5.404   3.998  0.2627 -0.3860 -0.0807
   68CHL1  H23A 6198   4.322   5.307   3.994 -1.9784  0.8060 -0.8176
   68CHL1  H23B 6199   4.481   5.400   3.961  0.6635  3.3657  0.2137
   68CHL1   C24 6200   4.380   5.453   4.140 -0.1741 -0.0474 -0.2646
   68CHL1  H24A 6201   4.427   5.552   4.157  0.7650 -0.2709 -1.4433
   68CHL1  H24B 6202   4.277   5.453   4.183 -0.5323  0.7066 -1.0729
   68CHL1   C25 6203   4.458   5.360   4.238  0.3221 -0.5115  0.7017
   68CHL1   H25 6204   4.549   5.328   4.184  0.3464  3.3608 -1.9880
   68CHL1   C26 6205   4.506   5.428   4.367 -0.4340 -0.4823  0.7609
   68CHL1  H26A 6206   4.580   5.363   4.418 -0.1446 -1.0876 -0.3886
   68CHL1  H26B 6207   4.569   5.513   4.333 -1.7162 -0.2583 -1.2150
   68CHL1  H26C 6208   4.427   5.468   4.434  0.4715  2.1206  0.3991
   68CHL1   C27 6209   4.377   5.238   4.277 -0.2934  0.3042 -0.1650
   68CHL1  H27A 6210   4.438   5.157   4.322  0.9911  0.8529 -0.8954
   68CHL1  H27B 6211   4.300   5.269   4.351 -0.3460  0.3242 -0.2275
   68CHL1  H27C 6212   4.325   5.186   4.194  0.3545 -0.8643  0.1458
   69CHL1    C3 6213   3.112   2.718   2.932 -0.4610  0.2568 -0.5354
   69CHL1    H3 6214   3.125   2.822   2.894  2.1164  1.2188  2.5477
   69CHL1    O3 6215   3.109   2.626   2.825  0.5829 -0.1422  0.3372
   69CHL1   H3' 6216   3.042   2.658   2.765  0.2513 -0.5164  0.5054
   69CHL1    C4 6217   3.245   2.672   3.015  0.3451 -0.7358 -0.1592
   69CHL1   H4A 6218   3.222   2.565   3.031 -0.6454 -0.2411  2.0954
   69CHL1   H4B 6219   3.334   2.695   2.953  1.9426 -1.8013  1.6531
   69CHL1    C5 6220   3.257   2.726   3.153  0.4552  0.3979  0.0783
   69CHL1    C6 6221   3.365   2.785   3.194 -0.7250 -0.1639 -0.4172
   69CHL1    H6 6222   3.446   2.796   3.120  1.2929 -3.8402  0.9773
   69CHL1    C7 6223   3.387   2.845   3.336  0.1544  0.1645  0.3347
   69CHL1   H7A 6224   3.481   2.815   3.387  0.9710  3.0293  0.6310
   69CHL1   H7B 6225   3.403   2.954   3.333 -3.1695  0.7981  1.6704
   69CHL1    C8 6226   3.269   2.806   3.426  0.0546  0.6650 -0.3845
   69CHL1    H8 6227   3.274   2.701   3.462 -1.1441  0.1935 -1.5184
   69CHL1   C14 6228   3.263   2.896   3.554 -0.8342 -0.2811  0.2600
   69CHL1   H14 6229   3.261   3.006   3.537  1.9263  0.0836  1.6201
   69CHL1   C15 6230   3.391   2.876   3.642  0.8864  0.0774 -0.8429
   69CHL1  H15A 6231   3.424   2.771   3.659  0.0475  0.2909  3.0327
   69CHL1  H15B 6232   3.478   2.936   3.607  1.8922 -1.0346 -0.3442
   69CHL1   C16 6233   3.347   2.932   3.782  0.0609  0.2082  0.0208
   69CHL1  H16A 6234   3.370   2.862   3.865 -1.0333  0.5541  0.6397
   69CHL1  H16B 6235   3.370   3.038   3.805 -1.7597  0.2287  2.1081
   69CHL1   C17 6236   3.193   2.945   3.778  0.0789  0.4127  0.4532
   69CHL1   H17 6237   3.164   3.047   3.744  0.7904  1.9528  4.0265
   69CHL1   C13 6238   3.149   2.855   3.658  0.0440 -0.3518  0.0504
   69CHL1   C18 6239   3.147   2.712   3.714 -0.7353  0.3245 -0.1565
   69CHL1  H18A 6240   3.070   2.693   3.791 -0.0295 -2.6826 -0.0694
   69CHL1  H18B 6241   3.124   2.631   3.642 -2.7938 -1.7457  2.5993
   69CHL1  H18C 6242   3.245   2.696   3.764 -1.3262 -0.0430  0.9139
   69CHL1   C12 6243   3.025   2.888   3.581  0.5475 -0.3144 -0.1154
   69CHL1  H12A 6244   2.935   2.870   3.643 -0.4485  0.6710 -1.2162
   69CHL1  H12B 6245   3.033   2.994   3.547  2.7088 -0.1748  0.6206
   69CHL1   C11 6246   3.014   2.799   3.448 -0.5467 -0.2932  0.1664
   69CHL1  H11A 6247   3.002   2.693   3.478 -0.4708 -0.9437 -1.9520
   69CHL1  H11B 6248   2.922   2.827   3.391  0.3515  0.9958 -0.6935
   69CHL1    C9 6249   3.134   2.813   3.353  0.0221 -0.6395 -0.3070
   69CHL1    H9 6250   3.143   2.919   3.323  0.6586 -0.6667 -0.2218
   69CHL1   C10 6251   3.126   2.722   3.230 -0.1070  0.2062 -0.2374
   69CHL1   C19 6252   3.118   2.578   3.281  0.3100 -0.2157 -0.6130
   69CHL1  H19A 6253   3.118   2.506   3.196  0.7066  0.3822 -1.1248
   69CHL1  H19B 6254   3.195   2.555   3.358 -1.0961  0.6743  1.1419
   69CHL1  H19C 6255   3.019   2.558   3.328  0.8061 -0.3784  0.3849
   69CHL1    C1 6256   3.005   2.769   3.149  0.0278  0.3633 -0.1980
   69CHL1   H1A 6257   2.909   2.756   3.205 -0.2584  2.2729 -0.1674
   69CHL1   H1B 6258   3.018   2.876   3.121  1.8032  0.1137 -0.4461
   69CHL1    C2 6259   2.981   2.704   3.012  0.0739  0.1807  1.6356
   69CHL1   H2A 6260   2.900   2.760   2.960  1.8646  0.6848 -0.7719
   69CHL1   H2B 6261   2.945   2.599   3.021  2.5951 -1.1222 -1.4590
   69CHL1   C20 6262   3.124   2.934   3.920 -0.0652 -0.0448 -0.3007
   69CHL1   H20 6263   3.148   2.836   3.966 -3.1628 -1.8185 -2.1591
   69CHL1   C21 6264   2.974   2.943   3.911  0.1266 -0.9441  0.4671
   69CHL1  H21A 6265   2.938   2.853   3.858  0.8722 -1.2765  0.5154
   69CHL1  H21B 6266   2.949   3.034   3.851  1.0801 -1.2373 -0.4210
   69CHL1  H21C 6267   2.934   2.950   4.014  1.0230 -1.6079  0.8818
   69CHL1   C22 6268   3.167   3.044   4.024 -0.0157 -0.5148  0.2580
   69CHL1  H22A 6269   3.278   3.041   4.036  0.1468 -3.8784 -0.7982
   69CHL1  H22B 6270   3.138   3.143   3.984  2.1517  0.6647  1.4702
   69CHL1   C23 6271   3.105   3.040   4.174  0.1607 -0.2511  0.7614
   69CHL1  H23A 6272   2.994   3.050   4.175 -0.2130 -2.9872 -1.3807
   69CHL1  H23B 6273   3.122   2.934   4.203 -0.5036 -1.5712 -3.1031
   69CHL1   C24 6274   3.186   3.134   4.260 -0.1823 -0.1660 -0.6280
   69CHL1  H24A 6275   3.287   3.092   4.277 -0.5329  0.6738  5.8318
   69CHL1  H24B 6276   3.198   3.235   4.215  0.4172 -0.0911 -0.3075
   69CHL1   C25 6277   3.128   3.148   4.400  0.1688 -0.1794 -0.7026
   69CHL1   H25 6278   3.021   3.175   4.390  0.1959 -0.3660 -1.5355
   69CHL1   C26 6279   3.146   3.014   4.484  0.0991 -0.1926  0.0250
   69CHL1  H26A 6280   3.251   2.978   4.479 -0.3048 -1.6158  0.9593
   69CHL1  H26B 6281   3.117   3.015   4.591 -0.3835 -2.4445 -0.0278
   69CHL1  H26C 6282   3.085   2.934   4.436 -0.5538  0.4605 -0.2538
   69CHL1   C27 6283   3.195   3.265   4.479 -0.5891 -0.2179 -0.1740
   69CHL1  H27A 6284   3.157   3.362   4.440 -1.8853 -1.4084 -2.0387
   69CHL1  H27B 6285   3.163   3.264   4.585  1.7594  3.1236  0.7315
   69CHL1  H27C 6286   3.306   3.269   4.472 -0.5774 -2.3984 -3.5312
   70CHL1    C3 6287   5.421   1.531   3.125 -0.2080  0.8594  0.1151
   70CHL1    H3 6288   5.371   1.630   3.121 -1.3708  0.2652 -0.5930
   70CHL1    O3 6289   5.439   1.485   2.991  0.4296  0.5623  0.0271
   70CHL1   H3' 6290   5.401   1.401   2.966  2.2195  0.4030 -2.5716
   70CHL1    C4 6291   5.558   1.536   3.190 -0.4799  0.2669  0.0476
   70CHL1   H4A 6292   5.607   1.436   3.190  0.0307  0.4450 -2.5427
   70CHL1   H4B 6293   5.621   1.604   3.129 -1.2357  0.5082 -0.4847
   70CHL1    C5 6294   5.555   1.582   3.341  0.4914  0.6473  0.6403
   70CHL1    C6 6295   5.633   1.681   3.381 -0.3889 -0.3302  0.2326
   70CHL1    H6 6296   5.706   1.729   3.315  1.8295 -2.6147  0.8865
   70CHL1    C7 6297   5.632   1.733   3.520  0.3763  0.0490 -0.0315
   70CHL1   H7A 6298   5.738   1.751   3.546  0.6731 -0.8670 -0.5649
   70CHL1   H7B 6299   5.592   1.836   3.511  0.2690 -0.1398 -2.2707
   70CHL1    C8 6300   5.557   1.642   3.621 -1.0137  0.8329  0.1240
   70CHL1    H8 6301   5.623   1.557   3.648 -1.2423  1.4826  3.1226
   70CHL1   C14 6302   5.532   1.723   3.750  0.4404 -0.1852  0.3809
   70CHL1   H14 6303   5.460   1.805   3.725  0.5137 -0.0295  0.6781
   70CHL1   C15 6304   5.643   1.798   3.814 -0.0761  0.2136 -0.6392
   70CHL1  H15A 6305   5.735   1.737   3.800  0.8774  1.3339  0.4405
   70CHL1  H15B 6306   5.655   1.899   3.767 -2.5434  0.4696 -0.8380
   70CHL1   C16 6307   5.603   1.805   3.962  0.1813  0.0627  0.3241
   70CHL1  H16A 6308   5.673   1.744   4.022 -0.8815 -1.5586 -0.0073
   70CHL1  H16B 6309   5.603   1.910   3.997 -0.9237 -0.1377  0.9812
   70CHL1   C17 6310   5.468   1.727   3.970  0.2170  0.3990  0.4110
   70CHL1   H17 6311   5.390   1.805   3.956 -1.3618 -1.6025 -3.3437
   70CHL1   C13 6312   5.466   1.628   3.852  0.4089 -0.0815 -0.4794
   70CHL1   C18 6313   5.553   1.507   3.887  0.0710 -0.2462  0.2338
   70CHL1  H18A 6314   5.508   1.448   3.970  2.0062  1.3400  2.5655
   70CHL1  H18B 6315   5.575   1.433   3.808  1.4090 -1.0641  1.3225
   70CHL1  H18C 6316   5.657   1.532   3.917  0.7835 -2.0664 -0.5123
   70CHL1   C12 6317   5.334   1.582   3.795  0.1734 -0.0128 -0.2095
   70CHL1  H12A 6318   5.284   1.517   3.871 -0.4659  2.7664  1.8820
   70CHL1  H12B 6319   5.259   1.664   3.789  0.2034  0.1182  0.9834
   70CHL1   C11 6320   5.347   1.505   3.662  0.0532  0.1205 -0.1028
   70CHL1  H11A 6321   5.389   1.404   3.680 -2.2728 -1.2382 -1.6770
   70CHL1  H11B 6322   5.246   1.481   3.624 -0.0151  0.6409 -0.2584
   70CHL1    C9 6323   5.425   1.585   3.557 -0.4550  0.0560  0.1782
   70CHL1    H9 6324   5.367   1.677   3.537  0.5759  0.9330  1.1244
   70CHL1   C10 6325   5.452   1.510   3.426 -0.1475 -0.3452 -0.0079
   70CHL1   C19 6326   5.509   1.364   3.450 -0.2483 -0.6514  0.1368
   70CHL1  H19A 6327   5.609   1.367   3.497 -0.7029 -2.2355  1.2792
   70CHL1  H19B 6328   5.442   1.301   3.512 -1.7360 -0.0435 -0.8017
   70CHL1  H19C 6329   5.517   1.309   3.354  0.6824  0.0841 -0.2201
   70CHL1    C1 6330   5.318   1.482   3.353 -0.2481 -0.2933 -0.0729
   70CHL1   H1A 6331   5.262   1.403   3.409 -2.1096  1.0312  0.0018
   70CHL1   H1B 6332   5.251   1.570   3.357 -0.5192 -0.5012  0.0702
   70CHL1    C2 6333   5.326   1.435   3.198  1.1062  0.7135 -0.0438
   70CHL1   H2A 6334   5.228   1.431   3.146  1.2098  0.2525 -0.2052
   70CHL1   H2B 6335   5.367   1.334   3.176 -0.2870 -0.2217  1.4620
   70CHL1   C20 6336   5.442   1.677   4.117 -0.2122 -0.4885 -0.2423
   70CHL1   H20 6337   5.521   1.603   4.144  1.2184  0.2635 -2.1211
   70CHL1   C21 6338   5.299   1.623   4.120 -0.3900  0.1090 -0.2857
   70CHL1  H21A 6339   5.280   1.580   4.221 -0.8419 -0.7038 -0.7069
   70CHL1  H21B 6340   5.282   1.528   4.065  1.7464 -1.1026  1.0037
   70CHL1  H21C 6341   5.232   1.703   4.081  2.0192  0.2602 -4.7543
   70CHL1   C22 6342   5.471   1.783   4.228 -0.4397 -1.1590 -0.1146
   70CHL1  H22A 6343   5.581   1.802   4.231 -0.9961  2.5854  1.7481
   70CHL1  H22B 6344   5.433   1.881   4.194 -0.5497 -0.9152  0.6864
   70CHL1   C23 6345   5.405   1.757   4.362  0.6199 -0.8444 -0.1737
   70CHL1  H23A 6346   5.295   1.771   4.361  0.7198  0.1499 -2.0072
   70CHL1  H23B 6347   5.423   1.655   4.402 -0.7231 -1.3589 -0.8246
   70CHL1   C24 6348   5.465   1.858   4.463  0.3781  0.3897  0.3373
   70CHL1  H24A 6349   5.565   1.816   4.487 -0.3811 -2.6006 -1.2935
   70CHL1  H24B 6350   5.483   1.950   4.403 -1.5709 -1.4381 -3.4193
   70CHL1   C25 6351   5.387   1.881   4.588 -0.2493 -0.1365  0.4047
   70CHL1   H25 6352   5.390   1.794   4.657 -1.5717 -1.3510 -0.9821
   70CHL1   C26 6353   5.463   1.991   4.658  0.8182 -0.1949 -0.5316
   70CHL1  H26A 6354   5.410   2.014   4.753 -2.0771  0.9919 -2.3006
   70CHL1  H26B 6355   5.569   1.958   4.668  0.5019 -0.8298  0.9131
   70CHL1  H26C 6356   5.462   2.086   4.600  0.2921  0.6116  0.7700
   70CHL1   C27 6357   5.238   1.921   4.568 -0.5237  0.3392 -0.4835
   70CHL1  H27A 6358   5.192   1.954   4.663  0.7231  0.7111  0.0102
   70CHL1  H27B 6359   5.236   2.007   4.498 -0.8620  1.5594  0.9869
   70CHL1  H27C 6360   5.189   1.825   4.538  1.8393 -1.2708  0.4705
   71CHL1    C3 6361   2.399   6.151   2.867 -0.0971 -0.0062  0.2486
   71CHL1    H3 6362   2.508   6.158   2.891 -0.0201 -2.3394  0.8659
   71CHL1    O3 6363   2.394   6.197   2.733 -0.0913  0.2249 -0.6038
   71CHL1   H3' 6364   2.299   6.196   2.717 -0.2922 -2.2085  0.4352
   71CHL1    C4 6365   2.366   5.998   2.877  0.5227  0.9711  0.3960
   71CHL1   H4A 6366   2.258   5.990   2.850  0.8768 -0.5609 -0.6609
   71CHL1   H4B 6367   2.427   5.944   2.802 -2.3800 -1.3822 -0.4325
   71CHL1    C5 6368   2.386   5.961   3.023  0.1966 -0.1780  0.1474
   71CHL1    C6 6369   2.478   5.867   3.047 -0.1294 -0.4394  0.1308
   71CHL1    H6 6370   2.528   5.811   2.966 -0.5267 -1.0101  0.2725
   71CHL1    C7 6371   2.517   5.821   3.184 -0.7243 -0.1366 -0.2355
   71CHL1   H7A 6372   2.514   5.710   3.183  2.7516 -0.3573 -0.5158
   71CHL1   H7B 6373   2.615   5.858   3.222 -0.1923 -0.0391 -1.6475
   71CHL1    C8 6374   2.416   5.872   3.293 -0.1426  0.7153  0.1042
   71CHL1    H8 6375   2.325   5.809   3.282  0.1512 -0.1226  2.0459
   71CHL1   C14 6376   2.487   5.880   3.433 -0.0603  0.0526  0.1969
   71CHL1   H14 6377   2.566   5.957   3.424  1.7707 -1.7883 -0.0737
   71CHL1   C15 6378   2.564   5.753   3.482 -0.6075  1.1789 -0.4824
   71CHL1  H15A 6379   2.488   5.678   3.452  1.4072 -0.9459 -0.5550
   71CHL1  H15B 6380   2.656   5.728   3.424 -0.5565  1.1763 -0.4008
   71CHL1   C16 6381   2.582   5.771   3.631  0.0871 -0.0523  0.0852
   71CHL1  H16A 6382   2.559   5.672   3.675 -0.9334 -0.4771 -1.3399
   71CHL1  H16B 6383   2.686   5.808   3.637 -0.2354  1.5166 -2.4695
   71CHL1   C17 6384   2.484   5.891   3.671 -0.3447 -0.1320  0.7716
   71CHL1   H17 6385   2.547   5.981   3.674 -0.9807  0.3123  1.1482
   71CHL1   C13 6386   2.393   5.915   3.546  0.2000  0.1343  0.0149
   71CHL1   C18 6387   2.270   5.828   3.549 -1.2223  0.1775  0.9612
   71CHL1  H18A 6388   2.209   5.841   3.457 -1.7415  0.9712  1.4030
   71CHL1  H18B 6389   2.297   5.721   3.564  1.3209  0.8460  1.5433
   71CHL1  H18C 6390   2.203   5.850   3.635  1.8969 -2.7749  4.5107
   71CHL1   C12 6391   2.351   6.058   3.529 -0.0608  0.1692 -0.1236
   71CHL1  H12A 6392   2.283   6.104   3.604  1.9735  0.8680  1.3803
   71CHL1  H12B 6393   2.441   6.123   3.535 -0.8229  1.1409  1.5273
   71CHL1   C11 6394   2.296   6.081   3.385  0.6204 -0.0531 -0.2876
   71CHL1  H11A 6395   2.196   6.034   3.382  1.1014 -1.0899 -0.3290
   71CHL1  H11B 6396   2.288   6.191   3.372  0.6296 -0.2654 -2.4605
   71CHL1    C9 6397   2.380   6.015   3.266 -0.4257 -0.1923 -0.0489
   71CHL1    H9 6398   2.480   6.064   3.263 -0.4231 -0.1781  0.2753
   71CHL1   C10 6399   2.317   6.049   3.128  0.4340  0.7790  0.4945
   71CHL1   C19 6400   2.167   6.000   3.138 -0.1514 -0.2717  0.5392
   71CHL1  H19A 6401   2.165   5.896   3.177 -0.6785 -0.0008  1.2600
   71CHL1  H19B 6402   2.108   6.061   3.209  0.0745 -0.4065  0.8403
   71CHL1  H19C 6403   2.120   6.002   3.037 -2.2200 -3.6600  1.2529
   71CHL1    C1 6404   2.337   6.193   3.101 -0.2279 -0.2061 -0.0242
   71CHL1   H1A 6405   2.290   6.266   3.170  0.2031 -0.9981  1.1335
   71CHL1   H1B 6406   2.444   6.208   3.130 -0.3434 -0.9064  0.7993
   71CHL1    C2 6407   2.324   6.243   2.956 -0.2874 -0.0576 -0.8014
   71CHL1   H2A 6408   2.354   6.348   2.934  2.3202 -0.1472  1.7871
   71CHL1   H2B 6409   2.218   6.226   2.928 -0.0351 -1.0198 -1.2283
   71CHL1   C20 6410   2.434   5.887   3.816  0.3883  0.4643 -0.0540
   71CHL1   H20 6411   2.346   5.954   3.825  0.9460  1.3067 -0.8058
   71CHL1   C21 6412   2.547   5.933   3.907  1.0568 -0.2964 -0.4133
   71CHL1  H21A 6413   2.529   6.042   3.913 -1.1366 -0.6757  0.6844
   71CHL1  H21B 6414   2.645   5.923   3.854  0.9725  0.2863 -0.6877
   71CHL1  H21C 6415   2.549   5.889   4.009  1.7073 -1.2100 -0.8051
   71CHL1   C22 6416   2.380   5.751   3.863 -0.2752  0.3242  0.1826
   71CHL1  H22A 6417   2.329   5.708   3.774  2.0668 -3.0718  0.2996
   71CHL1  H22B 6418   2.466   5.688   3.895 -1.6866 -1.3120  0.8932
   71CHL1   C23 6419   2.285   5.767   3.976  0.1337 -0.1927 -0.5033
   71CHL1  H23A 6420   2.336   5.838   4.044  2.5119 -1.4228 -0.9142
   71CHL1  H23B 6421   2.197   5.829   3.948 -0.1074 -0.0416  0.5216
   71CHL1   C24 6422   2.242   5.645   4.054 -0.0434  0.1085  0.3671
   71CHL1  H24A 6423   2.161   5.589   4.002  1.5021  0.2733 -2.4318
   71CHL1  H24B 6424   2.319   5.566   4.070 -1.2489 -1.8518 -2.5899
   71CHL1   C25 6425   2.206   5.682   4.202 -0.6449 -0.0542 -0.0446
   71CHL1   H25 6426   2.298   5.736   4.233 -0.4986  0.0214 -0.6028
   71CHL1   C26 6427   2.073   5.756   4.212  0.0905 -0.6998 -0.4746
   71CHL1  H26A 6428   2.078   5.857   4.166 -0.2525 -0.0034  0.9629
   71CHL1  H26B 6429   1.994   5.694   4.165  0.1618  0.7540 -2.6555
   71CHL1  H26C 6430   2.059   5.766   4.322  2.4122  1.0929 -0.2555
   71CHL1   C27 6431   2.207   5.566   4.291  0.9881 -0.0840  0.3914
   71CHL1  H27A 6432   2.182   5.602   4.393 -1.5147  2.0300 -0.8330
   71CHL1  H27B 6433   2.118   5.501   4.277  0.8039 -0.0756  1.4448
   71CHL1  H27C 6434   2.303   5.511   4.294  1.5793  0.9425  0.9766
   72CHL1    C3 6435   2.959   6.012   2.962  0.5058 -0.4424 -0.1006
   72CHL1    H3 6436   2.970   6.122   2.950  2.4731 -0.4965  0.7961
   72CHL1    O3 6437   2.953   5.945   2.839 -0.6447  0.2861  0.4889
   72CHL1   H3' 6438   3.024   5.997   2.799 -1.7039  1.1735 -0.3122
   72CHL1    C4 6439   3.091   5.969   3.025  0.1089 -0.5326 -0.4604
   72CHL1   H4A 6440   3.098   5.858   3.021 -1.9437 -0.6833 -1.3936
   72CHL1   H4B 6441   3.185   6.003   2.977  0.7674  0.1233  1.2050
   72CHL1    C5 6442   3.100   6.026   3.175  0.0229 -0.1632  0.5189
   72CHL1    C6 6443   3.201   6.100   3.213 -0.1382  0.0771  0.5136
   72CHL1    H6 6444   3.279   6.121   3.139 -0.2468 -1.0000  0.0770
   72CHL1    C7 6445   3.225   6.155   3.352  0.2641  0.0051  0.0980
   72CHL1   H7A 6446   3.325   6.123   3.389  0.0626 -3.1504 -1.6953
   72CHL1   H7B 6447   3.222   6.264   3.333 -0.3635  0.1909  1.1982
   72CHL1    C8 6448   3.128   6.098   3.452  0.2415 -0.2760  0.1173
   72CHL1    H8 6449   3.175   6.000   3.470  1.2964  0.2122  0.0976
   72CHL1   C14 6450   3.123   6.185   3.577 -0.2844  0.7871 -0.1072
   72CHL1   H14 6451   3.068   6.276   3.544 -0.0703  0.1496 -2.3759
   72CHL1   C15 6452   3.264   6.221   3.633 -0.2263 -0.2228 -0.7923
   72CHL1  H15A 6453   3.344   6.146   3.615  0.4499 -0.3432  2.1606
   72CHL1  H15B 6454   3.295   6.323   3.603  1.2341  0.1230  1.6118
   72CHL1   C16 6455   3.233   6.243   3.778  0.0641 -0.3486 -0.2104
   72CHL1  H16A 6456   3.303   6.193   3.847 -0.3972  0.7316  1.1004
   72CHL1  H16B 6457   3.253   6.346   3.815  1.0010 -0.3115 -0.7779
   72CHL1   C17 6458   3.084   6.200   3.799 -0.2013 -0.3051  0.3265
   72CHL1   H17 6459   3.023   6.293   3.796  0.2637  0.1816  3.0576
   72CHL1   C13 6460   3.047   6.116   3.682  0.1584  0.2204  0.4835
   72CHL1   C18 6461   3.108   5.977   3.717 -0.1720  0.1401  0.6926
   72CHL1  H18A 6462   3.040   5.908   3.771 -1.9928  1.1217 -0.2487
   72CHL1  H18B 6463   3.128   5.925   3.621  1.3903  3.3489 -0.9002
   72CHL1  H18C 6464   3.199   5.989   3.781 -1.8629  1.8284  2.9564
   72CHL1   C12 6465   2.899   6.118   3.631 -0.4205 -0.5613 -0.1936
   72CHL1  H12A 6466   2.821   6.077   3.698  0.6542 -0.8651  0.9064
   72CHL1  H12B 6467   2.867   6.222   3.607  1.4570  0.0056 -0.4566
   72CHL1   C11 6468   2.893   6.024   3.507  0.0756  0.2371 -0.1311
   72CHL1  H11A 6469   2.909   5.917   3.534 -2.4147 -0.6972 -1.9991
   72CHL1  H11B 6470   2.787   6.031   3.475  0.1241  0.8280 -0.1775
   72CHL1    C9 6471   2.983   6.081   3.397  0.1210 -0.6136 -0.5019
   72CHL1    H9 6472   2.946   6.183   3.373 -0.3423 -0.5447  0.4739
   72CHL1   C10 6473   2.978   6.000   3.260  0.1774  0.3640  0.4252
   72CHL1   C19 6474   2.960   5.849   3.280 -0.1166  0.0943  0.2644
   72CHL1  H19A 6475   2.975   5.793   3.185  0.5184 -2.0163  1.5569
   72CHL1  H19B 6476   3.045   5.812   3.341 -0.7997  1.2061  1.9703
   72CHL1  H19C 6477   2.864   5.823   3.329 -1.1784  1.8487 -0.7605
   72CHL1    C1 6478   2.845   6.042   3.190  0.0060 -0.6494 -0.1420
   72CHL1   H1A 6479   2.754   6.017   3.249  0.1402  0.7828  0.7370
   72CHL1   H1B 6480   2.841   6.151   3.168  0.7922 -1.0260 -2.4412
   72CHL1    C2 6481   2.835   5.981   3.045 -0.1120  0.5595  0.1329
   72CHL1   H2A 6482   2.740   6.016   3.000 -0.6668  0.4031  1.1604
   72CHL1   H2B 6483   2.838   5.870   3.042 -1.4240  0.4942  0.6794
   72CHL1   C20 6484   3.057   6.153   3.947  1.0039 -0.3093  0.6723
   72CHL1   H20 6485   3.109   6.056   3.959  1.4357 -0.0807  0.6784
   72CHL1   C21 6486   2.903   6.122   3.965 -1.2354  0.0248  0.1543
   72CHL1  H21A 6487   2.884   6.092   4.070  0.3604  0.2508  0.5361
   72CHL1  H21B 6488   2.873   6.043   3.893 -1.8380  1.1913 -0.9132
   72CHL1  H21C 6489   2.837   6.209   3.946 -0.5044  0.5569  0.0055
   72CHL1   C22 6490   3.106   6.237   4.063  0.3850 -0.2394  0.2632
   72CHL1  H22A 6491   3.188   6.306   4.033 -1.4094  2.0730  0.4648
   72CHL1  H22B 6492   3.039   6.323   4.083 -0.7321 -1.4221  1.7988
   72CHL1   C23 6493   3.141   6.144   4.183 -0.8750  0.4032 -0.5329
   72CHL1  H23A 6494   3.052   6.079   4.198 -2.4879  2.0676 -2.4067
   72CHL1  H23B 6495   3.230   6.081   4.160 -0.9138 -0.7379  2.1112
   72CHL1   C24 6496   3.188   6.219   4.306  0.7811  0.0269  0.0736
   72CHL1  H24A 6497   3.275   6.280   4.275  2.4332 -1.8607  0.8579
   72CHL1  H24B 6498   3.106   6.291   4.332 -0.5238 -1.8121  1.3352
   72CHL1   C25 6499   3.222   6.134   4.435 -0.8749 -0.4454  0.0891
   72CHL1   H25 6500   3.133   6.072   4.461 -0.8784 -2.9179 -4.6066
   72CHL1   C26 6501   3.329   6.028   4.405 -0.0490 -0.3968  0.7418
   72CHL1  H26A 6502   3.354   5.959   4.488  0.2435 -1.3544 -0.1123
   72CHL1  H26B 6503   3.300   5.952   4.329  0.3450  0.7672 -0.6306
   72CHL1  H26C 6504   3.422   6.074   4.363 -0.9738  1.0911  0.2205
   72CHL1   C27 6505   3.255   6.232   4.550  0.4919 -0.3520 -0.2091
   72CHL1  H27A 6506   3.171   6.303   4.561  1.5448  0.5439  3.1499
   72CHL1  H27B 6507   3.270   6.174   4.643  0.4105 -1.9815 -1.1598
   72CHL1  H27C 6508   3.346   6.292   4.526 -0.1590 -0.0881 -2.2083
   73CHL1    C3 6509   3.214   6.393   2.904 -0.1779  0.2285 -0.1245
   73CHL1    H3 6510   3.195   6.298   2.958  2.1607 -0.6774 -0.7904
   73CHL1    O3 6511   3.200   6.384   2.765 -0.6939  0.5672 -0.2242
   73CHL1   H3' 6512   3.251   6.459   2.734 -0.7687  0.3465 -0.8915
   73CHL1    C4 6513   3.124   6.506   2.952  0.3488 -1.0529  0.1333
   73CHL1   H4A 6514   3.148   6.600   2.897  0.5224 -0.6672  0.8544
   73CHL1   H4B 6515   3.021   6.474   2.926  0.8809 -2.3812 -0.3840
   73CHL1    C5 6516   3.140   6.540   3.100  0.0336 -0.0150 -0.0698
   73CHL1    C6 6517   3.037   6.542   3.188  0.3353 -0.4521  0.4368
   73CHL1    H6 6518   2.932   6.516   3.167 -0.1539 -0.8247  2.9247
   73CHL1    C7 6519   3.058   6.570   3.332  0.1586  0.3047  0.0369
   73CHL1   H7A 6520   2.971   6.629   3.368  0.0702 -0.3714  0.9641
   73CHL1   H7B 6521   3.055   6.473   3.387  0.9972  0.8472  1.0537
   73CHL1    C8 6522   3.184   6.636   3.372 -0.6029 -0.1620 -0.2861
   73CHL1    H8 6523   3.162   6.741   3.345  0.7374  0.3798  0.5843
   73CHL1   C14 6524   3.223   6.623   3.521  0.2585 -0.6692  0.1995
   73CHL1   H14 6525   3.233   6.513   3.533 -2.9685 -1.2075 -0.9472
   73CHL1   C15 6526   3.121   6.655   3.630 -0.1303 -0.1674  0.5613
   73CHL1  H15A 6527   3.081   6.752   3.595  1.8658 -0.1145 -1.8480
   73CHL1  H15B 6528   3.038   6.584   3.650 -0.8745  1.1263  2.3367
   73CHL1   C16 6529   3.210   6.677   3.756  0.3112  0.0378 -0.5395
   73CHL1  H16A 6530   3.177   6.775   3.797  0.1293 -0.1534 -0.2240
   73CHL1  H16B 6531   3.183   6.601   3.832 -0.3312  1.0822  0.3067
   73CHL1   C17 6532   3.358   6.670   3.709  0.0211 -0.4358 -0.2255
   73CHL1   H17 6533   3.394   6.565   3.719  1.2112  0.0188  0.5024
   73CHL1   C13 6534   3.352   6.694   3.556 -0.7917  0.1491 -0.0822
   73CHL1   C18 6535   3.332   6.848   3.533 -0.3824 -0.5635 -0.4188
   73CHL1  H18A 6536   3.412   6.905   3.585 -0.4513 -1.8818  1.2276
   73CHL1  H18B 6537   3.323   6.893   3.432 -0.0565  4.1144  1.3947
   73CHL1  H18C 6538   3.241   6.879   3.589 -0.1815  0.8824 -0.8384
   73CHL1   C12 6539   3.471   6.642   3.476  0.0199  0.6364 -0.1964
   73CHL1  H12A 6540   3.564   6.696   3.506  1.1251 -0.8584 -0.8125
   73CHL1  H12B 6541   3.485   6.535   3.499 -0.4591  0.0567 -2.3728
   73CHL1   C11 6542   3.444   6.655   3.330  0.2972 -0.1450  0.3017
   73CHL1  H11A 6543   3.455   6.762   3.304  0.0489  0.3422  2.0466
   73CHL1  H11B 6544   3.530   6.600   3.286 -0.3076  0.1262 -1.2810
   73CHL1    C9 6545   3.304   6.589   3.292 -0.0767  0.7028 -0.7269
   73CHL1    H9 6546   3.315   6.485   3.327 -1.7523  0.2672 -1.4079
   73CHL1   C10 6547   3.280   6.578   3.143  0.5699  0.2225 -0.2234
   73CHL1   C19 6548   3.324   6.712   3.081 -0.1726 -0.3686  0.3089
   73CHL1  H19A 6549   3.279   6.726   2.980  1.5915 -2.4415 -0.8778
   73CHL1  H19B 6550   3.299   6.796   3.149 -1.0788 -1.3452  1.2097
   73CHL1  H19C 6551   3.434   6.727   3.067 -0.2202  0.0515  0.3906
   73CHL1    C1 6552   3.375   6.461   3.088 -0.1905 -0.3228  0.3840
   73CHL1   H1A 6553   3.477   6.504   3.092  0.1418 -0.6304 -2.6581
   73CHL1   H1B 6554   3.360   6.371   3.151 -0.7899 -1.1336 -0.8625
   73CHL1    C2 6555   3.363   6.423   2.935  0.3108 -0.4187 -0.2418
   73CHL1   H2A 6556   3.435   6.346   2.902  0.4524 -0.2887 -0.2355
   73CHL1   H2B 6557   3.402   6.517   2.891  2.0839 -1.0647 -0.0988
   73CHL1   C20 6558   3.455   6.747   3.800  0.6948 -0.2093 -0.6837
   73CHL1   H20 6559   3.418   6.852   3.801 -0.4830 -0.5868  1.1404
   73CHL1   C21 6560   3.602   6.743   3.743  0.1976 -0.0912  0.0582
   73CHL1  H21A 6561   3.606   6.809   3.654 -0.0465 -1.5667 -1.0826
   73CHL1  H21B 6562   3.636   6.638   3.732  0.9498 -0.0029  1.2865
   73CHL1  H21C 6563   3.672   6.795   3.812 -0.2725  1.1446 -0.3692
   73CHL1   C22 6564   3.452   6.707   3.945  0.0614 -0.7264 -0.4854
   73CHL1  H22A 6565   3.525   6.769   4.001 -1.6297 -0.2400  1.2745
   73CHL1  H22B 6566   3.349   6.725   3.982  0.0451  1.4123 -1.4512
   73CHL1   C23 6567   3.495   6.559   3.963 -0.1968  0.1025  0.4654
   73CHL1  H23A 6568   3.418   6.487   3.927 -0.2503  0.3354  0.1119
   73CHL1  H23B 6569   3.584   6.535   3.900 -0.0105 -0.8122  1.0522
   73CHL1   C24 6570   3.526   6.512   4.103 -0.0796 -0.7253 -0.4101
   73CHL1  H24A 6571   3.587   6.584   4.162 -3.0753 -0.3684  2.5443
   73CHL1  H24B 6572   3.432   6.511   4.163 -1.9953 -0.8554 -3.2222
   73CHL1   C25 6573   3.599   6.373   4.108 -0.7986  0.3275 -0.7642
   73CHL1   H25 6574   3.707   6.378   4.080 -0.2625 -2.0309  0.5823
   73CHL1   C26 6575   3.600   6.310   4.251 -0.5697 -0.1073 -0.9443
   73CHL1  H26A 6576   3.657   6.215   4.259  2.5505  1.7757  1.1442
   73CHL1  H26B 6577   3.650   6.387   4.313  2.3448 -0.6512 -2.4333
   73CHL1  H26C 6578   3.496   6.286   4.283 -1.1804  0.6784 -2.2618
   73CHL1   C27 6579   3.538   6.269   4.016 -0.1764 -0.3770 -0.1435
   73CHL1  H27A 6580   3.609   6.184   4.014  0.6428  0.2784  0.4576
   73CHL1  H27B 6581   3.442   6.237   4.063  0.3966 -0.6194  0.8818
   73CHL1  H27C 6582   3.526   6.308   3.912  1.6214  1.2261  0.1918
   74CHL1    C3 6583   3.878   6.390   2.777  0.4351  0.4466  0.3089
   74CHL1    H3 6584   3.892   6.280   2.786  0.8074  0.5628  1.2368
   74CHL1    O3 6585   3.849   6.414   2.638 -0.7941 -0.1743  0.2320
   74CHL1   H3' 6586   3.805   6.499   2.626 -1.1193 -0.5999 -1.9063
   74CHL1    C4 6587   3.763   6.423   2.872 -0.3931 -0.4155 -0.7356
   74CHL1   H4A 6588   3.743   6.531   2.854  1.0730  0.0533  0.2893
   74CHL1   H4B 6589   3.682   6.353   2.843  0.1344 -1.7742  0.9640
   74CHL1    C5 6590   3.790   6.397   3.019 -0.5329 -0.0414 -0.5787
   74CHL1    C6 6591   3.723   6.297   3.090  0.0930 -0.2295 -0.0937
   74CHL1    H6 6592   3.638   6.244   3.044 -0.1342 -0.2104  0.3067
   74CHL1    C7 6593   3.743   6.270   3.233  0.4461 -0.1405  0.0894
   74CHL1   H7A 6594   3.645   6.264   3.286  1.1149  1.2647  1.5723
   74CHL1   H7B 6595   3.787   6.169   3.248 -0.5791 -0.9125 -1.7384
   74CHL1    C8 6596   3.830   6.376   3.310 -0.1998  0.3061  0.2209
   74CHL1    H8 6597   3.761   6.462   3.326 -2.9209 -1.6174 -0.5459
   74CHL1   C14 6598   3.868   6.324   3.442 -0.6404 -0.0740 -0.6439
   74CHL1   H14 6599   3.936   6.238   3.426 -0.7489 -0.5011  0.9627
   74CHL1   C15 6600   3.764   6.275   3.540  0.1030  0.3243 -0.1132
   74CHL1  H15A 6601   3.678   6.345   3.552 -0.4100 -0.5625  1.7901
   74CHL1  H15B 6602   3.735   6.172   3.511  0.0491  0.6274 -1.1668
   74CHL1   C16 6603   3.836   6.265   3.670  0.0616 -0.1325  0.0465
   74CHL1  H16A 6604   3.776   6.310   3.753  0.5845  1.8830 -0.5988
   74CHL1  H16B 6605   3.852   6.163   3.711  1.6383 -0.1173 -0.4495
   74CHL1   C17 6606   3.977   6.332   3.661  0.3229  0.0882 -0.0687
   74CHL1   H17 6607   4.053   6.257   3.629  1.3596  2.5708 -4.1679
   74CHL1   C13 6608   3.961   6.413   3.529 -0.0687 -0.5022 -0.4041
   74CHL1   C18 6609   3.884   6.542   3.553  0.2507  0.3264 -0.4066
   74CHL1  H18A 6610   3.795   6.537   3.619  1.8383  1.2672  1.9389
   74CHL1  H18B 6611   3.958   6.611   3.599 -1.4233  0.9455  1.5382
   74CHL1  H18C 6612   3.842   6.599   3.467 -1.0827  1.3222  0.8440
   74CHL1   C12 6613   4.091   6.438   3.445 -0.4588  0.9616  0.0223
   74CHL1  H12A 6614   4.175   6.497   3.487 -0.2703 -0.8786  2.4432
   74CHL1  H12B 6615   4.132   6.335   3.438 -1.5424  0.3967  1.4530
   74CHL1   C11 6616   4.054   6.497   3.305  0.1310  0.1517 -0.9051
   74CHL1  H11A 6617   4.015   6.599   3.326 -0.9333 -0.5544  0.8239
   74CHL1  H11B 6618   4.150   6.499   3.250 -0.9085 -1.9604 -2.9532
   74CHL1    C9 6619   3.947   6.411   3.223 -0.2538 -0.3557 -0.7346
   74CHL1    H9 6620   4.009   6.320   3.210  0.6707  0.1649 -0.1441
   74CHL1   C10 6621   3.915   6.466   3.088 -0.1924  0.0179 -0.6548
   74CHL1   C19 6622   3.875   6.616   3.100  0.2426  0.0521 -0.0837
   74CHL1  H19A 6623   3.827   6.659   3.009  2.0152  1.8911 -0.2349
   74CHL1  H19B 6624   3.802   6.625   3.183 -0.2105  0.9320 -0.5559
   74CHL1  H19C 6625   3.966   6.678   3.110  0.9959 -0.8203 -1.2255
   74CHL1    C1 6626   4.027   6.444   2.980  0.4229 -0.0186 -0.1303
   74CHL1   H1A 6627   4.108   6.511   3.014  1.4947 -0.8562 -0.9823
   74CHL1   H1B 6628   4.075   6.344   2.986  2.2898  0.9082  1.1651
   74CHL1    C2 6629   4.006   6.465   2.824  0.2569 -0.2355 -0.7887
   74CHL1   H2A 6630   4.090   6.427   2.763  3.4837  2.3701  1.6833
   74CHL1   H2B 6631   3.997   6.574   2.804 -1.3506  0.1489  1.5857
   74CHL1   C20 6632   4.018   6.397   3.793  0.0827  0.0686  0.1364
   74CHL1   H20 6633   3.945   6.479   3.812 -0.7865 -0.0139 -2.4147
   74CHL1   C21 6634   4.150   6.475   3.775 -0.1011 -0.2486 -0.4927
   74CHL1  H21A 6635   4.229   6.401   3.754 -2.6290 -2.4501 -3.0675
   74CHL1  H21B 6636   4.170   6.536   3.866  0.6532  0.4544 -1.1190
   74CHL1  H21C 6637   4.140   6.546   3.689 -0.6333  0.9800  0.5444
   74CHL1   C22 6638   4.023   6.302   3.913  0.6877 -0.3726 -0.7726
   74CHL1  H22A 6639   3.925   6.252   3.929  0.8235 -0.2939  0.4019
   74CHL1  H22B 6640   4.090   6.219   3.884 -1.6925 -1.6522 -3.0290
   74CHL1   C23 6641   4.061   6.357   4.051 -0.8833  0.2285 -0.1088
   74CHL1  H23A 6642   4.162   6.402   4.038 -1.3100  0.8926 -1.2201
   74CHL1  H23B 6643   3.996   6.443   4.079 -0.4009  1.4670 -2.5799
   74CHL1   C24 6644   4.054   6.248   4.157 -0.2289  0.4320  0.2086
   74CHL1  H24A 6645   3.958   6.191   4.151 -0.1291 -0.0230  2.2361
   74CHL1  H24B 6646   4.128   6.173   4.122 -2.3993 -1.0357 -1.5953
   74CHL1   C25 6647   4.086   6.292   4.303  0.1761 -0.2512 -0.3657
   74CHL1   H25 6648   4.040   6.389   4.331  2.3765  0.9778 -0.8355
   74CHL1   C26 6649   4.022   6.189   4.396  0.5812  0.5698 -0.1914
   74CHL1  H26A 6650   4.051   6.206   4.502 -0.4179  1.5547 -0.0551
   74CHL1  H26B 6651   3.911   6.197   4.389  0.4773  1.5534  1.7386
   74CHL1  H26C 6652   4.064   6.092   4.365 -0.2492  0.5624 -1.3515
   74CHL1   C27 6653   4.235   6.310   4.333 -0.4781  0.4789 -0.1207
   74CHL1  H27A 6654   4.286   6.349   4.243 -0.9688  1.6070  0.0769
   74CHL1  H27B 6655   4.253   6.365   4.428  1.5964  3.7744 -2.2222
   74CHL1  H27C 6656   4.270   6.206   4.350 -0.0698  0.6864  0.3330
   75CHL1    C3 6657   1.656   4.883   2.739  0.2035  0.4436 -0.4877
   75CHL1    H3 6658   1.624   4.786   2.782 -0.7562  0.3999 -1.2730
   75CHL1    O3 6659   1.659   4.872   2.597 -0.4703  0.5138  0.2742
   75CHL1   H3' 6660   1.718   4.932   2.551  0.6109 -0.9499 -0.3164
   75CHL1    C4 6661   1.555   4.997   2.786 -0.6845 -0.1543 -1.1052
   75CHL1   H4A 6662   1.586   5.086   2.728 -0.0613 -0.1104 -0.7055
   75CHL1   H4B 6663   1.458   4.957   2.749  0.8686 -2.8435 -2.6546
   75CHL1    C5 6664   1.561   5.020   2.940 -0.1670  0.1202 -0.1108
   75CHL1    C6 6665   1.449   4.992   3.018  0.0377 -0.0791  0.0423
   75CHL1    H6 6666   1.352   4.970   2.972 -1.1558 -0.0337  2.3598
   75CHL1    C7 6667   1.448   5.006   3.168 -0.4568 -0.2815  0.0692
   75CHL1   H7A 6668   1.350   5.054   3.190 -0.5766  0.7161 -2.3158
   75CHL1   H7B 6669   1.446   4.903   3.209  0.6149  0.1789  1.3392
   75CHL1    C8 6670   1.578   5.078   3.226 -0.4794 -0.3376  0.4451
   75CHL1    H8 6671   1.566   5.181   3.188  1.4513  0.2282  1.2308
   75CHL1   C14 6672   1.586   5.070   3.372  0.8364 -0.1382 -0.0806
   75CHL1   H14 6673   1.579   4.962   3.395  2.1431  0.3863  3.5577
   75CHL1   C15 6674   1.476   5.137   3.458  0.4852 -0.2726 -0.2491
   75CHL1  H15A 6675   1.450   5.239   3.424 -1.1769 -0.9065 -0.9929
   75CHL1  H15B 6676   1.378   5.084   3.456 -0.2525  0.7280  3.3249
   75CHL1   C16 6677   1.536   5.130   3.599 -0.1763 -0.0399 -0.0797
   75CHL1  H16A 6678   1.521   5.228   3.649 -2.5514 -1.5931  2.5262
   75CHL1  H16B 6679   1.480   5.054   3.657 -0.1645  1.5433  2.1249
   75CHL1   C17 6680   1.687   5.096   3.585 -0.2441  0.0699 -0.0799
   75CHL1   H17 6681   1.697   4.986   3.595 -1.3658 -0.1210 -0.8735
   75CHL1   C13 6682   1.721   5.119   3.436  0.0667  0.2023  0.5717
   75CHL1   C18 6683   1.735   5.270   3.395 -0.3900 -0.2155  0.1664
   75CHL1  H18A 6684   1.667   5.341   3.447 -0.6373 -0.9077  0.8033
   75CHL1  H18B 6685   1.832   5.322   3.413 -0.8725  0.8037 -0.0587
   75CHL1  H18C 6686   1.715   5.285   3.287  0.2737  0.5800  0.1421
   75CHL1   C12 6687   1.830   5.030   3.381 -0.0578  0.0001  0.0494
   75CHL1  H12A 6688   1.924   5.059   3.431 -0.4788  0.1798  0.7450
   75CHL1  H12B 6689   1.817   4.922   3.403  3.0470 -0.7407 -1.2212
   75CHL1   C11 6690   1.850   5.050   3.228  0.3685  0.4290 -0.1918
   75CHL1  H11A 6691   1.881   5.155   3.211 -0.5649  1.1734  2.3134
   75CHL1  H11B 6692   1.930   4.984   3.188  0.1219 -1.3194  1.9711
   75CHL1    C9 6693   1.708   5.014   3.158 -0.0427 -0.1139  0.7879
   75CHL1    H9 6694   1.691   4.906   3.179 -1.1246  0.2415  1.8654
   75CHL1   C10 6695   1.703   5.029   3.004  0.1195 -0.3899 -0.3101
   75CHL1   C19 6696   1.757   5.167   2.963 -0.2475 -0.0407  0.3323
   75CHL1  H19A 6697   1.686   5.238   3.011 -1.1422 -1.2091  0.7701
   75CHL1  H19B 6698   1.860   5.190   2.998  1.1825 -2.5616 -1.9015
   75CHL1  H19C 6699   1.767   5.186   2.854 -2.9394 -1.7500 -0.2935
   75CHL1    C1 6700   1.794   4.919   2.946 -0.1320 -0.0559 -0.1704
   75CHL1   H1A 6701   1.895   4.923   2.991  0.3579 -2.9129 -0.8016
   75CHL1   H1B 6702   1.740   4.824   2.969 -0.5008 -0.1684 -1.4253
   75CHL1    C2 6703   1.796   4.904   2.791 -0.0778  0.2199  0.3877
   75CHL1   H2A 6704   1.859   4.818   2.762 -1.1055  0.2228 -2.0552
   75CHL1   H2B 6705   1.841   4.995   2.746  0.6572  0.5905  1.8041
   75CHL1   C20 6706   1.774   5.155   3.698  0.3773 -0.4150 -0.5592
   75CHL1   H20 6707   1.799   5.261   3.677  2.0889 -0.9355 -1.2636
   75CHL1   C21 6708   1.902   5.063   3.718  0.1125 -0.4758 -0.3340
   75CHL1  H21A 6709   1.974   5.126   3.774 -0.6309  1.6780 -1.6845
   75CHL1  H21B 6710   1.944   5.042   3.617 -0.7043  0.8368 -0.9821
   75CHL1  H21C 6711   1.879   4.971   3.776 -0.9133 -0.2559 -0.3762
   75CHL1   C22 6712   1.698   5.161   3.835 -0.0315  0.2914  0.7564
   75CHL1  H22A 6713   1.630   5.248   3.823  0.0521 -0.0029 -3.5814
   75CHL1  H22B 6714   1.639   5.067   3.832  1.5993 -0.7486  0.0471
   75CHL1   C23 6715   1.773   5.183   3.962 -0.0819  0.2973 -1.2237
   75CHL1  H23A 6716   1.826   5.086   3.972 -1.2926 -0.2299  0.4917
   75CHL1  H23B 6717   1.842   5.270   3.959 -0.1237  0.5466  2.1167
   75CHL1   C24 6718   1.690   5.206   4.097 -0.0186  0.0927  0.6011
   75CHL1  H24A 6719   1.625   5.296   4.087  2.8338  2.2059 -0.1464
   75CHL1  H24B 6720   1.620   5.120   4.103 -1.1294  0.8864 -0.4968
   75CHL1   C25 6721   1.786   5.229   4.218  0.6354 -0.0843 -0.2603
   75CHL1   H25 6722   1.723   5.274   4.297 -0.6752  0.5412 -1.6093
   75CHL1   C26 6723   1.839   5.086   4.265 -0.3749 -0.3379  0.6198
   75CHL1  H26A 6724   1.750   5.021   4.279 -0.7322  0.3230  1.5195
   75CHL1  H26B 6725   1.905   5.034   4.192 -0.0958  0.5946  0.1901
   75CHL1  H26C 6726   1.895   5.090   4.361  1.8534  0.3964 -0.6451
   75CHL1   C27 6727   1.902   5.322   4.203  0.2766 -0.1209 -0.4018
   75CHL1  H27A 6728   1.944   5.335   4.306  1.3186 -3.5540 -0.2470
   75CHL1  H27B 6729   1.988   5.290   4.140 -0.7449 -1.6909 -1.0419
   75CHL1  H27C 6730   1.865   5.425   4.187  0.7238  0.5126  2.1102
   76CHL1    C3 6731   1.662   6.402   2.771 -0.6894 -0.4403  0.0015
   76CHL1    H3 6732   1.639   6.294   2.762 -0.5644 -0.3752 -1.2046
   76CHL1    O3 6733   1.632   6.468   2.657  0.3055 -0.4352  0.1122
   76CHL1   H3' 6734   1.665   6.558   2.669  1.2926 -0.8152  0.3526
   76CHL1    C4 6735   1.576   6.469   2.882 -0.4691  0.4085 -0.4331
   76CHL1   H4A 6736   1.606   6.575   2.890 -0.1520  0.1747  2.9214
   76CHL1   H4B 6737   1.470   6.474   2.848  0.2162  2.1062 -2.4796
   76CHL1    C5 6738   1.591   6.405   3.015  0.0791 -0.8692 -0.3187
   76CHL1    C6 6739   1.489   6.352   3.090 -0.1357 -0.6680 -0.6054
   76CHL1    H6 6740   1.386   6.350   3.051 -0.4417 -2.2787  0.1845
   76CHL1    C7 6741   1.505   6.289   3.234 -0.2127  0.0405  0.4581
   76CHL1   H7A 6742   1.434   6.328   3.311 -0.8763 -0.9759  0.3834
   76CHL1   H7B 6743   1.495   6.178   3.228  0.2013  0.0597 -0.7898
   76CHL1    C8 6744   1.641   6.316   3.301  0.1898  0.0417  0.4799
   76CHL1    H8 6745   1.645   6.421   3.338  1.2186 -0.2474  1.2516
   76CHL1   C14 6746   1.668   6.224   3.419 -0.3029 -0.0826  0.1416
   76CHL1   H14 6747   1.662   6.125   3.369 -1.2163  1.1850 -2.4593
   76CHL1   C15 6748   1.565   6.211   3.533 -0.3183 -0.2699  0.0697
   76CHL1  H15A 6749   1.530   6.312   3.563  0.3102 -0.3105  0.9625
   76CHL1  H15B 6750   1.469   6.161   3.511  0.0276 -0.9442  0.0689
   76CHL1   C16 6751   1.647   6.153   3.650  0.5136 -0.8183  0.1349
   76CHL1  H16A 6752   1.644   6.222   3.737 -1.4429 -0.4526 -0.1567
   76CHL1  H16B 6753   1.605   6.055   3.684  1.8776 -2.4173 -2.4846
   76CHL1   C17 6754   1.789   6.121   3.595  0.0151 -0.6608 -0.4957
   76CHL1   H17 6755   1.775   6.022   3.547 -2.6452  0.3530 -2.0257
   76CHL1   C13 6756   1.809   6.227   3.483 -0.3922 -0.2724  0.5679
   76CHL1   C18 6757   1.835   6.368   3.544 -0.3734 -0.8257  0.3217
   76CHL1  H18A 6758   1.827   6.454   3.474  1.3548  1.6542  2.9617
   76CHL1  H18B 6759   1.763   6.383   3.627 -2.2924 -0.4982 -1.3010
   76CHL1  H18C 6760   1.937   6.385   3.584  0.8448 -1.5711 -2.2340
   76CHL1   C12 6761   1.911   6.201   3.366  0.4388 -0.0458  0.2024
   76CHL1  H12A 6762   2.016   6.205   3.399  0.9078 -0.3299 -1.1803
   76CHL1  H12B 6763   1.878   6.103   3.324 -1.8100  0.4199  0.7489
   76CHL1   C11 6764   1.888   6.299   3.247 -0.7088  0.7389 -0.2064
   76CHL1  H11A 6765   1.919   6.397   3.290  0.5711 -0.3269  1.4442
   76CHL1  H11B 6766   1.965   6.275   3.170 -1.9518 -0.5784 -1.0860
   76CHL1    C9 6767   1.750   6.305   3.189 -0.7455  0.5239 -0.3091
   76CHL1    H9 6768   1.730   6.203   3.151  0.3935  0.0340  0.3845
   76CHL1   C10 6769   1.732   6.402   3.072 -0.3339 -0.3573  0.1526
   76CHL1   C19 6770   1.761   6.550   3.116  0.9242 -0.5084 -0.2428
   76CHL1  H19A 6771   1.681   6.583   3.186  2.1231 -0.0378  0.9514
   76CHL1  H19B 6772   1.854   6.569   3.173  1.5892 -0.8876 -1.1909
   76CHL1  H19C 6773   1.770   6.622   3.032  0.5481  0.2851  0.3776
   76CHL1    C1 6774   1.830   6.360   2.956  0.5454  0.6753 -0.1605
   76CHL1   H1A 6775   1.936   6.375   2.984  0.8092 -1.0675 -0.1158
   76CHL1   H1B 6776   1.816   6.251   2.964  1.1522  0.5549 -0.6527
   76CHL1    C2 6777   1.811   6.409   2.811 -0.6396 -0.0653 -0.3628
   76CHL1   H2A 6778   1.870   6.349   2.739 -1.3510 -0.0604 -0.9536
   76CHL1   H2B 6779   1.841   6.516   2.803 -1.1650  0.0746 -0.4758
   76CHL1   C20 6780   1.889   6.108   3.719 -0.0184  0.1851  0.3277
   76CHL1   H20 6781   1.909   6.214   3.747  1.9534  0.0135 -0.3112
   76CHL1   C21 6782   2.023   6.062   3.657 -0.5526 -0.2258 -0.6792
   76CHL1  H21A 6783   2.098   6.065   3.739 -1.6286  2.1781  0.3118
   76CHL1  H21B 6784   2.075   6.115   3.573  2.0291 -0.9769  0.3275
   76CHL1  H21C 6785   2.009   5.960   3.617  0.4556 -0.2883 -0.9133
   76CHL1   C22 6786   1.832   6.034   3.840 -0.1872  0.1490  0.6835
   76CHL1  H22A 6787   1.909   6.046   3.920  0.3439  0.0539  0.1966
   76CHL1  H22B 6788   1.740   6.076   3.885 -1.5953 -0.5886 -1.3753
   76CHL1   C23 6789   1.813   5.880   3.814  0.8029 -0.4663 -0.3662
   76CHL1  H23A 6790   1.746   5.893   3.727 -0.1726 -2.1428  0.0867
   76CHL1  H23B 6791   1.912   5.834   3.795  1.5684  0.7638  0.5034
   76CHL1   C24 6792   1.743   5.814   3.930 -0.1930  0.1278  0.0735
   76CHL1  H24A 6793   1.822   5.819   4.007  1.2154  0.3177 -1.3340
   76CHL1  H24B 6794   1.653   5.873   3.958  0.6377  1.1087  0.7577
   76CHL1   C25 6795   1.695   5.673   3.909 -0.1925  0.1693 -0.8169
   76CHL1   H25 6796   1.620   5.675   3.827 -0.2205  2.6259 -0.8014
   76CHL1   C26 6797   1.812   5.578   3.861  0.1098 -0.1965 -0.7717
   76CHL1  H26A 6798   1.769   5.476   3.861 -1.7225  0.5236 -0.0516
   76CHL1  H26B 6799   1.840   5.605   3.757  0.7470  2.7426  0.0593
   76CHL1  H26C 6800   1.895   5.583   3.935  0.5666 -1.0557 -1.2145
   76CHL1   C27 6801   1.634   5.618   4.041 -1.1549  0.4216  0.5359
   76CHL1  H27A 6802   1.642   5.508   4.057  0.5981  0.4782  0.2655
   76CHL1  H27B 6803   1.702   5.650   4.123 -0.6415  0.6540  0.0256
   76CHL1  H27C 6804   1.532   5.660   4.057 -1.5617 -0.8281  1.3569
   77SOPE     N 6805   5.128   4.451   6.741  0.1709 -0.2651 -0.5604
   77SOPE   HN1 6806   5.128   4.411   6.645 -1.2348  0.0299 -0.7026
   77SOPE   HN2 6807   5.211   4.511   6.761 -0.8986  0.8935  0.6248
   77SOPE   HN3 6808   5.129   4.379   6.816 -2.3747 -0.4536 -0.6018
   77SOPE   C12 6809   5.010   4.536   6.757  0.7469  0.0315 -0.6256
   77SOPE  H12A 6810   5.013   4.601   6.666 -1.3188  3.5341  1.5664
   77SOPE  H12B 6811   5.024   4.607   6.841  0.9052  0.3385 -0.9073
   77SOPE   C11 6812   4.878   4.454   6.771  0.2074  0.0540 -1.0292
   77SOPE  H11A 6813   4.796   4.525   6.794  0.0363  0.7798 -3.5170
   77SOPE  H11B 6814   4.887   4.378   6.852 -1.5052 -0.4537 -1.2655
   77SOPE     P 6815   4.723   4.364   6.575  0.1832  0.1088  0.2753
   77SOPE   O13 6816   4.613   4.425   6.656 -0.4197 -0.3040 -0.6224
   77SOPE   O14 6817   4.708   4.225   6.523  0.1085  0.5733 -0.0260
   77SOPE   O12 6818   4.857   4.378   6.655 -0.3397 -0.0891 -0.0446
   77SOPE   O11 6819   4.745   4.463   6.457 -0.7922  0.9758  0.2952
   77SOPE    C1 6820   4.871   4.459   6.383 -1.0168 -0.0941 -0.0197
   77SOPE    HA 6821   4.933   4.370   6.407 -1.4109  0.0246  1.4903
   77SOPE    HB 6822   4.933   4.550   6.397  1.7465 -1.6103 -1.4644
   77SOPE    C2 6823   4.837   4.456   6.230  0.0091 -0.4255  0.0723
   77SOPE    HS 6824   4.789   4.553   6.204 -0.3559  0.1002  2.4138
   77SOPE   O21 6825   4.763   4.340   6.215 -0.8290 -0.1008 -0.3110
   77SOPE   C21 6826   4.681   4.333   6.108  0.6057  0.2603  0.2269
   77SOPE   O22 6827   4.654   4.424   6.029  0.1520  0.4851  0.1748
   77SOPE   C22 6828   4.624   4.190   6.085 -0.1974  0.0507  0.3088
   77SOPE   H2R 6829   4.514   4.189   6.101 -0.5104  0.0288 -1.6040
   77SOPE   H2S 6830   4.653   4.120   6.166  2.1757  0.8854  0.2505
   77SOPE    C3 6831   4.961   4.458   6.143  0.2373  0.0393  0.0714
   77SOPE    HX 6832   5.024   4.369   6.162 -0.6947 -0.6976 -0.2245
   77SOPE    HY 6833   5.021   4.544   6.179  1.3756 -1.8995  3.1567
   77SOPE   O31 6834   4.933   4.480   6.004 -0.0203 -0.3886  0.2984
   77SOPE   C31 6835   4.973   4.391   5.914 -0.2315 -0.2409  0.1617
   77SOPE   O32 6836   5.026   4.283   5.937 -0.4635 -0.5653  0.3662
   77SOPE   C32 6837   4.936   4.426   5.774 -0.1159 -0.1311  0.3623
   77SOPE   H2X 6838   4.968   4.531   5.750 -1.8080 -0.3502 -3.7449
   77SOPE   H2Y 6839   4.826   4.423   5.766 -0.0713  1.7178 -4.1549
   77SOPE   C23 6840   4.652   4.132   5.946  0.1144 -0.2586 -0.4179
   77SOPE   H3R 6841   4.760   4.144   5.925  1.0420 -2.9626  2.1057
   77SOPE   H3S 6842   4.585   4.187   5.876 -4.0091 -1.2834  2.3052
   77SOPE   C24 6843   4.624   3.980   5.943  0.1848  0.6626 -0.5233
   77SOPE   H4R 6844   4.712   3.917   5.966 -0.9123 -0.9164 -0.4951
   77SOPE   H4S 6845   4.536   3.958   6.007  0.0754 -1.2672 -1.2554
   77SOPE   C25 6846   4.594   3.949   5.799  0.0378  0.0122  0.3227
   77SOPE   H5R 6847   4.563   3.842   5.800 -1.6937  0.4799  1.2569
   77SOPE   H5S 6848   4.502   4.008   5.779  0.8493  1.1919  0.0021
   77SOPE   C26 6849   4.701   3.977   5.694  0.2225  0.8543 -0.7496
   77SOPE   H6R 6850   4.737   4.082   5.695 -1.6050  1.5207 -0.3478
   77SOPE   H6S 6851   4.781   3.906   5.723  2.2016  2.8494 -1.0530
   77SOPE   C27 6852   4.647   3.940   5.550 -0.3117  0.3725  0.0889
   77SOPE   H7R 6853   4.576   3.854   5.558  0.7506 -0.4406  1.1394
   77SOPE   H7S 6854   4.577   4.019   5.516 -2.3964 -0.4837  2.1320
   77SOPE   C28 6855   4.764   3.908   5.453  0.1160  0.7323 -0.2833
   77SOPE   H8R 6856   4.718   3.879   5.356  2.4256  0.2908 -1.3035
   77SOPE   H8S 6857   4.824   3.996   5.421  1.8183 -0.5650 -0.7409
   77SOPE   C29 6858   4.862   3.798   5.476  0.0286 -0.5237 -0.4598
   77SOPE   H91 6859   4.911   3.806   5.574  1.1688  1.0047 -1.1008
   77SOPE  C210 6860   4.900   3.701   5.396 -0.5860  0.0429  0.3528
   77SOPE  H101 6861   4.990   3.646   5.427 -0.4622  0.8833  1.5495
   77SOPE  C211 6862   4.848   3.671   5.260  0.3034  0.4642 -0.0249
   77SOPE  H11R 6863   4.839   3.763   5.199 -0.5508  0.2691 -0.2011
   77SOPE  H11S 6864   4.748   3.625   5.273  0.9690 -1.8910 -2.3171
   77SOPE  C212 6865   4.927   3.579   5.172  0.0102  0.3948 -0.3378
   77SOPE  H12R 6866   4.909   3.478   5.214  2.3649  0.2241  0.4332
   77SOPE  H12S 6867   5.035   3.593   5.193  0.3776  0.2444 -1.9373
   77SOPE  C213 6868   4.892   3.587   5.019 -0.5902 -0.0458 -0.4324
   77SOPE  H13R 6869   4.934   3.684   4.984  0.3345 -0.0558  0.5921
   77SOPE  H13S 6870   4.782   3.585   5.003 -0.6023  1.1178 -0.6231
   77SOPE  C214 6871   4.950   3.460   4.957 -0.3220  0.2991 -0.1153
   77SOPE  H14R 6872   4.894   3.367   4.981 -2.2969  1.1059 -1.3714
   77SOPE  H14S 6873   5.051   3.444   5.001 -1.0270 -3.0756  0.5984
   77SOPE  C215 6874   4.941   3.472   4.804 -0.1048 -0.6912  0.1881
   77SOPE  H15R 6875   4.991   3.562   4.764  1.2620 -1.5547 -0.0784
   77SOPE  H15S 6876   4.831   3.479   4.787 -0.2299  0.6059  1.3560
   77SOPE  C216 6877   4.995   3.347   4.717  0.1780 -0.2722 -0.4935
   77SOPE  H16R 6878   4.955   3.356   4.614 -1.3847  2.1098  0.2160
   77SOPE  H16S 6879   4.958   3.264   4.780  3.1077  0.4846  2.5177
   77SOPE  C217 6880   5.151   3.345   4.720  0.2135 -0.1296  0.3372
   77SOPE  H17R 6881   5.177   3.302   4.820 -0.9455 -2.5265 -0.3217
   77SOPE  H17S 6882   5.189   3.449   4.732  0.5841 -0.3340  1.0169
   77SOPE  C218 6883   5.212   3.274   4.595 -0.5156 -0.6211  0.4462
   77SOPE  H18R 6884   5.167   3.318   4.503 -0.3068 -1.0902  0.1187
   77SOPE  H18S 6885   5.184   3.167   4.597 -5.4684  0.4170  0.0124
   77SOPE  H18T 6886   5.319   3.305   4.592 -0.9523  0.9889 -2.8484
   77SOPE   C33 6887   5.003   4.335   5.665  0.0875  0.5546  0.1915
   77SOPE   H3X 6888   4.951   4.236   5.667  3.1239 -1.1473  1.5332
   77SOPE   H3Y 6889   5.113   4.326   5.678 -0.0730 -0.1214  1.1506
   77SOPE   C34 6890   4.987   4.395   5.525 -0.3718 -0.3847  0.4598
   77SOPE   H4X 6891   5.053   4.480   5.499  0.2302 -1.0974 -0.3914
   77SOPE   H4Y 6892   4.878   4.415   5.514 -0.0684 -0.0452 -2.9956
   77SOPE   C35 6893   5.020   4.290   5.413  0.5460 -0.4397 -0.2189
   77SOPE   H5X 6894   4.935   4.218   5.416 -0.9959  1.2141 -1.7312
   77SOPE   H5Y 6895   5.119   4.248   5.441  1.2009  0.2220 -1.4713
   77SOPE   C36 6896   5.040   4.348   5.268  0.5083  0.4506 -0.6496
   77SOPE   H6X 6897   5.114   4.428   5.290  0.8920 -0.2637  0.7982
   77SOPE   H6Y 6898   4.948   4.405   5.243 -0.9264  0.8519  4.3652
   77SOPE   C37 6899   5.090   4.252   5.163  0.0369 -1.4234 -0.3119
   77SOPE   H7X 6900   5.019   4.166   5.167 -0.7614 -0.7588  0.2084
   77SOPE   H7Y 6901   5.191   4.216   5.190  0.2141  0.1688  1.3437
   77SOPE   C38 6902   5.100   4.315   5.025  0.5652 -0.0420  0.0478
   77SOPE   H8X 6903   5.181   4.391   5.022  3.1397 -2.6310 -0.1420
   77SOPE   H8Y 6904   5.002   4.361   4.998 -0.7924 -1.6934  1.8586
   77SOPE   C39 6905   5.142   4.211   4.912  0.4092 -0.3618 -0.0356
   77SOPE   H9X 6906   5.059   4.137   4.909 -0.4956  0.6701 -1.2418
   77SOPE   H9Y 6907   5.237   4.159   4.933  0.1614 -1.1967 -0.9423
   77SOPE  C310 6908   5.170   4.277   4.781 -0.3216  0.2775  0.1182
   77SOPE  H10X 6909   5.262   4.339   4.785  0.2388 -0.4774 -0.6358
   77SOPE  H10Y 6910   5.088   4.349   4.761 -0.4306  0.1522  0.1183
   77SOPE  C311 6911   5.169   4.177   4.667  0.5112  0.0916  0.0353
   77SOPE  H11X 6912   5.093   4.097   4.681  0.2331  0.6751  2.1262
   77SOPE  H11Y 6913   5.273   4.137   4.668  0.7785  0.7399  1.9297
   77SOPE  C312 6914   5.145   4.252   4.533  0.5187 -0.3209 -0.1322
   77SOPE  H12X 6915   5.176   4.192   4.444  0.8618 -0.1295 -0.1398
   77SOPE  H12Y 6916   5.208   4.343   4.528  1.5701 -0.9173  1.4598
   77SOPE  C313 6917   4.994   4.297   4.513 -0.0343  0.3822  0.2296
   77SOPE  H13X 6918   4.951   4.344   4.603  0.1301 -1.3387  1.2540
   77SOPE  H13Y 6919   4.931   4.207   4.497 -1.7077  1.3817  1.0035
   77SOPE  C314 6920   4.976   4.375   4.381 -0.3931  0.5782  0.4329
   77SOPE  H14X 6921   5.033   4.325   4.299 -0.4573  1.4894 -0.1775
   77SOPE  H14Y 6922   5.020   4.474   4.406  0.5205 -0.0956  1.6566
   77SOPE  C315 6923   4.828   4.384   4.330 -0.3548  0.1874 -0.2879
   77SOPE  H15X 6924   4.771   4.435   4.410  0.3781  0.8959 -0.2024
   77SOPE  H15Y 6925   4.777   4.286   4.317  1.7361 -0.9979  0.0287
   77SOPE  C316 6926   4.815   4.462   4.198  0.1988 -0.8026  0.2845
   77SOPE  H16X 6927   4.882   4.424   4.118 -0.9536  0.7593 -1.4861
   77SOPE  H16Y 6928   4.833   4.571   4.209 -0.6541 -0.3492 -2.3026
   77SOPE  C317 6929   4.671   4.468   4.139  0.5501 -0.3819 -0.3932
   77SOPE  H17X 6930   4.597   4.490   4.220  0.6017 -1.5314 -0.0075
   77SOPE  H17Y 6931   4.650   4.359   4.128 -0.8218 -0.1329 -0.4488
   77SOPE  C318 6932   4.662   4.544   4.009  0.6353  0.3042  0.0509
   77SOPE  H18X 6933   4.758   4.531   3.953  1.2705 -1.0765  1.3952
   77SOPE  H18Y 6934   4.659   4.650   4.039 -0.3357  0.6506 -1.2144
   77SOPE  H18Z 6935   4.571   4.507   3.956  1.5517 -0.7784 -0.8442
   78SOPE     N 6936   4.185   4.674   6.740 -0.3515 -0.5524  0.2624
   78SOPE   HN1 6937   4.211   4.684   6.640 -2.8177  0.7067 -0.3325
   78SOPE   HN2 6938   4.245   4.601   6.784  0.1039 -1.9138 -2.4362
   78SOPE   HN3 6939   4.086   4.644   6.732 -0.3512 -0.9493  1.4803
   78SOPE   C12 6940   4.200   4.812   6.800 -0.4149 -0.3245 -0.0410
   78SOPE  H12A 6941   4.305   4.844   6.820 -0.7225  1.7851 -1.4960
   78SOPE  H12B 6942   4.149   4.820   6.898  0.4911  0.7176  0.3703
   78SOPE   C11 6943   4.119   4.925   6.727  0.0738  0.0762  0.0185
   78SOPE  H11A 6944   4.173   4.941   6.631 -1.1991 -1.1303 -0.9315
   78SOPE  H11B 6945   4.127   5.018   6.788  1.8406  0.3173 -0.5136
   78SOPE     P 6946   3.867   4.969   6.651 -0.3494  0.0078  0.0888
   78SOPE   O13 6947   3.931   5.100   6.638  0.1104  0.4155  0.2449
   78SOPE   O14 6948   3.759   4.956   6.756  0.1894  0.2388  0.1535
   78SOPE   O12 6949   3.985   4.872   6.705  0.4398 -0.5251 -0.5819
   78SOPE   O11 6950   3.827   4.914   6.509 -0.2762 -0.0964  0.3928
   78SOPE    C1 6951   3.808   4.781   6.480 -0.7223 -0.3700  0.0640
   78SOPE    HA 6952   3.753   4.784   6.383  0.1475  0.9813 -0.4143
   78SOPE    HB 6953   3.753   4.716   6.552 -2.8115  0.6617 -0.5073
   78SOPE    C2 6954   3.936   4.708   6.448 -0.0862 -1.2014  0.2071
   78SOPE    HS 6955   3.979   4.692   6.549 -1.1726  0.4519  0.9804
   78SOPE   O21 6956   4.023   4.796   6.371 -0.4263 -0.2248 -0.0748
   78SOPE   C21 6957   4.151   4.779   6.389 -0.0149 -0.2648  0.1300
   78SOPE   O22 6958   4.193   4.703   6.477 -0.1255 -0.2858  0.0894
   78SOPE   C22 6959   4.236   4.875   6.304  0.2926  0.0977  1.0137
   78SOPE   H2R 6960   4.335   4.828   6.289 -0.6771 -1.5468 -0.6560
   78SOPE   H2S 6961   4.256   4.957   6.376  0.4222  0.7182  0.2945
   78SOPE    C3 6962   3.911   4.579   6.359 -0.2623 -0.1621  0.5051
   78SOPE    HX 6963   3.853   4.505   6.419  1.2999 -0.1749  2.0788
   78SOPE    HY 6964   4.010   4.531   6.343 -0.4079 -0.0195 -1.0148
   78SOPE   O31 6965   3.834   4.601   6.239 -0.2404  0.2692  0.3398
   78SOPE   C31 6966   3.877   4.549   6.128  0.1224  0.3215  0.1411
   78SOPE   O32 6967   3.979   4.482   6.120 -0.0487 -0.3991 -0.3272
   78SOPE   C32 6968   3.787   4.593   6.016 -0.2889 -0.1562  0.3344
   78SOPE   H2X 6969   3.778   4.704   6.017 -1.7501 -0.1843 -2.0233
   78SOPE   H2Y 6970   3.686   4.548   6.030 -0.3336 -0.7126 -1.5534
   78SOPE   C23 6971   4.181   4.926   6.161  0.0380 -0.0893 -0.5372
   78SOPE   H3R 6972   4.180   5.037   6.156  2.6510  0.0255  0.4024
   78SOPE   H3S 6973   4.077   4.887   6.155  0.3253 -1.1269  0.8885
   78SOPE   C24 6974   4.259   4.869   6.048 -0.4506  0.0935  0.1004
   78SOPE   H4R 6975   4.355   4.926   6.041 -1.1011  1.0646 -4.2699
   78SOPE   H4S 6976   4.276   4.759   6.054  1.9407  0.4841  1.4959
   78SOPE   C25 6977   4.188   4.902   5.910 -0.1468 -0.6545 -1.0165
   78SOPE   H5R 6978   4.100   4.836   5.903 -0.7428 -0.0998  0.6405
   78SOPE   H5S 6979   4.137   5.001   5.919  0.7671 -0.2495  0.0168
   78SOPE   C26 6980   4.273   4.884   5.784 -0.2654 -0.6637  0.4374
   78SOPE   H6R 6981   4.327   4.980   5.779 -0.7437 -0.2446  2.4274
   78SOPE   H6S 6982   4.354   4.809   5.784  2.1336  1.7769  1.5436
   78SOPE   C27 6983   4.191   4.856   5.656 -0.8404 -0.2530 -0.3021
   78SOPE   H7R 6984   4.158   4.750   5.655 -0.8559 -0.2450 -0.8540
   78SOPE   H7S 6985   4.099   4.919   5.653  1.0109  2.9038  2.3618
   78SOPE   C28 6986   4.276   4.883   5.534  0.3397 -0.5095 -0.2593
   78SOPE   H8R 6987   4.202   4.881   5.451  1.0646 -1.3348 -0.9090
   78SOPE   H8S 6988   4.320   4.985   5.532  0.2067 -0.4256 -3.1869
   78SOPE   C29 6989   4.373   4.772   5.526 -0.1584 -0.8864  0.2866
   78SOPE   H91 6990   4.354   4.688   5.595  0.1337 -0.1972  1.2162
   78SOPE  C210 6991   4.472   4.762   5.431  0.1620 -0.6502 -0.1474
   78SOPE  H101 6992   4.542   4.677   5.433  2.2524  0.8410 -2.7945
   78SOPE  C211 6993   4.494   4.869   5.319  0.3732  0.2043 -0.3612
   78SOPE  H11R 6994   4.592   4.919   5.336 -0.2648  0.7910  1.9318
   78SOPE  H11S 6995   4.420   4.950   5.305  0.8598  0.8221  0.5105
   78SOPE  C212 6996   4.496   4.810   5.184 -0.1766 -0.1661  0.6108
   78SOPE  H12R 6997   4.566   4.724   5.182 -0.0356 -0.0303 -0.2897
   78SOPE  H12S 6998   4.536   4.878   5.107 -0.6536 -1.0131 -0.4051
   78SOPE  C213 6999   4.355   4.775   5.131 -0.2656  0.0925  0.1748
   78SOPE  H13R 7000   4.278   4.853   5.147 -0.6384 -0.1048 -0.6375
   78SOPE  H13S 7001   4.316   4.690   5.192  2.8333 -1.2195  0.5489
   78SOPE  C214 7002   4.366   4.723   4.988 -0.5128 -0.0941  0.6256
   78SOPE  H14R 7003   4.450   4.650   4.983  0.4711  1.0869 -0.7094
   78SOPE  H14S 7004   4.392   4.805   4.918  0.6250  1.0206  2.2758
   78SOPE  C215 7005   4.232   4.662   4.942 -0.0029 -0.0201  0.3144
   78SOPE  H15R 7006   4.146   4.733   4.940 -1.6910 -1.8937  1.9161
   78SOPE  H15S 7007   4.204   4.578   5.009  0.5013 -1.4808 -1.2305
   78SOPE  C216 7008   4.253   4.605   4.796  0.4402 -0.6432 -0.1254
   78SOPE  H16R 7009   4.165   4.541   4.773  0.7646 -1.6297  1.2615
   78SOPE  H16S 7010   4.336   4.531   4.790  1.3289  0.4409 -1.9009
   78SOPE  C217 7011   4.281   4.705   4.684  0.3082 -0.4764  0.4910
   78SOPE  H17R 7012   4.374   4.764   4.700  1.8276 -1.7035 -2.8826
   78SOPE  H17S 7013   4.199   4.779   4.680  1.7400  1.1316 -0.4347
   78SOPE  C218 7014   4.303   4.655   4.542 -0.3427 -0.3324 -0.7243
   78SOPE  H18R 7015   4.246   4.560   4.532 -0.0067 -0.9679  2.4091
   78SOPE  H18S 7016   4.409   4.626   4.527 -0.1548 -1.5609  2.2723
   78SOPE  H18T 7017   4.272   4.730   4.466 -3.1287 -1.0709 -0.4298
   78SOPE   C33 7018   3.847   4.546   5.884  0.6421 -0.5604 -0.1800
   78SOPE   H3X 7019   3.835   4.436   5.871 -1.6077 -0.4684  0.5817
   78SOPE   H3Y 7020   3.955   4.570   5.884  0.5687 -0.1805  0.9332
   78SOPE   C34 7021   3.789   4.636   5.768 -0.4505 -0.1454 -0.0026
   78SOPE   H4X 7022   3.823   4.737   5.800 -0.4217 -0.5339  1.2177
   78SOPE   H4Y 7023   3.678   4.629   5.770 -0.3708 -1.4943  0.8180
   78SOPE   C35 7024   3.844   4.605   5.626 -1.0913  0.5797  0.9015
   78SOPE   H5X 7025   3.814   4.501   5.601 -0.2703  0.5528 -0.0073
   78SOPE   H5Y 7026   3.954   4.607   5.641 -1.3297 -2.2753  4.1476
   78SOPE   C36 7027   3.812   4.706   5.518 -0.9548  0.1945 -0.8292
   78SOPE   H6X 7028   3.856   4.803   5.550 -0.1130 -0.3968 -0.1293
   78SOPE   H6Y 7029   3.705   4.735   5.512 -0.7387  0.8458 -1.6303
   78SOPE   C37 7030   3.866   4.685   5.382  0.0203  0.5177  0.4862
   78SOPE   H7X 7031   3.799   4.611   5.334  0.8626  0.9068 -1.3770
   78SOPE   H7Y 7032   3.964   4.638   5.402  1.9077  3.2749 -1.5580
   78SOPE   C38 7033   3.905   4.803   5.296  0.1881  0.1492  0.4788
   78SOPE   H8X 7034   3.999   4.848   5.335  1.1254 -0.0927 -1.4360
   78SOPE   H8Y 7035   3.826   4.881   5.307  1.5098  1.3562  2.0799
   78SOPE   C39 7036   3.927   4.763   5.150 -0.1322 -0.2047 -1.2495
   78SOPE   H9X 7037   4.005   4.683   5.150 -0.4608 -0.5279 -1.6276
   78SOPE   H9Y 7038   3.974   4.845   5.091  1.3692 -0.1789 -0.0785
   78SOPE  C310 7039   3.791   4.726   5.087 -0.1265 -0.6955 -0.2377
   78SOPE  H10X 7040   3.726   4.811   5.114  1.2538  0.1441  0.5593
   78SOPE  H10Y 7041   3.747   4.630   5.122 -2.9756  1.3399  2.2052
   78SOPE  C311 7042   3.802   4.705   4.934  0.5564 -0.1759  0.2890
   78SOPE  H11X 7043   3.865   4.782   4.884  0.8120  0.2997  1.3163
   78SOPE  H11Y 7044   3.694   4.706   4.910  0.1559  1.3159  1.8779
   78SOPE  C312 7045   3.855   4.570   4.887  0.4021  0.0403  0.0523
   78SOPE  H12X 7046   3.810   4.479   4.933 -1.0734  0.2059 -0.9666
   78SOPE  H12Y 7047   3.960   4.564   4.923 -0.0704  3.3188  2.5530
   78SOPE  C313 7048   3.845   4.551   4.731  1.1338  0.1487 -0.1760
   78SOPE  H13X 7049   3.920   4.619   4.685  1.2426  0.9972  1.1910
   78SOPE  H13Y 7050   3.744   4.585   4.699 -0.0599 -1.3355  1.7670
   78SOPE  C314 7051   3.856   4.401   4.681 -0.3316  0.3228  0.2375
   78SOPE  H14X 7052   3.803   4.397   4.583  0.8416 -0.8111 -0.3751
   78SOPE  H14Y 7053   3.785   4.337   4.737 -0.6803  0.8662  0.4283
   78SOPE  C315 7054   4.004   4.342   4.679 -0.0975  0.0012  0.3702
   78SOPE  H15X 7055   4.063   4.374   4.768  0.3337 -0.9443  0.4257
   78SOPE  H15Y 7056   4.040   4.381   4.581 -0.1056 -1.9556 -0.4611
   78SOPE  C316 7057   4.001   4.193   4.680 -0.0493  0.0502  0.1207
   78SOPE  H16X 7058   3.937   4.170   4.592 -1.1118 -0.4336  0.9876
   78SOPE  H16Y 7059   3.947   4.145   4.765  1.9972  1.1183  2.1572
   78SOPE  C317 7060   4.148   4.146   4.675  0.3019  0.1446  0.1179
   78SOPE  H17X 7061   4.194   4.156   4.776 -0.5964  0.7197  0.4923
   78SOPE  H17Y 7062   4.196   4.219   4.608  0.0315  0.8201  0.6500
   78SOPE  C318 7063   4.170   3.999   4.631  0.3916 -0.6103  0.7473
   78SOPE  H18X 7064   4.275   3.979   4.601  0.6606  2.6497 -0.9173
   78SOPE  H18Y 7065   4.106   3.977   4.543 -0.0073 -1.5229  1.2529
   78SOPE  H18Z 7066   4.148   3.926   4.712  0.8642 -0.7527  0.7517
   79SOPE     N 7067   6.154   1.678   6.954  0.4108 -0.1586 -0.7038
   79SOPE   HN1 7068   6.238   1.692   7.013  1.1480  1.8242 -2.1197
   79SOPE   HN2 7069   6.128   1.772   6.919  1.3054  0.0716 -0.7732
   79SOPE   HN3 7070   6.077   1.652   7.019 -0.8285  0.2028 -1.9668
   79SOPE   C12 7071   6.195   1.585   6.847  0.1820  0.3684 -0.3746
   79SOPE  H12A 7072   6.121   1.589   6.764 -1.0506  0.8055  0.6987
   79SOPE  H12B 7073   6.184   1.484   6.893  1.9718  0.8104  1.1770
   79SOPE   C11 7074   6.335   1.600   6.799 -0.4540  0.1544 -0.1791
   79SOPE  H11A 7075   6.357   1.701   6.758  0.9003 -0.2307 -0.4436
   79SOPE  H11B 7076   6.346   1.527   6.716  1.0933 -0.7059  0.7465
   79SOPE     P 7077   6.532   1.466   6.909  0.0766  0.0435 -0.4040
   79SOPE   O13 7078   6.471   1.331   6.917  0.0507 -0.3489 -0.3728
   79SOPE   O14 7079   6.637   1.485   7.011  0.0945 -0.5538 -0.0778
   79SOPE   O12 7080   6.426   1.580   6.914  0.5052  0.0708 -0.0697
   79SOPE   O11 7081   6.597   1.477   6.768 -0.2495  0.2997 -0.7071
   79SOPE    C1 7082   6.676   1.591   6.728  0.0995 -0.1257  0.2500
   79SOPE    HA 7083   6.777   1.549   6.707 -0.4107 -0.9621 -0.5935
   79SOPE    HB 7084   6.684   1.670   6.805  2.1113  0.3581 -0.3882
   79SOPE    C2 7085   6.634   1.648   6.596 -0.1850 -0.5801 -0.3745
   79SOPE    HS 7086   6.546   1.711   6.620 -0.1586 -1.0377  1.0123
   79SOPE   O21 7087   6.605   1.538   6.511  0.3948  0.1957 -0.0030
   79SOPE   C21 7088   6.496   1.558   6.444 -0.3711 -0.7159  1.3923
   79SOPE   O22 7089   6.431   1.662   6.437 -0.5865  0.5279 -0.1493
   79SOPE   C22 7090   6.476   1.437   6.344  0.0517 -0.7104 -1.2011
   79SOPE   H2R 7091   6.369   1.442   6.313  0.1858 -1.1971 -1.7668
   79SOPE   H2S 7092   6.495   1.350   6.410 -0.3885 -0.5915 -0.9075
   79SOPE    C3 7093   6.739   1.739   6.541 -0.4928 -0.1363  1.1276
   79SOPE    HX 7094   6.824   1.675   6.510 -0.5852  1.4290 -3.0540
   79SOPE    HY 7095   6.766   1.814   6.618 -1.2110  2.1133 -0.6697
   79SOPE   O31 7096   6.685   1.803   6.424  0.1109  0.0883 -0.8070
   79SOPE   C31 7097   6.679   1.937   6.415  0.3709  1.3875  0.2024
   79SOPE   O32 7098   6.743   2.016   6.475  0.2230 -0.1827 -0.1967
   79SOPE   C32 7099   6.576   1.970   6.305  0.2353 -0.4783 -0.2572
   79SOPE   H2X 7100   6.534   2.067   6.337  1.8926 -0.2459  1.3702
   79SOPE   H2Y 7101   6.487   1.903   6.312 -2.7294  3.2208  0.6437
   79SOPE   C23 7102   6.568   1.455   6.227  0.0342  0.4754 -0.1131
   79SOPE   H3R 7103   6.674   1.464   6.258 -0.0169 -2.1659  1.0573
   79SOPE   H3S 7104   6.541   1.542   6.163  0.8991  1.0875  0.3387
   79SOPE   C24 7105   6.553   1.331   6.135  0.0316 -0.1173  0.6675
   79SOPE   H4R 7106   6.585   1.241   6.192 -1.8039 -2.3266 -1.5352
   79SOPE   H4S 7107   6.448   1.317   6.101  1.1800 -1.8854 -2.6676
   79SOPE   C25 7108   6.633   1.349   6.003  0.1790 -0.2376 -0.1307
   79SOPE   H5R 7109   6.615   1.454   5.969 -0.6270 -0.3156  0.0420
   79SOPE   H5S 7110   6.739   1.350   6.035  0.4630  3.4002 -0.7292
   79SOPE   C26 7111   6.599   1.252   5.894 -0.0645  0.1041  0.5353
   79SOPE   H6R 7112   6.594   1.152   5.941  1.2929 -0.6545 -0.8439
   79SOPE   H6S 7113   6.499   1.270   5.849  0.2733  0.0135 -0.2654
   79SOPE   C27 7114   6.710   1.262   5.784  0.2752 -0.2123 -0.4980
   79SOPE   H7R 7115   6.733   1.368   5.761  0.3751 -0.2651 -0.6430
   79SOPE   H7S 7116   6.803   1.221   5.829  0.3002 -0.1425 -0.4861
   79SOPE   C28 7117   6.673   1.190   5.655 -0.1890 -0.4817  0.0812
   79SOPE   H8R 7118   6.566   1.216   5.646 -0.2619  0.3510  2.5190
   79SOPE   H8S 7119   6.725   1.231   5.566 -0.3840  1.3669  0.7579
   79SOPE   C29 7120   6.692   1.042   5.670  0.2024  0.6287  0.6118
   79SOPE   H91 7121   6.742   1.016   5.765 -1.3154  0.0968  1.2913
   79SOPE  C210 7122   6.657   0.948   5.579 -0.3802 -0.4554 -0.1922
   79SOPE  H101 7123   6.665   0.845   5.617 -1.9288 -0.7559 -0.6099
   79SOPE  C211 7124   6.579   0.962   5.448  0.0880 -0.5400  0.2241
   79SOPE  H11R 7125   6.604   1.058   5.400  1.2744 -0.8450  0.1990
   79SOPE  H11S 7126   6.470   0.962   5.470  0.1719  0.2591  0.6583
   79SOPE  C212 7127   6.620   0.852   5.348 -0.1617  0.2738 -0.1121
   79SOPE  H12R 7128   6.585   0.753   5.385 -1.3865 -1.1906 -4.5504
   79SOPE  H12S 7129   6.729   0.851   5.326 -0.3622 -2.6717 -1.4423
   79SOPE  C213 7130   6.553   0.851   5.211 -0.0072  0.3731 -0.3700
   79SOPE  H13R 7131   6.598   0.932   5.150 -1.7028 -0.4593 -2.9015
   79SOPE  H13S 7132   6.450   0.873   5.248  1.0149  2.2507  1.5661
   79SOPE  C214 7133   6.561   0.717   5.133 -0.5496  0.3460 -0.2741
   79SOPE  H14R 7134   6.528   0.639   5.206  0.2524 -0.2499 -0.5330
   79SOPE  H14S 7135   6.665   0.686   5.109 -0.2909  2.2378 -1.8524
   79SOPE  C215 7136   6.480   0.708   5.010 -0.2397  0.3384 -0.0796
   79SOPE  H15R 7137   6.375   0.743   5.023 -1.1449 -1.7176 -1.3380
   79SOPE  H15S 7138   6.489   0.604   4.972 -0.4369  0.1495  0.3768
   79SOPE  C216 7139   6.539   0.789   4.891  0.6171  0.4265  0.1791
   79SOPE  H16R 7140   6.648   0.766   4.892  0.9571  1.9175 -0.2312
   79SOPE  H16S 7141   6.531   0.898   4.913  0.3562  0.1248  1.6727
   79SOPE  C217 7142   6.470   0.753   4.757 -0.7072  0.3575  0.3123
   79SOPE  H17R 7143   6.494   0.645   4.745 -1.2008  0.1743  0.9060
   79SOPE  H17S 7144   6.526   0.805   4.676 -1.7662 -1.2960 -1.5980
   79SOPE  C218 7145   6.331   0.795   4.733  0.4808 -0.3522 -0.3644
   79SOPE  H18R 7146   6.296   0.763   4.632  0.8721 -3.2168  0.3150
   79SOPE  H18S 7147   6.331   0.905   4.741  2.6084 -0.1374 -2.4493
   79SOPE  H18T 7148   6.259   0.762   4.811  2.3503  1.2343  2.1648
   79SOPE   C33 7149   6.640   1.974   6.163 -0.4662 -0.7670 -0.7039
   79SOPE   H3X 7150   6.714   2.056   6.155  3.3097 -3.3274  3.5479
   79SOPE   H3Y 7151   6.557   1.993   6.091  0.3690  0.6907 -1.3270
   79SOPE   C34 7152   6.704   1.848   6.112 -0.2768  0.7302  0.4117
   79SOPE   H4X 7153   6.624   1.773   6.131  1.7132 -1.5593  0.2370
   79SOPE   H4Y 7154   6.791   1.828   6.178 -0.9996 -0.1710  1.1236
   79SOPE   C35 7155   6.732   1.841   5.965 -1.0635  0.1114 -0.0142
   79SOPE   H5X 7156   6.788   1.748   5.942 -0.6843  0.6418 -1.3587
   79SOPE   H5Y 7157   6.794   1.927   5.932  0.7989 -1.0307  0.4158
   79SOPE   C36 7158   6.607   1.829   5.875  0.2367 -0.5564  0.1694
   79SOPE   H6X 7159   6.569   1.932   5.859  1.3799 -0.2097 -0.3769
   79SOPE   H6Y 7160   6.521   1.773   5.918 -0.1980 -0.1201 -0.1240
   79SOPE   C37 7161   6.644   1.745   5.750 -0.0124  0.4711 -0.4543
   79SOPE   H7X 7162   6.657   1.639   5.779  2.6395  0.8173 -0.0841
   79SOPE   H7Y 7163   6.746   1.777   5.718  1.3600 -2.9263  0.1040
   79SOPE   C38 7164   6.538   1.756   5.643 -0.6226 -0.5454  0.4820
   79SOPE   H8X 7165   6.541   1.859   5.600  2.5823 -1.2697 -1.2917
   79SOPE   H8Y 7166   6.436   1.734   5.681 -1.1230  0.3059 -0.3025
   79SOPE   C39 7167   6.567   1.673   5.515 -0.2551  0.3307 -0.1747
   79SOPE   H9X 7168   6.589   1.573   5.559  2.0770  1.4700  1.4681
   79SOPE   H9Y 7169   6.658   1.717   5.469 -0.1960 -1.3104 -1.7343
   79SOPE  C310 7170   6.461   1.682   5.406 -0.2099 -0.0863 -0.3331
   79SOPE  H10X 7171   6.442   1.785   5.368  0.1870 -0.4005 -1.3929
   79SOPE  H10Y 7172   6.366   1.642   5.447 -0.6591  0.2993 -0.9832
   79SOPE  C311 7173   6.501   1.592   5.288 -0.0635  0.4325  0.0125
   79SOPE  H11X 7174   6.505   1.485   5.318 -0.2197  0.4777  0.1940
   79SOPE  H11Y 7175   6.599   1.621   5.244 -0.2137 -0.0215 -0.6408
   79SOPE  C312 7176   6.397   1.621   5.168 -0.2032  0.8434  0.1459
   79SOPE  H12X 7177   6.417   1.720   5.122  0.1139  1.1448  0.9225
   79SOPE  H12Y 7178   6.290   1.615   5.199 -0.3066  0.8461 -0.2119
   79SOPE  C313 7179   6.421   1.531   5.045  0.7860 -0.1202 -0.8847
   79SOPE  H13X 7180   6.427   1.431   5.093  1.1015  0.1515 -0.3534
   79SOPE  H13Y 7181   6.515   1.561   4.994  1.6665 -0.4943  0.4711
   79SOPE  C314 7182   6.294   1.521   4.952 -0.4084  0.2019  0.1193
   79SOPE  H14X 7183   6.258   1.624   4.933 -0.8905  0.0198  0.0214
   79SOPE  H14Y 7184   6.207   1.477   5.007 -0.8814 -0.2976 -0.9977
   79SOPE  C315 7185   6.316   1.453   4.818 -0.6021  0.3546  0.5991
   79SOPE  H15X 7186   6.375   1.363   4.847 -1.0884 -0.8428 -1.8937
   79SOPE  H15Y 7187   6.389   1.520   4.767  0.5931  0.1938  2.0275
   79SOPE  C316 7188   6.189   1.423   4.739  0.5507 -0.0602  0.5589
   79SOPE  H16X 7189   6.137   1.516   4.706 -1.5503 -1.3667  0.0591
   79SOPE  H16Y 7190   6.113   1.368   4.799  0.8173 -0.5432  0.4573
   79SOPE  C317 7191   6.213   1.346   4.609  0.1936  0.4872  0.6785
   79SOPE  H17X 7192   6.284   1.412   4.555 -0.6359 -0.4252 -1.6324
   79SOPE  H17Y 7193   6.124   1.328   4.546  0.8097 -0.5976  0.0782
   79SOPE  C318 7194   6.287   1.216   4.642  0.0675 -0.0741  0.0991
   79SOPE  H18X 7195   6.389   1.232   4.684  0.4699  0.0252 -0.8977
   79SOPE  H18Y 7196   6.310   1.159   4.549  1.6902  0.9925 -0.1977
   79SOPE  H18Z 7197   6.229   1.146   4.706 -1.6037  0.9644 -0.2299
   80SOPE     N 7198   4.916   5.587   6.915 -0.8368 -0.0103 -0.5052
   80SOPE   HN1 7199   4.831   5.532   6.940 -0.4541 -0.0923  0.6691
   80SOPE   HN2 7200   4.988   5.590   6.990  0.1827  0.9836 -1.4674
   80SOPE   HN3 7201   4.885   5.686   6.906  0.9821  0.6258 -0.2535
   80SOPE   C12 7202   4.973   5.541   6.786  0.0316 -0.0881  0.7478
   80SOPE  H12A 7203   5.059   5.476   6.813  0.2639  0.0060  0.2459
   80SOPE  H12B 7204   5.017   5.625   6.729 -2.6411 -0.6463 -2.4120
   80SOPE   C11 7205   4.874   5.475   6.680  0.7438  0.7990 -0.0946
   80SOPE  H11A 7206   4.945   5.422   6.613  0.0644 -1.1447  0.6628
   80SOPE  H11B 7207   4.815   5.554   6.629  0.9595 -0.0961 -1.8440
   80SOPE     P 7208   4.823   5.231   6.769  0.3524 -0.0117  0.0616
   80SOPE   O13 7209   4.729   5.183   6.876 -1.2415  0.1133 -0.2105
   80SOPE   O14 7210   4.969   5.228   6.792  0.2879 -0.3090  0.4663
   80SOPE   O12 7211   4.791   5.382   6.747 -0.5023  0.3756  0.6383
   80SOPE   O11 7212   4.798   5.155   6.633 -0.0945  0.0304 -0.6591
   80SOPE    C1 7213   4.678   5.193   6.557 -0.7581  0.0448 -0.1985
   80SOPE    HA 7214   4.625   5.279   6.603  0.2827 -0.3298  1.8496
   80SOPE    HB 7215   4.606   5.110   6.575 -1.7906  0.6254 -1.4905
   80SOPE    C2 7216   4.683   5.216   6.397 -0.4102  0.0175 -0.5567
   80SOPE    HS 7217   4.589   5.268   6.369  0.8311  1.8658 -1.4759
   80SOPE   O21 7218   4.705   5.087   6.331 -0.2924 -0.3574  0.5169
   80SOPE   C21 7219   4.635   4.983   6.355  0.8763  0.3628 -0.1070
   80SOPE   O22 7220   4.529   4.974   6.412 -0.0773  0.3593 -0.5859
   80SOPE   C22 7221   4.722   4.871   6.302  0.2883  0.0584  0.3950
   80SOPE   H2R 7222   4.665   4.777   6.321  1.2704 -0.6922 -0.2524
   80SOPE   H2S 7223   4.807   4.876   6.373  0.3617  1.6341  0.2297
   80SOPE    C3 7224   4.798   5.313   6.364  0.2470  0.7349  0.2987
   80SOPE    HX 7225   4.893   5.284   6.414  1.2852  1.1247 -1.3359
   80SOPE    HY 7226   4.778   5.414   6.406  2.5949  1.7851 -0.9097
   80SOPE   O31 7227   4.812   5.333   6.216 -0.1899  0.3270 -0.1226
   80SOPE   C31 7228   4.715   5.393   6.151 -0.2961 -0.5115 -0.2881
   80SOPE   O32 7229   4.628   5.463   6.205 -0.5401 -0.0111 -0.2612
   80SOPE   C32 7230   4.740   5.367   5.999  0.2150 -0.5187 -0.3437
   80SOPE   H2X 7231   4.638   5.339   5.963 -0.8442  0.3745  1.7785
   80SOPE   H2Y 7232   4.809   5.285   5.969  1.7991  0.6806 -0.1144
   80SOPE   C23 7233   4.756   4.882   6.151  0.0939  0.0598  0.0040
   80SOPE   H3R 7234   4.806   4.790   6.114  2.4426  1.7495 -1.2942
   80SOPE   H3S 7235   4.835   4.960   6.137 -1.1553  1.0647 -1.9391
   80SOPE   C24 7236   4.632   4.911   6.067 -0.0033  0.0018  0.2655
   80SOPE   H4R 7237   4.558   4.830   6.081 -0.1305 -0.5336 -2.7506
   80SOPE   H4S 7238   4.605   5.016   6.091 -0.5114 -0.0442 -0.0797
   80SOPE   C25 7239   4.674   4.917   5.922 -0.6246 -0.3484 -0.4680
   80SOPE   H5R 7240   4.591   4.940   5.851 -1.5584  1.1358  1.0404
   80SOPE   H5S 7241   4.745   5.001   5.905  0.8974 -1.4447  0.2499
   80SOPE   C26 7242   4.737   4.787   5.869  0.5772  0.5710  0.1506
   80SOPE   H6R 7243   4.843   4.779   5.902  0.8884 -3.1456 -1.2960
   80SOPE   H6S 7244   4.699   4.694   5.916  0.7769  1.7097  2.7353
   80SOPE   C27 7245   4.721   4.778   5.718  0.3809  0.0475  0.3795
   80SOPE   H7R 7246   4.773   4.685   5.687  1.9741  1.0375 -0.0146
   80SOPE   H7S 7247   4.610   4.773   5.705  0.2647 -0.0228  1.2948
   80SOPE   C28 7248   4.773   4.902   5.631  0.1046 -0.4145  0.8175
   80SOPE   H8R 7249   4.741   4.888   5.526 -1.1271  0.6613  1.0201
   80SOPE   H8S 7250   4.713   4.989   5.666 -0.4524  0.4008 -1.9580
   80SOPE   C29 7251   4.924   4.925   5.635  1.0165 -0.3956  0.7091
   80SOPE   H91 7252   4.960   4.978   5.724  0.2752 -1.5317  1.7177
   80SOPE  C210 7253   5.012   4.901   5.538  0.2264  0.2011 -0.6213
   80SOPE  H101 7254   5.120   4.903   5.558  0.0464 -0.2459  0.5053
   80SOPE  C211 7255   4.976   4.832   5.407  0.2090  0.1492  0.3906
   80SOPE  H11R 7256   4.889   4.762   5.413  0.5105 -0.1789  0.9878
   80SOPE  H11S 7257   5.071   4.783   5.379 -1.2472 -1.9660 -1.1966
   80SOPE  C212 7258   4.940   4.941   5.298 -0.2434  0.6313  0.8033
   80SOPE  H12R 7259   5.026   5.004   5.265 -0.2087 -0.1357 -0.6448
   80SOPE  H12S 7260   4.862   5.006   5.343 -2.2507 -0.6724 -0.6539
   80SOPE  C213 7261   4.879   4.871   5.173 -0.1325 -0.1606 -0.4294
   80SOPE  H13R 7262   4.870   4.941   5.088  0.7458 -1.2214 -1.4177
   80SOPE  H13S 7263   4.778   4.830   5.196  0.6222 -0.6257  2.4433
   80SOPE  C214 7264   4.979   4.761   5.115  0.6503  0.2139 -0.3888
   80SOPE  H14R 7265   4.976   4.678   5.190  1.6213  0.8673  0.3986
   80SOPE  H14S 7266   5.081   4.805   5.119  0.2780  1.0498  1.8236
   80SOPE  C215 7267   4.930   4.706   4.981  0.1400 -0.1285  0.1721
   80SOPE  H15R 7268   4.997   4.618   4.969  1.2698  0.5238  1.4845
   80SOPE  H15S 7269   4.949   4.765   4.889 -0.8967 -2.1261 -1.4040
   80SOPE  C216 7270   4.785   4.660   4.974  0.4520  0.7867  0.5883
   80SOPE  H16R 7271   4.719   4.745   4.999 -0.8299 -0.4593  1.6014
   80SOPE  H16S 7272   4.775   4.585   5.056 -1.6510 -1.4768 -1.5584
   80SOPE  C217 7273   4.732   4.593   4.848 -0.5679 -0.0274 -0.0703
   80SOPE  H17R 7274   4.650   4.527   4.886 -0.2978  0.5932  1.6904
   80SOPE  H17S 7275   4.814   4.532   4.805 -0.4034 -0.9885  1.5226
   80SOPE  C218 7276   4.672   4.693   4.749  0.1645  0.6024 -0.0171
   80SOPE  H18R 7277   4.628   4.776   4.810 -0.7210 -0.3919  0.7537
   80SOPE  H18S 7278   4.594   4.644   4.687  1.9017  0.6263 -2.3356
   80SOPE  H18T 7279   4.743   4.735   4.675  0.1915 -0.2929 -0.5204
   80SOPE   C33 7280   4.781   5.502   5.935 -0.2917 -0.0297 -0.0075
   80SOPE   H3X 7281   4.873   5.529   5.992  2.4376 -1.3721 -3.4094
   80SOPE   H3Y 7282   4.700   5.576   5.950 -1.8170 -1.3114 -1.5049
   80SOPE   C34 7283   4.826   5.500   5.794 -0.9013  0.0697  0.2543
   80SOPE   H4X 7284   4.738   5.474   5.732  0.2398 -1.6204 -0.7573
   80SOPE   H4Y 7285   4.908   5.427   5.776 -0.4310  0.4716  0.7267
   80SOPE   C35 7286   4.868   5.641   5.741 -0.6399 -0.3088 -0.0009
   80SOPE   H5X 7287   4.964   5.682   5.778 -1.0918  1.9772 -1.1688
   80SOPE   H5Y 7288   4.801   5.725   5.770  1.9095  2.5124 -1.7268
   80SOPE   C36 7289   4.883   5.647   5.591  0.0467 -0.0272  0.7012
   80SOPE   H6X 7290   4.788   5.617   5.541  0.1837  3.3047 -1.9201
   80SOPE   H6Y 7291   4.951   5.570   5.550 -0.9176 -0.3818 -0.2590
   80SOPE   C37 7292   4.927   5.790   5.550 -0.4054  0.4099 -0.0550
   80SOPE   H7X 7293   5.038   5.801   5.554 -0.4633  1.8328 -1.6530
   80SOPE   H7Y 7294   4.885   5.863   5.622  0.4845  0.9667 -0.0819
   80SOPE   C38 7295   4.900   5.829   5.412 -0.1777 -0.1844  0.3330
   80SOPE   H8X 7296   4.903   5.938   5.393 -1.2409 -0.2024  0.0196
   80SOPE   H8Y 7297   4.798   5.790   5.392 -0.2079  0.0410  0.0456
   80SOPE   C39 7298   4.999   5.759   5.314 -0.2450  0.6128 -0.0025
   80SOPE   H9X 7299   4.993   5.649   5.315  0.9606  0.4260 -2.8722
   80SOPE   H9Y 7300   5.106   5.784   5.326  0.2699 -2.3071  2.5711
   80SOPE  C310 7301   4.953   5.777   5.173  0.5733  0.4737  1.0456
   80SOPE  H10X 7302   4.934   5.883   5.147  1.9041  0.7857  1.2718
   80SOPE  H10Y 7303   4.858   5.722   5.154  0.8677 -0.1724  1.4213
   80SOPE  C311 7304   5.078   5.740   5.086 -0.2440  0.3820 -0.2951
   80SOPE  H11X 7305   5.121   5.646   5.129 -0.2068  1.2217  1.5950
   80SOPE  H11Y 7306   5.155   5.819   5.098  1.8086 -1.3895 -0.9258
   80SOPE  C312 7307   5.050   5.723   4.934  0.4575 -0.7870  0.1422
   80SOPE  H12X 7308   4.979   5.638   4.935 -0.4001 -0.0834  0.6427
   80SOPE  H12Y 7309   5.146   5.697   4.884  2.6421  1.8926  2.5513
   80SOPE  C313 7310   4.974   5.836   4.867 -0.0385 -1.2662  0.1377
   80SOPE  H13X 7311   5.039   5.925   4.856 -0.9880 -0.2824  2.1112
   80SOPE  H13Y 7312   4.888   5.867   4.929 -1.6423 -0.3206 -2.3866
   80SOPE  C314 7313   4.925   5.790   4.728 -0.0577 -0.0755  0.6407
   80SOPE  H14X 7314   4.876   5.691   4.740 -1.3824  0.5733  0.7570
   80SOPE  H14Y 7315   5.021   5.772   4.673 -0.8852  1.6177 -1.4943
   80SOPE  C315 7316   4.851   5.891   4.647  0.3907 -0.1759 -0.0922
   80SOPE  H15X 7317   4.921   5.978   4.648  1.6828 -1.1984  0.5462
   80SOPE  H15Y 7318   4.755   5.913   4.697  0.7886  0.7272  0.3128
   80SOPE  C316 7319   4.826   5.857   4.494 -0.6216 -0.6038 -0.1760
   80SOPE  H16X 7320   4.916   5.801   4.463  0.1710  0.1548  0.7003
   80SOPE  H16Y 7321   4.810   5.952   4.439  2.9149  0.3767  0.2161
   80SOPE  C317 7322   4.703   5.772   4.475  0.2017  0.8105 -0.1759
   80SOPE  H17X 7323   4.691   5.706   4.565  2.3119  1.6631  0.8058
   80SOPE  H17Y 7324   4.709   5.698   4.393 -1.4661 -2.3279  2.2766
   80SOPE  C318 7325   4.568   5.847   4.477  0.1181 -0.3506 -0.5871
   80SOPE  H18X 7326   4.490   5.769   4.463  0.0509 -0.8841  2.1891
   80SOPE  H18Y 7327   4.565   5.930   4.403  1.1909 -0.5893 -0.9098
   80SOPE  H18Z 7328   4.550   5.890   4.578  0.5999 -0.1039 -0.6044
   81SOPE     N 7329   0.753   0.591   7.161  0.3426  0.1845 -0.0205
   81SOPE   HN1 7330   0.739   0.588   7.264  0.3662 -2.4095 -0.0244
   81SOPE   HN2 7331   0.741   0.689   7.129 -3.4467  0.7997  2.5902
   81SOPE   HN3 7332   0.673   0.534   7.127 -0.2097  1.2082 -0.4740
   81SOPE   C12 7333   0.894   0.544   7.125 -0.1277  0.2556  0.2198
   81SOPE  H12A 7334   0.900   0.436   7.152 -1.0084  0.0833 -0.2441
   81SOPE  H12B 7335   0.969   0.591   7.192 -0.4825  0.5214  0.4357
   81SOPE   C11 7336   0.934   0.591   6.982  0.1114  0.2029  0.4472
   81SOPE  H11A 7337   1.037   0.553   6.966  0.4453  1.1278  0.3673
   81SOPE  H11B 7338   0.944   0.701   6.975  2.2477  0.0299  0.1992
   81SOPE     P 7339   0.736   0.587   6.795  0.0342  0.0399 -0.1272
   81SOPE   O13 7340   0.639   0.659   6.880 -0.7901 -0.3236 -0.0809
   81SOPE   O14 7341   0.684   0.487   6.701  0.1583 -0.2698  0.1133
   81SOPE   O12 7342   0.846   0.524   6.885  0.3446 -0.7954  0.5319
   81SOPE   O11 7343   0.831   0.685   6.725  0.1765 -0.1921  0.1779
   81SOPE    C1 7344   0.950   0.628   6.653 -0.5399 -0.3135 -0.0727
   81SOPE    HA 7345   0.992   0.545   6.714 -0.6827 -1.1554 -1.1098
   81SOPE    HB 7346   1.027   0.709   6.646  0.1150 -0.8252  0.9041
   81SOPE    C2 7347   0.919   0.574   6.511  0.4397 -0.3004  0.0533
   81SOPE    HS 7348   0.866   0.477   6.515 -0.6974  0.2418 -1.2269
   81SOPE   O21 7349   1.049   0.575   6.441 -0.3447 -0.0196  0.2620
   81SOPE   C21 7350   1.113   0.459   6.437  0.6899  0.0610 -0.5853
   81SOPE   O22 7351   1.080   0.357   6.499  0.6430  0.0139 -0.1893
   81SOPE   C22 7352   1.245   0.468   6.353  0.2273 -0.3542  0.4044
   81SOPE   H2R 7353   1.329   0.440   6.421  0.7411 -1.9261 -0.8211
   81SOPE   H2S 7354   1.249   0.575   6.322  0.8790 -0.5233 -0.1016
   81SOPE    C3 7355   0.830   0.671   6.432 -0.2394 -0.3234 -0.0331
   81SOPE    HX 7356   0.887   0.767   6.425  2.2314 -1.7312 -0.1280
   81SOPE    HY 7357   0.741   0.702   6.493  1.3933  0.5208  2.0567
   81SOPE   O31 7358   0.800   0.601   6.310 -0.1821 -0.2619  0.5151
   81SOPE   C31 7359   0.823   0.673   6.198  0.3277 -0.6621 -0.3338
   81SOPE   O32 7360   0.863   0.791   6.203 -0.6160 -0.5287  0.4948
   81SOPE   C32 7361   0.791   0.603   6.065 -0.8441  0.3796  0.6607
   81SOPE   H2X 7362   0.688   0.560   6.070 -1.9529  2.8617  0.8810
   81SOPE   H2Y 7363   0.862   0.518   6.063  0.9416  1.7856  1.8644
   81SOPE   C23 7364   1.248   0.390   6.219 -0.3281 -0.0891  0.2378
   81SOPE   H3R 7365   1.142   0.373   6.191  0.1388 -0.9180 -1.1216
   81SOPE   H3S 7366   1.303   0.298   6.250 -1.5319 -0.4075  1.5163
   81SOPE   C24 7367   1.312   0.458   6.097 -0.1077  0.4147 -0.6426
   81SOPE   H4R 7368   1.238   0.525   6.049  0.9043  1.3541 -0.9263
   81SOPE   H4S 7369   1.407   0.501   6.135  0.3141 -3.0074  2.8555
   81SOPE   C25 7370   1.342   0.346   5.994  0.5643  0.5637  0.0562
   81SOPE   H5R 7371   1.431   0.283   6.020  1.6641  1.4752 -1.3548
   81SOPE   H5S 7372   1.247   0.289   5.996  1.4762 -1.1266 -1.6387
   81SOPE   C26 7373   1.380   0.407   5.855  0.3850  1.0091  0.0601
   81SOPE   H6R 7374   1.446   0.494   5.878 -0.9536  1.6489  1.7792
   81SOPE   H6S 7375   1.433   0.337   5.787  1.3932  0.4282  1.3938
   81SOPE   C27 7376   1.255   0.447   5.776 -0.8134 -0.2193  0.2710
   81SOPE   H7R 7377   1.216   0.362   5.717 -0.4062 -0.6806  0.6635
   81SOPE   H7S 7378   1.173   0.457   5.849 -0.6257  1.6834  0.2865
   81SOPE   C28 7379   1.252   0.572   5.694 -0.0834  0.2220 -0.4614
   81SOPE   H8R 7380   1.160   0.579   5.632  0.0915  0.6790 -0.6720
   81SOPE   H8S 7381   1.242   0.651   5.771  0.7093  0.3298 -0.4534
   81SOPE   C29 7382   1.381   0.581   5.613  0.0708  0.3797  0.3189
   81SOPE   H91 7383   1.472   0.562   5.670 -0.2676 -2.7031 -0.0273
   81SOPE  C210 7384   1.388   0.588   5.479  0.6450 -0.0451  0.1868
   81SOPE  H101 7385   1.482   0.600   5.424 -0.9028  1.5601 -2.3270
   81SOPE  C211 7386   1.272   0.595   5.384 -0.3835 -0.1272 -0.2574
   81SOPE  H11R 7387   1.270   0.700   5.348 -1.6375  0.3334  1.0950
   81SOPE  H11S 7388   1.179   0.582   5.442 -2.1280  1.9895 -2.3806
   81SOPE  C212 7389   1.283   0.496   5.259 -0.1301 -0.3374 -0.0468
   81SOPE  H12R 7390   1.183   0.493   5.210 -0.2117  0.7897  0.0307
   81SOPE  H12S 7391   1.306   0.391   5.287 -0.2116  0.2272  2.3933
   81SOPE  C213 7392   1.381   0.554   5.160  0.5496 -0.0641  1.0669
   81SOPE  H13R 7393   1.487   0.551   5.195  0.1448 -1.4759  2.2758
   81SOPE  H13S 7394   1.354   0.661   5.159 -1.8346 -0.6148  1.4854
   81SOPE  C214 7395   1.377   0.494   5.019 -0.1724 -0.7764  0.4072
   81SOPE  H14R 7396   1.282   0.512   4.965  1.2490 -0.2544 -2.0697
   81SOPE  H14S 7397   1.405   0.387   5.016 -1.5684 -1.1435 -0.7762
   81SOPE  C215 7398   1.488   0.558   4.937  0.0521  0.2970  0.3589
   81SOPE  H15R 7399   1.587   0.562   4.987  1.1489 -0.9116 -1.5754
   81SOPE  H15S 7400   1.473   0.666   4.915  2.1116  0.1325 -2.4130
   81SOPE  C216 7401   1.535   0.474   4.815 -0.0593  0.0764 -0.0287
   81SOPE  H16R 7402   1.525   0.365   4.834  0.1863 -0.0295 -0.4773
   81SOPE  H16S 7403   1.644   0.490   4.801  0.2101 -0.4460  1.3372
   81SOPE  C217 7404   1.466   0.525   4.688 -0.8226  0.4978 -0.2261
   81SOPE  H17R 7405   1.470   0.636   4.690 -1.3240  0.5040  0.9796
   81SOPE  H17S 7406   1.359   0.502   4.670  0.2215 -3.0145 -3.3413
   81SOPE  C218 7407   1.534   0.455   4.561 -0.5364  0.2123 -0.1361
   81SOPE  H18R 7408   1.641   0.486   4.558 -0.9393  1.8538  0.8865
   81SOPE  H18S 7409   1.479   0.486   4.470 -2.8488  0.6824  1.3439
   81SOPE  H18T 7410   1.513   0.347   4.578 -0.1768  0.1895  0.1765
   81SOPE   C33 7411   0.833   0.693   5.949 -0.2675  0.4717 -0.0215
   81SOPE   H3X 7412   0.933   0.741   5.954  0.1984 -0.5845  1.6327
   81SOPE   H3Y 7413   0.757   0.774   5.945  0.5145  1.3503  1.8588
   81SOPE   C34 7414   0.822   0.618   5.816  0.5590 -0.6565  0.5378
   81SOPE   H4X 7415   0.718   0.579   5.814 -0.0409  0.7941  1.9405
   81SOPE   H4Y 7416   0.889   0.528   5.814 -0.2291 -1.3542  2.6867
   81SOPE   C35 7417   0.846   0.699   5.689 -0.0889  0.2594 -0.3694
   81SOPE   H5X 7418   0.949   0.740   5.699 -0.8748  1.7541  3.1007
   81SOPE   H5Y 7419   0.776   0.784   5.674  0.0260  0.2017 -1.2719
   81SOPE   C36 7420   0.840   0.618   5.561  0.5698 -0.8524 -0.3877
   81SOPE   H6X 7421   0.733   0.589   5.547 -0.5800  2.0021  1.3682
   81SOPE   H6Y 7422   0.909   0.531   5.563  1.2670 -0.2979  0.0993
   81SOPE   C37 7423   0.879   0.708   5.443 -0.4704  0.4281 -0.3224
   81SOPE   H7X 7424   0.973   0.767   5.451 -0.1115 -0.0927 -0.6546
   81SOPE   H7Y 7425   0.797   0.782   5.431 -0.6723  0.4457  1.0315
   81SOPE   C38 7426   0.882   0.623   5.313 -0.0610 -0.4228  0.7438
   81SOPE   H8X 7427   0.783   0.575   5.296  0.6492 -2.0343  0.9868
   81SOPE   H8Y 7428   0.956   0.540   5.323 -2.7126 -2.9571  0.6684
   81SOPE   C39 7429   0.910   0.710   5.183  0.6005 -0.0779 -0.2698
   81SOPE   H9X 7430   0.938   0.646   5.096  2.2086  3.7027 -2.7781
   81SOPE   H9Y 7431   0.989   0.786   5.201 -0.3562  0.5089  1.8185
   81SOPE  C310 7432   0.785   0.790   5.138 -0.3454 -0.3065  0.3907
   81SOPE  H10X 7433   0.747   0.848   5.225 -0.7423  1.4791 -0.9316
   81SOPE  H10Y 7434   0.705   0.725   5.097 -0.7172  1.0252 -1.0677
   81SOPE  C311 7435   0.831   0.899   5.040  0.1119 -0.2024 -0.5912
   81SOPE  H11X 7436   0.872   0.844   4.953 -0.5273 -0.9018 -0.4676
   81SOPE  H11Y 7437   0.914   0.956   5.088 -0.1689 -2.0667  2.3648
   81SOPE  C312 7438   0.732   1.003   4.992  0.2661  0.2469 -0.5759
   81SOPE  H12X 7439   0.691   1.065   5.075  0.0232 -0.2080 -0.3550
   81SOPE  H12Y 7440   0.638   0.974   4.940  0.0241 -0.6755  0.3412
   81SOPE  C313 7441   0.799   1.109   4.899  0.4773  0.8759  0.1818
   81SOPE  H13X 7442   0.869   1.161   4.967  1.2214 -1.2423  1.1296
   81SOPE  H13Y 7443   0.714   1.175   4.871 -3.4571 -3.2098  1.0986
   81SOPE  C314 7444   0.852   1.058   4.771 -0.2871 -0.0126  0.3535
   81SOPE  H14X 7445   0.763   1.019   4.716 -1.6199 -0.4338  2.6815
   81SOPE  H14Y 7446   0.930   0.979   4.777 -1.7792 -1.5473  0.4201
   81SOPE  C315 7447   0.928   1.163   4.689 -0.2470  0.9082 -0.4268
   81SOPE  H15X 7448   1.019   1.197   4.742  0.4518 -1.8756  0.2812
   81SOPE  H15Y 7449   0.860   1.248   4.664  1.1046  1.8216 -1.1307
   81SOPE  C316 7450   0.975   1.128   4.542 -0.6066 -0.0396 -0.4113
   81SOPE  H16X 7451   1.072   1.076   4.559 -0.7077  0.4106  1.9318
   81SOPE  H16Y 7452   0.987   1.222   4.485 -1.1813  0.4715  0.2806
   81SOPE  C317 7453   0.876   1.042   4.472 -1.0001  0.0143 -0.2650
   81SOPE  H17X 7454   0.774   1.086   4.474 -1.0891 -0.0984 -1.3326
   81SOPE  H17Y 7455   0.869   0.945   4.526 -0.0667  1.4240  2.5318
   81SOPE  C318 7456   0.917   1.035   4.326  0.0598 -0.1938  0.2361
   81SOPE  H18X 7457   0.929   1.137   4.283  0.3274 -1.3848 -2.7244
   81SOPE  H18Y 7458   0.842   0.978   4.267 -1.5468  0.8681  1.1969
   81SOPE  H18Z 7459   1.021   1.000   4.310 -0.0574  0.2089 -1.6404
   82SOPE     N 7460   3.212   2.064   6.652 -0.7903 -0.4226  0.3467
   82SOPE   HN1 7461   3.256   2.158   6.644 -2.5026  0.2057 -3.3465
   82SOPE   HN2 7462   3.112   2.092   6.653 -0.4791  0.7685 -0.3005
   82SOPE   HN3 7463   3.236   2.018   6.743 -0.5499  1.3899  1.2424
   82SOPE   C12 7464   3.248   1.988   6.530 -0.2385 -0.2166  0.0971
   82SOPE  H12A 7465   3.343   1.933   6.544 -1.0219 -2.3670 -2.2091
   82SOPE  H12B 7466   3.268   2.056   6.444 -0.3145 -0.4411 -0.0986
   82SOPE   C11 7467   3.144   1.875   6.495 -0.0862 -0.5833 -0.2807
   82SOPE  H11A 7468   3.191   1.811   6.417 -1.8547  0.6803 -2.5258
   82SOPE  H11B 7469   3.056   1.929   6.454  1.0811  0.9131 -0.9220
   82SOPE     P 7470   3.159   1.671   6.667 -0.1492  0.0823  0.3834
   82SOPE   O13 7471   3.100   1.655   6.799  0.0671 -0.0914 -0.5412
   82SOPE   O14 7472   3.308   1.663   6.661  0.2846  0.3624 -0.1771
   82SOPE   O12 7473   3.109   1.809   6.618  0.6256  0.1078 -0.3546
   82SOPE   O11 7474   3.100   1.567   6.562 -0.3963  0.4166 -0.3494
   82SOPE    C1 7475   2.962   1.523   6.559  0.3032  0.4917 -0.2023
   82SOPE    HA 7476   2.893   1.607   6.583  1.1870  0.3014  3.6055
   82SOPE    HB 7477   2.942   1.445   6.635  2.6592  0.0364  0.0367
   82SOPE    C2 7478   2.929   1.466   6.423 -0.2819  0.2372 -0.2921
   82SOPE    HS 7479   2.999   1.385   6.392 -0.8600 -0.3895  0.0083
   82SOPE   O21 7480   2.909   1.577   6.326 -0.0746  0.4933 -0.1164
   82SOPE   C21 7481   3.010   1.616   6.251 -0.2765  0.1828  0.4781
   82SOPE   O22 7482   3.127   1.585   6.257  0.2369 -0.4004 -0.1577
   82SOPE   C22 7483   2.961   1.729   6.163 -0.1445  0.0439  0.2136
   82SOPE   H2R 7484   2.910   1.801   6.230 -1.1990 -0.2971 -0.2078
   82SOPE   H2S 7485   2.893   1.677   6.093  2.3433 -4.8183  0.9975
   82SOPE    C3 7486   2.795   1.392   6.416 -0.0304  0.3981  0.4999
   82SOPE    HX 7487   2.716   1.469   6.427  1.5177  2.1102  0.1160
   82SOPE    HY 7488   2.776   1.322   6.500  2.5364  0.3766  1.1365
   82SOPE   O31 7489   2.784   1.324   6.293  0.7184  0.0936 -0.2031
   82SOPE   C31 7490   2.658   1.287   6.260 -0.8413 -0.0772 -0.1644
   82SOPE   O32 7491   2.563   1.318   6.331  0.7853  0.2017 -0.1685
   82SOPE   C32 7492   2.657   1.216   6.128 -0.1944 -0.7320  0.3511
   82SOPE   H2X 7493   2.750   1.158   6.113 -0.1877 -0.3633 -1.1924
   82SOPE   H2Y 7494   2.648   1.293   6.048 -0.9354  0.4983  1.5684
   82SOPE   C23 7495   3.072   1.812   6.084  0.6194 -0.5165 -0.7281
   82SOPE   H3R 7496   3.156   1.743   6.059  1.8890  0.0919  1.5972
   82SOPE   H3S 7497   3.110   1.882   6.161 -1.4408  0.5564 -0.6206
   82SOPE   C24 7498   3.015   1.874   5.955  0.1555 -0.5751 -0.8245
   82SOPE   H4R 7499   3.094   1.948   5.929  0.2251  0.0831  1.0482
   82SOPE   H4S 7500   2.989   1.803   5.875  1.1472 -1.2476 -0.5750
   82SOPE   C25 7501   2.898   1.965   5.999  0.2441 -0.7439  0.1602
   82SOPE   H5R 7502   2.812   1.899   6.020  0.0426  0.2999  3.0412
   82SOPE   H5S 7503   2.933   2.022   6.088  0.0713  1.9833 -1.3985
   82SOPE   C26 7504   2.863   2.063   5.889  0.4103  0.5786  0.8025
   82SOPE   H6R 7505   2.956   2.097   5.839  1.0912 -0.8365  1.0409
   82SOPE   H6S 7506   2.808   2.004   5.813  1.2806  0.1263  0.5208
   82SOPE   C27 7507   2.783   2.188   5.937 -0.1163 -0.7563  0.2468
   82SOPE   H7R 7508   2.856   2.245   5.998 -0.9311  1.1992 -0.5137
   82SOPE   H7S 7509   2.762   2.261   5.856 -3.0701  1.0996  2.4516
   82SOPE   C28 7510   2.644   2.162   6.012  0.0877  0.4457  0.5732
   82SOPE   H8R 7511   2.652   2.083   6.090 -0.6790 -0.6417 -0.3986
   82SOPE   H8S 7512   2.616   2.256   6.063  2.3416  1.9613 -0.8306
   82SOPE   C29 7513   2.531   2.129   5.913 -0.2930 -0.1050 -0.2603
   82SOPE   H91 7514   2.554   2.028   5.875  0.8497 -0.7780  2.0161
   82SOPE  C210 7515   2.423   2.198   5.880  0.3843 -0.4896 -0.3314
   82SOPE  H101 7516   2.347   2.151   5.815  0.3439  1.1162 -1.5024
   82SOPE  C211 7517   2.401   2.343   5.933  0.7515  0.8480  0.0488
   82SOPE  H11R 7518   2.447   2.410   5.858  1.4202 -1.0932 -1.3581
   82SOPE  H11S 7519   2.459   2.366   6.024 -0.0105 -1.7891  1.3056
   82SOPE  C212 7520   2.250   2.386   5.955  0.5062 -0.1847 -0.1591
   82SOPE  H12R 7521   2.184   2.391   5.866  0.3405  2.1004  0.0326
   82SOPE  H12S 7522   2.247   2.487   5.999  0.5963 -0.1505 -0.2298
   82SOPE  C213 7523   2.168   2.295   6.049  0.4542  0.4317 -0.3134
   82SOPE  H13R 7524   2.137   2.204   5.992 -0.8763 -0.1618  1.2590
   82SOPE  H13S 7525   2.075   2.350   6.077  1.5958  2.1536  0.2330
   82SOPE  C214 7526   2.238   2.263   6.181  0.1558 -0.5134  0.2797
   82SOPE  H14R 7527   2.264   2.359   6.233 -0.1731 -0.0285 -0.4386
   82SOPE  H14S 7528   2.331   2.203   6.172 -0.5946 -1.7495  0.5002
   82SOPE  C215 7529   2.139   2.205   6.279 -0.4523 -0.2897 -0.1947
   82SOPE  H15R 7530   2.128   2.096   6.261  1.4089 -0.4705 -0.4595
   82SOPE  H15S 7531   2.042   2.257   6.262 -0.1493  1.0831  1.9022
   82SOPE  C216 7532   2.193   2.232   6.423  0.2373  0.5368  0.0067
   82SOPE  H16R 7533   2.158   2.333   6.454  1.9230  1.0007  0.5236
   82SOPE  H16S 7534   2.304   2.228   6.425  0.3613  2.8762  0.9532
   82SOPE  C217 7535   2.135   2.142   6.533  0.1405 -0.9854  0.4564
   82SOPE  H17R 7536   2.178   2.165   6.633 -0.9657 -0.9575  0.9387
   82SOPE  H17S 7537   2.171   2.039   6.515  0.2643 -0.6910 -1.0792
   82SOPE  C218 7538   1.986   2.129   6.534 -0.2086 -0.2523  0.1506
   82SOPE  H18R 7539   1.955   2.095   6.432  1.0749  2.8874 -1.4459
   82SOPE  H18S 7540   1.941   2.227   6.560  0.1528 -0.0405 -0.0193
   82SOPE  H18T 7541   1.945   2.057   6.608 -1.5491 -0.8195 -1.0752
   82SOPE   C33 7542   2.533   1.114   6.122  0.5123 -0.2557  0.4230
   82SOPE   H3X 7543   2.451   1.180   6.159 -0.1359  0.1720 -1.6448
   82SOPE   H3Y 7544   2.551   1.032   6.194 -1.5857 -1.1458  0.0156
   82SOPE   C34 7545   2.508   1.066   5.982  0.3868 -0.4374  0.5203
   82SOPE   H4X 7546   2.458   1.147   5.924 -1.2207  0.1170  2.5599
   82SOPE   H4Y 7547   2.438   0.982   6.004  2.0947 -2.1471 -0.2098
   82SOPE   C35 7548   2.621   0.999   5.911 -0.1597 -0.8153 -0.1371
   82SOPE   H5X 7549   2.645   0.908   5.971 -0.5250  0.2619  1.7342
   82SOPE   H5Y 7550   2.703   1.074   5.920 -0.6696  0.0484 -2.1499
   82SOPE   C36 7551   2.596   0.966   5.763  0.4537  0.2890  0.8154
   82SOPE   H6X 7552   2.499   0.916   5.743  1.1497 -0.5963 -0.4669
   82SOPE   H6Y 7553   2.674   0.897   5.724  0.3966 -1.1378  3.0401
   82SOPE   C37 7554   2.598   1.092   5.670 -0.4183 -0.2743 -0.2148
   82SOPE   H7X 7555   2.699   1.137   5.658 -0.8457  0.3769 -1.5728
   82SOPE   H7Y 7556   2.526   1.171   5.701  1.1149  1.2570 -0.4299
   82SOPE   C38 7557   2.541   1.063   5.526 -0.1926  0.1175 -0.1142
   82SOPE   H8X 7558   2.434   1.031   5.528 -0.0428 -0.7473 -2.6621
   82SOPE   H8Y 7559   2.595   0.976   5.483  0.0789  0.9004 -1.4115
   82SOPE   C39 7560   2.556   1.191   5.433 -0.0291 -0.6988  0.4509
   82SOPE   H9X 7561   2.666   1.206   5.426 -0.3261  1.2535 -0.4636
   82SOPE   H9Y 7562   2.502   1.281   5.468  0.5172 -0.4828  0.7496
   82SOPE  C310 7563   2.501   1.178   5.282 -0.5311 -0.2398 -0.2196
   82SOPE  H10X 7564   2.391   1.170   5.294 -0.5720  0.8788  0.2597
   82SOPE  H10Y 7565   2.547   1.085   5.242 -1.4515 -1.2837  1.0626
   82SOPE  C311 7566   2.547   1.298   5.203  0.1491 -0.5301  0.1931
   82SOPE  H11X 7567   2.648   1.330   5.236 -0.2077  0.2844  0.5266
   82SOPE  H11Y 7568   2.486   1.386   5.232 -0.6546 -1.1026  0.3009
   82SOPE  C312 7569   2.567   1.259   5.056  0.0367 -0.5271 -0.5902
   82SOPE  H12X 7570   2.463   1.234   5.026  0.3096  0.2951 -2.3625
   82SOPE  H12Y 7571   2.616   1.159   5.047 -1.8264 -1.4000 -1.6863
   82SOPE  C313 7572   2.626   1.376   4.971  0.1806  0.1849  0.0857
   82SOPE  H13X 7573   2.717   1.417   5.020  0.3168  1.2668 -1.0331
   82SOPE  H13Y 7574   2.562   1.466   4.975 -0.6124 -0.4068  0.8230
   82SOPE  C314 7575   2.668   1.327   4.830 -0.1395 -0.3201 -0.1415
   82SOPE  H14X 7576   2.578   1.318   4.766 -0.6842  0.5710  0.4693
   82SOPE  H14Y 7577   2.716   1.228   4.846 -0.6865 -0.3200  1.8306
   82SOPE  C315 7578   2.757   1.428   4.756 -0.1147  0.0119 -0.2314
   82SOPE  H15X 7579   2.841   1.455   4.824 -1.1055  1.7142  0.3962
   82SOPE  H15Y 7580   2.698   1.519   4.731 -1.6898 -1.4781 -2.2198
   82SOPE  C316 7581   2.811   1.371   4.621  0.0125 -0.2460  0.6592
   82SOPE  H16X 7582   2.726   1.326   4.564 -0.5282 -0.2554  1.4633
   82SOPE  H16Y 7583   2.877   1.289   4.655 -0.5514 -0.2721  1.7277
   82SOPE  C317 7584   2.880   1.478   4.537 -0.3378 -0.4296  0.2051
   82SOPE  H17X 7585   2.928   1.428   4.451  1.7065 -0.4616  1.2832
   82SOPE  H17Y 7586   2.963   1.510   4.604 -1.0922  1.5316  0.2643
   82SOPE  C318 7587   2.785   1.585   4.476  0.9967  0.8087 -0.5465
   82SOPE  H18X 7588   2.725   1.636   4.555  1.0088 -0.7096  0.4692
   82SOPE  H18Y 7589   2.709   1.543   4.407  0.5586  3.4073 -1.7835
   82SOPE  H18Z 7590   2.847   1.655   4.415  2.4039 -0.1327 -0.2367
   83SOPE     N 7591   4.277   3.244   1.669 -0.1009  0.0394  0.3016
   83SOPE   HN1 7592   4.359   3.183   1.690  0.8136  1.3142  0.5103
   83SOPE   HN2 7593   4.232   3.192   1.590 -0.5604  0.6682  0.1448
   83SOPE   HN3 7594   4.322   3.333   1.639 -0.0194 -0.2207 -0.3749
   83SOPE   C12 7595   4.199   3.263   1.798  0.2487  0.0037  0.3885
   83SOPE  H12A 7596   4.112   3.323   1.761 -1.1276 -2.3472 -0.4240
   83SOPE  H12B 7597   4.260   3.311   1.877 -1.9705  3.8277  0.0241
   83SOPE   C11 7598   4.126   3.131   1.856 -0.9989 -0.5280 -0.0531
   83SOPE  H11A 7599   4.043   3.098   1.790  0.2666 -1.2434 -1.3425
   83SOPE  H11B 7600   4.079   3.160   1.952  0.5447  0.2209  0.5234
   83SOPE     P 7601   4.313   3.009   2.000 -0.2834  0.2769  0.1913
   83SOPE   O13 7602   4.430   3.088   1.961 -0.0709  0.1659  0.1643
   83SOPE   O14 7603   4.339   2.863   2.028  0.4276 -0.0227  0.0996
   83SOPE   O12 7604   4.213   3.020   1.882  0.6241  0.1845  0.1158
   83SOPE   O11 7605   4.245   3.070   2.121  0.5041 -0.4226 -0.0962
   83SOPE    C1 7606   4.138   3.001   2.186 -0.1466 -0.1593  0.5460
   83SOPE    HA 7607   4.107   2.902   2.146 -0.0195 -0.5745  1.4460
   83SOPE    HB 7608   4.054   3.072   2.174  2.4122  2.7104 -2.3191
   83SOPE    C2 7609   4.165   2.978   2.332 -0.1451 -0.2284  0.1521
   83SOPE    HS 7610   4.070   2.938   2.375  0.6654 -0.4572  1.8068
   83SOPE   O21 7611   4.197   3.103   2.398 -0.2373 -0.4747  0.5454
   83SOPE   C21 7612   4.094   3.167   2.451  0.0901 -0.0243 -0.5884
   83SOPE   O22 7613   3.979   3.127   2.462  0.0613 -0.4654  0.0147
   83SOPE   C22 7614   4.149   3.294   2.515 -0.6258 -0.7401 -0.1860
   83SOPE   H2R 7615   4.088   3.378   2.475  1.1629  0.2236 -1.0431
   83SOPE   H2S 7616   4.256   3.318   2.497 -0.6405 -0.1216  0.4833
   83SOPE    C3 7617   4.273   2.870   2.358 -0.5728  0.2419  0.1609
   83SOPE    HX 7618   4.374   2.916   2.353  0.0599 -1.0347  0.8302
   83SOPE    HY 7619   4.256   2.800   2.273 -1.0371  0.6113 -0.0548
   83SOPE   O31 7620   4.252   2.801   2.481 -0.2209 -0.1377 -0.1578
   83SOPE   C31 7621   4.355   2.726   2.522 -0.7599  1.0480  0.4523
   83SOPE   O32 7622   4.465   2.717   2.464  1.0217 -0.4504 -0.9836
   83SOPE   C32 7623   4.320   2.663   2.649  0.1517  0.2409 -1.0097
   83SOPE   H2X 7624   4.302   2.554   2.632 -1.8357  0.4019 -0.2163
   83SOPE   H2Y 7625   4.230   2.705   2.699 -0.3313 -3.2056  1.3875
   83SOPE   C23 7626   4.111   3.300   2.670 -0.6465 -0.0253 -0.0750
   83SOPE   H3R 7627   4.012   3.251   2.687 -0.0808 -0.4104  2.5226
   83SOPE   H3S 7628   4.107   3.409   2.691 -1.0157  0.3282 -1.8258
   83SOPE   C24 7629   4.222   3.229   2.748  0.3021  0.0909 -0.2711
   83SOPE   H4R 7630   4.318   3.223   2.693 -1.0283 -0.5201 -2.6664
   83SOPE   H4S 7631   4.253   3.269   2.847  2.4157 -3.4192  0.6430
   83SOPE   C25 7632   4.171   3.088   2.785 -0.1536  0.1782  0.1415
   83SOPE   H5R 7633   4.096   3.096   2.867 -0.8597  0.0512 -0.4824
   83SOPE   H5S 7634   4.116   3.044   2.700 -1.0084  3.2152 -0.9967
   83SOPE   C26 7635   4.286   2.997   2.822 -0.0869  0.6728  0.4208
   83SOPE   H6R 7636   4.244   2.897   2.847 -1.7397  0.4824 -2.5769
   83SOPE   H6S 7637   4.347   2.981   2.731 -1.2075  1.0606 -0.4300
   83SOPE   C27 7638   4.382   3.042   2.939  0.8364  0.3280  0.8707
   83SOPE   H7R 7639   4.460   2.964   2.952  0.3423 -1.0378 -3.1130
   83SOPE   H7S 7640   4.438   3.131   2.905  1.1893 -1.3793 -3.6316
   83SOPE   C28 7641   4.313   3.069   3.075  0.2516  0.2169  0.2795
   83SOPE   H8R 7642   4.261   3.167   3.064  1.4151  1.0961  2.1709
   83SOPE   H8S 7643   4.235   2.990   3.080  0.1691 -0.0732 -3.0357
   83SOPE   C29 7644   4.407   3.094   3.180  0.4118  0.4274 -0.3505
   83SOPE   H91 7645   4.489   3.162   3.151  0.9510  1.3608  2.9419
   83SOPE  C210 7646   4.413   3.037   3.300  0.1043 -0.5486 -0.2441
   83SOPE  H101 7647   4.494   3.068   3.368  0.3238 -0.2080 -0.6610
   83SOPE  C211 7648   4.304   2.940   3.357 -0.2860  0.3288  0.0863
   83SOPE  H11R 7649   4.342   2.835   3.359  0.7705  0.6893 -0.3516
   83SOPE  H11S 7650   4.213   2.929   3.294 -0.2788  1.9261 -0.2348
   83SOPE  C212 7651   4.249   2.976   3.499  0.0402  0.0631 -0.2783
   83SOPE  H12R 7652   4.325   2.941   3.572  1.3544  0.5048 -1.4061
   83SOPE  H12S 7653   4.153   2.923   3.518  0.3276 -0.3816 -0.0627
   83SOPE  C213 7654   4.235   3.119   3.528  0.3727 -0.9154  0.1561
   83SOPE  H13R 7655   4.146   3.161   3.476  1.9979  2.6661 -0.0393
   83SOPE  H13S 7656   4.322   3.171   3.483 -0.3752 -1.0854 -1.5656
   83SOPE  C214 7657   4.225   3.155   3.676 -0.1845  0.2552  0.6275
   83SOPE  H14R 7658   4.321   3.139   3.729 -0.0105  0.9362  0.5394
   83SOPE  H14S 7659   4.150   3.082   3.713  0.9505 -0.7706  0.9640
   83SOPE  C215 7660   4.178   3.297   3.703  0.1705  0.4339  0.0242
   83SOPE  H15R 7661   4.082   3.317   3.650  0.3106  1.2851  0.0868
   83SOPE  H15S 7662   4.257   3.365   3.665  1.2537  1.0143  3.0361
   83SOPE  C216 7663   4.167   3.337   3.852 -0.4743  0.1710  0.1609
   83SOPE  H16R 7664   4.136   3.443   3.850  1.5242  0.8155  0.8703
   83SOPE  H16S 7665   4.269   3.322   3.894  0.9258  2.1858 -2.2426
   83SOPE  C217 7666   4.061   3.253   3.927  0.0213  0.4563  0.2591
   83SOPE  H17R 7667   4.097   3.148   3.929 -2.3223 -0.4604 -1.2877
   83SOPE  H17S 7668   3.974   3.250   3.858 -0.9613 -0.3256  1.4808
   83SOPE  C218 7669   4.028   3.299   4.064  0.0648 -0.1321 -0.6184
   83SOPE  H18R 7670   4.055   3.232   4.148 -3.2988  0.0720  0.7690
   83SOPE  H18S 7671   3.923   3.337   4.066  1.2793  3.5894  1.3159
   83SOPE  H18T 7672   4.064   3.404   4.075 -0.1246 -0.0240 -1.0001
   83SOPE   C33 7673   4.434   2.667   2.758  0.3629  0.7837 -0.3707
   83SOPE   H3X 7674   4.467   2.773   2.751  1.4197  0.4285 -0.9567
   83SOPE   H3Y 7675   4.519   2.600   2.734 -1.8242 -1.9230 -1.0509
   83SOPE   C34 7676   4.379   2.641   2.901  0.0762 -0.1659  1.0492
   83SOPE   H4X 7677   4.324   2.545   2.899 -0.4401  0.1311  0.4696
   83SOPE   H4Y 7678   4.311   2.719   2.943 -0.6201 -0.5617  0.6800
   83SOPE   C35 7679   4.504   2.626   2.990  0.2479  0.3236  0.6458
   83SOPE   H5X 7680   4.563   2.720   2.978 -0.8700  1.0515  0.7017
   83SOPE   H5Y 7681   4.578   2.550   2.957  1.5296  1.0239  1.8261
   83SOPE   C36 7682   4.474   2.597   3.134  0.6286 -1.1994  0.2933
   83SOPE   H6X 7683   4.448   2.489   3.138 -0.3018 -1.0137 -0.3602
   83SOPE   H6Y 7684   4.387   2.651   3.179  0.0332 -1.8342 -0.0677
   83SOPE   C37 7685   4.588   2.618   3.234 -0.1415 -0.4610 -0.8251
   83SOPE   H7X 7686   4.643   2.525   3.208  2.2901  0.9758 -1.0931
   83SOPE   H7Y 7687   4.548   2.618   3.338  3.3357  2.4606  0.7274
   83SOPE   C38 7688   4.672   2.737   3.205  0.2656 -0.4157  0.0209
   83SOPE   H8X 7689   4.602   2.822   3.193 -1.0651 -1.3330  0.9480
   83SOPE   H8Y 7690   4.727   2.716   3.111  0.6799 -1.3044  0.4487
   83SOPE   C39 7691   4.767   2.768   3.316  0.4948 -0.9413  0.1692
   83SOPE   H9X 7692   4.861   2.798   3.265  0.0440  2.4085  1.1173
   83SOPE   H9Y 7693   4.787   2.670   3.365 -2.3388 -2.4443 -1.3726
   83SOPE  C310 7694   4.713   2.878   3.404 -0.0072 -0.7398  0.5251
   83SOPE  H10X 7695   4.603   2.870   3.413  0.1028 -1.9079  0.9148
   83SOPE  H10Y 7696   4.723   2.976   3.351 -1.6421 -1.1753 -0.6551
   83SOPE  C311 7697   4.779   2.872   3.544 -0.6324  0.4019  0.3980
   83SOPE  H11X 7698   4.889   2.875   3.529 -0.8381  1.7974 -1.2105
   83SOPE  H11Y 7699   4.749   2.775   3.588 -1.0908 -0.3308 -1.4163
   83SOPE  C312 7700   4.743   2.998   3.623 -0.7816  0.3711 -0.9702
   83SOPE  H12X 7701   4.633   2.998   3.641 -1.1177  1.9529 -2.7334
   83SOPE  H12Y 7702   4.756   3.096   3.574  0.1303  0.9773  0.4393
   83SOPE  C313 7703   4.805   3.003   3.765 -0.7461 -1.0818  0.3688
   83SOPE  H13X 7704   4.915   3.007   3.754 -0.8693  1.7875 -0.6938
   83SOPE  H13Y 7705   4.776   2.906   3.811 -1.8969 -0.2108  1.5751
   83SOPE  C314 7706   4.771   3.126   3.847  0.7304 -0.1534 -0.3746
   83SOPE  H14X 7707   4.667   3.113   3.883  1.7486 -0.6657  2.6159
   83SOPE  H14Y 7708   4.764   3.217   3.783 -1.8320  0.3499  0.5292
   83SOPE  C315 7709   4.843   3.152   3.974 -0.1334  0.0488 -0.0833
   83SOPE  H15X 7710   4.878   3.257   3.976  0.3363 -0.1087  1.6024
   83SOPE  H15Y 7711   4.920   3.075   3.996 -0.3812  0.5101  2.7478
   83SOPE  C316 7712   4.748   3.128   4.093  0.0274 -0.7997 -0.4639
   83SOPE  H16X 7713   4.742   3.020   4.119 -1.1276 -0.5244  0.5691
   83SOPE  H16Y 7714   4.645   3.166   4.072  1.6246  2.7443 -2.8140
   83SOPE  C317 7715   4.804   3.189   4.223  0.4123  0.4523  0.1800
   83SOPE  H17X 7716   4.833   3.292   4.195 -2.0411  0.8297 -1.2575
   83SOPE  H17Y 7717   4.893   3.137   4.264 -0.0537  1.2550  2.3598
   83SOPE  C318 7718   4.706   3.194   4.336  0.3730  0.2591  0.2942
   83SOPE  H18X 7719   4.761   3.196   4.432  3.1097 -1.1071 -1.1415
   83SOPE  H18Y 7720   4.640   3.106   4.351  1.3728 -0.6807 -0.6912
   83SOPE  H18Z 7721   4.635   3.279   4.322 -0.9480 -0.9659 -0.8220
   84SOPE     N 7722   2.106   1.514   2.051 -0.0765 -0.4220  0.3279
   84SOPE   HN1 7723   2.120   1.418   2.015 -0.8897 -0.5242  0.2755
   84SOPE   HN2 7724   2.090   1.572   1.966  0.5284  0.2131  0.6305
   84SOPE   HN3 7725   2.199   1.544   2.088 -0.0615 -0.7387  0.5512
   84SOPE   C12 7726   1.992   1.522   2.156  0.3655 -0.3099 -0.5974
   84SOPE  H12A 7727   1.907   1.459   2.124 -1.2193  1.2411  0.3537
   84SOPE  H12B 7728   1.958   1.628   2.159  0.1477 -0.3153 -2.0550
   84SOPE   C11 7729   2.041   1.472   2.298  0.4910 -0.1595  0.0594
   84SOPE  H11A 7730   2.088   1.373   2.282 -0.0318 -0.9161  2.6175
   84SOPE  H11B 7731   1.943   1.456   2.348 -0.5835  0.9754 -1.5816
   84SOPE     P 7732   2.271   1.567   2.360 -0.3059  0.2353 -0.3849
   84SOPE   O13 7733   2.315   1.702   2.402  0.4106  0.1134  0.8461
   84SOPE   O14 7734   2.312   1.522   2.225 -0.2811 -0.1849  0.0963
   84SOPE   O12 7735   2.116   1.569   2.370  0.0698 -0.6546 -0.1412
   84SOPE   O11 7736   2.305   1.461   2.473  0.0169  0.6410 -0.4346
   84SOPE    C1 7737   2.345   1.483   2.607 -0.7878  0.0866  0.1930
   84SOPE    HA 7738   2.410   1.572   2.619  0.3227 -0.4417 -1.6475
   84SOPE    HB 7739   2.396   1.394   2.649  0.2228  0.0010 -1.1791
   84SOPE    C2 7740   2.230   1.515   2.705  0.6634 -0.3195  0.6941
   84SOPE    HS 7741   2.177   1.597   2.652  0.9089  0.5725  1.7980
   84SOPE   O21 7742   2.287   1.542   2.840 -0.1002 -0.1680  0.0163
   84SOPE   C21 7743   2.302   1.674   2.870 -0.4147 -1.4403 -0.6497
   84SOPE   O22 7744   2.267   1.766   2.796 -0.3397  0.1346  0.2389
   84SOPE   C22 7745   2.355   1.680   3.013 -0.0401  0.5403 -0.0235
   84SOPE   H2R 7746   2.350   1.783   3.055 -2.2986  0.6539 -0.4502
   84SOPE   H2S 7747   2.463   1.658   3.000 -0.7540 -2.7700 -1.2124
   84SOPE    C3 7748   2.141   1.384   2.706  0.2243  0.2539 -0.5247
   84SOPE    HX 7749   2.183   1.312   2.780  0.1381 -0.0327 -0.7493
   84SOPE    HY 7750   2.160   1.336   2.607 -0.9863 -1.3590 -0.0303
   84SOPE   O31 7751   2.001   1.411   2.730  0.0132  0.6741  0.1055
   84SOPE   C31 7752   1.917   1.327   2.660  0.4232  0.1714  0.1103
   84SOPE   O32 7753   1.951   1.240   2.584 -0.3773  0.2235  0.4918
   84SOPE   C32 7754   1.771   1.364   2.702  0.3078 -0.5543 -0.0551
   84SOPE   H2X 7755   1.753   1.472   2.681 -1.0150  0.2573  4.3781
   84SOPE   H2Y 7756   1.768   1.345   2.811 -0.5617 -0.7010 -0.0952
   84SOPE   C23 7757   2.284   1.593   3.118 -0.0366  0.5852 -0.4904
   84SOPE   H3R 7758   2.292   1.487   3.085  2.1928  0.0898  1.4168
   84SOPE   H3S 7759   2.181   1.629   3.137  0.1029 -0.2157  2.1974
   84SOPE   C24 7760   2.363   1.598   3.242 -0.5635 -0.0200  0.2166
   84SOPE   H4R 7761   2.467   1.561   3.226 -1.4936 -1.4794 -3.5106
   84SOPE   H4S 7762   2.382   1.702   3.276 -1.1204  0.9038 -2.1348
   84SOPE   C25 7763   2.296   1.525   3.360  0.2809 -0.5491 -0.2034
   84SOPE   H5R 7764   2.193   1.564   3.375  0.3902 -0.6296  0.9014
   84SOPE   H5S 7765   2.281   1.423   3.319 -0.7349 -0.8985  0.9686
   84SOPE   C26 7766   2.368   1.526   3.492 -0.6451  0.3272  0.0869
   84SOPE   H6R 7767   2.406   1.625   3.524  0.5107  0.0965 -0.5010
   84SOPE   H6S 7768   2.308   1.478   3.572  0.1248  0.6027  0.8506
   84SOPE   C27 7769   2.497   1.439   3.474  0.1950 -0.7089 -0.3106
   84SOPE   H7R 7770   2.478   1.338   3.433 -1.4235 -1.8273  2.9019
   84SOPE   H7S 7771   2.568   1.500   3.413 -1.2396  0.7988 -0.5605
   84SOPE   C28 7772   2.574   1.428   3.614  0.0151  0.0888 -0.1127
   84SOPE   H8R 7773   2.667   1.375   3.587 -1.0837 -2.7003  1.2291
   84SOPE   H8S 7774   2.600   1.530   3.649  2.7743 -1.1430  1.7161
   84SOPE   C29 7775   2.503   1.335   3.718  0.2591 -0.6040 -0.1594
   84SOPE   H91 7776   2.524   1.228   3.704  0.0115 -0.6861  0.0830
   84SOPE  C210 7777   2.454   1.385   3.829 -0.4369 -0.5044 -0.6570
   84SOPE  H101 7778   2.430   1.306   3.901  1.1648 -0.0488  0.4149
   84SOPE  C211 7779   2.424   1.533   3.856  0.3079  0.1305  0.4536
   84SOPE  H11R 7780   2.423   1.583   3.757  0.0656  0.7502  0.7647
   84SOPE  H11S 7781   2.501   1.581   3.920 -2.3576  4.2062  0.9933
   84SOPE  C212 7782   2.291   1.556   3.925 -0.2274 -0.2823  0.2142
   84SOPE  H12R 7783   2.295   1.501   4.022  0.7654  0.9434  0.9012
   84SOPE  H12S 7784   2.208   1.523   3.859 -0.8752 -0.0102  0.8682
   84SOPE  C213 7785   2.279   1.710   3.965 -0.1710  0.1451 -0.2556
   84SOPE  H13R 7786   2.289   1.765   3.869  2.2712 -0.4518 -0.4196
   84SOPE  H13S 7787   2.373   1.735   4.020 -0.8190 -0.6592  1.2766
   84SOPE  C214 7788   2.154   1.756   4.048  0.6401 -0.6639 -0.4486
   84SOPE  H14R 7789   2.075   1.695   3.998  0.5659  0.8605 -2.3252
   84SOPE  H14S 7790   2.132   1.863   4.027  3.5187  0.2948  0.9629
   84SOPE  C215 7791   2.162   1.720   4.198  0.0631 -0.0327 -0.4219
   84SOPE  H15R 7792   2.201   1.618   4.217  1.2717  0.6279  0.8036
   84SOPE  H15S 7793   2.056   1.728   4.231 -0.3415  2.4345 -2.0624
   84SOPE  C216 7794   2.251   1.822   4.285  0.0311  0.6877  0.0188
   84SOPE  H16R 7795   2.180   1.890   4.337 -0.1422 -1.0425  2.2020
   84SOPE  H16S 7796   2.324   1.884   4.230  1.3895  1.4109  2.4808
   84SOPE  C217 7797   2.335   1.754   4.399  0.6641 -0.3045  0.6980
   84SOPE  H17R 7798   2.257   1.728   4.473  0.4002  2.1692  1.3979
   84SOPE  H17S 7799   2.396   1.833   4.449 -1.3530  0.1508  2.5785
   84SOPE  C218 7800   2.427   1.637   4.353  0.1793  0.3359 -0.5335
   84SOPE  H18R 7801   2.366   1.545   4.337  0.0099  0.4198 -0.3768
   84SOPE  H18S 7802   2.511   1.619   4.422 -2.5701 -2.2766  2.5122
   84SOPE  H18T 7803   2.473   1.668   4.257  2.4618 -1.6678 -0.1846
   84SOPE   C33 7804   1.666   1.286   2.621 -0.1848 -0.5835 -0.4465
   84SOPE   H3X 7805   1.684   1.177   2.629  2.2482 -0.3463 -1.5004
   84SOPE   H3Y 7806   1.681   1.309   2.513  0.8957  1.1732  0.0405
   84SOPE   C34 7807   1.521   1.312   2.652  0.4284 -0.5002 -0.2107
   84SOPE   H4X 7808   1.458   1.251   2.584 -0.8957  0.8237 -0.2284
   84SOPE   H4Y 7809   1.496   1.417   2.627  0.9825  0.5006  2.9807
   84SOPE   C35 7810   1.472   1.284   2.802 -0.1434  0.1078 -0.2439
   84SOPE   H5X 7811   1.528   1.356   2.866  0.2462  0.1038 -0.5740
   84SOPE   H5Y 7812   1.484   1.176   2.823 -0.9211  0.1749  0.5943
   84SOPE   C36 7813   1.325   1.307   2.830 -0.5679  1.4346  0.4869
   84SOPE   H6X 7814   1.284   1.209   2.864  1.3236  0.4347  0.0648
   84SOPE   H6Y 7815   1.274   1.343   2.739 -0.6956 -0.1297 -0.1039
   84SOPE   C37 7816   1.313   1.409   2.944  0.5094  0.1163  0.3776
   84SOPE   H7X 7817   1.206   1.440   2.944  0.0542 -1.1991 -1.8020
   84SOPE   H7Y 7818   1.370   1.497   2.909  0.8992 -0.3355 -0.1562
   84SOPE   C38 7819   1.363   1.366   3.082 -0.4914  0.1391 -0.0430
   84SOPE   H8X 7820   1.372   1.459   3.142  1.7859  1.1513 -1.7609
   84SOPE   H8Y 7821   1.466   1.325   3.079 -0.7218 -0.3884 -1.5353
   84SOPE   C39 7822   1.267   1.257   3.151 -0.5794 -0.6576 -0.2296
   84SOPE   H9X 7823   1.262   1.169   3.083  0.7231 -0.6142 -0.4138
   84SOPE   H9Y 7824   1.163   1.295   3.141  0.0600  1.4498  0.4416
   84SOPE  C310 7825   1.300   1.211   3.291 -0.0638 -0.2012 -0.3318
   84SOPE  H10X 7826   1.410   1.220   3.302 -0.1499 -0.8272  1.4584
   84SOPE  H10Y 7827   1.282   1.102   3.303  0.2508 -0.3999 -1.5409
   84SOPE  C311 7828   1.236   1.301   3.397  0.0904 -0.2336  0.4371
   84SOPE  H11X 7829   1.138   1.338   3.359  0.3765  0.3528  0.2668
   84SOPE  H11Y 7830   1.304   1.387   3.407  0.0141  0.2472 -2.2362
   84SOPE  C312 7831   1.206   1.251   3.533  0.8758  0.5136  0.5637
   84SOPE  H12X 7832   1.130   1.170   3.525  1.7513 -0.2402 -0.4061
   84SOPE  H12Y 7833   1.149   1.330   3.587  0.3030 -0.8424  2.0030
   84SOPE  C313 7834   1.322   1.216   3.621 -0.2450 -0.1514 -0.0601
   84SOPE  H13X 7835   1.388   1.304   3.634 -0.9026  0.3351  0.0072
   84SOPE  H13Y 7836   1.372   1.138   3.560 -1.0656 -0.2024 -0.6834
   84SOPE  C314 7837   1.282   1.178   3.761  0.1625  0.2611  0.1742
   84SOPE  H14X 7838   1.353   1.103   3.802  1.9126  2.4196  1.2853
   84SOPE  H14Y 7839   1.176   1.145   3.771 -0.6484  2.5638 -0.3055
   84SOPE  C315 7840   1.293   1.289   3.876  0.2651  0.3712  0.5980
   84SOPE  H15X 7841   1.201   1.351   3.867 -0.5964 -0.5570  2.3875
   84SOPE  H15Y 7842   1.394   1.334   3.863  0.5470  0.0445  1.6142
   84SOPE  C316 7843   1.298   1.236   4.025 -0.6589 -0.5898 -0.1882
   84SOPE  H16X 7844   1.386   1.169   4.032 -0.0806  0.1782 -0.0098
   84SOPE  H16Y 7845   1.205   1.179   4.045 -0.3500 -0.3987  2.0100
   84SOPE  C317 7846   1.298   1.352   4.126 -0.3827 -0.5056  0.1676
   84SOPE  H17X 7847   1.205   1.409   4.104  0.6926  0.6436 -1.7146
   84SOPE  H17Y 7848   1.377   1.428   4.105 -2.4752  1.5981 -0.5034
   84SOPE  C318 7849   1.301   1.298   4.269 -0.1205 -0.3582  0.0957
   84SOPE  H18X 7850   1.404   1.258   4.286  0.0993  1.1633  2.9703
   84SOPE  H18Y 7851   1.212   1.238   4.298 -0.7716  1.1151  1.2520
   84SOPE  H18Z 7852   1.302   1.388   4.335  1.6861 -0.2684  0.0179
   85SOPE     N 7853   0.576   5.364   2.235 -0.6408  0.6974  0.0549
   85SOPE   HN1 7854   0.532   5.342   2.327 -2.3010  3.6127  0.0716
   85SOPE   HN2 7855   0.677   5.384   2.243 -0.2363 -0.9873 -0.3957
   85SOPE   HN3 7856   0.512   5.438   2.200  1.0004  1.1777 -2.1078
   85SOPE   C12 7857   0.561   5.247   2.137 -0.0726  0.0964 -0.6096
   85SOPE  H12A 7858   0.633   5.166   2.162 -0.2565 -0.3437 -1.4734
   85SOPE  H12B 7859   0.593   5.296   2.042  2.6469 -0.8647 -0.2764
   85SOPE   C11 7860   0.417   5.190   2.131 -0.0709 -0.5439  0.0246
   85SOPE  H11A 7861   0.399   5.144   2.231 -0.0148  1.1067  0.8197
   85SOPE  H11B 7862   0.412   5.111   2.053  0.0627 -1.3971  0.8531
   85SOPE     P 7863   0.164   5.254   2.118  0.0812  0.1265  0.0492
   85SOPE   O13 7864   0.140   5.172   1.994 -1.3558  0.3809 -0.2003
   85SOPE   O14 7865   0.084   5.373   2.133  0.0437 -0.3378 -0.5672
   85SOPE   O12 7866   0.321   5.302   2.120  0.6050  0.1673 -0.4566
   85SOPE   O11 7867   0.152   5.163   2.249 -1.0200  0.2152 -0.0485
   85SOPE    C1 7868   0.113   5.212   2.376  0.3679 -0.0817  0.3230
   85SOPE    HA 7869   0.046   5.135   2.421 -2.7189  1.2894 -1.5628
   85SOPE    HB 7870   0.029   5.284   2.365 -1.9215 -2.2334  2.2861
   85SOPE    C2 7871   0.225   5.268   2.458 -0.2695 -0.1814 -0.5980
   85SOPE    HS 7872   0.281   5.330   2.384 -0.2292 -0.2234 -0.6024
   85SOPE   O21 7873   0.297   5.152   2.498  0.6273 -0.2499 -0.3384
   85SOPE   C21 7874   0.421   5.170   2.531 -0.4470 -0.6625 -0.0296
   85SOPE   O22 7875   0.487   5.271   2.499 -0.4310 -0.2245 -0.4910
   85SOPE   C22 7876   0.468   5.058   2.620 -0.5334 -0.4832 -0.1388
   85SOPE   H2R 7877   0.526   4.984   2.560  0.5275  0.8981 -0.8775
   85SOPE   H2S 7878   0.379   5.011   2.666  1.2954 -1.2859  2.9494
   85SOPE    C3 7879   0.169   5.351   2.583  0.1106  0.5032 -1.3216
   85SOPE    HX 7880   0.150   5.276   2.662 -1.1213 -0.0273 -2.0809
   85SOPE    HY 7881   0.072   5.383   2.540 -0.3768 -1.4643 -1.7589
   85SOPE   O31 7882   0.258   5.449   2.639 -1.2481 -0.1390  0.0003
   85SOPE   C31 7883   0.269   5.556   2.556  0.4624  0.8740 -0.1587
   85SOPE   O32 7884   0.197   5.581   2.456 -0.4857  0.1156  0.1116
   85SOPE   C32 7885   0.368   5.644   2.631 -0.2272 -0.6519  0.0279
   85SOPE   H2X 7886   0.334   5.739   2.585  0.8890 -1.3616 -2.4343
   85SOPE   H2Y 7887   0.463   5.612   2.582 -0.9279 -3.5173  0.3744
   85SOPE   C23 7888   0.566   5.095   2.729 -0.4465  0.1640  0.1317
   85SOPE   H3R 7889   0.656   5.142   2.682  0.9599 -1.1945  1.3589
   85SOPE   H3S 7890   0.597   5.006   2.788 -2.7277 -0.3696  0.6276
   85SOPE   C24 7891   0.506   5.188   2.833 -0.0703  0.4021 -0.6901
   85SOPE   H4R 7892   0.517   5.293   2.798 -1.6056 -0.1766 -3.1640
   85SOPE   H4S 7893   0.402   5.156   2.857  0.3569 -1.2758 -0.9755
   85SOPE   C25 7894   0.597   5.174   2.956  0.2681  0.0817  0.0854
   85SOPE   H5R 7895   0.587   5.067   2.985 -2.8943 -0.6389 -2.9454
   85SOPE   H5S 7896   0.703   5.193   2.926  0.7768  0.3661  1.9438
   85SOPE   C26 7897   0.542   5.272   3.061 -0.5459  0.2236 -0.7187
   85SOPE   H6R 7898   0.548   5.380   3.037  0.3547  1.0900  2.8250
   85SOPE   H6S 7899   0.433   5.250   3.065 -0.1416 -2.0161 -0.4313
   85SOPE   C27 7900   0.601   5.256   3.203  0.7137  0.0775  0.0340
   85SOPE   H7R 7901   0.581   5.156   3.247  0.9474 -0.5349 -1.2142
   85SOPE   H7S 7902   0.711   5.256   3.189  0.8908  1.6725  1.1620
   85SOPE   C28 7903   0.579   5.375   3.297 -0.1897 -0.3686 -0.7118
   85SOPE   H8R 7904   0.657   5.361   3.375 -1.3336  0.7314  0.6883
   85SOPE   H8S 7905   0.588   5.473   3.246  0.5383  1.2262  2.2399
   85SOPE   C29 7906   0.446   5.356   3.353  0.1124 -0.0192  1.0196
   85SOPE   H91 7907   0.381   5.283   3.303 -0.4029  0.4072  1.0540
   85SOPE  C210 7908   0.397   5.429   3.455  0.1070 -0.8729  0.4615
   85SOPE  H101 7909   0.289   5.420   3.469  0.0279 -2.3197 -0.7839
   85SOPE  C211 7910   0.477   5.524   3.543  0.4169  0.1080 -0.6156
   85SOPE  H11R 7911   0.420   5.606   3.591  1.0546  0.6676 -0.7900
   85SOPE  H11S 7912   0.548   5.583   3.482 -0.7460  0.3146 -1.8087
   85SOPE  C212 7913   0.566   5.436   3.634 -0.0410  0.5014  0.4498
   85SOPE  H12R 7914   0.673   5.463   3.621 -0.2773  0.6101 -1.7027
   85SOPE  H12S 7915   0.560   5.327   3.612 -1.3309  0.6291  0.0539
   85SOPE  C213 7916   0.526   5.460   3.780 -0.2556  0.0566  0.3788
   85SOPE  H13R 7917   0.416   5.471   3.791 -0.1482  0.4309  1.1455
   85SOPE  H13S 7918   0.572   5.558   3.807 -0.3395  0.8302 -2.0369
   85SOPE  C214 7919   0.588   5.354   3.870 -0.1333  0.5471 -0.3334
   85SOPE  H14R 7920   0.699   5.355   3.871 -0.1328  1.1355 -0.6696
   85SOPE  H14S 7921   0.557   5.257   3.825  2.5802  0.1116 -1.4517
   85SOPE  C215 7922   0.545   5.363   4.019 -0.0771  0.2032  0.1516
   85SOPE  H15R 7923   0.437   5.371   4.042  0.0240  0.3074  0.6030
   85SOPE  H15S 7924   0.598   5.451   4.060  1.9164 -1.2979  0.9509
   85SOPE  C216 7925   0.602   5.245   4.100 -0.1588 -0.0005  0.3471
   85SOPE  H16R 7926   0.711   5.225   4.090 -0.2543  0.3032 -1.5434
   85SOPE  H16S 7927   0.542   5.162   4.058 -1.4586  1.1572 -0.1585
   85SOPE  C217 7928   0.584   5.263   4.248  0.3982  0.2862 -0.1211
   85SOPE  H17R 7929   0.617   5.172   4.302  1.3801  0.9064  0.3722
   85SOPE  H17S 7930   0.475   5.272   4.269  0.5712 -0.3485  1.1448
   85SOPE  C218 7931   0.647   5.387   4.318  0.2527 -0.0881 -0.3801
   85SOPE  H18R 7932   0.594   5.480   4.289 -0.9884 -0.3626  0.8757
   85SOPE  H18S 7933   0.755   5.377   4.295  0.8428 -3.8793  2.8241
   85SOPE  H18T 7934   0.646   5.394   4.429 -0.4263  0.3974 -0.4096
   85SOPE   C33 7935   0.366   5.654   2.785  0.1275  0.6620 -0.3100
   85SOPE   H3X 7936   0.452   5.709   2.827 -0.9991 -0.2832  3.7226
   85SOPE   H3Y 7937   0.372   5.555   2.837  2.0935 -0.0193 -1.7129
   85SOPE   C34 7938   0.230   5.720   2.835 -0.9458  0.0371 -0.0514
   85SOPE   H4X 7939   0.152   5.646   2.807  0.4952 -1.6099  0.1475
   85SOPE   H4Y 7940   0.222   5.819   2.785  1.4844  1.2833  1.8104
   85SOPE   C35 7941   0.230   5.750   2.987  0.2943 -0.0265  0.1356
   85SOPE   H5X 7942   0.234   5.647   3.030 -0.2874 -1.5149 -3.0542
   85SOPE   H5Y 7943   0.131   5.790   3.019 -0.1239 -0.7451 -0.2046
   85SOPE   C36 7944   0.333   5.845   3.040 -0.4731 -0.2450  0.1521
   85SOPE   H6X 7945   0.319   5.944   2.992 -1.0927 -0.5989 -0.4190
   85SOPE   H6Y 7946   0.438   5.819   3.013  0.1959  1.9790  0.4588
   85SOPE   C37 7947   0.328   5.844   3.197 -0.6691 -0.2900  0.0180
   85SOPE   H7X 7948   0.347   5.739   3.226 -0.3313  0.2323  1.7745
   85SOPE   H7Y 7949   0.227   5.881   3.227  0.2504  2.3966  0.0984
   85SOPE   C38 7950   0.433   5.945   3.249  0.5653 -0.0642 -0.4321
   85SOPE   H8X 7951   0.439   6.039   3.189 -0.0023 -1.4054 -2.6979
   85SOPE   H8Y 7952   0.532   5.895   3.241 -0.5583 -2.2465 -1.7308
   85SOPE   C39 7953   0.398   5.989   3.406  0.0641  0.0788 -0.0528
   85SOPE   H9X 7954   0.290   6.012   3.406  0.2234  0.8641 -0.5590
   85SOPE   H9Y 7955   0.453   6.084   3.420 -0.6156  1.3056 -4.2407
   85SOPE  C310 7956   0.438   5.891   3.513  1.1180 -0.5304  0.0674
   85SOPE  H10X 7957   0.542   5.855   3.502  1.0381 -1.4038  1.7834
   85SOPE  H10Y 7958   0.366   5.808   3.500  1.0165 -0.4364  0.0261
   85SOPE  C311 7959   0.411   5.953   3.655 -0.0904  0.1489  0.2603
   85SOPE  H11X 7960   0.303   5.978   3.653  0.3765  2.7386  2.5892
   85SOPE  H11Y 7961   0.471   6.045   3.668  0.6748 -0.2821 -0.1366
   85SOPE  C312 7962   0.449   5.866   3.772  0.3062 -0.2119  0.2869
   85SOPE  H12X 7963   0.559   5.848   3.776  0.3023 -0.0885  1.2786
   85SOPE  H12Y 7964   0.401   5.766   3.764 -0.5069  0.1141  0.9818
   85SOPE  C313 7965   0.408   5.925   3.909  0.3589 -0.2162  0.4306
   85SOPE  H13X 7966   0.297   5.920   3.913  0.2626 -1.6923 -2.2022
   85SOPE  H13Y 7967   0.440   6.031   3.918 -3.3900  0.9694  2.0448
   85SOPE  C314 7968   0.467   5.851   4.035 -0.4763 -0.4576  0.5021
   85SOPE  H14X 7969   0.577   5.857   4.027 -0.4571 -1.4247 -0.1191
   85SOPE  H14Y 7970   0.450   5.741   4.035 -1.1160 -0.4385 -2.3233
   85SOPE  C315 7971   0.434   5.934   4.164 -0.3568  0.7182  0.1224
   85SOPE  H15X 7972   0.324   5.950   4.157 -0.4148  1.2419  1.7284
   85SOPE  H15Y 7973   0.478   6.036   4.158  1.4156  0.0258  0.9064
   85SOPE  C316 7974   0.455   5.858   4.295  0.0219  0.0504  0.0019
   85SOPE  H16X 7975   0.557   5.860   4.339 -0.2508  1.8410  0.6212
   85SOPE  H16Y 7976   0.428   5.752   4.276  0.4856  0.2908 -2.2333
   85SOPE  C317 7977   0.360   5.914   4.400  0.7807 -0.3669  0.1995
   85SOPE  H17X 7978   0.261   5.864   4.386 -0.7780  2.5881 -0.1324
   85SOPE  H17Y 7979   0.343   6.022   4.379  1.4439  0.4152  3.2062
   85SOPE  C318 7980   0.401   5.903   4.548 -0.2620 -0.2733 -0.9970
   85SOPE  H18X 7981   0.450   5.996   4.585 -1.2854 -0.8566  2.1477
   85SOPE  H18Y 7982   0.463   5.812   4.554  0.2713  0.1587  0.7976
   85SOPE  H18Z 7983   0.316   5.883   4.616  0.5286 -0.3135  0.0027
   86SOPE     N 7984   1.627   2.612   2.659  0.0484  0.1770 -0.4202
   86SOPE   HN1 7985   1.710   2.623   2.721 -0.4920  0.2356  0.3089
   86SOPE   HN2 7986   1.636   2.659   2.567 -1.2977 -0.5678 -0.9745
   86SOPE   HN3 7987   1.552   2.666   2.707 -0.0823 -0.5435  0.2099
   86SOPE   C12 7988   1.576   2.471   2.636 -0.6196  0.3732  0.0294
   86SOPE  H12A 7989   1.535   2.456   2.534  2.7303  0.8908 -1.5355
   86SOPE  H12B 7990   1.499   2.449   2.713  0.3940  0.6220  1.1405
   86SOPE   C11 7991   1.688   2.366   2.659  0.1807  0.3540  0.3014
   86SOPE  H11A 7992   1.637   2.267   2.657  1.7484 -0.5005  1.2367
   86SOPE  H11B 7993   1.734   2.360   2.760 -1.3470 -1.5681  0.9434
   86SOPE     P 7994   1.934   2.412   2.579 -0.0652  0.2121  0.5137
   86SOPE   O13 7995   1.933   2.561   2.599 -0.0655 -0.2972  0.4214
   86SOPE   O14 7996   2.003   2.360   2.466 -0.1782  0.1883 -0.0693
   86SOPE   O12 7997   1.793   2.370   2.556  0.0826 -0.8260 -0.0020
   86SOPE   O11 7998   1.975   2.341   2.707 -0.1009  0.0093  0.0976
   86SOPE    C1 7999   2.013   2.201   2.702 -0.0958 -0.1253  0.2759
   86SOPE    HA 8000   2.124   2.198   2.689 -0.2565 -0.6400 -1.1485
   86SOPE    HB 8001   1.971   2.146   2.615  1.4968 -0.9297 -0.0359
   86SOPE    C2 8002   1.951   2.121   2.827 -0.0541  0.2158 -0.1561
   86SOPE    HS 8003   1.840   2.129   2.837 -0.1260  1.9910 -1.7001
   86SOPE   O21 8004   2.007   2.173   2.950  0.2095  0.0447  0.2934
   86SOPE   C21 8005   1.959   2.283   3.007 -0.3331 -0.1342 -0.0631
   86SOPE   O22 8006   1.864   2.345   2.962 -0.1873  0.4985 -0.2246
   86SOPE   C22 8007   2.049   2.324   3.124  0.4292  0.2339  0.2290
   86SOPE   H2R 8008   2.132   2.370   3.068 -0.3581 -0.7132 -1.8234
   86SOPE   H2S 8009   2.084   2.235   3.182 -2.2026 -0.3166  1.1260
   86SOPE    C3 8010   1.981   1.965   2.812  0.0650  0.7853  0.3662
   86SOPE    HX 8011   2.086   1.953   2.844 -0.3882 -1.2459  1.2197
   86SOPE    HY 8012   1.968   1.948   2.703  2.0593 -0.6638  0.3144
   86SOPE   O31 8013   1.896   1.889   2.897  0.3565 -0.0869 -0.3950
   86SOPE   C31 8014   1.795   1.820   2.843 -0.6800 -0.2799 -0.3495
   86SOPE   O32 8015   1.761   1.830   2.724 -0.2025 -0.2734  0.7037
   86SOPE   C32 8016   1.711   1.736   2.942  0.3185  0.0738 -0.4975
   86SOPE   H2X 8017   1.765   1.716   3.037 -1.0505 -2.9194 -0.2231
   86SOPE   H2Y 8018   1.697   1.637   2.893  1.2697 -1.1436  1.5669
   86SOPE   C23 8019   1.978   2.433   3.220  0.1191 -0.7814 -0.2635
   86SOPE   H3R 8020   1.876   2.392   3.237 -0.2859 -0.6884 -2.1746
   86SOPE   H3S 8021   1.965   2.523   3.156  0.4311  1.7569  2.9857
   86SOPE   C24 8022   2.051   2.467   3.353  0.7304 -0.5093  0.3662
   86SOPE   H4R 8023   2.155   2.470   3.314 -0.4516  3.9004 -3.2504
   86SOPE   H4S 8024   2.013   2.567   3.382 -0.4141 -0.1980 -1.9268
   86SOPE   C25 8025   2.016   2.365   3.456  0.1733  0.4955 -1.0409
   86SOPE   H5R 8026   1.919   2.395   3.500 -0.3945 -1.0168 -1.2063
   86SOPE   H5S 8027   2.005   2.261   3.418 -0.9795 -0.6449  2.1476
   86SOPE   C26 8028   2.133   2.367   3.554 -0.8387  0.7752 -0.1016
   86SOPE   H6R 8029   2.225   2.337   3.500 -1.3815  0.9807 -1.1735
   86SOPE   H6S 8030   2.156   2.466   3.599 -0.5711  0.9893 -0.6976
   86SOPE   C27 8031   2.115   2.249   3.662 -0.6328 -0.0482  0.2332
   86SOPE   H7R 8032   2.043   2.289   3.738 -1.0352 -1.8595  0.8523
   86SOPE   H7S 8033   2.066   2.163   3.611 -0.7138  0.9315 -1.4115
   86SOPE   C28 8034   2.245   2.217   3.731 -0.2458  0.4367  0.0900
   86SOPE   H8R 8035   2.319   2.204   3.649 -1.1096  0.3981 -0.7044
   86SOPE   H8S 8036   2.270   2.309   3.787  0.6788  0.6130 -0.5829
   86SOPE   C29 8037   2.253   2.094   3.814  0.6983  0.0880 -0.1419
   86SOPE   H91 8038   2.218   2.000   3.770  0.2112  0.0580  0.3073
   86SOPE  C210 8039   2.286   2.088   3.940  0.0429  0.0648 -0.6206
   86SOPE  H101 8040   2.292   1.989   3.987  1.3576 -0.7201 -2.3376
   86SOPE  C211 8041   2.310   2.202   4.041  0.1172  0.0939  0.2970
   86SOPE  H11R 8042   2.300   2.303   3.995  3.7614 -0.8503 -3.1255
   86SOPE  H11S 8043   2.414   2.188   4.077 -0.6794 -0.3114  2.6347
   86SOPE  C212 8044   2.224   2.186   4.169 -0.3978  0.4274 -0.8340
   86SOPE  H12R 8045   2.245   2.084   4.209 -0.2800  0.3280 -1.1463
   86SOPE  H12S 8046   2.115   2.188   4.150 -0.5609  2.4557  0.0859
   86SOPE  C213 8047   2.239   2.304   4.273 -0.0448 -0.0816  0.4527
   86SOPE  H13R 8048   2.230   2.402   4.221  2.2744  0.4681  0.9410
   86SOPE  H13S 8049   2.340   2.297   4.320 -0.0562  0.8237  0.6248
   86SOPE  C214 8050   2.130   2.299   4.383 -0.1762 -0.5250 -0.4252
   86SOPE  H14R 8051   2.031   2.276   4.338  0.0927  1.3062 -2.1126
   86SOPE  H14S 8052   2.123   2.405   4.418 -0.8622 -0.4367 -0.8162
   86SOPE  C215 8053   2.157   2.211   4.508  0.1449 -0.2565  0.1035
   86SOPE  H15R 8054   2.254   2.232   4.558 -1.1875  0.4883  2.5913
   86SOPE  H15S 8055   2.151   2.101   4.495  0.6185 -0.5789  2.2080
   86SOPE  C216 8056   2.060   2.241   4.628 -0.4780  0.4042  0.2554
   86SOPE  H16R 8057   2.076   2.159   4.702 -2.0561 -2.5393 -2.4580
   86SOPE  H16S 8058   1.959   2.229   4.584 -0.2599  0.0393 -0.1522
   86SOPE  C217 8059   2.075   2.383   4.679  0.3794 -0.8398  0.1422
   86SOPE  H17R 8060   2.027   2.447   4.601 -0.5054 -2.1723 -0.4473
   86SOPE  H17S 8061   2.183   2.409   4.685 -0.1364  1.5293  0.1960
   86SOPE  C218 8062   2.016   2.400   4.823 -0.1033  0.7043  0.3656
   86SOPE  H18R 8063   2.021   2.508   4.849  0.5978  1.2845 -1.9992
   86SOPE  H18S 8064   2.079   2.341   4.893 -0.8992 -1.7334 -0.8413
   86SOPE  H18T 8065   1.913   2.359   4.832  0.9067 -2.3248 -0.4589
   86SOPE   C33 8066   1.575   1.796   2.979 -0.0864  0.4749  0.2904
   86SOPE   H3X 8067   1.499   1.716   2.979  0.6244 -0.2375  1.5345
   86SOPE   H3Y 8068   1.541   1.864   2.899  0.9670  0.1230 -0.4818
   86SOPE   C34 8069   1.579   1.873   3.112 -0.6530  0.3401  0.6015
   86SOPE   H4X 8070   1.488   1.932   3.135  0.1148  1.2960  1.2594
   86SOPE   H4Y 8071   1.669   1.937   3.119  1.0130 -1.7591 -0.3394
   86SOPE   C35 8072   1.582   1.766   3.227 -0.3237 -0.3878 -0.0886
   86SOPE   H5X 8073   1.612   1.819   3.320  0.1239  0.6571 -0.8068
   86SOPE   H5Y 8074   1.654   1.685   3.204  0.4512  0.1544  0.3975
   86SOPE   C36 8075   1.440   1.717   3.239 -0.1085 -0.0079 -0.9444
   86SOPE   H6X 8076   1.414   1.658   3.149 -0.6241 -0.6913 -0.3627
   86SOPE   H6Y 8077   1.362   1.796   3.233 -2.1289 -1.6780  1.3445
   86SOPE   C37 8078   1.401   1.645   3.363  0.1805  0.8279  0.1512
   86SOPE   H7X 8079   1.450   1.545   3.362  1.6350  1.4945 -2.0413
   86SOPE   H7Y 8080   1.291   1.631   3.361  0.3481 -0.5877  0.1075
   86SOPE   C38 8081   1.452   1.710   3.495 -0.3979 -0.3967 -0.2388
   86SOPE   H8X 8082   1.409   1.812   3.485  0.0882  0.3539  3.6716
   86SOPE   H8Y 8083   1.562   1.714   3.510 -0.3228 -2.1663 -0.1200
   86SOPE   C39 8084   1.384   1.643   3.618  0.3335  0.4118  0.1408
   86SOPE   H9X 8085   1.444   1.556   3.652 -1.3632 -0.9883 -0.3260
   86SOPE   H9Y 8086   1.279   1.615   3.596  0.4606  0.5786 -0.7076
   86SOPE  C310 8087   1.379   1.746   3.733  0.1766 -0.1724  0.6700
   86SOPE  H10X 8088   1.312   1.829   3.703 -0.1485 -0.5597  0.3190
   86SOPE  H10Y 8089   1.486   1.775   3.748  0.7592 -1.1886 -1.2701
   86SOPE  C311 8090   1.333   1.691   3.870 -0.1760 -0.4658 -0.0016
   86SOPE  H11X 8091   1.394   1.600   3.891  1.0501  0.2485 -0.3759
   86SOPE  H11Y 8092   1.224   1.669   3.861 -0.8417  1.4102  2.5369
   86SOPE  C312 8093   1.346   1.794   3.983 -0.2263 -0.3540 -0.0456
   86SOPE  H12X 8094   1.306   1.893   3.952  0.5980 -0.3624 -1.1685
   86SOPE  H12Y 8095   1.453   1.815   4.008 -0.7485  0.6197  1.5206
   86SOPE  C313 8096   1.260   1.756   4.105 -0.2526 -0.3042 -0.0989
   86SOPE  H13X 8097   1.305   1.660   4.139  2.5206  0.2526 -1.8850
   86SOPE  H13Y 8098   1.154   1.749   4.070 -0.4632  1.3041  0.1369
   86SOPE  C314 8099   1.266   1.863   4.217 -0.1361  0.0552 -0.8044
   86SOPE  H14X 8100   1.224   1.956   4.173 -0.0008  0.5321  0.0402
   86SOPE  H14Y 8101   1.370   1.870   4.256 -0.7355  1.8150  0.6391
   86SOPE  C315 8102   1.188   1.818   4.348 -0.2695  0.1315  0.5383
   86SOPE  H15X 8103   1.086   1.786   4.316  0.0375 -2.4402  1.9008
   86SOPE  H15Y 8104   1.175   1.912   4.406 -0.2412  1.8882 -2.1075
   86SOPE  C316 8105   1.257   1.711   4.435 -0.0373  0.3634 -0.2815
   86SOPE  H16X 8106   1.355   1.755   4.463  0.3993 -0.0368 -1.1697
   86SOPE  H16Y 8107   1.273   1.620   4.375  0.0432 -1.0378  1.7463
   86SOPE  C317 8108   1.177   1.660   4.556  0.0644  0.0313  0.2597
   86SOPE  H17X 8109   1.242   1.600   4.624 -1.5413 -0.8105  1.1373
   86SOPE  H17Y 8110   1.110   1.581   4.516  1.2691 -1.2475  0.6580
   86SOPE  C318 8111   1.094   1.763   4.635 -0.6054  0.0127  0.4539
   86SOPE  H18X 8112   1.156   1.848   4.669  1.4733 -1.0750 -0.4512
   86SOPE  H18Y 8113   1.026   1.730   4.716 -1.8385 -0.3786 -0.6835
   86SOPE  H18Z 8114   1.029   1.812   4.559 -2.5601 -2.7632  0.1780
   87SOPE     N 8115   0.800   1.426   2.195  0.1670  0.5120 -0.1709
   87SOPE   HN1 8116   0.777   1.527   2.191  1.0746  0.7176 -0.3126
   87SOPE   HN2 8117   0.856   1.400   2.112 -1.4620  0.2816 -1.2493
   87SOPE   HN3 8118   0.712   1.370   2.206 -0.6125  1.6104 -0.6785
   87SOPE   C12 8119   0.886   1.423   2.318  0.7562  0.5571 -0.2662
   87SOPE  H12A 8120   0.961   1.505   2.311  0.2371  0.8917 -2.6605
   87SOPE  H12B 8121   0.936   1.324   2.323 -0.2022  0.1001  0.9773
   87SOPE   C11 8122   0.787   1.440   2.440  0.1666 -0.1641  0.0550
   87SOPE  H11A 8123   0.737   1.540   2.439 -1.0082 -0.7240  0.8470
   87SOPE  H11B 8124   0.854   1.428   2.527 -0.5374  0.3297  0.6862
   87SOPE     P 8125   0.688   1.200   2.487 -0.1856  0.0009 -0.3621
   87SOPE   O13 8126   0.731   1.129   2.365 -0.2082 -0.1268 -0.6601
   87SOPE   O14 8127   0.557   1.153   2.545  0.2958 -0.0731 -0.2040
   87SOPE   O12 8128   0.672   1.349   2.437  0.0086  0.1028  0.7413
   87SOPE   O11 8129   0.806   1.195   2.594 -0.9328  0.0971 -0.1343
   87SOPE    C1 8130   0.880   1.075   2.612  0.3187 -0.6029  0.5040
   87SOPE    HA 8131   0.980   1.072   2.565 -0.6768 -0.3060 -1.7878
   87SOPE    HB 8132   0.835   0.989   2.559  0.9543 -0.6174 -0.0179
   87SOPE    C2 8133   0.881   1.042   2.768  0.7118 -0.0645  0.6259
   87SOPE    HS 8134   0.940   0.948   2.779  0.9600  0.3282  3.3059
   87SOPE   O21 8135   0.747   1.026   2.811 -0.2479  0.5411  0.5091
   87SOPE   C21 8136   0.694   0.908   2.783  0.7010  0.1969 -0.0991
   87SOPE   O22 8137   0.747   0.818   2.713  0.5037 -0.5654 -0.2540
   87SOPE   C22 8138   0.559   0.907   2.850 -0.3425 -0.3083 -0.3651
   87SOPE   H2R 8139   0.483   0.933   2.774  0.3023  1.3861 -0.4537
   87SOPE   H2S 8140   0.556   0.984   2.930  0.4128 -0.9654  0.3069
   87SOPE    C3 8141   0.957   1.142   2.852 -0.0239  0.1763 -0.6343
   87SOPE    HX 8142   0.925   1.242   2.817 -1.4155 -0.0821 -0.1595
   87SOPE    HY 8143   1.066   1.123   2.838 -0.0044  1.0151 -1.7750
   87SOPE   O31 8144   0.918   1.135   2.993 -0.3830  0.3734 -0.8910
   87SOPE   C31 8145   0.964   1.033   3.057 -0.2198  1.2109  0.9196
   87SOPE   O32 8146   1.037   0.947   3.013  0.2955 -0.0373 -0.1554
   87SOPE   C32 8147   0.934   1.065   3.210  0.2575  0.2925  0.1485
   87SOPE   H2X 8148   0.910   1.173   3.217 -2.9144 -0.3855  1.1820
   87SOPE   H2Y 8149   1.026   1.058   3.273 -0.5252 -1.2519  1.2140
   87SOPE   C23 8150   0.521   0.769   2.919 -0.6778  0.3790  1.0521
   87SOPE   H3R 8151   0.564   0.691   2.852  1.5871  2.1544  0.3213
   87SOPE   H3S 8152   0.413   0.747   2.927 -0.5342 -1.8982 -1.5659
   87SOPE   C24 8153   0.578   0.759   3.057 -0.3533 -0.2624 -0.3778
   87SOPE   H4R 8154   0.686   0.783   3.061 -0.4476 -0.0714  2.4576
   87SOPE   H4S 8155   0.512   0.829   3.113 -0.7701  0.6100 -1.8777
   87SOPE   C25 8156   0.558   0.621   3.117  0.7146 -0.3975  0.6107
   87SOPE   H5R 8157   0.453   0.584   3.116  1.0625 -1.4093  1.0137
   87SOPE   H5S 8158   0.615   0.557   3.047 -0.8511  0.8870 -2.0108
   87SOPE   C26 8159   0.616   0.621   3.262  0.1002 -0.0458 -0.1858
   87SOPE   H6R 8160   0.637   0.515   3.291  1.5304  0.6526  1.4719
   87SOPE   H6S 8161   0.712   0.676   3.274 -0.7501  1.3554  0.4387
   87SOPE   C27 8162   0.518   0.679   3.367 -0.7254 -0.1904  0.0365
   87SOPE   H7R 8163   0.507   0.788   3.345  2.6536 -0.4335 -4.2943
   87SOPE   H7S 8164   0.420   0.630   3.351 -0.8544  0.6418 -1.9877
   87SOPE   C28 8165   0.550   0.648   3.520 -0.2867  0.1899 -0.1882
   87SOPE   H8R 8166   0.456   0.673   3.574 -0.8753 -1.2559 -0.4840
   87SOPE   H8S 8167   0.561   0.538   3.507  1.0604 -0.0058  1.9869
   87SOPE   C29 8168   0.672   0.704   3.575  0.1044 -0.1315 -0.0284
   87SOPE   H91 8169   0.767   0.675   3.528  0.5389 -1.2660  1.4681
   87SOPE  C210 8170   0.669   0.775   3.686  0.0680 -0.3361  0.0343
   87SOPE  H101 8171   0.764   0.817   3.722 -0.6478  1.3912  0.0100
   87SOPE  C211 8172   0.554   0.830   3.774 -0.9352 -0.0177  0.7219
   87SOPE  H11R 8173   0.461   0.771   3.761  0.2699 -1.8082 -0.4531
   87SOPE  H11S 8174   0.536   0.931   3.731  1.0683 -0.3937 -1.2439
   87SOPE  C212 8175   0.582   0.826   3.926 -0.6692  0.5076  0.7088
   87SOPE  H12R 8176   0.688   0.853   3.947 -0.1482 -0.3012 -0.7882
   87SOPE  H12S 8177   0.578   0.724   3.969  0.3933  0.1666  0.0487
   87SOPE  C213 8178   0.490   0.912   4.007  0.0154  0.2321 -0.1930
   87SOPE  H13R 8179   0.382   0.895   3.984 -0.3009  1.5051  0.2708
   87SOPE  H13S 8180   0.513   1.019   3.989 -1.6810  0.7362  0.4261
   87SOPE  C214 8181   0.513   0.894   4.164  0.4978  0.4311 -0.2698
   87SOPE  H14R 8182   0.620   0.891   4.193 -0.2312  0.9185  2.8784
   87SOPE  H14S 8183   0.467   0.796   4.191 -0.3083  0.6632 -0.7527
   87SOPE  C215 8184   0.440   1.007   4.240 -0.3728  0.5589 -0.1043
   87SOPE  H15R 8185   0.333   1.014   4.212 -0.4696  0.2346  0.1870
   87SOPE  H15S 8186   0.481   1.107   4.214  0.7259  0.0653 -0.3313
   87SOPE  C216 8187   0.448   0.989   4.394  0.1416  0.9288 -0.7819
   87SOPE  H16R 8188   0.544   0.957   4.440 -0.8758 -0.8430  0.2136
   87SOPE  H16S 8189   0.385   0.899   4.408  2.3754 -0.8813 -1.6630
   87SOPE  C217 8190   0.388   1.106   4.471  0.0474 -0.3184 -0.7680
   87SOPE  H17R 8191   0.299   1.070   4.527  0.3038  2.0595  1.3287
   87SOPE  H17S 8192   0.349   1.185   4.403  2.4461  2.0459  0.3940
   87SOPE  C218 8193   0.487   1.173   4.568  0.3380 -0.4228 -0.2953
   87SOPE  H18R 8194   0.503   1.112   4.660 -1.9356 -0.5124  0.1154
   87SOPE  H18S 8195   0.437   1.268   4.596 -1.7502 -1.1770 -1.2555
   87SOPE  H18T 8196   0.577   1.191   4.507  1.6987 -1.1960  1.3956
   87SOPE   C33 8197   0.823   0.986   3.269  0.6034  0.1854 -0.0552
   87SOPE   H3X 8198   0.829   0.885   3.223 -0.4445  1.0512 -2.2477
   87SOPE   H3Y 8199   0.729   1.027   3.228  0.3554 -2.0810 -1.9812
   87SOPE   C34 8200   0.810   0.980   3.420 -0.3529  0.4966 -0.4223
   87SOPE   H4X 8201   0.892   0.911   3.449  0.8158  0.2546 -3.9378
   87SOPE   H4Y 8202   0.715   0.931   3.450  0.6165 -0.6797  0.8901
   87SOPE   C35 8203   0.842   1.104   3.498  0.2597  0.1714 -0.5270
   87SOPE   H5X 8204   0.783   1.181   3.444  0.8062  0.2741 -0.9851
   87SOPE   H5Y 8205   0.947   1.137   3.486  0.0453  0.7936 -0.7577
   87SOPE   C36 8206   0.818   1.105   3.646  0.6278 -0.3859 -0.4803
   87SOPE   H6X 8207   0.879   1.026   3.694 -1.0601 -1.3940  0.0720
   87SOPE   H6Y 8208   0.711   1.076   3.649  1.1073 -2.3259 -0.7526
   87SOPE   C37 8209   0.862   1.231   3.728  0.4416  0.5558  0.5822
   87SOPE   H7X 8210   0.812   1.326   3.698 -3.5290 -1.3879  0.3568
   87SOPE   H7Y 8211   0.971   1.241   3.710  0.1385  1.9520 -0.6565
   87SOPE   C38 8212   0.856   1.204   3.883  0.5939  0.0990  0.3095
   87SOPE   H8X 8213   0.921   1.274   3.939 -1.4658  0.4869  2.3513
   87SOPE   H8Y 8214   0.872   1.102   3.922  0.7925  0.2325  0.5831
   87SOPE   C39 8215   0.709   1.236   3.927  0.2558  0.5191  0.4630
   87SOPE   H9X 8216   0.635   1.170   3.877  0.4514  0.5420  0.1412
   87SOPE   H9Y 8217   0.680   1.330   3.877  1.0957 -0.9059 -2.9855
   87SOPE  C310 8218   0.680   1.250   4.074 -0.6789 -0.2138 -0.2650
   87SOPE  H10X 8219   0.718   1.162   4.130  1.3679  1.7063  1.5624
   87SOPE  H10Y 8220   0.569   1.262   4.072 -0.5504  1.0101 -0.6014
   87SOPE  C311 8221   0.736   1.387   4.129 -0.0196  0.3901 -0.2245
   87SOPE  H11X 8222   0.687   1.463   4.065 -0.8965  0.5211  0.5773
   87SOPE  H11Y 8223   0.843   1.407   4.107 -0.1265 -0.1674 -1.2866
   87SOPE  C312 8224   0.693   1.412   4.277 -0.3635 -0.3010  0.1955
   87SOPE  H12X 8225   0.724   1.324   4.336  0.9937  0.1053  0.1219
   87SOPE  H12Y 8226   0.582   1.406   4.277 -0.3316 -0.8972 -0.1446
   87SOPE  C313 8227   0.750   1.544   4.345 -0.1856 -0.1995  0.0320
   87SOPE  H13X 8228   0.706   1.636   4.301  2.1675 -0.1943 -2.6689
   87SOPE  H13Y 8229   0.858   1.547   4.316 -0.1877 -0.3702  0.0082
   87SOPE  C314 8230   0.732   1.546   4.496  0.1302  0.2599 -0.8831
   87SOPE  H14X 8231   0.781   1.634   4.542 -1.1251  0.6898 -0.3301
   87SOPE  H14Y 8232   0.780   1.461   4.550 -0.7104  1.4742  1.9682
   87SOPE  C315 8233   0.589   1.540   4.533  0.4245  0.7029 -0.0936
   87SOPE  H15X 8234   0.542   1.445   4.500 -0.4577  1.4642 -1.1209
   87SOPE  H15Y 8235   0.542   1.619   4.471 -0.2410  1.7342  1.6328
   87SOPE  C316 8236   0.556   1.565   4.677 -0.0731  0.0347 -0.0119
   87SOPE  H16X 8237   0.591   1.661   4.722  2.0775 -1.8698  2.7394
   87SOPE  H16Y 8238   0.606   1.486   4.737  0.7242  1.4291  1.2456
   87SOPE  C317 8239   0.406   1.557   4.719  0.3161 -0.1168  0.1874
   87SOPE  H17X 8240   0.365   1.475   4.655  0.6950  0.8608 -1.3496
   87SOPE  H17Y 8241   0.368   1.656   4.689  1.5550  0.6200  0.9717
   87SOPE  C318 8242   0.372   1.531   4.865  0.0704 -0.9673 -0.0459
   87SOPE  H18X 8243   0.265   1.544   4.888 -0.0350  1.9143 -1.7699
   87SOPE  H18Y 8244   0.429   1.591   4.939 -1.1886  0.6170 -0.3170
   87SOPE  H18Z 8245   0.392   1.424   4.888 -0.2923 -1.2812 -1.1333
   88SOPE     N 8246   3.025   0.601   2.428 -0.2444 -0.6324  0.8544
   88SOPE   HN1 8247   3.063   0.670   2.495 -1.2407  0.0034  0.7805
   88SOPE   HN2 8248   2.924   0.621   2.419  0.0726  0.8270  0.2938
   88SOPE   HN3 8249   3.052   0.507   2.465  2.1653  0.1712  1.3217
   88SOPE   C12 8250   3.081   0.630   2.286 -0.2954  0.3034 -0.1575
   88SOPE  H12A 8251   3.192   0.629   2.293 -0.2537 -0.9777 -0.7872
   88SOPE  H12B 8252   3.046   0.731   2.257  1.5155  1.1299  0.3464
   88SOPE   C11 8253   3.036   0.524   2.186 -0.0557 -0.1506  0.4882
   88SOPE  H11A 8254   3.077   0.547   2.086  0.0474 -0.6476  0.4123
   88SOPE  H11B 8255   2.925   0.525   2.185 -0.1102  1.8361  2.3596
   88SOPE     P 8256   3.186   0.304   2.156  0.0830 -0.2224 -0.1641
   88SOPE   O13 8257   3.324   0.306   2.205  0.0630  0.3009 -0.0613
   88SOPE   O14 8258   3.164   0.332   2.011 -0.4669 -0.1209 -0.2020
   88SOPE   O12 8259   3.088   0.398   2.237  0.1372  0.1826 -0.2125
   88SOPE   O11 8260   3.126   0.156   2.183  0.1779 -0.0464  0.2070
   88SOPE    C1 8261   3.010   0.126   2.262  0.5286  0.1117  0.2118
   88SOPE    HA 8262   2.973   0.022   2.249 -2.8928  1.2327 -0.2201
   88SOPE    HB 8263   2.928   0.199   2.242  0.1310  0.0762  1.5639
   88SOPE    C2 8264   3.026   0.141   2.416 -0.2159  0.0878 -0.4620
   88SOPE    HS 8265   2.957   0.226   2.437 -0.4898 -0.5507  1.3757
   88SOPE   O21 8266   3.156   0.170   2.460 -0.2052  0.4180  0.1038
   88SOPE   C21 8267   3.179   0.288   2.517  0.7579  0.5425 -0.3816
   88SOPE   O22 8268   3.094   0.370   2.549 -0.2662  0.3181 -0.8361
   88SOPE   C22 8269   3.330   0.294   2.556  0.4151  0.3160 -0.6338
   88SOPE   H2R 8270   3.387   0.257   2.468  2.6774 -2.0758  1.6904
   88SOPE   H2S 8271   3.351   0.229   2.644  1.0612  3.9701  2.1472
   88SOPE    C3 8272   2.964   0.019   2.498  0.4746 -0.1334 -0.2285
   88SOPE    HX 8273   3.050  -0.051   2.495  0.1036 -0.5757 -1.0545
   88SOPE    HY 8274   2.869  -0.022   2.458 -2.4149  5.5390 -0.1581
   88SOPE   O31 8275   2.927   0.056   2.628  0.2757  0.3968 -0.6743
   88SOPE   C31 8276   3.006   0.063   2.730 -0.2531  0.8053  0.3883
   88SOPE   O32 8277   3.126   0.048   2.730 -0.5492  0.4152  0.0330
   88SOPE   C32 8278   2.920   0.089   2.850  0.1797 -0.2363  0.0812
   88SOPE   H2X 8279   2.838   0.016   2.868  1.0816 -0.9725  1.3084
   88SOPE   H2Y 8280   2.867   0.184   2.830 -2.3180 -1.6067 -0.1536
   88SOPE   C23 8281   3.383   0.426   2.613 -0.3709  0.4748 -0.0889
   88SOPE   H3R 8282   3.379   0.506   2.537  1.9646  0.5126 -0.2478
   88SOPE   H3S 8283   3.492   0.406   2.615 -0.4718 -0.0445  0.5553
   88SOPE   C24 8284   3.336   0.461   2.750  0.3175 -0.0418  0.9475
   88SOPE   H4R 8285   3.366   0.564   2.779 -0.1589  0.1712  0.7005
   88SOPE   H4S 8286   3.225   0.455   2.748  0.1402  2.0597  2.2704
   88SOPE   C25 8287   3.387   0.387   2.875  0.4814  0.3107  0.4368
   88SOPE   H5R 8288   3.359   0.280   2.868 -1.2966  0.8367 -2.7504
   88SOPE   H5S 8289   3.496   0.404   2.873  0.6843 -1.0251 -0.8766
   88SOPE   C26 8290   3.332   0.447   3.011  0.2004  0.2557  0.3420
   88SOPE   H6R 8291   3.373   0.549   3.025 -0.5301  0.5523  0.3243
   88SOPE   H6S 8292   3.222   0.461   3.009  0.3950  1.9150 -0.1483
   88SOPE   C27 8293   3.372   0.379   3.140  0.2184 -0.1850  0.2927
   88SOPE   H7R 8294   3.343   0.272   3.140  0.1417 -0.1645  0.3576
   88SOPE   H7S 8295   3.482   0.367   3.149  0.2502 -0.4315 -0.3848
   88SOPE   C28 8296   3.313   0.422   3.280  0.0531 -0.0627 -0.1826
   88SOPE   H8R 8297   3.354   0.344   3.347  0.2804  0.5115  0.3541
   88SOPE   H8S 8298   3.365   0.518   3.303  0.6192 -0.4347  0.0946
   88SOPE   C29 8299   3.166   0.445   3.260  0.1209 -0.0232  0.0566
   88SOPE   H91 8300   3.108   0.379   3.194 -1.3894 -0.8015  2.0395
   88SOPE  C210 8301   3.096   0.539   3.331  0.2020  0.5221  0.8187
   88SOPE  H101 8302   2.987   0.545   3.317  0.2607 -0.7994 -0.4510
   88SOPE  C211 8303   3.147   0.619   3.442 -0.4305 -0.4838 -1.1771
   88SOPE  H11R 8304   3.072   0.696   3.472  0.1316 -0.2609 -0.2984
   88SOPE  H11S 8305   3.240   0.673   3.413 -0.2205 -2.0874 -3.6965
   88SOPE  C212 8306   3.173   0.538   3.576  0.4454 -0.4214  0.1961
   88SOPE  H12R 8307   3.259   0.469   3.562  1.2597  0.6648 -0.2949
   88SOPE  H12S 8308   3.077   0.488   3.601 -1.3247  2.4939 -0.2915
   88SOPE  C213 8309   3.204   0.635   3.689  0.1110 -0.1192 -0.5305
   88SOPE  H13R 8310   3.115   0.700   3.683  0.4581  0.7747  2.4976
   88SOPE  H13S 8311   3.298   0.692   3.670  0.9788 -0.3925  2.4488
   88SOPE  C214 8312   3.210   0.588   3.833 -0.5793  0.4093  0.3935
   88SOPE  H14R 8313   3.304   0.531   3.849 -0.3432  0.5551 -0.4129
   88SOPE  H14S 8314   3.128   0.515   3.852  1.0516 -0.7611  3.8046
   88SOPE  C215 8315   3.214   0.702   3.938  0.7624 -0.5737  0.4732
   88SOPE  H15R 8316   3.231   0.794   3.878 -3.6727 -1.2517 -2.2875
   88SOPE  H15S 8317   3.303   0.688   4.004  0.0990 -0.7925  1.3309
   88SOPE  C216 8318   3.088   0.711   4.020 -0.1953 -0.1961  0.3200
   88SOPE  H16R 8319   3.059   0.609   4.052  3.2288 -0.9323  1.3951
   88SOPE  H16S 8320   3.008   0.754   3.955 -0.8050 -0.9513  0.5540
   88SOPE  C217 8321   3.100   0.794   4.147  0.2111  0.6195  0.5775
   88SOPE  H17R 8322   3.134   0.894   4.113  1.4513  0.0360  0.0481
   88SOPE  H17S 8323   3.171   0.743   4.215  0.3343  0.6790  0.4947
   88SOPE  C218 8324   2.970   0.795   4.230 -0.3261 -0.1052 -0.5341
   88SOPE  H18R 8325   2.959   0.698   4.284 -0.8894 -0.9523 -2.0929
   88SOPE  H18S 8326   2.877   0.812   4.172  0.4541  0.8209 -1.5596
   88SOPE  H18T 8327   2.986   0.871   4.310  2.2518 -1.5864  0.4867
   88SOPE   C33 8328   3.000   0.106   2.980  0.2220 -0.2476 -0.2551
   88SOPE   H3X 8329   3.048   0.206   2.974  1.1576 -0.7897 -2.3357
   88SOPE   H3Y 8330   3.082   0.033   2.992  0.9642  0.5180 -0.6109
   88SOPE   C34 8331   2.889   0.120   3.086 -0.2823 -0.0337 -1.3481
   88SOPE   H4X 8332   2.827   0.028   3.098  0.2452 -0.3216 -0.7741
   88SOPE   H4Y 8333   2.826   0.211   3.069 -1.2751 -0.1577  1.2207
   88SOPE   C35 8334   2.956   0.127   3.222  1.0855  0.4391  0.0144
   88SOPE   H5X 8335   3.025   0.214   3.224  0.6889  0.7521  0.7581
   88SOPE   H5Y 8336   3.019   0.038   3.241 -1.1826 -1.2734 -0.1086
   88SOPE   C36 8337   2.861   0.121   3.338  0.2671 -0.5873  0.0722
   88SOPE   H6X 8338   2.838   0.018   3.373 -1.5570 -0.2768 -0.1152
   88SOPE   H6Y 8339   2.768   0.175   3.312 -0.2784 -1.1274  0.8450
   88SOPE   C37 8340   2.920   0.190   3.467 -0.4381  0.3802 -0.4285
   88SOPE   H7X 8341   2.928   0.301   3.465 -0.8744  0.4059 -1.0003
   88SOPE   H7Y 8342   3.022   0.147   3.475 -0.2445  0.5537 -1.7266
   88SOPE   C38 8343   2.858   0.156   3.602 -0.2806  0.4920 -0.4155
   88SOPE   H8X 8344   2.866   0.046   3.619 -2.6875  0.5290  1.4821
   88SOPE   H8Y 8345   2.755   0.197   3.600 -0.0239  1.1409 -1.9739
   88SOPE   C39 8346   2.938   0.222   3.714 -0.0764  0.2286 -0.0194
   88SOPE   H9X 8347   2.928   0.331   3.694 -0.0181 -0.1550 -2.4239
   88SOPE   H9Y 8348   3.043   0.186   3.712 -0.2389 -0.2745  0.2641
   88SOPE  C310 8349   2.869   0.200   3.851 -0.2580  0.1589 -0.1732
   88SOPE  H10X 8350   2.862   0.091   3.870 -2.1253 -0.3240 -2.9147
   88SOPE  H10Y 8351   2.763   0.233   3.840 -0.5502 -0.5355  0.5097
   88SOPE  C311 8352   2.934   0.261   3.975  0.2162 -0.0165 -0.3731
   88SOPE  H11X 8353   2.849   0.273   4.046  0.7562 -0.2260  0.3266
   88SOPE  H11Y 8354   2.975   0.362   3.953  3.1144 -0.2407  2.9823
   88SOPE  C312 8355   3.056   0.173   4.027  0.1844 -0.0187  0.3597
   88SOPE  H12X 8356   3.145   0.238   4.037 -0.8673  1.7537 -1.1895
   88SOPE  H12Y 8357   3.087   0.104   3.945 -0.3435  0.6643 -0.4306
   88SOPE  C313 8358   3.021   0.098   4.158  0.0003  1.0444 -0.4865
   88SOPE  H13X 8359   2.937   0.030   4.131  1.2638 -1.4444  1.4270
   88SOPE  H13Y 8360   2.978   0.161   4.238 -0.1024  0.7913 -0.3416
   88SOPE  C314 8361   3.134   0.012   4.222 -0.4067 -0.1841 -0.2741
   88SOPE  H14X 8362   3.220   0.077   4.252 -1.1451  0.7888 -0.2159
   88SOPE  H14Y 8363   3.170  -0.054   4.141  4.1724  2.3222 -0.6497
   88SOPE  C315 8364   3.071  -0.067   4.338  0.7415  0.2556  0.0879
   88SOPE  H15X 8365   2.991  -0.129   4.293  1.0214  1.1574 -1.7700
   88SOPE  H15Y 8366   3.028   0.004   4.412  0.0104  0.8158 -0.8466
   88SOPE  C316 8367   3.180  -0.144   4.414 -0.0610 -0.0251  0.3523
   88SOPE  H16X 8368   3.213  -0.230   4.353  0.0239 -0.0564  0.4416
   88SOPE  H16Y 8369   3.128  -0.175   4.506  3.3103 -1.0257  2.0795
   88SOPE  C317 8370   3.300  -0.057   4.464 -0.2327  0.1047 -0.0268
   88SOPE  H17X 8371   3.245   0.029   4.507  0.6576  0.4008  0.5402
   88SOPE  H17Y 8372   3.365  -0.009   4.388  0.4874  1.1981  1.2210
   88SOPE  C318 8373   3.392  -0.128   4.564  0.3256  0.0758 -0.5943
   88SOPE  H18X 8374   3.482  -0.162   4.509  0.7638 -0.8294  0.6234
   88SOPE  H18Y 8375   3.349  -0.222   4.605  0.3774 -0.1053 -0.9519
   88SOPE  H18Z 8376   3.408  -0.062   4.652  2.5603 -1.5359  0.3187
   89SAPC     N 8377   0.667   4.334   7.027 -0.1165 -0.5008 -0.2187
   89SAPC   C12 8378   0.767   4.357   6.916  0.2588  0.1877 -0.2328
   89SAPC  H12A 8379   0.852   4.292   6.925 -0.7974 -1.1558  0.5022
   89SAPC  H12B 8380   0.815   4.449   6.944  1.5049 -0.6027  0.2889
   89SAPC   C13 8381   0.606   4.206   7.006 -0.3761  0.2197 -0.3643
   89SAPC  H13A 8382   0.561   4.190   6.909 -1.4248 -1.1329  0.3075
   89SAPC  H13B 8383   0.675   4.125   7.024  0.1368  1.1440  2.3397
   89SAPC  H13C 8384   0.522   4.186   7.071  0.5901 -0.2444  0.7909
   89SAPC   C14 8385   0.733   4.331   7.162  0.3829 -0.2921 -0.3731
   89SAPC  H14A 8386   0.666   4.330   7.247 -1.2177  0.7927 -1.5782
   89SAPC  H14B 8387   0.812   4.258   7.164  3.5547  2.8311 -0.3356
   89SAPC  H14C 8388   0.794   4.419   7.180 -0.7776  0.6357 -0.8778
   89SAPC   C15 8389   0.557   4.439   7.016  0.5056  0.1351  0.1662
   89SAPC  H15A 8390   0.594   4.537   7.043 -1.7133  0.6014  1.7942
   89SAPC  H15B 8391   0.526   4.436   6.913 -1.3727 -4.2301  0.6460
   89SAPC  H15C 8392   0.474   4.422   7.084  0.3607  0.0088 -0.0402
   89SAPC   C11 8393   0.728   4.360   6.769  0.2239 -0.0031  0.2255
   89SAPC  H11A 8394   0.808   4.409   6.710  0.9143  1.9269  2.6094
   89SAPC  H11B 8395   0.641   4.429   6.763 -0.0963 -0.2518  1.6661
   89SAPC     P 8396   0.779   4.141   6.643 -0.1189  0.1560 -0.1451
   89SAPC   O13 8397   0.915   4.132   6.708  0.0096  0.2056  0.4559
   89SAPC   O14 8398   0.706   4.014   6.621  0.6883  0.1775 -0.2437
   89SAPC   O12 8399   0.691   4.231   6.735  0.6379  0.7119  0.1913
   89SAPC   O11 8400   0.788   4.221   6.509 -0.0333  0.0787  1.1484
   89SAPC    C1 8401   0.670   4.241   6.428  0.3170 -0.7470 -0.0277
   89SAPC    HA 8402   0.574   4.220   6.478  0.1725  0.7512  0.3749
   89SAPC    HB 8403   0.669   4.351   6.412 -0.6561  0.0593  4.3827
   89SAPC    C2 8404   0.685   4.182   6.279  0.0791 -0.4984  0.6256
   89SAPC    HS 8405   0.654   4.076   6.288 -2.8226  0.3069  1.0352
   89SAPC   O21 8406   0.818   4.209   6.224  0.3456  0.5551 -0.2929
   89SAPC   C21 8407   0.904   4.108   6.239 -0.7453  0.2281 -0.6903
   89SAPC   O22 8408   0.884   3.994   6.281 -0.1261 -0.2923 -0.1455
   89SAPC   C22 8409   1.044   4.163   6.210  0.2072 -0.3063  0.6069
   89SAPC   H2R 8410   1.039   4.272   6.229  0.6829 -0.6777  3.2457
   89SAPC   H2S 8411   1.119   4.113   6.275 -0.2209  0.6746  1.8963
   89SAPC    C3 8412   0.586   4.258   6.183  0.1664 -0.1004 -0.5193
   89SAPC    HX 8413   0.616   4.364   6.173  3.0117 -0.8518 -1.0240
   89SAPC    HY 8414   0.482   4.259   6.222 -1.3081  0.5496 -4.1298
   89SAPC   O31 8415   0.595   4.204   6.050  0.2770  0.8247 -0.8372
   89SAPC   C31 8416   0.531   4.092   6.030  0.8495 -0.2299 -0.2254
   89SAPC   O32 8417   0.465   4.031   6.112  0.7060 -0.3972 -0.7874
   89SAPC   C32 8418   0.560   4.050   5.888 -0.1801 -0.7906  0.8296
   89SAPC   H2X 8419   0.561   3.940   5.901 -0.0192 -0.9583 -0.4546
   89SAPC   H2Y 8420   0.649   4.091   5.837 -0.8444  0.7754  0.8601
   89SAPC   C23 8421   1.091   4.126   6.070  0.2139  0.7225 -0.0934
   89SAPC   H3R 8422   1.051   4.027   6.040  0.8161  0.0186  1.3351
   89SAPC   H3S 8423   1.202   4.120   6.076  0.2728  1.1600 -0.6020
   89SAPC   C24 8424   1.058   4.232   5.957  0.3469 -0.0315  0.1565
   89SAPC   H4R 8425   1.114   4.324   5.986  0.6677  0.4170 -1.7406
   89SAPC   H4S 8426   0.949   4.248   5.969  0.7449  2.8765  0.6100
   89SAPC   C25 8427   1.107   4.179   5.823 -0.4736 -0.3752 -0.0186
   89SAPC   H5R 8428   1.205   4.130   5.815 -0.7454 -0.6989 -1.7115
   89SAPC   C26 8429   1.042   4.207   5.708  0.1358 -0.1569  0.1992
   89SAPC   H6R 8430   1.085   4.176   5.611 -0.6034  1.0258 -0.5281
   89SAPC   C27 8431   0.907   4.279   5.682 -0.0490 -0.1755 -0.3772
   89SAPC   H7R 8432   0.859   4.297   5.781 -0.3717  1.5077 -0.8191
   89SAPC   H7S 8433   0.831   4.227   5.620  1.0289 -0.8592 -1.1574
   89SAPC   C28 8434   0.940   4.412   5.620 -0.0837  0.5443  0.2376
   89SAPC   H8R 8435   1.007   4.483   5.671  0.4306 -0.6182  1.2122
   89SAPC   C29 8436   0.902   4.441   5.492  0.5328  0.1002 -0.2413
   89SAPC   H9R 8437   0.941   4.530   5.442  1.4707  0.4019  0.9532
   89SAPC  C210 8438   0.822   4.347   5.399 -0.2301  0.1815  0.1911
   89SAPC  H10R 8439   0.717   4.382   5.410  0.0902  1.2390 -0.0081
   89SAPC  H10S 8440   0.836   4.238   5.413 -0.9741  0.1525  0.8599
   89SAPC  C211 8441   0.869   4.385   5.258 -0.6435  0.3272  0.1755
   89SAPC  H11R 8442   0.974   4.416   5.250 -1.1539  2.3163  0.4126
   89SAPC  C212 8443   0.816   4.363   5.134  0.4224 -0.3577 -0.2883
   89SAPC  H12R 8444   0.871   4.390   5.043  0.9954 -5.1971 -1.6545
   89SAPC  C213 8445   0.669   4.330   5.107  0.2872  0.3191  0.0217
   89SAPC  H13R 8446   0.631   4.379   5.015 -2.9155 -2.6054 -0.4308
   89SAPC  H13S 8447   0.615   4.378   5.191  2.7138 -0.0156  1.8841
   89SAPC  C214 8448   0.626   4.179   5.107  0.1864  0.1897 -0.3985
   89SAPC  H14R 8449   0.662   4.114   5.188 -0.9970 -1.2055 -0.9573
   89SAPC  C215 8450   0.560   4.116   5.008  0.4182 -0.0231 -0.0323
   89SAPC  H15R 8451   0.548   4.007   5.007 -0.5252  0.0776 -0.9592
   89SAPC  C216 8452   0.493   4.194   4.891 -0.2724 -0.2768  0.1867
   89SAPC  H16R 8453   0.565   4.214   4.809 -0.1041 -1.9663 -0.1180
   89SAPC  H16S 8454   0.455   4.294   4.919  1.9952  0.5708  0.4581
   89SAPC  C217 8455   0.389   4.098   4.836 -0.3921 -0.3359 -0.6059
   89SAPC  H17R 8456   0.318   4.152   4.770  0.2112  0.7954 -0.3673
   89SAPC  H17S 8457   0.323   4.065   4.919  0.7559  0.1979  0.5641
   89SAPC  C218 8458   0.446   3.981   4.758 -0.7146  0.1653  0.6411
   89SAPC  H18R 8459   0.509   3.918   4.824  1.9347  1.7183 -0.2368
   89SAPC  H18S 8460   0.508   4.021   4.675 -0.8317  0.2010  0.5710
   89SAPC  C219 8461   0.330   3.894   4.701 -0.1104 -0.1303  0.4278
   89SAPC  H19R 8462   0.258   3.955   4.644 -0.7705 -1.5792 -0.3518
   89SAPC  H19S 8463   0.269   3.855   4.785  0.0048 -1.4031 -0.0435
   89SAPC  C220 8464   0.386   3.780   4.616  0.8041 -0.2052  0.1083
   89SAPC  H20R 8465   0.299   3.733   4.564  0.6497 -0.2260  0.3850
   89SAPC  H20S 8466   0.444   3.712   4.682 -1.4799 -2.3065  0.0701
   89SAPC  H20T 8467   0.458   3.823   4.543  0.8924 -2.6117 -1.3411
   89SAPC   C33 8468   0.446   4.077   5.792  0.2733 -0.2056  0.4507
   89SAPC   H3X 8469   0.454   4.182   5.757 -0.8579 -0.3221 -0.2032
   89SAPC   H3Y 8470   0.349   4.049   5.839  0.7446 -1.4632  0.7309
   89SAPC   C34 8471   0.468   3.986   5.667  0.1959  0.3953 -1.2405
   89SAPC   H4X 8472   0.450   3.880   5.697  0.2563  0.8150  0.3683
   89SAPC   H4Y 8473   0.575   3.985   5.638  0.0234  0.8250 -1.9045
   89SAPC   C35 8474   0.383   4.027   5.552  0.2152 -0.2581 -1.0986
   89SAPC   H5X 8475   0.401   4.136   5.535 -0.5951 -0.1300 -1.1780
   89SAPC   H5Y 8476   0.279   4.015   5.590  0.8153 -0.0979  0.6526
   89SAPC   C36 8477   0.409   3.946   5.420 -0.1995 -0.2796  0.5381
   89SAPC   H6X 8478   0.402   3.836   5.437 -1.6349 -0.3282 -0.2983
   89SAPC   H6Y 8479   0.513   3.979   5.402 -1.4287  3.2720 -0.7341
   89SAPC   C37 8480   0.309   3.985   5.315  0.2463  0.2564 -0.2490
   89SAPC   H7X 8481   0.353   4.070   5.259  0.2104  1.0312  0.8589
   89SAPC   H7Y 8482   0.224   4.034   5.368 -1.1079 -2.2029 -0.0308
   89SAPC   C38 8483   0.241   3.877   5.222 -0.2115  0.3742 -0.9506
   89SAPC   H8X 8484   0.159   3.932   5.171 -0.7229  0.9631  0.4446
   89SAPC   H8Y 8485   0.195   3.801   5.289 -0.3042 -0.2709 -1.7331
   89SAPC   C39 8486   0.349   3.807   5.136  0.4682 -0.3563 -0.2910
   89SAPC   H9X 8487   0.426   3.759   5.200  2.3754 -0.8803 -2.7833
   89SAPC   H9Y 8488   0.391   3.879   5.062 -0.3172  1.6237  1.0872
   89SAPC  C310 8489   0.286   3.701   5.043 -0.5907 -0.1721  0.3235
   89SAPC  H10X 8490   0.208   3.738   4.973 -0.4582 -1.5193 -0.5850
   89SAPC  H10Y 8491   0.234   3.631   5.112  0.5593 -0.0196  1.3631
   89SAPC  C311 8492   0.394   3.616   4.980  0.1915 -0.9011  0.4763
   89SAPC  H11X 8493   0.465   3.603   5.064 -0.8961  0.0139  1.5917
   89SAPC  H11Y 8494   0.454   3.663   4.899 -2.8025  1.8262 -0.3869
   89SAPC  C312 8495   0.356   3.479   4.923  0.2459  0.0081 -0.4642
   89SAPC  H12X 8496   0.318   3.408   5.000 -1.4096  1.8009  0.4592
   89SAPC  H12Y 8497   0.438   3.444   4.858  0.5144  0.7855 -0.5521
   89SAPC  C313 8498   0.239   3.503   4.825  0.0016  0.3773 -0.0205
   89SAPC  H13X 8499   0.274   3.572   4.745  0.2428 -0.8299 -0.9794
   89SAPC  H13Y 8500   0.149   3.545   4.875 -0.5319 -0.3757 -0.3240
   89SAPC  C314 8501   0.201   3.366   4.752 -0.2698  1.0344  0.2105
   89SAPC  H14X 8502   0.181   3.277   4.814 -1.1451 -0.6264 -2.2889
   89SAPC  H14Y 8503   0.289   3.342   4.688  0.3735  1.3888  0.9484
   89SAPC  C315 8504   0.074   3.393   4.671  0.0511  0.0731  0.0437
   89SAPC  H15X 8505   0.099   3.456   4.583  0.2241 -1.5936 -1.1609
   89SAPC  H15Y 8506  -0.006   3.440   4.731  1.6511  2.4459  0.4646
   89SAPC  C316 8507   0.025   3.257   4.606  0.9894 -0.0047  0.1242
   89SAPC  H16X 8508   0.037   3.176   4.681  2.3394 -1.4079 -1.5287
   89SAPC  H16Y 8509   0.087   3.224   4.521  0.6339 -1.0679  0.2622
   89SAPC  C317 8510  -0.121   3.253   4.558  0.2568 -0.2267  0.0932
   89SAPC  H17X 8511  -0.147   3.355   4.524  0.7892 -0.1773 -0.1728
   89SAPC  H17Y 8512  -0.181   3.223   4.647  2.9625 -0.8796  1.8397
   89SAPC  C318 8513  -0.151   3.163   4.445  0.8654  0.0399 -0.2405
   89SAPC  H18X 8514  -0.121   3.061   4.479 -0.5658 -0.7215 -1.1769
   89SAPC  H18Y 8515  -0.087   3.194   4.360  0.5597 -0.9772 -0.8611
   89SAPC  H18Z 8516  -0.256   3.153   4.410  1.2584  0.6369 -1.6509
   90SAPC     N 8517   6.150   6.660   6.805  0.1493 -1.3002 -0.5762
   90SAPC   C12 8518   6.027   6.578   6.766  0.2817  0.4731 -0.1235
   90SAPC  H12A 8519   6.010   6.502   6.840  1.5602  0.9787  0.7391
   90SAPC  H12B 8520   6.039   6.531   6.669  0.6530 -2.5461  1.2832
   90SAPC   C13 8521   6.172   6.763   6.691  0.4959  0.4600  0.0345
   90SAPC  H13A 8522   6.186   6.709   6.599 -1.2479  0.3734 -0.2164
   90SAPC  H13B 8523   6.084   6.822   6.668 -0.3176  1.4493  4.6859
   90SAPC  H13C 8524   6.259   6.825   6.711  0.6794 -0.2000  1.3594
   90SAPC   C14 8525   6.132   6.729   6.937 -0.0974  0.6905 -0.2630
   90SAPC  H14A 8526   6.065   6.814   6.935 -1.0049  0.0061  0.3366
   90SAPC  H14B 8527   6.089   6.666   7.013  0.9671  1.5574  1.0972
   90SAPC  H14C 8528   6.230   6.757   6.974  0.0228 -0.0799  0.0201
   90SAPC   C15 8529   6.272   6.577   6.812  0.2903  0.0754 -0.3346
   90SAPC  H15A 8530   6.263   6.507   6.893  2.3860  0.2413  0.0925
   90SAPC  H15B 8531   6.285   6.520   6.722 -0.8682 -1.1901  0.2721
   90SAPC  H15C 8532   6.369   6.622   6.829  1.0959 -1.8714  0.4282
   90SAPC   C11 8533   5.896   6.662   6.754 -0.3722 -0.9609 -0.3208
   90SAPC  H11A 8534   5.883   6.722   6.847  0.2751  1.7181 -1.8579
   90SAPC  H11B 8535   5.815   6.587   6.749 -0.4952 -0.7834 -1.0593
   90SAPC     P 8536   5.890   6.688   6.495  0.1078 -0.0337  0.5846
   90SAPC   O13 8537   5.963   6.782   6.405  0.1594  0.0110  0.1130
   90SAPC   O14 8538   5.943   6.551   6.502  0.3031  0.0630 -0.4988
   90SAPC   O12 8539   5.890   6.746   6.637 -0.6581  0.3573  0.0601
   90SAPC   O11 8540   5.735   6.681   6.464 -0.1819  0.7439  0.9467
   90SAPC    C1 8541   5.662   6.789   6.403 -0.3453  0.8175  0.0679
   90SAPC    HA 8542   5.556   6.757   6.411 -0.5261  1.3534 -0.1467
   90SAPC    HB 8543   5.666   6.887   6.456 -2.9968  0.8091  0.4187
   90SAPC    C2 8544   5.693   6.816   6.251 -0.3216  0.1369 -0.1736
   90SAPC    HS 8545   5.799   6.845   6.237 -0.5052  1.2302  0.6308
   90SAPC   O21 8546   5.606   6.920   6.212 -0.1690 -0.2918 -0.0982
   90SAPC   C21 8547   5.655   7.046   6.203 -0.5536  0.4796  0.0472
   90SAPC   O22 8548   5.773   7.073   6.220 -0.2534  0.1389  0.5885
   90SAPC   C22 8549   5.539   7.140   6.206 -0.3002 -0.2415 -1.2238
   90SAPC   H2R 8550   5.445   7.083   6.188 -2.0336  0.6301  3.6681
   90SAPC   H2S 8551   5.530   7.175   6.311  2.9538  0.6518 -1.1330
   90SAPC    C3 8552   5.685   6.691   6.153 -0.8161 -0.1813 -0.0301
   90SAPC    HX 8553   5.699   6.731   6.051  1.4158  0.9725  0.6636
   90SAPC    HY 8554   5.581   6.651   6.157 -1.1820  0.7736  0.4967
   90SAPC   O31 8555   5.775   6.590   6.187 -0.5799  0.4071 -0.1723
   90SAPC   C31 8556   5.897   6.589   6.132  0.2030  0.0858  0.5475
   90SAPC   O32 8557   5.942   6.665   6.048  0.6861  0.2979  0.2485
   90SAPC   C32 8558   5.968   6.463   6.183 -0.7810  0.3421  0.6748
   90SAPC   H2X 8559   5.896   6.384   6.215 -0.2837 -0.4336 -0.0448
   90SAPC   H2Y 8560   6.023   6.492   6.275 -1.2631  1.4983  0.6160
   90SAPC   C23 8561   5.553   7.262   6.110  0.1032  0.2961 -1.0078
   90SAPC   H3R 8562   5.655   7.266   6.066  2.2585 -1.1386  3.3000
   90SAPC   H3S 8563   5.551   7.357   6.169 -0.1965  0.2797 -0.9923
   90SAPC   C24 8564   5.437   7.264   6.002  0.3178  0.5040  0.2873
   90SAPC   H4R 8565   5.423   7.163   5.958 -1.3034  1.3420 -1.2445
   90SAPC   H4S 8566   5.460   7.339   5.923 -2.5125 -1.8516 -3.0660
   90SAPC   C25 8567   5.304   7.300   6.065 -0.8335 -0.6008  0.8201
   90SAPC   H5R 8568   5.304   7.264   6.169  1.2766  1.5731  1.6709
   90SAPC   C26 8569   5.205   7.373   6.016 -0.4359 -0.1743  0.6937
   90SAPC   H6R 8570   5.123   7.403   6.083  1.0960 -0.3446  2.7573
   90SAPC   C27 8571   5.212   7.448   5.879  0.6297 -0.1728 -0.1272
   90SAPC   H7R 8572   5.310   7.428   5.832 -0.0770 -1.9369 -0.9606
   90SAPC   H7S 8573   5.230   7.555   5.904 -1.4332 -0.2206  1.8860
   90SAPC   C28 8574   5.095   7.443   5.782  0.2683  0.6259  0.1919
   90SAPC   H8R 8575   5.090   7.346   5.729  0.8749  1.0961 -0.7630
   90SAPC   C29 8576   4.999   7.536   5.768  0.4933 -0.4448 -0.4018
   90SAPC   H9R 8577   4.918   7.522   5.695 -0.9555  1.0181  0.8404
   90SAPC  C210 8578   4.989   7.667   5.843 -0.7582  0.2051 -0.5297
   90SAPC  H10R 8579   4.985   7.748   5.768 -0.2078  0.9931  0.2655
   90SAPC  H10S 8580   5.072   7.682   5.915 -3.0040 -1.0334  2.5903
   90SAPC  C211 8581   4.862   7.660   5.927 -0.5727 -0.1870  1.3113
   90SAPC  H11R 8582   4.872   7.609   6.024  0.6482  1.9040  2.3413
   90SAPC  C212 8583   4.746   7.728   5.914 -0.8009  0.3512 -0.2047
   90SAPC  H12R 8584   4.668   7.700   5.987 -0.7478 -0.1660 -0.3372
   90SAPC  C213 8585   4.704   7.828   5.818 -0.1354  0.1368  0.1155
   90SAPC  H13R 8586   4.781   7.853   5.742  0.6099 -2.2239  0.0143
   90SAPC  H13S 8587   4.682   7.918   5.879  0.2127 -0.6806  1.5034
   90SAPC  C214 8588   4.572   7.789   5.751 -0.2448  0.6561  0.2992
   90SAPC  H14R 8589   4.487   7.761   5.816 -2.2667  1.0207 -2.0269
   90SAPC  C215 8590   4.554   7.765   5.616  0.6393 -0.3538  0.4746
   90SAPC  H15R 8591   4.448   7.742   5.596  1.2292 -2.1989 -0.7326
   90SAPC  C216 8592   4.648   7.793   5.501 -0.0914  0.6315  0.1916
   90SAPC  H16R 8593   4.732   7.856   5.539 -1.3283  1.2184  2.1139
   90SAPC  H16S 8594   4.597   7.860   5.429 -0.2719  0.6061  0.2965
   90SAPC  C217 8595   4.687   7.664   5.438 -0.3838  0.3516  0.3395
   90SAPC  H17R 8596   4.604   7.593   5.420  0.4295 -0.1897 -1.5449
   90SAPC  H17S 8597   4.765   7.633   5.510  1.2238 -0.2735 -1.5586
   90SAPC  C218 8598   4.765   7.685   5.306  0.4100 -0.0270 -0.0392
   90SAPC  H18R 8599   4.693   7.685   5.221 -1.5805  0.6356  1.5642
   90SAPC  H18S 8600   4.818   7.590   5.283 -1.0789 -0.9116  0.1026
   90SAPC  C219 8601   4.867   7.793   5.303  0.2580  0.0794 -0.4785
   90SAPC  H19R 8602   4.817   7.892   5.304 -0.7565 -0.3843  1.3086
   90SAPC  H19S 8603   4.914   7.798   5.203  0.9952  0.4152 -0.1203
   90SAPC  C220 8604   4.965   7.785   5.416  0.7757  0.2280  0.1077
   90SAPC  H20R 8605   5.045   7.861   5.403  0.4713  0.8835  1.7766
   90SAPC  H20S 8606   5.009   7.684   5.432 -0.3832 -0.5984 -1.6054
   90SAPC  H20T 8607   4.917   7.806   5.514  1.3633 -0.7259  0.6115
   90SAPC   C33 8608   6.049   6.382   6.080 -0.0405  0.2118 -0.1344
   90SAPC   H3X 8609   6.125   6.316   6.128 -0.4248 -0.4396 -0.4078
   90SAPC   H3Y 8610   6.114   6.454   6.026  0.1202 -1.5147 -2.3992
   90SAPC   C34 8611   5.968   6.308   5.973  0.3982  0.9832 -0.1955
   90SAPC   H4X 8612   6.019   6.318   5.874 -1.5968 -0.5124 -1.4588
   90SAPC   H4Y 8613   5.878   6.371   5.954  0.2394  0.5321 -0.9983
   90SAPC   C35 8614   5.920   6.164   5.998 -0.5275 -0.1224 -0.2942
   90SAPC   H5X 8615   5.833   6.179   6.066 -1.7428  2.1864 -2.2157
   90SAPC   H5Y 8616   5.998   6.097   6.041 -0.3767 -0.0420 -0.4407
   90SAPC   C36 8617   5.852   6.092   5.878  0.3706  0.2859 -0.1042
   90SAPC   H6X 8618   5.932   6.114   5.805  0.7592 -0.3846  0.1075
   90SAPC   H6Y 8619   5.757   6.140   5.845  0.6755  0.8982 -0.1054
   90SAPC   C37 8620   5.849   5.944   5.901  0.0534 -0.4420  0.2707
   90SAPC   H7X 8621   5.782   5.929   5.988 -0.4036  1.6138  0.3250
   90SAPC   H7Y 8622   5.953   5.911   5.919 -0.6534 -2.3755  1.1152
   90SAPC   C38 8623   5.788   5.864   5.779  0.4348  0.0897  0.2179
   90SAPC   H8X 8624   5.686   5.905   5.765  0.0648 -0.5709  0.9453
   90SAPC   H8Y 8625   5.779   5.755   5.795 -0.2581 -0.0589 -1.0251
   90SAPC   C39 8626   5.871   5.876   5.651  0.1866 -0.5467 -0.2830
   90SAPC   H9X 8627   5.978   5.861   5.677  0.3928  1.9773  0.6423
   90SAPC   H9Y 8628   5.861   5.972   5.595 -0.6794  0.8021  2.0407
   90SAPC  C310 8629   5.829   5.771   5.542  0.2157  0.0085  0.1284
   90SAPC  H10X 8630   5.721   5.789   5.528  0.0131  0.1074  1.5900
   90SAPC  H10Y 8631   5.832   5.666   5.578 -2.4547 -0.8380 -1.8810
   90SAPC  C311 8632   5.908   5.783   5.405  0.1492  0.2595  0.2925
   90SAPC  H11X 8633   6.017   5.795   5.421  0.1120  1.1875 -0.1068
   90SAPC  H11Y 8634   5.878   5.881   5.364  0.5039  1.0565  1.8469
   90SAPC  C312 8635   5.883   5.671   5.300  0.1928  0.2592  0.2641
   90SAPC  H12X 8636   5.777   5.643   5.285  0.5149 -1.5014  1.0970
   90SAPC  H12Y 8637   5.927   5.575   5.333 -0.3724 -0.9041 -2.1611
   90SAPC  C313 8638   5.946   5.712   5.162  0.4408 -0.6909  0.3557
   90SAPC  H13X 8639   6.050   5.745   5.182 -0.1127  1.8109 -0.5053
   90SAPC  H13Y 8640   5.894   5.796   5.110  0.9206  0.0563  1.0730
   90SAPC  C314 8641   5.942   5.606   5.052  0.0944 -0.4947 -0.1793
   90SAPC  H14X 8642   5.841   5.573   5.022  0.1780  0.7149 -1.9406
   90SAPC  H14Y 8643   5.985   5.515   5.097  0.1031 -0.4969 -0.1917
   90SAPC  C315 8644   6.040   5.623   4.931  0.4508  0.4662 -0.3113
   90SAPC  H15X 8645   6.041   5.523   4.883 -1.3101 -0.3031  1.1311
   90SAPC  H15Y 8646   6.141   5.653   4.966  0.4285  1.5281 -1.0847
   90SAPC  C316 8647   6.001   5.726   4.827 -0.3259 -0.5021 -0.1192
   90SAPC  H16X 8648   5.954   5.813   4.878 -0.6398 -1.6203  1.5491
   90SAPC  H16Y 8649   5.934   5.691   4.746  1.5007 -0.3848 -1.7581
   90SAPC  C317 8650   6.127   5.778   4.752  0.1076 -0.2465 -0.1993
   90SAPC  H17X 8651   6.161   5.689   4.694 -0.4311 -0.5328 -0.0817
   90SAPC  H17Y 8652   6.199   5.810   4.830  0.6963  0.4098 -0.9832
   90SAPC  C318 8653   6.090   5.890   4.652  0.2861  0.9294  0.0745
   90SAPC  H18X 8654   6.080   5.977   4.721 -0.7342  0.0534  1.0682
   90SAPC  H18Y 8655   5.995   5.868   4.601  1.2824 -0.9798 -1.0606
   90SAPC  H18Z 8656   6.155   5.907   4.564  0.6320 -2.2157 -0.3831
   91SAPC     N 8657   2.584   6.271   6.625  1.0424  0.5273  0.1422
   91SAPC   C12 8658   2.737   6.281   6.605  0.0114  0.7094  0.3222
   91SAPC  H12A 8659   2.777   6.188   6.567 -0.2185  0.9158 -0.4439
   91SAPC  H12B 8660   2.792   6.294   6.697  0.5867  0.0177  0.0944
   91SAPC   C13 8661   2.517   6.232   6.500 -0.2097  0.4192 -0.3262
   91SAPC  H13A 8662   2.555   6.139   6.460 -1.3074 -1.0309  1.7906
   91SAPC  H13B 8663   2.410   6.218   6.508 -0.3608 -0.0117 -2.4759
   91SAPC  H13C 8664   2.538   6.310   6.428  2.6487 -2.4135 -2.8932
   91SAPC   C14 8665   2.548   6.158   6.722  0.1552  0.1143  0.0959
   91SAPC  H14A 8666   2.442   6.138   6.722  0.3718 -1.1385  0.9604
   91SAPC  H14B 8667   2.590   6.067   6.682 -0.3803  0.5454 -1.5333
   91SAPC  H14C 8668   2.584   6.174   6.823  1.3818 -0.5359 -0.2165
   91SAPC   C15 8669   2.529   6.402   6.666  0.7773  0.9850  0.6125
   91SAPC  H15A 8670   2.575   6.477   6.603  0.5990  1.1522  0.6783
   91SAPC  H15B 8671   2.421   6.403   6.658  0.5904  0.7025  2.5647
   91SAPC  H15C 8672   2.562   6.420   6.767 -0.8413  0.4066  1.2774
   91SAPC   C11 8673   2.779   6.389   6.506  0.1861  0.6687 -0.5343
   91SAPC  H11A 8674   2.704   6.389   6.423 -3.8987 -0.8199  2.7757
   91SAPC  H11B 8675   2.879   6.365   6.465 -0.0733 -1.5557 -0.0050
   91SAPC     P 8676   2.894   6.554   6.678 -0.3429  0.1116 -0.0989
   91SAPC   O13 8677   2.860   6.692   6.730 -0.1524 -0.0452 -0.2049
   91SAPC   O14 8678   2.923   6.446   6.778 -0.2059  0.0441  0.2298
   91SAPC   O12 8679   2.779   6.514   6.578  0.2090  0.5271  0.2714
   91SAPC   O11 8680   3.020   6.570   6.570 -0.4403  0.6292  0.5451
   91SAPC    C1 8681   3.058   6.696   6.512  0.4639  0.4058  0.7727
   91SAPC    HA 8682   3.051   6.777   6.587 -0.4296 -0.3441  1.5260
   91SAPC    HB 8683   3.160   6.682   6.469 -0.2817 -0.8250 -0.6702
   91SAPC    C2 8684   2.975   6.743   6.378 -0.3799 -0.6157  0.5669
   91SAPC    HS 8685   2.876   6.778   6.413 -0.2625  1.7509 -1.2343
   91SAPC   O21 8686   2.964   6.647   6.277  0.0750 -0.1101 -0.5516
   91SAPC   C21 8687   2.839   6.621   6.237 -0.6878  0.5567  0.1630
   91SAPC   O22 8688   2.734   6.659   6.288 -0.3347 -0.2040  0.0508
   91SAPC   C22 8689   2.843   6.528   6.120  0.3726 -0.1328 -0.2007
   91SAPC   H2R 8690   2.915   6.580   6.053  2.0852 -0.5823  1.2180
   91SAPC   H2S 8691   2.888   6.431   6.150 -0.1651 -0.7462 -1.2787
   91SAPC    C3 8692   3.056   6.870   6.320 -0.6375  0.3436 -0.1394
   91SAPC    HX 8693   3.155   6.829   6.289 -0.9783  0.0836 -0.9028
   91SAPC    HY 8694   3.079   6.931   6.410  3.7065 -0.1389 -0.6783
   91SAPC   O31 8695   2.985   6.943   6.218  0.1525 -0.3793 -0.1185
   91SAPC   C31 8696   3.001   6.901   6.085 -1.1018 -0.9555  0.6136
   91SAPC   O32 8697   3.076   6.816   6.048 -0.1048  0.9904 -0.3217
   91SAPC   C32 8698   2.925   6.996   5.991 -0.3084  0.1018 -0.2571
   91SAPC   H2X 8699   3.002   7.058   5.941 -0.8335 -0.6320 -2.0696
   91SAPC   H2Y 8700   2.860   7.063   6.050  0.6274 -0.3775  1.3991
   91SAPC   C23 8701   2.709   6.502   6.048  0.1114  1.1298 -0.2945
   91SAPC   H3R 8702   2.666   6.595   6.004 -1.1777  0.5480 -0.3139
   91SAPC   H3S 8703   2.638   6.462   6.123  0.4108  2.9992  1.0467
   91SAPC   C24 8704   2.717   6.386   5.931  0.0615 -0.2484  0.0647
   91SAPC   H4R 8705   2.617   6.361   5.890  0.5278  1.5137 -2.3609
   91SAPC   H4S 8706   2.762   6.296   5.979 -0.9624 -1.1729 -0.6501
   91SAPC   C25 8707   2.798   6.431   5.812  0.6328 -0.8950  0.1596
   91SAPC   H5R 8708   2.884   6.487   5.851 -0.6881  1.2741  0.0951
   91SAPC   C26 8709   2.768   6.419   5.682  0.2315 -0.6593 -0.7815
   91SAPC   H6R 8710   2.840   6.444   5.602  1.0666 -1.1381 -0.1944
   91SAPC   C27 8711   2.645   6.364   5.617 -0.6276 -0.7853  0.0097
   91SAPC   H7R 8712   2.624   6.415   5.521 -0.6577 -1.8862 -0.5903
   91SAPC   H7S 8713   2.557   6.383   5.682 -0.7915  0.4080 -0.5314
   91SAPC   C28 8714   2.658   6.218   5.597 -0.0323  0.4912 -0.2300
   91SAPC   H8R 8715   2.664   6.153   5.686 -2.0140 -0.8358 -1.0041
   91SAPC   C29 8716   2.666   6.154   5.480 -0.0486  0.4965 -0.3640
   91SAPC   H9R 8717   2.672   6.044   5.473  2.9892  0.5563 -0.3995
   91SAPC  C210 8718   2.657   6.208   5.342 -0.3290 -0.0456 -0.7004
   91SAPC  H10R 8719   2.596   6.301   5.341  1.8293  1.4426  0.2432
   91SAPC  H10S 8720   2.598   6.147   5.270 -0.3193  1.3439 -1.9495
   91SAPC  C211 8721   2.788   6.270   5.296  0.3719  0.2857 -0.0575
   91SAPC  H11R 8722   2.844   6.321   5.375 -1.5259 -1.2706  2.4488
   91SAPC  C212 8723   2.838   6.278   5.173 -0.0654 -0.2277 -0.1159
   91SAPC  H12R 8724   2.941   6.314   5.159  0.3269 -1.8031 -1.7433
   91SAPC  C213 8725   2.763   6.221   5.051 -0.3068  0.2134  0.2658
   91SAPC  H13R 8726   2.656   6.250   5.052 -0.3231  0.1797  2.2575
   91SAPC  H13S 8727   2.770   6.111   5.061 -1.5282  0.0383 -0.6107
   91SAPC  C214 8728   2.841   6.270   4.926  0.0978  0.2295  0.0054
   91SAPC  H14R 8729   2.872   6.376   4.930  1.6843 -0.1949 -0.0670
   91SAPC  C215 8730   2.870   6.204   4.815  0.5847  0.3883  0.0571
   91SAPC  H15R 8731   2.923   6.255   4.733  2.4102 -1.9500 -0.3229
   91SAPC  C216 8732   2.831   6.063   4.782 -0.5495 -0.2027 -0.1667
   91SAPC  H16R 8733   2.761   6.056   4.696  0.9927  0.3910 -1.5276
   91SAPC  H16S 8734   2.793   6.010   4.872 -0.2518 -2.0588 -1.0675
   91SAPC  C217 8735   2.959   5.967   4.757  0.3264  0.1213 -0.0474
   91SAPC  H17R 8736   3.028   5.964   4.844  0.3782 -1.0322 -0.1104
   91SAPC  H17S 8737   3.015   5.997   4.666 -1.8443  0.8654 -1.2041
   91SAPC  C218 8738   2.917   5.824   4.737 -0.6815  0.5283  0.0563
   91SAPC  H18R 8739   2.824   5.827   4.675 -1.2680  1.0640  0.9448
   91SAPC  H18S 8740   2.884   5.768   4.827  2.4086 -2.7238 -0.6255
   91SAPC  C219 8741   3.028   5.734   4.671  0.1065 -0.1265 -0.0660
   91SAPC  H19R 8742   3.107   5.727   4.749  0.2883 -0.9470 -0.3097
   91SAPC  H19S 8743   3.071   5.784   4.581 -0.9115 -0.2474 -0.6338
   91SAPC  C220 8744   2.999   5.587   4.643  0.2953 -0.2793  0.7184
   91SAPC  H20R 8745   2.936   5.574   4.552  1.0945 -0.2127  0.1332
   91SAPC  H20S 8746   2.947   5.554   4.735  0.1553  0.8467  1.0565
   91SAPC  H20T 8747   3.088   5.520   4.636  0.3796 -0.2168  1.1750
   91SAPC   C33 8748   2.841   6.933   5.877  0.7662  0.1015  0.1398
   91SAPC   H3X 8749   2.759   7.000   5.844  1.6315  1.1069 -0.0164
   91SAPC   H3Y 8750   2.780   6.853   5.925  1.5877 -0.0522  0.9375
   91SAPC   C34 8751   2.921   6.877   5.755 -0.0629  0.4181  0.6243
   91SAPC   H4X 8752   3.001   6.809   5.789 -0.0146 -0.3518 -0.9261
   91SAPC   H4Y 8753   2.963   6.968   5.705 -2.9270  0.5470 -1.8622
   91SAPC   C35 8754   2.841   6.809   5.638 -0.2197 -0.2858 -0.4171
   91SAPC   H5X 8755   2.759   6.867   5.590 -0.3763 -0.1193  0.0442
   91SAPC   H5Y 8756   2.788   6.721   5.681  0.6049  0.4202  2.1755
   91SAPC   C36 8757   2.922   6.768   5.514 -0.0326 -0.6699  0.4825
   91SAPC   H6X 8758   2.988   6.687   5.551 -0.1037 -0.7634  0.4064
   91SAPC   H6Y 8759   2.978   6.857   5.478 -0.3859 -0.1624  1.1694
   91SAPC   C37 8760   2.833   6.720   5.396  1.0341  0.9622 -0.4906
   91SAPC   H7X 8761   2.782   6.810   5.357 -0.0591  1.3245  1.6495
   91SAPC   H7Y 8762   2.749   6.654   5.427  0.2359  0.9261 -2.5318
   91SAPC   C38 8763   2.915   6.649   5.276  0.2164 -0.1266  0.0828
   91SAPC   H8X 8764   2.831   6.605   5.220  0.0339 -0.4814  0.6229
   91SAPC   H8Y 8765   2.970   6.562   5.318 -1.4665 -1.2304  0.0520
   91SAPC   C39 8766   2.987   6.754   5.190 -0.9079  0.5109  0.5356
   91SAPC   H9X 8767   3.064   6.814   5.243 -1.7603 -0.1780  2.6349
   91SAPC   H9Y 8768   2.915   6.834   5.161 -0.5501  1.2235  1.5309
   91SAPC  C310 8769   3.049   6.693   5.058 -0.3106 -0.0535 -0.8471
   91SAPC  H10X 8770   2.986   6.605   5.032 -0.1781 -0.7070  0.8769
   91SAPC  H10Y 8771   3.154   6.657   5.070 -0.5082 -0.9457 -1.6580
   91SAPC  C311 8772   3.062   6.796   4.941 -0.9038  0.1809  0.3993
   91SAPC  H11X 8773   3.123   6.881   4.979  1.5240 -1.6737  0.9315
   91SAPC  H11Y 8774   2.957   6.822   4.915 -0.9414 -2.0788 -2.2189
   91SAPC  C312 8775   3.119   6.719   4.817  0.1540  0.3606 -0.1605
   91SAPC  H12X 8776   3.215   6.672   4.848  0.7813  0.9853 -1.1014
   91SAPC  H12Y 8777   3.148   6.787   4.734  1.0137 -2.2426 -2.1068
   91SAPC  C313 8778   3.016   6.617   4.754 -0.1506 -0.3329  0.0810
   91SAPC  H13X 8779   2.996   6.534   4.825  1.5428 -1.9437 -1.2080
   91SAPC  H13Y 8780   3.069   6.550   4.683  0.2883 -0.6950  0.7379
   91SAPC  C314 8781   2.881   6.673   4.706  0.8111  0.5352 -0.1064
   91SAPC  H14X 8782   2.893   6.755   4.632 -1.2115  0.9528 -0.0243
   91SAPC  H14Y 8783   2.816   6.701   4.791  0.7258 -2.1964  0.8413
   91SAPC  C315 8784   2.798   6.568   4.626 -0.3247 -0.2655  0.2897
   91SAPC  H15X 8785   2.796   6.473   4.685 -2.7022  0.0083  0.7299
   91SAPC  H15Y 8786   2.847   6.548   4.528  0.7474 -0.3978  0.8350
   91SAPC  C316 8787   2.647   6.614   4.609  0.1240  0.6022  0.1887
   91SAPC  H16X 8788   2.603   6.611   4.711  0.6177  0.4624  0.4005
   91SAPC  H16Y 8789   2.596   6.540   4.544 -0.4813 -0.7457  2.1165
   91SAPC  C317 8790   2.623   6.746   4.536  0.2502 -0.2581 -0.1543
   91SAPC  H17X 8791   2.637   6.824   4.613 -4.9862 -0.4859  1.3917
   91SAPC  H17Y 8792   2.514   6.752   4.514  0.2202  0.2277  0.1268
   91SAPC  C318 8793   2.703   6.774   4.405 -0.1413 -0.5312 -0.1452
   91SAPC  H18X 8794   2.810   6.774   4.433 -0.5601  0.0953  1.5678
   91SAPC  H18Y 8795   2.688   6.872   4.355  1.7107 -1.1442 -2.0410
   91SAPC  H18Z 8796   2.685   6.695   4.329  1.4546 -0.9092 -0.1535
   92SAPC     N 8797   0.557   5.039   7.106  0.1751 -0.2101  0.5146
   92SAPC   C12 8798   0.625   4.945   7.199 -0.1220 -0.2744  0.3611
   92SAPC  H12A 8799   0.561   4.925   7.284  0.3800 -1.9147  0.3721
   92SAPC  H12B 8800   0.709   4.996   7.244  0.5961 -2.9126  2.2045
   92SAPC   C13 8801   0.649   5.072   6.990 -0.1164  0.7103 -0.0837
   92SAPC  H13A 8802   0.723   5.142   7.025  0.4810  0.8718 -1.5829
   92SAPC  H13B 8803   0.699   4.980   6.962  0.0731  0.3435  1.3803
   92SAPC  H13C 8804   0.605   5.121   6.905  0.5009  0.6365 -0.4551
   92SAPC   C14 8805   0.441   4.967   7.049 -0.0478  0.4355  0.2116
   92SAPC  H14A 8806   0.395   5.007   6.960  1.1250 -2.3008 -1.7467
   92SAPC  H14B 8807   0.471   4.875   7.003 -0.0935  1.1417 -1.2879
   92SAPC  H14C 8808   0.357   4.964   7.116  0.2121 -0.4955  0.5126
   92SAPC   C15 8809   0.510   5.160   7.180  0.1125  0.4962 -0.0216
   92SAPC  H15A 8810   0.457   5.227   7.114  1.4377  1.8512  0.2201
   92SAPC  H15B 8811   0.457   5.130   7.269  1.5371 -1.6091  0.2004
   92SAPC  H15C 8812   0.597   5.213   7.216  1.3896 -1.6114  0.1690
   92SAPC   C11 8813   0.680   4.812   7.150 -0.2498  0.0456 -0.1020
   92SAPC  H11A 8814   0.593   4.757   7.109 -0.3840  1.2454 -1.4940
   92SAPC  H11B 8815   0.716   4.762   7.242  3.1885  2.8959  0.3237
   92SAPC     P 8816   0.877   4.718   7.003 -0.1631 -0.0432  0.2131
   92SAPC   O13 8817   0.914   4.631   7.120  0.3669  0.1414  0.1185
   92SAPC   O14 8818   0.814   4.651   6.887  0.3174 -0.3064  0.1709
   92SAPC   O12 8819   0.782   4.837   7.058 -0.2499  0.5759 -0.0651
   92SAPC   O11 8820   1.012   4.792   6.954  0.6115  0.1519  0.0247
   92SAPC    C1 8821   1.010   4.935   6.918  0.1071 -0.5971  0.0502
   92SAPC    HA 8822   0.963   4.997   6.998  1.0995  2.9996 -1.9536
   92SAPC    HB 8823   1.116   4.967   6.927 -0.0924  0.1621 -0.2271
   92SAPC    C2 8824   0.934   4.974   6.788 -0.0247  0.0405  0.5995
   92SAPC    HS 8825   0.826   4.975   6.817 -0.6346  0.7600 -1.5209
   92SAPC   O21 8826   0.965   4.873   6.687  0.2558  0.0018 -0.2591
   92SAPC   C21 8827   0.860   4.828   6.622  0.6129  0.5558  0.2674
   92SAPC   O22 8828   0.746   4.872   6.631  0.4159 -0.3975 -0.6867
   92SAPC   C22 8829   0.900   4.715   6.534  0.9647 -0.2042 -0.5046
   92SAPC   H2R 8830   1.004   4.730   6.497  0.2942  0.2252 -2.3019
   92SAPC   H2S 8831   0.909   4.636   6.612  2.2293  1.4827  1.1777
   92SAPC    C3 8832   0.965   5.119   6.741  0.3711 -0.3001  0.1591
   92SAPC    HX 8833   1.076   5.126   6.742  0.2877  1.4576  1.2252
   92SAPC    HY 8834   0.928   5.181   6.826 -3.2410 -2.4167  0.3217
   92SAPC   O31 8835   0.900   5.160   6.615  0.1855 -0.3870  0.0684
   92SAPC   C31 8836   0.773   5.202   6.632 -1.0792  0.6821  0.2609
   92SAPC   O32 8837   0.711   5.206   6.737 -0.1398  0.0431  0.2196
   92SAPC   C32 8838   0.710   5.226   6.494  0.5355  0.5440 -0.8377
   92SAPC   H2X 8839   0.765   5.281   6.415  1.2617  0.1963 -0.5798
   92SAPC   H2Y 8840   0.617   5.281   6.521  0.9046 -0.3228  2.5944
   92SAPC   C23 8841   0.797   4.687   6.418  0.6526  0.4143  0.2453
   92SAPC   H3R 8842   0.780   4.773   6.348  1.5699  0.5261  0.1470
   92SAPC   H3S 8843   0.702   4.667   6.472  0.2980 -0.1998 -0.5888
   92SAPC   C24 8844   0.832   4.568   6.335  0.0390  1.0055  0.5789
   92SAPC   H4R 8845   0.749   4.557   6.262 -0.0171 -1.9921  0.9875
   92SAPC   H4S 8846   0.818   4.472   6.389  0.4942  0.0961 -0.8461
   92SAPC   C25 8847   0.960   4.583   6.256 -0.1976 -0.0446 -0.0582
   92SAPC   H5R 8848   1.050   4.539   6.300  0.9037  0.6589 -1.4902
   92SAPC   C26 8849   0.980   4.634   6.127  0.2307 -0.0370 -0.3908
   92SAPC   H6R 8850   1.084   4.638   6.093 -0.0401  0.3112 -1.1799
   92SAPC   C27 8851   0.881   4.712   6.044 -0.6083  0.0670 -0.2226
   92SAPC   H7R 8852   0.908   4.819   6.040 -1.0792  0.2161  0.4041
   92SAPC   H7S 8853   0.785   4.705   6.099 -0.0027 -1.8565  0.6968
   92SAPC   C28 8854   0.861   4.646   5.909  0.1208 -0.6447  0.1591
   92SAPC   H8R 8855   0.838   4.538   5.905 -0.4144 -0.5285 -0.1028
   92SAPC   C29 8856   0.848   4.704   5.790  0.2610  0.1668  0.6561
   92SAPC   H9R 8857   0.820   4.641   5.704 -1.2205 -0.0016  1.2208
   92SAPC  C210 8858   0.850   4.856   5.766 -0.3923  0.8410  0.1419
   92SAPC  H10R 8859   0.822   4.915   5.856 -3.4978  1.4681 -1.1057
   92SAPC  H10S 8860   0.774   4.889   5.692 -0.1729  1.0421  0.0050
   92SAPC  C211 8861   0.984   4.903   5.712 -0.3695 -0.0743  0.2505
   92SAPC  H11R 8862   1.057   4.934   5.788  2.0415 -1.2600 -1.4478
   92SAPC  C212 8863   1.031   4.916   5.583  0.3731  0.2979  0.3085
   92SAPC  H12R 8864   1.136   4.942   5.564  0.9660 -1.2829  1.2383
   92SAPC  C213 8865   0.952   4.892   5.453  0.5394  0.1109  0.4015
   92SAPC  H13R 8866   0.848   4.929   5.461 -0.7837 -2.6876 -2.0626
   92SAPC  H13S 8867   0.938   4.783   5.438 -0.5504  0.4775 -1.6367
   92SAPC  C214 8868   1.028   4.948   5.334 -1.2925 -0.2271 -0.6236
   92SAPC  H14R 8869   1.103   5.023   5.363 -0.3645 -1.8228  1.4529
   92SAPC  C215 8870   1.035   4.895   5.208  0.6218 -0.5648 -0.3270
   92SAPC  H15R 8871   1.103   4.948   5.140  1.5573 -3.0317 -1.4304
   92SAPC  C216 8872   0.974   4.766   5.152  0.2784  0.2020  0.0423
   92SAPC  H16R 8873   0.892   4.738   5.222  0.0544  2.5287  0.7965
   92SAPC  H16S 8874   1.057   4.692   5.143  1.8919  1.9548 -0.2037
   92SAPC  C217 8875   0.892   4.788   5.016  0.0786 -0.1961  0.6623
   92SAPC  H17R 8876   0.831   4.880   5.018  0.0924 -0.0771 -1.5884
   92SAPC  H17S 8877   0.821   4.703   5.008 -0.9044  0.6134  0.6789
   92SAPC  C218 8878   0.993   4.785   4.902 -0.4898 -0.3106  0.5248
   92SAPC  H18R 8879   1.056   4.695   4.912  1.4787  0.8575 -0.6531
   92SAPC  H18S 8880   1.065   4.869   4.907  1.0050 -1.5284  0.1340
   92SAPC  C219 8881   0.939   4.779   4.763 -0.1680 -0.0135 -0.0587
   92SAPC  H19R 8882   0.904   4.876   4.721  0.0127 -0.3917 -1.1166
   92SAPC  H19S 8883   0.851   4.713   4.769 -1.0285  1.1828  1.2123
   92SAPC  C220 8884   1.031   4.723   4.663 -0.4763  0.4766  0.1035
   92SAPC  H20R 8885   0.978   4.728   4.566 -2.7309  0.4427  1.2443
   92SAPC  H20S 8886   1.045   4.620   4.702  1.4717  1.2637  1.6376
   92SAPC  H20T 8887   1.126   4.781   4.664 -0.6573  0.8767 -2.0622
   92SAPC   C33 8888   0.673   5.084   6.429 -0.2196 -0.1756  0.5777
   92SAPC   H3X 8889   0.615   5.031   6.508  0.4504 -1.5302  0.1928
   92SAPC   H3Y 8890   0.755   5.011   6.413 -1.3519 -1.3269 -0.1628
   92SAPC   C34 8891   0.584   5.101   6.304 -0.0144  0.0692  0.2625
   92SAPC   H4X 8892   0.486   5.150   6.323 -0.8889 -0.7240 -1.8356
   92SAPC   H4Y 8893   0.553   4.998   6.274  0.3481  0.4224 -1.4223
   92SAPC   C35 8894   0.662   5.161   6.190  1.2664 -0.2926 -0.7678
   92SAPC   H5X 8895   0.750   5.095   6.172  0.8004 -1.0825 -0.2085
   92SAPC   H5Y 8896   0.698   5.263   6.216 -0.0745  0.2045 -0.7831
   92SAPC   C36 8897   0.572   5.160   6.067 -0.2477  0.8836  0.6122
   92SAPC   H6X 8898   0.473   5.208   6.083  0.4160  2.1010  1.1925
   92SAPC   H6Y 8899   0.554   5.052   6.045  2.0660  0.7735 -1.1630
   92SAPC   C37 8900   0.635   5.203   5.941  0.1733 -0.4893 -0.2266
   92SAPC   H7X 8901   0.738   5.163   5.935  0.0415 -0.9039  0.2887
   92SAPC   H7Y 8902   0.633   5.314   5.939 -2.1456 -0.4370  0.9610
   92SAPC   C38 8903   0.572   5.156   5.814  0.6069  0.1150 -0.4207
   92SAPC   H8X 8904   0.468   5.194   5.811  0.8685  0.7965 -1.6833
   92SAPC   H8Y 8905   0.542   5.049   5.809 -1.4961  0.5244  1.9049
   92SAPC   C39 8906   0.646   5.191   5.682 -0.3174  0.5549 -0.2836
   92SAPC   H9X 8907   0.743   5.137   5.680 -0.3917  0.4299 -0.9096
   92SAPC   H9Y 8908   0.664   5.300   5.692  0.6561  0.1987  2.9562
   92SAPC  C310 8909   0.559   5.153   5.556 -0.0381  0.1425 -0.2850
   92SAPC  H10X 8910   0.468   5.217   5.560 -0.2650 -0.2161  0.4960
   92SAPC  H10Y 8911   0.525   5.048   5.544 -0.8104  0.3953 -0.3857
   92SAPC  C311 8912   0.630   5.201   5.431  0.1466  0.1277  0.4060
   92SAPC  H11X 8913   0.716   5.133   5.413  1.4623  1.1729  2.4509
   92SAPC  H11Y 8914   0.668   5.304   5.447  1.2970 -0.1317 -0.4325
   92SAPC  C312 8915   0.543   5.202   5.306  0.4352  0.2304 -0.1981
   92SAPC  H12X 8916   0.454   5.268   5.299 -1.0011 -0.7542  4.7625
   92SAPC  H12Y 8917   0.496   5.103   5.287 -0.5741  0.4852  0.8761
   92SAPC  C313 8918   0.636   5.228   5.196  0.0254 -0.5643  0.5098
   92SAPC  H13X 8919   0.719   5.155   5.199 -0.5081 -1.3496 -1.8158
   92SAPC  H13Y 8920   0.675   5.331   5.216  1.6541 -0.8855 -0.8465
   92SAPC  C314 8921   0.561   5.226   5.067  0.2809 -0.5096  0.7187
   92SAPC  H14X 8922   0.494   5.314   5.073  1.1101  0.2029 -0.0982
   92SAPC  H14Y 8923   0.491   5.140   5.072 -1.5241  0.6766 -1.8821
   92SAPC  C315 8924   0.652   5.243   4.943  1.0555 -0.4306  0.0168
   92SAPC  H15X 8925   0.710   5.150   4.926  0.7424 -0.3057 -1.9635
   92SAPC  H15Y 8926   0.704   5.338   4.968 -0.6631  0.4127  0.5747
   92SAPC  C316 8927   0.574   5.260   4.812 -0.1506  0.3868 -0.1398
   92SAPC  H16X 8928   0.649   5.258   4.731  1.2562  1.1046  1.1055
   92SAPC  H16Y 8929   0.522   5.358   4.814 -0.5408  0.1765  0.2012
   92SAPC  C317 8930   0.473   5.147   4.784 -0.3502 -0.4829 -0.8691
   92SAPC  H17X 8931   0.382   5.156   4.847  0.3474  1.0452 -0.0417
   92SAPC  H17Y 8932   0.518   5.047   4.802  2.2245  0.0070 -3.7006
   92SAPC  C318 8933   0.433   5.147   4.642 -0.5982  0.7507  0.1324
   92SAPC  H18X 8934   0.514   5.142   4.567 -1.1179 -1.0753 -0.3777
   92SAPC  H18Y 8935   0.375   5.238   4.620  1.0035  1.6943 -0.3229
   92SAPC  H18Z 8936   0.353   5.073   4.618 -0.9882  0.5301  1.9523
   93SAPC     N 8937   2.543   0.777   7.042  0.2793 -0.4312  0.9382
   93SAPC   C12 8938   2.538   0.813   6.892  0.3029  0.7195  0.4265
   93SAPC  H12A 8939   2.552   0.919   6.879  0.2813  0.8707  1.5309
   93SAPC  H12B 8940   2.434   0.797   6.871 -0.3512  2.7479  1.8359
   93SAPC   C13 8941   2.433   0.857   7.107 -0.3295 -0.4950  0.0688
   93SAPC  H13A 8942   2.453   0.963   7.103 -0.0770 -0.3734  2.7076
   93SAPC  H13B 8943   2.339   0.842   7.056  0.3898 -1.2995 -1.0641
   93SAPC  H13C 8944   2.441   0.829   7.211  0.8500  1.7072  0.6499
   93SAPC   C14 8945   2.524   0.630   7.061 -0.1703 -0.4294 -0.1134
   93SAPC  H14A 8946   2.607   0.578   7.014 -1.1222 -0.9518 -1.2460
   93SAPC  H14B 8947   2.532   0.606   7.166  0.0548  0.4279  0.0722
   93SAPC  H14C 8948   2.428   0.593   7.029 -1.2444  1.5382  0.6285
   93SAPC   C15 8949   2.676   0.808   7.106  0.1682 -0.7171  0.2776
   93SAPC  H15A 8950   2.683   0.783   7.211  1.4200  0.9202  0.6158
   93SAPC  H15B 8951   2.761   0.764   7.056  0.6513 -1.2031  1.4736
   93SAPC  H15C 8952   2.682   0.914   7.127 -1.7864 -1.0507  3.2674
   93SAPC   C11 8953   2.634   0.731   6.802  0.6306  0.0808 -0.3879
   93SAPC  H11A 8954   2.619   0.785   6.707 -3.6201 -1.0743 -0.5555
   93SAPC  H11B 8955   2.589   0.631   6.786  0.1437 -0.0827  1.6894
   93SAPC     P 8956   2.875   0.827   6.778 -0.3078 -0.4055  0.0971
   93SAPC   O13 8957   2.838   0.962   6.820 -0.4585 -0.1686  0.5779
   93SAPC   O14 8958   3.010   0.778   6.808 -0.1164 -0.2924 -0.6096
   93SAPC   O12 8959   2.772   0.722   6.841  0.7415 -0.3824  0.5943
   93SAPC   O11 8960   2.848   0.810   6.622 -0.4089  0.2268 -0.4342
   93SAPC    C1 8961   2.839   0.687   6.553  0.4624 -0.5553 -0.3502
   93SAPC    HA 8962   2.865   0.606   6.624  1.3736 -0.5875 -0.7015
   93SAPC    HB 8963   2.736   0.675   6.513  1.1608 -0.4953 -2.2598
   93SAPC    C2 8964   2.943   0.661   6.438 -0.5978 -0.4338 -0.2444
   93SAPC    HS 8965   3.036   0.703   6.481 -1.1029  1.9934 -1.3584
   93SAPC   O21 8966   2.900   0.737   6.324  0.0601  0.7387  0.0929
   93SAPC   C21 8967   2.998   0.802   6.262  0.9305 -0.4426  0.1474
   93SAPC   O22 8968   3.113   0.799   6.287  0.4539 -0.3304 -0.1677
   93SAPC   C22 8969   2.927   0.889   6.161  0.0549 -0.3444 -0.3198
   93SAPC   H2R 8970   2.822   0.854   6.154  1.4545 -4.7148 -2.8008
   93SAPC   H2S 8971   2.932   0.993   6.201 -0.2399  0.4339 -2.1706
   93SAPC    C3 8972   2.961   0.516   6.401  0.1410  0.0514  0.1974
   93SAPC    HX 8973   2.861   0.469   6.387  0.6986 -1.1287  0.0026
   93SAPC    HY 8974   3.011   0.462   6.485 -0.1865  0.2241  0.5034
   93SAPC   O31 8975   3.030   0.498   6.277  0.0821  0.3677  0.6863
   93SAPC   C31 8976   3.165   0.506   6.286 -0.1614 -0.1980 -0.0945
   93SAPC   O32 8977   3.226   0.530   6.386 -0.8012  0.2184  0.3520
   93SAPC   C32 8978   3.225   0.491   6.146 -1.0021  0.2424  0.8584
   93SAPC   H2X 8979   3.239   0.589   6.097  0.8375 -0.0647  0.6952
   93SAPC   H2Y 8980   3.156   0.427   6.087 -0.2001  0.1158  0.0394
   93SAPC   C23 8981   3.001   0.902   6.025  0.1175  0.2276  0.3092
   93SAPC   H3R 8982   3.110   0.909   6.043  0.7057  0.0639 -2.6796
   93SAPC   H3S 8983   2.967   0.996   5.977 -1.9919 -0.2623  0.7394
   93SAPC   C24 8984   2.972   0.782   5.942  0.1843  0.8196  1.0866
   93SAPC   H4R 8985   2.864   0.756   5.937  0.3161  0.2684  1.0251
   93SAPC   H4S 8986   3.024   0.696   5.990  1.8294  0.7995 -0.6319
   93SAPC   C25 8987   3.023   0.785   5.795 -0.1105  0.0699 -0.1780
   93SAPC   H5R 8988   3.063   0.883   5.768  0.5916 -0.1199  0.1446
   93SAPC   C26 8989   3.013   0.683   5.703  0.5520 -0.3109  0.0920
   93SAPC   H6R 8990   3.084   0.695   5.619  2.8845 -0.6147  1.8973
   93SAPC   C27 8991   2.956   0.554   5.737 -0.2218  0.4901  0.5147
   93SAPC   H7R 8992   2.847   0.573   5.730  0.2501  3.8727  0.7465
   93SAPC   H7S 8993   2.951   0.523   5.843 -0.7221 -1.4664 -0.0268
   93SAPC   C28 8994   3.006   0.434   5.644 -0.1057 -0.5582 -0.0216
   93SAPC   H8R 8995   3.069   0.363   5.700 -1.3282 -2.9218 -1.4512
   93SAPC   C29 8996   2.994   0.404   5.513  0.5969  0.0664 -0.2461
   93SAPC   H9R 8997   3.034   0.307   5.480 -1.2087 -1.2119  1.1436
   93SAPC  C210 8998   2.907   0.474   5.412  0.4509  0.5313  0.4599
   93SAPC  H10R 8999   2.835   0.537   5.469  0.0607 -1.6021  2.4331
   93SAPC  H10S 9000   2.850   0.398   5.355  2.4805  0.2508 -1.3447
   93SAPC  C211 9001   2.983   0.563   5.320 -0.2780 -0.0003 -0.6353
   93SAPC  H11R 9002   3.091   0.540   5.310 -0.2782 -1.0186  1.1859
   93SAPC  C212 9003   2.932   0.673   5.260  0.7037  0.6985 -0.3793
   93SAPC  H12R 9004   2.989   0.743   5.199  0.3604  1.1435 -0.1931
   93SAPC  C213 9005   2.785   0.710   5.266 -0.3199 -0.1245  0.4528
   93SAPC  H13R 9006   2.752   0.734   5.369  0.1584  0.8170  0.4017
   93SAPC  H13S 9007   2.718   0.624   5.247 -0.9398 -0.1365  2.4576
   93SAPC  C214 9008   2.749   0.830   5.179  0.1684 -0.4287 -0.6927
   93SAPC  H14R 9009   2.738   0.923   5.237 -0.7995 -0.0902 -1.3754
   93SAPC  C215 9010   2.704   0.837   5.050 -0.1298 -0.0787 -0.1087
   93SAPC  H15R 9011   2.685   0.933   4.999 -0.6176 -0.2457 -0.2487
   93SAPC  C216 9012   2.705   0.724   4.951 -0.3877 -0.8178 -0.2370
   93SAPC  H16R 9013   2.601   0.700   4.922 -1.6960  1.2976  2.2896
   93SAPC  H16S 9014   2.755   0.632   4.989  2.2084  0.2713 -0.7971
   93SAPC  C217 9015   2.782   0.766   4.817  0.0133  0.2290  0.3488
   93SAPC  H17R 9016   2.799   0.671   4.762  2.8943  0.6895  0.2850
   93SAPC  H17S 9017   2.884   0.804   4.837  0.2021  0.3741 -0.7905
   93SAPC  C218 9018   2.708   0.868   4.725  0.7769 -0.3814 -0.2131
   93SAPC  H18R 9019   2.723   0.969   4.769  1.9247 -0.6497  0.0485
   93SAPC  H18S 9020   2.598   0.854   4.734  0.5856  1.2597  0.4106
   93SAPC  C219 9021   2.749   0.858   4.579  0.0475  0.2521 -0.7485
   93SAPC  H19R 9022   2.690   0.773   4.538 -1.7243  1.9486 -1.8423
   93SAPC  H19S 9023   2.853   0.819   4.571 -0.9825 -2.4377 -2.8127
   93SAPC  C220 9024   2.724   0.984   4.497  0.0602 -0.1521  0.4217
   93SAPC  H20R 9025   2.783   1.069   4.538  2.1841 -0.6678 -1.3816
   93SAPC  H20S 9026   2.616   1.005   4.486 -0.6585 -2.7578  1.7437
   93SAPC  H20T 9027   2.768   0.969   4.396 -1.2980 -3.1414  0.1711
   93SAPC   C33 9028   3.361   0.411   6.146  0.2909 -0.3653 -0.0132
   93SAPC   H3X 9029   3.340   0.316   6.200  2.0563 -0.8597 -0.1428
   93SAPC   H3Y 9030   3.445   0.459   6.201  0.0946 -2.6731  2.5675
   93SAPC   C34 9031   3.430   0.367   6.010  0.4468  0.0015  0.7642
   93SAPC   H4X 9032   3.514   0.303   6.044  0.7092 -2.3752 -3.7445
   93SAPC   H4Y 9033   3.476   0.461   5.973 -1.6522  1.4555  1.6491
   93SAPC   C35 9034   3.335   0.289   5.910  0.1951 -0.4051 -0.1466
   93SAPC   H5X 9035   3.254   0.359   5.881 -0.3629  0.4111  3.0168
   93SAPC   H5Y 9036   3.290   0.198   5.955 -0.9487 -0.0469 -0.5389
   93SAPC   C36 9037   3.419   0.235   5.797  0.3503  0.7975 -0.2996
   93SAPC   H6X 9038   3.493   0.155   5.820 -0.8450  0.0882  1.2281
   93SAPC   H6Y 9039   3.476   0.314   5.744 -0.6587 -0.9914 -4.4421
   93SAPC   C37 9040   3.314   0.179   5.703  0.2177  0.2338 -0.3799
   93SAPC   H7X 9041   3.250   0.269   5.689  0.2808  0.5781  1.2591
   93SAPC   H7Y 9042   3.251   0.100   5.751  0.0946  0.9923  0.7444
   93SAPC   C38 9043   3.381   0.118   5.579  0.6021 -0.3524 -0.0068
   93SAPC   H8X 9044   3.407   0.010   5.581  2.9609  0.0382 -2.6928
   93SAPC   H8Y 9045   3.480   0.167   5.565  1.1196 -1.4168 -0.1417
   93SAPC   C39 9046   3.297   0.145   5.453  0.3222  0.0749 -0.4508
   93SAPC   H9X 9047   3.267   0.252   5.446 -0.2286 -0.0416  0.0002
   93SAPC   H9Y 9048   3.204   0.087   5.474  0.6880 -0.3574 -0.0154
   93SAPC  C310 9049   3.386   0.097   5.334  0.4188 -0.5601 -0.2773
   93SAPC  H10X 9050   3.406  -0.010   5.356  0.6489 -0.4538  0.0322
   93SAPC  H10Y 9051   3.478   0.158   5.343 -0.2219  0.7038 -1.8904
   93SAPC  C311 9052   3.337   0.119   5.190 -0.1083 -0.2145  0.6314
   93SAPC  H11X 9053   3.280   0.214   5.191 -1.0574 -0.6873 -1.8131
   93SAPC  H11Y 9054   3.267   0.035   5.171  1.8326 -1.4690 -1.4100
   93SAPC  C312 9055   3.454   0.129   5.095  0.4370 -0.6591  0.1076
   93SAPC  H12X 9056   3.507   0.032   5.088  2.0631  0.1743  0.4886
   93SAPC  H12Y 9057   3.526   0.206   5.130  0.6183 -0.7441 -0.0814
   93SAPC  C313 9058   3.409   0.177   4.954  0.2707  0.2462 -0.8622
   93SAPC  H13X 9059   3.341   0.262   4.977 -1.8534 -1.5105 -0.2362
   93SAPC  H13Y 9060   3.347   0.094   4.914  1.9361 -1.8927  0.7108
   93SAPC  C314 9061   3.521   0.208   4.860 -0.7116  0.5170  0.7202
   93SAPC  H14X 9062   3.566   0.110   4.832 -3.0756 -0.1862 -0.9511
   93SAPC  H14Y 9063   3.598   0.276   4.902 -1.3741  1.5968  0.2480
   93SAPC  C315 9064   3.470   0.274   4.730 -0.2901  0.1278 -0.1389
   93SAPC  H15X 9065   3.441   0.373   4.769  3.2092  0.3056  2.5214
   93SAPC  H15Y 9066   3.381   0.217   4.694 -1.7000  2.3900 -0.4392
   93SAPC  C316 9067   3.576   0.285   4.624  0.0185 -0.1398  0.4347
   93SAPC  H16X 9068   3.522   0.335   4.541 -2.0042  1.6943  2.6734
   93SAPC  H16Y 9069   3.613   0.183   4.604 -0.4247 -0.4475  1.1350
   93SAPC  C317 9070   3.702   0.371   4.665 -0.1698  0.1792  0.7883
   93SAPC  H17X 9071   3.756   0.384   4.569 -0.1589 -1.5505  0.5363
   93SAPC  H17Y 9072   3.766   0.331   4.746  1.8323  1.9450  0.1834
   93SAPC  C318 9073   3.664   0.516   4.706  0.7737  0.3050 -1.0710
   93SAPC  H18X 9074   3.751   0.579   4.734  2.3348 -2.6025  1.1541
   93SAPC  H18Y 9075   3.602   0.526   4.798  0.7359 -0.6821 -0.9803
   93SAPC  H18Z 9076   3.603   0.560   4.623 -1.8596 -1.7295 -0.3590
   94SAPC     N 9077   1.960   5.067   6.933 -0.4427 -0.1842 -0.0095
   94SAPC   C12 9078   2.038   5.073   6.805 -0.0252 -0.4002 -0.5430
   94SAPC  H12A 9079   1.974   5.121   6.731 -1.0766  0.8512  1.1038
   94SAPC  H12B 9080   2.066   4.971   6.782  0.9618 -0.5944  1.3161
   94SAPC   C13 9081   1.850   4.973   6.918 -0.5244 -0.1449  0.7589
   94SAPC  H13A 9082   1.777   4.998   6.993  0.0253 -0.4428  1.4104
   94SAPC  H13B 9083   1.803   4.981   6.821  1.3176  2.6585 -0.0094
   94SAPC  H13C 9084   1.902   4.878   6.923  2.4766  1.3504  0.6082
   94SAPC   C14 9085   2.041   5.029   7.057 -0.8324 -0.5353  0.2181
   94SAPC  H14A 9086   2.087   4.933   7.039  0.4860  0.0183  0.4746
   94SAPC  H14B 9087   2.132   5.087   7.061  1.1191 -3.3232 -0.5868
   94SAPC  H14C 9088   1.990   5.008   7.149  0.5577 -0.9589  0.9148
   94SAPC   C15 9089   1.902   5.204   6.961  0.0260 -0.1772  0.1590
   94SAPC  H15A 9090   1.975   5.279   6.986  1.3094 -1.5227  0.6141
   94SAPC  H15B 9091   1.820   5.237   6.898 -0.1204  0.3450  0.6216
   94SAPC  H15C 9092   1.844   5.197   7.052 -0.1852 -0.7719 -0.0182
   94SAPC   C11 9093   2.166   5.156   6.817  0.5964 -0.1541  0.6052
   94SAPC  H11A 9094   2.222   5.147   6.721 -1.2225  0.0813 -0.5339
   94SAPC  H11B 9095   2.232   5.113   6.895 -0.9505 -1.0215  1.4664
   94SAPC     P 9096   2.115   5.415   6.742 -0.2888 -0.2074 -0.1531
   94SAPC   O13 9097   2.024   5.502   6.820  0.5966 -0.3940 -0.1929
   94SAPC   O14 9098   2.246   5.471   6.690  0.0217 -0.3574 -0.0366
   94SAPC   O12 9099   2.155   5.298   6.839  0.1655  0.1824  0.0852
   94SAPC   O11 9100   2.054   5.334   6.626 -0.4138  0.1359 -0.4510
   94SAPC    C1 9101   1.924   5.364   6.576  0.1738  0.5673 -0.2882
   94SAPC    HA 9102   1.868   5.271   6.597  1.3187  0.4566  2.6563
   94SAPC    HB 9103   1.861   5.433   6.636 -0.2241 -1.0723  1.2564
   94SAPC    C2 9104   1.925   5.405   6.423  0.1347  0.1242 -0.4371
   94SAPC    HS 9105   1.924   5.516   6.420  2.3096  0.3689  2.7476
   94SAPC   O21 9106   1.808   5.336   6.365 -1.0442 -0.7078 -0.1527
   94SAPC   C21 9107   1.696   5.384   6.396  0.4543 -0.1628 -0.5202
   94SAPC   O22 9108   1.673   5.493   6.446 -0.5885  0.7145  0.4671
   94SAPC   C22 9109   1.584   5.299   6.320  0.2622 -0.0951  0.1178
   94SAPC   H2R 9110   1.630   5.221   6.256 -0.7961  0.3075 -1.1717
   94SAPC   H2S 9111   1.518   5.256   6.398 -1.0120 -0.1597 -0.9676
   94SAPC    C3 9112   2.059   5.352   6.359  0.1273  0.0117  0.3481
   94SAPC    HX 9113   2.076   5.246   6.389 -1.1381 -0.1725  0.4598
   94SAPC    HY 9114   2.144   5.411   6.401  2.0096 -2.6629  0.5888
   94SAPC   O31 9115   2.061   5.372   6.221 -0.1108 -0.2327 -0.2887
   94SAPC   C31 9116   2.031   5.272   6.141 -0.3959  0.2411 -0.0675
   94SAPC   O32 9117   2.026   5.153   6.172  0.5377 -0.4385  0.0772
   94SAPC   C32 9118   2.009   5.331   6.003 -0.1814  0.0634  0.2096
   94SAPC   H2X 9119   2.109   5.346   5.956 -0.9173  1.3845 -1.0213
   94SAPC   H2Y 9120   1.943   5.420   6.010  0.9295  0.9247 -0.0518
   94SAPC   C23 9121   1.495   5.392   6.231  0.8544 -0.5367 -0.2079
   94SAPC   H3R 9122   1.426   5.449   6.297 -1.9146 -1.7741 -1.8562
   94SAPC   H3S 9123   1.422   5.336   6.169 -2.1164 -0.6026  3.0301
   94SAPC   C24 9124   1.572   5.495   6.150 -0.0508  0.4767 -1.0903
   94SAPC   H4R 9125   1.655   5.433   6.112  3.0246  2.3603  1.9958
   94SAPC   H4S 9126   1.628   5.570   6.210  1.0064 -2.7218  2.2929
   94SAPC   C25 9127   1.489   5.562   6.045  0.4629 -0.5362 -0.4866
   94SAPC   H5R 9128   1.476   5.671   6.054 -1.6820 -0.6660 -1.3550
   94SAPC   C26 9129   1.440   5.512   5.932  0.0365 -0.4132  0.3504
   94SAPC   H6R 9130   1.357   5.570   5.887  0.5499 -0.7710 -1.1035
   94SAPC   C27 9131   1.450   5.368   5.892 -0.0816  0.4156 -0.2606
   94SAPC   H7R 9132   1.374   5.309   5.946  3.0218 -3.6631  0.1990
   94SAPC   H7S 9133   1.543   5.323   5.934 -0.9367 -0.4347  0.7738
   94SAPC   C28 9134   1.433   5.340   5.744 -0.2295 -0.4610  0.6975
   94SAPC   H8R 9135   1.426   5.429   5.680  2.2137  0.7332  1.9403
   94SAPC   C29 9136   1.438   5.219   5.676  0.3331 -0.3568  0.1390
   94SAPC   H9R 9137   1.439   5.220   5.566  1.3598  1.2868  0.1204
   94SAPC  C210 9138   1.458   5.088   5.745 -0.8195  0.4362 -0.9014
   94SAPC  H10R 9139   1.366   5.028   5.730  0.0989 -1.0712 -0.8009
   94SAPC  H10S 9140   1.483   5.101   5.852 -1.9823  0.7870 -0.6626
   94SAPC  C211 9141   1.564   5.004   5.681  0.2185  0.0797 -0.0926
   94SAPC  H11R 9142   1.662   5.010   5.731  0.0019 -1.6830  0.5937
   94SAPC  C212 9143   1.552   4.920   5.571  0.4927 -0.3656 -0.0917
   94SAPC  H12R 9144   1.642   4.863   5.544  0.1369 -0.4835 -1.0978
   94SAPC  C213 9145   1.437   4.913   5.478  0.3440  0.6514 -0.2428
   94SAPC  H13R 9146   1.341   4.936   5.529  0.2239 -1.6658  0.7153
   94SAPC  H13S 9147   1.407   4.808   5.461  1.4993  0.4286 -1.0328
   94SAPC  C214 9148   1.472   4.988   5.354  0.0348 -0.8479  0.0673
   94SAPC  H14R 9149   1.517   5.087   5.370  0.2892 -0.4967 -2.3556
   94SAPC  C215 9150   1.453   4.953   5.227  0.7555  0.8499  0.9082
   94SAPC  H15R 9151   1.472   5.021   5.143 -0.1578  0.4888  0.4006
   94SAPC  C216 9152   1.393   4.821   5.179 -0.4623  0.2180 -0.6831
   94SAPC  H16R 9153   1.294   4.812   5.229 -0.2659  3.1857  0.4430
   94SAPC  H16S 9154   1.460   4.740   5.213 -0.8275  0.6124  1.0553
   94SAPC  C217 9155   1.377   4.818   5.034 -0.2116  0.1553  0.4317
   94SAPC  H17R 9156   1.322   4.910   5.003 -1.0061 -0.3082  0.4382
   94SAPC  H17S 9157   1.304   4.742   5.000  0.8473 -0.7015  0.0036
   94SAPC  C218 9158   1.510   4.810   4.952 -0.7318 -0.0641  0.1025
   94SAPC  H18R 9159   1.548   4.707   4.931 -0.1312  0.5270 -1.9898
   94SAPC  H18S 9160   1.583   4.873   5.007  0.6717  2.2815 -3.9827
   94SAPC  C219 9161   1.509   4.858   4.811  0.1349 -0.8717 -0.3134
   94SAPC  H19R 9162   1.423   4.811   4.758 -1.5671  0.1617  1.4008
   94SAPC  H19S 9163   1.603   4.832   4.758  0.0535 -0.1659 -0.8098
   94SAPC  C220 9164   1.497   5.008   4.808 -0.1369 -0.1125  0.3317
   94SAPC  H20R 9165   1.528   5.052   4.906  1.9111 -0.4926 -0.1032
   94SAPC  H20S 9166   1.397   5.046   4.777  0.7339  0.8519 -1.4715
   94SAPC  H20T 9167   1.572   5.051   4.738 -0.7424 -1.1344 -0.9976
   94SAPC   C33 9168   1.945   5.229   5.902  0.1616 -0.7945 -0.1462
   94SAPC   H3X 9169   1.834   5.227   5.912  0.1161  0.7999 -0.0841
   94SAPC   H3Y 9170   1.972   5.124   5.925  0.1738 -1.1920 -1.8729
   94SAPC   C34 9171   1.993   5.250   5.761 -0.2681  0.1490 -0.6086
   94SAPC   H4X 9172   2.001   5.157   5.700  3.0433  0.7200 -1.2772
   94SAPC   H4Y 9173   2.089   5.306   5.753 -0.6171  0.6472 -1.4933
   94SAPC   C35 9174   1.870   5.317   5.690  0.1837 -0.3780 -0.3496
   94SAPC   H5X 9175   1.841   5.409   5.745  0.9703 -0.4153  0.1372
   94SAPC   H5Y 9176   1.781   5.253   5.711 -1.8563  2.3255 -0.1493
   94SAPC   C36 9177   1.894   5.346   5.540 -0.6334 -0.0381  0.1735
   94SAPC   H6X 9178   1.978   5.418   5.537  0.7424 -1.5475 -3.2805
   94SAPC   H6Y 9179   1.799   5.399   5.517 -0.6938  0.5809  1.7613
   94SAPC   C37 9180   1.916   5.221   5.450  0.2543  0.5349 -0.0924
   94SAPC   H7X 9181   1.852   5.141   5.493  1.1403  0.5299  1.2905
   94SAPC   H7Y 9182   2.024   5.194   5.445 -0.5703 -3.3794 -0.1625
   94SAPC   C38 9183   1.867   5.251   5.304  0.3404  0.0930 -0.1665
   94SAPC   H8X 9184   1.779   5.319   5.304  1.1917  1.2457 -0.8573
   94SAPC   H8Y 9185   1.832   5.159   5.253 -3.4275  2.1866 -1.8143
   94SAPC   C39 9186   1.975   5.319   5.212  0.3793  0.3568  0.7764
   94SAPC   H9X 9187   2.047   5.241   5.181 -2.2350 -2.2638  0.8485
   94SAPC   H9Y 9188   2.030   5.398   5.267  0.8126  1.9559 -1.7943
   94SAPC  C310 9189   1.912   5.398   5.093 -0.4725 -0.0906 -0.0673
   94SAPC  H10X 9190   1.839   5.477   5.122 -2.2405 -1.2562 -1.1477
   94SAPC  H10Y 9191   1.864   5.311   5.044  2.7675 -3.3479  2.0338
   94SAPC  C311 9192   2.024   5.471   5.018 -0.2252  0.0496 -0.1507
   94SAPC  H11X 9193   2.087   5.515   5.099 -1.6904 -0.4260  1.3010
   94SAPC  H11Y 9194   1.975   5.541   4.947  0.4138 -1.8068 -2.5712
   94SAPC  C312 9195   2.113   5.376   4.938  0.3388 -0.2812 -0.3821
   94SAPC  H12X 9196   2.050   5.323   4.864 -1.3972  1.5298 -0.3034
   94SAPC  H12Y 9197   2.157   5.296   5.000  1.6474  0.5905 -0.1450
   94SAPC  C313 9198   2.231   5.447   4.853  0.3740 -0.6380 -0.1848
   94SAPC  H13X 9199   2.295   5.503   4.925 -0.5674  1.9152 -1.2336
   94SAPC  H13Y 9200   2.187   5.524   4.787 -0.8502 -0.6920  0.5448
   94SAPC  C314 9201   2.320   5.352   4.770 -0.3171 -0.0239 -0.4647
   94SAPC  H14X 9202   2.383   5.294   4.840 -0.8735 -1.0093 -0.7684
   94SAPC  H14Y 9203   2.382   5.411   4.698 -3.3710  1.1327 -2.3274
   94SAPC  C315 9204   2.230   5.257   4.697  0.3063  0.2513  0.3828
   94SAPC  H15X 9205   2.142   5.309   4.654 -0.7580 -0.6241  1.4305
   94SAPC  H15Y 9206   2.189   5.175   4.760 -0.3248  0.4960  0.2990
   94SAPC  C316 9207   2.307   5.187   4.579 -0.5686 -0.5464  0.0697
   94SAPC  H16X 9208   2.369   5.105   4.622 -0.6615 -1.4961 -1.5292
   94SAPC  H16Y 9209   2.381   5.251   4.525 -0.1502 -0.9233  0.1978
   94SAPC  C317 9210   2.206   5.128   4.485 -0.3467 -0.4074 -0.1075
   94SAPC  H17X 9211   2.140   5.199   4.431  0.3334 -0.7784 -1.4646
   94SAPC  H17Y 9212   2.137   5.060   4.540 -0.1933 -2.3504 -2.1439
   94SAPC  C318 9213   2.251   5.027   4.374  0.3312 -0.6089  0.5336
   94SAPC  H18X 9214   2.312   4.946   4.419  0.9180 -1.6572 -2.0181
   94SAPC  H18Y 9215   2.323   5.077   4.305  0.2949  0.1257  1.0033
   94SAPC  H18Z 9216   2.163   4.992   4.318  0.8360 -0.8357 -0.1257
   95SAPC     N 9217   6.664   0.023   1.798  0.0562  0.1962  0.4314
   95SAPC   C12 9218   6.822   0.033   1.807  0.0615  0.5374  0.3271
   95SAPC  H12A 9219   6.843   0.097   1.892 -0.1200  2.5162 -1.0392
   95SAPC  H12B 9220   6.847   0.084   1.715 -0.8148 -0.4302 -0.4765
   95SAPC   C13 9221   6.608  -0.038   1.922 -0.2835 -0.1384  0.5190
   95SAPC  H13A 9222   6.616   0.040   1.995 -0.3719  0.1731  0.1991
   95SAPC  H13B 9223   6.503  -0.065   1.920 -0.6900  1.2945  1.3879
   95SAPC  H13C 9224   6.658  -0.130   1.950 -0.3516 -0.2356  0.3296
   95SAPC   C14 9225   6.603   0.154   1.775  0.4464 -0.1341  0.3859
   95SAPC  H14A 9226   6.628   0.199   1.680 -1.8081  1.4334  0.4534
   95SAPC  H14B 9227   6.495   0.153   1.777  0.4362  0.5875  0.5244
   95SAPC  H14C 9228   6.634   0.223   1.852 -1.1471 -0.0034  0.9460
   95SAPC   C15 9229   6.638  -0.069   1.675 -0.9489  0.3864 -0.4640
   95SAPC  H15A 9230   6.696  -0.039   1.589 -1.2412  2.3919 -0.0205
   95SAPC  H15B 9231   6.657  -0.170   1.708 -2.8067 -0.1238 -0.8016
   95SAPC  H15C 9232   6.536  -0.069   1.639 -0.8639  1.3040 -0.7474
   95SAPC   C11 9233   6.908  -0.088   1.808  0.2017 -0.2865  0.1913
   95SAPC  H11A 9234   7.016  -0.063   1.797  0.4201 -1.4155 -0.4227
   95SAPC  H11B 9235   6.887  -0.156   1.723 -0.5183  0.7000 -0.4433
   95SAPC     P 9236   6.995  -0.169   2.043  0.4018 -0.0792  0.4394
   95SAPC   O13 9237   7.073  -0.295   2.034 -0.0635 -0.1549 -0.4338
   95SAPC   O14 9238   7.070  -0.042   2.036  0.2459  0.1830 -0.2126
   95SAPC   O12 9239   6.893  -0.170   1.922 -0.1620  0.1806 -0.0797
   95SAPC   O11 9240   6.903  -0.173   2.170 -0.0728 -0.1490 -0.2492
   95SAPC    C1 9241   6.789  -0.262   2.188 -0.3298  0.5159 -0.3460
   95SAPC    HA 9242   6.698  -0.206   2.159 -0.8293 -0.4002 -0.5816
   95SAPC    HB 9243   6.799  -0.345   2.115  1.5625  0.5302 -0.1619
   95SAPC    C2 9244   6.783  -0.295   2.338  0.7853 -0.3360 -0.0929
   95SAPC    HS 9245   6.865  -0.364   2.367 -0.1730 -1.1463  0.7788
   95SAPC   O21 9246   6.645  -0.348   2.354  0.5500  0.1539 -0.4761
   95SAPC   C21 9247   6.640  -0.428   2.461 -1.0166  0.5006  0.2107
   95SAPC   O22 9248   6.738  -0.464   2.522 -0.1245  0.3323 -0.2919
   95SAPC   C22 9249   6.500  -0.449   2.509 -0.4593  0.6452  0.2183
   95SAPC   H2R 9250   6.436  -0.409   2.427 -1.9841 -0.7390  0.6669
   95SAPC   H2S 9251   6.476  -0.557   2.522 -1.0951  0.5689 -1.3472
   95SAPC    C3 9252   6.800  -0.161   2.419 -0.0694  0.1908 -1.1395
   95SAPC    HX 9253   6.719  -0.094   2.386 -1.3232 -1.4798 -1.6003
   95SAPC    HY 9254   6.899  -0.121   2.388 -0.6316  2.7153  0.0414
   95SAPC   O31 9255   6.793  -0.181   2.561 -0.0529  0.2653  0.0338
   95SAPC   C31 9256   6.891  -0.230   2.621  0.2756 -0.2491  0.3574
   95SAPC   O32 9257   7.006  -0.248   2.580  0.0193  0.6403 -0.2549
   95SAPC   C32 9258   6.847  -0.254   2.763  0.2804  0.4443  0.0006
   95SAPC   H2X 9259   6.937  -0.250   2.829 -0.7991  0.7285  1.5184
   95SAPC   H2Y 9260   6.815  -0.360   2.768 -0.5015  0.6806  0.1626
   95SAPC   C23 9261   6.468  -0.362   2.631 -0.2947 -1.0060 -0.4817
   95SAPC   H3R 9262   6.362  -0.340   2.610  0.1510  2.3899  0.2849
   95SAPC   H3S 9263   6.517  -0.263   2.621 -2.3054 -0.1120 -1.9593
   95SAPC   C24 9264   6.489  -0.431   2.767 -0.0310 -0.0258 -0.1053
   95SAPC   H4R 9265   6.517  -0.343   2.829  2.5736 -1.2289  0.6088
   95SAPC   H4S 9266   6.579  -0.496   2.756 -0.6080 -0.9109  0.2662
   95SAPC   C25 9267   6.363  -0.498   2.817 -0.3812 -0.1797 -0.6087
   95SAPC   H5R 9268   6.290  -0.529   2.740 -2.5812 -1.7823  1.9623
   95SAPC   C26 9269   6.326  -0.528   2.939 -0.3089  0.1020  0.2189
   95SAPC   H6R 9270   6.218  -0.547   2.954 -0.6870  2.3484  0.6449
   95SAPC   C27 9271   6.407  -0.502   3.062  0.0550 -0.0458  0.4570
   95SAPC   H7R 9272   6.506  -0.465   3.028 -0.2885  0.4548 -0.0070
   95SAPC   H7S 9273   6.424  -0.601   3.109 -2.3627 -1.7014 -1.8873
   95SAPC   C28 9274   6.353  -0.401   3.164 -0.2750 -0.3845 -0.2584
   95SAPC   H8R 9275   6.290  -0.321   3.123  0.9835  0.3840 -0.7576
   95SAPC   C29 9276   6.369  -0.402   3.297  0.0934  0.6685 -0.7923
   95SAPC   H9R 9277   6.326  -0.316   3.351 -0.8591  1.2904 -2.4795
   95SAPC  C210 9278   6.444  -0.485   3.398  0.6515 -0.0675  0.3364
   95SAPC  H10R 9279   6.501  -0.422   3.471  1.8913  0.5742 -1.1246
   95SAPC  H10S 9280   6.518  -0.546   3.342  1.5894  2.4496 -1.3598
   95SAPC  C211 9281   6.335  -0.570   3.452 -0.4734 -0.0205 -0.1792
   95SAPC  H11R 9282   6.325  -0.666   3.400  2.1111  0.7192 -2.2250
   95SAPC  C212 9283   6.256  -0.541   3.557 -0.0468 -0.0771 -0.3668
   95SAPC  H12R 9284   6.182  -0.618   3.584 -0.3004 -0.4269 -1.9842
   95SAPC  C213 9285   6.278  -0.422   3.641  0.5900 -0.1790 -0.1881
   95SAPC  H13R 9286   6.323  -0.340   3.580  0.9303  1.0541  1.6295
   95SAPC  H13S 9287   6.361  -0.455   3.706  0.7106  2.0759  0.9127
   95SAPC  C214 9288   6.161  -0.373   3.719  0.7214 -0.1976 -0.0022
   95SAPC  H14R 9289   6.057  -0.397   3.689  0.1556  0.4244  1.3815
   95SAPC  C215 9290   6.176  -0.286   3.818 -0.3235  0.4901  0.1886
   95SAPC  H15R 9291   6.089  -0.261   3.881 -0.4310  0.6342 -0.0176
   95SAPC  C216 9292   6.310  -0.229   3.860 -0.1190 -0.1142  0.0317
   95SAPC  H16R 9293   6.371  -0.191   3.776  0.2851 -1.4173 -0.2876
   95SAPC  H16S 9294   6.371  -0.312   3.903  1.6231  0.1313 -1.8028
   95SAPC  C217 9295   6.305  -0.113   3.962 -0.0010 -0.1434  0.1156
   95SAPC  H17R 9296   6.273  -0.021   3.910 -0.5547  0.4020  1.3828
   95SAPC  H17S 9297   6.406  -0.091   4.004  0.1317 -1.6756  0.6760
   95SAPC  C218 9298   6.215  -0.142   4.077  0.5247 -0.1333 -0.0655
   95SAPC  H18R 9299   6.220  -0.248   4.110 -1.8397 -0.0630  0.7023
   95SAPC  H18S 9300   6.111  -0.120   4.043  0.8262  1.9059  0.2073
   95SAPC  C219 9301   6.229  -0.056   4.202  0.2006 -0.6109 -0.1704
   95SAPC  H19R 9302   6.196   0.047   4.176 -1.3496 -0.7120  1.1687
   95SAPC  H19S 9303   6.336  -0.066   4.227 -0.0734  0.1527  1.4620
   95SAPC  C220 9304   6.147  -0.111   4.321  0.3876 -0.4380  0.8923
   95SAPC  H20R 9305   6.163  -0.058   4.417 -2.6442  0.7324  0.8601
   95SAPC  H20S 9306   6.177  -0.217   4.334  0.2401 -0.9513 -2.1291
   95SAPC  H20T 9307   6.038  -0.110   4.297  0.4926 -2.5406  0.0698
   95SAPC   C33 9308   6.740  -0.143   2.816 -0.0426 -0.3663 -0.2860
   95SAPC   H3X 9309   6.643  -0.142   2.762 -0.4470  0.3661  0.4305
   95SAPC   H3Y 9310   6.779  -0.041   2.795  0.7440 -0.9846 -2.1259
   95SAPC   C34 9311   6.723  -0.163   2.969  0.1078  0.1444 -0.1673
   95SAPC   H4X 9312   6.828  -0.150   3.001 -0.1970 -0.6894  1.2575
   95SAPC   H4Y 9313   6.705  -0.268   2.998  0.9931 -0.0278 -0.2177
   95SAPC   C35 9314   6.636  -0.072   3.050  0.1767 -0.5747 -0.3414
   95SAPC   H5X 9315   6.529  -0.085   3.025 -0.0934 -1.3509  1.0720
   95SAPC   H5Y 9316   6.658   0.032   3.019  0.9276 -1.4247 -2.9026
   95SAPC   C36 9317   6.646  -0.090   3.206 -0.0936  0.3460 -0.2048
   95SAPC   H6X 9318   6.736  -0.032   3.237 -1.5599  2.5861  0.0526
   95SAPC   H6Y 9319   6.674  -0.198   3.215 -3.6804 -0.8420 -1.6998
   95SAPC   C37 9320   6.518  -0.051   3.278 -0.0735 -0.3802 -0.7044
   95SAPC   H7X 9321   6.434  -0.115   3.244  0.4893 -0.4420 -1.9906
   95SAPC   H7Y 9322   6.497   0.056   3.256  0.1803  0.0393  0.9341
   95SAPC   C38 9323   6.534  -0.063   3.429 -0.2164  0.1362 -0.2899
   95SAPC   H8X 9324   6.627  -0.009   3.454 -0.4620  1.3268 -1.8070
   95SAPC   H8Y 9325   6.549  -0.170   3.457  0.2607 -0.6229 -3.1345
   95SAPC   C39 9326   6.414   0.002   3.503 -0.1498  0.0345  0.9272
   95SAPC   H9X 9327   6.413   0.108   3.472 -0.7349  0.4384  2.2291
   95SAPC   H9Y 9328   6.442  -0.008   3.611  1.7929  2.9460  0.7899
   95SAPC  C310 9329   6.272  -0.045   3.464 -0.6045 -0.8284  0.6127
   95SAPC  H10X 9330   6.277  -0.156   3.462 -1.9354 -0.9859  2.9070
   95SAPC  H10Y 9331   6.248  -0.004   3.363 -0.4919  1.2853  1.3858
   95SAPC  C311 9332   6.175   0.001   3.576 -0.1873  0.3731  0.1089
   95SAPC  H11X 9333   6.222  -0.020   3.675  0.4456 -1.3547 -0.5344
   95SAPC  H11Y 9334   6.082  -0.057   3.561 -0.7084  1.4164 -0.8059
   95SAPC  C312 9335   6.145   0.153   3.573  0.7918 -0.1793 -0.0507
   95SAPC  H12X 9336   6.137   0.183   3.466 -0.5572  0.2227  0.1346
   95SAPC  H12Y 9337   6.229   0.210   3.617  1.3932 -2.0470  1.3502
   95SAPC  C313 9338   6.004   0.204   3.631 -0.5621  0.4808  0.1004
   95SAPC  H13X 9339   5.929   0.133   3.589  0.3272  0.6133 -1.8703
   95SAPC  H13Y 9340   5.999   0.313   3.610  1.2474  1.0916  2.4183
   95SAPC  C314 9341   6.007   0.190   3.786 -0.4341 -0.3121  0.4274
   95SAPC  H14X 9342   6.045   0.288   3.823  1.2432 -1.7272  2.7273
   95SAPC  H14Y 9343   6.073   0.105   3.814 -2.7983 -2.3209  0.1727
   95SAPC  C315 9344   5.872   0.150   3.851  0.4049 -1.3463  0.5830
   95SAPC  H15X 9345   5.789   0.214   3.814  2.9883  1.3945 -0.8782
   95SAPC  H15Y 9346   5.888   0.183   3.956  1.1739 -1.0293  0.3735
   95SAPC  C316 9347   5.833   0.007   3.826  0.6902  0.5057 -0.0302
   95SAPC  H16X 9348   5.921  -0.061   3.833 -0.7505 -1.4422  0.2392
   95SAPC  H16Y 9349   5.789   0.008   3.724  0.2161  1.0734  0.1794
   95SAPC  C317 9350   5.725  -0.039   3.923  0.6263 -0.4368 -0.7107
   95SAPC  H17X 9351   5.655  -0.112   3.878 -0.4469 -0.8670  1.5219
   95SAPC  H17Y 9352   5.658   0.043   3.957  0.2216 -2.0819  2.9892
   95SAPC  C318 9353   5.782  -0.103   4.049 -0.1079  0.3457 -0.1869
   95SAPC  H18X 9354   5.848  -0.023   4.091 -2.4476  2.6563 -0.6157
   95SAPC  H18Y 9355   5.843  -0.189   4.015  1.3304  1.7570 -1.3133
   95SAPC  H18Z 9356   5.699  -0.129   4.118  0.1453  1.5460  0.6096
   96SAPC     N 9357   6.275   3.180   2.121 -0.0242  0.5079  0.5361
   96SAPC   C12 9358   6.218   3.213   2.258  0.0899 -0.5345  0.0359
   96SAPC  H12A 9359   6.130   3.276   2.251  0.8341  0.5036 -0.2366
   96SAPC  H12B 9360   6.292   3.270   2.313 -0.7036 -0.8136  1.4691
   96SAPC   C13 9361   6.392   3.089   2.138  0.2217 -0.3401  0.3547
   96SAPC  H13A 9362   6.425   3.037   2.049  1.6048  1.0153  0.0156
   96SAPC  H13B 9363   6.474   3.137   2.191 -0.3231  0.5950  0.3781
   96SAPC  H13C 9364   6.362   3.004   2.197  2.0973 -2.7200 -1.8373
   96SAPC   C14 9365   6.171   3.102   2.041 -0.2878  0.1380 -0.5681
   96SAPC  H14A 9366   6.077   3.147   2.014 -0.3185 -0.8936 -2.3976
   96SAPC  H14B 9367   6.223   3.063   1.955  0.5016  2.0235 -1.0086
   96SAPC  H14C 9368   6.140   3.020   2.104  0.0331 -1.0215 -1.8594
   96SAPC   C15 9369   6.330   3.289   2.038  0.3196  0.2633 -1.0569
   96SAPC  H15A 9370   6.374   3.255   1.945 -0.4563 -1.8992 -0.6984
   96SAPC  H15B 9371   6.240   3.347   2.024 -1.6192 -2.7606 -2.2041
   96SAPC  H15C 9372   6.404   3.352   2.085 -0.1704  2.0415 -2.5758
   96SAPC   C11 9373   6.194   3.093   2.365  0.6690 -0.0782 -0.7487
   96SAPC  H11A 9374   6.133   3.020   2.308  0.0967  0.2935 -0.6220
   96SAPC  H11B 9375   6.128   3.130   2.447 -0.3196 -0.6266 -1.2712
   96SAPC     P 9376   6.399   3.103   2.524 -0.1211 -0.0959  0.4472
   96SAPC   O13 9377   6.497   3.003   2.574  0.1614 -0.6536  0.4511
   96SAPC   O14 9378   6.441   3.232   2.455  0.3819 -0.3582 -0.8174
   96SAPC   O12 9379   6.313   3.027   2.414 -0.6037 -0.5776  0.3913
   96SAPC   O11 9380   6.290   3.125   2.640  0.3593  0.0541  0.0611
   96SAPC    C1 9381   6.217   3.021   2.698  0.0443  0.2191 -0.7406
   96SAPC    HA 9382   6.114   3.028   2.657 -0.5480 -2.3492  0.1466
   96SAPC    HB 9383   6.241   2.918   2.664 -0.3727 -0.8427  1.9911
   96SAPC    C2 9384   6.203   3.026   2.851  0.4203  0.4667 -0.3370
   96SAPC    HS 9385   6.126   2.956   2.889 -0.2600  2.1721  1.6169
   96SAPC   O21 9386   6.155   3.149   2.900 -0.3697 -0.1663  0.1322
   96SAPC   C21 9387   6.039   3.192   2.861 -0.1853 -0.3718  0.6113
   96SAPC   O22 9388   5.953   3.125   2.803 -0.0133  0.0295  0.4259
   96SAPC   C22 9389   6.034   3.341   2.891  0.0444 -0.5034  0.3779
   96SAPC   H2R 9390   6.071   3.353   2.995  0.4193  2.9804 -0.0328
   96SAPC   H2S 9391   6.110   3.391   2.827 -0.0408 -0.9805 -0.1029
   96SAPC    C3 9392   6.338   2.994   2.913 -0.6694  0.2541 -0.2251
   96SAPC    HX 9393   6.381   3.096   2.923 -0.8152  0.0786  3.1342
   96SAPC    HY 9394   6.393   2.938   2.834 -1.2983 -2.2705  1.0202
   96SAPC   O31 9395   6.333   2.923   3.042  0.1314 -0.3230  0.3320
   96SAPC   C31 9396   6.298   2.796   3.052  0.0132 -0.1474  0.2636
   96SAPC   O32 9397   6.241   2.735   2.964  0.1393 -0.3949  0.0404
   96SAPC   C32 9398   6.334   2.740   3.186 -0.3470  0.5454  0.5624
   96SAPC   H2X 9399   6.424   2.788   3.231  1.0700  1.3926 -2.8748
   96SAPC   H2Y 9400   6.364   2.636   3.161  0.4567  1.4135 -2.3844
   96SAPC   C23 9401   5.895   3.405   2.869  0.0950 -0.6799  0.7846
   96SAPC   H3R 9402   5.825   3.342   2.929 -2.1742  2.0564  1.2502
   96SAPC   H3S 9403   5.862   3.414   2.763 -0.4120  2.5578  1.0944
   96SAPC   C24 9404   5.892   3.542   2.937  0.7522 -0.0683  0.2666
   96SAPC   H4R 9405   5.951   3.624   2.891 -1.5322  0.4764 -1.8871
   96SAPC   H4S 9406   5.942   3.519   3.034  0.6047  1.3564  0.7084
   96SAPC   C25 9407   5.746   3.591   2.958 -0.6648  0.9628  0.2729
   96SAPC   H5R 9408   5.694   3.638   2.873 -4.3990  0.4329  2.0647
   96SAPC   C26 9409   5.674   3.581   3.071  0.3743 -0.0779 -0.1415
   96SAPC   H6R 9410   5.568   3.611   3.076  0.1697 -0.6948 -0.6884
   96SAPC   C27 9411   5.708   3.519   3.204 -0.1262 -0.3284 -0.4660
   96SAPC   H7R 9412   5.728   3.410   3.199 -0.6283 -0.4850  0.7364
   96SAPC   H7S 9413   5.617   3.527   3.267  0.8279  0.1168  0.8995
   96SAPC   C28 9414   5.818   3.594   3.282 -0.1617 -0.3349  0.4023
   96SAPC   H8R 9415   5.889   3.651   3.220 -0.0772 -0.2641  0.5640
   96SAPC   C29 9416   5.830   3.597   3.412  0.2816 -0.4894 -0.4108
   96SAPC   H9R 9417   5.895   3.680   3.445 -2.9812  1.5104  1.4531
   96SAPC  C210 9418   5.746   3.531   3.512  0.5788  0.2179 -0.0069
   96SAPC  H10R 9419   5.814   3.486   3.588  0.0313  2.0007  1.6313
   96SAPC  H10S 9420   5.695   3.445   3.465 -0.6452  1.1741 -0.4852
   96SAPC  C211 9421   5.650   3.631   3.578  0.1724 -0.1371 -0.0704
   96SAPC  H11R 9422   5.602   3.702   3.509  1.0983 -1.4609 -2.1655
   96SAPC  C212 9423   5.616   3.634   3.706  1.2961  0.3725 -0.0736
   96SAPC  H12R 9424   5.542   3.712   3.729  1.6049  0.1337  1.9792
   96SAPC  C213 9425   5.642   3.537   3.818 -0.8145  0.9474  0.6324
   96SAPC  H13R 9426   5.733   3.476   3.799 -1.5378  0.0487 -0.0279
   96SAPC  H13S 9427   5.562   3.460   3.819 -1.5212  1.6706  1.0082
   96SAPC  C214 9428   5.652   3.613   3.950 -0.0981 -0.3928 -0.2071
   96SAPC  H14R 9429   5.693   3.714   3.946 -0.4121 -0.2908 -1.5031
   96SAPC  C215 9430   5.597   3.579   4.060  0.1579 -1.0202 -0.2936
   96SAPC  H15R 9431   5.596   3.648   4.146 -1.0759  0.7295 -1.6437
   96SAPC  C216 9432   5.524   3.455   4.088  0.0147 -0.2648  0.0651
   96SAPC  H16R 9433   5.598   3.377   4.057  2.0750  1.0062  1.5146
   96SAPC  H16S 9434   5.437   3.434   4.023 -0.7465 -0.8081  1.2256
   96SAPC  C217 9435   5.486   3.455   4.239  0.1862  0.3369  0.1257
   96SAPC  H17R 9436   5.414   3.376   4.272 -0.1467  0.8711  0.6903
   96SAPC  H17S 9437   5.421   3.542   4.262 -1.9882 -1.4844  1.3007
   96SAPC  C218 9438   5.594   3.446   4.345 -0.0020 -0.1117 -0.2484
   96SAPC  H18R 9439   5.542   3.440   4.443  3.7896 -0.8919  1.9110
   96SAPC  H18S 9440   5.651   3.541   4.350  0.7388 -0.4607 -1.5041
   96SAPC  C219 9441   5.673   3.315   4.330 -0.1769 -0.3195 -0.8394
   96SAPC  H19R 9442   5.738   3.330   4.241  1.1389  1.0139  0.2932
   96SAPC  H19S 9443   5.596   3.240   4.303 -1.8439  1.1378 -0.3626
   96SAPC  C220 9444   5.757   3.302   4.455  0.1437  0.6289 -0.1912
   96SAPC  H20R 9445   5.837   3.224   4.448 -0.3049  0.3024 -2.6082
   96SAPC  H20S 9446   5.697   3.279   4.546 -1.0998 -0.9873 -1.3614
   96SAPC  H20T 9447   5.815   3.394   4.476  0.6828 -0.2868  2.8662
   96SAPC   C33 9448   6.219   2.728   3.286 -0.3297  0.0542 -0.0533
   96SAPC   H3X 9449   6.152   2.646   3.254  1.1338 -1.4603  0.6331
   96SAPC   H3Y 9450   6.163   2.824   3.294  1.9362  1.3970  0.8905
   96SAPC   C34 9451   6.266   2.689   3.431 -0.4521 -0.3186  0.3461
   96SAPC   H4X 9452   6.326   2.596   3.431 -1.7219 -1.1976 -1.0640
   96SAPC   H4Y 9453   6.177   2.661   3.492  1.5790 -3.6057  2.0793
   96SAPC   C35 9454   6.337   2.803   3.508 -0.0571  0.2689  0.2566
   96SAPC   H5X 9455   6.308   2.901   3.464 -0.9801 -0.3526 -0.5770
   96SAPC   H5Y 9456   6.445   2.794   3.484  0.5589  1.5888  2.2526
   96SAPC   C36 9457   6.301   2.805   3.653 -1.4550  0.3280 -0.1621
   96SAPC   H6X 9458   6.192   2.786   3.663 -1.3705 -0.3475 -0.5173
   96SAPC   H6Y 9459   6.324   2.909   3.687  1.5945 -0.7259  1.3576
   96SAPC   C37 9460   6.370   2.703   3.739  0.2720  0.6866  0.1231
   96SAPC   H7X 9461   6.479   2.721   3.729  0.0017  2.3129 -0.2445
   96SAPC   H7Y 9462   6.351   2.599   3.706  0.2525  1.0240 -0.9715
   96SAPC   C38 9463   6.326   2.710   3.891 -0.1540 -0.1994 -0.0706
   96SAPC   H8X 9464   6.353   2.623   3.955  0.7542  0.1356  0.0169
   96SAPC   H8Y 9465   6.215   2.714   3.886 -0.2928 -1.4726  1.3248
   96SAPC   C39 9466   6.356   2.835   3.979  0.1455 -0.4154 -0.8185
   96SAPC   H9X 9467   6.343   2.927   3.918 -1.5645  1.2561  1.8948
   96SAPC   H9Y 9468   6.458   2.836   4.021 -0.1694 -0.8122 -0.0293
   96SAPC  C310 9469   6.255   2.852   4.100 -0.1175  0.2236 -0.0334
   96SAPC  H10X 9470   6.155   2.885   4.063  0.2848  1.8726  0.2595
   96SAPC  H10Y 9471   6.291   2.933   4.167  0.2943 -0.6669  0.8420
   96SAPC  C311 9472   6.238   2.728   4.198  0.2551  0.0728  0.0299
   96SAPC  H11X 9473   6.230   2.632   4.143 -0.1089 -0.0834  0.3522
   96SAPC  H11Y 9474   6.143   2.750   4.251 -0.4765 -0.9125 -0.8363
   96SAPC  C312 9475   6.354   2.717   4.301  0.8047 -0.4240  0.4998
   96SAPC  H12X 9476   6.333   2.811   4.357 -2.3970 -0.3746 -0.5786
   96SAPC  H12Y 9477   6.458   2.711   4.265  0.9798 -0.7361  1.0459
   96SAPC  C313 9478   6.339   2.612   4.409  0.7597  0.3533 -0.2043
   96SAPC  H13X 9479   6.247   2.634   4.468  0.1275 -4.1816  0.8215
   96SAPC  H13Y 9480   6.431   2.615   4.472  1.7913  2.3545 -1.6546
   96SAPC  C314 9481   6.311   2.465   4.363  0.2511 -0.5647  0.0909
   96SAPC  H14X 9482   6.392   2.438   4.292 -0.9026  0.8179 -1.8250
   96SAPC  H14Y 9483   6.217   2.476   4.305  0.3030  1.3957  0.3209
   96SAPC  C315 9484   6.297   2.356   4.476 -0.3012  0.2119 -0.9282
   96SAPC  H15X 9485   6.244   2.270   4.431 -3.0200  1.1231  0.2997
   96SAPC  H15Y 9486   6.231   2.401   4.554 -0.1438 -2.4462  0.8534
   96SAPC  C316 9487   6.426   2.308   4.551 -0.2023 -0.3005  0.9184
   96SAPC  H16X 9488   6.508   2.371   4.511 -0.4894 -0.2082  0.4668
   96SAPC  H16Y 9489   6.448   2.207   4.511 -0.8367  0.0725 -0.4088
   96SAPC  C317 9490   6.419   2.308   4.706 -0.1049 -0.3312  0.6599
   96SAPC  H17X 9491   6.512   2.273   4.756  0.2938  1.0294  0.9302
   96SAPC  H17Y 9492   6.333   2.243   4.731 -1.2775  0.3529 -1.3401
   96SAPC  C318 9493   6.395   2.454   4.757 -0.1908  0.0160 -0.1180
   96SAPC  H18X 9494   6.314   2.502   4.697 -1.2243 -1.7487 -0.2004
   96SAPC  H18Y 9495   6.494   2.503   4.737 -1.2972  1.7931 -1.6202
   96SAPC  H18Z 9496   6.364   2.461   4.863 -1.2362 -1.6004 -0.2896
   97SAPC     N 9497   6.057   2.208   2.410 -0.0066  0.8149  0.2612
   97SAPC   C12 9498   5.909   2.234   2.376 -0.5025 -0.6210 -0.3071
   97SAPC  H12A 9499   5.881   2.160   2.302  1.1796 -2.1069  0.4873
   97SAPC  H12B 9500   5.889   2.328   2.326 -0.9013  0.2709  1.4635
   97SAPC   C13 9501   6.151   2.218   2.288 -0.8729  0.9948 -0.0357
   97SAPC  H13A 9502   6.137   2.135   2.221  1.8258  0.5795 -0.1909
   97SAPC  H13B 9503   6.137   2.312   2.238 -0.5362  0.4241 -1.2268
   97SAPC  H13C 9504   6.252   2.221   2.326 -1.6033  1.0029  2.0850
   97SAPC   C14 9505   6.103   2.313   2.508 -0.2847  0.3840  0.2796
   97SAPC  H14A 9506   6.209   2.305   2.521 -0.2661  1.0318  0.5735
   97SAPC  H14B 9507   6.083   2.413   2.473  1.0157  1.0132  1.2723
   97SAPC  H14C 9508   6.060   2.294   2.605  0.1566 -1.6897  0.1087
   97SAPC   C15 9509   6.074   2.078   2.482  0.4703 -0.0045 -0.2049
   97SAPC  H15A 9510   6.068   1.987   2.425  2.0650 -0.2829  0.0099
   97SAPC  H15B 9511   6.176   2.067   2.516  0.4312  0.3565  0.0350
   97SAPC  H15C 9512   5.996   2.081   2.557  1.0089  3.4159  0.3968
   97SAPC   C11 9513   5.799   2.215   2.486  0.0056 -0.0352 -0.2693
   97SAPC  H11A 9514   5.702   2.242   2.439 -0.1810 -0.3746 -0.0796
   97SAPC  H11B 9515   5.807   2.294   2.564  0.5097 -0.0386 -0.3137
   97SAPC     P 9516   5.736   1.966   2.470 -0.0290 -0.4620  0.2049
   97SAPC   O13 9517   5.687   2.007   2.338 -0.0193 -0.3894  0.4972
   97SAPC   O14 9518   5.837   1.859   2.479  0.3189  0.1644 -0.9850
   97SAPC   O12 9519   5.793   2.089   2.549 -0.3991 -0.0426 -0.0448
   97SAPC   O11 9520   5.609   1.921   2.553 -0.4079 -0.2784  0.3109
   97SAPC    C1 9521   5.510   2.023   2.599  0.8466 -0.0685  0.0690
   97SAPC    HA 9522   5.513   2.117   2.539 -0.1753  0.8611  1.4021
   97SAPC    HB 9523   5.407   1.981   2.600 -0.3739  2.4684 -2.5993
   97SAPC    C2 9524   5.539   2.066   2.745 -1.0869 -0.2936  0.2303
   97SAPC    HS 9525   5.649   2.079   2.756 -0.7782 -1.7753 -0.8702
   97SAPC   O21 9526   5.476   1.980   2.833 -0.0627 -0.0922  0.0684
   97SAPC   C21 9527   5.554   1.934   2.931  0.0186 -0.2325 -0.3504
   97SAPC   O22 9528   5.665   1.975   2.954  0.1254 -0.3157  0.0219
   97SAPC   C22 9529   5.481   1.831   3.004 -0.2569 -0.4276 -0.1637
   97SAPC   H2R 9530   5.438   1.758   2.932  0.6598 -0.1647 -0.9974
   97SAPC   H2S 9531   5.560   1.788   3.069 -1.3831  1.5989  2.7575
   97SAPC    C3 9532   5.476   2.198   2.782  0.5064 -0.0012  0.4403
   97SAPC    HX 9533   5.366   2.184   2.782  0.5832 -0.6485 -0.1026
   97SAPC    HY 9534   5.500   2.271   2.702  1.4951 -0.3179  0.4400
   97SAPC   O31 9535   5.510   2.248   2.914 -0.8582 -0.3341  0.4417
   97SAPC   C31 9536   5.613   2.329   2.915 -0.0679  0.5389  0.0805
   97SAPC   O32 9537   5.684   2.360   2.816  0.0209  0.5753  0.9312
   97SAPC   C32 9538   5.618   2.379   3.059  0.2555 -0.3831 -0.7915
   97SAPC   H2X 9539   5.655   2.297   3.124  0.8764  0.4282 -0.1065
   97SAPC   H2Y 9540   5.516   2.407   3.093  0.5670 -0.3339  0.1346
   97SAPC   C23 9541   5.385   1.904   3.100  0.5313 -0.7303 -0.0374
   97SAPC   H3R 9542   5.332   1.823   3.155  0.2618 -1.0115 -0.7022
   97SAPC   H3S 9543   5.309   1.967   3.049 -1.1171 -1.9052  0.8726
   97SAPC   C24 9544   5.449   2.001   3.195 -0.4211 -0.4657  0.3370
   97SAPC   H4R 9545   5.478   2.101   3.155  1.1513 -0.2440  1.9104
   97SAPC   H4S 9546   5.546   1.958   3.227 -0.3967 -0.4444  0.2911
   97SAPC   C25 9547   5.364   2.025   3.313  0.5389 -0.2934  0.3293
   97SAPC   H5R 9548   5.332   1.935   3.368 -0.5443  0.0516  0.2954
   97SAPC   C26 9549   5.342   2.145   3.371 -0.2537  0.2918  0.1049
   97SAPC   H6R 9550   5.262   2.150   3.446 -0.2781 -1.2954  0.2173
   97SAPC   C27 9551   5.407   2.274   3.330  0.3356 -0.3929 -0.8352
   97SAPC   H7R 9552   5.338   2.319   3.255  0.7875  1.1272 -0.3663
   97SAPC   H7S 9553   5.504   2.244   3.287  2.4946  1.5015  2.2883
   97SAPC   C28 9554   5.434   2.381   3.431 -0.2393 -0.4304  0.6048
   97SAPC   H8R 9555   5.396   2.477   3.393  2.5248  0.9039  0.9477
   97SAPC   C29 9556   5.496   2.366   3.544 -0.2426 -0.2426 -0.1461
   97SAPC   H9R 9557   5.499   2.450   3.616  2.1350 -0.7148  0.4037
   97SAPC  C210 9558   5.571   2.250   3.600 -0.9557 -0.2276 -0.2471
   97SAPC  H10R 9559   5.665   2.277   3.653  0.0159 -1.2698 -1.3494
   97SAPC  H10S 9560   5.592   2.175   3.521 -0.1152  2.0409 -2.3113
   97SAPC  C211 9561   5.480   2.192   3.704  0.9501 -0.2269  0.6012
   97SAPC  H11R 9562   5.439   2.103   3.653  1.9198  1.1384 -2.8554
   97SAPC  C212 9563   5.459   2.223   3.832 -0.0616 -0.1933 -0.2449
   97SAPC  H12R 9564   5.386   2.167   3.892  0.4781  0.0741  0.6765
   97SAPC  C213 9565   5.500   2.348   3.900  0.4836 -0.5008 -0.0193
   97SAPC  H13R 9566   5.598   2.382   3.861  0.7413  0.3962  1.3182
   97SAPC  H13S 9567   5.521   2.335   4.009  0.8408 -1.5402 -0.1954
   97SAPC  C214 9568   5.410   2.471   3.878 -0.5328  0.0600 -0.5131
   97SAPC  H14R 9569   5.357   2.470   3.781 -0.9070  0.1958 -0.3105
   97SAPC  C215 9570   5.412   2.583   3.954  1.3168  0.6457  0.5412
   97SAPC  H15R 9571   5.342   2.666   3.943  1.0146  0.2580 -0.5370
   97SAPC  C216 9572   5.495   2.614   4.075 -0.0251  0.5115  0.1640
   97SAPC  H16R 9573   5.543   2.713   4.060  0.2048  0.3736 -0.0235
   97SAPC  H16S 9574   5.579   2.542   4.089 -0.9702 -0.1152  3.7583
   97SAPC  C217 9575   5.418   2.622   4.205  0.1128  0.1913  0.0801
   97SAPC  H17R 9576   5.347   2.707   4.210 -0.4598 -0.3135  3.7357
   97SAPC  H17S 9577   5.493   2.635   4.287  1.4542 -1.6598 -0.7836
   97SAPC  C218 9578   5.350   2.494   4.247  0.1996 -0.2595 -0.6437
   97SAPC  H18R 9579   5.306   2.445   4.158  1.4430 -1.7606 -0.4698
   97SAPC  H18S 9580   5.265   2.518   4.315 -0.2383  1.3294 -1.6931
   97SAPC  C219 9581   5.458   2.405   4.306 -0.1395  0.5614 -0.1407
   97SAPC  H19R 9582   5.546   2.391   4.241 -0.7145  0.3925 -0.8966
   97SAPC  H19S 9583   5.419   2.301   4.308  0.6648  0.0099 -4.2876
   97SAPC  C220 9584   5.497   2.431   4.451 -0.1536  0.5648 -0.3927
   97SAPC  H20R 9585   5.590   2.374   4.475 -0.7650  0.0031  0.6812
   97SAPC  H20S 9586   5.428   2.388   4.526  0.0283  1.3512  0.2332
   97SAPC  H20T 9587   5.512   2.539   4.469 -1.7686  1.1284 -2.1197
   97SAPC   C33 9588   5.718   2.495   3.063 -0.3181  0.6133  0.3494
   97SAPC   H3X 9589   5.694   2.569   2.983 -0.4534  0.8981  0.6530
   97SAPC   H3Y 9590   5.821   2.458   3.040 -0.5265 -0.4959  1.1333
   97SAPC   C34 9591   5.712   2.561   3.198 -0.3826 -0.1590  0.0750
   97SAPC   H4X 9592   5.687   2.487   3.276  0.1460  0.4767  0.8629
   97SAPC   H4Y 9593   5.620   2.623   3.209 -1.5500 -1.8729  0.2752
   97SAPC   C35 9594   5.844   2.642   3.219  0.4955  0.1483 -0.1553
   97SAPC   H5X 9595   5.845   2.732   3.155 -0.3025  0.5475  0.3771
   97SAPC   H5Y 9596   5.932   2.580   3.191  0.9781  1.8094 -2.5611
   97SAPC   C36 9597   5.848   2.698   3.366  0.5593  0.2710 -0.1800
   97SAPC   H6X 9598   5.747   2.729   3.401  1.3232  0.4036  2.0348
   97SAPC   H6Y 9599   5.916   2.785   3.367  0.7872  0.0960  1.7304
   97SAPC   C37 9600   5.884   2.580   3.466  0.3954  0.4178 -0.2820
   97SAPC   H7X 9601   5.965   2.512   3.433  1.3642  0.8113  1.1611
   97SAPC   H7Y 9602   5.789   2.524   3.472  0.3781  0.5716  1.8201
   97SAPC   C38 9603   5.906   2.640   3.613 -0.5240  0.4700 -0.7960
   97SAPC   H8X 9604   6.001   2.698   3.614  0.9383 -1.6256  2.5833
   97SAPC   H8Y 9605   5.933   2.551   3.674  2.3283  1.0215 -1.1090
   97SAPC   C39 9606   5.798   2.719   3.679 -0.6134 -0.5998 -0.0758
   97SAPC   H9X 9607   5.710   2.655   3.704 -0.3088 -0.6127  1.0228
   97SAPC   H9Y 9608   5.768   2.803   3.613  0.0102 -1.7521 -1.9092
   97SAPC  C310 9609   5.855   2.776   3.813  0.0043  0.1020  0.4322
   97SAPC  H10X 9610   5.792   2.863   3.843  0.9691  0.2881  2.0319
   97SAPC  H10Y 9611   5.957   2.818   3.800  0.1551  0.9112  3.3780
   97SAPC  C311 9612   5.845   2.659   3.909 -0.6136 -1.0042 -0.0472
   97SAPC  H11X 9613   5.910   2.575   3.876 -0.5127 -0.0862 -2.3718
   97SAPC  H11Y 9614   5.742   2.618   3.908 -2.1811  2.5660 -1.0413
   97SAPC  C312 9615   5.894   2.686   4.052  0.1815 -0.1585  0.0555
   97SAPC  H12X 9616   6.002   2.714   4.054  0.2185 -0.3162  0.2509
   97SAPC  H12Y 9617   5.881   2.593   4.111  1.2363 -0.6713 -0.4856
   97SAPC  C313 9618   5.824   2.814   4.109 -0.1881 -0.6801 -0.1560
   97SAPC  H13X 9619   5.713   2.808   4.114 -0.1511 -0.9886  0.3553
   97SAPC  H13Y 9620   5.849   2.895   4.037  2.2765  0.5311  1.9015
   97SAPC  C314 9621   5.874   2.859   4.244  0.0451 -0.4101  0.8300
   97SAPC  H14X 9622   5.821   2.954   4.268  0.4098 -0.1113  0.4810
   97SAPC  H14Y 9623   5.984   2.873   4.237  0.1834 -1.8919 -0.4830
   97SAPC  C315 9624   5.852   2.752   4.351  0.3909 -0.5136  0.0432
   97SAPC  H15X 9625   5.903   2.654   4.342  1.5265  0.1475 -0.8597
   97SAPC  H15Y 9626   5.743   2.729   4.351  0.5835 -1.5117  0.0338
   97SAPC  C316 9627   5.899   2.816   4.487  0.9041  0.1198 -0.8155
   97SAPC  H16X 9628   5.885   2.926   4.487  3.3150  0.4950 -1.7252
   97SAPC  H16Y 9629   6.010   2.805   4.491  1.2376  2.9062 -0.2635
   97SAPC  C317 9630   5.845   2.743   4.611 -0.4565  0.5754  0.7610
   97SAPC  H17X 9631   5.737   2.759   4.633 -0.6285 -1.3198  1.4173
   97SAPC  H17Y 9632   5.907   2.782   4.694  1.9514  2.9771 -1.9390
   97SAPC  C318 9633   5.863   2.590   4.605 -0.0549  0.0628  0.0391
   97SAPC  H18X 9634   5.971   2.573   4.589 -0.0503  1.2706 -1.3918
   97SAPC  H18Y 9635   5.804   2.543   4.524 -2.7994  1.7275  0.9269
   97SAPC  H18Z 9636   5.826   2.534   4.694  0.6239 -2.6555 -1.3000
   98SAPC     N 9637   2.650   2.712   2.128 -0.1619  0.3346 -0.2619
   98SAPC   C12 9638   2.687   2.750   2.266  0.7098 -0.4053 -0.4437
   98SAPC  H12A 9639   2.614   2.825   2.291  1.3716  0.2607 -0.4803
   98SAPC  H12B 9640   2.784   2.798   2.263  1.7500 -2.3528  0.3704
   98SAPC   C13 9641   2.754   2.625   2.063 -0.0978  0.1050  0.3979
   98SAPC  H13A 9642   2.791   2.544   2.125  0.6602  0.4265  0.3689
   98SAPC  H13B 9643   2.715   2.583   1.972 -1.0075 -1.6278  1.5172
   98SAPC  H13C 9644   2.835   2.684   2.025 -1.0259  0.6135 -0.8472
   98SAPC   C14 9645   2.514   2.646   2.126  0.4558  0.4481 -0.7353
   98SAPC  H14A 9646   2.488   2.612   2.027  1.3987 -0.3948 -0.7038
   98SAPC  H14B 9647   2.526   2.556   2.185  0.6810  1.5263  0.9447
   98SAPC  H14C 9648   2.439   2.714   2.165  0.2930 -1.3862  2.4976
   98SAPC   C15 9649   2.641   2.842   2.045 -0.1442  0.3355 -0.8460
   98SAPC  H15A 9650   2.566   2.907   2.089 -0.4601 -1.1886  1.0394
   98SAPC  H15B 9651   2.735   2.894   2.049 -0.5052  0.9307  1.1754
   98SAPC  H15C 9652   2.615   2.818   1.943 -0.7620 -1.8184 -0.2363
   98SAPC   C11 9653   2.699   2.634   2.371  0.4420 -0.1992  0.1735
   98SAPC  H11A 9654   2.752   2.674   2.460 -0.0535 -1.2728  0.9777
   98SAPC  H11B 9655   2.767   2.561   2.324  0.4635 -0.6865  0.9514
   98SAPC     P 9656   2.483   2.623   2.515 -0.0889  0.0716  0.3064
   98SAPC   O13 9657   2.517   2.766   2.549 -0.2050  0.1634  0.0323
   98SAPC   O14 9658   2.340   2.601   2.484  0.0448 -0.3399  1.2845
   98SAPC   O12 9659   2.572   2.571   2.397  0.5619 -0.4038 -0.5893
   98SAPC   O11 9660   2.514   2.534   2.637 -0.6580 -0.9006  0.0878
   98SAPC    C1 9661   2.641   2.471   2.658 -0.2821 -0.0312 -0.3154
   98SAPC    HA 9662   2.655   2.377   2.600 -0.1629 -0.4867  0.4390
   98SAPC    HB 9663   2.725   2.542   2.643  0.0266 -0.3963 -0.3444
   98SAPC    C2 9664   2.656   2.432   2.807 -0.4040  0.1069  0.4648
   98SAPC    HS 9665   2.757   2.388   2.823  0.6171  2.1931  0.2547
   98SAPC   O21 9666   2.542   2.358   2.857 -0.0604  0.0440 -0.4592
   98SAPC   C21 9667   2.516   2.231   2.810 -0.4108  0.0915  0.2527
   98SAPC   O22 9668   2.576   2.171   2.722 -0.2953  0.2820 -0.6727
   98SAPC   C22 9669   2.397   2.170   2.881 -0.1901 -0.0469 -0.0236
   98SAPC   H2R 9670   2.352   2.252   2.939  0.4016  0.8478 -0.7994
   98SAPC   H2S 9671   2.313   2.145   2.813 -1.7873  0.7523  1.5734
   98SAPC    C3 9672   2.672   2.561   2.892  0.0628  0.7125 -0.1145
   98SAPC    HX 9673   2.583   2.625   2.873  0.1352  0.2794 -2.2805
   98SAPC    HY 9674   2.756   2.622   2.851  1.3257 -2.0618 -1.9549
   98SAPC   O31 9675   2.708   2.541   3.032 -0.1710  0.4839  0.5702
   98SAPC   C31 9676   2.595   2.542   3.106  0.2956  0.5944 -0.7373
   98SAPC   O32 9677   2.477   2.553   3.070  0.2098  0.3194  0.5821
   98SAPC   C32 9678   2.630   2.510   3.252 -0.4520 -0.2037  0.1079
   98SAPC   H2X 9679   2.538   2.482   3.307  0.8252 -2.1648  1.3896
   98SAPC   H2Y 9680   2.678   2.602   3.291  1.4225 -0.7195 -0.8665
   98SAPC   C23 9681   2.445   2.060   2.982  0.0354  0.0988  0.2996
   98SAPC   H3R 9682   2.522   1.993   2.937 -0.2932 -1.2122  1.6148
   98SAPC   H3S 9683   2.360   1.996   3.013  1.6965 -1.3618  2.0602
   98SAPC   C24 9684   2.503   2.122   3.116 -0.0682  0.5868 -0.5031
   98SAPC   H4R 9685   2.590   2.182   3.083  1.9981 -1.3593  1.1006
   98SAPC   H4S 9686   2.543   2.030   3.164 -1.2427  0.7230  0.8022
   98SAPC   C25 9687   2.403   2.199   3.201 -0.0318  0.3602  0.4611
   98SAPC   H5R 9688   2.404   2.307   3.178 -0.4428  0.4696  0.9532
   98SAPC   C26 9689   2.314   2.149   3.285 -0.1541  0.1426 -0.9096
   98SAPC   H6R 9690   2.241   2.211   3.339 -0.8228 -1.4472  0.0947
   98SAPC   C27 9691   2.301   2.001   3.318  0.3918 -0.3457 -0.3801
   98SAPC   H7R 9692   2.294   1.985   3.427 -2.9183  0.7694 -0.3345
   98SAPC   H7S 9693   2.388   1.939   3.287  1.3300  1.3910 -1.4222
   98SAPC   C28 9694   2.178   1.949   3.245  0.0831 -1.3158  0.0671
   98SAPC   H8R 9695   2.180   1.977   3.139  1.3198  0.9534  0.6226
   98SAPC   C29 9696   2.074   1.873   3.290  0.4396  0.0278  0.5238
   98SAPC   H9R 9697   1.996   1.844   3.219  1.5185 -1.6251 -0.0509
   98SAPC  C210 9698   2.059   1.817   3.433 -0.0926  0.2687  0.3083
   98SAPC  H10R 9699   2.160   1.792   3.471  1.1699  0.4620 -2.6174
   98SAPC  H10S 9700   2.004   1.720   3.442 -0.3204  0.4452  0.8461
   98SAPC  C211 9701   1.993   1.919   3.527  0.0923  0.5823  0.7162
   98SAPC  H11R 9702   1.963   2.014   3.481  1.5975  0.4528 -0.5881
   98SAPC  C212 9703   1.945   1.879   3.649  0.3364  0.5979 -0.3875
   98SAPC  H12R 9704   1.899   1.945   3.723  2.4684  1.2552  0.4259
   98SAPC  C213 9705   1.954   1.742   3.702 -0.7063 -0.0992 -0.2800
   98SAPC  H13R 9706   1.974   1.762   3.809 -4.0881 -0.6758  0.5624
   98SAPC  H13S 9707   2.042   1.682   3.670 -0.5651 -2.0144  3.2105
   98SAPC  C214 9708   1.825   1.670   3.681 -0.3582 -0.5645 -0.4168
   98SAPC  H14R 9709   1.788   1.674   3.577  0.0996 -4.1830 -0.8383
   98SAPC  C215 9710   1.759   1.613   3.777 -0.2458  0.8541  0.1977
   98SAPC  H15R 9711   1.664   1.563   3.751  0.5660  0.1107 -1.4975
   98SAPC  C216 9712   1.811   1.608   3.921 -1.0801 -0.3663  0.3455
   98SAPC  H16R 9713   1.789   1.710   3.957 -1.6708  0.2778 -1.7263
   98SAPC  H16S 9714   1.922   1.600   3.919 -1.0778 -0.5985  1.1118
   98SAPC  C217 9715   1.755   1.496   4.010  0.2130 -0.3212  0.2389
   98SAPC  H17R 9716   1.798   1.401   3.970 -0.9482 -0.5557 -0.5249
   98SAPC  H17S 9717   1.644   1.491   4.002  0.0983 -0.0295  1.4376
   98SAPC  C218 9718   1.802   1.507   4.155 -0.3021 -0.0203  0.0415
   98SAPC  H18R 9719   1.767   1.602   4.200 -2.1709 -0.9062  0.5655
   98SAPC  H18S 9720   1.913   1.508   4.147 -0.1045 -1.0295  1.8955
   98SAPC  C219 9721   1.760   1.388   4.238  0.1371  0.2138  0.1217
   98SAPC  H19R 9722   1.786   1.286   4.203  1.9452 -0.4416  2.9710
   98SAPC  H19S 9723   1.649   1.385   4.242  0.1351 -1.3983 -0.2849
   98SAPC  C220 9724   1.815   1.387   4.389  0.8401  0.4902 -0.1306
   98SAPC  H20R 9725   1.756   1.314   4.448  2.7957 -0.1032  1.2097
   98SAPC  H20S 9726   1.800   1.491   4.427  1.6597  0.7192 -0.4168
   98SAPC  H20T 9727   1.925   1.373   4.394  0.6724 -0.6359  0.9303
   98SAPC   C33 9728   2.735   2.401   3.265  0.0143  0.2728  0.2241
   98SAPC   H3X 9729   2.811   2.431   3.189 -0.2151  1.8083  0.5564
   98SAPC   H3Y 9730   2.683   2.308   3.237  1.6108 -0.1619 -1.5315
   98SAPC   C34 9731   2.799   2.384   3.405  0.3407  0.8914 -0.4957
   98SAPC   H4X 9732   2.874   2.461   3.433  0.2493  0.7557  0.1390
   98SAPC   H4Y 9733   2.841   2.281   3.406  1.4574  1.3280 -1.2938
   98SAPC   C35 9734   2.687   2.394   3.515 -0.4136  0.0281  1.1600
   98SAPC   H5X 9735   2.611   2.320   3.482  1.8883 -1.0038 -2.3125
   98SAPC   H5Y 9736   2.646   2.497   3.523 -1.1962 -0.0730 -0.9743
   98SAPC   C36 9737   2.725   2.347   3.654  0.0912 -1.2975  0.8430
   98SAPC   H6X 9738   2.763   2.243   3.648 -0.5504 -1.4343 -1.8966
   98SAPC   H6Y 9739   2.641   2.357   3.726  0.3904 -1.6440  1.2470
   98SAPC   C37 9740   2.837   2.432   3.716  0.0912 -0.0978  0.0378
   98SAPC   H7X 9741   2.805   2.538   3.708  1.1833  0.1672 -1.2921
   98SAPC   H7Y 9742   2.931   2.423   3.657  0.1051  0.6450 -0.0644
   98SAPC   C38 9743   2.845   2.391   3.871 -0.2857 -0.0301  0.3590
   98SAPC   H8X 9744   2.861   2.281   3.874  1.8921  0.2572  0.6520
   98SAPC   H8Y 9745   2.750   2.413   3.925 -0.8455 -1.6938  0.1138
   98SAPC   C39 9746   2.969   2.457   3.935 -0.5601 -0.1710 -0.0767
   98SAPC   H9X 9747   2.978   2.567   3.925  2.0823  0.1109  3.5208
   98SAPC   H9Y 9748   3.066   2.414   3.901  0.3568  2.9945 -1.8311
   98SAPC  C310 9749   2.974   2.434   4.086 -0.1373  1.0581  0.5899
   98SAPC  H10X 9750   2.955   2.325   4.102 -0.6748  1.0705  0.0937
   98SAPC  H10Y 9751   2.887   2.490   4.127 -2.0158 -0.5164 -1.0449
   98SAPC  C311 9752   3.096   2.496   4.156  0.2750  0.0328 -0.9582
   98SAPC  H11X 9753   3.087   2.607   4.149  0.2218  0.0492 -0.6139
   98SAPC  H11Y 9754   3.193   2.481   4.103  0.5229  0.5905 -0.6637
   98SAPC  C312 9755   3.104   2.463   4.304 -0.7070  0.4508 -0.3297
   98SAPC  H12X 9756   3.160   2.368   4.322 -1.8636 -0.2169 -0.1693
   98SAPC  H12Y 9757   3.001   2.458   4.346 -0.3996  1.4118  0.5716
   98SAPC  C313 9758   3.198   2.576   4.370  0.4594 -0.0903 -0.6940
   98SAPC  H13X 9759   3.207   2.552   4.478 -0.5011  1.1989 -0.3092
   98SAPC  H13Y 9760   3.142   2.671   4.372  1.8306  0.8161  2.6885
   98SAPC  C314 9761   3.343   2.594   4.320  0.8913 -0.0532 -0.4041
   98SAPC  H14X 9762   3.358   2.628   4.215 -2.3009 -1.8786 -1.5583
   98SAPC  H14Y 9763   3.398   2.499   4.336 -0.1222 -0.9321 -1.8927
   98SAPC  C315 9764   3.411   2.705   4.405 -0.5535 -0.8240  1.1571
   98SAPC  H15X 9765   3.404   2.667   4.509 -0.7727  0.4755  1.6358
   98SAPC  H15Y 9766   3.361   2.803   4.389  1.9226  0.1561 -1.4164
   98SAPC  C316 9767   3.571   2.723   4.380 -0.1266  0.0885 -0.7962
   98SAPC  H16X 9768   3.616   2.621   4.372 -1.6247 -0.9189  2.1440
   98SAPC  H16Y 9769   3.624   2.777   4.461  1.1311 -0.4798 -1.2194
   98SAPC  C317 9770   3.601   2.797   4.253 -1.1154 -0.7108  0.7146
   98SAPC  H17X 9771   3.561   2.900   4.246 -1.0772 -0.8146 -3.1609
   98SAPC  H17Y 9772   3.547   2.756   4.165 -2.0213  0.1516  0.8513
   98SAPC  C318 9773   3.751   2.805   4.227 -0.0526 -0.4527 -0.3100
   98SAPC  H18X 9774   3.792   2.873   4.305 -0.6885 -0.5379  0.1006
   98SAPC  H18Y 9775   3.778   2.842   4.126 -1.9599  1.4664 -0.1633
   98SAPC  H18Z 9776   3.800   2.705   4.238  1.8588  0.2300 -2.0231
   99SAPC     N 9777   6.137   6.319   1.959 -0.1699  0.4821 -0.1333
   99SAPC   C12 9778   6.151   6.186   2.029  0.6784  0.4426 -0.5636
   99SAPC  H12A 9779   6.247   6.152   1.993 -0.1481 -0.2853 -2.1805
   99SAPC  H12B 9780   6.089   6.112   1.981  2.1966 -2.0405  1.1067
   99SAPC   C13 9781   6.002   6.388   1.985 -0.5401  0.2953  1.1284
   99SAPC  H13A 9782   5.984   6.392   2.091 -1.1645  3.4303  0.9883
   99SAPC  H13B 9783   6.004   6.488   1.946 -0.3288  0.0239  0.4114
   99SAPC  H13C 9784   5.931   6.335   1.923 -1.6654 -0.9373  3.3380
   99SAPC   C14 9785   6.251   6.414   1.981  0.4404  0.0395 -0.6835
   99SAPC  H14A 9786   6.350   6.373   1.978  0.6766  0.6098 -0.8336
   99SAPC  H14B 9787   6.241   6.496   1.911 -0.0191  0.9305  0.3815
   99SAPC  H14C 9788   6.242   6.449   2.083 -0.5301 -0.4862 -0.5738
   99SAPC   C15 9789   6.141   6.289   1.812  0.5435 -0.0144  0.4006
   99SAPC  H15A 9790   6.047   6.243   1.785  0.4579  0.8699 -0.8675
   99SAPC  H15B 9791   6.146   6.384   1.762 -1.3610  1.7108  3.1730
   99SAPC  H15C 9792   6.221   6.220   1.789 -1.4201 -2.3196  0.1548
   99SAPC   C11 9793   6.143   6.193   2.185 -0.2895  0.5180  0.3591
   99SAPC  H11A 9794   6.212   6.273   2.219  0.8412 -0.2492 -0.0772
   99SAPC  H11B 9795   6.182   6.099   2.230 -0.6398  0.2049  0.0234
   99SAPC     P 9796   5.912   6.092   2.241 -0.0133  0.4745 -0.0078
   99SAPC   O13 9797   5.779   6.130   2.294  0.5961 -0.0619 -0.1279
   99SAPC   O14 9798   5.910   6.008   2.120  0.0427  0.1696  0.0937
   99SAPC   O12 9799   6.009   6.221   2.223  0.3310  0.1259 -0.0638
   99SAPC   O11 9800   5.997   6.018   2.353 -0.5145  0.1547  0.1553
   99SAPC    C1 9801   5.949   5.919   2.447 -0.7404  0.4266  0.9139
   99SAPC    HA 9802   5.856   5.958   2.494 -0.4064  0.6948  1.3618
   99SAPC    HB 9803   5.928   5.830   2.384  3.2788  1.6191 -2.5589
   99SAPC    C2 9804   6.050   5.902   2.562 -0.3817 -0.1294  0.0349
   99SAPC    HS 9805   6.041   5.793   2.583  0.7306 -0.0588  0.9662
   99SAPC   O21 9806   6.006   5.968   2.680 -0.2459  0.2938 -0.2789
   99SAPC   C21 9807   6.021   6.092   2.704  0.3131  0.3610  0.2963
   99SAPC   O22 9808   6.079   6.176   2.636  0.2268 -0.0610 -0.7611
   99SAPC   C22 9809   5.941   6.125   2.832  0.1461  0.0292  0.4291
   99SAPC   H2R 9810   5.993   6.217   2.866  1.0622  0.5124 -2.0756
   99SAPC   H2S 9811   5.834   6.139   2.808  0.6683 -0.8713 -2.9411
   99SAPC    C3 9812   6.198   5.934   2.517  0.1218 -0.8265  0.1124
   99SAPC    HX 9813   6.187   6.033   2.468  3.0145  0.5828  2.0517
   99SAPC    HY 9814   6.226   5.858   2.441 -1.9258 -1.1039 -0.4244
   99SAPC   O31 9815   6.292   5.924   2.628  0.0906 -0.7628 -0.5240
   99SAPC   C31 9816   6.295   5.806   2.684 -0.6832 -0.0968  0.1922
   99SAPC   O32 9817   6.248   5.706   2.635 -0.3784 -0.2644 -0.2424
   99SAPC   C32 9818   6.374   5.820   2.818  0.6523 -0.0210 -0.3046
   99SAPC   H2X 9819   6.386   5.927   2.843  2.2646 -0.9615  3.6178
   99SAPC   H2Y 9820   6.478   5.784   2.802  1.2407  1.0522  0.9663
   99SAPC   C23 9821   5.942   6.010   2.940  0.3167  0.3187 -0.0128
   99SAPC   H3R 9822   6.041   5.960   2.954  0.6729  0.8008 -0.7345
   99SAPC   H3S 9823   5.876   5.928   2.905 -0.4994  1.2818 -0.7763
   99SAPC   C24 9824   5.901   6.056   3.082 -0.1483  0.5247 -0.7569
   99SAPC   H4R 9825   5.890   5.969   3.150  1.7542  1.4766  0.9125
   99SAPC   H4S 9826   5.801   6.102   3.068 -2.0761 -3.5051 -1.6553
   99SAPC   C25 9827   6.005   6.147   3.139  0.0492  0.1099  0.8138
   99SAPC   H5R 9828   6.015   6.246   3.093  0.8614 -0.0553  0.6318
   99SAPC   C26 9829   6.083   6.110   3.238 -0.2604  0.3630 -0.0357
   99SAPC   H6R 9830   6.156   6.184   3.275  0.3270 -0.1017 -0.2505
   99SAPC   C27 9831   6.068   5.979   3.315  0.1229  0.6171  0.7495
   99SAPC   H7R 9832   6.161   5.970   3.376  0.1985 -0.6754  0.4571
   99SAPC   H7S 9833   6.058   5.889   3.251  0.2767  2.2954 -1.7788
   99SAPC   C28 9834   5.949   5.989   3.415 -0.4350 -0.1812  0.3317
   99SAPC   H8R 9835   5.854   6.027   3.373 -0.4219  0.1942  0.6339
   99SAPC   C29 9836   5.948   5.942   3.539 -0.4584 -0.1028 -0.0329
   99SAPC   H9R 9837   5.864   5.966   3.605 -1.6517  0.0041 -1.5353
   99SAPC  C210 9838   6.062   5.879   3.616 -0.4897 -0.2629  0.6800
   99SAPC  H10R 9839   6.157   5.934   3.595  0.9342 -1.7135  2.9510
   99SAPC  H10S 9840   6.079   5.776   3.578  1.1805  0.5840 -1.0515
   99SAPC  C211 9841   6.033   5.867   3.766 -0.3432  0.0664 -0.0505
   99SAPC  H11R 9842   5.954   5.795   3.795 -0.8296  1.2350  1.6861
   99SAPC  C212 9843   6.109   5.910   3.874 -0.5785 -0.1540 -0.2004
   99SAPC  H12R 9844   6.087   5.866   3.973 -0.2013  0.5885  0.2188
   99SAPC  C213 9845   6.234   6.002   3.862  0.6345  0.6441  0.3932
   99SAPC  H13R 9846   6.195   6.102   3.837 -0.1502  0.4467  0.7841
   99SAPC  H13S 9847   6.285   5.980   3.766 -0.8375 -2.0208  0.1286
   99SAPC  C214 9848   6.317   6.005   3.988  0.2992 -0.3148  0.3330
   99SAPC  H14R 9849   6.380   5.915   3.992 -0.0346 -0.5168  2.3543
   99SAPC  C215 9850   6.315   6.098   4.086 -0.3008 -0.0709  0.3331
   99SAPC  H15R 9851   6.375   6.087   4.178 -0.1613 -1.0563  0.1287
   99SAPC  C216 9852   6.230   6.219   4.110  0.2681  0.0617  0.0259
   99SAPC  H16R 9853   6.185   6.260   4.017  2.2444 -0.2661 -1.1404
   99SAPC  H16S 9854   6.300   6.295   4.150  0.9636  0.0699 -1.1308
   99SAPC  C217 9855   6.115   6.183   4.210 -0.2409  0.1036 -0.3052
   99SAPC  H17R 9856   6.055   6.276   4.212 -1.3554 -0.4463 -3.0606
   99SAPC  H17S 9857   6.154   6.167   4.313 -2.4141 -0.7106  0.4576
   99SAPC  C218 9858   6.041   6.070   4.152  0.8347 -0.4898  0.5498
   99SAPC  H18R 9859   6.097   5.976   4.170 -0.4323 -1.6759 -1.3411
   99SAPC  H18S 9860   6.021   6.079   4.043  0.9903  0.3892  0.5821
   99SAPC  C219 9861   5.896   6.056   4.207 -0.4469 -0.1975 -0.6846
   99SAPC  H19R 9862   5.849   5.976   4.146 -0.9812 -1.2041  0.9822
   99SAPC  H19S 9863   5.845   6.152   4.184 -0.1445  0.1958  0.2349
   99SAPC  C220 9864   5.875   6.027   4.362 -0.1243 -0.0917 -0.0794
   99SAPC  H20R 9865   5.947   5.948   4.394 -0.6695 -0.2439  0.8167
   99SAPC  H20S 9866   5.772   5.988   4.379  0.1830 -1.8197 -1.8274
   99SAPC  H20T 9867   5.900   6.123   4.411  1.2117 -0.6591  0.4084
   99SAPC   C33 9868   6.303   5.749   2.944 -1.0213 -0.3317 -0.0611
   99SAPC   H3X 9869   6.278   5.643   2.921 -2.4670  0.1369 -0.7873
   99SAPC   H3Y 9870   6.202   5.789   2.965 -0.6627  1.1239 -0.9414
   99SAPC   C34 9871   6.395   5.766   3.067  0.1419  0.3928 -0.1329
   99SAPC   H4X 9872   6.425   5.873   3.075  2.1886 -0.2520  2.3744
   99SAPC   H4Y 9873   6.488   5.705   3.072 -0.0726  0.1088  0.6564
   99SAPC   C35 9874   6.326   5.737   3.201 -0.0937  0.4509 -0.0907
   99SAPC   H5X 9875   6.285   5.634   3.200  0.9342  0.0180  0.5322
   99SAPC   H5Y 9876   6.234   5.799   3.202 -0.3263  0.1341 -1.0512
   99SAPC   C36 9877   6.411   5.759   3.326  0.0876  0.4142 -0.1954
   99SAPC   H6X 9878   6.417   5.868   3.344  0.8035  0.3632 -0.0843
   99SAPC   H6Y 9879   6.514   5.716   3.324 -0.0139  0.1279  0.3181
   99SAPC   C37 9880   6.347   5.712   3.459 -0.4821 -0.4121  0.6674
   99SAPC   H7X 9881   6.319   5.605   3.453 -1.1037 -0.3670  2.2628
   99SAPC   H7Y 9882   6.256   5.771   3.477  0.4516  2.0736 -2.0260
   99SAPC   C38 9883   6.446   5.732   3.573  0.5784  0.4701 -0.0235
   99SAPC   H8X 9884   6.480   5.837   3.585  1.3554  0.1994  0.2233
   99SAPC   H8Y 9885   6.541   5.682   3.543  0.2223  0.8295 -1.8422
   99SAPC   C39 9886   6.395   5.687   3.716 -0.1197 -0.6322 -0.1146
   99SAPC   H9X 9887   6.352   5.585   3.713  0.9535 -1.0910 -3.2618
   99SAPC   H9Y 9888   6.309   5.751   3.747 -0.2727 -0.5688 -0.6614
   99SAPC  C310 9889   6.506   5.696   3.827  0.5156  0.0635  0.3519
   99SAPC  H10X 9890   6.526   5.805   3.842 -3.6905  0.8787  1.3493
   99SAPC  H10Y 9891   6.590   5.627   3.804  1.2305  0.4178  1.8121
   99SAPC  C311 9892   6.465   5.656   3.966  0.0973 -0.1625  0.6508
   99SAPC  H11X 9893   6.479   5.546   3.970  0.6456 -0.0916  0.6772
   99SAPC  H11Y 9894   6.359   5.687   3.983 -0.0388  0.5557 -1.2852
   99SAPC  C312 9895   6.555   5.729   4.063  0.2342 -0.0357  0.1900
   99SAPC  H12X 9896   6.541   5.838   4.074  0.6266 -0.2000  3.1149
   99SAPC  H12Y 9897   6.664   5.717   4.045  0.1556 -2.4197  0.8835
   99SAPC  C313 9898   6.522   5.673   4.206  0.7131  0.8894  0.0056
   99SAPC  H13X 9899   6.557   5.568   4.211 -1.8408  0.0095  1.2503
   99SAPC  H13Y 9900   6.414   5.670   4.232  0.6875  0.4547 -0.1526
   99SAPC  C314 9901   6.571   5.762   4.323 -0.4729 -0.5483  0.4628
   99SAPC  H14X 9902   6.530   5.864   4.310  2.8595  1.5026  4.1879
   99SAPC  H14Y 9903   6.678   5.788   4.311 -1.1085  1.6458 -1.1788
   99SAPC  C315 9904   6.539   5.708   4.461 -0.0290 -0.1717  0.4364
   99SAPC  H15X 9905   6.576   5.604   4.479 -0.4215 -0.3399  0.2909
   99SAPC  H15Y 9906   6.428   5.704   4.471 -0.2249 -1.8317 -1.7589
   99SAPC  C316 9907   6.603   5.788   4.572  0.0402 -0.2865  0.5104
   99SAPC  H16X 9908   6.564   5.893   4.574  0.6763 -0.0279 -0.4116
   99SAPC  H16Y 9909   6.712   5.795   4.551 -0.1236  2.8688  0.1383
   99SAPC  C317 9910   6.587   5.719   4.704 -0.7449 -0.2860  0.4075
   99SAPC  H17X 9911   6.623   5.614   4.701 -0.1257 -0.0640 -0.2866
   99SAPC  H17Y 9912   6.479   5.716   4.731 -0.3633  0.6985  2.1750
   99SAPC  C318 9913   6.640   5.804   4.819 -0.4037 -0.6652 -0.1815
   99SAPC  H18X 9914   6.588   5.774   4.912 -0.1734  0.4701  0.3369
   99SAPC  H18Y 9915   6.634   5.912   4.795 -1.4501 -1.0900 -1.9750
   99SAPC  H18Z 9916   6.747   5.778   4.835 -0.2104  0.9995  1.7297
  100SAPC     N 9917   4.725   4.872   2.137  0.5018 -0.0533  0.4125
  100SAPC   C12 9918   4.672   4.741   2.180 -0.0110 -0.4325 -0.3981
  100SAPC  H12A 9919   4.589   4.747   2.248  0.5220 -0.9758  0.3194
  100SAPC  H12B 9920   4.746   4.700   2.248  0.2541  0.6594 -0.0149
  100SAPC   C13 9921   4.746   4.960   2.264  0.4181  0.2550 -0.5252
  100SAPC  H13A 9922   4.657   4.973   2.323  1.3247  0.0798  0.9390
  100SAPC  H13B 9923   4.803   4.898   2.330 -3.0924 -1.5002  1.1076
  100SAPC  H13C 9924   4.789   5.057   2.241 -0.4286  0.2485 -2.3186
  100SAPC   C14 9925   4.848   4.854   2.060  0.9921 -0.4631 -0.0491
  100SAPC  H14A 9926   4.908   4.943   2.056  1.1149 -0.4999  0.8847
  100SAPC  H14B 9927   4.918   4.784   2.104  0.2035  0.0824  2.1669
  100SAPC  H14C 9928   4.833   4.828   1.956 -1.6287 -0.6852  0.2968
  100SAPC   C15 9929   4.629   4.945   2.047 -0.3730 -0.4142 -0.3589
  100SAPC  H15A 9930   4.597   4.880   1.967 -2.8777 -0.9433  0.9701
  100SAPC  H15B 9931   4.533   4.955   2.095  0.2284 -0.7054  0.9724
  100SAPC  H15C 9932   4.672   5.036   2.009  0.9525 -1.8468 -2.5027
  100SAPC   C11 9933   4.634   4.636   2.066 -0.8242 -0.0457  0.0431
  100SAPC  H11A 9934   4.639   4.531   2.103 -0.8366 -0.3454 -0.7787
  100SAPC  H11B 9935   4.702   4.650   1.979 -0.9099 -1.4339 -0.2681
  100SAPC     P 9936   4.378   4.659   2.112 -0.2186 -0.1056 -0.2502
  100SAPC   O13 9937   4.364   4.791   2.181 -0.0061 -0.5216 -0.3562
  100SAPC   O14 9938   4.253   4.616   2.049 -0.1922 -0.2135  0.1965
  100SAPC   O12 9939   4.503   4.656   2.013 -0.1865  0.6728  0.1734
  100SAPC   O11 9940   4.412   4.551   2.214 -0.0624  0.1487 -0.2159
  100SAPC    C1 9941   4.333   4.535   2.335  0.0611 -0.5298 -0.1565
  100SAPC    HA 9942   4.246   4.604   2.348  2.4253  2.8029 -0.7142
  100SAPC    HB 9943   4.287   4.434   2.337  0.5539 -0.7523  1.2411
  100SAPC    C2 9944   4.421   4.535   2.461  0.5503  0.3423  0.1142
  100SAPC    HS 9945   4.363   4.491   2.544  2.1943 -0.4986  0.8701
  100SAPC   O21 9946   4.474   4.669   2.484  0.0219  0.4458  0.1427
  100SAPC   C21 9947   4.385   4.744   2.549 -0.3983 -0.2656 -0.4875
  100SAPC   O22 9948   4.278   4.708   2.584  0.2850 -0.2507 -0.2525
  100SAPC   C22 9949   4.454   4.877   2.590  0.6318  0.7973  0.0437
  100SAPC   H2R 9950   4.550   4.859   2.643  2.1366  1.7527 -2.1993
  100SAPC   H2S 9951   4.479   4.920   2.491 -0.2212  0.4706 -0.3275
  100SAPC    C3 9952   4.539   4.434   2.443  0.1837  1.5036  0.6687
  100SAPC    HX 9953   4.591   4.455   2.347  0.5154 -1.1036  0.2002
  100SAPC    HY 9954   4.486   4.339   2.421  2.0727  0.4720  0.4267
  100SAPC   O31 9955   4.629   4.424   2.552 -0.1564 -0.4122 -0.1477
  100SAPC   C31 9956   4.744   4.490   2.539  0.1995 -0.4216  0.9779
  100SAPC   O32 9957   4.769   4.581   2.461  0.5719  0.2331 -0.4327
  100SAPC   C32 9958   4.849   4.410   2.620 -0.6413  0.2255  0.9737
  100SAPC   H2X 9959   4.932   4.377   2.554 -3.0312 -1.7122 -1.3163
  100SAPC   H2Y 9960   4.803   4.317   2.662 -0.3866 -0.6051 -0.4938
  100SAPC   C23 9961   4.357   4.968   2.671 -0.3633 -0.2279  0.3149
  100SAPC   H3R 9962   4.263   4.967   2.611  0.1209  1.6055 -0.5126
  100SAPC   H3S 9963   4.385   5.075   2.664 -1.7321  0.0650 -1.1691
  100SAPC   C24 9964   4.321   4.914   2.812  0.0602 -0.1876 -0.5090
  100SAPC   H4R 9965   4.258   4.824   2.796  1.3982 -1.3839  0.6604
  100SAPC   H4S 9966   4.265   4.999   2.859  1.9767  2.0157 -2.0195
  100SAPC   C25 9967   4.449   4.904   2.892  0.3717 -0.0182 -0.1652
  100SAPC   H5R 9968   4.507   4.996   2.881  2.2259 -0.7872  2.1791
  100SAPC   C26 9969   4.494   4.802   2.964 -0.1108  0.5511  0.0870
  100SAPC   H6R 9970   4.578   4.806   3.035 -0.3678  1.9087  0.3309
  100SAPC   C27 9971   4.418   4.671   2.977  0.0888 -0.3791  0.2818
  100SAPC   H7R 9972   4.407   4.643   2.870 -1.4536  0.3015  0.2344
  100SAPC   H7S 9973   4.322   4.693   3.028  1.1749 -0.0966  2.2811
  100SAPC   C28 9974   4.484   4.555   3.042 -0.0180 -0.1028  0.3152
  100SAPC   H8R 9975   4.546   4.482   2.988  0.9858 -1.2324  2.8620
  100SAPC   C29 9976   4.470   4.522   3.173  0.8392 -0.1117  0.3820
  100SAPC   H9R 9977   4.522   4.435   3.214  0.4648 -0.3555  0.3485
  100SAPC  C210 9978   4.384   4.590   3.273 -0.3509 -0.5222  0.0988
  100SAPC  H10R 9979   4.357   4.693   3.241  1.1303 -0.6951 -1.8557
  100SAPC  H10S 9980   4.446   4.604   3.364 -1.2222  2.2247  0.3502
  100SAPC  C211 9981   4.253   4.518   3.310 -0.2076  0.7202 -0.0179
  100SAPC  H11R 9982   4.212   4.475   3.217 -0.9172  1.4563 -0.0610
  100SAPC  C212 9983   4.193   4.513   3.433  0.3256  0.0278  0.4871
  100SAPC  H12R 9984   4.099   4.457   3.440  0.0292  0.4348 -0.1216
  100SAPC  C213 9985   4.241   4.588   3.557 -0.9719  0.5845  0.7308
  100SAPC  H13R 9986   4.155   4.642   3.601  0.9406  2.7046  2.1256
  100SAPC  H13S 9987   4.316   4.667   3.534  0.6362 -0.3702  2.4274
  100SAPC  C214 9988   4.306   4.495   3.652  0.5062 -0.4378 -0.4869
  100SAPC  H14R 9989   4.416   4.490   3.655  0.5016  0.0469  1.8118
  100SAPC  C215 9990   4.256   4.396   3.726  0.2018 -0.0064 -0.0411
  100SAPC  H15R 9991   4.326   4.330   3.779  0.3567 -0.8855 -1.2860
  100SAPC  C216 9992   4.113   4.365   3.742  0.2009 -0.6566 -0.2872
  100SAPC  H16R 9993   4.090   4.260   3.771  2.3279 -0.4947  2.3149
  100SAPC  H16S 9994   4.052   4.381   3.650  0.4190 -2.1247 -0.7148
  100SAPC  C217 9995   4.045   4.437   3.866  0.3334 -0.4216 -0.2763
  100SAPC  H17R 9996   3.939   4.407   3.875 -0.2699  1.6726  0.0954
  100SAPC  H17S 9997   4.043   4.548   3.866 -3.1989 -0.3734  0.7616
  100SAPC  C218 9998   4.115   4.402   4.002  0.0177  0.4258 -0.2579
  100SAPC  H18R 9999   4.214   4.452   4.004  0.5529 -0.6480  0.4876
  100SAPC  H18S10000   4.114   4.292   4.011  1.9369  0.4125  0.0038
  100SAPC  C21910001   4.041   4.459   4.123 -0.8661 -0.1738  0.4246
  100SAPC  H19R10002   3.941   4.412   4.118 -1.1466  0.4065  0.4862
  100SAPC  H19S10003   4.037   4.570   4.121 -0.0149 -0.1379 -1.7006
  100SAPC  C22010004   4.098   4.415   4.254 -0.7963  0.4504 -0.0877
  100SAPC  H20R10005   4.080   4.311   4.288  4.2582  0.1241  2.4404
  100SAPC  H20S10006   4.063   4.481   4.336 -0.7179 -0.4968  0.7264
  100SAPC  H20T10007   4.208   4.430   4.251 -0.7736  0.4533  0.5094
  100SAPC   C3310008   4.915   4.484   2.731  0.5954  0.4429 -0.2360
  100SAPC   H3X10009   4.983   4.567   2.703  0.6593  0.7449  0.7564
  100SAPC   H3Y10010   4.977   4.411   2.788  0.3062 -0.4305 -1.0181
  100SAPC   C3410011   4.816   4.530   2.845 -0.1158  0.6309  0.3245
  100SAPC   H4X10012   4.758   4.440   2.876  0.8837 -0.1063  0.1240
  100SAPC   H4Y10013   4.740   4.604   2.813 -1.2784 -0.4449  0.5307
  100SAPC   C3510014   4.885   4.586   2.966 -0.0432  0.0057 -0.1674
  100SAPC   H5X10015   4.939   4.679   2.938  0.2109  0.6060  2.0994
  100SAPC   H5Y10016   4.979   4.525   2.970 -0.4896 -0.6416  1.7795
  100SAPC   C3610017   4.824   4.589   3.106  0.5631 -0.6314 -0.5541
  100SAPC   H6X10018   4.791   4.486   3.130 -0.3515 -0.0993  0.5228
  100SAPC   H6Y10019   4.729   4.646   3.096  0.7206 -0.2424  0.1145
  100SAPC   C3710020   4.915   4.658   3.212  0.6011  0.0459  0.7169
  100SAPC   H7X10021   4.921   4.763   3.178  1.7293 -0.2731 -0.1159
  100SAPC   H7Y10022   5.019   4.619   3.220  1.2681  1.9901  2.8253
  100SAPC   C3810023   4.845   4.670   3.352 -0.3866 -0.0151 -0.0814
  100SAPC   H8X10024   4.762   4.744   3.343 -0.6229 -0.4813 -2.4266
  100SAPC   H8Y10025   4.911   4.717   3.428 -0.0142  1.4935 -1.2833
  100SAPC   C3910026   4.795   4.536   3.408 -0.1036  0.3543  1.5867
  100SAPC   H9X10027   4.869   4.454   3.399 -0.4548  0.1197  0.6441
  100SAPC   H9Y10028   4.710   4.516   3.339  0.7353  2.6122 -0.2486
  100SAPC  C31010029   4.732   4.540   3.552 -0.1917  0.0346  0.1283
  100SAPC  H10X10030   4.647   4.611   3.542 -0.9929 -0.7327  1.2904
  100SAPC  H10Y10031   4.815   4.576   3.616 -0.0765  0.2433 -0.1360
  100SAPC  C31110032   4.657   4.428   3.625 -0.6271 -0.5618  0.3602
  100SAPC  H11X10033   4.579   4.386   3.558  0.4514 -0.7914 -0.8055
  100SAPC  H11Y10034   4.620   4.482   3.714  2.8232  1.5654  0.7041
  100SAPC  C31210035   4.748   4.318   3.677 -0.2373 -0.3543 -0.7686
  100SAPC  H12X10036   4.835   4.369   3.725 -0.3038 -0.0712 -0.9490
  100SAPC  H12Y10037   4.777   4.248   3.596  0.8169 -0.1618 -0.5763
  100SAPC  C31310038   4.696   4.238   3.795  0.6897 -0.6951  0.6446
  100SAPC  H13X10039   4.596   4.204   3.761  0.8473  0.6903 -1.3096
  100SAPC  H13Y10040   4.693   4.308   3.881  2.9240  0.5853 -0.2493
  100SAPC  C31410041   4.785   4.119   3.823  0.1871 -0.4296 -0.1133
  100SAPC  H14X10042   4.880   4.156   3.867  0.4384 -0.4458 -0.6452
  100SAPC  H14Y10043   4.814   4.052   3.739  2.7965 -0.6192  0.8355
  100SAPC  C31510044   4.728   4.029   3.927 -0.0998  0.0086 -0.5006
  100SAPC  H15X10045   4.645   3.971   3.882 -1.2129  0.7372  0.5755
  100SAPC  H15Y10046   4.688   4.086   4.012  2.0394  2.0538 -0.7659
  100SAPC  C31610047   4.830   3.926   3.988  0.0825 -0.8994 -0.0990
  100SAPC  H16X10048   4.919   3.985   4.019  0.5451 -1.5717 -0.1189
  100SAPC  H16Y10049   4.864   3.848   3.916  0.0223 -1.7457  0.7765
  100SAPC  C31710050   4.777   3.850   4.107  0.3596  0.0069 -0.2652
  100SAPC  H17X10051   4.856   3.774   4.121 -1.6720 -1.7106  3.4139
  100SAPC  H17Y10052   4.685   3.793   4.083  1.6022 -2.1337 -0.1441
  100SAPC  C31810053   4.762   3.929   4.230 -0.7657  0.2391  0.3360
  100SAPC  H18X10054   4.762   3.858   4.315  2.4062 -0.1810  0.0785
  100SAPC  H18Y10055   4.661   3.976   4.230 -2.0426 -2.3126  0.9912
  100SAPC  H18Z10056   4.839   4.004   4.257 -0.5870  0.7508 -1.4141
  101OSM      N10057   5.014   3.247   6.887 -0.2646 -0.7833  0.2721
  101OSM    C1510058   4.943   3.129   6.843  0.2822 -0.3445  0.4046
  101OSM   H15A10059   5.000   3.042   6.812  1.4991  0.3224  0.6739
  101OSM   H15B10060   4.894   3.153   6.750 -1.3164 -0.6182  1.1515
  101OSM   H15C10061   4.864   3.114   6.914  0.1785 -2.2823 -0.0494
  101OSM    C1410062   4.913   3.351   6.933 -0.7890 -0.1193  0.3403
  101OSM   H14A10063   4.840   3.372   6.856 -0.6270 -1.1342 -0.1065
  101OSM   H14B10064   4.965   3.439   6.967  2.3825 -2.0476  0.9090
  101OSM   H14C10065   4.858   3.319   7.020 -0.1312 -0.9989  0.4550
  101OSM    C1310066   5.094   3.213   7.009 -0.2066  0.4974  0.7883
  101OSM   H13A10067   5.032   3.194   7.096 -1.5716  1.4747  0.0727
  101OSM   H13B10068   5.176   3.281   7.021 -0.3841  0.6310  1.2766
  101OSM   H13C10069   5.142   3.119   6.985  0.3134  1.4381 -2.2662
  101OSM    C1210070   5.103   3.302   6.775  0.1057 -0.3695 -0.0611
  101OSM   H12A10071   5.128   3.404   6.801  1.5854 -1.0208  1.2424
  101OSM   H12B10072   5.040   3.319   6.689 -0.3460  0.0698  0.3480
  101OSM    C1110073   5.232   3.231   6.733  0.3430  0.1673  0.0785
  101OSM   H11A10074   5.271   3.296   6.652  0.8520 -0.9507 -0.6062
  101OSM   H11B10075   5.210   3.131   6.689 -0.4118 -0.6812  2.2245
  101OSM      P10076   5.436   3.319   6.882 -0.0468  0.1117 -0.0189
  101OSM    O1310077   5.364   3.427   6.950 -0.4478  0.0499 -0.5116
  101OSM    O1410078   5.539   3.244   6.958  0.2080 -0.1909 -0.2152
  101OSM    O1110079   5.492   3.377   6.752 -0.3808 -0.4464 -0.2571
  101OSM    O1210080   5.330   3.213   6.835 -0.1490  0.3935  0.3099
  101OSM    C1S10081   5.625   3.369   6.692 -0.1607 -0.4755 -0.5457
  101OSM    H1S10082   5.656   3.263   6.702 -1.7190 -1.0874 -1.7894
  101OSM    H1T10083   5.694   3.440   6.743  0.7078 -1.3941 -0.4246
  101OSM     NF10084   5.746   3.392   6.472 -0.0710  0.1101  0.6721
  101OSM    HNF10085   5.805   3.473   6.469 -0.5632  0.4752  0.8021
  101OSM    C2S10086   5.618   3.413   6.546  0.3571 -0.4888 -0.0120
  101OSM    H2S10087   5.548   3.341   6.498 -0.3019 -0.1064  0.3541
  101OSM    C3S10088   5.550   3.554   6.535  0.5292 -0.6472  0.4805
  101OSM    H3S10089   5.615   3.631   6.581  0.0786  0.8611 -1.2869
  101OSM     O310090   5.419   3.567   6.596  0.0964 -0.0573 -0.5176
  101OSM    HO310091   5.417   3.486   6.648 -2.5842 -0.6627 -1.3933
  101OSM    C4S10092   5.532   3.590   6.390  0.5616 -0.2250  0.0039
  101OSM    H4S10093   5.453   3.523   6.354 -0.4440 -0.2252  2.0596
  101OSM    C5S10094   5.582   3.683   6.301 -0.2529 -0.0710 -0.6276
  101OSM    H5S10095   5.661   3.748   6.343 -0.0620 -0.4665 -0.3641
  101OSM    C6S10096   5.547   3.708   6.156  0.6172 -1.2008  0.3202
  101OSM    H6S10097   5.492   3.804   6.148 -2.5732 -2.8283  0.9079
  101OSM    H6T10098   5.474   3.628   6.130 -1.6309  0.9518 -0.4042
  101OSM    C7S10099   5.654   3.701   6.054 -0.2533 -0.0638  0.4562
  101OSM    H7S10100   5.705   3.603   6.051 -2.5175 -1.2963 -1.3929
  101OSM    H7T10101   5.725   3.785   6.074  0.0124  0.4698 -2.2905
  101OSM    C8S10102   5.592   3.730   5.916  0.2185  0.0374 -0.0865
  101OSM    H8S10103   5.538   3.828   5.914 -1.7332 -0.9895 -0.6254
  101OSM    H8T10104   5.516   3.652   5.893 -1.0557  0.9886  0.7264
  101OSM    C9S10105   5.707   3.725   5.814 -0.0042 -0.0296  0.5130
  101OSM    H9S10106   5.745   3.621   5.818 -2.2882 -1.0318 -1.4473
  101OSM    H9T10107   5.784   3.797   5.849  1.8941 -2.6632  2.1588
  101OSM   C10S10108   5.656   3.742   5.669  0.8810  1.1326 -0.2610
  101OSM   H10S10109   5.629   3.850   5.660 -1.1645  0.5536 -1.6049
  101OSM   H10T10110   5.564   3.682   5.679  1.3611  0.8075  5.2022
  101OSM   C11S10111   5.753   3.692   5.563 -0.2475 -0.3542  0.5879
  101OSM   H11S10112   5.778   3.591   5.601 -0.7471 -0.4367  0.7158
  101OSM   H11T10113   5.841   3.760   5.571 -1.3545  1.1196  0.7842
  101OSM   C12S10114   5.711   3.707   5.417 -0.1543 -0.8484 -0.6853
  101OSM   H12S10115   5.657   3.802   5.397  0.9040 -0.3352 -1.1702
  101OSM   H12T10116   5.647   3.618   5.397 -1.0890  0.0795 -1.9654
  101OSM   C13S10117   5.821   3.705   5.312  0.0137 -0.4704  0.1587
  101OSM   H13S10118   5.900   3.635   5.347  0.6144  1.2380  2.4296
  101OSM   H13T10119   5.862   3.809   5.310 -2.1989  0.4616  0.5147
  101OSM   C14S10120   5.765   3.662   5.175  0.2593  0.0647  0.4506
  101OSM   H14S10121   5.686   3.734   5.146  0.6731 -0.1160 -1.2945
  101OSM   H14T10122   5.719   3.563   5.191 -1.2877  0.4062 -1.4372
  101OSM   C15S10123   5.874   3.660   5.067  0.2380 -0.0834 -0.5152
  101OSM   H15S10124   5.966   3.607   5.100  0.5654  0.8033  0.0387
  101OSM   H15T10125   5.912   3.763   5.052  0.2477  0.1490  1.0029
  101OSM   C16S10126   5.831   3.590   4.935  0.3298 -0.0859 -0.9627
  101OSM   H16S10127   5.738   3.640   4.900  0.2384  0.8140  0.4753
  101OSM   H16T10128   5.791   3.491   4.966 -2.8440  1.2309 -0.4456
  101OSM   C17S10129   5.947   3.575   4.838  0.3876 -0.1184  0.7170
  101OSM   H17S10130   6.015   3.498   4.881  0.7510  0.0241  0.4073
  101OSM   H17T10131   6.001   3.670   4.820  0.2296 -0.5873 -2.8857
  101OSM   C18S10132   5.891   3.529   4.697  0.6669 -0.0805 -0.2827
  101OSM   H18S10133   5.824   3.602   4.647 -0.9136 -2.8690 -2.5127
  101OSM   H18T10134   5.843   3.429   4.709  1.1258 -0.1720  0.9930
  101OSM   H18U10135   5.980   3.524   4.631  1.2589  0.3190  0.4679
  101OSM    C1F10136   5.793   3.276   6.477  0.0671 -0.4137 -0.0844
  101OSM     OF10137   5.725   3.180   6.438  0.2213  0.2460 -0.1585
  101OSM    C2F10138   5.931   3.261   6.528 -0.4447  0.4658 -0.0577
  101OSM    H2F10139   5.938   3.224   6.633 -0.5295 -1.8029 -0.7920
  101OSM    H2G10140   5.975   3.362   6.542 -1.2396  0.9628 -1.0338
  101OSM    C3F10141   6.031   3.180   6.448  0.5425 -0.0351  0.1070
  101OSM    H3F10142   6.001   3.074   6.456 -2.0370  0.5039 -1.3019
  101OSM    H3G10143   6.120   3.184   6.514  0.1385 -2.3248  0.8499
  101OSM    C4F10144   6.061   3.230   6.308 -0.0481 -0.1464  0.2526
  101OSM    H4F10145   5.986   3.202   6.230  0.3333 -0.0778 -0.1448
  101OSM    H4G10146   6.156   3.191   6.265 -1.1248 -1.2056 -1.2565
  101OSM    C5F10147   6.082   3.383   6.288 -0.3947  0.4334 -0.4231
  101OSM    H5F10148   6.165   3.422   6.351  0.4596  2.4630 -2.6274
  101OSM    H5G10149   5.993   3.428   6.336  1.3794  2.0051  1.5737
  101OSM    C6F10150   6.100   3.429   6.142 -0.0724  0.0066  0.5611
  101OSM    H6F10151   6.005   3.419   6.086  0.2872  2.0307 -0.5378
  101OSM    H6G10152   6.179   3.369   6.092  0.8450  2.1159 -0.7024
  101OSM    C7F10153   6.138   3.579   6.125 -0.0235 -0.1068 -0.6093
  101OSM    H7F10154   6.231   3.603   6.181 -0.0175 -0.5800 -0.4148
  101OSM    H7G10155   6.055   3.639   6.169 -0.5615 -0.9896 -0.3908
  101OSM    C8F10156   6.173   3.607   5.982 -0.1611  0.0794  0.0858
  101OSM    H8F10157   6.243   3.530   5.945  0.3222  1.6636 -2.4890
  101OSM    H8G10158   6.222   3.706   5.967  0.5291 -0.2282  0.2651
  101OSM    C9F10159   6.057   3.621   5.884  0.5437  0.1354 -0.0563
  101OSM    H9F10160   5.965   3.661   5.931 -0.2224  1.9394 -2.8302
  101OSM   C10F10161   6.053   3.575   5.755 -0.2947  0.1314 -0.0891
  101OSM   H10F10162   5.950   3.579   5.715 -0.8144 -1.6523  0.9922
  101OSM   C11F10163   6.171   3.534   5.670 -0.5493  0.6609  0.0628
  101OSM   H11F10164   6.175   3.426   5.647  0.1553  0.8895 -0.9269
  101OSM   H11G10165   6.265   3.562   5.723  2.0099 -0.7699 -3.3946
  101OSM   C12F10166   6.152   3.587   5.527  0.3222 -0.7685  0.3019
  101OSM   H12F10167   6.167   3.697   5.531 -0.2716 -0.5318 -2.4292
  101OSM   H12G10168   6.054   3.563   5.483 -1.3746 -0.0069  3.3641
  101OSM   C13F10169   6.257   3.525   5.437  0.3491  0.1218  0.2052
  101OSM   H13F10170   6.225   3.422   5.412  0.7368 -0.1302  0.7376
  101OSM   H13G10171   6.358   3.532   5.481 -0.1254  0.3064  1.2977
  101OSM   C14F10172   6.254   3.590   5.304 -0.6239 -0.2377  0.6766
  101OSM   H14F10173   6.300   3.691   5.312 -2.0208  0.6029 -1.0418
  101OSM   H14G10174   6.149   3.616   5.279 -0.7163 -1.7598 -0.6194
  101OSM   C15F10175   6.342   3.519   5.196 -0.3057  0.0616 -0.1030
  101OSM   H15F10176   6.312   3.412   5.186 -0.6833  0.2283 -0.8149
  101OSM   H15G10177   6.444   3.518   5.240  0.1519 -0.6620 -1.1507
  101OSM   C16F10178   6.338   3.600   5.068  0.4051  0.0058 -0.1043
  101OSM   H16F10179   6.411   3.683   5.075  1.9617 -1.1118 -2.1323
  101OSM   H16G10180   6.233   3.638   5.062  0.1757 -0.1965  1.8692
  101OSM   C17F10181   6.386   3.524   4.947  0.2017 -1.1446  0.6164
  101OSM   H17F10182   6.333   3.429   4.926  2.8992 -2.2893 -1.8489
  101OSM   H17G10183   6.495   3.505   4.958  0.4251 -0.2104  0.1680
  101OSM   C18F10184   6.376   3.606   4.815 -0.5177 -0.5608 -0.1969
  101OSM   H18F10185   6.269   3.616   4.787 -0.3504  1.4705 -0.2772
  101OSM   H18G10186   6.433   3.555   4.735 -0.2035  0.5635 -0.7185
  101OSM   H18H10187   6.414   3.709   4.834  0.6753 -1.1357  0.6956
  102OSM      N10188   6.182   2.394   6.712 -0.0861 -0.5225 -0.3321
  102OSM    C1510189   6.269   2.517   6.699 -0.7616  0.3328 -0.4047
  102OSM   H15A10190   6.366   2.492   6.659 -1.1017 -1.2647 -0.2875
  102OSM   H15B10191   6.288   2.549   6.801  1.2573  0.4942 -0.7918
  102OSM   H15C10192   6.216   2.598   6.651  0.0554  0.6914 -0.7274
  102OSM    C1410193   6.163   2.335   6.577  0.2141  0.6881  0.6208
  102OSM   H14A10194   6.257   2.341   6.524  0.3104 -1.7288  0.4239
  102OSM   H14B10195   6.074   2.372   6.528 -0.6300 -1.2448  0.5986
  102OSM   H14C10196   6.143   2.230   6.588  0.3541  0.6391  0.4243
  102OSM    C1310197   6.263   2.290   6.780 -0.0984 -0.3650  0.8068
  102OSM   H13A10198   6.195   2.211   6.808 -1.4577  0.9258  1.2576
  102OSM   H13B10199   6.304   2.331   6.871  2.3649 -1.2370  0.1914
  102OSM   H13C10200   6.339   2.246   6.717 -0.5091  0.7446 -0.4923
  102OSM    C1210201   6.056   2.420   6.786 -0.3783  0.1445 -0.5905
  102OSM   H12A10202   6.082   2.440   6.889  1.5268 -0.3291 -0.9436
  102OSM   H12B10203   5.997   2.331   6.797  1.0244 -0.6286  1.1604
  102OSM    C1110204   5.974   2.541   6.751  0.5289  0.0432  0.4465
  102OSM   H11A10205   5.871   2.528   6.792  0.3678 -0.9999 -0.2764
  102OSM   H11B10206   5.966   2.542   6.641  0.5657  1.2072  0.4405
  102OSM      P10207   5.948   2.786   6.859  0.4294  0.0400  0.0853
  102OSM    O1310208   5.911   2.751   6.998 -0.1985  0.3398 -0.1057
  102OSM    O1410209   6.021   2.913   6.838 -0.4145  0.1153  0.1034
  102OSM    O1110210   5.818   2.779   6.765  0.0649 -0.0775 -0.3034
  102OSM    O1210211   6.035   2.662   6.799  0.1350  0.3221 -0.1067
  102OSM    C1S10212   5.833   2.817   6.630  0.2076  0.5163 -0.4746
  102OSM    H1S10213   5.890   2.740   6.574 -2.9869 -3.0309  0.7646
  102OSM    H1T10214   5.868   2.922   6.626  0.3225  0.5893  1.5246
  102OSM     NF10215   5.723   2.880   6.421  0.3449 -0.2487  0.0478
  102OSM    HNF10216   5.732   2.979   6.408  0.3745 -0.3935 -1.2398
  102OSM    C2S10217   5.694   2.834   6.556 -0.1118  0.3432 -0.4273
  102OSM    H2S10218   5.646   2.734   6.556  0.3336  0.1100 -1.6702
  102OSM    C3S10219   5.601   2.923   6.643  0.3161 -0.0409  0.6079
  102OSM    H3S10220   5.650   3.014   6.685  2.2488 -1.1202  0.8408
  102OSM     O310221   5.572   2.869   6.768 -0.0461  0.1196  0.6902
  102OSM    HO310222   5.639   2.803   6.786  0.7997  0.4583 -1.0207
  102OSM    C4S10223   5.474   2.960   6.569 -0.0969 -0.2446  0.0635
  102OSM    H4S10224   5.482   3.058   6.519 -2.5300  0.5712  1.1425
  102OSM    C5S10225   5.359   2.891   6.556 -0.3634  0.2428  0.1343
  102OSM    H5S10226   5.343   2.789   6.594 -2.9588  0.2353 -0.8052
  102OSM    C6S10227   5.248   2.930   6.457 -0.3878 -0.0483 -0.3298
  102OSM    H6S10228   5.230   3.040   6.456 -0.5349 -0.0729 -0.5086
  102OSM    H6T10229   5.156   2.894   6.508 -1.2162  0.0724 -1.6820
  102OSM    C7S10230   5.236   2.858   6.314  0.4802  0.3014  0.3195
  102OSM    H7S10231   5.153   2.907   6.259  0.4086 -1.2739 -1.0367
  102OSM    H7T10232   5.200   2.754   6.330 -2.1811  1.3613  2.1373
  102OSM    C8S10233   5.378   2.855   6.249  0.2928  0.0625 -0.2107
  102OSM    H8S10234   5.453   2.811   6.318 -0.2159  1.0085  0.9811
  102OSM    H8T10235   5.406   2.962   6.238  0.9529  0.0629  1.2407
  102OSM    C9S10236   5.382   2.767   6.127 -0.0782  0.3274  0.1175
  102OSM    H9S10237   5.327   2.822   6.047 -0.5017  0.0774  0.2346
  102OSM    H9T10238   5.334   2.669   6.145  0.0313 -0.0354 -1.4473
  102OSM   C10S10239   5.520   2.746   6.057  0.1750  0.1892  0.4607
  102OSM   H10S10240   5.585   2.677   6.114  1.7740 -0.1417 -1.6566
  102OSM   H10T10241   5.571   2.844   6.052 -0.9517  0.8691  1.6299
  102OSM   C11S10242   5.499   2.694   5.919 -0.5524 -0.2145 -0.1151
  102OSM   H11S10243   5.468   2.783   5.861 -1.4617 -0.3912  0.0865
  102OSM   H11T10244   5.420   2.616   5.915 -0.2321 -0.6357  1.1377
  102OSM   C12S10245   5.625   2.626   5.857 -0.2907  0.4012  0.2588
  102OSM   H12S10246   5.651   2.548   5.932 -3.7026 -1.7653 -0.5999
  102OSM   H12T10247   5.709   2.699   5.859 -1.2720  1.5545  0.9145
  102OSM   C13S10248   5.597   2.579   5.717  0.6194  0.1625  0.6326
  102OSM   H13S10249   5.591   2.668   5.652  1.0350 -1.0334 -1.1118
  102OSM   H13T10250   5.503   2.521   5.704  1.5595 -0.7064 -3.9251
  102OSM   C14S10251   5.709   2.490   5.657 -0.1361  0.6789 -0.1499
  102OSM   H14S10252   5.713   2.395   5.714  2.2559  0.9824  0.3152
  102OSM   H14T10253   5.811   2.532   5.669 -0.0978  1.1481 -1.8189
  102OSM   C15S10254   5.703   2.468   5.512 -0.4923  0.4404 -0.2354
  102OSM   H15S10255   5.712   2.566   5.460 -0.6893  1.0655  0.8706
  102OSM   H15T10256   5.606   2.419   5.486 -0.4090  0.6540 -0.9869
  102OSM   C16S10257   5.817   2.377   5.457  0.6434  0.3892 -0.4036
  102OSM   H16S10258   5.800   2.271   5.488  0.9174  0.3650 -0.3401
  102OSM   H16T10259   5.912   2.413   5.502  0.8479 -0.0088 -0.5082
  102OSM   C17S10260   5.839   2.399   5.308 -0.3190 -0.0559 -0.0538
  102OSM   H17S10261   5.840   2.507   5.281 -1.0480  0.3953  1.5676
  102OSM   H17T10262   5.751   2.367   5.250  0.4647 -0.5609 -0.9862
  102OSM   C18S10263   5.958   2.325   5.251  0.0670 -1.2454  0.0417
  102OSM   H18S10264   5.968   2.316   5.141 -1.2466 -0.6458 -0.1465
  102OSM   H18T10265   5.961   2.218   5.283  1.5808 -1.8040 -1.7909
  102OSM   H18U10266   6.046   2.384   5.284 -0.8182  1.2280 -1.7726
  102OSM    C1F10267   5.780   2.795   6.336 -0.0217  0.7177  0.2807
  102OSM     OF10268   5.779   2.675   6.354  0.6858 -0.4326 -0.5499
  102OSM    C2F10269   5.861   2.858   6.224 -0.3015  0.2075  0.1059
  102OSM    H2F10270   5.869   2.967   6.245 -2.0146 -0.1005  2.9125
  102OSM    H2G10271   5.809   2.833   6.129  1.9262 -2.2633 -0.5680
  102OSM    C3F10272   6.001   2.789   6.218  0.3134 -0.6317  0.5550
  102OSM    H3F10273   5.999   2.678   6.221 -2.3546 -0.6499  0.9657
  102OSM    H3G10274   6.054   2.821   6.310  0.1364  2.2721 -0.2463
  102OSM    C4F10275   6.088   2.840   6.102  0.0290 -0.3227 -0.1611
  102OSM    H4F10276   6.186   2.797   6.133 -0.5035 -0.4823  1.3992
  102OSM    H4G10277   6.106   2.949   6.112  0.7523 -0.4732  0.2744
  102OSM    C5F10278   6.057   2.788   5.952  0.0631 -0.3207 -0.9457
  102OSM    H5F10279   5.946   2.796   5.948 -0.0464 -0.5832  0.6930
  102OSM    H5G10280   6.089   2.682   5.945 -2.1848 -1.3492  1.8863
  102OSM    C6F10281   6.108   2.873   5.838  0.0358 -0.6696  0.7944
  102OSM    H6F10282   6.214   2.852   5.816  0.0696  1.4884 -1.5986
  102OSM    H6G10283   6.097   2.984   5.842 -2.6841 -0.8870  1.6633
  102OSM    C7F10284   6.031   2.828   5.707 -0.7744 -0.2936 -1.0078
  102OSM    H7F10285   6.054   2.914   5.640  0.2876 -0.0254 -0.3172
  102OSM    H7G10286   5.923   2.832   5.733 -0.8520 -1.5083 -1.0869
  102OSM    C8F10287   6.069   2.696   5.640  0.1225  0.6832 -0.5484
  102OSM    H8F10288   6.022   2.626   5.711 -1.0087  1.4287 -0.5330
  102OSM    H8G10289   6.177   2.676   5.655 -0.3108 -1.0496  0.4876
  102OSM    C9F10290   6.026   2.683   5.499  0.8303  0.3291  0.2134
  102OSM    H9F10291   5.920   2.657   5.488 -0.0315  3.1674  0.8631
  102OSM   C10F10292   6.108   2.682   5.388 -0.2811  0.2157 -0.1390
  102OSM   H10F10293   6.057   2.696   5.291  2.8132 -0.1644 -1.9432
  102OSM   C11F10294   6.258   2.696   5.370 -0.3379  0.4531 -0.3768
  102OSM   H11F10295   6.295   2.600   5.329  0.2826  0.4726  0.1208
  102OSM   H11G10296   6.304   2.708   5.471  2.2037  1.7168 -1.6154
  102OSM   C12F10297   6.314   2.807   5.284  0.2045 -0.6245 -0.8468
  102OSM   H12F10298   6.344   2.896   5.344  0.5687 -0.8077 -0.7553
  102OSM   H12G10299   6.225   2.836   5.224 -1.0559  0.3453  1.3924
  102OSM   C13F10300   6.424   2.760   5.192 -0.1134  0.0650  0.7357
  102OSM   H13F10301   6.433   2.834   5.110  0.0318 -0.1847  0.5240
  102OSM   H13G10302   6.399   2.656   5.161 -0.3074 -0.3555  2.2131
  102OSM   C14F10303   6.567   2.763   5.254  0.5163  0.1890  0.3369
  102OSM   H14F10304   6.553   2.693   5.338  1.3788 -0.7825 -0.3092
  102OSM   H14G10305   6.578   2.865   5.297 -2.6444  0.6892  0.1974
  102OSM   C15F10306   6.681   2.733   5.161 -0.3731 -0.0291  0.1476
  102OSM   H15F10307   6.683   2.812   5.082  0.3309  2.2679  2.3364
  102OSM   H15G10308   6.668   2.630   5.120  0.8041 -0.1826  0.1338
  102OSM   C16F10309   6.815   2.719   5.241  0.5107  0.1291 -0.4066
  102OSM   H16F10310   6.788   2.697   5.346  1.6721  0.0084 -0.1218
  102OSM   H16G10311   6.858   2.821   5.231 -1.4821  0.8591 -2.4165
  102OSM   C17F10312   6.910   2.608   5.194 -0.3500 -0.4344  0.1963
  102OSM   H17F10313   6.933   2.628   5.087  0.6705 -2.1232  0.0527
  102OSM   H17G10314   6.856   2.511   5.201  4.2598 -3.4037 -0.8829
  102OSM   C18F10315   7.035   2.598   5.277  0.1954  0.4733 -0.1664
  102OSM   H18F10316   7.093   2.512   5.236  0.5646  1.0363 -0.8498
  102OSM   H18G10317   7.017   2.593   5.386  0.5946  0.3895 -0.1059
  102OSM   H18H10318   7.103   2.679   5.243 -0.1722  0.7194 -0.3217
  103OSM      N10319   6.332   5.580   6.859  0.5371 -0.2785 -0.2073
  103OSM    C1510320   6.287   5.497   6.745 -0.5843  0.4027 -0.1512
  103OSM   H15A10321   6.309   5.537   6.648  1.6402 -1.1098 -0.3544
  103OSM   H15B10322   6.179   5.498   6.744 -0.5929  2.1044 -0.1494
  103OSM   H15C10323   6.334   5.400   6.752  1.0877  1.1777 -0.1686
  103OSM    C1410324   6.476   5.566   6.874  0.0675  0.1674 -0.0220
  103OSM   H14A10325   6.500   5.598   6.974  2.2067 -0.6417 -0.2125
  103OSM   H14B10326   6.526   5.623   6.797 -0.2590  2.7085  1.5403
  103OSM   H14C10327   6.503   5.461   6.870  0.6501  0.2358  1.5308
  103OSM    C1310328   6.307   5.733   6.828 -0.3103 -0.9099  0.0614
  103OSM   H13A10329   6.346   5.763   6.731  0.1487 -0.3840  0.4021
  103OSM   H13B10330   6.339   5.799   6.907  0.6809 -0.8368 -0.3894
  103OSM   H13C10331   6.199   5.740   6.821 -0.4154  0.3968  2.2443
  103OSM    C1210332   6.258   5.541   6.984 -0.4469  0.2476 -0.3787
  103OSM   H12A10333   6.152   5.541   6.963 -1.0985 -0.8021  2.5524
  103OSM   H12B10334   6.261   5.628   7.048  0.0629 -0.6856  0.9083
  103OSM    C1110335   6.299   5.411   7.063 -0.1892 -0.7387 -1.5023
  103OSM   H11A10336   6.228   5.422   7.147 -0.1947  2.4726 -1.8155
  103OSM   H11B10337   6.403   5.412   7.101 -1.9299  1.1128  4.0805
  103OSM      P10338   6.119   5.228   6.973 -0.0939 -0.0489 -0.2466
  103OSM    O1310339   6.111   5.108   7.057 -0.5567 -0.3414 -0.0136
  103OSM    O1410340   6.004   5.318   6.991  0.2521  0.4175  0.0273
  103OSM    O1110341   6.130   5.181   6.823 -0.0417 -0.3399  0.3176
  103OSM    O1210342   6.261   5.299   6.993  0.1032 -0.0200  0.5660
  103OSM    C1S10343   6.194   5.059   6.787  0.2664  0.4086 -0.1925
  103OSM    H1S10344   6.163   4.983   6.861  1.5557 -0.6060 -0.6527
  103OSM    H1T10345   6.303   5.076   6.792  0.3838 -0.1749 -0.5973
  103OSM     NF10346   6.207   4.875   6.633 -0.1999 -0.2469  0.3856
  103OSM    HNF10347   6.306   4.870   6.628 -0.2773 -1.0440 -0.5291
  103OSM    C2S10348   6.147   5.003   6.649 -0.3508 -0.4385 -0.3649
  103OSM    H2S10349   6.036   5.000   6.646 -0.3603 -1.3711  0.7394
  103OSM    C3S10350   6.192   5.114   6.547  0.3725 -0.4391  0.1098
  103OSM    H3S10351   6.301   5.116   6.566  0.1172  2.9531  1.9045
  103OSM     O310352   6.131   5.241   6.573 -0.6633 -0.4663 -0.1964
  103OSM    HO310353   6.110   5.241   6.667 -1.3748 -1.3537 -0.3398
  103OSM    C4S10354   6.170   5.066   6.412  0.0690  0.3415 -1.0000
  103OSM    H4S10355   6.067   5.045   6.378  0.0510 -1.5543  0.0306
  103OSM    C5S10356   6.267   5.042   6.325 -0.5050  1.0113  0.2928
  103OSM    H5S10357   6.373   5.049   6.352 -0.8682  1.1087  1.7758
  103OSM    C6S10358   6.244   4.978   6.190 -0.9828  0.3152 -0.1360
  103OSM    H6S10359   6.135   4.963   6.175 -1.1071  2.0847 -1.2763
  103OSM    H6T10360   6.279   4.872   6.185 -0.6560  0.3764  0.6834
  103OSM    C7S10361   6.300   5.056   6.066 -0.0621 -0.0258 -0.9921
  103OSM    H7S10362   6.411   5.050   6.071  0.0646  2.0090  2.6219
  103OSM    H7T10363   6.263   5.160   6.065  1.9056  0.7884  0.9329
  103OSM    C8S10364   6.250   4.983   5.938  0.0900  0.8259 -0.7115
  103OSM    H8S10365   6.160   5.036   5.901 -0.6488 -1.5460 -2.5510
  103OSM    H8T10366   6.213   4.879   5.955 -2.5801  1.6772 -0.9281
  103OSM    C9S10367   6.351   4.981   5.825 -0.9354  0.5870 -0.0954
  103OSM    H9S10368   6.428   4.906   5.849 -1.0922 -0.3739 -2.3522
  103OSM    H9T10369   6.409   5.075   5.813 -0.1855  0.7386  3.6062
  103OSM   C10S10370   6.297   4.935   5.690  0.0772  0.4768 -0.7017
  103OSM   H10S10371   6.206   4.990   5.658 -0.8579  0.4597  1.6847
  103OSM   H10T10372   6.255   4.835   5.716  0.3870  0.8202  1.3314
  103OSM   C11S10373   6.413   4.939   5.585 -0.0056  0.0206 -0.7314
  103OSM   H11S10374   6.470   4.847   5.609  1.4360  0.8992 -0.6434
  103OSM   H11T10375   6.471   5.033   5.594  2.1312 -1.2907  0.0590
  103OSM   C12S10376   6.349   4.924   5.442  0.3904  0.0799  0.3836
  103OSM   H12S10377   6.281   5.011   5.430  0.3023 -0.0741 -0.2699
  103OSM   H12T10378   6.275   4.842   5.453 -2.9865  2.8141 -0.3544
  103OSM   C13S10379   6.449   4.910   5.327  0.0957  0.0122  0.0066
  103OSM   H13S10380   6.511   4.819   5.342  0.2749  0.1656  0.1969
  103OSM   H13T10381   6.522   4.991   5.307  1.8692 -1.1306  1.5630
  103OSM   C14S10382   6.380   4.881   5.192 -0.2075 -0.6711 -1.0281
  103OSM   H14S10383   6.303   4.962   5.188 -0.8466 -1.2682 -1.0468
  103OSM   H14T10384   6.329   4.783   5.203  1.5234 -1.5289 -0.4044
  103OSM   C15S10385   6.471   4.897   5.068 -0.0269 -0.3314 -0.8179
  103OSM   H15S10386   6.548   4.817   5.065  0.2976 -0.0024 -1.2672
  103OSM   H15T10387   6.524   4.994   5.075  0.9918 -0.8653 -1.0752
  103OSM   C16S10388   6.388   4.889   4.939  0.6649  0.1322 -0.3990
  103OSM   H16S10389   6.317   4.974   4.945 -0.7962 -1.0718 -0.0024
  103OSM   H16T10390   6.330   4.795   4.944 -2.1578  1.6407 -2.0529
  103OSM   C17S10391   6.468   4.893   4.808  0.0726  0.5292  0.0772
  103OSM   H17S10392   6.505   4.788   4.804 -2.2555 -0.3164 -2.7939
  103OSM   H17T10393   6.551   4.966   4.817  1.1243 -0.7626  1.4438
  103OSM   C18S10394   6.377   4.927   4.685  0.2706  0.2488 -0.0513
  103OSM   H18S10395   6.295   4.854   4.667  0.7350 -0.3915  0.4190
  103OSM   H18T10396   6.436   4.958   4.596 -2.7812  1.0173 -2.0018
  103OSM   H18U10397   6.321   5.022   4.704  0.4056  1.2410 -3.7516
  103OSM    C1F10398   6.133   4.769   6.646 -0.0200  0.0857 -0.1911
  103OSM     OF10399   6.009   4.770   6.655  0.2526  0.2340  0.4258
  103OSM    C2F10400   6.209   4.646   6.661 -0.0763 -0.2197 -0.1081
  103OSM    H2F10401   6.154   4.586   6.737  0.8789 -0.5754  0.3210
  103OSM    H2G10402   6.310   4.671   6.700 -0.8301  1.9867  0.5523
  103OSM    C3F10403   6.206   4.555   6.535  0.4472  0.2814  0.0327
  103OSM    H3F10404   6.107   4.535   6.490  1.2161 -0.4701 -1.3929
  103OSM    H3G10405   6.245   4.458   6.572 -0.7500  0.4298  1.7877
  103OSM    C4F10406   6.290   4.600   6.418 -0.2674 -0.0278  0.0855
  103OSM    H4F10407   6.397   4.606   6.446  0.2645 -2.8496 -1.0139
  103OSM    H4G10408   6.268   4.701   6.375  1.0004  0.1897 -0.0945
  103OSM    C5F10409   6.278   4.494   6.310  0.0400 -0.4700 -0.4008
  103OSM    H5F10410   6.172   4.481   6.279 -0.6765  1.4118  1.0286
  103OSM    H5G10411   6.331   4.405   6.351  0.7992  1.0119  2.0215
  103OSM    C6F10412   6.369   4.521   6.186  0.1462  0.4266  0.0929
  103OSM    H6F10413   6.479   4.519   6.203  0.0772  1.2943  0.7029
  103OSM    H6G10414   6.344   4.621   6.144 -1.9688  0.6489  1.7128
  103OSM    C7F10415   6.338   4.437   6.062 -0.0447 -0.4821 -0.0142
  103OSM    H7F10416   6.230   4.446   6.037  0.0420  2.7772  0.3786
  103OSM    H7G10417   6.343   4.334   6.102  2.7266 -0.3213  0.2291
  103OSM    C8F10418   6.430   4.473   5.950 -1.0703 -0.0307  0.3745
  103OSM    H8F10419   6.525   4.510   5.995 -0.3719  0.2266 -1.2506
  103OSM    H8G10420   6.375   4.553   5.896 -0.6831 -0.4137 -0.6196
  103OSM    C9F10421   6.460   4.371   5.846 -0.0660 -0.6462  0.1792
  103OSM    H9F10422   6.460   4.266   5.879  0.5715 -1.1831 -1.4034
  103OSM   C10F10423   6.490   4.393   5.715 -0.1037  0.3031  0.4621
  103OSM   H10F10424   6.488   4.310   5.643 -1.6424  0.9011 -0.2226
  103OSM   C11F10425   6.516   4.528   5.657 -0.2901  0.1265  0.2222
  103OSM   H11F10426   6.602   4.578   5.706 -1.2797 -0.6498  2.9173
  103OSM   H11G10427   6.423   4.587   5.671 -0.5144 -0.1033 -0.2711
  103OSM   C12F10428   6.549   4.526   5.503 -0.0722 -0.4980  0.0486
  103OSM   H12F10429   6.631   4.453   5.484 -1.6272 -1.7471 -2.4221
  103OSM   H12G10430   6.593   4.624   5.477 -2.1600  0.6414  0.5882
  103OSM   C13F10431   6.425   4.494   5.415 -1.0615 -0.5035  0.1759
  103OSM   H13F10432   6.348   4.574   5.431 -1.3525 -0.4711 -1.2431
  103OSM   H13G10433   6.385   4.393   5.435 -0.9548 -0.8215 -1.1399
  103OSM   C14F10434   6.457   4.509   5.261  0.0771  0.0835 -0.1474
  103OSM   H14F10435   6.550   4.458   5.230  1.1282  0.8960  1.5008
  103OSM   H14G10436   6.464   4.617   5.233 -1.5406 -0.4058 -2.7967
  103OSM   C15F10437   6.331   4.461   5.191 -0.0540  0.5919 -0.1785
  103OSM   H15F10438   6.252   4.538   5.205 -0.2514  0.5551 -1.0413
  103OSM   H15G10439   6.299   4.363   5.232  0.1606 -0.3951 -2.2954
  103OSM   C16F10440   6.348   4.441   5.043  0.2227 -0.2945 -0.4485
  103OSM   H16F10441   6.436   4.376   5.027 -0.2799 -0.8158 -1.1527
  103OSM   H16G10442   6.383   4.538   5.000  2.9618 -0.4923  1.1623
  103OSM   C17F10443   6.227   4.394   4.963  0.2376 -0.5336  0.0385
  103OSM   H17F10444   6.139   4.459   4.980 -0.9395 -1.5738 -1.7454
  103OSM   H17G10445   6.190   4.299   5.007  1.0535 -1.0263 -0.3223
  103OSM   C18F10446   6.260   4.366   4.816  0.4154  0.5010 -0.0043
  103OSM   H18F10447   6.322   4.445   4.768 -0.9410  1.2387 -0.5964
  103OSM   H18G10448   6.163   4.348   4.766  0.9528  1.6170 -1.5379
  103OSM   H18H10449   6.323   4.276   4.801  0.9305  1.1530 -1.9917
  104OSM      N10450   1.278   3.658   7.110  0.3096 -0.1124  0.0586
  104OSM    C1510451   1.380   3.546   7.105 -0.0886 -1.2091  0.2328
  104OSM   H15A10452   1.476   3.594   7.095 -0.8443 -0.0182 -1.9143
  104OSM   H15B10453   1.374   3.476   7.024 -1.2136 -0.1058 -0.6817
  104OSM   H15C10454   1.373   3.486   7.195 -0.4716  0.2945  1.2619
  104OSM    C1410455   1.151   3.601   7.173  0.1937 -0.3649 -0.3477
  104OSM   H14A10456   1.097   3.689   7.206 -0.4683  0.2963 -2.9364
  104OSM   H14B10457   1.175   3.537   7.257 -0.7739 -0.5629 -0.2129
  104OSM   H14C10458   1.100   3.546   7.096 -0.9404  1.0708 -0.6664
  104OSM    C1310459   1.334   3.758   7.212  0.5237 -0.8169  0.2332
  104OSM   H13A10460   1.352   3.714   7.309 -0.0315  0.4701  0.9438
  104OSM   H13B10461   1.266   3.841   7.226  2.4257  0.7011  0.9440
  104OSM   H13C10462   1.424   3.803   7.174  0.3647 -1.3123 -0.7622
  104OSM    C1210463   1.252   3.723   6.975 -0.0576  0.7206  0.9546
  104OSM   H12A10464   1.332   3.794   6.959 -1.0254  1.7458  0.5776
  104OSM   H12B10465   1.172   3.794   6.990 -0.9624 -0.2044  0.6374
  104OSM    C1110466   1.208   3.630   6.857 -0.9758  0.0607 -0.7036
  104OSM   H11A10467   1.301   3.579   6.826 -0.6876  0.9090 -1.2719
  104OSM   H11B10468   1.178   3.690   6.769 -0.7011  1.1787 -0.0630
  104OSM      P10469   0.996   3.503   6.800  0.5684  0.0629 -0.1510
  104OSM    O1310470   0.945   3.365   6.837  0.1517  0.1067 -0.7226
  104OSM    O1410471   0.897   3.613   6.827 -0.1414  0.2311 -0.7072
  104OSM    O1110472   1.039   3.512   6.653 -0.6811  0.1410 -0.1527
  104OSM    O1210473   1.115   3.529   6.892  0.4710 -0.3994 -0.1738
  104OSM    C1S10474   1.121   3.415   6.590  0.1425  0.3118 -0.5734
  104OSM    H1S10475   1.080   3.312   6.592  0.2171  0.2543 -1.5729
  104OSM    H1T10476   1.223   3.410   6.635 -0.0840 -1.1370 -0.1674
  104OSM     NF10477   1.196   3.356   6.354  0.7142  0.1172 -0.0633
  104OSM    HNF10478   1.294   3.369   6.365  0.6145  0.6243  0.2443
  104OSM    C2S10479   1.124   3.460   6.437 -0.8429 -0.3557  0.7726
  104OSM    H2S10480   1.019   3.469   6.402 -0.5878  0.1136  0.0895
  104OSM    C3S10481   1.193   3.605   6.418  0.2614  0.0590 -0.5851
  104OSM    H3S10482   1.287   3.590   6.477 -0.5211 -1.8791  0.2703
  104OSM     O310483   1.141   3.715   6.496 -0.6068 -0.1151 -0.8338
  104OSM    HO310484   1.112   3.661   6.570 -1.5820 -1.5473 -2.1910
  104OSM    C4S10485   1.218   3.637   6.275  0.4138 -0.9826 -0.6446
  104OSM    H4S10486   1.285   3.574   6.216  2.2759  1.3136 -1.1630
  104OSM    C5S10487   1.151   3.725   6.201  0.6838  0.1982  0.1369
  104OSM    H5S10488   1.066   3.773   6.253 -0.0233 -0.2461 -0.5998
  104OSM    C6S10489   1.157   3.744   6.054 -0.1528  0.0266  0.1323
  104OSM    H6S10490   1.224   3.832   6.046  0.3155 -0.1400  1.7946
  104OSM    H6T10491   1.063   3.788   6.016 -0.1442 -1.0741 -1.2557
  104OSM    C7S10492   1.218   3.625   5.961 -0.0587  0.1054  0.3711
  104OSM    H7S10493   1.135   3.552   5.966  0.5895 -0.6799 -0.1601
  104OSM    H7T10494   1.312   3.582   6.002  2.6528  3.5623 -1.5707
  104OSM    C8S10495   1.245   3.660   5.815  0.3433 -0.0599  0.3103
  104OSM    H8S10496   1.325   3.735   5.835 -0.3184  1.0484 -1.0223
  104OSM    H8T10497   1.156   3.710   5.771  0.6298  0.7520  0.6290
  104OSM    C9S10498   1.275   3.543   5.717 -0.8875  0.1132  0.6229
  104OSM    H9S10499   1.192   3.470   5.721 -0.2119 -0.6924  0.3982
  104OSM    H9T10500   1.356   3.486   5.769  0.6428  3.3809  2.1155
  104OSM   C10S10501   1.300   3.589   5.572  0.0929  0.3123  0.1257
  104OSM   H10S10502   1.389   3.656   5.573  1.7165 -1.7494  1.1876
  104OSM   H10T10503   1.208   3.641   5.536 -0.1111 -1.0960 -1.5155
  104OSM   C11S10504   1.315   3.479   5.465  0.2907 -0.6546  0.3819
  104OSM   H11S10505   1.221   3.420   5.461  0.6908 -1.3582  1.1689
  104OSM   H11T10506   1.392   3.405   5.491  0.2468 -0.4461  1.1297
  104OSM   C12S10507   1.346   3.530   5.325  0.0810  0.0599 -0.1051
  104OSM   H12S10508   1.449   3.572   5.321  1.0641 -2.2911 -2.9606
  104OSM   H12T10509   1.267   3.600   5.290 -1.8454 -1.8222  0.2721
  104OSM   C13S10510   1.367   3.403   5.237 -0.0957  0.1568 -0.0530
  104OSM   H13S10511   1.274   3.347   5.260  0.6808 -0.1484  2.7660
  104OSM   H13T10512   1.444   3.335   5.282  0.9416  0.6985 -0.9542
  104OSM   C14S10513   1.396   3.437   5.095  0.2105  0.5719 -0.3730
  104OSM   H14S10514   1.488   3.499   5.087 -1.0022  2.6891  0.9911
  104OSM   H14T10515   1.307   3.501   5.072 -1.8603 -2.2121 -0.6796
  104OSM   C15S10516   1.379   3.314   5.005 -0.8980 -0.6390 -0.0846
  104OSM   H15S10517   1.282   3.270   5.038 -1.0181  1.0528  2.0122
  104OSM   H15T10518   1.459   3.237   5.005 -1.2933 -1.0832 -1.4605
  104OSM   C16S10519   1.365   3.347   4.853  0.0222  0.6167 -0.0137
  104OSM   H16S10520   1.432   3.430   4.821  2.0336 -1.2348 -0.8442
  104OSM   H16T10521   1.258   3.377   4.839 -0.3171  0.3893  1.8599
  104OSM   C17S10522   1.389   3.231   4.757  0.1975 -0.1054 -0.5994
  104OSM   H17S10523   1.494   3.202   4.778 -0.5892 -1.9167  1.1792
  104OSM   H17T10524   1.386   3.263   4.650  0.3678  1.5884 -0.1254
  104OSM   C18S10525   1.292   3.115   4.792  0.2176 -0.0808  0.3883
  104OSM   H18S10526   1.191   3.155   4.812  1.2980  2.0802  1.9533
  104OSM   H18T10527   1.330   3.065   4.885  2.8326 -0.3254 -0.7246
  104OSM   H18U10528   1.286   3.038   4.712 -1.7370  2.5106 -2.1721
  104OSM    C1F10529   1.132   3.241   6.321 -0.6990  0.1242  0.4409
  104OSM     OF10530   1.023   3.211   6.360  0.3903  0.0329 -0.0119
  104OSM    C2F10531   1.212   3.147   6.244 -0.5582  0.2964 -0.5715
  104OSM    H2F10532   1.213   3.050   6.298  0.4971  0.1010 -0.9070
  104OSM    H2G10533   1.317   3.185   6.253 -0.9315  0.8411  2.0436
  104OSM    C3F10534   1.161   3.123   6.100 -0.0383 -0.3889 -0.0761
  104OSM    H3F10535   1.056   3.092   6.116 -0.1247  0.1966  0.5219
  104OSM    H3G10536   1.217   3.033   6.065  0.5361 -0.5685  1.2722
  104OSM    C4F10537   1.175   3.252   6.013  0.3242 -0.5689  0.5346
  104OSM    H4F10538   1.278   3.286   5.991 -0.1602  0.8469  0.3533
  104OSM    H4G10539   1.120   3.326   6.075 -0.8078 -0.5224 -0.5022
  104OSM    C5F10540   1.089   3.242   5.878 -0.3034 -0.2456  0.1417
  104OSM    H5F10541   1.053   3.338   5.836  0.8360  0.7382  1.3320
  104OSM    H5G10542   0.996   3.187   5.905 -0.4191  0.2189  0.7185
  104OSM    C6F10543   1.163   3.165   5.765  0.1310  0.2448  0.1143
  104OSM    H6F10544   1.182   3.059   5.790 -0.1490  0.4814  1.4049
  104OSM    H6G10545   1.261   3.213   5.745  1.2215 -1.8894  0.0685
  104OSM    C7F10546   1.086   3.176   5.631 -0.4243  0.3235  0.1011
  104OSM    H7F10547   1.070   3.284   5.613  2.1205  0.3208 -2.9399
  104OSM    H7G10548   0.987   3.133   5.658 -0.1713 -1.9749 -2.1892
  104OSM    C8F10549   1.163   3.120   5.520  0.3045 -0.4715 -0.8833
  104OSM    H8F10550   1.273   3.123   5.539 -0.0241 -0.7681  1.2525
  104OSM    H8G10551   1.145   3.192   5.438  0.4057  0.9453  0.3034
  104OSM    C9F10552   1.108   2.981   5.481 -0.0479 -0.1085 -0.7037
  104OSM    H9F10553   1.102   2.913   5.567 -1.1263  1.4545  0.5154
  104OSM   C10F10554   1.088   2.941   5.355  0.3043  0.2315  0.6370
  104OSM   H10F10555   1.055   2.837   5.343 -0.8840  0.7854 -1.3291
  104OSM   C11F10556   1.104   3.022   5.220  0.3236  0.4118  0.6831
  104OSM   H11F10557   1.193   2.983   5.166  0.6104 -1.4772  2.3898
  104OSM   H11G10558   1.135   3.125   5.246  1.5219 -0.0208  1.0685
  104OSM   C12F10559   0.993   3.011   5.119 -0.1808  0.3833  0.6384
  104OSM   H12F10560   0.972   2.907   5.086 -2.1015  0.1143  2.5556
  104OSM   H12G10561   1.018   3.070   5.028  0.4179  0.4403  0.8358
  104OSM   C13F10562   0.866   3.073   5.176  0.4547  0.7429 -0.7489
  104OSM   H13F10563   0.884   3.183   5.182 -0.1668  0.8274 -0.3521
  104OSM   H13G10564   0.832   3.029   5.272  1.6379 -2.8727 -1.8364
  104OSM   C14F10565   0.743   3.061   5.085  0.0505  0.1045  0.1278
  104OSM   H14F10566   0.731   2.951   5.075  0.3026  0.1840 -1.2522
  104OSM   H14G10567   0.763   3.110   4.987 -0.1870 -1.6664 -0.8500
  104OSM   C15F10568   0.609   3.111   5.138  1.4069  0.6777  0.2995
  104OSM   H15F10569   0.603   3.222   5.133 -1.8311  0.5449 -1.4831
  104OSM   H15G10570   0.609   3.071   5.242  0.0417 -1.6249 -0.5053
  104OSM   C16F10571   0.481   3.045   5.072  0.0374  0.3380  0.0628
  104OSM   H16F10572   0.497   2.935   5.060  1.2436  0.6168 -1.2044
  104OSM   H16G10573   0.466   3.084   4.969  0.2815 -0.8049 -0.4293
  104OSM   C17F10574   0.349   3.050   5.153 -0.3173  0.4364  0.3087
  104OSM   H17F10575   0.339   3.154   5.189  1.9933 -0.3017  3.4555
  104OSM   H17G10576   0.357   2.978   5.237 -1.6723  0.8778  0.8469
  104OSM   C18F10577   0.226   3.001   5.071  0.0388 -0.0066 -0.0434
  104OSM   H18F10578   0.217   3.038   4.967  0.4468  0.0912 -0.0458
  104OSM   H18G10579   0.133   3.031   5.124 -0.5826 -1.7388 -0.1017
  104OSM   H18H10580   0.219   2.891   5.066 -1.7840 -0.1009  2.5540
  105OSM      N10581   2.327   4.378   6.534  0.6018  0.3615  0.5293
  105OSM    C1510582   2.262   4.272   6.459  0.2640  0.5601  0.2329
  105OSM   H15A10583   2.324   4.233   6.380  1.2996  3.1329 -0.3045
  105OSM   H15B10584   2.182   4.321   6.406  0.6213  0.8981  0.0086
  105OSM   H15C10585   2.228   4.187   6.517 -0.6487 -0.5309 -1.7971
  105OSM    C1410586   2.463   4.340   6.587 -0.7730  0.8262 -0.1565
  105OSM   H14A10587   2.474   4.277   6.674  0.8153 -0.1160 -0.9986
  105OSM   H14B10588   2.531   4.424   6.584  0.5810 -0.2628 -1.5237
  105OSM   H14C10589   2.516   4.282   6.513  0.5754  0.8443  0.7535
  105OSM    C1310590   2.350   4.484   6.430  0.1970 -0.5668 -0.7452
  105OSM   H13A10591   2.256   4.507   6.381  0.4909  1.8053 -0.2771
  105OSM   H13B10592   2.421   4.452   6.355  2.4196 -0.5734  1.2584
  105OSM   H13C10593   2.387   4.579   6.465  1.2803 -0.7414 -1.3572
  105OSM    C1210594   2.237   4.439   6.637 -0.2259  0.6183 -0.8796
  105OSM   H12A10595   2.281   4.530   6.675 -1.5410  0.5387  0.9780
  105OSM   H12B10596   2.227   4.375   6.723  1.9893 -2.4839 -2.7556
  105OSM    C1110597   2.094   4.490   6.596 -0.8910  0.4812  0.6261
  105OSM   H11A10598   2.036   4.402   6.560  0.9428  0.0517 -1.5052
  105OSM   H11B10599   2.095   4.561   6.510 -2.0510  1.2725  1.2343
  105OSM      P10600   2.072   4.688   6.759 -0.3544 -0.2484 -0.1206
  105OSM    O1310601   2.005   4.710   6.891 -0.2420 -0.0797  0.5912
  105OSM    O1410602   2.217   4.706   6.763 -0.2096  0.1337 -0.0156
  105OSM    O1110603   2.009   4.786   6.661  0.3737 -0.5220  0.2375
  105OSM    O1210604   2.024   4.550   6.703 -0.1152 -0.0454  0.3253
  105OSM    C1S10605   2.076   4.849   6.551 -0.1785 -0.3820  0.2618
  105OSM    H1S10606   2.169   4.802   6.514  0.3669  1.1407 -0.3955
  105OSM    H1T10607   2.103   4.956   6.567  0.4828 -0.4550 -0.3251
  105OSM     NF10608   2.035   4.864   6.295 -0.4684  0.6157 -0.4238
  105OSM    HNF10609   2.033   4.946   6.239  1.8122  1.1857  0.2231
  105OSM    C2S10610   1.978   4.859   6.431 -0.3997 -0.2905 -0.1798
  105OSM    H2S10611   1.912   4.769   6.427 -1.5387  0.2892  2.7208
  105OSM    C3S10612   1.876   4.974   6.462 -0.0728  0.1455  0.0854
  105OSM    H3S10613   1.932   5.070   6.475 -0.3511  0.2512  0.4937
  105OSM     O310614   1.801   4.951   6.584 -0.2354  0.1372  0.4287
  105OSM    HO310615   1.845   4.884   6.638  0.2796  0.4963  0.4609
  105OSM    C4S10616   1.780   4.986   6.340 -0.5345 -0.7894 -0.0093
  105OSM    H4S10617   1.823   5.042   6.255  0.2498 -1.3194  0.0252
  105OSM    C5S10618   1.658   4.931   6.325  0.9415 -0.5945  0.2203
  105OSM    H5S10619   1.621   4.860   6.400 -3.5128 -0.8249 -1.9041
  105OSM    C6S10620   1.571   4.938   6.196  0.5320  0.4582 -0.7081
  105OSM    H6S10621   1.619   4.989   6.110 -2.1343  0.1410 -2.5267
  105OSM    H6T10622   1.477   4.994   6.216  0.1808 -1.0405  2.5634
  105OSM    C7S10623   1.535   4.794   6.151 -0.2785  0.0701 -0.5469
  105OSM    H7S10624   1.479   4.743   6.232  1.3734 -2.5160 -0.9297
  105OSM    H7T10625   1.630   4.738   6.137 -0.3221 -1.1269  2.8777
  105OSM    C8S10626   1.445   4.798   6.027 -0.0737  0.3678 -0.3747
  105OSM    H8S10627   1.497   4.860   5.952  2.3970  1.2071  1.8800
  105OSM    H8T10628   1.355   4.860   6.046  0.7628  1.5430 -0.1306
  105OSM    C9S10629   1.407   4.664   5.961 -0.1532  0.0355 -0.3797
  105OSM    H9S10630   1.340   4.602   6.025 -1.3689  1.0219 -0.6644
  105OSM    H9T10631   1.501   4.607   5.947  0.3992  0.5433  1.0839
  105OSM   C10S10632   1.335   4.690   5.831 -0.3751 -0.0215 -0.1329
  105OSM   H10S10633   1.392   4.754   5.761  0.0910 -1.3925 -1.0567
  105OSM   H10T10634   1.246   4.755   5.844  0.6394  1.0489  1.7291
  105OSM   C11S10635   1.286   4.558   5.764  0.7888 -0.0927  0.3206
  105OSM   H11S10636   1.220   4.575   5.676  3.3351  0.5986 -1.5601
  105OSM   H11T10637   1.211   4.508   5.828  1.1594 -1.0051  0.0513
  105OSM   C12S10638   1.391   4.461   5.713 -0.0505  0.6543 -0.4045
  105OSM   H12S10639   1.434   4.390   5.787 -1.3027 -0.6366 -0.8533
  105OSM   H12T10640   1.478   4.520   5.679  0.5459 -0.5503 -1.0434
  105OSM   C13S10641   1.345   4.377   5.593  0.0635  0.0896 -0.7611
  105OSM   H13S10642   1.261   4.310   5.621 -0.5850  1.0628 -0.3314
  105OSM   H13T10643   1.422   4.308   5.552  0.4455  0.3896 -0.5582
  105OSM   C14S10644   1.307   4.461   5.467  0.4089  0.2239 -0.2771
  105OSM   H14S10645   1.397   4.507   5.421  0.3773  0.4379 -0.1243
  105OSM   H14T10646   1.224   4.535   5.476  0.9112  0.8181 -0.4788
  105OSM   C15S10647   1.264   4.368   5.349 -0.5629  0.5857 -0.7008
  105OSM   H15S10648   1.173   4.311   5.375  0.4291 -0.2537  1.1592
  105OSM   H15T10649   1.350   4.298   5.338  0.9270  1.8647  1.6917
  105OSM   C16S10650   1.259   4.429   5.210 -0.6973 -0.6304 -0.5434
  105OSM   H16S10651   1.357   4.475   5.185 -0.8685 -0.1254 -0.2975
  105OSM   H16T10652   1.201   4.521   5.234  1.5598 -0.3060  4.9701
  105OSM   C17S10653   1.205   4.331   5.101 -0.5203 -0.6357 -0.1076
  105OSM   H17S10654   1.124   4.267   5.143  0.0911 -1.8356 -0.6915
  105OSM   H17T10655   1.296   4.270   5.083  0.4473  1.0649 -1.2504
  105OSM   C18S10656   1.169   4.392   4.964 -0.4153 -0.5561  0.0438
  105OSM   H18S10657   1.128   4.309   4.903 -2.2685  0.6993 -0.5011
  105OSM   H18T10658   1.259   4.416   4.903 -0.4985 -0.8378 -0.1883
  105OSM   H18U10659   1.095   4.476   4.971  1.5431  1.0972  3.1214
  105OSM    C1F10660   2.108   4.765   6.244  0.0472 -0.2635 -0.2237
  105OSM     OF10661   2.139   4.665   6.305 -0.0932 -0.4143 -0.0259
  105OSM    C2F10662   2.160   4.798   6.108  0.0752 -0.2494  1.4758
  105OSM    H2F10663   2.197   4.701   6.067 -3.3977 -1.9490  2.0552
  105OSM    H2G10664   2.234   4.881   6.113 -0.5220  0.2143  3.3235
  105OSM    C3F10665   2.039   4.830   6.016  0.8459  0.3498  0.5622
  105OSM    H3F10666   1.991   4.929   6.031  2.7688  1.1077  2.1778
  105OSM    H3G10667   1.971   4.743   6.019 -0.3776  1.1527 -1.5566
  105OSM    C4F10668   2.079   4.844   5.863 -0.3367 -0.0659 -0.0106
  105OSM    H4F10669   2.161   4.770   5.851  1.1950  0.8503  3.4967
  105OSM    H4G10670   2.118   4.945   5.837  1.5472 -0.0140  2.5903
  105OSM    C5F10671   1.962   4.815   5.770 -0.6416  0.2206 -0.0349
  105OSM    H5F10672   1.889   4.898   5.784  1.1323  1.9257 -0.4835
  105OSM    H5G10673   1.913   4.720   5.803  1.8398 -1.3309 -0.5354
  105OSM    C6F10674   2.005   4.786   5.629  0.8532  0.0598  0.0440
  105OSM    H6F10675   2.061   4.690   5.632  1.2717  0.2218 -1.5154
  105OSM    H6G10676   2.086   4.858   5.604 -1.2075  2.1572 -0.9712
  105OSM    C7F10677   1.895   4.793   5.530 -0.0849  0.1627 -1.0737
  105OSM    H7F10678   1.845   4.891   5.544  0.5865  0.6217 -1.7785
  105OSM    H7G10679   1.827   4.714   5.567 -0.3819  0.1181 -1.6923
  105OSM    C8F10680   1.940   4.773   5.386 -0.7439 -0.6226  0.1227
  105OSM    H8F10681   1.960   4.667   5.359  0.9780  0.0306 -1.3175
  105OSM    H8G10682   2.034   4.832   5.382 -2.0453  2.0686  3.7411
  105OSM    C9F10683   1.834   4.828   5.290 -0.4213 -0.1465 -0.0207
  105OSM    H9F10684   1.727   4.817   5.313 -0.4452 -1.0266 -0.5132
  105OSM   C10F10685   1.863   4.895   5.178 -0.9678 -0.1998 -0.2789
  105OSM   H10F10686   1.774   4.934   5.127 -2.5099 -1.3310  1.4208
  105OSM   C11F10687   2.006   4.916   5.129  0.1671 -0.0421  0.3668
  105OSM   H11F10688   2.060   4.819   5.131 -2.5009 -1.7290 -2.2211
  105OSM   H11G10689   2.064   4.981   5.198  0.5414  1.9410 -1.6975
  105OSM   C12F10690   2.012   4.958   4.981  0.4406  0.5258  0.7205
  105OSM   H12F10691   2.118   4.967   4.947 -0.6037 -0.1034 -3.1866
  105OSM   H12G10692   1.966   5.058   4.976  2.3725  1.4282  0.0464
  105OSM   C13F10693   1.952   4.851   4.894 -0.2649 -0.8070  0.0401
  105OSM   H13F10694   1.842   4.850   4.905 -0.2231  1.9663  1.6861
  105OSM   H13G10695   2.005   4.756   4.916 -0.0661 -0.6403  0.2917
  105OSM   C14F10696   1.979   4.880   4.745 -0.0302  0.4423  0.0150
  105OSM   H14F10697   2.084   4.912   4.729 -0.1917  0.2300 -1.6407
  105OSM   H14G10698   1.911   4.965   4.724 -1.2111 -0.9394 -2.1409
  105OSM   C15F10699   1.943   4.770   4.647 -0.1837  0.2678  0.5354
  105OSM   H15F10700   1.835   4.747   4.649  0.4596 -3.3454  1.9730
  105OSM   H15G10701   2.006   4.681   4.669 -1.0934 -0.7774 -0.9246
  105OSM   C16F10702   1.979   4.798   4.499  0.2804  0.2064  0.0896
  105OSM   H16F10703   2.086   4.826   4.486  0.6914 -0.7417  1.2005
  105OSM   H16G10704   1.915   4.880   4.460  0.8229  0.5705 -0.0390
  105OSM   C17F10705   1.946   4.667   4.427 -0.6652  0.0186  0.8422
  105OSM   H17F10706   1.844   4.652   4.469 -1.0112  2.0706  0.8333
  105OSM   H17G10707   1.998   4.578   4.470  0.0444  0.6713  1.3727
  105OSM   C18F10708   1.938   4.686   4.280  0.5090  0.2625  0.5540
  105OSM   H18F10709   1.936   4.587   4.228 -0.1165  0.7695 -0.4333
  105OSM   H18G10710   2.032   4.734   4.245 -0.4181  2.2194  0.6125
  105OSM   H18H10711   1.852   4.747   4.245  0.3966  0.3127  0.9158
  106OSM      N10712   5.524   2.689   7.144  0.2628 -0.3417 -0.1100
  106OSM    C1510713   5.616   2.801   7.129 -0.6176  0.2996  0.0290
  106OSM   H15A10714   5.711   2.771   7.087 -2.0056 -2.5233 -1.3823
  106OSM   H15B10715   5.633   2.834   7.230 -1.8865 -1.1290  0.7485
  106OSM   H15C10716   5.568   2.880   7.073 -2.3392  0.6812  1.9249
  106OSM    C1410717   5.590   2.579   7.215  0.6558 -0.2682 -0.5102
  106OSM   H14A10718   5.607   2.599   7.319  0.1766 -2.7198  0.0990
  106OSM   H14B10719   5.679   2.548   7.162 -0.2888  0.2227 -2.4661
  106OSM   H14C10720   5.527   2.491   7.214 -1.1985  1.0139 -0.5642
  106OSM    C1310721   5.402   2.743   7.221 -0.5174 -0.0656 -0.1312
  106OSM   H13A10722   5.336   2.661   7.248  0.2337  0.1463  2.7339
  106OSM   H13B10723   5.341   2.807   7.159 -0.4691 -0.3943 -0.5154
  106OSM   H13C10724   5.438   2.777   7.318  3.8028  0.5227 -1.7346
  106OSM    C1210725   5.485   2.643   7.010  0.6990 -0.0016  0.5295
  106OSM   H12A10726   5.460   2.736   6.962 -0.8146  0.6664  2.4465
  106OSM   H12B10727   5.393   2.586   7.010  0.4139  0.4190 -1.3225
  106OSM    C1110728   5.587   2.569   6.922 -0.5710  0.0786 -0.7393
  106OSM   H11A10729   5.685   2.623   6.924 -0.9108  0.7212 -1.0245
  106OSM   H11B10730   5.554   2.584   6.817 -0.8347  2.3815 -0.3849
  106OSM      P10731   5.532   2.312   6.891 -0.2529  0.1093 -0.0955
  106OSM    O1310732   5.611   2.195   6.922  0.1862 -0.0113 -0.0817
  106OSM    O1410733   5.385   2.313   6.923  0.0314  0.1710 -0.2362
  106OSM    O1110734   5.538   2.343   6.739  0.1236  0.2199  0.4014
  106OSM    O1210735   5.601   2.433   6.953 -0.1690 -0.1085  0.7249
  106OSM    C1S10736   5.655   2.376   6.660  0.1463 -0.2808  0.3049
  106OSM    H1S10737   5.732   2.298   6.681  1.3329  1.3492  2.3590
  106OSM    H1T10738   5.700   2.476   6.679  1.1727 -0.5802 -0.4404
  106OSM     NF10739   5.715   2.409   6.421  0.1135  1.0799  0.5701
  106OSM    HNF10740   5.709   2.500   6.381 -0.1901  1.1096  0.6810
  106OSM    C2S10741   5.613   2.375   6.511  0.2276  0.1261  0.1535
  106OSM    H2S10742   5.577   2.275   6.478 -1.2982  0.5157  0.5711
  106OSM    C3S10743   5.482   2.472   6.482 -0.2180  0.4146  0.8247
  106OSM    H3S10744   5.513   2.573   6.514  3.7551 -0.1598 -0.5997
  106OSM     O310745   5.365   2.448   6.559 -0.6075 -0.0301 -0.0557
  106OSM    HO310746   5.399   2.389   6.627 -0.9314 -0.5282 -0.3196
  106OSM    C4S10747   5.449   2.466   6.326  0.5286 -0.0730 -0.4437
  106OSM    H4S10748   5.503   2.536   6.260 -1.4727  0.0177 -2.0928
  106OSM    C5S10749   5.369   2.383   6.265 -0.6105  0.4675  0.5368
  106OSM    H5S10750   5.309   2.309   6.319  1.3888 -1.5484  0.1160
  106OSM    C6S10751   5.356   2.377   6.118  0.6422  0.1990  0.3973
  106OSM    H6S10752   5.435   2.440   6.072  0.8669 -1.3447 -1.4417
  106OSM    H6T10753   5.266   2.438   6.092  0.3868  0.5966  2.1036
  106OSM    C7S10754   5.369   2.249   6.033 -0.3744  0.1371 -0.0792
  106OSM    H7S10755   5.294   2.170   6.052  0.4928 -1.3973 -2.5170
  106OSM    H7T10756   5.468   2.206   6.058 -0.2207  0.3171 -0.3627
  106OSM    C8S10757   5.377   2.266   5.880 -0.3695 -1.0713  0.2800
  106OSM    H8S10758   5.454   2.342   5.854 -2.8483  1.4184 -0.3397
  106OSM    H8T10759   5.285   2.308   5.834 -0.0170  0.6766  1.0694
  106OSM    C9S10760   5.415   2.139   5.796  0.1176 -0.3901 -0.0738
  106OSM    H9S10761   5.338   2.059   5.801 -0.5070 -0.0319 -2.5948
  106OSM    H9T10762   5.514   2.099   5.828 -0.0706 -0.9800 -0.2059
  106OSM   C10S10763   5.438   2.174   5.650  0.7820  0.2843 -0.2516
  106OSM   H10S10764   5.525   2.242   5.639 -1.0656  3.0331  0.9396
  106OSM   H10T10765   5.352   2.233   5.612  0.1817 -1.5536 -1.8831
  106OSM   C11S10766   5.453   2.048   5.561 -0.2202  0.2287  0.3839
  106OSM   H11S10767   5.379   1.967   5.576  1.5009 -1.4367  0.2003
  106OSM   H11T10768   5.555   2.006   5.578  0.5107  2.1104  0.9143
  106OSM   C12S10769   5.449   2.096   5.411  0.1995  0.2387 -0.2249
  106OSM   H12S10770   5.537   2.158   5.387  0.9019 -0.4286  0.5494
  106OSM   H12T10771   5.348   2.133   5.383 -0.1469 -0.6812 -0.2221
  106OSM   C13S10772   5.451   1.973   5.319 -0.3109  0.2239 -0.4308
  106OSM   H13S10773   5.352   1.922   5.328 -0.2263 -0.1329 -1.4260
  106OSM   H13T10774   5.533   1.904   5.348  1.7790  2.7822  0.0855
  106OSM   C14S10775   5.475   2.001   5.171 -1.0707 -0.1397  0.0153
  106OSM   H14S10776   5.570   2.057   5.160 -1.7623  1.0706  0.0135
  106OSM   H14T10777   5.393   2.068   5.138  0.3293  2.0347  0.7549
  106OSM   C15S10778   5.494   1.876   5.094 -0.0084  0.1268  0.6389
  106OSM   H15S10779   5.593   1.838   5.128  0.8564  1.4397 -0.3023
  106OSM   H15T10780   5.510   1.903   4.987  0.7996 -0.4632  0.6089
  106OSM   C16S10781   5.374   1.773   5.101  0.4710  0.2665 -0.2753
  106OSM   H16S10782   5.290   1.819   5.044  1.8126  0.8702 -1.8470
  106OSM   H16T10783   5.338   1.742   5.201 -4.3032 -0.6665 -1.9996
  106OSM   C17S10784   5.408   1.643   5.032  0.2603 -0.3730  0.3050
  106OSM   H17S10785   5.500   1.599   5.077  1.4874  2.3535  0.6204
  106OSM   H17T10786   5.441   1.661   4.927 -0.5203 -1.0093 -0.0578
  106OSM   C18S10787   5.290   1.544   5.033 -0.5116  1.0923  0.5489
  106OSM   H18S10788   5.246   1.533   5.134  2.6678  2.5037  2.2341
  106OSM   H18T10789   5.316   1.445   4.990 -1.0258  1.4579 -0.6289
  106OSM   H18U10790   5.212   1.577   4.961 -1.5458 -1.8293  0.1955
  106OSM    C1F10791   5.825   2.340   6.405 -0.1345 -0.0561 -0.5561
  106OSM     OF10792   5.864   2.247   6.479  0.0245 -0.1382  0.4925
  106OSM    C2F10793   5.920   2.383   6.301  0.1444 -0.2688  0.3788
  106OSM    H2F10794   6.002   2.309   6.297  0.2558 -0.3050  2.3865
  106OSM    H2G10795   5.969   2.481   6.318 -1.5114  0.5045  1.0004
  106OSM    C3F10796   5.853   2.386   6.160 -0.1535  0.6304 -0.2657
  106OSM    H3F10797   5.946   2.395   6.100 -0.1417 -2.6632 -0.9093
  106OSM    H3G10798   5.782   2.471   6.142  0.1205  1.1314  0.9379
  106OSM    C4F10799   5.803   2.250   6.101 -0.8583 -0.5999  0.6331
  106OSM    H4F10800   5.702   2.211   6.127  0.5009 -4.7295  0.5000
  106OSM    H4G10801   5.867   2.173   6.150  0.2982  0.9235  1.5826
  106OSM    C5F10802   5.828   2.245   5.950  0.0966 -0.5876  0.2143
  106OSM    H5F10803   5.922   2.292   5.915 -0.6313  0.0963 -0.9041
  106OSM    H5G10804   5.764   2.325   5.906  0.6246 -1.3143 -1.9759
  106OSM    C6F10805   5.809   2.106   5.885 -0.1099 -1.0832  0.0531
  106OSM    H6F10806   5.718   2.055   5.923 -0.9274  1.1569  1.3325
  106OSM    H6G10807   5.893   2.048   5.929  0.5302  0.4299  0.9053
  106OSM    C7F10808   5.813   2.106   5.734 -0.2978  0.3868  0.0983
  106OSM    H7F10809   5.744   2.178   5.686 -3.0004 -1.7547  0.5341
  106OSM    H7G10810   5.778   2.006   5.702 -1.9934  0.2919  2.0421
  106OSM    C8F10811   5.957   2.133   5.673  0.3760  0.0454  0.1608
  106OSM    H8F10812   5.985   2.240   5.676 -2.0509  0.7325  1.8594
  106OSM    H8G10813   5.954   2.106   5.565 -0.2182  1.3035 -0.1536
  106OSM    C9F10814   6.061   2.045   5.743  0.3150  0.2788  0.3850
  106OSM    H9F10815   6.103   2.091   5.833 -1.7543  3.0504  0.0738
  106OSM   C10F10816   6.082   1.914   5.723 -0.0417 -0.1285 -0.5671
  106OSM   H10F10817   6.151   1.865   5.793  0.4248 -0.1634 -1.0501
  106OSM   C11F10818   6.026   1.825   5.618  0.4331  0.8647  0.1949
  106OSM   H11F10819   5.942   1.876   5.565  1.8564  2.1360 -0.9155
  106OSM   H11G10820   5.967   1.746   5.670 -2.1475  2.2400 -0.4394
  106OSM   C12F10821   6.140   1.766   5.539  0.2568  0.0612  0.3535
  106OSM   H12F10822   6.200   1.692   5.595 -0.5473 -2.6071 -2.0219
  106OSM   H12G10823   6.216   1.842   5.511  0.3601  0.7186  2.3347
  106OSM   C13F10824   6.089   1.694   5.415  0.2916 -0.4427 -0.1018
  106OSM   H13F10825   6.035   1.600   5.441  0.8651 -0.9848 -0.8504
  106OSM   H13G10826   6.180   1.657   5.363  0.9574  1.2072 -0.1636
  106OSM   C14F10827   6.007   1.785   5.323 -0.2391 -1.1760 -0.1555
  106OSM   H14F10828   6.055   1.885   5.315 -2.2512  0.1352  2.7955
  106OSM   H14G10829   5.910   1.811   5.369  0.6683 -0.7211  1.6150
  106OSM   C15F10830   5.986   1.729   5.180  0.2374  0.1680 -0.4468
  106OSM   H15F10831   5.943   1.627   5.189  0.0245  0.4519  2.7831
  106OSM   H15G10832   6.092   1.715   5.150  0.8110 -2.2968  2.3017
  106OSM   C16F10833   5.896   1.813   5.099  0.3190 -0.5184  0.5047
  106OSM   H16F10834   5.964   1.889   5.055 -1.5058  1.0483  0.2660
  106OSM   H16G10835   5.815   1.862   5.158 -0.1045 -1.1398  0.4465
  106OSM   C17F10836   5.832   1.732   4.991 -0.1259 -0.2601  0.3378
  106OSM   H17F10837   5.760   1.797   4.936 -2.0168 -0.8183  2.0121
  106OSM   H17G10838   5.765   1.659   5.042 -0.7166  1.6628  2.5241
  106OSM   C18F10839   5.928   1.666   4.892  0.4178  1.1938 -0.1177
  106OSM   H18F10840   6.001   1.598   4.940 -0.4661  0.6412  0.4734
  106OSM   H18G10841   5.977   1.746   4.831  2.2481 -0.0669 -0.3682
  106OSM   H18H10842   5.871   1.613   4.813  0.8788  1.5858 -0.7267
  107OSM      N10843   6.509   6.552   7.263 -0.9800 -0.6074  0.0201
  107OSM    C1510844   6.552   6.679   7.190  0.1163  0.2275  0.3270
  107OSM   H15A10845   6.659   6.693   7.191  0.2794 -0.2633 -2.3361
  107OSM   H15B10846   6.501   6.762   7.238  0.4225 -1.0528  3.0721
  107OSM   H15C10847   6.515   6.682   7.089 -0.6759 -0.6488  0.5741
  107OSM    C1410848   6.562   6.529   7.397 -0.4681  0.1524 -0.4109
  107OSM   H14A10849   6.667   6.552   7.405 -0.2842 -0.9269  0.4470
  107OSM   H14B10850   6.548   6.425   7.421 -0.8785 -0.4973 -3.1397
  107OSM   H14C10851   6.527   6.607   7.463  1.5773  0.5143  0.3130
  107OSM    C1310852   6.360   6.533   7.260  0.5981 -0.6812  0.9554
  107OSM   H13A10853   6.334   6.503   7.160  0.3101 -0.6571  1.0231
  107OSM   H13B10854   6.298   6.614   7.298  1.3851 -0.4444  1.7817
  107OSM   H13C10855   6.335   6.457   7.332 -0.4975 -0.4098  0.8716
  107OSM    C1210856   6.566   6.440   7.177  0.1910  0.2490 -0.0425
  107OSM   H12A10857   6.556   6.342   7.221  0.9367 -0.4889 -1.4328
  107OSM   H12B10858   6.672   6.455   7.161  0.8037 -2.6319  0.6600
  107OSM    C1110859   6.518   6.421   7.030 -0.3694 -0.2752  0.2778
  107OSM   H11A10860   6.588   6.339   7.003 -0.6390 -0.8828  1.3433
  107OSM   H11B10861   6.543   6.510   6.969 -3.9503  1.5489  1.2222
  107OSM      P10862   6.328   6.238   7.010 -0.2166  0.4649  0.0667
  107OSM    O1310863   6.366   6.150   7.121 -0.2463 -0.4845  0.2883
  107OSM    O1410864   6.186   6.244   6.978  0.4978  0.6003 -0.0569
  107OSM    O1110865   6.405   6.183   6.880  0.3929 -0.0370 -0.9165
  107OSM    O1210866   6.381   6.386   7.026 -0.2364  0.2450 -0.0656
  107OSM    C1S10867   6.371   6.242   6.761  0.3737 -0.8557  0.6131
  107OSM    H1S10868   6.380   6.353   6.768 -0.3226 -0.7321 -0.3295
  107OSM    H1T10869   6.280   6.199   6.713  1.0224 -2.9066  1.1057
  107OSM     NF10870   6.474   6.272   6.528 -0.5040 -0.4210 -0.2004
  107OSM    HNF10871   6.447   6.220   6.448  0.5287  0.3329 -1.0722
  107OSM    C2S10872   6.487   6.203   6.658 -0.3405 -0.2452  0.2656
  107OSM    H2S10873   6.582   6.249   6.693 -0.2349  0.6205 -1.0791
  107OSM    C3S10874   6.497   6.051   6.651 -0.5036  0.2459  0.0203
  107OSM    H3S10875   6.401   6.011   6.612 -0.1247 -2.0131  1.1915
  107OSM     O310876   6.498   5.976   6.775  0.2504 -0.1123  0.0353
  107OSM    HO310877   6.440   6.025   6.834  0.6171  0.2340  0.1112
  107OSM    C4S10878   6.604   5.998   6.556 -0.5271  0.0118  0.3861
  107OSM    H4S10879   6.575   5.995   6.450 -1.6155 -1.0355  0.6963
  107OSM    C5S10880   6.734   5.976   6.585  0.1053  0.4377  0.1690
  107OSM    H5S10881   6.758   5.997   6.691 -2.9241  0.0440  1.0503
  107OSM    C6S10882   6.854   5.934   6.501 -0.1430 -0.0500 -0.3386
  107OSM    H6S10883   6.923   5.869   6.561  0.1072 -0.1280 -0.7068
  107OSM    H6T10884   6.910   6.026   6.473  0.3705 -0.2787 -0.0753
  107OSM    C7S10885   6.822   5.840   6.376 -0.2199  0.2686 -0.5768
  107OSM    H7S10886   6.739   5.892   6.325  0.3331  0.8715 -0.8800
  107OSM    H7T10887   6.782   5.745   6.416  1.6968  0.1196  1.2120
  107OSM    C8S10888   6.936   5.824   6.286 -0.2120  1.0209  0.3809
  107OSM    H8S10889   7.027   5.796   6.345  0.0637  1.4767  0.1771
  107OSM    H8T10890   6.964   5.918   6.233  2.9544  0.0889  0.1486
  107OSM    C9S10891   6.917   5.728   6.170  0.3500  0.0552  0.2279
  107OSM    H9S10892   6.893   5.624   6.198  2.9857 -0.4513  0.9101
  107OSM    H9T10893   7.018   5.721   6.125  0.3635  3.2669 -0.4778
  107OSM   C10S10894   6.826   5.788   6.062 -0.2006 -0.2723 -0.0964
  107OSM   H10S10895   6.833   5.899   6.053  2.0646 -0.1243  2.1493
  107OSM   H10T10896   6.719   5.767   6.082 -0.5996 -0.1832 -1.9655
  107OSM   C11S10897   6.842   5.729   5.923  0.6986  0.3271 -0.2107
  107OSM   H11S10898   6.837   5.619   5.926 -2.2610  0.4143  1.5273
  107OSM   H11T10899   6.941   5.763   5.884 -0.1104  1.6834 -1.2115
  107OSM   C12S10900   6.742   5.783   5.817 -0.8241  0.6638  0.4807
  107OSM   H12S10901   6.751   5.893   5.835  1.5508  0.8336 -1.2132
  107OSM   H12T10902   6.638   5.746   5.827 -0.9303 -0.1306 -2.6230
  107OSM   C13S10903   6.791   5.742   5.673  0.4019 -1.0224 -0.6273
  107OSM   H13S10904   6.777   5.632   5.665 -2.0897 -0.9185  1.2403
  107OSM   H13T10905   6.899   5.764   5.658  0.3903 -0.3168  0.2420
  107OSM   C14S10906   6.713   5.825   5.565 -0.4113  0.5273  0.4950
  107OSM   H14S10907   6.728   5.934   5.577  0.7194  0.5739 -1.0340
  107OSM   H14T10908   6.606   5.794   5.574 -0.8361  1.8918  0.3735
  107OSM   C15S10909   6.758   5.775   5.427 -0.3047  0.5756  0.3698
  107OSM   H15S10910   6.771   5.666   5.411  0.3776  0.8934 -1.5006
  107OSM   H15T10911   6.865   5.803   5.417 -0.2987  0.6729  0.6758
  107OSM   C16S10912   6.686   5.843   5.315  0.6844  0.0448  0.1243
  107OSM   H16S10913   6.690   5.954   5.325  0.4033  0.0834 -0.1952
  107OSM   H16T10914   6.582   5.805   5.316  1.7966 -3.3042 -0.3997
  107OSM   C17S10915   6.742   5.793   5.184 -0.1693 -0.2704 -0.0167
  107OSM   H17S10916   6.852   5.806   5.180 -0.1178 -0.5790  0.4097
  107OSM   H17T10917   6.700   5.865   5.111  0.9777  1.2395  0.7753
  107OSM   C18S10918   6.704   5.645   5.151 -0.7348 -0.0311 -0.0776
  107OSM   H18S10919   6.595   5.642   5.130 -0.3911  0.2587 -2.0575
  107OSM   H18T10920   6.709   5.578   5.240 -1.2250  0.5382  0.3916
  107OSM   H18U10921   6.761   5.601   5.067  0.9704 -0.6592  1.3459
  107OSM    C1F10922   6.479   6.405   6.513  0.4904  0.4909 -0.8775
  107OSM     OF10923   6.495   6.475   6.608 -0.5169  0.0957  0.0853
  107OSM    C2F10924   6.451   6.457   6.372 -1.0001  0.0997 -0.2183
  107OSM    H2F10925   6.395   6.388   6.306  0.3209  1.3501 -2.7983
  107OSM    H2G10926   6.550   6.474   6.324 -1.6611  1.2314 -1.2216
  107OSM    C3F10927   6.391   6.594   6.366 -0.4082 -0.4233  0.1104
  107OSM    H3F10928   6.447   6.675   6.418 -2.4512  0.6047  0.8159
  107OSM    H3G10929   6.294   6.576   6.417  0.1276 -2.3855  0.5351
  107OSM    C4F10930   6.379   6.647   6.220  0.2433  0.7729 -0.3258
  107OSM    H4F10931   6.339   6.560   6.164  0.2303 -0.5800  1.6795
  107OSM    H4G10932   6.477   6.683   6.182  0.5167  0.7651  0.3582
  107OSM    C5F10933   6.279   6.760   6.190 -0.2864 -0.4145 -0.2174
  107OSM    H5F10934   6.300   6.847   6.257  3.8619 -0.9331 -0.5880
  107OSM    H5G10935   6.173   6.729   6.196 -0.9205  1.6537  0.1908
  107OSM    C6F10936   6.307   6.833   6.055 -0.0715 -0.1216  0.2895
  107OSM    H6F10937   6.405   6.882   6.072 -0.2211 -0.3120  1.8215
  107OSM    H6G10938   6.232   6.915   6.050  0.9985  0.7946 -2.0356
  107OSM    C7F10939   6.323   6.735   5.941 -0.0986 -0.2655 -0.5267
  107OSM    H7F10940   6.230   6.675   5.926 -0.6890  0.5369 -0.1625
  107OSM    H7G10941   6.404   6.664   5.966  0.4341  1.4786  3.3067
  107OSM    C8F10942   6.356   6.795   5.804  1.0680 -0.0300  0.1601
  107OSM    H8F10943   6.399   6.719   5.736  2.4408 -0.0074  0.9793
  107OSM    H8G10944   6.422   6.882   5.824 -0.9125  2.0013 -1.4915
  107OSM    C9F10945   6.240   6.872   5.743  0.1833  0.5261  0.1677
  107OSM    H9F10946   6.215   6.968   5.791 -0.3481  0.4096  0.1303
  107OSM   C10F10947   6.159   6.826   5.644  0.4409  0.7266 -0.2617
  107OSM   H10F10948   6.077   6.890   5.607 -0.7200 -1.1478 -1.0440
  107OSM   C11F10949   6.177   6.689   5.578  0.6832 -0.5940  0.2654
  107OSM   H11F10950   6.143   6.611   5.650 -0.5706  0.5833  0.9957
  107OSM   H11G10951   6.284   6.677   5.550  0.5961  0.7511 -0.7323
  107OSM   C12F10952   6.091   6.679   5.445 -1.0827 -0.1891 -0.0336
  107OSM   H12F10953   5.990   6.718   5.468 -0.2919  0.0580  3.6852
  107OSM   H12G10954   6.106   6.574   5.412 -0.6256 -0.1545  0.0546
  107OSM   C13F10955   6.151   6.770   5.338  0.1861 -0.2102  0.2627
  107OSM   H13F10956   6.253   6.735   5.311 -0.6285 -3.4549  0.8864
  107OSM   H13G10957   6.162   6.869   5.386  0.6467 -0.1980  0.1366
  107OSM   C14F10958   6.061   6.780   5.211 -0.0740 -0.2779 -0.0602
  107OSM   H14F10959   6.100   6.864   5.150  2.3553 -2.0104 -1.0036
  107OSM   H14G10960   5.954   6.797   5.239 -0.5716 -0.9545 -1.4462
  107OSM   C15F10961   6.062   6.653   5.126  0.8217 -0.5107 -0.0490
  107OSM   H15F10962   6.064   6.560   5.188  0.6336  0.1554  0.9832
  107OSM   H15G10963   6.153   6.652   5.063  0.6009 -3.1201 -0.4487
  107OSM   C16F10964   5.936   6.651   5.041 -0.6235  0.0815 -0.0891
  107OSM   H16F10965   5.853   6.666   5.113 -0.1766 -1.3845  0.7904
  107OSM   H16G10966   5.920   6.556   4.985 -1.7164  2.0633 -3.4163
  107OSM   C17F10967   5.921   6.765   4.938 -0.2393  0.4460  0.3980
  107OSM   H17F10968   5.987   6.741   4.852 -2.1215  5.4287 -2.9313
  107OSM   H17G10969   5.958   6.864   4.974 -1.4338  1.4887 -1.1195
  107OSM   C18F10970   5.783   6.795   4.883 -0.2784  0.4657  0.1683
  107OSM   H18F10971   5.738   6.699   4.850  1.6126 -1.0570  1.7574
  107OSM   H18G10972   5.789   6.872   4.803 -0.6617 -0.0382 -0.3574
  107OSM   H18H10973   5.712   6.825   4.962 -3.0605  1.4814 -2.5176
  108OSM      N10974   1.928   6.205   6.883 -0.8652  0.6608  0.2425
  108OSM    C1510975   1.870   6.342   6.865  0.9524 -0.1397  0.5842
  108OSM   H15A10976   1.803   6.370   6.944  1.4571  0.1900  0.9035
  108OSM   H15B10977   1.822   6.340   6.768  0.1190  0.7855  0.9679
  108OSM   H15C10978   1.951   6.413   6.864  1.0673 -0.2568 -0.8094
  108OSM    C1410979   1.984   6.193   7.022 -0.4296 -0.4629  0.1285
  108OSM   H14A10980   1.903   6.196   7.094  1.2610  0.8704  2.0711
  108OSM   H14B10981   2.055   6.272   7.038  0.6971 -1.1670 -1.2266
  108OSM   H14C10982   2.035   6.101   7.048 -2.4655 -1.4371  0.9171
  108OSM    C1310983   1.830   6.095   6.856  0.1147  0.4636  0.0033
  108OSM   H13A10984   1.746   6.126   6.916  1.5117  2.1246  1.2164
  108OSM   H13B10985   1.861   6.001   6.900 -2.2839 -0.2351  0.3394
  108OSM   H13C10986   1.802   6.084   6.752  1.2632 -0.5263 -0.2360
  108OSM    C1210987   2.037   6.185   6.781 -0.5726 -0.0769 -0.2036
  108OSM   H12A10988   1.989   6.163   6.687 -0.3343  1.5213 -0.7313
  108OSM   H12B10989   2.089   6.091   6.794  0.4385  0.1666 -2.1846
  108OSM    C1110990   2.147   6.293   6.768 -0.5483 -0.0901 -0.0952
  108OSM   H11A10991   2.227   6.248   6.707 -1.4332 -2.5108  0.4292
  108OSM   H11B10992   2.191   6.313   6.868  1.0615  0.3392 -0.8588
  108OSM      P10993   2.163   6.531   6.660  0.2178  0.3926  0.0986
  108OSM    O1310994   2.064   6.621   6.589  0.0040  0.3784  0.2862
  108OSM    O1410995   2.242   6.581   6.771 -0.0089 -0.7715  0.3104
  108OSM    O1110996   2.267   6.472   6.552  0.4152  0.4201  0.1969
  108OSM    O1210997   2.089   6.408   6.716 -0.3347 -0.8960  0.3029
  108OSM    C1S10998   2.196   6.395   6.447 -0.8191 -0.4292 -0.3765
  108OSM    H1S10999   2.086   6.389   6.463 -0.5605 -0.7749  1.5521
  108OSM    H1T11000   2.229   6.290   6.434 -0.9285 -0.4832 -0.2266
  108OSM     NF11001   2.143   6.386   6.210 -0.3655 -0.5726  0.0438
  108OSM    HNF11002   2.196   6.327   6.149 -0.7002  1.5979 -2.5189
  108OSM    C2S11003   2.213   6.469   6.304 -0.3915  0.1453 -0.2082
  108OSM    H2S11004   2.149   6.558   6.323  0.6296  0.7772  0.4062
  108OSM    C3S11005   2.361   6.498   6.264 -1.0212 -0.2058 -0.5983
  108OSM    H3S11006   2.408   6.398   6.258  0.3901  0.4235 -0.4933
  108OSM     O311007   2.455   6.544   6.362 -0.1509 -0.2478 -0.0508
  108OSM    HO311008   2.409   6.527   6.444 -0.1837  0.0827 -0.0002
  108OSM    C4S11009   2.387   6.575   6.143 -0.3104  0.8692  0.6269
  108OSM    H4S11010   2.384   6.513   6.052 -1.4048  1.5771  0.1681
  108OSM    C5S11011   2.389   6.708   6.132 -0.7506 -1.2931 -0.1419
  108OSM    H5S11012   2.366   6.760   6.227  0.8089 -0.2226 -0.3118
  108OSM    C6S11013   2.407   6.797   6.007  0.5288  0.0905 -0.3564
  108OSM    H6S11014   2.468   6.888   6.027  0.7671 -0.6252  2.6329
  108OSM    H6T11015   2.316   6.851   5.972  1.4863  2.8552  1.0795
  108OSM    C7S11016   2.463   6.734   5.872 -0.2941 -0.0104 -0.0507
  108OSM    H7S11017   2.418   6.633   5.864  3.0311 -1.8599  1.9835
  108OSM    H7T11018   2.571   6.713   5.891 -0.2424  0.8913  0.7734
  108OSM    C8S11019   2.441   6.818   5.742 -0.5226 -0.3548  0.3668
  108OSM    H8S11020   2.499   6.913   5.735 -0.0449 -0.6253  0.5658
  108OSM    H8T11021   2.333   6.840   5.735 -0.2040  1.1803  0.0078
  108OSM    C9S11022   2.479   6.735   5.613 -0.3637 -0.1568  0.0574
  108OSM    H9S11023   2.418   6.645   5.635 -2.1776  1.0541  0.2214
  108OSM    H9T11024   2.586   6.708   5.604  0.2210  2.4898 -2.6663
  108OSM   C10S11025   2.431   6.789   5.479 -0.6705  0.3426  0.9837
  108OSM   H10S11026   2.492   6.875   5.444 -1.1149  0.5126  0.6062
  108OSM   H10T11027   2.323   6.809   5.498 -1.0856 -1.4349  0.6893
  108OSM   C11S11028   2.434   6.679   5.369  0.2249 -0.2571  0.2705
  108OSM   H11S11029   2.343   6.616   5.366 -1.6736  2.3499 -1.1339
  108OSM   H11T11030   2.531   6.628   5.354  1.2344  1.4361  0.7962
  108OSM   C12S11031   2.414   6.745   5.233 -0.3430 -0.1894  0.5702
  108OSM   H12S11032   2.482   6.833   5.231 -3.1681  2.1614 -1.9398
  108OSM   H12T11033   2.313   6.785   5.209 -0.1765  1.3147  2.1580
  108OSM   C13S11034   2.458   6.658   5.115 -0.8424 -0.4117  0.1052
  108OSM   H13S11035   2.549   6.596   5.127 -0.3923  0.0258 -0.9067
  108OSM   H13T11036   2.482   6.717   5.023  0.9508 -2.2622 -0.6778
  108OSM   C14S11037   2.339   6.569   5.075  0.1885 -0.3132  0.8552
  108OSM   H14S11038   2.249   6.630   5.052 -0.4524 -1.0616  1.3220
  108OSM   H14T11039   2.302   6.511   5.163 -2.6933  1.7156  1.1617
  108OSM   C15S11040   2.370   6.486   4.950  0.1798  0.2002  0.0006
  108OSM   H15S11041   2.435   6.399   4.974 -1.5474 -1.9583 -2.4988
  108OSM   H15T11042   2.429   6.544   4.876  0.3329  1.2209  0.8995
  108OSM   C16S11043   2.247   6.448   4.877 -0.6505 -0.2982  0.1509
  108OSM   H16S11044   2.164   6.523   4.877 -0.6402 -0.2610 -1.5583
  108OSM   H16T11045   2.215   6.351   4.920 -0.4524  0.7427  2.8444
  108OSM   C17S11046   2.276   6.428   4.726 -0.1895 -0.4002 -0.0419
  108OSM   H17S11047   2.294   6.528   4.681 -0.7658 -0.3229 -0.1101
  108OSM   H17T11048   2.183   6.394   4.676 -0.2950 -0.5721  0.2717
  108OSM   C18S11049   2.390   6.327   4.708  0.6405 -0.0527 -0.7858
  108OSM   H18S11050   2.371   6.241   4.775 -1.2892  0.0860 -1.0997
  108OSM   H18T11051   2.481   6.382   4.742 -0.6416  0.7730  1.5255
  108OSM   H18U11052   2.410   6.291   4.605  1.1420  1.4879 -1.2583
  108OSM    C1F11053   2.011   6.368   6.214 -0.8292  0.4663 -0.2218
  108OSM     OF11054   1.942   6.452   6.278  0.3260  0.1960  0.1125
  108OSM    C2F11055   1.957   6.247   6.139 -0.3163 -1.1011  0.0352
  108OSM    H2F11056   1.994   6.238   6.035  0.9943  3.5482 -0.0980
  108OSM    H2G11057   1.847   6.258   6.125 -0.2385 -0.5189 -0.1478
  108OSM    C3F11058   1.970   6.124   6.234 -0.5629  0.1625  0.1020
  108OSM    H3F11059   1.921   6.158   6.328  0.0555  0.4608  0.3238
  108OSM    H3G11060   2.079   6.103   6.244 -0.2551  2.1788  1.7100
  108OSM    C4F11061   1.907   5.990   6.186 -0.3606 -0.3988 -0.1729
  108OSM    H4F11062   1.800   6.011   6.162 -0.8143 -1.7389  0.5746
  108OSM    H4G11063   1.904   5.920   6.271  2.2599 -0.7623 -0.3039
  108OSM    C5F11064   1.992   5.921   6.078  0.0358 -0.1486 -0.1816
  108OSM    H5F11065   2.101   5.932   6.099  0.4603  1.0684 -2.5876
  108OSM    H5G11066   1.980   5.971   5.979 -2.4292  0.8727  0.5617
  108OSM    C6F11067   1.943   5.775   6.049 -0.3486  0.0636  0.4851
  108OSM    H6F11068   1.951   5.719   6.144 -0.2954 -0.2257  0.3118
  108OSM    H6G11069   2.010   5.748   5.964 -2.8579 -0.8905 -1.2937
  108OSM    C7F11070   1.795   5.766   5.998  0.2561 -0.1045  0.4139
  108OSM    H7F11071   1.735   5.803   6.084 -1.1608 -1.3416 -0.0035
  108OSM    H7G11072   1.771   5.658   5.986  0.7461 -0.0661 -1.1540
  108OSM    C8F11073   1.761   5.837   5.865  0.1017  0.2626  0.1680
  108OSM    H8F11074   1.805   5.939   5.871 -0.5917  0.6735 -1.2657
  108OSM    H8G11075   1.651   5.854   5.860  0.2865  1.7034  0.3648
  108OSM    C9F11076   1.816   5.748   5.755 -0.1117 -0.7206 -0.1071
  108OSM    H9F11077   1.925   5.735   5.760  0.0440  0.8045  1.1405
  108OSM   C10F11078   1.750   5.691   5.655 -0.4817 -0.2042 -0.6650
  108OSM   H10F11079   1.803   5.626   5.583  2.1157  1.1007 -0.0449
  108OSM   C11F11080   1.602   5.702   5.632 -0.2811 -0.8024 -0.3182
  108OSM   H11F11081   1.553   5.790   5.678 -0.2743 -1.0917  0.2565
  108OSM   H11G11082   1.542   5.616   5.670 -0.2158 -0.8005 -0.2115
  108OSM   C12F11083   1.570   5.701   5.477 -0.6211  0.2239 -1.6645
  108OSM   H12F11084   1.615   5.619   5.417  1.5839  1.0276 -1.2035
  108OSM   H12G11085   1.629   5.791   5.450 -0.6828  1.0444  0.7300
  108OSM   C13F11086   1.424   5.719   5.427  0.1228 -0.1050  0.1477
  108OSM   H13F11087   1.367   5.785   5.496  1.1262  0.6902  0.2476
  108OSM   H13G11088   1.378   5.619   5.432 -1.4573  0.5997  0.1484
  108OSM   C14F11089   1.406   5.782   5.287 -0.1015 -0.6346 -1.1217
  108OSM   H14F11090   1.469   5.873   5.277 -0.5040 -0.1160  0.6543
  108OSM   H14G11091   1.302   5.821   5.282 -0.0496 -0.4123 -0.5492
  108OSM   C15F11092   1.437   5.685   5.171  0.3405 -0.3946  0.4053
  108OSM   H15F11093   1.359   5.606   5.175 -0.9065  0.8655  2.8738
  108OSM   H15G11094   1.540   5.645   5.176  1.0341  0.9888 -1.5954
  108OSM   C16F11095   1.392   5.748   5.032 -0.0492 -0.1835 -0.0971
  108OSM   H16F11096   1.477   5.814   5.002  0.3766 -1.0623 -0.8698
  108OSM   H16G11097   1.305   5.811   5.060 -0.0633 -0.6145  0.8899
  108OSM   C17F11098   1.357   5.647   4.919 -0.0392  0.3328  0.0561
  108OSM   H17F11099   1.332   5.694   4.821 -0.7626  0.5572  0.3441
  108OSM   H17G11100   1.273   5.583   4.953 -1.7709  2.7623  0.6271
  108OSM   C18F11101   1.483   5.549   4.889 -0.4932 -0.3553 -0.3613
  108OSM   H18F11102   1.489   5.473   4.970  3.3575 -0.1073 -0.2473
  108OSM   H18G11103   1.574   5.612   4.891  0.5333 -1.7942  0.1907
  108OSM   H18H11104   1.468   5.499   4.791  1.1315  0.2619 -0.9614
  109OSM      N11105   3.297   4.466   6.705  0.1011 -0.2783  0.0156
  109OSM    C1511106   3.248   4.529   6.835 -0.8488  0.4452  0.0445
  109OSM   H15A11107   3.225   4.634   6.828  0.8615  0.8371 -0.0551
  109OSM   H15B11108   3.325   4.525   6.910  0.1810 -0.0171 -1.0139
  109OSM   H15C11109   3.173   4.460   6.871 -0.2821 -1.0166 -1.4491
  109OSM    C1411110   3.348   4.328   6.741  0.6298 -0.4505  0.4442
  109OSM   H14A11111   3.267   4.276   6.791  1.1245 -2.1566 -0.4337
  109OSM   H14B11112   3.429   4.328   6.813  0.1329  0.4589  1.0087
  109OSM   H14C11113   3.384   4.277   6.652 -1.7585  0.9384 -1.4358
  109OSM    C1311114   3.185   4.458   6.602  0.4860  0.2967 -0.4241
  109OSM   H13A11115   3.088   4.433   6.644  0.4488  1.3868  0.1810
  109OSM   H13B11116   3.208   4.380   6.531 -0.5935 -0.9219  0.4917
  109OSM   H13C11117   3.174   4.548   6.543  0.9041 -1.4958 -3.4479
  109OSM    C1211118   3.414   4.548   6.655  0.2528  0.1166  1.2032
  109OSM   H12A11119   3.489   4.552   6.733 -0.7078  0.6670  2.1231
  109OSM   H12B11120   3.376   4.649   6.652 -2.1441 -0.6886  1.7921
  109OSM    C1111121   3.495   4.510   6.516  0.3377  0.2905 -0.1568
  109OSM   H11A11122   3.572   4.590   6.510 -0.0707  0.6040 -1.5142
  109OSM   H11B11123   3.414   4.506   6.441 -0.2980 -3.5643  0.5554
  109OSM      P11124   3.661   4.347   6.615 -0.0136  0.3395  0.0249
  109OSM    O1311125   3.692   4.461   6.704  0.3821 -0.2710  0.4397
  109OSM    O1411126   3.619   4.229   6.687  0.4296 -0.1212  0.0257
  109OSM    O1111127   3.788   4.307   6.526 -0.2009 -0.2539  0.1821
  109OSM    O1211128   3.552   4.380   6.509 -0.1903  0.2918  0.3434
  109OSM    C1S11129   3.750   4.205   6.424 -0.3086 -0.7375 -0.8941
  109OSM    H1S11130   3.671   4.248   6.359  1.3047  1.1141 -1.7018
  109OSM    H1T11131   3.718   4.108   6.468  0.0301  0.4833  2.2604
  109OSM     NF11132   3.841   4.118   6.208 -0.3260 -0.3836 -0.8199
  109OSM    HNF11133   3.852   4.019   6.206 -2.3564 -0.7288  1.0004
  109OSM    C2S11134   3.867   4.177   6.337 -0.6335 -0.0693  0.5064
  109OSM    H2S11135   3.918   4.274   6.317 -0.9814  0.2288  1.0385
  109OSM    C3S11136   3.981   4.102   6.422  0.6271  0.0577  0.8296
  109OSM    H3S11137   3.946   4.004   6.460 -0.1512 -1.2012 -2.7683
  109OSM     O311138   4.024   4.181   6.530 -0.2034  0.0952  0.2409
  109OSM    HO311139   3.965   4.257   6.534 -0.6251 -0.1995 -0.3172
  109OSM    C4S11140   4.093   4.072   6.325  0.0309 -0.3373  0.3515
  109OSM    H4S11141   4.142   4.155   6.273  1.6762 -0.0336  2.2117
  109OSM    C5S11142   4.150   3.950   6.304 -0.6552  0.3852 -0.5415
  109OSM    H5S11143   4.109   3.861   6.352  1.7311  1.5585  4.3041
  109OSM    C6S11144   4.266   3.920   6.213  0.5809 -0.4600  0.2376
  109OSM    H6S11145   4.350   3.876   6.270  0.6788  1.6772  1.8885
  109OSM    H6T11146   4.308   4.015   6.173  0.1193  0.0879  1.0194
  109OSM    C7S11147   4.240   3.827   6.091  0.3498 -1.2326 -0.8790
  109OSM    H7S11148   4.199   3.737   6.142  0.9249 -0.0857  1.7871
  109OSM    H7T11149   4.337   3.803   6.041  1.4981 -2.3451  1.6598
  109OSM    C8S11150   4.134   3.881   5.992  1.0445  0.3981 -0.3704
  109OSM    H8S11151   4.158   3.986   5.965 -1.7983  1.7454  1.7870
  109OSM    H8T11152   4.041   3.861   6.050  2.4337 -0.3353  1.7260
  109OSM    C9S11153   4.121   3.792   5.864 -0.1220 -0.2717  0.3685
  109OSM    H9S11154   4.021   3.800   5.817  0.1522  1.8004  0.0567
  109OSM    H9T11155   4.132   3.686   5.896  1.1294 -0.2223  0.1485
  109OSM   C10S11156   4.223   3.820   5.746 -0.4040  0.5426  0.0794
  109OSM   H10S11157   4.328   3.820   5.781 -0.5170  1.6402  0.4363
  109OSM   H10T11158   4.205   3.926   5.719 -0.4960  0.3124 -0.8186
  109OSM   C11S11159   4.211   3.727   5.631  0.0463  0.3660  0.4808
  109OSM   H11S11160   4.109   3.733   5.588  0.1135 -0.3525  0.2142
  109OSM   H11T11161   4.225   3.619   5.655 -3.1164 -0.0413  0.9389
  109OSM   C12S11162   4.306   3.760   5.517  1.0563  0.0221  0.1517
  109OSM   H12S11163   4.408   3.738   5.558  0.7358  0.6897  1.3615
  109OSM   H12T11164   4.306   3.867   5.490  3.3161  0.0442 -0.0159
  109OSM   C13S11165   4.294   3.675   5.387 -0.2210  0.5375  0.0428
  109OSM   H13S11166   4.196   3.696   5.340  1.3548  2.2267 -2.7783
  109OSM   H13T11167   4.281   3.569   5.418 -1.6187  0.9972  1.1015
  109OSM   C14S11168   4.413   3.688   5.293  0.1127 -0.9326 -0.2030
  109OSM   H14S11169   4.511   3.663   5.338 -0.7900 -2.4505  1.0160
  109OSM   H14T11170   4.408   3.795   5.266 -1.2685 -1.4736 -2.3652
  109OSM   C15S11171   4.398   3.607   5.159 -0.2893 -0.2505 -0.3584
  109OSM   H15S11172   4.391   3.503   5.197 -1.8634 -0.2837 -0.6871
  109OSM   H15T11173   4.497   3.609   5.107  0.2416  2.7572  0.6060
  109OSM   C16S11174   4.294   3.648   5.059  0.0377  0.5046  0.2711
  109OSM   H16S11175   4.292   3.757   5.036  1.5373  0.8057  1.4323
  109OSM   H16T11176   4.194   3.634   5.105 -1.0379 -0.2930 -2.1111
  109OSM   C17S11177   4.302   3.566   4.920  0.2463 -0.4191 -0.1422
  109OSM   H17S11178   4.321   3.459   4.946 -2.5599 -1.0142 -0.2547
  109OSM   H17T11179   4.387   3.604   4.859  0.9788  0.5627  1.4248
  109OSM   C18S11180   4.171   3.570   4.851  0.1288  0.4288  0.0722
  109OSM   H18S11181   4.104   3.619   4.924  2.3465  2.2538  0.9873
  109OSM   H18T11182   4.127   3.470   4.830 -1.5502  1.1343  0.0210
  109OSM   H18U11183   4.181   3.636   4.762  1.5031 -0.3200 -0.3554
  109OSM    C1F11184   3.769   4.174   6.116 -0.0543  0.6227  0.9645
  109OSM     OF11185   3.732   4.292   6.124 -0.3270 -0.0524 -0.7472
  109OSM    C2F11186   3.722   4.096   5.995  0.0745 -0.4077 -0.1709
  109OSM    H2F11187   3.613   4.111   5.982  0.4478  1.1381 -2.1470
  109OSM    H2G11188   3.730   3.987   6.012  2.3909 -0.4609 -1.1937
  109OSM    C3F11189   3.808   4.120   5.863 -0.1148  0.0593 -0.4729
  109OSM    H3F11190   3.915   4.114   5.893  0.7386  0.2083 -3.1852
  109OSM    H3G11191   3.787   4.223   5.828 -0.8740 -0.3886 -1.4101
  109OSM    C4F11192   3.779   4.008   5.761  0.4933 -0.5627  0.5844
  109OSM    H4F11193   3.669   4.016   5.750  0.6323  3.5343  0.6434
  109OSM    H4G11194   3.792   3.915   5.821 -0.4402 -0.6140  0.7109
  109OSM    C5F11195   3.862   4.016   5.635 -0.2635  0.2698  0.2954
  109OSM    H5F11196   3.970   4.039   5.645  0.0620  0.1885 -2.4262
  109OSM    H5G11197   3.823   4.107   5.585 -0.7889 -0.8506 -1.4248
  109OSM    C6F11198   3.840   3.894   5.544 -1.0188  0.0187  0.0380
  109OSM    H6F11199   3.733   3.865   5.538 -1.0546 -0.3489  1.8069
  109OSM    H6G11200   3.888   3.808   5.595  0.8382  0.9716 -0.0236
  109OSM    C7F11201   3.892   3.914   5.402 -0.0091  0.0471  0.1935
  109OSM    H7F11202   3.998   3.947   5.408 -0.6990  2.2111  1.1705
  109OSM    H7G11203   3.822   3.982   5.349  2.4136  2.7701  0.2270
  109OSM    C8F11204   3.888   3.776   5.328  0.4444  0.1064 -0.5770
  109OSM    H8F11205   3.787   3.732   5.319  0.6608 -0.2052 -1.5948
  109OSM    H8G11206   3.945   3.705   5.393 -1.8037 -3.1054 -1.8864
  109OSM    C9F11207   3.944   3.811   5.194 -1.8558 -0.1315 -0.2579
  109OSM    H9F11208   4.054   3.821   5.199 -1.9831  1.5130 -0.1858
  109OSM   C10F11209   3.892   3.821   5.068  0.1835 -0.6548 -0.8084
  109OSM   H10F11210   3.954   3.842   4.979  0.5443 -0.0642 -0.4280
  109OSM   C11F11211   3.743   3.809   5.035 -0.4648  2.0843 -0.2394
  109OSM   H11F11212   3.688   3.868   5.111  1.3809 -0.1106  3.0050
  109OSM   H11G11213   3.716   3.703   5.056 -1.0859  2.3890  0.5774
  109OSM   C12F11214   3.705   3.840   4.891 -0.2408  0.9906 -0.1198
  109OSM   H12F11215   3.746   3.933   4.847 -1.8618  0.8951 -1.9580
  109OSM   H12G11216   3.595   3.850   4.884 -0.0507  1.8703 -2.9977
  109OSM   C13F11217   3.731   3.723   4.795  0.3273 -0.3056 -0.5706
  109OSM   H13F11218   3.685   3.626   4.821  0.3882 -0.4811 -1.1144
  109OSM   H13G11219   3.838   3.700   4.811  0.0372 -1.4186 -0.1919
  109OSM   C14F11220   3.726   3.769   4.646 -0.3528  0.0278 -0.1079
  109OSM   H14F11221   3.776   3.867   4.632 -1.4655  0.3650 -2.1523
  109OSM   H14G11222   3.621   3.781   4.612 -0.9704  0.7502  1.9548
  109OSM   C15F11223   3.793   3.676   4.541  0.2065  0.0936 -0.0166
  109OSM   H15F11224   3.777   3.739   4.451  0.1260 -1.2184 -0.9443
  109OSM   H15G11225   3.739   3.580   4.523  3.4460 -2.0003  0.5226
  109OSM   C16F11226   3.948   3.648   4.554 -0.4184  0.2604  0.5735
  109OSM   H16F11227   3.964   3.557   4.615  0.2978 -0.4959 -0.6935
  109OSM   H16G11228   3.990   3.736   4.607  1.3164 -0.2977  0.1742
  109OSM   C17F11229   4.015   3.630   4.420 -0.2446  0.1355  0.4357
  109OSM   H17F11230   4.125   3.623   4.431 -0.4720 -2.5139  1.7631
  109OSM   H17G11231   4.001   3.730   4.373 -3.8493 -0.8625 -0.9942
  109OSM   C18F11232   3.953   3.524   4.337  0.5413  0.3078 -0.2391
  109OSM   H18F11233   3.880   3.578   4.272 -0.4464 -3.2120 -2.3092
  109OSM   H18G11234   3.915   3.438   4.394  0.4172 -0.7182 -1.8069
  109OSM   H18H11235   4.032   3.478   4.274  0.7598  1.7319 -1.0666
  110OSM      N11236   1.668   0.560   6.836 -0.6086  0.0715 -0.4467
  110OSM    C1511237   1.597   0.685   6.839  0.4043  0.1860  0.5200
  110OSM   H15A11238   1.493   0.674   6.816  1.0147 -0.7027 -2.1190
  110OSM   H15B11239   1.641   0.752   6.767  1.2540 -1.9099 -0.9896
  110OSM   H15C11240   1.606   0.730   6.938 -0.4359  1.9413 -0.1476
  110OSM    C1411241   1.818   0.581   6.869  0.0721  0.6269 -0.0256
  110OSM   H14A11242   1.834   0.638   6.959 -1.2552 -0.6892  1.0969
  110OSM   H14B11243   1.868   0.640   6.794 -0.0189  0.8353  0.0782
  110OSM   H14C11244   1.869   0.486   6.879  0.5237  0.6237 -1.9262
  110OSM    C1311245   1.617   0.474   6.947  0.3051 -0.2538  0.5150
  110OSM   H13A11246   1.527   0.429   6.907  0.9835  1.2507 -3.1940
  110OSM   H13B11247   1.620   0.522   7.043  0.6886 -0.5762  0.6667
  110OSM   H13C11248   1.671   0.380   6.949 -1.5492 -1.4009 -0.2831
  110OSM    C1211249   1.653   0.487   6.697 -0.2876  0.2108  0.3303
  110OSM   H12A11250   1.714   0.398   6.695 -1.0880 -0.3478  0.8754
  110OSM   H12B11251   1.684   0.544   6.610 -3.8384 -2.6014 -3.1465
  110OSM    C1111252   1.509   0.448   6.651 -0.5063 -0.4513 -0.1145
  110OSM   H11A11253   1.513   0.410   6.546 -1.3463 -0.0078 -0.3215
  110OSM   H11B11254   1.457   0.546   6.637  1.4904  0.7603  0.4283
  110OSM      P11255   1.444   0.213   6.729 -0.1469 -0.5710 -0.2032
  110OSM    O1311256   1.553   0.175   6.819  0.6738  0.6019 -0.1536
  110OSM    O1411257   1.317   0.144   6.755 -0.6667  0.6976 -0.2458
  110OSM    O1111258   1.498   0.184   6.579  0.1192  0.8079 -0.0924
  110OSM    O1211259   1.436   0.368   6.739  0.2778  0.3645 -0.6277
  110OSM    C1S11260   1.502   0.050   6.534  0.1142 -0.4012  0.2230
  110OSM    H1S11261   1.402   0.001   6.538  0.6222 -1.4035  1.7373
  110OSM    H1T11262   1.576  -0.018   6.580  0.9368 -0.2231 -0.8229
  110OSM     NF11263   1.511  -0.079   6.332  0.4994 -0.2811 -1.0479
  110OSM    HNF11264   1.591  -0.136   6.316  1.8114  1.1684 -0.0562
  110OSM    C2S11265   1.541   0.055   6.383  0.7057 -0.3513 -0.5610
  110OSM    H2S11266   1.470   0.126   6.336 -2.4008 -1.6106  1.9039
  110OSM    C3S11267   1.696   0.108   6.363  0.9723  0.0350  0.4369
  110OSM    H3S11268   1.763   0.033   6.409 -1.2296 -1.1131  1.9906
  110OSM     O311269   1.713   0.232   6.433 -0.5467  0.0989  0.2232
  110OSM    HO311270   1.645   0.240   6.500  1.0770  3.0201  1.7068
  110OSM    C4S11271   1.738   0.117   6.221  0.0861  1.0320 -0.0053
  110OSM    H4S11272   1.796   0.027   6.196 -0.2763  0.7109  0.2977
  110OSM    C5S11273   1.702   0.195   6.128 -0.1173 -0.1460  0.4177
  110OSM    H5S11274   1.634   0.282   6.128  0.2876  0.3070 -2.9559
  110OSM    C6S11275   1.734   0.149   5.985 -0.1004 -0.2276 -0.3615
  110OSM    H6S11276   1.644   0.126   5.923  1.1810 -0.4607 -2.2201
  110OSM    H6T11277   1.796   0.058   5.989 -1.4967 -1.1516  2.3772
  110OSM    C7S11278   1.811   0.271   5.920  0.5138 -0.1909  0.5472
  110OSM    H7S11279   1.905   0.286   5.977 -0.0268  2.3873  0.8685
  110OSM    H7T11280   1.756   0.367   5.926  1.3861  0.5209 -1.7957
  110OSM    C8S11281   1.844   0.238   5.774 -0.0150  0.1951  0.8348
  110OSM    H8S11282   1.881   0.133   5.768  1.4878  0.6867  1.2379
  110OSM    H8T11283   1.932   0.296   5.739 -0.2370 -0.6525 -1.2943
  110OSM    C9S11284   1.719   0.255   5.690 -0.2916  0.5358  0.7214
  110OSM    H9S11285   1.669   0.354   5.685 -0.3614  0.5119  0.9269
  110OSM    H9T11286   1.652   0.179   5.735  3.3802 -2.4330  1.7435
  110OSM   C10S11287   1.752   0.202   5.548  0.5166 -0.7232 -0.3035
  110OSM   H10S11288   1.649   0.201   5.506  0.1606  0.5593  0.4865
  110OSM   H10T11289   1.791   0.098   5.542 -1.2831 -1.4959  0.7492
  110OSM   C11S11290   1.836   0.291   5.464 -0.2250 -0.4531  0.0200
  110OSM   H11S11291   1.942   0.285   5.499  0.9603 -3.8321 -3.4215
  110OSM   H11T11292   1.799   0.395   5.479  1.0291 -0.1296  1.1128
  110OSM   C12S11293   1.834   0.263   5.310  0.0762  0.1938  0.2914
  110OSM   H12S11294   1.730   0.255   5.270  0.5868  0.0086 -1.0360
  110OSM   H12T11295   1.869   0.158   5.303 -0.5915 -0.1314  1.4665
  110OSM   C13S11296   1.911   0.348   5.215 -0.2622 -0.7812 -0.5310
  110OSM   H13S11297   2.018   0.318   5.213 -0.0228  0.0653 -0.9705
  110OSM   H13T11298   1.904   0.454   5.248  0.8506 -0.3316 -1.6564
  110OSM   C14S11299   1.858   0.347   5.070  0.7824 -1.1620  0.3124
  110OSM   H14S11300   1.907   0.428   5.013 -0.2972  1.0033  2.2687
  110OSM   H14T11301   1.755   0.388   5.082  2.5314  4.1376 -0.3899
  110OSM   C15S11302   1.865   0.215   4.983  0.0500 -0.2331  0.0943
  110OSM   H15S11303   1.794   0.225   4.898 -0.5145 -1.0932  0.4515
  110OSM   H15T11304   1.818   0.135   5.045  0.4084 -0.1693  0.4596
  110OSM   C16S11305   2.003   0.177   4.942  0.0593 -0.2138 -0.0996
  110OSM   H16S11306   2.061   0.138   5.028  1.7664 -0.1840 -1.1906
  110OSM   H16T11307   2.068   0.262   4.912  1.0995  0.1810  3.0055
  110OSM   C17S11308   2.012   0.058   4.842  0.1602 -0.5031 -0.6985
  110OSM   H17S11309   1.979   0.092   4.741  1.5433  0.1967 -0.9497
  110OSM   H17T11310   1.946  -0.022   4.880  0.7844 -0.3634  0.7337
  110OSM   C18S11311   2.154   0.024   4.810  0.4299 -0.4042  0.0313
  110OSM   H18S11312   2.161  -0.075   4.760 -0.7223 -0.2622 -0.4384
  110OSM   H18T11313   2.217   0.025   4.902  1.9695  1.5216 -0.9881
  110OSM   H18U11314   2.191   0.098   4.736  1.2830  2.2228  2.8715
  110OSM    C1F11315   1.383  -0.110   6.300  0.5802 -0.2750 -0.2891
  110OSM     OF11316   1.287  -0.044   6.336  0.4216 -0.0405 -0.2321
  110OSM    C2F11317   1.367  -0.234   6.214  0.2844 -0.4470 -0.1076
  110OSM    H2F11318   1.373  -0.319   6.286  2.2267  1.6888  2.4725
  110OSM    H2G11319   1.460  -0.244   6.154 -0.0283 -2.5757 -0.3200
  110OSM    C3F11320   1.246  -0.241   6.126 -0.0400 -0.5934 -0.1233
  110OSM    H3F11321   1.158  -0.222   6.191  1.5099 -0.6356  2.0857
  110OSM    H3G11322   1.232  -0.340   6.078 -4.0117 -1.1746  1.7879
  110OSM    C4F11323   1.239  -0.138   6.015 -0.6003 -0.4397 -0.3572
  110OSM    H4F11324   1.230  -0.041   6.069 -0.1138 -1.3861  1.5099
  110OSM    H4G11325   1.150  -0.140   5.949  0.4014 -0.0218 -1.7524
  110OSM    C5F11326   1.369  -0.132   5.931  0.6618 -0.5930 -0.2839
  110OSM    H5F11327   1.385  -0.228   5.878  1.7431 -1.5564  1.6694
  110OSM    H5G11328   1.458  -0.121   5.996  0.2628 -1.6873  0.4699
  110OSM    C6F11329   1.350  -0.010   5.834 -0.0323  0.2557  0.5597
  110OSM    H6F11330   1.446   0.039   5.806  1.9701 -1.3345  4.0124
  110OSM    H6G11331   1.296   0.066   5.896  0.3575 -0.4494  1.8025
  110OSM    C7F11332   1.257  -0.049   5.716  0.6160  0.4336  0.2196
  110OSM    H7F11333   1.173   0.023   5.717  0.2252 -0.0259  0.8134
  110OSM    H7G11334   1.209  -0.147   5.735  4.1582 -1.4671  0.1792
  110OSM    C8F11335   1.327  -0.057   5.580 -0.5513 -0.3997 -0.2657
  110OSM    H8F11336   1.269  -0.131   5.521  2.7272 -1.8266 -1.9789
  110OSM    H8G11337   1.433  -0.089   5.589 -0.5512 -0.6938 -1.1941
  110OSM    C9F11338   1.322   0.079   5.524 -0.1137 -0.0329 -0.0938
  110OSM    H9F11339   1.259   0.150   5.581 -1.0437 -0.1059 -0.9957
  110OSM   C10F11340   1.399   0.119   5.427 -0.5070  1.1625  0.3918
  110OSM   H10F11341   1.404   0.222   5.388 -0.6731  1.3722  0.9124
  110OSM   C11F11342   1.486   0.031   5.343 -0.3259  0.9418  0.1490
  110OSM   H11F11343   1.479  -0.079   5.351 -0.1262  0.7836 -1.4625
  110OSM   H11G11344   1.591   0.062   5.361  0.2148 -0.8689  0.2558
  110OSM   C12F11345   1.469   0.050   5.193  0.5966 -0.3331  0.1493
  110OSM   H12F11346   1.549  -0.019   5.158  0.7313 -0.8716  1.4578
  110OSM   H12G11347   1.491   0.156   5.165  0.7666  0.0229  1.5504
  110OSM   C13F11348   1.335  -0.010   5.144 -0.0346 -0.5179 -1.6103
  110OSM   H13F11349   1.253   0.056   5.181  1.3594  0.2783  0.2200
  110OSM   H13G11350   1.307  -0.106   5.191  0.1270  0.7615  1.3107
  110OSM   C14F11351   1.319  -0.016   4.994  0.3978 -0.2681 -0.7231
  110OSM   H14F11352   1.333   0.079   4.937 -2.5619  2.2305  2.3250
  110OSM   H14G11353   1.215  -0.044   4.969 -0.1210 -0.3575  1.3910
  110OSM   C15F11354   1.411  -0.121   4.936 -0.3013  0.6030  0.4466
  110OSM   H15F11355   1.424  -0.197   5.016  0.0480 -0.1142 -0.2633
  110OSM   H15G11356   1.512  -0.084   4.906 -0.5515  0.0501 -1.1741
  110OSM   C16F11357   1.347  -0.205   4.816 -0.2642  0.4512 -0.6210
  110OSM   H16F11358   1.290  -0.141   4.745 -2.6179 -1.5819 -0.6992
  110OSM   H16G11359   1.280  -0.282   4.861  1.9648 -0.9413  0.5165
  110OSM   C17F11360   1.451  -0.289   4.741 -0.4696 -0.0568  0.2649
  110OSM   H17F11361   1.541  -0.315   4.800 -0.9097  0.5004  1.2074
  110OSM   H17G11362   1.494  -0.220   4.666 -0.3794  0.7212  1.0293
  110OSM   C18F11363   1.402  -0.408   4.669  0.2661  0.1104  0.9071
  110OSM   H18F11364   1.358  -0.483   4.738  2.9346 -0.0672  2.5564
  110OSM   H18G11365   1.486  -0.460   4.619 -1.6729 -0.5173 -1.9704
  110OSM   H18H11366   1.343  -0.384   4.578 -1.3603 -0.4186  1.7804
  111OSM      N11367   2.808   3.751   6.910  0.1487 -0.4631  0.2586
  111OSM    C1511368   2.831   3.649   7.017 -0.1069 -0.2354  0.3209
  111OSM   H15A11369   2.759   3.569   7.008 -1.6777  1.1598 -0.0789
  111OSM   H15B11370   2.804   3.694   7.112 -0.2389 -3.3966  1.9076
  111OSM   H15C11371   2.931   3.609   7.025  0.7997  1.8432 -0.0817
  111OSM    C1411372   2.819   3.688   6.778  0.3287  0.1291  0.1465
  111OSM   H14A11373   2.757   3.599   6.776 -1.9443  1.6358 -1.6650
  111OSM   H14B11374   2.920   3.656   6.757  0.0215  1.6481 -5.0711
  111OSM   H14C11375   2.779   3.739   6.692 -1.0349 -0.9755  0.0860
  111OSM    C1311376   2.664   3.808   6.933  0.1877 -0.3152 -0.5776
  111OSM   H13A11377   2.595   3.728   6.912 -1.5602  1.0163 -0.1775
  111OSM   H13B11378   2.653   3.885   6.858 -0.9251 -0.5403 -0.6670
  111OSM   H13C11379   2.651   3.848   7.033 -4.3274  3.1511 -2.1930
  111OSM    C1211380   2.896   3.868   6.920 -0.4485 -0.2358  0.0616
  111OSM   H12A11381   2.997   3.837   6.940 -0.1846  1.3018  1.2833
  111OSM   H12B11382   2.885   3.924   7.012 -0.0258  1.7882 -1.0636
  111OSM    C1111383   2.902   3.972   6.810  0.5394 -0.3103  0.3185
  111OSM   H11A11384   2.939   3.933   6.713  1.5227  0.0805  0.5187
  111OSM   H11B11385   2.982   4.042   6.845  1.1361  0.6828 -2.7618
  111OSM      P11386   2.741   4.179   6.799  0.2889  0.0730 -0.2285
  111OSM    O1311387   2.613   4.197   6.870 -0.0599  0.4449 -0.3613
  111OSM    O1411388   2.856   4.253   6.854  0.6106 -0.3005  0.5199
  111OSM    O1111389   2.727   4.224   6.650 -0.6127 -0.1101  0.0639
  111OSM    O1211390   2.773   4.026   6.778 -0.0736 -0.6714 -0.7611
  111OSM    C1S11391   2.820   4.190   6.544  0.6368  0.0672  0.5191
  111OSM    H1S11392   2.806   4.084   6.511 -0.2263  0.2071  0.4074
  111OSM    H1T11393   2.923   4.195   6.584  0.3066 -0.4596  1.4907
  111OSM     NF11394   2.876   4.258   6.309  0.4737  0.1003 -0.7672
  111OSM    HNF11395   2.952   4.317   6.286  0.0137  1.2704  0.5251
  111OSM    C2S11396   2.805   4.294   6.430  0.2044  0.9294  0.0373
  111OSM    H2S11397   2.696   4.302   6.413 -0.4578 -2.1402  2.0403
  111OSM    C3S11398   2.843   4.438   6.480 -0.1854  0.2959  0.7349
  111OSM    H3S11399   2.947   4.443   6.519  0.0343  0.3347  0.1472
  111OSM     O311400   2.759   4.472   6.590 -0.4625 -0.3210  0.0995
  111OSM    HO311401   2.744   4.383   6.624  0.3675 -1.1769 -1.6358
  111OSM    C4S11402   2.817   4.543   6.375  0.8180 -0.4249  0.2982
  111OSM    H4S11403   2.723   4.558   6.320  1.4813 -1.4076 -1.1474
  111OSM    C5S11404   2.906   4.635   6.347 -0.5822  0.3706 -0.5681
  111OSM    H5S11405   3.009   4.622   6.384 -0.8411  0.0787  0.0700
  111OSM    C6S11406   2.880   4.748   6.246 -0.0012  0.0669 -0.4418
  111OSM    H6S11407   2.960   4.822   6.269  2.2257 -2.5821  1.0699
  111OSM    H6T11408   2.780   4.793   6.265 -0.0557  0.3231 -1.2864
  111OSM    C7S11409   2.900   4.723   6.096  0.1308 -0.1555 -0.1792
  111OSM    H7S11410   2.805   4.683   6.054  0.5876 -0.0197 -1.3900
  111OSM    H7T11411   2.983   4.651   6.079 -1.5228 -1.6743 -2.5354
  111OSM    C8S11412   2.939   4.849   6.021 -0.4310  0.0105  0.1094
  111OSM    H8S11413   3.031   4.889   6.069 -0.7258 -0.1450  0.8181
  111OSM    H8T11414   2.854   4.921   6.023  0.4219  1.0436  0.1840
  111OSM    C9S11415   2.974   4.809   5.871 -0.3605  0.4286  0.7796
  111OSM    H9S11416   2.882   4.771   5.822  0.3271 -0.0498 -0.1792
  111OSM    H9T11417   3.064   4.744   5.866 -1.0442 -0.4586 -0.7215
  111OSM   C10S11418   3.017   4.931   5.790  0.1780  0.4623  0.5066
  111OSM   H10S11419   3.107   4.958   5.850  1.4210 -0.9197 -0.6551
  111OSM   H10T11420   2.941   5.013   5.791 -0.0994  0.2677 -1.2773
  111OSM   C11S11421   3.050   4.896   5.646 -0.4029  0.4977  0.2839
  111OSM   H11S11422   3.101   4.797   5.641  2.7837  2.0150 -0.1970
  111OSM   H11T11423   3.114   4.975   5.601  0.8883 -0.2588  0.7124
  111OSM   C12S11424   2.928   4.875   5.551 -0.2681  0.1251 -0.4772
  111OSM   H12S11425   2.870   4.967   5.527 -3.9573 -2.2651 -1.7231
  111OSM   H12T11426   2.861   4.800   5.598  0.1653  0.7260  1.1599
  111OSM   C13S11427   2.981   4.827   5.410 -0.2792  0.6380 -0.2883
  111OSM   H13S11428   3.045   4.737   5.421 -2.1342 -0.4500  2.5245
  111OSM   H13T11429   3.048   4.909   5.373 -0.8895  1.8531  1.1856
  111OSM   C14S11430   2.876   4.770   5.302  0.5822  0.2073 -0.2721
  111OSM   H14S11431   2.818   4.858   5.267  1.5672  0.8850 -0.2239
  111OSM   H14T11432   2.806   4.697   5.348  0.1717 -1.4104 -3.1887
  111OSM   C15S11433   2.936   4.701   5.178  0.3921  1.4281 -0.2957
  111OSM   H15S11434   2.855   4.633   5.142  0.8690  0.1508  0.9805
  111OSM   H15T11435   3.012   4.631   5.218  0.2984 -0.7877 -3.5889
  111OSM   C16S11436   3.000   4.780   5.073  0.2669  0.2381 -0.2832
  111OSM   H16S11437   3.067   4.720   5.008 -0.0782 -0.6405  0.1559
  111OSM   H16T11438   3.059   4.862   5.120 -0.1227  1.2823 -1.5611
  111OSM   C17S11439   2.909   4.856   4.972 -0.6076  0.1818  0.0165
  111OSM   H17S11440   2.968   4.946   4.943  1.3776 -1.0001  0.2389
  111OSM   H17T11441   2.819   4.872   5.035 -0.8231 -1.5345  0.1851
  111OSM   C18S11442   2.880   4.757   4.853  1.2060  0.4258  0.6859
  111OSM   H18S11443   2.855   4.657   4.893 -0.4582 -0.2087 -1.7163
  111OSM   H18T11444   2.982   4.755   4.807  2.1888  2.0495  2.6411
  111OSM   H18U11445   2.800   4.797   4.788  0.0121 -1.8657  0.6584
  111OSM    C1F11446   2.846   4.149   6.244 -0.9279 -0.3059 -0.1278
  111OSM     OF11447   2.736   4.090   6.243 -0.6743 -0.6864 -0.0914
  111OSM    C2F11448   2.966   4.084   6.176 -0.7061 -0.1873  0.3670
  111OSM    H2F11449   3.001   3.995   6.232  0.9311 -0.3373 -0.8060
  111OSM    H2G11450   3.053   4.153   6.170  0.5500 -1.7598 -0.3465
  111OSM    C3F11451   2.927   4.028   6.036  0.2938 -0.9558  0.1670
  111OSM    H3F11452   2.843   3.955   6.045  0.4351 -0.8829  3.7352
  111OSM    H3G11453   3.019   3.975   6.003  0.8240 -0.6414  1.0964
  111OSM    C4F11454   2.893   4.132   5.929 -0.0468  0.0933  0.2276
  111OSM    H4F11455   2.947   4.229   5.928 -1.5542  0.9703  0.7541
  111OSM    H4G11456   2.786   4.159   5.945  0.0058  0.4414 -0.0020
  111OSM    C5F11457   2.903   4.059   5.793 -0.7726 -0.1489  0.0568
  111OSM    H5F11458   2.842   3.967   5.803 -1.4529  0.2653 -0.2095
  111OSM    H5G11459   3.008   4.025   5.778  0.3960  3.5163 -1.2329
  111OSM    C6F11460   2.859   4.146   5.678 -0.6632  0.0089  0.4584
  111OSM    H6F11461   2.882   4.254   5.691 -0.9371  0.0123  0.9421
  111OSM    H6G11462   2.748   4.155   5.683 -0.7217 -0.9312  1.0205
  111OSM    C7F11463   2.909   4.111   5.536 -0.2116  0.3838 -0.7392
  111OSM    H7F11464   2.899   4.003   5.516 -0.1034  0.6586 -2.4076
  111OSM    H7G11465   3.020   4.119   5.537 -0.0328 -1.5324 -1.5025
  111OSM    C8F11466   2.863   4.208   5.431 -0.6857  0.6643  0.2246
  111OSM    H8F11467   2.889   4.308   5.470  1.4341  0.1576  0.2060
  111OSM    H8G11468   2.753   4.199   5.416 -0.6887  0.0980  0.5284
  111OSM    C9F11469   2.939   4.174   5.307  0.1111 -0.5807 -0.0625
  111OSM    H9F11470   3.039   4.132   5.327  0.5128  0.1776 -0.4042
  111OSM   C10F11471   2.902   4.192   5.182  0.0323 -0.5737  0.4926
  111OSM   H10F11472   2.968   4.148   5.106  2.3457  1.0805  1.4224
  111OSM   C11F11473   2.783   4.251   5.125 -0.3369 -0.3586 -1.3130
  111OSM   H11F11474   2.724   4.305   5.202 -0.1292 -1.5655 -0.2751
  111OSM   H11G11475   2.712   4.176   5.082 -1.7613  0.7130 -0.9118
  111OSM   C12F11476   2.819   4.356   5.017  0.4575  0.2881  0.4291
  111OSM   H12F11477   2.897   4.431   5.042  0.4584  1.1475 -1.9232
  111OSM   H12G11478   2.732   4.420   4.989  0.2276  0.9444  2.4755
  111OSM   C13F11479   2.881   4.292   4.884  0.4136  0.7262 -0.4172
  111OSM   H13F11480   2.813   4.217   4.837  2.0186 -1.1525  0.1029
  111OSM   H13G11481   2.972   4.234   4.908 -0.5348 -0.0985  1.4047
  111OSM   C14F11482   2.922   4.400   4.789  0.4419  0.2230 -0.2693
  111OSM   H14F11483   3.009   4.456   4.829 -0.6588  0.2194  2.3328
  111OSM   H14G11484   2.836   4.470   4.786 -0.3341 -0.7409 -1.1069
  111OSM   C15F11485   2.946   4.344   4.646  0.2053  0.4999 -0.4389
  111OSM   H15F11486   2.855   4.283   4.628 -0.2102  1.4428 -1.6209
  111OSM   H15G11487   3.031   4.272   4.651  0.9828  1.3836 -0.7785
  111OSM   C16F11488   2.964   4.438   4.529  0.3121 -0.2071  0.0262
  111OSM   H16F11489   2.881   4.511   4.523  0.6938  0.3456  1.2160
  111OSM   H16G11490   2.967   4.383   4.433 -0.4111  0.2733 -0.2800
  111OSM   C17F11491   3.101   4.511   4.524  0.7150  0.4428 -0.1265
  111OSM   H17F11492   3.135   4.533   4.627  0.7771  0.9076 -0.2464
  111OSM   H17G11493   3.069   4.605   4.476 -3.5625 -0.6352  0.2343
  111OSM   C18F11494   3.205   4.446   4.441  0.6339  0.0776  0.0277
  111OSM   H18F11495   3.210   4.339   4.470  1.5250 -0.0440 -0.5112
  111OSM   H18G11496   3.305   4.491   4.460  2.3937 -3.6627  0.6262
  111OSM   H18H11497   3.173   4.454   4.335  1.3454  1.8033 -0.0901
  112OSM      N11498   4.907   2.205   7.078 -0.2199  0.6647  0.1804
  112OSM    C1511499   4.806   2.113   7.132 -0.1982  0.5764 -0.4933
  112OSM   H15A11500   4.726   2.171   7.176  0.5452  2.0167 -0.9895
  112OSM   H15B11501   4.846   2.049   7.210 -1.0763  1.0522  0.3795
  112OSM   H15C11502   4.766   2.057   7.049 -0.3366  1.5969 -1.1297
  112OSM    C1411503   4.858   2.287   6.960  0.0257 -0.8516 -0.2467
  112OSM   H14A11504   4.929   2.362   6.928  0.8721 -2.4795 -2.4599
  112OSM   H14B11505   4.769   2.341   6.987 -0.1891  0.2112 -2.7769
  112OSM   H14C11506   4.830   2.220   6.879  0.1512 -2.2888  0.8491
  112OSM    C1311507   4.947   2.303   7.184 -0.3457 -0.2252 -0.6971
  112OSM   H13A11508   4.952   2.265   7.285 -0.7301  0.6763 -0.3197
  112OSM   H13B11509   4.874   2.381   7.204  1.1510  0.5460  2.4759
  112OSM   H13C11510   5.035   2.361   7.161  0.4039 -0.9698  0.2528
  112OSM    C1211511   5.031   2.136   7.021 -0.1549  0.2352 -0.8241
  112OSM   H12A11512   5.088   2.098   7.105  0.5939 -0.5462 -1.6704
  112OSM   H12B11513   5.099   2.213   6.986 -0.6897  1.4671  0.6917
  112OSM    C1111514   5.026   2.034   6.910  0.5882  0.4699 -0.0982
  112OSM   H11A11515   5.130   1.999   6.892 -0.1386 -0.8458 -2.0109
  112OSM   H11B11516   4.997   2.079   6.813  1.1054  0.8852 -0.0665
  112OSM      P11517   4.995   1.800   7.028 -0.3663 -0.1657  0.2588
  112OSM    O1311518   5.088   1.854   7.127  0.6576  0.2994 -0.0928
  112OSM    O1411519   4.880   1.716   7.075 -0.3039 -0.3716  0.6838
  112OSM    O1111520   5.077   1.716   6.929  0.1874  0.2209 -0.2581
  112OSM    O1211521   4.945   1.917   6.937 -0.3845  0.4798 -0.3653
  112OSM    C1S11522   5.030   1.670   6.806  0.0415  0.5237  0.1090
  112OSM    H1S11523   4.921   1.671   6.788  0.5408  0.6550 -3.9873
  112OSM    H1T11524   5.059   1.565   6.787  0.5056  0.8673 -1.1893
  112OSM     NF11525   5.028   1.703   6.552 -0.0793 -0.7854  0.3627
  112OSM    HNF11526   5.098   1.675   6.486  1.6284  0.9980  1.2899
  112OSM    C2S11527   5.089   1.745   6.679  0.0645 -0.5606 -0.2326
  112OSM    H2S11528   5.066   1.854   6.681 -1.1516 -0.8084  0.2472
  112OSM    C3S11529   5.250   1.736   6.682  0.3097  0.1546 -0.1146
  112OSM    H3S11530   5.287   1.643   6.635 -0.9384 -0.3532 -0.1270
  112OSM     O311531   5.307   1.747   6.807  0.0130 -0.0355 -0.2108
  112OSM    HO311532   5.240   1.724   6.872  1.3461  0.4411  1.3953
  112OSM    C4S11533   5.304   1.847   6.596 -0.2179 -0.1416 -0.0792
  112OSM    H4S11534   5.349   1.805   6.504  3.2085 -1.1697  1.8773
  112OSM    C5S11535   5.306   1.976   6.628  0.9069 -0.4838  0.5374
  112OSM    H5S11536   5.274   2.014   6.726  0.3009  2.0517 -0.5585
  112OSM    C6S11537   5.367   2.088   6.550 -0.2476  0.5191  0.2987
  112OSM    H6S11538   5.470   2.119   6.577  0.1477 -0.5834  0.1283
  112OSM    H6T11539   5.303   2.178   6.558  0.0987  0.8727 -0.7850
  112OSM    C7S11540   5.386   2.050   6.395  0.0211 -0.6063  0.2805
  112OSM    H7S11541   5.378   2.143   6.335  1.2541 -0.4775  0.2921
  112OSM    H7T11542   5.303   1.989   6.354  1.4961 -1.9171 -0.9125
  112OSM    C8S11543   5.520   1.978   6.368 -0.3773  0.1040  0.1992
  112OSM    H8S11544   5.531   1.881   6.422  0.3791 -0.5018 -0.9927
  112OSM    H8T11545   5.608   2.034   6.406 -0.1397  0.5618 -0.9650
  112OSM    C9S11546   5.559   1.949   6.221 -0.2793  0.5746  0.8472
  112OSM    H9S11547   5.657   1.902   6.243 -0.3206  0.9166  1.7870
  112OSM    H9T11548   5.574   2.046   6.169 -0.3132 -0.2762 -0.8294
  112OSM   C10S11549   5.452   1.860   6.141  0.6237 -0.0124 -0.4130
  112OSM   H10S11550   5.360   1.921   6.129  0.6802  0.4364  1.1857
  112OSM   H10T11551   5.421   1.772   6.201  0.3195  0.0240 -0.5161
  112OSM   C11S11552   5.505   1.822   6.004 -0.1037  0.1033  0.6929
  112OSM   H11S11553   5.606   1.774   6.003 -0.3840 -0.5543  1.9564
  112OSM   H11T11554   5.517   1.914   5.944  2.2828 -1.1446 -0.9294
  112OSM   C12S11555   5.407   1.733   5.927  0.2888  0.4009 -0.2609
  112OSM   H12S11556   5.309   1.782   5.908  0.0451 -0.6447 -1.8172
  112OSM   H12T11557   5.388   1.646   5.993 -2.2610  0.3795 -0.9162
  112OSM   C13S11558   5.456   1.694   5.792 -0.2975  0.2553  0.4756
  112OSM   H13S11559   5.547   1.630   5.795  0.2656  0.7086 -2.8837
  112OSM   H13T11560   5.489   1.786   5.738  1.2782  0.0099  0.9757
  112OSM   C14S11561   5.361   1.623   5.704  0.3328  0.0316  0.4127
  112OSM   H14S11562   5.261   1.671   5.712 -0.0949 -0.2000 -2.6259
  112OSM   H14T11563   5.351   1.517   5.739  0.8063 -0.5188 -1.0620
  112OSM   C15S11564   5.398   1.617   5.559 -0.8078  0.6756  0.0169
  112OSM   H15S11565   5.504   1.583   5.550 -1.0528 -0.0084 -0.3092
  112OSM   H15T11566   5.388   1.717   5.512 -1.5148 -0.2088 -1.8010
  112OSM   C16S11567   5.309   1.514   5.481  0.3709  0.0623  0.1537
  112OSM   H16S11568   5.341   1.409   5.501  2.7887  0.0979 -2.8774
  112OSM   H16T11569   5.323   1.526   5.372 -0.6688 -0.2822 -0.0315
  112OSM   C17S11570   5.160   1.523   5.520  0.6200 -0.1715 -0.0105
  112OSM   H17S11571   5.144   1.498   5.627  1.7706 -0.7621  0.0320
  112OSM   H17T11572   5.096   1.455   5.460 -1.5829  0.5346  1.3865
  112OSM   C18S11573   5.108   1.664   5.487  0.0755 -0.3622 -0.4497
  112OSM   H18S11574   5.120   1.675   5.377  0.7421  0.2029 -0.3312
  112OSM   H18T11575   5.165   1.743   5.541 -0.2060 -1.4571  1.5344
  112OSM   H18U11576   5.004   1.682   5.522  0.4887 -0.6428  1.0086
  112OSM    C1F11577   4.901   1.715   6.523  0.5050  0.0349  0.0392
  112OSM     OF11578   4.814   1.763   6.598  0.0085 -0.3124  0.1561
  112OSM    C2F11579   4.864   1.671   6.383  0.2059  0.1559 -0.1877
  112OSM    H2F11580   4.917   1.577   6.357  1.9075  0.6106  1.3941
  112OSM    H2G11581   4.889   1.742   6.302 -0.1492 -0.0070 -0.4416
  112OSM    C3F11582   4.720   1.647   6.372  0.1867 -0.1097  0.1587
  112OSM    H3F11583   4.677   1.749   6.362  0.3833 -0.0450 -0.0320
  112OSM    H3G11584   4.680   1.600   6.465  0.7822 -0.8162  0.0622
  112OSM    C4F11585   4.681   1.558   6.247 -0.7714  0.7163 -0.2062
  112OSM    H4F11586   4.594   1.609   6.202 -0.6336  0.2919 -0.9843
  112OSM    H4G11587   4.658   1.455   6.282 -2.6949  1.1848 -0.0134
  112OSM    C5F11588   4.785   1.550   6.131  0.2325  0.0331 -0.7608
  112OSM    H5F11589   4.876   1.497   6.168  0.9396  1.7343  0.0191
  112OSM    H5G11590   4.826   1.649   6.101 -0.2736 -0.3187 -2.7079
  112OSM    C6F11591   4.741   1.470   6.006  0.2978 -0.1306  0.2056
  112OSM    H6F11592   4.650   1.528   5.979  0.6565  0.9226  1.1976
  112OSM    H6G11593   4.711   1.364   6.018 -0.0847 -0.3185 -1.9376
  112OSM    C7F11594   4.821   1.482   5.877  0.0993  0.0758 -0.5225
  112OSM    H7F11595   4.908   1.413   5.881 -1.2401 -1.6292  0.2973
  112OSM    H7G11596   4.855   1.588   5.872 -0.8361  0.3486 -1.2927
  112OSM    C8F11597   4.732   1.456   5.753 -0.5724 -0.1000  0.0145
  112OSM    H8F11598   4.659   1.539   5.750 -1.3835 -0.8053 -2.2150
  112OSM    H8G11599   4.674   1.361   5.754 -0.5663 -0.1023  0.1143
  112OSM    C9F11600   4.818   1.458   5.627 -0.3028  0.0877 -0.4452
  112OSM    H9F11601   4.925   1.440   5.642  0.2077  1.2207 -2.3535
  112OSM   C10F11602   4.767   1.465   5.498 -0.4059 -0.1578  0.1122
  112OSM   H10F11603   4.837   1.467   5.413 -0.1165 -2.3545  0.2458
  112OSM   C11F11604   4.626   1.472   5.456 -0.0646 -0.2166  0.8946
  112OSM   H11F11605   4.613   1.578   5.425 -0.0549 -0.5140 -0.1668
  112OSM   H11G11606   4.554   1.448   5.537  0.0611  1.0914  1.4058
  112OSM   C12F11607   4.596   1.384   5.330  0.1056  0.0830 -0.4061
  112OSM   H12F11608   4.494   1.402   5.289 -0.2674 -0.3694  0.3042
  112OSM   H12G11609   4.592   1.280   5.370 -1.5348  0.2041 -0.1621
  112OSM   C13F11610   4.694   1.394   5.211  0.8095  0.2372 -0.7077
  112OSM   H13F11611   4.797   1.366   5.240 -0.1067 -1.7099  0.8742
  112OSM   H13G11612   4.693   1.492   5.158  0.8290 -0.2373 -1.6216
  112OSM   C14F11613   4.652   1.295   5.106 -0.3083 -0.1619 -0.3499
  112OSM   H14F11614   4.543   1.297   5.086 -0.2345  2.5329 -0.7688
  112OSM   H14G11615   4.679   1.195   5.146  0.6770  0.1261 -0.2644
  112OSM   C15F11616   4.724   1.328   4.977  0.9541  0.6931  0.0112
  112OSM   H15F11617   4.829   1.349   5.005 -0.6261  2.6352  5.7645
  112OSM   H15G11618   4.670   1.409   4.923 -0.3451 -0.1639 -0.0369
  112OSM   C16F11619   4.717   1.208   4.882 -0.5223 -0.4429 -0.0027
  112OSM   H16F11620   4.725   1.112   4.937  0.8605  0.1755  0.9527
  112OSM   H16G11621   4.814   1.224   4.830 -0.6742  3.6630  0.6540
  112OSM   C17F11622   4.603   1.190   4.778  0.6083 -0.0876  0.0362
  112OSM   H17F11623   4.632   1.086   4.749 -0.2664  0.0931 -1.5636
  112OSM   H17G11624   4.614   1.272   4.705 -0.0560 -0.2506 -0.2496
  112OSM   C18F11625   4.461   1.193   4.827 -0.7224  0.6769 -0.2573
  112OSM   H18F11626   4.439   1.110   4.897 -0.1511  1.4732  0.9031
  112OSM   H18G11627   4.388   1.188   4.744 -0.1140  1.0208 -0.8322
  112OSM   H18H11628   4.443   1.282   4.891 -2.5120  0.2992 -0.2091
  113OSM      N11629   3.817   2.215   7.111 -0.7820 -0.7325 -0.2820
  113OSM    C1511630   3.902   2.093   7.103 -0.1272 -0.2551  0.0038
  113OSM   H15A11631   3.951   2.092   7.007 -0.8473 -0.7592 -0.3669
  113OSM   H15B11632   3.851   1.998   7.105  3.3694 -2.3234 -0.4847
  113OSM   H15C11633   3.980   2.073   7.174 -0.7303  0.3966  0.8740
  113OSM    C1411634   3.712   2.192   7.006  0.6357  0.2531 -0.1752
  113OSM   H14A11635   3.655   2.103   7.023  1.1926 -0.2855 -1.0279
  113OSM   H14B11636   3.745   2.188   6.903  0.5729 -1.4123 -0.1506
  113OSM   H14C11637   3.652   2.282   7.007 -0.2124 -0.3140  0.5388
  113OSM    C1311638   3.750   2.221   7.236 -0.1586 -0.7330 -0.6973
  113OSM   H13A11639   3.829   2.249   7.304 -0.0353 -0.9541 -0.7466
  113OSM   H13B11640   3.711   2.120   7.242  0.0944 -0.8960 -1.5986
  113OSM   H13C11641   3.670   2.293   7.230 -0.3132 -1.0003 -2.3659
  113OSM    C1211642   3.892   2.342   7.084 -1.2591  0.8118  0.7829
  113OSM   H12A11643   3.948   2.323   6.993  0.6912  2.2767  1.6020
  113OSM   H12B11644   3.961   2.355   7.165  0.1958  0.3139 -0.3387
  113OSM    C1111645   3.816   2.472   7.063  0.3894  0.1722 -0.3201
  113OSM   H11A11646   3.887   2.557   7.056 -1.3403  1.5721 -1.6353
  113OSM   H11B11647   3.760   2.489   7.157  1.4904 -0.9691  0.5830
  113OSM      P11648   3.633   2.571   6.905  0.0201  0.0434 -0.4573
  113OSM    O1311649   3.542   2.575   7.019 -0.2848 -0.0975  0.1081
  113OSM    O1411650   3.713   2.689   6.864  0.3998 -0.6264 -0.3832
  113OSM    O1111651   3.557   2.514   6.778 -0.3022 -0.1845 -0.5303
  113OSM    O1211652   3.742   2.467   6.943  0.3077  0.1242 -0.1176
  113OSM    C1S11653   3.626   2.413   6.699  1.3298 -0.2082  0.7880
  113OSM    H1S11654   3.592   2.309   6.717 -0.5892  0.2621  0.0813
  113OSM    H1T11655   3.737   2.403   6.706  1.3958 -0.4920 -0.4004
  113OSM     NF11656   3.635   2.315   6.471 -0.1056  0.7075  0.3233
  113OSM    HNF11657   3.722   2.311   6.424 -1.3896 -3.4709 -2.2477
  113OSM    C2S11658   3.599   2.438   6.540  0.7368 -0.5612 -0.3736
  113OSM    H2S11659   3.490   2.451   6.528  0.7559  0.2773  0.2675
  113OSM    C3S11660   3.671   2.561   6.486  0.8039 -0.5947 -0.3513
  113OSM    H3S11661   3.779   2.537   6.496  0.6772 -1.7145 -1.4230
  113OSM     O311662   3.649   2.688   6.556 -0.4541 -0.4740 -0.2218
  113OSM    HO311663   3.610   2.662   6.639 -0.1697  0.3033  0.1560
  113OSM    C4S11664   3.641   2.578   6.340  0.5833  0.3475  0.3241
  113OSM    H4S11665   3.732   2.565   6.279  1.2649  0.9129  1.2045
  113OSM    C5S11666   3.526   2.627   6.281  0.2042 -0.3013 -0.6326
  113OSM    H5S11667   3.452   2.665   6.353  0.5009  1.5966 -1.2951
  113OSM    C6S11668   3.501   2.661   6.133 -0.3259 -0.1135 -0.0334
  113OSM    H6S11669   3.551   2.757   6.110 -0.3817 -0.3163 -1.0524
  113OSM    H6T11670   3.395   2.681   6.105 -0.3324  0.5761  0.4434
  113OSM    C7S11671   3.560   2.554   6.045  0.1522  0.2651 -0.3250
  113OSM    H7S11672   3.523   2.455   6.079 -1.4257 -0.0969 -2.8146
  113OSM    H7T11673   3.670   2.550   6.059 -0.2960 -0.9784  4.8505
  113OSM    C8S11674   3.531   2.579   5.893 -0.5412  0.3243  0.0864
  113OSM    H8S11675   3.575   2.668   5.843 -0.6016  1.4309  1.9090
  113OSM    H8T11676   3.421   2.592   5.882 -0.9800 -0.8624  2.4796
  113OSM    C9S11677   3.572   2.454   5.808  0.5508 -0.9536 -1.2666
  113OSM    H9S11678   3.522   2.366   5.853  0.6551 -1.3335 -1.8841
  113OSM    H9T11679   3.682   2.438   5.801  0.6593 -0.4976 -0.6543
  113OSM   C10S11680   3.523   2.475   5.661  0.0253 -0.6438 -0.1975
  113OSM   H10S11681   3.549   2.581   5.636 -1.3184  0.2624  1.9279
  113OSM   H10T11682   3.412   2.471   5.668 -0.2571  0.9164 -2.5356
  113OSM   C11S11683   3.563   2.375   5.548 -0.0857 -0.4628 -0.5909
  113OSM   H11S11684   3.538   2.274   5.588 -1.4262 -0.0616 -0.3777
  113OSM   H11T11685   3.673   2.379   5.531  0.0605  2.3432  0.4544
  113OSM   C12S11686   3.506   2.420   5.415  0.8808  0.0390 -1.0282
  113OSM   H12S11687   3.507   2.530   5.408 -3.7332  0.6270  2.6310
  113OSM   H12T11688   3.399   2.393   5.409  0.9548 -0.1715 -1.4527
  113OSM   C13S11689   3.578   2.367   5.293 -0.0961  0.1448  0.0304
  113OSM   H13S11690   3.575   2.256   5.284  0.3577  0.2715 -2.4410
  113OSM   H13T11691   3.684   2.400   5.300 -0.0420  0.1776 -0.7931
  113OSM   C14S11692   3.524   2.425   5.160  0.0681  0.1471 -0.3156
  113OSM   H14S11693   3.537   2.535   5.150  0.1920  0.1868  0.2902
  113OSM   H14T11694   3.417   2.394   5.153  0.1031 -0.2904  0.9285
  113OSM   C15S11695   3.601   2.377   5.032  0.2897 -0.3412  0.5123
  113OSM   H15S11696   3.594   2.267   5.014 -1.9419  0.1346 -2.0730
  113OSM   H15T11697   3.709   2.400   5.046 -0.0085  0.7604  1.0897
  113OSM   C16S11698   3.550   2.461   4.912  0.5485  0.3419  0.8201
  113OSM   H16S11699   3.575   2.569   4.920 -0.0247  0.6935 -1.5643
  113OSM   H16T11700   3.439   2.451   4.915  0.6559 -0.8540  3.0366
  113OSM   C17S11701   3.601   2.412   4.778 -0.4623  0.4438  0.2141
  113OSM   H17S11702   3.563   2.309   4.761  0.3737  0.3776 -1.4519
  113OSM   H17T11703   3.711   2.403   4.783 -0.2216  2.5831 -0.1751
  113OSM   C18S11704   3.544   2.494   4.656  0.6420  0.0686 -0.2292
  113OSM   H18S11705   3.444   2.531   4.689  0.3245 -2.8426  2.5859
  113OSM   H18T11706   3.537   2.432   4.565  1.2613 -0.7887  0.2879
  113OSM   H18U11707   3.600   2.587   4.632  1.8607 -0.6477 -0.2387
  113OSM    C1F11708   3.563   2.198   6.487 -0.8127 -0.6589  0.0169
  113OSM     OF11709   3.453   2.202   6.541 -1.1004  0.1249 -0.1077
  113OSM    C2F11710   3.624   2.076   6.417  0.3004  0.4496 -0.0903
  113OSM    H2F11711   3.649   2.006   6.500 -0.2710 -1.1975 -1.2649
  113OSM    H2G11712   3.723   2.113   6.381 -0.5484  2.2157 -0.7441
  113OSM    C3F11713   3.552   2.015   6.303 -0.1482  0.0095 -0.4531
  113OSM    H3F11714   3.551   2.090   6.221  4.5117  0.5229 -0.2915
  113OSM    H3G11715   3.458   1.967   6.337  0.0880 -0.7062 -0.7909
  113OSM    C4F11716   3.624   1.889   6.237  0.2913 -0.1608  0.8209
  113OSM    H4F11717   3.644   1.813   6.316 -1.1011 -3.4820 -1.7333
  113OSM    H4G11718   3.718   1.916   6.184  0.5842 -1.3804  0.6868
  113OSM    C5F11719   3.539   1.823   6.124  0.5862 -0.0103 -0.0088
  113OSM    H5F11720   3.442   1.780   6.159  0.8990 -0.2628  0.5632
  113OSM    H5G11721   3.599   1.740   6.081  0.4913  0.0768 -0.3077
  113OSM    C6F11722   3.510   1.919   6.008 -0.3483 -0.0010 -0.2329
  113OSM    H6F11723   3.604   1.974   5.984  0.1724 -0.4690  0.6484
  113OSM    H6G11724   3.445   1.993   6.060 -0.1915 -0.0318  0.0083
  113OSM    C7F11725   3.436   1.842   5.899 -0.4651 -0.0254 -0.1692
  113OSM    H7F11726   3.333   1.817   5.930 -0.2484  0.5002  1.0145
  113OSM    H7G11727   3.491   1.745   5.892 -3.3604 -1.7793 -0.5313
  113OSM    C8F11728   3.426   1.914   5.763  0.1298  1.0185 -0.6633
  113OSM    H8F11729   3.517   1.973   5.739  0.9246 -0.9330 -2.8573
  113OSM    H8G11730   3.347   1.991   5.780  0.6748  1.2096  1.2308
  113OSM    C9F11731   3.395   1.815   5.653 -0.0289 -0.4948 -0.5096
  113OSM    H9F11732   3.369   1.715   5.691  0.2841 -0.6241 -0.6355
  113OSM   C10F11733   3.401   1.853   5.519 -0.5151 -0.3450  0.3178
  113OSM   H10F11734   3.374   1.776   5.445 -0.4939  1.1406 -1.2799
  113OSM   C11F11735   3.427   1.993   5.455  0.4790  0.5077  0.2472
  113OSM   H11F11736   3.522   1.999   5.398 -0.3873  1.4823 -1.1980
  113OSM   H11G11737   3.430   2.074   5.532 -0.7557  1.4689 -0.6543
  113OSM   C12F11738   3.299   2.025   5.365 -0.1703  0.3586 -0.0556
  113OSM   H12F11739   3.309   2.129   5.327  0.2901 -0.1860 -1.5031
  113OSM   H12G11740   3.218   2.017   5.441  0.9213  0.0249  1.1040
  113OSM   C13F11741   3.270   1.946   5.235 -0.7320 -0.3025  0.6205
  113OSM   H13F11742   3.160   1.946   5.219 -0.5358  1.6061 -1.0547
  113OSM   H13G11743   3.323   1.848   5.235 -0.5363 -0.1961  1.4720
  113OSM   C14F11744   3.328   2.017   5.109  0.2016  0.6116 -0.4257
  113OSM   H14F11745   3.371   1.938   5.043 -0.5902  0.8704 -1.2792
  113OSM   H14G11746   3.419   2.073   5.138 -0.5935  2.4886 -1.3713
  113OSM   C15F11747   3.232   2.089   5.009 -0.1650  0.4660  0.3474
  113OSM   H15F11748   3.199   2.174   5.072 -0.1320 -1.1535  2.6595
  113OSM   H15G11749   3.147   2.021   4.985 -0.7286  1.5300 -0.7737
  113OSM   C16F11750   3.296   2.137   4.877  0.2291 -0.4681 -0.5362
  113OSM   H16F11751   3.298   2.047   4.813  1.2912 -0.5457 -0.4211
  113OSM   H16G11752   3.397   2.179   4.898 -0.7368  2.0910 -0.6145
  113OSM   C17F11753   3.213   2.247   4.801  0.1237 -0.3350  0.4974
  113OSM   H17F11754   3.221   2.343   4.857  0.6779 -0.8296  1.2867
  113OSM   H17G11755   3.105   2.223   4.804  0.2925 -1.1251  0.5670
  113OSM   C18F11756   3.257   2.260   4.652  0.7923 -0.0922  0.2734
  113OSM   H18F11757   3.366   2.243   4.643  0.8296 -0.0758  0.6766
  113OSM   H18G11758   3.228   2.361   4.615 -0.4368 -1.1374 -1.7462
  113OSM   H18H11759   3.205   2.185   4.590  1.3885 -2.0657  2.0459
  114OSM      N11760   1.450   1.212   7.079  0.0965  0.3034 -0.3349
  114OSM    C1511761   1.443   1.089   7.156  0.0080  0.2576  0.6306
  114OSM   H15A11762   1.369   1.018   7.124 -0.3846  0.9869 -0.1002
  114OSM   H15B11763   1.426   1.100   7.263 -1.0963 -1.0728  0.6180
  114OSM   H15C11764   1.536   1.037   7.139 -1.0970 -1.5047 -0.2601
  114OSM    C1411765   1.312   1.272   7.080  0.5586  0.0903 -0.0288
  114OSM   H14A11766   1.269   1.281   7.179 -1.8984  0.8967 -1.0907
  114OSM   H14B11767   1.251   1.204   7.022  1.4007  0.3469 -1.2473
  114OSM   H14C11768   1.316   1.366   7.028  0.3390  0.0485 -0.1208
  114OSM    C1311769   1.552   1.307   7.145  0.3026  0.0990 -0.3000
  114OSM   H13A11770   1.653   1.270   7.131 -0.7901 -2.5744 -2.0930
  114OSM   H13B11771   1.545   1.315   7.252  1.2575 -1.7297 -0.0525
  114OSM   H13C11772   1.551   1.405   7.100 -2.0701 -0.3503 -1.3864
  114OSM    C1211773   1.497   1.184   6.933  0.6004 -0.5171 -0.3189
  114OSM   H12A11774   1.605   1.180   6.939  0.6360  1.5867  1.7240
  114OSM   H12B11775   1.477   1.274   6.877  3.1991 -0.0520 -0.6285
  114OSM    C1111776   1.442   1.067   6.850  0.1793  0.3732  1.0428
  114OSM   H11A11777   1.488   0.970   6.878  0.9550  0.6156  0.6376
  114OSM   H11B11778   1.485   1.069   6.747 -0.3227 -1.5149  0.7450
  114OSM      P11779   1.245   1.178   6.746  0.4068  0.4623 -0.3222
  114OSM    O1311780   1.120   1.226   6.794  0.6290 -0.1034  0.5887
  114OSM    O1411781   1.341   1.279   6.707 -0.7128 -0.1885 -0.3902
  114OSM    O1111782   1.229   1.091   6.615  0.5015  0.0453  0.1621
  114OSM    O1211783   1.303   1.068   6.844 -0.1511  0.2869  1.1613
  114OSM    C1S11784   1.103   1.044   6.555 -0.4600 -0.5315 -0.2289
  114OSM    H1S11785   1.024   1.120   6.573  0.6013  0.6746 -0.5908
  114OSM    H1T11786   1.064   0.949   6.597 -0.2942 -0.3508  0.3404
  114OSM     NF11787   1.003   1.043   6.334  0.8011 -0.3986  0.6278
  114OSM    HNF11788   0.958   0.955   6.325 -0.4306  0.0804  1.6108
  114OSM    C2S11789   1.128   1.037   6.402  0.2329  0.0505  0.3605
  114OSM    H2S11790   1.193   1.116   6.359 -0.9876  0.4225 -0.8655
  114OSM    C3S11791   1.207   0.907   6.364  0.1502 -0.8150  0.4208
  114OSM    H3S11792   1.146   0.833   6.421  0.5336  0.0019  1.9431
  114OSM     O311793   1.331   0.897   6.425  0.4528 -0.8698 -0.3118
  114OSM    HO311794   1.332   0.975   6.482  2.1085  0.4745 -2.0525
  114OSM    C4S11795   1.214   0.876   6.221 -0.0844 -0.2532 -0.2272
  114OSM    H4S11796   1.181   0.775   6.191  0.5175 -0.7175  0.6698
  114OSM    C5S11797   1.275   0.948   6.124  0.2540  0.3589 -0.2952
  114OSM    H5S11798   1.335   1.040   6.135 -0.0327  0.6662 -1.2473
  114OSM    C6S11799   1.285   0.894   5.984  0.1059 -0.4268  0.0575
  114OSM    H6S11800   1.232   0.797   5.966  0.7833 -0.6082 -1.0769
  114OSM    H6T11801   1.389   0.862   5.961  0.0722 -1.1586  0.8752
  114OSM    C7S11802   1.233   1.002   5.885 -0.0075  0.0217  0.1019
  114OSM    H7S11803   1.280   1.100   5.910  0.1706  0.3525 -1.4428
  114OSM    H7T11804   1.124   1.014   5.907  0.0648  2.1402 -0.4740
  114OSM    C8S11805   1.272   0.973   5.739 -0.1908 -0.0007 -0.5688
  114OSM    H8S11806   1.228   0.872   5.723  1.5891 -0.8832 -0.1277
  114OSM    H8T11807   1.382   0.966   5.737 -0.0282  0.4860  2.4327
  114OSM    C9S11808   1.225   1.081   5.647 -0.7287  0.5065  0.6031
  114OSM    H9S11809   1.288   1.170   5.662 -0.0066 -0.0300  0.7882
  114OSM    H9T11810   1.119   1.104   5.673 -0.6987  0.8175  0.4481
  114OSM   C10S11811   1.242   1.036   5.498  0.2438 -0.3772 -0.2062
  114OSM   H10S11812   1.190   0.940   5.477 -1.2394  0.0173  1.4302
  114OSM   H10T11813   1.352   1.023   5.484  0.0178 -0.7202 -1.8553
  114OSM   C11S11814   1.213   1.147   5.398  0.6342  0.0713 -0.9852
  114OSM   H11S11815   1.308   1.202   5.377  0.9429  0.1060  0.4132
  114OSM   H11T11816   1.143   1.219   5.446  1.7505  0.0581  0.7452
  114OSM   C12S11817   1.166   1.097   5.265 -0.3354  0.1454  0.4308
  114OSM   H12S11818   1.096   1.013   5.283 -1.4183  0.8821 -0.2118
  114OSM   H12T11819   1.248   1.066   5.197 -0.1563 -0.1672  0.7904
  114OSM   C13S11820   1.091   1.209   5.189  0.1200  0.7106  0.1841
  114OSM   H13S11821   1.020   1.255   5.261 -1.1109 -0.8827  0.0213
  114OSM   H13T11822   1.029   1.161   5.110  0.5811  1.1442 -0.4597
  114OSM   C14S11823   1.177   1.308   5.113 -0.0961  0.2158 -0.4957
  114OSM   H14S11824   1.272   1.262   5.079  0.2428  0.8362 -0.4151
  114OSM   H14T11825   1.215   1.379   5.190  0.9017 -0.7967 -0.0198
  114OSM   C15S11826   1.106   1.383   5.000  0.4450  0.7782  0.1347
  114OSM   H15S11827   1.036   1.315   4.948  1.0562 -0.6364  1.0912
  114OSM   H15T11828   1.178   1.412   4.920  2.0310 -2.8736  0.0254
  114OSM   C16S11829   1.043   1.515   5.046  0.2652 -0.0997  0.0652
  114OSM   H16S11830   1.125   1.588   5.064 -1.2431  1.6773  0.0620
  114OSM   H16T11831   0.984   1.509   5.141 -2.4373  3.2179 -1.1721
  114OSM   C17S11832   0.945   1.564   4.943 -0.6297 -0.2199  1.0838
  114OSM   H17S11833   0.963   1.525   4.840 -2.7330  0.1691  0.5263
  114OSM   H17T11834   0.941   1.675   4.943 -1.7131 -0.2320 -0.4337
  114OSM   C18S11835   0.805   1.511   4.980  0.2227  0.2438 -0.6257
  114OSM   H18S11836   0.732   1.567   4.917 -3.9762 -3.5914  0.3531
  114OSM   H18T11837   0.782   1.533   5.086  0.6882  1.4980 -0.7698
  114OSM   H18U11838   0.793   1.402   4.962  5.0657 -0.9269  1.7699
  114OSM    C1F11839   0.929   1.143   6.315 -0.9256  0.0927 -0.0075
  114OSM     OF11840   0.970   1.257   6.321  0.1439  0.1474 -0.0773
  114OSM    C2F11841   0.780   1.115   6.314 -0.3073  0.0396  0.2348
  114OSM    H2F11842   0.736   1.140   6.413 -1.1075 -1.0100  0.1635
  114OSM    H2G11843   0.765   1.006   6.302  3.7845 -0.6510 -0.0979
  114OSM    C3F11844   0.708   1.180   6.192  0.2773  0.1503 -0.0717
  114OSM    H3F11845   0.734   1.288   6.179  1.3590 -0.1555 -0.6328
  114OSM    H3G11846   0.600   1.173   6.217  0.0647 -2.4546 -1.3640
  114OSM    C4F11847   0.726   1.104   6.065 -0.3049 -0.0602  0.7414
  114OSM    H4F11848   0.647   1.134   5.993  1.0898 -0.5126 -1.0315
  114OSM    H4G11849   0.726   0.993   6.072  2.0732 -0.0663  1.3027
  114OSM    C5F11850   0.859   1.125   5.996 -0.0596 -0.7418 -0.0243
  114OSM    H5F11851   0.934   1.052   6.032 -1.5475 -2.3132  0.0221
  114OSM    H5G11852   0.891   1.231   6.012 -0.6691 -0.3712 -1.1280
  114OSM    C6F11853   0.840   1.116   5.840 -0.4502  0.2719  0.3900
  114OSM    H6F11854   0.766   1.038   5.813 -0.6454  1.2989 -2.3378
  114OSM    H6G11855   0.934   1.102   5.781  0.6647  2.7132  1.4735
  114OSM    C7F11856   0.783   1.252   5.785  0.0938 -0.1452 -0.1674
  114OSM    H7F11857   0.833   1.344   5.821  0.6863 -0.5517  0.0672
  114OSM    H7G11858   0.680   1.257   5.827  0.6032 -0.1820  1.1504
  114OSM    C8F11859   0.786   1.245   5.636 -0.2468  0.1057 -0.5563
  114OSM    H8F11860   0.719   1.165   5.598  0.4025 -0.3075 -0.8329
  114OSM    H8G11861   0.889   1.229   5.599 -0.1107  0.8389 -0.5146
  114OSM    C9F11862   0.728   1.376   5.595 -0.3367  0.0285 -0.0564
  114OSM    H9F11863   0.714   1.447   5.677 -0.3252 -0.7782  0.6656
  114OSM   C10F11864   0.716   1.411   5.470 -0.1507 -0.8179  0.7342
  114OSM   H10F11865   0.678   1.512   5.450 -4.4112 -1.9045  2.0745
  114OSM   C11F11866   0.740   1.338   5.340 -0.0358 -0.0344  0.8710
  114OSM   H11F11867   0.789   1.239   5.358  1.5497 -0.0921 -2.8514
  114OSM   H11G11868   0.820   1.381   5.277  0.9535 -1.5477  1.0262
  114OSM   C12F11869   0.621   1.322   5.243 -0.1484  0.2423 -0.2977
  114OSM   H12F11870   0.663   1.296   5.143  1.8876  1.4398  0.1866
  114OSM   H12G11871   0.572   1.420   5.228 -1.9208 -0.4518  0.6620
  114OSM   C13F11872   0.527   1.212   5.293  0.6918  0.0897 -0.2991
  114OSM   H13F11873   0.491   1.233   5.396 -0.8213 -0.0633 -0.7708
  114OSM   H13G11874   0.569   1.109   5.300  1.3038  0.4272  1.1867
  114OSM   C14F11875   0.405   1.213   5.200  0.0097  0.0836  0.7149
  114OSM   H14F11876   0.404   1.126   5.130 -0.6935  0.8524 -0.2533
  114OSM   H14G11877   0.403   1.312   5.151  1.2822  0.5583  1.5629
  114OSM   C15F11878   0.266   1.203   5.268 -0.4386 -0.3835 -0.9269
  114OSM   H15F11879   0.266   1.285   5.343 -2.0642 -1.2118  0.0373
  114OSM   H15G11880   0.255   1.107   5.324  1.2655 -0.2729 -0.3296
  114OSM   C16F11881   0.145   1.203   5.168  0.1538  0.4737 -0.3711
  114OSM   H16F11882   0.170   1.123   5.095  2.0343 -0.1595  0.9067
  114OSM   H16G11883   0.155   1.298   5.110 -3.4250  1.8123  0.9853
  114OSM   C17F11884   0.002   1.183   5.224 -0.5773 -0.2893 -0.1274
  114OSM   H17F11885  -0.014   1.239   5.319  0.7869  0.5446 -0.3618
  114OSM   H17G11886  -0.006   1.073   5.237  0.6684 -0.3643  0.1736
  114OSM   C18F11887  -0.104   1.215   5.119 -0.3258 -0.4190 -0.5714
  114OSM   H18F11888  -0.130   1.321   5.139 -0.0783 -0.8633  2.8689
  114OSM   H18G11889  -0.200   1.162   5.135 -1.0891  1.4477  1.6005
  114OSM   H18H11890  -0.073   1.192   5.015  4.0416 -0.8704  0.6339
  115OSM      N11891   1.826   2.981   6.736 -0.2603 -0.2946  0.1397
  115OSM    C1511892   1.802   2.913   6.867 -0.1349 -0.1618  0.0435
  115OSM   H15A11893   1.893   2.916   6.925 -1.1004 -2.6954  1.8277
  115OSM   H15B11894   1.758   2.815   6.873 -2.6678  0.9397  0.8503
  115OSM   H15C11895   1.721   2.954   6.925 -1.8294 -3.2258 -0.0012
  115OSM    C1411896   1.908   2.898   6.641  0.1640  0.0811  0.2333
  115OSM   H14A11897   1.992   2.864   6.700 -1.7156 -0.9383  2.4714
  115OSM   H14B11898   1.939   2.955   6.555  0.0189 -1.2447 -0.7420
  115OSM   H14C11899   1.849   2.815   6.603 -0.1901  0.6502 -0.4962
  115OSM    C1311900   1.697   3.015   6.667 -0.0128  0.7132 -0.0716
  115OSM   H13A11901   1.637   2.926   6.678  0.7363  0.3197  1.0289
  115OSM   H13B11902   1.727   3.032   6.564  0.7547 -1.3796 -0.2440
  115OSM   H13C11903   1.654   3.107   6.702 -1.8117  0.4361 -1.4239
  115OSM    C1211904   1.915   3.102   6.765  0.4592 -0.5436 -0.0878
  115OSM   H12A11905   1.940   3.145   6.669  1.4087  0.4533  0.5772
  115OSM   H12B11906   1.996   3.070   6.830 -0.1893  1.7009  1.9647
  115OSM    C1111907   1.860   3.232   6.826  0.1011 -0.2493 -0.3228
  115OSM   H11A11908   1.938   3.310   6.836  0.6896 -0.7025 -1.2596
  115OSM   H11B11909   1.830   3.213   6.931 -1.3255  1.4007 -0.3726
  115OSM      P11910   1.740   3.415   6.676  0.1434  0.2844 -0.3301
  115OSM    O1311911   1.611   3.417   6.599  0.0814  0.2117 -0.4697
  115OSM    O1411912   1.763   3.525   6.773  0.7149  0.3324  0.5983
  115OSM    O1111913   1.862   3.406   6.582  0.4669 -0.6929  0.1435
  115OSM    O1211914   1.747   3.283   6.745  0.3860 -0.1204 -0.5209
  115OSM    C1S11915   1.860   3.308   6.475 -0.2108  0.1719 -0.2949
  115OSM    H1S11916   1.768   3.247   6.480 -1.4716  2.0055 -0.3960
  115OSM    H1T11917   1.950   3.244   6.486  0.3111  0.9561  0.1544
  115OSM     NF11918   1.863   3.289   6.220  0.9329 -0.1915  0.6621
  115OSM    HNF11919   1.946   3.272   6.167 -0.6224  1.1214 -2.4573
  115OSM    C2S11920   1.878   3.381   6.338 -0.1394 -0.1058  0.3187
  115OSM    H2S11921   1.800   3.460   6.339  1.7231  1.8404 -0.8214
  115OSM    C3S11922   2.011   3.466   6.337  0.6093  0.2751 -0.0124
  115OSM    H3S11923   2.101   3.404   6.353  0.9602  0.3231 -1.6167
  115OSM     O311924   2.010   3.567   6.436  0.3391 -0.1622 -0.2526
  115OSM    HO311925   1.951   3.529   6.501  1.0659 -2.4089 -0.8134
  115OSM    C4S11926   2.011   3.537   6.203  1.1907 -0.3881  0.2056
  115OSM    H4S11927   1.925   3.600   6.176  1.3413 -0.8709 -1.5245
  115OSM    C5S11928   2.103   3.521   6.104  0.1548  0.1851  0.1406
  115OSM    H5S11929   2.193   3.461   6.125  0.8486  1.6806  1.6953
  115OSM    C6S11930   2.113   3.603   5.978  0.1774  0.4736 -0.0395
  115OSM    H6S11931   2.202   3.668   5.990  0.8814 -0.5821  0.5287
  115OSM    H6T11932   2.018   3.660   5.966  0.1226  1.1817  3.0978
  115OSM    C7S11933   2.130   3.515   5.857  0.1328 -0.4241 -0.4764
  115OSM    H7S11934   2.031   3.477   5.826  0.0283  0.2318 -0.9773
  115OSM    H7T11935   2.197   3.430   5.881 -1.3196 -1.1310  1.2300
  115OSM    C8S11936   2.183   3.592   5.737 -0.4361  0.3202 -0.3561
  115OSM    H8S11937   2.291   3.612   5.750 -0.6742  1.2175  0.3845
  115OSM    H8T11938   2.128   3.686   5.711 -0.9746  0.0693 -0.1424
  115OSM    C9S11939   2.179   3.507   5.608 -0.2796  0.0576  0.4058
  115OSM    H9S11940   2.084   3.452   5.592  0.0107 -0.1322 -0.7509
  115OSM    H9T11941   2.263   3.434   5.603  0.2101  0.4500  2.1645
  115OSM   C10S11942   2.190   3.598   5.486 -0.0583 -0.3508 -0.0107
  115OSM   H10S11943   2.286   3.652   5.500 -0.3311 -0.0074  0.5693
  115OSM   H10T11944   2.103   3.668   5.488  1.4345  1.6212 -0.6248
  115OSM   C11S11945   2.203   3.526   5.346  0.3465  0.2028 -0.0720
  115OSM   H11S11946   2.112   3.463   5.334 -0.4956  0.9628  1.8151
  115OSM   H11T11947   2.288   3.456   5.361  1.2630  1.1145 -0.8213
  115OSM   C12S11948   2.229   3.613   5.220  0.7247  0.2353 -0.8488
  115OSM   H12S11949   2.331   3.657   5.207  1.1780 -0.5731 -0.1489
  115OSM   H12T11950   2.150   3.691   5.219 -2.2864 -2.5607  0.0767
  115OSM   C13S11951   2.195   3.524   5.095  0.3339  0.5331 -0.4715
  115OSM   H13S11952   2.106   3.461   5.115 -0.5346  2.2082  1.2923
  115OSM   H13T11953   2.280   3.458   5.070  0.0075  0.1236 -0.4977
  115OSM   C14S11954   2.155   3.606   4.967 -0.2006 -0.2153 -0.3192
  115OSM   H14S11955   2.100   3.696   5.000  0.8331  0.2704  0.1220
  115OSM   H14T11956   2.105   3.540   4.893 -0.2948 -3.8058  2.6212
  115OSM   C15S11957   2.286   3.667   4.912  0.3583  0.4495 -0.2724
  115OSM   H15S11958   2.364   3.589   4.899  1.1004  0.8925  1.2559
  115OSM   H15T11959   2.327   3.743   4.983 -0.5338  0.3947  0.3157
  115OSM   C16S11960   2.257   3.741   4.785 -0.8716 -0.1404 -0.4989
  115OSM   H16S11961   2.171   3.808   4.803 -1.4217 -1.5591  2.8537
  115OSM   H16T11962   2.236   3.668   4.704 -2.0160  0.0031 -0.3434
  115OSM   C17S11963   2.377   3.821   4.738  0.5861  0.7552  0.7180
  115OSM   H17S11964   2.466   3.756   4.718  1.4367  2.4847 -1.6102
  115OSM   H17T11965   2.416   3.888   4.817  4.5461 -0.8338  0.3852
  115OSM   C18S11966   2.346   3.889   4.602 -0.0851 -0.2219  0.2659
  115OSM   H18S11967   2.267   3.966   4.617 -2.8415 -3.1502  1.7190
  115OSM   H18T11968   2.314   3.819   4.523  1.0900 -0.3601 -0.1152
  115OSM   H18U11969   2.431   3.943   4.554 -0.1651  1.4676  1.8979
  115OSM    C1F11970   1.744   3.242   6.191  0.2194 -0.2526 -0.2445
  115OSM     OF11971   1.649   3.261   6.269  0.1691  0.6112 -0.6779
  115OSM    C2F11972   1.724   3.167   6.066 -0.1996 -0.4428 -0.3252
  115OSM    H2F11973   1.792   3.079   6.073  0.7249  0.2182 -0.6668
  115OSM    H2G11974   1.739   3.225   5.972 -0.1550 -0.7980 -0.5375
  115OSM    C3F11975   1.580   3.110   6.043 -0.1686 -0.2655  0.4122
  115OSM    H3F11976   1.510   3.196   6.045  0.4681  0.2458  0.7495
  115OSM    H3G11977   1.564   3.034   6.123  0.2580 -2.7420 -1.7138
  115OSM    C4F11978   1.551   3.041   5.911 -0.3086 -0.0421  0.0695
  115OSM    H4F11979   1.446   3.005   5.910 -0.2411 -0.2781  0.7617
  115OSM    H4G11980   1.612   2.950   5.891 -0.8885 -0.5549  0.5822
  115OSM    C5F11981   1.574   3.125   5.786 -0.0122  0.0724 -0.0739
  115OSM    H5F11982   1.680   3.159   5.792  0.6492 -2.0064  1.4738
  115OSM    H5G11983   1.493   3.199   5.804  0.8297  0.9638  0.1266
  115OSM    C6F11984   1.551   3.044   5.659  0.8152  0.4726  0.2705
  115OSM    H6F11985   1.454   2.996   5.683  0.9273  0.3349  0.4467
  115OSM    H6G11986   1.633   2.968   5.655 -0.0507 -0.4747  0.1727
  115OSM    C7F11987   1.561   3.133   5.542  0.2088  0.5104  0.2871
  115OSM    H7F11988   1.669   3.154   5.534  1.0113 -2.8591  0.8176
  115OSM    H7G11989   1.505   3.226   5.567 -0.0666 -0.1706  2.4465
  115OSM    C8F11990   1.512   3.069   5.403 -0.0239 -0.0170 -0.7795
  115OSM    H8F11991   1.545   3.128   5.315  1.4194 -1.3748 -1.1953
  115OSM    H8G11992   1.402   3.083   5.407 -0.1234 -1.0862  1.3732
  115OSM    C9F11993   1.559   2.923   5.394  0.1114  0.2949  0.1055
  115OSM    H9F11994   1.650   2.904   5.453  0.7769  0.2072 -0.9344
  115OSM   C10F11995   1.520   2.819   5.312  0.1087 -0.6354  0.7730
  115OSM   H10F11996   1.570   2.723   5.332  1.3420 -0.2419 -0.2404
  115OSM   C11F11997   1.412   2.819   5.210  0.2014 -0.4992 -0.1032
  115OSM   H11F11998   1.366   2.919   5.196 -2.9075 -1.7286  0.4803
  115OSM   H11G11999   1.327   2.762   5.254 -1.2657  1.7224  0.0598
  115OSM   C12F12000   1.446   2.760   5.070 -0.9025 -0.1423 -0.2037
  115OSM   H12F12001   1.363   2.764   4.997 -0.1472 -1.4274 -1.1822
  115OSM   H12G12002   1.472   2.655   5.093  0.4992  0.2908  0.3192
  115OSM   C13F12003   1.571   2.829   4.999  0.0403  0.0050  0.1138
  115OSM   H13F12004   1.673   2.817   5.041 -0.6331  0.5065  1.9947
  115OSM   H13G12005   1.537   2.935   4.988 -3.0252 -0.8497  0.3503
  115OSM   C14F12006   1.566   2.791   4.851  0.4886  0.3582 -0.0989
  115OSM   H14F12007   1.478   2.830   4.795  0.9985 -0.5026 -1.5735
  115OSM   H14G12008   1.561   2.680   4.841  0.7083  0.2430  0.9688
  115OSM   C15F12009   1.698   2.827   4.774 -0.6350  0.4658  0.3158
  115OSM   H15F12010   1.719   2.936   4.785  0.7568  0.5160 -2.0793
  115OSM   H15G12011   1.668   2.821   4.667  2.2578 -3.7236 -0.5222
  115OSM   C16F12012   1.823   2.736   4.788 -0.7094 -0.1791  0.2746
  115OSM   H16F12013   1.783   2.634   4.807  0.6256 -1.0700 -1.4099
  115OSM   H16G12014   1.882   2.781   4.872  1.0052  2.4746 -2.1534
  115OSM   C17F12015   1.915   2.727   4.658  0.2847  0.4330 -0.0493
  115OSM   H17F12016   2.009   2.680   4.695 -0.4215  1.5466  3.5720
  115OSM   H17G12017   1.938   2.830   4.624  1.3218  0.7592  1.5152
  115OSM   C18F12018   1.852   2.648   4.552  0.3082  0.0243  0.0182
  115OSM   H18F12019   1.750   2.691   4.540  0.3219  0.0360 -0.0555
  115OSM   H18G12020   1.850   2.537   4.560  0.3460  0.0980  1.1152
  115OSM   H18H12021   1.908   2.672   4.459 -1.0120  1.9902 -0.3387
  116OSM      N12022   3.456   1.278   6.693  0.1998 -0.9494 -0.2827
  116OSM    C1512023   3.449   1.149   6.770 -0.7441 -0.2477  0.2063
  116OSM   H15A12024   3.351   1.138   6.813  0.3542 -1.6561  2.5533
  116OSM   H15B12025   3.523   1.146   6.848 -0.5350 -0.4834  0.0006
  116OSM   H15C12026   3.468   1.062   6.708 -1.0431  0.5268 -0.9953
  116OSM    C1412027   3.379   1.261   6.571 -0.0479  0.2847  0.8520
  116OSM   H14A12028   3.288   1.204   6.580  0.5691 -1.1539 -1.3545
  116OSM   H14B12029   3.436   1.217   6.491 -3.6762 -1.6694 -0.8478
  116OSM   H14C12030   3.349   1.358   6.533  0.0247 -0.3995 -1.0553
  116OSM    C1312031   3.396   1.387   6.773  0.3583  0.0113  0.0502
  116OSM   H13A12032   3.458   1.421   6.854  1.1079  0.3875 -0.6613
  116OSM   H13B12033   3.307   1.347   6.820  0.0751  1.4068  0.7744
  116OSM   H13C12034   3.359   1.472   6.717 -3.2805  0.0194  2.1223
  116OSM    C1212035   3.598   1.321   6.663  0.0071  0.1437  0.3989
  116OSM   H12A12036   3.607   1.398   6.588  1.9943 -0.4513 -0.0252
  116OSM   H12B12037   3.643   1.238   6.610 -0.4216  1.0992 -1.5559
  116OSM    C1112038   3.700   1.351   6.777  0.4315  0.3741  0.2910
  116OSM   H11A12039   3.660   1.414   6.859  0.3266  0.1729  0.3940
  116OSM   H11B12040   3.782   1.416   6.742  0.4015  0.1491 -0.2014
  116OSM      P12041   3.874   1.159   6.787  0.3898  0.3719  0.1522
  116OSM    O1312042   3.985   1.227   6.847  0.3922 -0.0279  0.4520
  116OSM    O1412043   3.862   1.013   6.821 -0.1337 -0.2498 -0.6738
  116OSM    O1112044   3.875   1.168   6.627  0.3613 -0.5288  0.1963
  116OSM    O1212045   3.740   1.230   6.833 -0.0009 -0.1869 -0.4517
  116OSM    C1S12046   3.801   1.064   6.557 -0.8964  0.1150  0.3487
  116OSM    H1S12047   3.693   1.080   6.575 -1.5261 -0.2300 -2.5851
  116OSM    H1T12048   3.834   0.962   6.587  1.7262  1.0218  0.8171
  116OSM     NF12049   3.734   0.969   6.340  0.3188 -0.0041 -0.1831
  116OSM    HNF12050   3.786   0.890   6.309  0.5368 -0.0545  0.2950
  116OSM    C2S12051   3.812   1.069   6.403 -1.2152  0.1183 -0.0435
  116OSM    H2S12052   3.779   1.168   6.364  0.0173  1.0292  1.1161
  116OSM    C3S12053   3.964   1.056   6.356  0.2688  0.7553 -0.2933
  116OSM    H3S12054   3.999   0.954   6.384  0.8919  1.0117 -0.1071
  116OSM     O312055   4.049   1.147   6.431  0.1072 -0.3809  0.1644
  116OSM    HO312056   3.998   1.143   6.513 -3.3969  3.9298 -1.3781
  116OSM    C4S12057   3.969   1.057   6.204 -0.1366  0.7378 -0.1925
  116OSM    H4S12058   3.926   1.145   6.154  0.7948  1.5790  0.4315
  116OSM    C5S12059   4.043   0.975   6.130  0.0190  0.3039  0.1396
  116OSM    H5S12060   4.104   0.897   6.178 -2.0391 -0.1336  2.1745
  116OSM    C6S12061   4.043   0.987   5.982  0.0220  0.0895 -0.2176
  116OSM    H6S12062   3.939   1.016   5.954 -0.9486 -2.3630  0.5730
  116OSM    H6T12063   4.056   0.885   5.940 -0.0897 -0.3548  0.8032
  116OSM    C7S12064   4.151   1.087   5.932 -0.5624  0.4439  0.1054
  116OSM    H7S12065   4.256   1.060   5.954  0.0853  0.5172 -2.5215
  116OSM    H7T12066   4.139   1.179   5.993 -1.2939 -0.2482  1.0427
  116OSM    C8S12067   4.131   1.135   5.793  0.4819 -0.5911 -0.0503
  116OSM    H8S12068   4.030   1.176   5.771  0.5851 -1.1865 -1.8430
  116OSM    H8T12069   4.137   1.044   5.729  0.4157  0.3129 -1.4064
  116OSM    C9S12070   4.250   1.215   5.738 -0.3603  0.1125  0.6461
  116OSM    H9S12071   4.351   1.171   5.756 -1.4246 -2.5201  0.6314
  116OSM    H9T12072   4.252   1.305   5.803 -1.0598  0.6160 -0.0142
  116OSM   C10S12073   4.226   1.266   5.595 -0.3109  0.1501  0.2433
  116OSM   H10S12074   4.274   1.366   5.585  1.9548 -0.6670  2.0856
  116OSM   H10T12075   4.119   1.273   5.566 -0.0199 -0.4013 -1.0452
  116OSM   C11S12076   4.309   1.186   5.486 -0.9103  0.4546 -0.3576
  116OSM   H11S12077   4.292   1.078   5.504  0.4295  0.4496  1.1849
  116OSM   H11T12078   4.416   1.206   5.509 -0.9236 -1.0057  1.1374
  116OSM   C12S12079   4.289   1.231   5.342 -0.1533 -0.1079  0.2301
  116OSM   H12S12080   4.375   1.208   5.275  0.9553  3.6680  0.1477
  116OSM   H12T12081   4.279   1.341   5.340 -0.6483 -0.1493  0.2531
  116OSM   C13S12082   4.165   1.171   5.278  0.1333 -0.0816 -0.5190
  116OSM   H13S12083   4.081   1.226   5.326 -1.4647 -0.7052 -2.4944
  116OSM   H13T12084   4.159   1.065   5.311  1.4160  0.1864  0.7148
  116OSM   C14S12085   4.160   1.189   5.127 -0.1011  0.7948 -0.2760
  116OSM   H14S12086   4.081   1.121   5.087  0.2505  0.5114 -0.4885
  116OSM   H14T12087   4.256   1.154   5.084 -1.4586 -0.0289 -2.8345
  116OSM   C15S12088   4.126   1.336   5.084 -0.3419  0.7253 -0.2872
  116OSM   H15S12089   4.213   1.393   5.124  0.3540 -0.9400  0.7127
  116OSM   H15T12090   4.037   1.378   5.135  0.8547  1.8300  0.9887
  116OSM   C16S12091   4.113   1.345   4.935  0.1152 -0.4106 -0.0690
  116OSM   H16S12092   4.044   1.263   4.903  2.1200 -1.7966 -1.0702
  116OSM   H16T12093   4.217   1.326   4.900  0.1319 -1.4621  0.5244
  116OSM   C17S12094   4.058   1.475   4.876  0.3989  0.3754 -0.8159
  116OSM   H17S12095   4.096   1.574   4.911  0.7771  0.1956 -0.7159
  116OSM   H17T12096   3.954   1.478   4.917  0.9522 -0.7610  0.7722
  116OSM   C18S12097   4.058   1.477   4.724  0.3687  0.2916  0.0516
  116OSM   H18S12098   4.162   1.501   4.693  0.0706  4.3231  1.5608
  116OSM   H18T12099   4.007   1.568   4.685  0.6354 -0.4828 -2.2801
  116OSM   H18U12100   4.004   1.396   4.671  0.5870  0.9932 -1.2837
  116OSM    C1F12101   3.602   0.958   6.361  0.1316  0.2973  0.2254
  116OSM     OF12102   3.526   1.049   6.400 -0.4647  0.2140  0.2235
  116OSM    C2F12103   3.555   0.823   6.337  0.2433 -0.1279 -0.4206
  116OSM    H2F12104   3.498   0.788   6.426 -1.1377  2.0697 -0.3596
  116OSM    H2G12105   3.637   0.750   6.323 -0.4939 -1.3206  1.0993
  116OSM    C3F12106   3.473   0.803   6.204  0.2063  0.4006  0.2718
  116OSM    H3F12107   3.390   0.875   6.191 -0.9944 -1.1680 -1.0484
  116OSM    H3G12108   3.430   0.701   6.211 -0.9358  0.8441 -0.0136
  116OSM    C4F12109   3.566   0.801   6.086 -0.4172 -0.7443  0.6020
  116OSM    H4F12110   3.630   0.713   6.110 -1.9771 -1.5292  2.0843
  116OSM    H4G12111   3.630   0.892   6.093  0.9955 -1.5958 -0.6977
  116OSM    C5F12112   3.496   0.773   5.953 -0.3979 -0.2676  0.5768
  116OSM    H5F12113   3.431   0.861   5.930 -0.5670 -0.1843  1.3703
  116OSM    H5G12114   3.427   0.686   5.959  0.1805 -0.8228 -0.5740
  116OSM    C6F12115   3.597   0.748   5.840  0.1847  0.1206 -0.0220
  116OSM    H6F12116   3.555   0.689   5.756 -0.0840 -2.8068  1.9931
  116OSM    H6G12117   3.686   0.684   5.857  1.1874  1.6328  0.6220
  116OSM    C7F12118   3.660   0.882   5.792 -0.6531  0.0803 -0.6424
  116OSM    H7F12119   3.723   0.918   5.877 -0.2458  1.0293 -1.3336
  116OSM    H7G12120   3.592   0.969   5.788  1.8584  2.2862  0.7250
  116OSM    C8F12121   3.731   0.879   5.656 -0.4247  0.1572  0.3866
  116OSM    H8F12122   3.655   0.874   5.575 -0.3499  0.8926  0.2653
  116OSM    H8G12123   3.787   0.784   5.646  2.8112  2.1139 -2.1880
  116OSM    C9F12124   3.835   0.989   5.639 -0.3210 -0.0314  0.1206
  116OSM    H9F12125   3.897   0.995   5.730 -0.8447 -1.0741  0.5744
  116OSM   C10F12126   3.855   1.071   5.536  0.2167 -1.0040 -0.3691
  116OSM   H10F12127   3.936   1.145   5.542 -1.0548  0.4662 -0.7564
  116OSM   C11F12128   3.779   1.065   5.410 -0.1863  0.1023 -0.1823
  116OSM   H11F12129   3.798   1.156   5.349  1.0918 -0.6953 -1.0157
  116OSM   H11G12130   3.670   1.081   5.425 -0.7377 -0.1865 -3.2041
  116OSM   C12F12131   3.820   0.954   5.321  0.0732  0.6679  0.8152
  116OSM   H12F12132   3.809   0.851   5.360  1.0360 -0.2471 -1.1603
  116OSM   H12G12133   3.927   0.966   5.295  0.1093  3.0331  1.8278
  116OSM   C13F12134   3.746   0.967   5.182  0.2515 -0.2742 -0.5197
  116OSM   H13F12135   3.637   0.976   5.199  0.5120 -0.3501  1.4704
  116OSM   H13G12136   3.772   0.870   5.134  2.1623 -0.7587  1.2871
  116OSM   C14F12137   3.805   1.083   5.098 -0.1129  0.7139 -0.1059
  116OSM   H14F12138   3.915   1.063   5.100 -0.4315 -1.3210 -0.6335
  116OSM   H14G12139   3.792   1.181   5.148  1.2018  0.7922  0.1213
  116OSM   C15F12140   3.765   1.087   4.948  0.6964  0.0879 -0.3951
  116OSM   H15F12141   3.768   0.980   4.916  1.4304  0.9029 -3.3786
  116OSM   H15G12142   3.839   1.150   4.895  0.5826  2.7393  2.3326
  116OSM   C16F12143   3.628   1.149   4.914 -0.2414  0.1211  0.2812
  116OSM   H16F12144   3.556   1.093   4.978  0.3922  0.1514  1.0267
  116OSM   H16G12145   3.614   1.144   4.803  1.1507 -3.6474  0.1289
  116OSM   C17F12146   3.610   1.293   4.951  0.1229  0.2168  0.2804
  116OSM   H17F12147   3.676   1.355   4.886 -0.0743 -0.5971 -0.7188
  116OSM   H17G12148   3.663   1.309   5.048  0.8922  1.2598 -0.2916
  116OSM   C18F12149   3.469   1.346   4.968  0.3812 -0.2200 -0.1977
  116OSM   H18F12150   3.402   1.266   5.006 -1.2916  1.0584 -0.3532
  116OSM   H18G12151   3.423   1.400   4.882  1.2747  0.1195 -0.4773
  116OSM   H18H12152   3.468   1.426   5.046 -3.2600 -0.8005  0.5143
  117OSM      N12153   2.862   4.872   7.331 -0.0130 -0.0054 -0.2197
  117OSM    C1512154   2.934   5.001   7.336 -0.2791  0.0793 -0.1596
  117OSM   H15A12155   2.864   5.083   7.334 -0.9711 -0.4957 -2.2687
  117OSM   H15B12156   3.000   5.010   7.251 -1.7833 -1.8401 -1.6462
  117OSM   H15C12157   2.983   5.003   7.432 -0.8296 -2.7001  0.2732
  117OSM    C1412158   2.955   4.763   7.365 -0.1506  0.1409  0.2959
  117OSM   H14A12159   3.036   4.749   7.295  1.6564  1.6665  1.9619
  117OSM   H14B12160   2.891   4.676   7.359 -1.1767  0.9518 -1.3621
  117OSM   H14C12161   2.996   4.768   7.465 -0.5929  0.9242  0.4538
  117OSM    C1312162   2.749   4.864   7.440 -0.3090  0.3630  0.2498
  117OSM   H13A12163   2.786   4.884   7.540 -2.5777  0.1450  1.1979
  117OSM   H13B12164   2.705   4.765   7.436  0.1340  0.1168  1.1450
  117OSM   H13C12165   2.673   4.940   7.429 -0.4496  0.2426  0.3794
  117OSM    C1212166   2.800   4.848   7.197  0.5048  0.2755 -0.2193
  117OSM   H12A12167   2.714   4.910   7.174  0.6083 -0.3861 -2.6814
  117OSM   H12B12168   2.762   4.747   7.198  1.4019 -0.0681 -0.1308
  117OSM    C1112169   2.893   4.870   7.077  0.0869 -0.4857 -0.3076
  117OSM   H11A12170   2.859   4.823   6.982 -1.2210 -0.4151  0.1101
  117OSM   H11B12171   2.986   4.823   7.115  0.1418  0.3940  0.6909
  117OSM      P12172   2.824   5.093   6.951 -0.0011 -0.1850  0.5029
  117OSM    O1312173   2.688   5.126   7.003  0.1192 -0.0235  0.1517
  117OSM    O1412174   2.906   5.207   6.917  0.4508 -0.0964  0.0346
  117OSM    O1112175   2.815   5.006   6.815  0.0235 -0.5622  0.1116
  117OSM    O1212176   2.911   5.005   7.049 -0.3685  0.2697 -0.4949
  117OSM    C1S12177   2.932   4.992   6.736  0.2371  0.0607 -0.0975
  117OSM    H1S12178   2.975   4.892   6.758  1.1236 -0.0058 -1.9446
  117OSM    H1T12179   3.002   5.077   6.749 -0.5165  1.5942 -4.3930
  117OSM     NF12180   3.033   4.985   6.515  0.3772  0.0227 -0.3229
  117OSM    HNF12181   3.077   5.071   6.494  1.3149 -0.5924 -0.9522
  117OSM    C2S12182   2.903   4.993   6.578 -0.2959 -0.0358 -0.5726
  117OSM    H2S12183   2.863   4.893   6.554  0.3730 -0.5637  0.4213
  117OSM    C3S12184   2.818   5.114   6.545 -0.1260  0.3073  0.5241
  117OSM    H3S12185   2.846   5.195   6.616  0.0694 -0.4811  1.3602
  117OSM     O312186   2.675   5.101   6.570 -0.0577  0.2133  0.1528
  117OSM    HO312187   2.666   5.062   6.657  2.1065 -1.1715 -0.1490
  117OSM    C4S12188   2.847   5.159   6.404  0.3731 -0.4770 -0.8414
  117OSM    H4S12189   2.821   5.079   6.333 -1.6680 -2.8030  2.3051
  117OSM    C5S12190   2.886   5.288   6.373 -0.4312 -0.3007 -0.0214
  117OSM    H5S12191   2.915   5.370   6.439 -1.0776  1.6614 -2.0559
  117OSM    C6S12192   2.931   5.331   6.232 -0.1215  0.0048 -0.3941
  117OSM    H6S12193   3.018   5.399   6.243 -1.2117  1.3337  0.3081
  117OSM    H6T12194   2.854   5.396   6.185  0.5996  0.2769 -1.2141
  117OSM    C7S12195   2.966   5.224   6.127 -0.0034 -0.1715  0.4206
  117OSM    H7S12196   2.884   5.156   6.096 -1.2981  0.2679  2.6757
  117OSM    H7T12197   3.048   5.165   6.173  1.5611  1.8532  0.3519
  117OSM    C8S12198   3.025   5.280   5.994 -0.2487  0.4198  0.4796
  117OSM    H8S12199   3.099   5.212   5.947 -2.2246 -2.0687  0.7456
  117OSM    H8T12200   3.078   5.375   6.018  0.6537  0.0563 -0.0344
  117OSM    C9S12201   2.914   5.316   5.894 -0.2883  0.1989  0.0201
  117OSM    H9S12202   2.854   5.400   5.935  0.2663  1.0148 -0.7907
  117OSM    H9T12203   2.849   5.225   5.895  2.9071 -2.2678 -0.4232
  117OSM   C10S12204   2.968   5.376   5.767 -0.4210  0.1986  0.0340
  117OSM   H10S12205   3.044   5.450   5.801  0.9608 -0.7048 -0.9819
  117OSM   H10T12206   2.892   5.438   5.716  0.0883  1.2788  0.5561
  117OSM   C11S12207   3.012   5.277   5.660  0.3364  0.6227  0.2987
  117OSM   H11S12208   2.947   5.187   5.661  0.7684  0.2166  3.8390
  117OSM   H11T12209   3.107   5.235   5.699 -1.4058 -1.0565  3.0391
  117OSM   C12S12210   3.007   5.343   5.516  0.3356 -0.2521  0.2126
  117OSM   H12S12211   3.065   5.436   5.534 -0.1913  0.4576 -1.5317
  117OSM   H12T12212   2.902   5.367   5.487  0.0723 -0.4938  0.9266
  117OSM   C13S12213   3.050   5.250   5.400 -0.2203 -0.2812 -0.3222
  117OSM   H13S12214   2.987   5.159   5.408 -0.7473  0.2096  1.7375
  117OSM   H13T12215   3.155   5.214   5.410 -0.1995 -0.3241 -0.6998
  117OSM   C14S12216   3.036   5.329   5.270  0.4317  0.3836 -0.5829
  117OSM   H14S12217   2.964   5.414   5.279 -0.7317 -0.3824 -2.1164
  117OSM   H14T12218   3.000   5.258   5.193  3.6219  0.8460 -2.6952
  117OSM   C15S12219   3.166   5.399   5.228  0.0481  0.5776 -0.0878
  117OSM   H15S12220   3.243   5.319   5.216 -1.9464 -1.1150 -2.8822
  117OSM   H15T12221   3.189   5.466   5.313  0.1942  0.3007  0.0937
  117OSM   C16S12222   3.175   5.472   5.090 -0.2276  0.0088 -0.6418
  117OSM   H16S12223   3.266   5.536   5.091 -0.5422  0.4675 -0.7919
  117OSM   H16T12224   3.089   5.542   5.084  1.4981  2.1941 -1.2153
  117OSM   C17S12225   3.177   5.377   4.973 -0.3052  0.6429  0.0362
  117OSM   H17S12226   3.087   5.393   4.911  0.3538 -0.0054 -1.1325
  117OSM   H17T12227   3.158   5.276   5.017  1.3293  0.3446  0.1427
  117OSM   C18S12228   3.313   5.374   4.895  0.3453  0.0478 -0.2263
  117OSM   H18S12229   3.297   5.308   4.807  0.6992 -0.6761  0.2436
  117OSM   H18T12230   3.395   5.324   4.951 -1.0078 -0.1882  1.6118
  117OSM   H18U12231   3.350   5.477   4.876 -1.2580  1.1669  2.1828
  117OSM    C1F12232   3.108   4.877   6.522 -0.1901 -0.6460  0.2312
  117OSM     OF12233   3.070   4.778   6.587 -0.2225  0.1939  0.4481
  117OSM    C2F12234   3.242   4.885   6.456 -0.3271 -0.2215 -0.0659
  117OSM    H2F12235   3.324   4.881   6.530  1.6798  1.4875 -2.0610
  117OSM    H2G12236   3.243   4.981   6.400  0.4785  0.0100  0.3330
  117OSM    C3F12237   3.283   4.781   6.356  0.2602  0.3888 -0.4576
  117OSM    H3F12238   3.213   4.782   6.269 -0.0846 -1.3283 -0.2559
  117OSM    H3G12239   3.270   4.680   6.401 -0.4256  0.6388 -0.0800
  117OSM    C4F12240   3.436   4.808   6.320 -0.4585  0.2477 -0.0899
  117OSM    H4F12241   3.505   4.795   6.406 -1.2676 -2.4059  0.2600
  117OSM    H4G12242   3.457   4.910   6.282 -1.4389 -0.6164 -3.2985
  117OSM    C5F12243   3.507   4.714   6.215 -0.0380 -0.1713 -0.1748
  117OSM    H5F12244   3.509   4.608   6.247  1.3138 -0.1583 -0.1646
  117OSM    H5G12245   3.614   4.739   6.197  0.5703 -2.1639  0.4684
  117OSM    C6F12246   3.433   4.709   6.085 -0.8851  0.1124  0.0149
  117OSM    H6F12247   3.325   4.687   6.098 -0.6410 -1.8882 -0.9439
  117OSM    H6G12248   3.468   4.628   6.017 -1.3978 -0.2860  0.2162
  117OSM    C7F12249   3.454   4.839   5.998  0.2617 -0.0155  0.3681
  117OSM    H7F12250   3.563   4.852   5.983 -0.3234  4.1704 -1.8654
  117OSM    H7G12251   3.422   4.932   6.049 -1.3710  0.5940 -1.6568
  117OSM    C8F12252   3.399   4.829   5.856  0.3682  0.3015  0.5144
  117OSM    H8F12253   3.300   4.778   5.859  2.0585 -3.3854 -0.3699
  117OSM    H8G12254   3.476   4.769   5.803 -0.0839  0.2049 -0.0483
  117OSM    C9F12255   3.379   4.962   5.785 -0.9123  0.0935 -0.9290
  117OSM    H9F12256   3.317   5.025   5.850 -1.3723  0.7781 -1.9980
  117OSM   C10F12257   3.400   5.003   5.660 -0.6136 -0.5874  0.4836
  117OSM   H10F12258   3.370   5.105   5.632 -0.0814 -0.0941  1.6259
  117OSM   C11F12259   3.464   4.921   5.552  0.4622  0.1138  0.1814
  117OSM   H11F12260   3.458   4.813   5.579 -3.2197  0.2318  0.3390
  117OSM   H11G12261   3.571   4.953   5.548  0.5337  0.6684  3.6819
  117OSM   C12F12262   3.400   4.915   5.410 -0.0356 -0.4107  0.6128
  117OSM   H12F12263   3.291   4.896   5.419 -0.1736 -0.0142 -0.1648
  117OSM   H12G12264   3.444   4.829   5.355  0.6207  0.6625 -0.6122
  117OSM   C13F12265   3.428   5.039   5.324 -0.5524 -0.5694 -0.3137
  117OSM   H13F12266   3.537   5.037   5.301 -0.7739  0.6204 -1.5517
  117OSM   H13G12267   3.406   5.128   5.387 -2.1725 -0.7584 -0.5748
  117OSM   C14F12268   3.344   5.036   5.197 -0.7694  0.1035 -0.7355
  117OSM   H14F12269   3.340   5.138   5.153  0.2718  0.0884 -0.8964
  117OSM   H14G12270   3.240   5.005   5.218 -0.6666  0.1735 -0.1285
  117OSM   C15F12271   3.404   4.939   5.094 -0.5118 -0.4419  0.3335
  117OSM   H15F12272   3.415   4.840   5.143 -0.0163 -0.4753  0.1622
  117OSM   H15G12273   3.510   4.967   5.077  0.2248 -1.3611  2.9177
  117OSM   C16F12274   3.318   4.930   4.968 -0.1702  0.1293 -0.7957
  117OSM   H16F12275   3.333   5.029   4.919 -0.7021  1.2321  1.1643
  117OSM   H16G12276   3.211   4.917   4.996  0.6720 -1.9257  1.8888
  117OSM   C17F12277   3.359   4.833   4.864  0.0319 -0.5363 -0.1739
  117OSM   H17F12278   3.339   4.728   4.897  1.8720 -1.3999 -1.5889
  117OSM   H17G12279   3.469   4.838   4.853 -0.0831 -1.5623 -2.5840
  117OSM   C18F12280   3.294   4.850   4.724 -0.1487  0.4049 -1.0147
  117OSM   H18F12281   3.339   4.773   4.657 -1.3486  0.3117 -1.7456
  117OSM   H18G12282   3.325   4.949   4.685 -0.4118  0.6676 -0.5551
  117OSM   H18H12283   3.183   4.844   4.725 -0.1305 -0.0423 -1.2231
  118OSM      N12284   2.545   2.914   6.835  0.0890 -0.4133 -0.6976
  118OSM    C1512285   2.599   2.831   6.949  0.3926 -0.8767  0.3201
  118OSM   H15A12286   2.619   2.728   6.922 -0.6946 -0.9740 -0.1297
  118OSM   H15B12287   2.532   2.822   7.033  3.3882 -0.9675  2.9128
  118OSM   H15C12288   2.690   2.880   6.982  0.5563  1.2887 -2.8841
  118OSM    C1412289   2.485   3.043   6.879 -0.3950 -0.1849  0.2613
  118OSM   H14A12290   2.413   3.023   6.957 -0.0385  1.6838  1.1266
  118OSM   H14B12291   2.429   3.093   6.801  1.4525 -0.4538 -1.3205
  118OSM   H14C12292   2.565   3.098   6.927 -2.2876  2.3712  0.6758
  118OSM    C1312293   2.650   2.931   6.734  0.1365  0.0402 -0.1530
  118OSM   H13A12294   2.682   2.837   6.691  0.3617 -0.6973  1.5499
  118OSM   H13B12295   2.737   2.971   6.783  1.3715  0.5614 -2.6138
  118OSM   H13C12296   2.629   3.005   6.658 -0.4573 -0.8689 -0.9039
  118OSM    C1212297   2.433   2.835   6.778 -0.1101 -0.2862  0.7895
  118OSM   H12A12298   2.354   2.822   6.851  0.1484 -0.0184  1.1237
  118OSM   H12B12299   2.474   2.737   6.758 -1.5062 -0.5289 -1.1230
  118OSM    C1112300   2.358   2.884   6.659 -0.4969 -1.1752  0.3238
  118OSM   H11A12301   2.303   2.796   6.621 -0.3081 -1.2222  0.1554
  118OSM   H11B12302   2.431   2.906   6.578 -2.2477  2.0343 -0.5538
  118OSM      P12303   2.236   3.106   6.568 -0.4563  0.2802  0.3594
  118OSM    O1312304   2.111   3.055   6.516 -0.2148  0.6554 -0.2445
  118OSM    O1412305   2.237   3.242   6.626 -0.4366 -0.0391  0.1037
  118OSM    O1112306   2.353   3.109   6.459  0.1283 -0.6044 -0.2202
  118OSM    O1212307   2.288   3.001   6.681  0.0235 -0.0399 -0.1034
  118OSM    C1S12308   2.335   3.105   6.317 -1.0457 -0.3160 -0.4036
  118OSM    H1S12309   2.234   3.061   6.297 -0.7279 -1.6063  0.6439
  118OSM    H1T12310   2.413   3.044   6.268  0.6774  0.2836  1.4309
  118OSM     NF12311   2.330   3.218   6.109 -0.1564 -0.0082  0.1466
  118OSM    HNF12312   2.415   3.204   6.059 -0.8165 -3.5130 -0.2384
  118OSM    C2S12313   2.339   3.236   6.251 -0.5805  0.0094  0.5558
  118OSM    H2S12314   2.253   3.299   6.280  0.6261  2.6039 -1.1782
  118OSM    C3S12315   2.460   3.315   6.294 -0.4277 -0.9490  0.1821
  118OSM    H3S12316   2.553   3.261   6.264  2.6761  2.6046  2.4376
  118OSM     O312317   2.485   3.324   6.432 -0.1598  0.1711 -0.0147
  118OSM    HO312318   2.424   3.264   6.476  0.3467 -1.2250 -1.1242
  118OSM    C4S12319   2.465   3.449   6.222 -0.1587 -0.5933  0.3208
  118OSM    H4S12320   2.516   3.437   6.125 -0.0037  1.1362  0.1666
  118OSM    C5S12321   2.433   3.570   6.269 -0.0870 -0.7489  0.2485
  118OSM    H5S12322   2.386   3.571   6.368  1.4714 -1.0892  1.0184
  118OSM    C6S12323   2.455   3.704   6.199  0.1517 -0.1289 -0.4350
  118OSM    H6S12324   2.513   3.774   6.264 -0.2397 -0.9000  0.7786
  118OSM    H6T12325   2.353   3.747   6.198  0.4295  0.7274  1.8566
  118OSM    C7S12326   2.511   3.695   6.056  0.3719  0.0817  0.4294
  118OSM    H7S12327   2.447   3.622   6.002 -1.0606  2.4228 -1.2834
  118OSM    H7T12328   2.619   3.672   6.061  0.6829  0.8183 -1.6941
  118OSM    C8S12329   2.504   3.829   5.986  0.3388  0.0934  0.6204
  118OSM    H8S12330   2.568   3.900   6.041 -0.7476  2.8507 -1.4568
  118OSM    H8T12331   2.400   3.866   5.979 -0.7346 -2.9282 -1.9916
  118OSM    C9S12332   2.545   3.808   5.844  0.0876 -0.0107  0.4220
  118OSM    H9S12333   2.463   3.749   5.797 -0.4857  0.4280  0.8590
  118OSM    H9T12334   2.643   3.755   5.847  0.2270  0.2324  0.1354
  118OSM   C10S12335   2.555   3.934   5.765  0.5695  0.1182  0.4706
  118OSM   H10S12336   2.606   4.020   5.815 -0.6241  0.3500  1.3296
  118OSM   H10T12337   2.450   3.969   5.756  0.1193 -1.3497 -0.1658
  118OSM   C11S12338   2.613   3.912   5.622 -0.2522  0.2704  1.4219
  118OSM   H11S12339   2.601   3.806   5.591 -1.7738  0.8952 -0.3628
  118OSM   H11T12340   2.722   3.929   5.626 -0.1723  0.1749  0.1820
  118OSM   C12S12341   2.554   3.998   5.510  0.5830 -0.1452  0.3764
  118OSM   H12S12342   2.597   4.100   5.520  2.2647 -0.6819 -0.9016
  118OSM   H12T12343   2.443   4.005   5.514  0.2519 -1.3395 -3.0802
  118OSM   C13S12344   2.586   3.954   5.362 -0.0380  0.4780 -0.9000
  118OSM   H13S12345   2.566   3.845   5.351  0.5279  0.0792  1.4962
  118OSM   H13T12346   2.694   3.973   5.347 -0.2591  1.4206 -1.3486
  118OSM   C14S12347   2.510   4.037   5.253  0.0118 -0.3285 -0.1534
  118OSM   H14S12348   2.539   3.980   5.162  1.1551 -0.0696  0.0361
  118OSM   H14T12349   2.535   4.145   5.257  0.0595 -0.1609 -3.0726
  118OSM   C15S12350   2.359   4.020   5.273  0.5662 -0.6256 -0.2851
  118OSM   H15S12351   2.327   4.090   5.354  2.5377 -0.2457  0.2259
  118OSM   H15T12352   2.343   3.914   5.299 -0.0798 -1.0779 -2.3276
  118OSM   C16S12353   2.285   4.038   5.142 -0.0672 -0.0036  0.4122
  118OSM   H16S12354   2.335   3.986   5.057 -0.4670  0.1745  0.0686
  118OSM   H16T12355   2.288   4.144   5.110 -0.3765 -0.3692 -0.9004
  118OSM   C17S12356   2.137   4.001   5.149 -0.1855 -0.0615 -0.2649
  118OSM   H17S12357   2.095   4.039   5.244 -0.2932 -1.3184  0.2151
  118OSM   H17T12358   2.119   3.891   5.151 -1.7861  0.1928  1.0568
  118OSM   C18S12359   2.049   4.065   5.034  0.6041 -0.5185 -0.6719
  118OSM   H18S12360   1.941   4.045   5.055  1.0438 -1.1872  1.1508
  118OSM   H18T12361   2.069   4.009   4.940 -0.2850 -3.3401  0.6946
  118OSM   H18U12362   2.064   4.175   5.035  1.3519 -0.6153 -1.0064
  118OSM    C1F12363   2.213   3.183   6.054 -0.1082 -1.4423  0.0350
  118OSM     OF12364   2.102   3.201   6.109 -0.2737 -0.1294  0.1536
  118OSM    C2F12365   2.223   3.121   5.925 -0.6120  1.2210 -0.2401
  118OSM    H2F12366   2.245   3.016   5.950 -2.0143  0.7733 -0.7687
  118OSM    H2G12367   2.318   3.143   5.873  0.0129  0.2631  0.4718
  118OSM    C3F12368   2.106   3.132   5.839  0.2301  0.2775  0.6807
  118OSM    H3F12369   2.101   3.237   5.802  0.6591 -0.3126 -1.1849
  118OSM    H3G12370   2.003   3.115   5.878 -0.4559 -1.7262 -1.7960
  118OSM    C4F12371   2.100   3.061   5.699  0.4080  0.1036 -0.0172
  118OSM    H4F12372   2.130   2.957   5.723 -0.8410 -0.3141 -0.1464
  118OSM    H4G12373   2.177   3.111   5.637  0.7461  0.7974  0.9467
  118OSM    C5F12374   1.970   3.056   5.630 -0.2366 -0.2221  0.1092
  118OSM    H5F12375   1.920   3.151   5.656 -0.0149  0.3720 -1.5398
  118OSM    H5G12376   1.907   2.973   5.668 -0.1352 -0.0302  0.7009
  118OSM    C6F12377   1.977   3.049   5.475 -0.1900 -0.7610  0.3040
  118OSM    H6F12378   1.876   3.028   5.434 -0.8626  3.5646 -0.7625
  118OSM    H6G12379   2.052   2.974   5.440  0.2636  0.3538 -1.2510
  118OSM    C7F12380   2.036   3.181   5.421 -0.1194  0.2273  1.1225
  118OSM    H7F12381   2.130   3.214   5.470  2.4738 -0.9382 -2.5904
  118OSM    H7G12382   1.959   3.259   5.437  0.2740  0.7321  0.5999
  118OSM    C8F12383   2.070   3.163   5.266  0.1548  0.0597 -0.1055
  118OSM    H8F12384   2.163   3.103   5.261  0.5518  0.5328  1.1114
  118OSM    H8G12385   2.099   3.262   5.224  0.5307 -0.0417 -0.0936
  118OSM    C9F12386   1.972   3.092   5.180 -0.3373  0.6466 -0.0202
  118OSM    H9F12387   1.941   2.996   5.226  0.5199  0.5672  0.4145
  118OSM   C10F12388   1.917   3.125   5.058 -0.5405 -0.2186  0.5124
  118OSM   H10F12389   1.858   3.048   5.006  1.0605 -1.0700 -0.1162
  118OSM   C11F12390   1.930   3.254   4.984 -0.2256 -0.2511 -0.1343
  118OSM   H11F12391   2.027   3.301   5.010  0.5318 -2.6523  1.7173
  118OSM   H11G12392   1.845   3.322   5.008  0.3986  0.4096  0.2489
  118OSM   C12F12393   1.925   3.220   4.828 -0.3592  0.0063  0.2760
  118OSM   H12F12394   1.819   3.200   4.801 -1.2085  0.2730  3.1484
  118OSM   H12G12395   1.990   3.132   4.810 -1.4540 -1.1515  1.7275
  118OSM   C13F12396   1.976   3.334   4.740 -0.0528  0.2936 -0.1144
  118OSM   H13F12397   2.079   3.365   4.770 -0.2973  1.5353 -0.5039
  118OSM   H13G12398   1.914   3.425   4.753  0.3500  0.6262 -0.4499
  118OSM   C14F12399   1.986   3.306   4.590  0.7005 -0.1297  0.0381
  118OSM   H14F12400   1.885   3.315   4.545 -0.1597  1.3467  2.1414
  118OSM   H14G12401   2.024   3.201   4.585  0.2225 -0.4888  2.6150
  118OSM   C15F12402   2.078   3.406   4.520 -0.2153 -0.2307  0.0485
  118OSM   H15F12403   2.058   3.507   4.562  1.7602  0.8064 -1.3536
  118OSM   H15G12404   2.059   3.415   4.411  0.8975  0.8177 -0.0798
  118OSM   C16F12405   2.220   3.366   4.545  0.4167  0.1211  0.4164
  118OSM   H16F12406   2.232   3.256   4.535  1.5261  0.2698 -0.0465
  118OSM   H16G12407   2.253   3.398   4.646  1.1271  1.1237 -0.1158
  118OSM   C17F12408   2.314   3.439   4.448 -0.3417 -0.0744 -0.0114
  118OSM   H17F12409   2.415   3.411   4.484 -0.2542  0.0880 -0.1314
  118OSM   H17G12410   2.300   3.544   4.480  0.2511  0.4755 -1.4933
  118OSM   C18F12411   2.288   3.397   4.306  0.4713 -0.2005  0.3930
  118OSM   H18F12412   2.299   3.288   4.288  2.5897  0.0529 -0.0617
  118OSM   H18G12413   2.362   3.453   4.245 -1.2170 -0.9092 -2.4394
  118OSM   H18H12414   2.188   3.428   4.271  0.3391  0.5888  1.4247
  119OSM      N12415   5.429   0.332   6.912  0.2754  0.5756 -0.3037
  119OSM    C1512416   5.433   0.277   7.049 -0.1413 -0.4656 -0.3340
  119OSM   H15A12417   5.388   0.179   7.057  2.5126 -1.6796  1.4668
  119OSM   H15B12418   5.379   0.342   7.116 -0.1098 -0.4296 -0.3431
  119OSM   H15C12419   5.530   0.283   7.096  0.1345  0.8342 -1.0429
  119OSM    C1412420   5.459   0.475   6.921 -0.2765 -0.7645 -0.4990
  119OSM   H14A12421   5.564   0.503   6.915 -0.2468 -1.0961 -2.3242
  119OSM   H14B12422   5.425   0.526   7.009  0.4793  1.5055 -1.4306
  119OSM   H14C12423   5.419   0.523   6.833  0.1270 -3.1859 -2.0971
  119OSM    C1312424   5.530   0.261   6.825  0.3401  0.3700  0.1358
  119OSM   H13A12425   5.626   0.278   6.873 -0.2505 -2.3586  2.6018
  119OSM   H13B12426   5.522   0.309   6.729 -1.8727  2.5230  1.3005
  119OSM   H13C12427   5.519   0.153   6.822 -1.5179  0.5248  0.4870
  119OSM    C1212428   5.287   0.317   6.862 -0.0457  0.1951 -0.2019
  119OSM   H12A12429   5.229   0.383   6.925  0.6431  1.7580 -1.1637
  119OSM   H12B12430   5.243   0.219   6.874 -1.8459  0.3103 -4.3444
  119OSM    C1112431   5.253   0.366   6.719 -0.2919 -0.1432  0.2729
  119OSM   H11A12432   5.158   0.330   6.675 -0.2354  1.9004 -1.7158
  119OSM   H11B12433   5.334   0.328   6.653  0.9280  3.2702 -0.4082
  119OSM      P12434   5.138   0.598   6.758 -0.0050  0.0097  0.3251
  119OSM    O1312435   5.012   0.545   6.708 -0.0565 -0.4478  0.1559
  119OSM    O1412436   5.155   0.619   6.906  0.0728 -0.0673  0.1201
  119OSM    O1112437   5.164   0.739   6.689 -0.3335  0.1254  0.0574
  119OSM    O1212438   5.264   0.512   6.709 -0.2587  0.0060  0.0562
  119OSM    C1S12439   5.295   0.802   6.703  0.1735 -0.0076 -0.5055
  119OSM    H1S12440   5.362   0.758   6.780  0.4970  0.1200 -0.7112
  119OSM    H1T12441   5.285   0.909   6.733  1.7317  0.0912 -0.2286
  119OSM     NF12442   5.502   0.848   6.567 -0.1199  0.0288  0.2726
  119OSM    HNF12443   5.508   0.939   6.528 -0.3883 -0.5203 -1.1202
  119OSM    C2S12444   5.366   0.798   6.565 -0.8306  0.7531 -0.1456
  119OSM    H2S12445   5.383   0.692   6.535 -0.9705  0.9205 -0.8241
  119OSM    C3S12446   5.284   0.859   6.453  0.0065 -0.3420 -0.0915
  119OSM    H3S12447   5.290   0.964   6.488 -1.9004 -0.6904  1.4739
  119OSM     O312448   5.146   0.827   6.443 -0.0031 -0.3217 -0.0047
  119OSM    HO312449   5.132   0.801   6.534 -0.9697  1.0427  0.2516
  119OSM    C4S12450   5.348   0.851   6.316 -0.2618  0.0676  0.1209
  119OSM    H4S12451   5.377   0.757   6.268 -0.5628 -0.2828  0.6206
  119OSM    C5S12452   5.384   0.965   6.244 -0.4132  0.4548  0.7643
  119OSM    H5S12453   5.365   1.066   6.283 -1.7622  0.7234 -0.5330
  119OSM    C6S12454   5.451   0.967   6.107  0.0223 -0.0144  0.2625
  119OSM    H6S12455   5.516   1.056   6.118 -1.0526  0.8801 -0.5173
  119OSM    H6T12456   5.378   0.986   6.026  1.0187 -0.3962 -0.7668
  119OSM    C7S12457   5.543   0.843   6.064 -0.9097 -0.3289  0.2650
  119OSM    H7S12458   5.479   0.752   6.061  0.8968 -1.6624  0.8483
  119OSM    H7T12459   5.627   0.834   6.136  1.8990  1.0029 -2.6142
  119OSM    C8S12460   5.598   0.868   5.919  0.4785  0.0139  0.4342
  119OSM    H8S12461   5.655   0.961   5.900 -1.4590  1.1186 -0.3472
  119OSM    H8T12462   5.506   0.882   5.857  0.3603 -0.7307  0.4358
  119OSM    C9S12463   5.680   0.751   5.872 -0.2710 -1.0158  0.5800
  119OSM    H9S12464   5.643   0.652   5.905 -1.6574 -0.3550  1.0724
  119OSM    H9T12465   5.785   0.771   5.903 -0.1429 -0.5736 -0.1267
  119OSM   C10S12466   5.683   0.752   5.716 -0.2037 -0.3058  0.4889
  119OSM   H10S12467   5.740   0.841   5.682 -2.3832  1.5092  1.3468
  119OSM   H10T12468   5.577   0.757   5.682  0.2862  1.5622 -0.9156
  119OSM   C11S12469   5.749   0.629   5.662  0.4864  0.1425  0.5753
  119OSM   H11S12470   5.736   0.545   5.734  0.4738  1.0822  1.7059
  119OSM   H11T12471   5.858   0.649   5.668  0.4292  0.3229  1.0641
  119OSM   C12S12472   5.708   0.601   5.514  0.2044  0.9234 -0.4855
  119OSM   H12S12473   5.758   0.687   5.465  1.9537 -0.8960 -2.0871
  119OSM   H12T12474   5.597   0.607   5.508 -0.1013  0.4104  2.9683
  119OSM   C13S12475   5.769   0.478   5.442 -0.7382  0.3771 -0.3609
  119OSM   H13S12476   5.723   0.390   5.491  0.7122 -0.6447 -0.7405
  119OSM   H13T12477   5.873   0.473   5.481 -2.1049 -3.2043  3.4414
  119OSM   C14S12478   5.757   0.483   5.291 -0.0348 -0.2084  0.3648
  119OSM   H14S12479   5.829   0.560   5.258 -0.8609  0.7165  0.6870
  119OSM   H14T12480   5.660   0.512   5.246  0.8041 -0.4107 -1.6922
  119OSM   C15S12481   5.794   0.349   5.223 -0.5100 -0.1410  0.0033
  119OSM   H15S12482   5.720   0.271   5.251 -0.5647 -0.2162 -0.3497
  119OSM   H15T12483   5.891   0.309   5.260 -2.0948 -2.8870  1.5169
  119OSM   C16S12484   5.796   0.362   5.066  0.2371 -0.5230  0.1355
  119OSM   H16S12485   5.828   0.260   5.034  1.1343 -0.9440  2.1616
  119OSM   H16T12486   5.876   0.430   5.031  1.1032 -1.9298 -0.7285
  119OSM   C17S12487   5.674   0.416   4.984 -0.4745  0.8782  0.3376
  119OSM   H17S12488   5.667   0.525   5.004  0.4634  1.1835 -0.8540
  119OSM   H17T12489   5.575   0.369   5.001  0.1526 -0.5277  0.2767
  119OSM   C18S12490   5.696   0.406   4.835 -0.4239 -0.0498  0.1332
  119OSM   H18S12491   5.646   0.489   4.782 -0.5801 -0.5185 -0.4717
  119OSM   H18T12492   5.664   0.304   4.803 -1.6338  0.5548 -0.6583
  119OSM   H18U12493   5.803   0.403   4.805 -0.3882 -0.0665  0.2595
  119OSM    C1F12494   5.590   0.780   6.635 -0.5820  0.2182 -0.4041
  119OSM     OF12495   5.574   0.676   6.697  0.3242  0.3935 -0.2823
  119OSM    C2F12496   5.730   0.840   6.626 -0.1469 -0.1842 -0.5689
  119OSM    H2F12497   5.770   0.856   6.728 -1.6774  2.8096 -0.3398
  119OSM    H2G12498   5.728   0.940   6.579 -0.7196 -1.0657 -2.5462
  119OSM    C3F12499   5.825   0.764   6.535 -0.4620  0.2352 -0.3135
  119OSM    H3F12500   5.842   0.662   6.576  1.7101  1.1597  1.2733
  119OSM    H3G12501   5.923   0.816   6.541  0.0583 -0.8799  2.9417
  119OSM    C4F12502   5.783   0.732   6.389  0.1110 -0.0431  0.0839
  119OSM    H4F12503   5.738   0.824   6.345 -1.0780  0.2803  1.8683
  119OSM    H4G12504   5.706   0.652   6.390 -2.1680  2.0159  1.5357
  119OSM    C5F12505   5.909   0.681   6.302  0.0288 -0.4655 -0.3508
  119OSM    H5F12506   5.943   0.589   6.353 -1.2553 -0.1675  1.1451
  119OSM    H5G12507   5.993   0.753   6.308  0.2927 -0.6806 -1.3188
  119OSM    C6F12508   5.870   0.667   6.156  0.1254  0.0602  0.2722
  119OSM    H6F12509   5.877   0.770   6.115  1.1401 -1.4682 -3.8817
  119OSM    H6G12510   5.764   0.634   6.147  0.0728 -0.2213  1.7050
  119OSM    C7F12511   5.950   0.566   6.073  0.2502  0.3250 -0.6477
  119OSM    H7F12512   5.908   0.569   5.970  1.3180 -1.0565 -1.1610
  119OSM    H7G12513   5.927   0.467   6.118 -0.3168 -0.0143 -1.6504
  119OSM    C8F12514   6.108   0.590   6.076 -0.0432  0.8284  0.4425
  119OSM    H8F12515   6.137   0.625   6.178 -0.6310  2.4560  0.0737
  119OSM    H8G12516   6.125   0.676   6.009 -0.9923  0.4067 -0.3726
  119OSM    C9F12517   6.186   0.469   6.027 -0.2834 -0.0164 -0.2831
  119OSM    H9F12518   6.186   0.387   6.101  2.6139  0.4929  0.4126
  119OSM   C10F12519   6.266   0.462   5.918 -0.4764  0.0473  0.1347
  119OSM   H10F12520   6.317   0.367   5.893  0.8223  0.6816  0.2898
  119OSM   C11F12521   6.300   0.567   5.809  0.1096  0.0542 -1.0397
  119OSM   H11F12522   6.402   0.598   5.841  0.6449 -1.1689 -1.5133
  119OSM   H11G12523   6.235   0.657   5.806  0.0494  0.0038 -1.2485
  119OSM   C12F12524   6.306   0.513   5.666 -0.7244 -0.2254 -0.1604
  119OSM   H12F12525   6.371   0.424   5.664 -3.1897 -2.3727  3.3190
  119OSM   H12G12526   6.352   0.594   5.607 -3.6307  0.9076 -1.0859
  119OSM   C13F12527   6.168   0.481   5.607  0.5059 -0.0587 -0.4677
  119OSM   H13F12528   6.120   0.581   5.605 -1.0798 -0.8089 -1.4014
  119OSM   H13G12529   6.115   0.419   5.681  1.5301 -2.2022 -1.4551
  119OSM   C14F12530   6.168   0.420   5.463  0.1171 -0.1814  0.2674
  119OSM   H14F12531   6.068   0.386   5.429  0.0299  1.9612 -1.8395
  119OSM   H14G12532   6.247   0.343   5.469  0.2436 -0.0198  0.7974
  119OSM   C15F12533   6.225   0.527   5.363  0.3635  0.0869 -0.3700
  119OSM   H15F12534   6.331   0.541   5.394  0.1897 -0.1693  0.3668
  119OSM   H15G12535   6.179   0.626   5.382 -0.1251 -0.1672 -0.2345
  119OSM   C16F12536   6.214   0.483   5.223 -0.0722 -0.1053  0.5369
  119OSM   H16F12537   6.264   0.561   5.161  0.0046 -0.2074  0.4717
  119OSM   H16G12538   6.107   0.480   5.194 -0.0773 -0.4590  0.5883
  119OSM   C17F12539   6.270   0.347   5.187  0.0950 -0.1720  0.6798
  119OSM   H17F12540   6.226   0.277   5.261 -0.2323  0.8902  1.5007
  119OSM   H17G12541   6.380   0.333   5.194  0.5195  2.8048  1.2876
  119OSM   C18F12542   6.217   0.285   5.054  0.1640  0.3102  0.3591
  119OSM   H18F12543   6.233   0.351   4.966  1.7906 -0.5186  0.0016
  119OSM   H18G12544   6.107   0.271   5.058 -0.2058  1.8513 -2.1932
  119OSM   H18H12545   6.265   0.191   5.020  0.3595  0.6042 -0.1888
  120OSM      N12546   6.372   4.912   7.246  0.0185 -0.2128 -0.0117
  120OSM    C1512547   6.367   5.065   7.236  0.2553  0.8448 -0.1853
  120OSM   H15A12548   6.365   5.101   7.338  0.4891  0.1688  0.0582
  120OSM   H15B12549   6.276   5.090   7.183 -1.7336 -3.0273  1.0167
  120OSM   H15C12550   6.451   5.102   7.180  1.2622  1.7139  1.8023
  120OSM    C1412551   6.507   4.876   7.304  0.1229  0.3107 -0.2147
  120OSM   H14A12552   6.576   4.926   7.239 -1.4816  1.4996 -1.0687
  120OSM   H14B12553   6.521   4.769   7.299 -2.9851 -0.1894 -0.3778
  120OSM   H14C12554   6.517   4.910   7.406  0.6813  1.0381 -0.5090
  120OSM    C1312555   6.259   4.865   7.331 -0.2130  0.4161  0.4182
  120OSM   H13A12556   6.239   4.759   7.322  1.1959  0.0052  1.6261
  120OSM   H13B12557   6.174   4.921   7.298 -0.8280 -0.3398  0.6750
  120OSM   H13C12558   6.270   4.893   7.435  0.3100  1.2772  0.1392
  120OSM    C1212559   6.352   4.837   7.110 -0.1776  0.3352 -0.4881
  120OSM   H12A12560   6.250   4.845   7.075 -0.7113  0.0954  0.9574
  120OSM   H12B12561   6.378   4.733   7.124  2.0080  0.7443 -1.0568
  120OSM    C1112562   6.447   4.897   7.002 -0.3786 -0.1007  0.0554
  120OSM   H11A12563   6.446   5.008   7.001 -3.4699 -0.0025  1.3154
  120OSM   H11B12564   6.416   4.867   6.900  3.9537  0.7691 -1.7283
  120OSM      P12565   6.619   4.709   6.996 -0.0577 -0.2668  0.2665
  120OSM    O1312566   6.742   4.678   7.072  0.2255 -0.2403  0.6008
  120OSM    O1412567   6.512   4.611   7.010 -0.3320  0.1815  0.0710
  120OSM    O1112568   6.654   4.719   6.843  0.1642  0.1504  1.3402
  120OSM    O1212569   6.578   4.853   7.027  0.2077  0.2256  0.4058
  120OSM    C1S12570   6.778   4.757   6.793  0.0551 -0.5592 -0.3923
  120OSM    H1S12571   6.865   4.692   6.819  0.5678 -0.0435 -0.7852
  120OSM    H1T12572   6.803   4.856   6.837 -0.7901 -0.3564 -0.3524
  120OSM     NF12573   6.887   4.845   6.592  0.5795  0.2802 -0.1698
  120OSM    HNF12574   6.894   4.945   6.593 -0.0872  0.3251  0.5908
  120OSM    C2S12575   6.762   4.785   6.640  1.4107  0.1306  0.6882
  120OSM    H2S12576   6.752   4.682   6.601  2.1602 -0.2051  1.3381
  120OSM    C3S12577   6.640   4.869   6.591  0.3444 -0.8104 -0.6051
  120OSM    H3S12578   6.650   4.970   6.637 -0.4568 -0.8819 -0.2578
  120OSM     O312579   6.509   4.839   6.624  0.2134 -0.2814 -0.0764
  120OSM    HO312580   6.530   4.802   6.711  1.4843 -0.8924 -0.6187
  120OSM    C4S12581   6.646   4.891   6.446  0.2011 -0.3348 -0.3434
  120OSM    H4S12582   6.708   4.977   6.419  0.4949 -0.7930 -1.1662
  120OSM    C5S12583   6.599   4.818   6.346  0.2766  0.6854 -0.3445
  120OSM    H5S12584   6.539   4.731   6.375 -0.0963  1.5801  1.7725
  120OSM    C6S12585   6.619   4.844   6.197 -0.0059 -0.2095 -0.2594
  120OSM    H6S12586   6.596   4.949   6.171 -0.2830 -0.4120 -0.8668
  120OSM    H6T12587   6.562   4.768   6.138 -4.2790  1.5073  1.2671
  120OSM    C7S12588   6.764   4.819   6.146 -0.5369 -0.7785 -0.0107
  120OSM    H7S12589   6.813   4.728   6.184 -2.0157 -1.0235  1.4177
  120OSM    H7T12590   6.837   4.897   6.175  1.3097 -1.5398 -2.2955
  120OSM    C8S12591   6.774   4.819   5.994 -0.1033  0.7410 -0.0149
  120OSM    H8S12592   6.861   4.887   5.978  0.0222  0.7466  0.6825
  120OSM    H8T12593   6.686   4.864   5.943 -2.1317 -1.0580  1.6777
  120OSM    C9S12594   6.802   4.687   5.938  0.3359  0.2725  0.2163
  120OSM    H9S12595   6.706   4.637   5.914 -0.0396  1.2644 -0.4506
  120OSM    H9T12596   6.864   4.629   6.009 -0.6620 -0.3644  0.5907
  120OSM   C10S12597   6.874   4.702   5.802 -0.5774  0.1653  0.0911
  120OSM   H10S12598   6.907   4.604   5.762  1.9450  0.9157  0.1389
  120OSM   H10T12599   6.965   4.758   5.834 -0.1252 -0.9185  0.7515
  120OSM   C11S12600   6.806   4.789   5.697 -0.1907  0.1452  0.5352
  120OSM   H11S12601   6.819   4.892   5.737 -2.1811  1.1974 -1.2958
  120OSM   H11T12602   6.698   4.767   5.688  0.1904 -1.5167 -0.3211
  120OSM   C12S12603   6.873   4.791   5.562 -0.3504  0.1228  1.3863
  120OSM   H12S12604   6.881   4.684   5.533  0.0903  0.6173 -0.4354
  120OSM   H12T12605   6.972   4.840   5.560 -0.6053  0.6296  0.4170
  120OSM   C13S12606   6.798   4.871   5.455 -0.6289 -1.0000 -0.2625
  120OSM   H13S12607   6.801   4.980   5.471 -0.9659 -1.1771  1.1480
  120OSM   H13T12608   6.692   4.835   5.461 -0.4379 -1.5635 -0.1721
  120OSM   C14S12609   6.853   4.846   5.314 -0.0670 -0.2542  0.7726
  120OSM   H14S12610   6.781   4.784   5.256  0.1576  0.3011 -0.1234
  120OSM   H14T12611   6.947   4.786   5.322 -0.8329 -2.2643 -3.1161
  120OSM   C15S12612   6.867   4.963   5.220 -0.0762  0.1787  1.0519
  120OSM   H15S12613   6.948   5.038   5.234 -0.4780  0.5868  1.2323
  120OSM   H15T12614   6.773   5.023   5.226 -0.8912 -0.2974 -3.6283
  120OSM   C16S12615   6.866   4.923   5.067 -0.7802  0.5494  0.2037
  120OSM   H16S12616   6.760   4.891   5.057 -1.5599  2.4741  1.6139
  120OSM   H16T12617   6.931   4.833   5.057 -0.2328  1.0432 -0.8689
  120OSM   C17S12618   6.900   5.027   4.961  0.8814  0.3691  0.0506
  120OSM   H17S12619   7.008   5.047   4.984  1.1795 -0.1386 -0.8851
  120OSM   H17T12620   6.840   5.116   4.992  1.2330  0.7470 -0.3404
  120OSM   C18S12621   6.890   4.989   4.815  0.3435  0.2231  1.0046
  120OSM   H18S12622   6.936   5.056   4.740 -0.3248  0.1465  0.5167
  120OSM   H18T12623   6.785   4.972   4.784  0.3732  2.5973 -0.6524
  120OSM   H18U12624   6.945   4.894   4.798 -1.0529 -0.4690  0.1476
  120OSM    C1F12625   7.002   4.770   6.588  0.1960  0.1338 -0.5701
  120OSM     OF12626   6.998   4.649   6.614  0.3996 -0.6079  0.0469
  120OSM    C2F12627   7.129   4.845   6.553 -0.4946 -0.1134 -0.8449
  120OSM    H2F12628   7.188   4.887   6.637  1.2745  0.4423 -2.2801
  120OSM    H2G12629   7.094   4.932   6.493 -0.0528 -0.8691 -2.2573
  120OSM    C3F12630   7.218   4.750   6.472 -0.4615  0.4530 -0.9700
  120OSM    H3F12631   7.239   4.651   6.519 -0.0476  0.4397 -1.1754
  120OSM    H3G12632   7.318   4.800   6.468  0.3029 -0.8925  0.1576
  120OSM    C4F12633   7.153   4.724   6.337 -0.5680 -0.6059  0.0394
  120OSM    H4F12634   7.096   4.812   6.301  0.4064 -0.5589 -1.5284
  120OSM    H4G12635   7.077   4.647   6.362 -0.9722  0.6377  3.1093
  120OSM    C5F12636   7.246   4.691   6.223 -0.0834 -0.3485 -0.6789
  120OSM    H5F12637   7.317   4.615   6.262 -0.2016 -0.7690 -1.2764
  120OSM    H5G12638   7.299   4.780   6.182 -0.5153  0.2641  0.0665
  120OSM    C6F12639   7.170   4.641   6.097  0.1349  0.2096 -0.4307
  120OSM    H6F12640   7.096   4.721   6.075 -1.5076 -1.5349 -1.5106
  120OSM    H6G12641   7.106   4.552   6.116  0.5414  0.1273  0.6510
  120OSM    C7F12642   7.263   4.611   5.981 -0.1465 -0.7380 -0.0687
  120OSM    H7F12643   7.355   4.562   6.021 -0.8488 -2.0897 -0.0494
  120OSM    H7G12644   7.306   4.708   5.947  1.1402 -0.6458  1.6866
  120OSM    C8F12645   7.203   4.529   5.859 -0.2829  0.0507  0.4088
  120OSM    H8F12646   7.138   4.594   5.798 -1.0239  0.9293  2.0770
  120OSM    H8G12647   7.136   4.449   5.898  1.6022 -2.1224 -0.5051
  120OSM    C9F12648   7.327   4.467   5.791  0.1219  0.0158  0.7188
  120OSM    H9F12649   7.389   4.415   5.865  1.7302  1.2514  0.3052
  120OSM   C10F12650   7.351   4.471   5.660 -0.3001  0.5654 -0.2595
  120OSM   H10F12651   7.437   4.412   5.626  0.0258  0.1805  1.1439
  120OSM   C11F12652   7.279   4.541   5.546 -0.4530 -0.6090 -0.0272
  120OSM   H11F12653   7.170   4.546   5.567 -0.3979  2.3802 -0.0821
  120OSM   H11G12654   7.288   4.475   5.457 -0.0411  1.4482 -1.5657
  120OSM   C12F12655   7.337   4.681   5.526  0.4654  0.2549  0.3574
  120OSM   H12F12656   7.448   4.677   5.523  0.4452  0.2675 -0.9498
  120OSM   H12G12657   7.314   4.740   5.617  2.2213  2.6542 -0.6547
  120OSM   C13F12658   7.279   4.752   5.407  0.4607  0.1398  0.9711
  120OSM   H13F12659   7.289   4.861   5.428 -0.2260  0.5794 -0.7545
  120OSM   H13G12660   7.170   4.735   5.396  0.6980  0.0563 -2.2464
  120OSM   C14F12661   7.337   4.719   5.275  0.0285  0.1119  0.2869
  120OSM   H14F12662   7.340   4.609   5.261 -1.4187  0.1471 -0.5513
  120OSM   H14G12663   7.440   4.760   5.275  0.4851 -0.9845  1.3173
  120OSM   C15F12664   7.270   4.786   5.157 -0.4215  0.3010  0.2606
  120OSM   H15F12665   7.276   4.897   5.159 -1.0623  0.3290  0.9586
  120OSM   H15G12666   7.164   4.757   5.166  0.1052 -1.5275  1.1045
  120OSM   C16F12667   7.314   4.738   5.013  0.0545 -0.3706 -0.2809
  120OSM   H16F12668   7.303   4.627   5.016  2.2783 -0.6299 -0.0672
  120OSM   H16G12669   7.419   4.754   4.980  0.2201 -2.4732 -0.9341
  120OSM   C17F12670   7.223   4.785   4.901 -0.3444 -0.4119 -0.2287
  120OSM   H17F12671   7.215   4.896   4.903 -0.0028 -0.3233 -2.0782
  120OSM   H17G12672   7.122   4.744   4.922  0.6357 -3.3304 -0.8569
  120OSM   C18F12673   7.272   4.738   4.763 -0.1955  0.2796 -1.1458
  120OSM   H18F12674   7.380   4.746   4.739  0.9175 -4.5925  0.9973
  120OSM   H18G12675   7.218   4.808   4.696  0.6236  2.2243  0.1167
  120OSM   H18H12676   7.242   4.634   4.738  2.3643 -0.7514 -0.2818
  121OSM      N12677   2.085   2.036   7.024 -0.0628 -0.1478 -0.1965
  121OSM    C1512678   2.035   2.079   7.160  0.2648 -0.4770 -0.0619
  121OSM   H15A12679   1.944   2.134   7.140  0.2015 -1.2530 -2.2251
  121OSM   H15B12680   2.097   2.161   7.192  0.7974  0.4211 -3.0751
  121OSM   H15C12681   2.014   1.994   7.224 -2.1950  1.9301  2.6011
  121OSM    C1412682   2.073   2.154   6.933  0.0358  0.6848 -0.2948
  121OSM   H14A12683   2.122   2.241   6.974 -0.2605  0.9258 -0.4449
  121OSM   H14B12684   1.969   2.180   6.927 -0.2815  1.0439  3.9664
  121OSM   H14C12685   2.108   2.130   6.833  2.1551  0.8628  0.3588
  121OSM    C1312686   2.229   1.991   7.038  0.1491 -0.5897 -0.1472
  121OSM   H13A12687   2.246   1.916   7.114 -1.2271 -0.0515  0.7273
  121OSM   H13B12688   2.281   2.080   7.071  2.1232 -0.2463 -3.6699
  121OSM   H13C12689   2.272   1.954   6.946  1.1285  0.3249 -0.0814
  121OSM    C1212690   1.999   1.917   6.969  0.3470 -0.2492  0.2926
  121OSM   H12A12691   2.038   1.892   6.872  1.0015 -2.0273  0.9727
  121OSM   H12B12692   1.895   1.945   6.962  0.7924  1.8837  1.4398
  121OSM    C1112693   1.995   1.785   7.055 -0.5019  0.4344 -0.0063
  121OSM   H11A12694   1.900   1.733   7.031  0.6126 -1.1250 -1.3263
  121OSM   H11B12695   2.000   1.821   7.160  0.1281 -3.1995  1.3509
  121OSM      P12696   2.150   1.632   6.901  0.4313  0.3763 -0.2673
  121OSM    O1312697   2.297   1.617   6.889 -0.7169  0.4658 -0.7477
  121OSM    O1412698   2.069   1.506   6.900 -0.3665 -0.3036  0.1076
  121OSM    O1112699   2.103   1.737   6.783 -0.8223 -0.3404 -0.2495
  121OSM    O1212700   2.116   1.707   7.034  0.3957 -0.0286 -0.1588
  121OSM    C1S12701   1.998   1.693   6.701 -0.0579  0.9441 -0.1216
  121OSM    H1S12702   1.903   1.722   6.749 -0.3249  0.7117 -0.5008
  121OSM    H1T12703   1.999   1.584   6.678  1.0303  0.4893  1.8783
  121OSM     NF12704   1.894   1.702   6.478  0.5614 -0.1831 -0.0231
  121OSM    HNF12705   1.916   1.630   6.413  2.4279 -0.8596  1.2609
  121OSM    C2S12706   2.003   1.755   6.555 -0.7945  0.2528 -0.6021
  121OSM    H2S12707   1.998   1.866   6.559  1.3352  0.4713 -2.3345
  121OSM    C3S12708   2.140   1.733   6.495  0.6056 -0.2013 -0.0674
  121OSM    H3S12709   2.169   1.626   6.501  1.9100  0.1225 -0.2108
  121OSM     O312710   2.241   1.811   6.557  0.3243 -0.0218 -0.4489
  121OSM    HO312711   2.200   1.837   6.640  0.3924  1.1760 -0.7770
  121OSM    C4S12712   2.136   1.770   6.352  0.1469 -0.1493  0.5453
  121OSM    H4S12713   2.118   1.877   6.332  0.6621 -0.3234 -0.9794
  121OSM    C5S12714   2.158   1.683   6.247  0.0782 -0.3427 -0.3168
  121OSM    H5S12715   2.214   1.594   6.278  0.4094  1.1501  4.0575
  121OSM    C6S12716   2.148   1.708   6.099  0.0448 -0.3637 -0.4360
  121OSM    H6S12717   2.044   1.673   6.077 -0.6729 -0.5892  2.7741
  121OSM    H6T12718   2.219   1.643   6.045  0.2388 -1.5338  1.1782
  121OSM    C7S12719   2.175   1.854   6.061 -0.5631  0.2877  0.2375
  121OSM    H7S12720   2.275   1.877   6.103 -0.9815 -0.5895  1.7942
  121OSM    H7T12721   2.106   1.916   6.122 -1.6382  0.6551 -1.2874
  121OSM    C8S12722   2.157   1.880   5.916 -0.4515  0.6036 -0.0084
  121OSM    H8S12723   2.147   1.990   5.906 -2.7987  0.5713  1.3378
  121OSM    H8T12724   2.060   1.842   5.877  0.2198 -1.3316  0.0560
  121OSM    C9S12725   2.276   1.824   5.824 -0.2559  0.0530  0.2654
  121OSM    H9S12726   2.301   1.717   5.836 -0.3943  0.0701  0.7388
  121OSM    H9T12727   2.369   1.880   5.848 -0.7698  0.3798  1.5726
  121OSM   C10S12728   2.243   1.848   5.671 -0.2060 -0.0152  0.3288
  121OSM   H10S12729   2.229   1.954   5.644 -0.2912 -0.4257 -1.3341
  121OSM   H10T12730   2.144   1.798   5.659 -1.5328  2.6370 -0.4367
  121OSM   C11S12731   2.335   1.772   5.570 -0.2942 -0.0351 -0.4251
  121OSM   H11S12732   2.337   1.670   5.614  1.6262  0.5525  0.9573
  121OSM   H11T12733   2.440   1.805   5.582 -0.2341 -0.0526 -0.8925
  121OSM   C12S12734   2.288   1.785   5.425 -0.1822 -0.2770 -0.4277
  121OSM   H12S12735   2.258   1.887   5.394  2.5625 -0.1502 -3.1527
  121OSM   H12T12736   2.210   1.706   5.415  1.4867 -2.0512 -0.1535
  121OSM   C13S12737   2.400   1.755   5.325  0.2852 -0.6336  0.4055
  121OSM   H13S12738   2.424   1.646   5.322 -1.4136 -1.0161 -0.1376
  121OSM   H13T12739   2.493   1.808   5.357  0.1873  0.2482 -0.7267
  121OSM   C14S12740   2.363   1.805   5.185  0.1538 -0.1004  0.1731
  121OSM   H14S12741   2.351   1.916   5.189 -1.0485 -0.2478  1.4218
  121OSM   H14T12742   2.261   1.768   5.161  0.4115 -0.8434  0.1937
  121OSM   C15S12743   2.456   1.760   5.074 -0.0649 -0.0464  0.2683
  121OSM   H15S12744   2.474   1.651   5.074  1.0728  0.1024 -1.3796
  121OSM   H15T12745   2.557   1.805   5.090  0.2290 -0.5336 -0.2017
  121OSM   C16S12746   2.394   1.791   4.941  0.2808 -0.6610  0.3503
  121OSM   H16S12747   2.288   1.760   4.949  0.0834 -0.3128 -0.7487
  121OSM   H16T12748   2.440   1.720   4.869  0.7173 -0.2046  0.1807
  121OSM   C17S12749   2.420   1.932   4.889  0.3269 -0.8184  0.0621
  121OSM   H17S12750   2.529   1.939   4.869  0.4805 -0.9371  0.8618
  121OSM   H17T12751   2.382   2.007   4.961  2.3499 -1.0413  1.4423
  121OSM   C18S12752   2.349   1.969   4.759 -0.3509 -0.2397  0.2536
  121OSM   H18S12753   2.361   1.886   4.686  0.5947 -0.3240  0.4899
  121OSM   H18T12754   2.382   2.067   4.721 -1.1016  0.3986  1.1806
  121OSM   H18U12755   2.243   1.982   4.790 -0.7130 -0.4247 -0.8535
  121OSM    C1F12756   1.768   1.738   6.509 -0.2156 -0.0907  0.0872
  121OSM     OF12757   1.742   1.817   6.599  0.4277  0.1471 -0.2514
  121OSM    C2F12758   1.655   1.679   6.447 -0.6139  0.7417 -0.2648
  121OSM    H2F12759   1.582   1.759   6.422  0.2776  1.2284 -1.3759
  121OSM    H2G12760   1.609   1.600   6.511 -0.2180  1.8724  1.4862
  121OSM    C3F12761   1.689   1.602   6.315 -0.0795 -0.3682  0.7958
  121OSM    H3F12762   1.597   1.545   6.291 -0.6364  0.7217  0.2552
  121OSM    H3G12763   1.766   1.524   6.333 -0.3414 -0.6028  0.8909
  121OSM    C4F12764   1.719   1.684   6.196 -0.1707 -1.1005  0.0361
  121OSM    H4F12765   1.811   1.736   6.231 -0.9519 -0.0215  0.5244
  121OSM    H4G12766   1.636   1.756   6.178 -0.8973 -2.1900 -1.1285
  121OSM    C5F12767   1.742   1.610   6.069 -0.0333 -0.4984  0.2565
  121OSM    H5F12768   1.642   1.563   6.057  0.4673 -1.7103  0.6698
  121OSM    H5G12769   1.817   1.528   6.064 -1.8718 -2.5481  3.1246
  121OSM    C6F12770   1.770   1.702   5.944  0.3742 -0.0513  0.4193
  121OSM    H6F12771   1.868   1.744   5.976  0.3570  0.1808  0.1722
  121OSM    H6G12772   1.684   1.769   5.924 -0.6820 -1.7191 -0.8751
  121OSM    C7F12773   1.789   1.611   5.817 -0.1065  0.7733 -0.5110
  121OSM    H7F12774   1.691   1.587   5.770 -0.4537  0.2634  0.4558
  121OSM    H7G12775   1.845   1.521   5.852 -0.8732  0.1556 -0.8523
  121OSM    C8F12776   1.877   1.675   5.713 -1.0975 -0.4308  0.7397
  121OSM    H8F12777   1.881   1.606   5.626 -1.2385  1.1757 -0.5961
  121OSM    H8G12778   1.977   1.685   5.761 -0.4221  1.3935 -0.8955
  121OSM    C9F12779   1.830   1.811   5.662  0.6501  0.2494  0.1450
  121OSM    H9F12780   1.790   1.866   5.749 -0.6563  0.1465 -0.3749
  121OSM   C10F12781   1.815   1.858   5.536 -0.3786  0.2928 -0.1473
  121OSM   H10F12782   1.767   1.955   5.514  0.5205  0.8284  0.2264
  121OSM   C11F12783   1.878   1.793   5.414 -0.0973 -0.5260 -0.4474
  121OSM   H11F12784   1.800   1.743   5.353 -0.4136  2.0362 -2.3559
  121OSM   H11G12785   1.947   1.715   5.454 -0.1281  0.6297  2.0419
  121OSM   C12F12786   1.956   1.889   5.321  0.0590  1.2141 -0.1296
  121OSM   H12F12787   2.047   1.913   5.381 -0.1171  0.9592  0.2422
  121OSM   H12G12788   1.899   1.980   5.294 -1.2456  0.5809  0.4228
  121OSM   C13F12789   1.990   1.823   5.180  0.2183 -0.0253  0.1492
  121OSM   H13F12790   2.040   1.728   5.210  1.8607  0.8314  0.2571
  121OSM   H13G12791   2.058   1.896   5.131 -0.4633 -0.3606 -1.3268
  121OSM   C14F12792   1.864   1.793   5.090  0.9970  0.2341 -0.0117
  121OSM   H14F12793   1.795   1.880   5.095  0.5055 -0.2206  2.0415
  121OSM   H14G12794   1.802   1.712   5.134  0.2463  0.4476 -0.6477
  121OSM   C15F12795   1.891   1.756   4.941 -0.1541 -0.0712  0.0973
  121OSM   H15F12796   1.802   1.729   4.880 -1.1880  0.9845  1.0885
  121OSM   H15G12797   1.953   1.665   4.950  1.3553  0.3855 -3.8086
  121OSM   C16F12798   1.972   1.866   4.873 -0.5928  0.2053  0.4045
  121OSM   H16F12799   2.075   1.850   4.912 -1.1482  0.4373  2.0208
  121OSM   H16G12800   1.937   1.962   4.917 -0.4580  0.1491  0.6337
  121OSM   C17F12801   1.952   1.866   4.722 -0.6055  1.2156 -0.0320
  121OSM   H17F12802   2.007   1.949   4.673 -0.7885  0.7465 -1.0581
  121OSM   H17G12803   1.848   1.892   4.693 -0.7363 -0.6596 -1.4591
  121OSM   C18F12804   1.993   1.731   4.657 -0.2271  0.1979  0.2490
  121OSM   H18F12805   1.971   1.734   4.548  1.1681 -0.4053 -0.0708
  121OSM   H18G12806   1.934   1.644   4.694  0.7685 -1.2025 -1.3062
  121OSM   H18H12807   2.103   1.714   4.651 -0.3260 -0.3842 -0.0597
  122OSM      N12808   1.330   5.449   6.706  0.2842  0.3458  0.0977
  122OSM    C1512809   1.417   5.541   6.635  0.3585 -0.4683 -0.1869
  122OSM   H15A12810   1.423   5.630   6.696 -3.7174 -0.7999  0.9734
  122OSM   H15B12811   1.381   5.570   6.538 -2.2988  1.7820  1.3187
  122OSM   H15C12812   1.519   5.506   6.628  0.6671  0.8090 -4.5017
  122OSM    C1412813   1.191   5.499   6.709 -0.2197 -1.0214  0.9104
  122OSM   H14A12814   1.148   5.506   6.610  0.1894 -0.3153  0.7784
  122OSM   H14B12815   1.178   5.596   6.756  0.1152  0.6114 -2.1238
  122OSM   H14C12816   1.127   5.433   6.766 -1.0407 -0.8183  0.2537
  122OSM    C1312817   1.328   5.326   6.616  0.4116 -0.3901 -0.2380
  122OSM   H13A12818   1.271   5.249   6.667  1.2716 -0.0545  1.2833
  122OSM   H13B12819   1.428   5.289   6.600  1.0005  0.3878  1.4050
  122OSM   H13C12820   1.278   5.351   6.523 -2.3257  0.3843  1.3353
  122OSM    C1212821   1.381   5.414   6.847 -0.9227  0.1502  0.1506
  122OSM   H12A12822   1.387   5.505   6.904  0.7016  0.6890 -0.8061
  122OSM   H12B12823   1.485   5.386   6.848 -0.7256  0.8915  0.9989
  122OSM    C1112824   1.306   5.306   6.933 -0.5421 -0.4245  0.2765
  122OSM   H11A12825   1.198   5.320   6.912 -0.2003  1.5498 -0.3272
  122OSM   H11B12826   1.324   5.337   7.038  0.2531  0.3163 -0.0653
  122OSM      P12827   1.441   5.087   6.994 -0.2703 -0.1654 -0.0248
  122OSM    O1312828   1.565   5.167   7.021 -0.3912  0.1566 -0.0476
  122OSM    O1412829   1.366   5.029   7.108 -0.4489  0.8964 -0.4904
  122OSM    O1112830   1.477   4.970   6.898 -0.1192 -0.8024  0.7190
  122OSM    O1212831   1.341   5.172   6.905 -0.0876 -0.0409 -0.1991
  122OSM    C1S12832   1.386   4.951   6.786 -0.1488  0.2198  0.4057
  122OSM    H1S12833   1.356   5.044   6.734 -2.2178  0.1194  1.3297
  122OSM    H1T12834   1.285   4.911   6.809  0.0975 -1.6807 -1.5167
  122OSM     NF12835   1.352   4.848   6.566 -0.2157 -0.0873 -0.7802
  122OSM    HNF12836   1.288   4.771   6.571 -0.3170  0.0758  1.3146
  122OSM    C2S12837   1.452   4.862   6.677 -0.0867  0.9522  0.0437
  122OSM    H2S12838   1.546   4.910   6.645 -0.1070 -0.0524 -1.6574
  122OSM    C3S12839   1.514   4.726   6.735  0.3312 -0.2972  1.4443
  122OSM    H3S12840   1.436   4.673   6.794  0.8930 -3.5938 -0.4587
  122OSM     O312841   1.612   4.756   6.833  0.3185 -0.0958 -0.2695
  122OSM    HO312842   1.604   4.847   6.863  2.7292  0.1655 -0.2677
  122OSM    C4S12843   1.571   4.639   6.621  0.3471  0.4387  0.5183
  122OSM    H4S12844   1.497   4.621   6.542  0.8940 -1.0867  0.3264
  122OSM    C5S12845   1.699   4.609   6.582  0.1108  0.1921 -0.3196
  122OSM    H5S12846   1.791   4.650   6.626 -0.1342 -0.2593  0.6252
  122OSM    C6S12847   1.718   4.526   6.456 -0.4215 -0.1988 -0.5603
  122OSM    H6S12848   1.793   4.448   6.480  0.4204  0.9849  0.8292
  122OSM    H6T12849   1.770   4.604   6.397 -0.4791  0.2979  0.0304
  122OSM    C7S12850   1.597   4.483   6.379 -0.6874 -0.5102 -0.3866
  122OSM    H7S12851   1.541   4.567   6.332 -3.4935 -1.2972  1.3027
  122OSM    H7T12852   1.530   4.435   6.453  0.2037 -1.0662  0.0713
  122OSM    C8S12853   1.615   4.387   6.259 -0.7266  0.0756  0.3081
  122OSM    H8S12854   1.668   4.303   6.309 -2.9827 -0.5128  1.8764
  122OSM    H8T12855   1.671   4.431   6.173 -0.9405 -0.6936 -0.2412
  122OSM    C9S12856   1.482   4.349   6.205 -0.2040  0.3355  0.8537
  122OSM    H9S12857   1.424   4.441   6.184 -2.1158 -0.1224  3.5236
  122OSM    H9T12858   1.418   4.279   6.264 -1.1335  0.5644  0.1477
  122OSM   C10S12859   1.503   4.284   6.068  0.1025  0.2757  0.7330
  122OSM   H10S12860   1.581   4.341   6.013  0.4201 -0.6559  0.2050
  122OSM   H10T12861   1.410   4.297   6.009  0.1076 -0.3546  0.5808
  122OSM   C11S12862   1.549   4.134   6.076 -0.0328 -0.1484  0.2497
  122OSM   H11S12863   1.468   4.064   6.102  1.1504 -0.8204  2.3882
  122OSM   H11T12864   1.629   4.133   6.154  1.5070 -1.1336 -1.2549
  122OSM   C12S12865   1.611   4.085   5.943 -0.5039 -0.1391  0.7127
  122OSM   H12S12866   1.662   3.987   5.959  1.0491  0.3826 -0.6624
  122OSM   H12T12867   1.690   4.159   5.916 -0.8241 -0.2800 -0.7327
  122OSM   C13S12868   1.498   4.052   5.840  0.6453  1.0689  0.0972
  122OSM   H13S12869   1.428   4.136   5.854  0.2063  0.4737  1.6852
  122OSM   H13T12870   1.443   3.963   5.876  1.0639  0.1435 -1.4380
  122OSM   C14S12871   1.538   4.032   5.692  0.8637  0.0218 -0.1805
  122OSM   H14S12872   1.609   3.947   5.682  0.1227 -0.3365 -6.7051
  122OSM   H14T12873   1.587   4.120   5.645 -1.4133  1.8676  0.6966
  122OSM   C15S12874   1.407   4.006   5.600  0.1604 -0.1907  0.6117
  122OSM   H15S12875   1.353   4.103   5.609  1.5385  0.7548 -0.8296
  122OSM   H15T12876   1.345   3.925   5.643 -1.4149  0.8384  0.3878
  122OSM   C16S12877   1.442   3.990   5.452 -0.1554  0.2908  0.6162
  122OSM   H16S12878   1.500   3.897   5.433 -0.3938 -0.1978  2.1611
  122OSM   H16T12879   1.504   4.075   5.416  0.6277  0.4832  2.2985
  122OSM   C17S12880   1.309   3.994   5.378 -0.3342  0.0540 -0.2098
  122OSM   H17S12881   1.256   4.084   5.417  0.8605  0.8516 -0.3754
  122OSM   H17T12882   1.249   3.904   5.402 -0.9208  0.0370 -1.6564
  122OSM   C18S12883   1.321   3.997   5.221 -0.3849 -0.5853  0.0337
  122OSM   H18S12884   1.374   3.905   5.188  3.2286  0.3100  2.7355
  122OSM   H18T12885   1.390   4.082   5.198 -2.2018  1.2651  1.0507
  122OSM   H18U12886   1.221   4.017   5.177  0.1308 -2.9996 -2.5149
  122OSM    C1F12887   1.328   4.952   6.490 -0.8231 -0.1134 -0.3927
  122OSM     OF12888   1.407   5.050   6.486  0.3788  0.3066  0.2573
  122OSM    C2F12889   1.203   4.951   6.411  0.2964  0.1829 -0.0304
  122OSM    H2F12890   1.127   5.008   6.469 -1.7217 -1.7749 -0.6401
  122OSM    H2G12891   1.164   4.850   6.388 -0.6233  0.7894 -1.2715
  122OSM    C3F12892   1.205   5.019   6.273 -0.3966  0.4438  0.1025
  122OSM    H3F12893   1.256   4.963   6.192 -2.7275  0.2723 -1.3147
  122OSM    H3G12894   1.250   5.119   6.288 -3.1118  1.9091 -0.9009
  122OSM    C4F12895   1.056   5.037   6.226 -0.4710  0.3427 -0.1974
  122OSM    H4F12896   1.002   5.097   6.302 -0.3811  4.5637 -3.0710
  122OSM    H4G12897   1.016   4.934   6.228  1.6080 -0.5030  0.1508
  122OSM    C5F12898   1.045   5.103   6.086 -0.0626  0.4084 -0.3856
  122OSM    H5F12899   0.937   5.126   6.079 -0.1172 -0.2778 -2.4287
  122OSM    H5G12900   1.063   5.028   6.006 -1.0289  0.8991 -1.0847
  122OSM    C6F12901   1.120   5.235   6.071 -0.3309  0.0695  0.6814
  122OSM    H6F12902   1.226   5.221   6.044 -0.0730  1.7719  0.6808
  122OSM    H6G12903   1.126   5.274   6.175 -0.6626  1.2096  0.2963
  122OSM    C7F12904   1.047   5.345   5.988  0.1316 -0.0053  0.1271
  122OSM    H7F12905   1.101   5.442   5.999  1.4394 -0.5044 -1.4569
  122OSM    H7G12906   0.943   5.364   6.022 -0.2185 -3.4303  1.4069
  122OSM    C8F12907   1.054   5.312   5.835  0.7466 -0.0274  0.1204
  122OSM    H8F12908   0.993   5.223   5.805 -2.3292  1.6837  0.8276
  122OSM    H8G12909   1.157   5.282   5.808  1.1886  1.7935 -0.3466
  122OSM    C9F12910   1.000   5.422   5.745 -0.5784  0.0852  0.0903
  122OSM    H9F12911   0.907   5.466   5.784 -1.6921 -0.6376 -1.6316
  122OSM   C10F12912   1.038   5.445   5.616 -0.5968  0.1419 -0.1571
  122OSM   H10F12913   1.007   5.536   5.564  2.1758  0.0366 -2.2585
  122OSM   C11F12914   1.156   5.387   5.540  0.0107  0.3132 -0.1349
  122OSM   H11F12915   1.196   5.296   5.591  1.2256 -0.6036 -2.5698
  122OSM   H11G12916   1.247   5.449   5.525 -0.6244  0.9424 -1.5916
  122OSM   C12F12917   1.122   5.332   5.403  0.0989 -0.7374  0.1825
  122OSM   H12F12918   1.026   5.279   5.419  0.0815 -0.9443 -0.5517
  122OSM   H12G12919   1.196   5.256   5.370  1.3551  0.5782 -0.1841
  122OSM   C13F12920   1.100   5.442   5.300  0.2234  0.1841  0.0463
  122OSM   H13F12921   1.197   5.495   5.287  0.1413  0.4974  0.6458
  122OSM   H13G12922   1.031   5.523   5.332  1.7963  0.9509  1.6696
  122OSM   C14F12923   1.067   5.387   5.155 -0.1957 -0.1425 -0.0896
  122OSM   H14F12924   1.062   5.465   5.076 -2.0217  0.1602  0.2637
  122OSM   H14G12925   0.959   5.365   5.167 -0.4625  0.9764 -0.2874
  122OSM   C15F12926   1.140   5.262   5.108 -0.2366 -0.2405 -0.1425
  122OSM   H15F12927   1.097   5.176   5.163 -0.1995 -0.3938 -0.3530
  122OSM   H15G12928   1.250   5.276   5.121 -0.6130  2.9153  0.4118
  122OSM   C16F12929   1.124   5.229   4.965  0.4145  0.2891  0.1722
  122OSM   H16F12930   1.184   5.138   4.944 -1.8974 -1.5130  0.8977
  122OSM   H16G12931   1.153   5.309   4.893  1.4606  0.4250  0.7307
  122OSM   C17F12932   0.977   5.189   4.934 -0.0664  0.4606  0.4144
  122OSM   H17F12933   0.912   5.272   4.968  0.9070  0.9902  1.0274
  122OSM   H17G12934   0.948   5.095   4.984  1.0933  1.3333  2.8892
  122OSM   C18F12935   0.966   5.176   4.775  0.0827  0.8368 -0.0281
  122OSM   H18F12936   1.021   5.088   4.738 -1.6120  0.2484 -1.2401
  122OSM   H18G12937   0.987   5.273   4.726 -0.5056  2.4444  2.6608
  122OSM   H18H12938   0.862   5.144   4.752  0.1755 -0.9507  1.7309
  123OSM      N12939   5.199   2.140   2.201  0.2593  0.1713 -0.4064
  123OSM    C1512940   5.331   2.202   2.156 -0.3097 -0.1156 -0.0438
  123OSM   H15A12941   5.332   2.305   2.188  2.5994  0.5269 -1.7610
  123OSM   H15B12942   5.337   2.212   2.049 -0.1487  3.2553  0.1719
  123OSM   H15C12943   5.422   2.154   2.189 -1.1976 -2.7626 -1.1432
  123OSM    C1412944   5.085   2.230   2.168 -0.5925 -0.0114  0.0675
  123OSM   H14A12945   5.082   2.246   2.061  0.3327  2.9029  0.3852
  123OSM   H14B12946   5.089   2.326   2.217  2.6376  0.6402 -1.2575
  123OSM   H14C12947   4.992   2.183   2.197  0.8075 -1.0220  3.3511
  123OSM    C1312948   5.174   2.007   2.132 -0.2757  0.6099 -0.7150
  123OSM   H13A12949   5.243   1.929   2.161 -0.8335  0.1925 -0.4858
  123OSM   H13B12950   5.189   2.019   2.025  1.3456 -2.1888 -0.9022
  123OSM   H13C12951   5.072   1.980   2.151 -0.9733  2.2567 -1.8408
  123OSM    C1212952   5.203   2.122   2.353 -0.3924 -0.1080  1.0659
  123OSM   H12A12953   5.284   2.051   2.362  0.5789  0.9952  1.1350
  123OSM   H12B12954   5.114   2.065   2.378 -1.3931 -0.1004 -2.0166
  123OSM    C1112955   5.232   2.241   2.443  0.7637  0.6979  0.2649
  123OSM   H11A12956   5.228   2.198   2.545 -3.9067  0.7825  0.3490
  123OSM   H11B12957   5.147   2.312   2.441 -0.0956 -0.2634  1.3992
  123OSM      P12958   5.385   2.451   2.451  0.2026 -0.1920  0.1822
  123OSM    O1312959   5.525   2.487   2.433 -0.4874 -0.2930 -0.4446
  123OSM    O1412960   5.288   2.533   2.370 -0.5317 -0.0156 -0.1450
  123OSM    O1112961   5.341   2.456   2.605 -0.6376  0.1943 -0.7994
  123OSM    O1212962   5.358   2.303   2.427  0.9591  0.0258 -0.4151
  123OSM    C1S12963   5.235   2.548   2.640 -0.1119 -0.3274  0.0615
  123OSM    H1S12964   5.138   2.501   2.616 -0.0684 -0.8493  0.8762
  123OSM    H1T12965   5.245   2.643   2.583  1.2958  0.3805  1.4070
  123OSM     NF12966   5.095   2.631   2.821 -0.2305  0.3433 -0.2153
  123OSM    HNF12967   5.087   2.730   2.813  0.9101  0.3330 -2.1885
  123OSM    C2S12968   5.230   2.587   2.792  0.2567  0.0801 -0.2503
  123OSM    H2S12969   5.248   2.491   2.846  0.6203 -0.6193 -1.5665
  123OSM    C3S12970   5.352   2.680   2.837  0.7712  0.3643  0.2312
  123OSM    H3S12971   5.357   2.771   2.774 -0.2951 -0.4189 -1.0222
  123OSM     O312972   5.481   2.619   2.807 -0.6370  0.1394  0.1944
  123OSM    HO312973   5.470   2.569   2.726 -0.4315 -0.1648  0.3523
  123OSM    C4S12974   5.343   2.699   2.984  0.0766 -0.0004 -0.3850
  123OSM    H4S12975   5.337   2.607   3.044  1.9818 -0.2310 -0.4814
  123OSM    C5S12976   5.331   2.820   3.050 -0.2628  0.7716 -0.6286
  123OSM    H5S12977   5.341   2.904   2.979 -0.1140 -0.6635 -2.3954
  123OSM    C6S12978   5.307   2.847   3.194 -0.0375 -0.0182  0.5802
  123OSM    H6S12979   5.253   2.945   3.197 -0.2812 -0.1529  0.6061
  123OSM    H6T12980   5.400   2.855   3.254 -0.7622 -0.1959  1.7778
  123OSM    C7S12981   5.249   2.734   3.278  0.1326 -0.1068  0.2280
  123OSM    H7S12982   5.334   2.663   3.276  2.2244  2.1967 -2.6549
  123OSM    H7T12983   5.164   2.697   3.217 -1.6966  0.7093  2.1784
  123OSM    C8S12984   5.200   2.789   3.414 -0.2468 -0.0350  0.4615
  123OSM    H8S12985   5.124   2.868   3.398 -1.5447 -1.3537 -0.1619
  123OSM    H8T12986   5.283   2.847   3.460  1.6498 -2.5688  0.4521
  123OSM    C9S12987   5.153   2.680   3.511  0.2356 -0.1431  0.4713
  123OSM    H9S12988   5.229   2.601   3.528  0.1194 -0.4743 -0.4793
  123OSM    H9T12989   5.068   2.624   3.465 -0.4784  0.8268  0.5803
  123OSM   C10S12990   5.118   2.741   3.644 -0.2006  0.3254  0.2435
  123OSM   H10S12991   5.058   2.834   3.634  0.7605  0.8538 -0.9078
  123OSM   H10T12992   5.214   2.756   3.697  1.0347  0.2118 -1.8410
  123OSM   C11S12993   5.030   2.637   3.729  0.1128  0.2968 -0.5475
  123OSM   H11S12994   5.072   2.534   3.736  0.2878  0.4468  1.0774
  123OSM   H11T12995   4.936   2.624   3.672 -0.1361  0.3943 -0.1627
  123OSM   C12S12996   5.009   2.688   3.874  0.6643  0.3234  0.4644
  123OSM   H12S12997   5.010   2.799   3.871  0.2213  0.3530  1.1729
  123OSM   H12T12998   5.096   2.647   3.930  2.1490 -0.8735 -2.4945
  123OSM   C13S12999   4.896   2.629   3.959  0.3693 -0.0536  0.1019
  123OSM   H13S13000   4.908   2.519   3.945  1.2739  0.2714 -1.9680
  123OSM   H13T13001   4.803   2.661   3.908 -0.0357 -1.1908  0.1004
  123OSM   C14S13002   4.881   2.691   4.100 -0.2464 -0.2380 -0.8015
  123OSM   H14S13003   4.785   2.655   4.141  0.4281  0.2983  1.3945
  123OSM   H14T13004   4.877   2.802   4.091  0.3962 -0.1045  0.2816
  123OSM   C15S13005   4.995   2.665   4.200  0.4118 -0.2157 -0.0293
  123OSM   H15S13006   5.093   2.706   4.168 -0.6955 -0.4301 -4.2717
  123OSM   H15T13007   5.002   2.554   4.207 -0.4918 -0.3180 -0.6062
  123OSM   C16S13008   4.967   2.708   4.347  0.0282  0.2907  0.0030
  123OSM   H16S13009   5.047   2.671   4.414 -0.8146 -0.3142  0.7072
  123OSM   H16T13010   4.877   2.657   4.387 -0.2821  0.8681  0.0576
  123OSM   C17S13011   4.971   2.861   4.361 -0.3873 -0.5581  0.1649
  123OSM   H17S13012   4.889   2.897   4.296 -0.7052 -1.3886  0.0831
  123OSM   H17T13013   5.068   2.901   4.327 -0.6277  1.6317  1.8444
  123OSM   C18S13014   4.941   2.914   4.501  0.2517 -0.4341  0.6096
  123OSM   H18S13015   4.989   2.852   4.581 -2.9989 -1.2034  2.1279
  123OSM   H18T13016   4.832   2.912   4.522 -0.0299  0.1286 -0.6923
  123OSM   H18U13017   4.989   3.014   4.506 -2.8648  1.1899  0.1953
  123OSM    C1F13018   4.993   2.550   2.830  0.0589  0.5379 -0.0816
  123OSM     OF13019   4.879   2.579   2.788 -0.7235  0.0563 -0.2408
  123OSM    C2F13020   4.995   2.420   2.907  0.2523  0.7147  0.8109
  123OSM    H2F13021   5.091   2.365   2.899 -1.2692 -1.9588 -0.4297
  123OSM    H2G13022   4.930   2.349   2.851  0.9169 -0.7249  1.8115
  123OSM    C3F13023   4.960   2.427   3.060 -0.0680 -0.1085 -0.1511
  123OSM    H3F13024   4.852   2.444   3.079  0.2985  1.7557  0.5288
  123OSM    H3G13025   5.016   2.510   3.109  0.2030  0.2522 -1.0499
  123OSM    C4F13026   4.994   2.289   3.119  0.2083  0.2712  0.1761
  123OSM    H4F13027   5.100   2.266   3.098  0.2221 -1.3098  1.7256
  123OSM    H4G13028   4.917   2.219   3.079  1.5642 -0.9257 -0.4328
  123OSM    C5F13029   4.978   2.289   3.275 -0.2687  0.8268  0.0352
  123OSM    H5F13030   5.065   2.334   3.327  0.7813 -0.1494 -0.7864
  123OSM    H5G13031   4.969   2.181   3.302  3.7279  0.2532 -0.2762
  123OSM    C6F13032   4.857   2.360   3.326  0.7363  0.4080 -0.3204
  123OSM    H6F13033   4.771   2.332   3.262 -0.3509 -0.2002  1.3623
  123OSM    H6G13034   4.867   2.470   3.315 -3.2484  0.7977 -1.9151
  123OSM    C7F13035   4.816   2.324   3.470 -0.4500 -0.5765  0.1174
  123OSM    H7F13036   4.904   2.342   3.536 -0.9244  2.4103  0.1025
  123OSM    H7G13037   4.791   2.216   3.468 -1.3022 -0.3948  0.4799
  123OSM    C8F13038   4.710   2.409   3.537  0.5575  0.7366 -0.0553
  123OSM    H8F13039   4.620   2.404   3.471  0.3733 -0.4299  0.2495
  123OSM    H8G13040   4.729   2.518   3.532 -1.0091  0.9926 -2.5142
  123OSM    C9F13041   4.686   2.360   3.672  0.4575 -0.5585 -0.5369
  123OSM    H9F13042   4.773   2.318   3.725 -0.1467 -2.1191 -0.7153
  123OSM   C10F13043   4.570   2.378   3.737 -0.0382 -0.7249 -0.2498
  123OSM   H10F13044   4.565   2.345   3.842 -0.7521 -1.1016 -0.4020
  123OSM   C11F13045   4.438   2.422   3.684  0.6133 -0.4808  0.4060
  123OSM   H11F13046   4.351   2.363   3.721 -1.2819  0.6859 -1.8915
  123OSM   H11G13047   4.422   2.411   3.575  0.0927 -3.2734  0.7032
  123OSM   C12F13048   4.421   2.577   3.703 -0.1374  0.0359 -0.7934
  123OSM   H12F13049   4.331   2.610   3.647 -0.2735 -2.2897 -2.0725
  123OSM   H12G13050   4.508   2.620   3.650  0.1407 -0.3877 -0.6861
  123OSM   C13F13051   4.418   2.625   3.853 -0.9443  0.6858  0.5497
  123OSM   H13F13052   4.515   2.593   3.896 -1.0045  1.8624  1.6520
  123OSM   H13G13053   4.330   2.575   3.900 -1.3274  2.1527  1.4732
  123OSM   C14F13054   4.409   2.778   3.863 -0.4603  0.1683 -0.4622
  123OSM   H14F13055   4.311   2.813   3.824  0.7977  1.9409 -2.2392
  123OSM   H14G13056   4.477   2.825   3.790  1.3712 -0.8125  0.5506
  123OSM   C15F13057   4.443   2.826   4.006  0.3071 -0.0438  0.2580
  123OSM   H15F13058   4.552   2.833   4.027  0.4384  0.4195 -0.5108
  123OSM   H15G13059   4.402   2.759   4.084 -0.9754  0.8245  0.3533
  123OSM   C16F13060   4.388   2.961   4.039  0.0058 -0.3147 -0.0158
  123OSM   H16F13061   4.282   2.950   4.009 -0.5685  0.5843  1.5458
  123OSM   H16G13062   4.438   3.040   3.979  0.5274 -1.1271 -0.6761
  123OSM   C17F13063   4.392   2.993   4.191  0.1750 -0.1364  0.2719
  123OSM   H17F13064   4.490   2.965   4.233  1.4671  2.4096 -0.8211
  123OSM   H17G13065   4.327   2.926   4.252  0.7588 -1.3630 -0.4003
  123OSM   C18F13066   4.363   3.136   4.220 -0.1644 -0.0111 -0.1559
  123OSM   H18F13067   4.392   3.142   4.327 -2.1286 -1.2816  0.4970
  123OSM   H18G13068   4.253   3.150   4.220 -0.2572 -0.7054  0.1149
  123OSM   H18H13069   4.410   3.209   4.151  0.3289 -0.0748  0.1106
  124OSM      N13070   4.840   4.333   1.874 -0.4866  0.0780 -0.0513
  124OSM    C1513071   4.932   4.213   1.897 -0.0879 -0.0497  0.6035
  124OSM   H15A13072   5.026   4.226   1.846 -0.7402  2.2468 -0.1407
  124OSM   H15B13073   4.880   4.120   1.877 -2.3282  0.8221  1.9310
  124OSM   H15C13074   4.953   4.205   2.003 -1.9530 -0.3105  1.0036
  124OSM    C1413075   4.816   4.332   1.725 -0.7611  0.2661  0.0391
  124OSM   H14A13076   4.757   4.247   1.694 -0.2249  0.6896 -2.2660
  124OSM   H14B13077   4.911   4.333   1.674  0.0217 -2.1676  1.2546
  124OSM   H14C13078   4.759   4.415   1.686 -2.4818 -1.5138 -1.4461
  124OSM    C1313079   4.718   4.303   1.946  0.6975  0.2135  0.1870
  124OSM   H13A13080   4.731   4.291   2.053  1.8623  2.2689  0.3232
  124OSM   H13B13081   4.667   4.213   1.914  3.0510 -1.5299  0.9585
  124OSM   H13C13082   4.647   4.378   1.919 -1.0651 -1.4384  0.0072
  124OSM    C1213083   4.911   4.465   1.911  0.4111 -0.2709  0.2025
  124OSM   H12A13084   4.847   4.547   1.881 -1.2460 -1.5472  0.1102
  124OSM   H12B13085   5.002   4.473   1.855 -0.2922 -1.5833 -1.1966
  124OSM    C1113086   4.945   4.488   2.062  0.0238 -0.2060 -0.1240
  124OSM   H11A13087   4.856   4.466   2.124 -1.5121 -0.6104 -2.3516
  124OSM   H11B13088   4.964   4.596   2.079 -1.6223 -0.0932  1.3287
  124OSM      P13089   5.214   4.467   2.063 -0.1351 -0.3540 -0.0168
  124OSM    O1313090   5.304   4.351   2.076 -0.8788 -0.6048  0.2480
  124OSM    O1413091   5.212   4.541   1.935 -0.2386 -0.0370  1.2628
  124OSM    O1113092   5.252   4.572   2.182 -0.5952 -0.4762 -0.6421
  124OSM    O1213093   5.065   4.407   2.089 -0.3813 -0.0788 -0.3933
  124OSM    C1S13094   5.244   4.528   2.317  0.1738  0.8959  0.4335
  124OSM    H1S13095   5.346   4.511   2.356 -0.9140 -1.5395  2.5036
  124OSM    H1T13096   5.182   4.436   2.321  1.0592  0.2573 -0.2368
  124OSM     NF13097   5.198   4.593   2.548  0.3682  0.0556 -0.5640
  124OSM    HNF13098   5.115   4.553   2.585 -0.0722 -0.4045 -1.9792
  124OSM    C2S13099   5.204   4.643   2.415  0.2715 -0.5474  0.1718
  124OSM    H2S13100   5.287   4.717   2.407 -1.3552  1.4156  0.7061
  124OSM    C3S13101   5.076   4.719   2.360  1.2225  0.2976 -0.7008
  124OSM    H3S13102   4.990   4.653   2.336  2.2968 -1.5165  0.2401
  124OSM     O313103   5.118   4.785   2.240  0.0502  0.2313 -0.2441
  124OSM    HO313104   5.213   4.776   2.239  0.1893  1.3154  0.8512
  124OSM    C4S13105   5.036   4.832   2.458 -0.0974 -0.0872 -0.1925
  124OSM    H4S13106   5.116   4.904   2.480  1.3140 -1.5934 -0.2002
  124OSM    C5S13107   4.922   4.850   2.530 -0.2547  0.1263  0.6133
  124OSM    H5S13108   4.836   4.782   2.537 -1.0471  0.8506 -1.4683
  124OSM    C6S13109   4.908   4.970   2.619  0.9427  0.0120  0.1634
  124OSM    H6S13110   4.853   5.044   2.557  0.6300 -0.3903 -0.0467
  124OSM    H6T13111   5.006   5.021   2.630  3.0176 -3.6607  0.1240
  124OSM    C7S13112   4.831   4.945   2.753  0.3865  0.0717 -0.0359
  124OSM    H7S13113   4.860   4.848   2.798 -0.1907 -0.7834 -1.4406
  124OSM    H7T13114   4.722   4.931   2.737  0.4301 -0.8490  0.4195
  124OSM    C8S13115   4.853   5.059   2.855 -0.2862  0.4910  0.4259
  124OSM    H8S13116   4.805   5.152   2.819  0.8962  0.6158 -0.9186
  124OSM    H8T13117   4.961   5.077   2.842 -0.1824 -1.4482 -2.1454
  124OSM    C9S13118   4.814   5.036   2.999  0.1756 -0.4848  0.2907
  124OSM    H9S13119   4.875   4.950   3.032 -0.6698 -0.5054  1.8908
  124OSM    H9T13120   4.708   5.002   2.998  0.4582 -1.3811 -0.0664
  124OSM   C10S13121   4.835   5.161   3.092  0.3684 -0.6338  0.2644
  124OSM   H10S13122   4.791   5.252   3.048  0.1120 -0.2276  1.3128
  124OSM   H10T13123   4.944   5.178   3.099  0.1172  1.7027 -0.7572
  124OSM   C11S13124   4.781   5.145   3.238  0.3647  0.3285 -0.3528
  124OSM   H11S13125   4.803   5.037   3.259 -4.4262 -0.6912  0.4799
  124OSM   H11T13126   4.672   5.164   3.233 -0.3451 -2.4458  1.5925
  124OSM   C12S13127   4.844   5.240   3.339  0.5927  0.1712  0.5769
  124OSM   H12S13128   4.794   5.335   3.310  1.5302  0.1862 -1.1062
  124OSM   H12T13129   4.954   5.247   3.326  0.6049 -0.5273  0.2709
  124OSM   C13S13130   4.811   5.204   3.485  1.0534  0.1730 -0.4219
  124OSM   H13S13131   4.874   5.122   3.526  2.2053  0.6914 -1.0979
  124OSM   H13T13132   4.702   5.182   3.486  0.5113  2.6469 -0.0443
  124OSM   C14S13133   4.831   5.330   3.580  0.1759  0.0002 -0.0569
  124OSM   H14S13134   4.795   5.423   3.531  1.5710  0.0915 -0.9733
  124OSM   H14T13135   4.942   5.324   3.580  0.3340  1.7897 -1.8937
  124OSM   C15S13136   4.763   5.319   3.717 -0.0496 -0.5098  0.3062
  124OSM   H15S13137   4.789   5.214   3.744  0.4522 -0.7232 -0.9355
  124OSM   H15T13138   4.652   5.318   3.725 -0.0016  0.5626  1.3498
  124OSM   C16S13139   4.813   5.428   3.814  0.3290 -0.1118 -0.1200
  124OSM   H16S13140   4.768   5.524   3.783 -0.4910 -0.4031  0.1445
  124OSM   H16T13141   4.922   5.436   3.794  0.1735 -1.4211 -1.7082
  124OSM   C17S13142   4.784   5.399   3.961  0.0059 -0.2532 -0.5063
  124OSM   H17S13143   4.840   5.309   3.993  0.7697  0.6155  0.6977
  124OSM   H17T13144   4.678   5.376   3.988  0.5311  0.3392  2.5066
  124OSM   C18S13145   4.833   5.508   4.057 -0.1640  0.5556  0.3336
  124OSM   H18S13146   4.767   5.597   4.058 -0.5719  0.2742 -0.2476
  124OSM   H18T13147   4.940   5.523   4.033  0.1356  0.6162  1.6678
  124OSM   H18U13148   4.836   5.480   4.164  0.2305  1.4091  0.5542
  124OSM    C1F13149   5.310   4.575   2.624  0.6994  0.3981 -0.3353
  124OSM     OF13150   5.419   4.613   2.581  0.0336  0.2432  0.0945
  124OSM    C2F13151   5.285   4.525   2.767  0.6927 -0.0973  0.6885
  124OSM    H2F13152   5.255   4.418   2.761 -0.6728  0.2028  1.7045
  124OSM    H2G13153   5.212   4.599   2.806 -0.6091 -0.4433 -0.9627
  124OSM    C3F13154   5.410   4.537   2.861  0.1804  0.1007  0.6170
  124OSM    H3F13155   5.461   4.636   2.852 -0.5977  0.5614  1.0636
  124OSM    H3G13156   5.485   4.462   2.828  0.0403  0.9512 -1.8216
  124OSM    C4F13157   5.365   4.535   3.009  0.1812 -0.0700  0.4720
  124OSM    H4F13158   5.300   4.445   3.011 -3.3286  2.0306 -3.5783
  124OSM    H4G13159   5.308   4.630   3.017 -2.8214 -1.6309 -0.8779
  124OSM    C5F13160   5.467   4.512   3.117  0.2405  0.1107 -0.2854
  124OSM    H5F13161   5.559   4.568   3.092 -1.3035  2.5686 -0.8084
  124OSM    H5G13162   5.501   4.406   3.117 -2.4913 -0.8711  0.8664
  124OSM    C6F13163   5.430   4.537   3.259  0.2303  0.5973  0.0956
  124OSM    H6F13164   5.397   4.643   3.264 -2.1256  0.0292 -1.4553
  124OSM    H6G13165   5.513   4.503   3.325  0.7644 -0.3923 -1.0463
  124OSM    C7F13166   5.304   4.464   3.325  0.0149  0.1972 -0.1416
  124OSM    H7F13167   5.318   4.354   3.326  1.4547  0.3419 -1.0590
  124OSM    H7G13168   5.213   4.490   3.267 -0.8012 -0.6697  0.7114
  124OSM    C8F13169   5.278   4.506   3.473 -0.6795 -0.2951  0.2389
  124OSM    H8F13170   5.276   4.616   3.483 -1.8693 -0.4237  1.6581
  124OSM    H8G13171   5.367   4.464   3.525 -0.2852 -0.5597 -0.6194
  124OSM    C9F13172   5.152   4.447   3.523 -0.1605  0.0395 -0.0181
  124OSM    H9F13173   5.059   4.502   3.499 -0.1717 -0.8401 -2.2131
  124OSM   C10F13174   5.150   4.336   3.596  0.4558 -0.1392 -0.2813
  124OSM   H10F13175   5.052   4.301   3.632  0.6569 -0.6963 -0.2646
  124OSM   C11F13176   5.256   4.239   3.636  1.1369  0.8310 -0.2841
  124OSM   H11F13177   5.350   4.241   3.576  1.9195 -1.1282  0.7827
  124OSM   H11G13178   5.220   4.136   3.653 -1.1957  1.8570  1.5848
  124OSM   C12F13179   5.308   4.289   3.775 -0.4507  0.6432  0.4430
  124OSM   H12F13180   5.370   4.381   3.777 -0.6568  0.8223 -0.4976
  124OSM   H12G13181   5.381   4.210   3.803 -1.1802  0.4475  1.8757
  124OSM   C13F13182   5.204   4.302   3.885 -0.1200 -0.5008 -0.3295
  124OSM   H13F13183   5.142   4.209   3.885  0.8090 -1.1347 -0.2666
  124OSM   H13G13184   5.137   4.390   3.873  0.1951  0.2427  2.6139
  124OSM   C14F13185   5.264   4.318   4.024 -0.2138  0.3909 -0.3279
  124OSM   H14F13186   5.313   4.223   4.056  2.1206  1.2265 -1.2075
  124OSM   H14G13187   5.179   4.319   4.095  0.9536 -0.6874  1.1645
  124OSM   C15F13188   5.362   4.428   4.060 -0.6830 -0.2823  0.2049
  124OSM   H15F13189   5.324   4.524   4.020  0.9072  0.4474  0.3390
  124OSM   H15G13190   5.456   4.398   4.008  0.4355 -2.6648  3.3008
  124OSM   C16F13191   5.368   4.436   4.210 -0.4464  0.3991  0.1163
  124OSM   H16F13192   5.378   4.331   4.245 -2.1012  0.6760  1.5769
  124OSM   H16G13193   5.276   4.470   4.262  1.1441  0.6690  2.9019
  124OSM   C17F13194   5.484   4.518   4.264  0.4346  0.1216  0.3662
  124OSM   H17F13195   5.455   4.624   4.248 -2.2385 -0.6249 -0.2326
  124OSM   H17G13196   5.568   4.476   4.203 -0.3222 -1.3820  0.3064
  124OSM   C18F13197   5.517   4.491   4.415  0.4345 -0.0802  0.0692
  124OSM   H18F13198   5.462   4.553   4.489  0.3913  1.8403 -1.4591
  124OSM   H18G13199   5.620   4.527   4.435 -0.0185  0.9794  0.6243
  124OSM   H18H13200   5.510   4.385   4.446 -1.4608 -0.4983 -1.5520
  125OSM      N13201   0.584   1.416   2.912  0.3423 -0.4263  0.1450
  125OSM    C1513202   0.563   1.268   2.896  0.1900  0.5452  0.7057
  125OSM   H15A13203   0.656   1.241   2.848  0.4122  0.5384  1.1374
  125OSM   H15B13204   0.482   1.243   2.830 -1.7729 -0.1711  3.2090
  125OSM   H15C13205   0.548   1.205   2.983 -1.1200 -0.2331 -0.0570
  125OSM    C1413206   0.467   1.485   2.971  0.0777  0.8032 -0.4059
  125OSM   H14A13207   0.491   1.589   2.986 -0.8131  0.8690  0.7268
  125OSM   H14B13208   0.434   1.445   3.066 -1.0329 -2.8425 -2.1434
  125OSM   H14C13209   0.384   1.495   2.902 -2.1969  1.2361  2.2108
  125OSM    C1313210   0.699   1.447   3.008 -0.2552  0.0090 -0.5512
  125OSM   H13A13211   0.789   1.401   2.972  1.0387  2.0757 -0.0898
  125OSM   H13B13212   0.678   1.400   3.103  0.3933 -0.8113 -0.8017
  125OSM   H13C13213   0.703   1.555   3.014 -0.5211  0.0182 -0.5099
  125OSM    C1213214   0.608   1.486   2.775  0.2076  0.6352  0.1205
  125OSM   H12A13215   0.696   1.448   2.724 -0.3582 -1.8414  0.8432
  125OSM   H12B13216   0.631   1.591   2.790  1.4569  0.3530  0.3512
  125OSM    C1113217   0.494   1.490   2.669 -0.1444  0.2976  0.0710
  125OSM   H11A13218   0.459   1.386   2.648 -0.6772  0.4199  0.3364
  125OSM   H11B13219   0.548   1.524   2.578  0.4540 -3.9231 -1.3939
  125OSM      P13220   0.410   1.734   2.692 -0.3513 -0.0112 -0.4182
  125OSM    O1313221   0.528   1.764   2.775 -0.8800 -0.1834  0.8503
  125OSM    O1413222   0.425   1.766   2.547 -0.7217 -0.4402 -0.9598
  125OSM    O1113223   0.281   1.804   2.743  0.9809 -0.2888 -1.0241
  125OSM    O1213224   0.385   1.574   2.713  0.0898 -0.2447  0.4498
  125OSM    C1S13225   0.182   1.724   2.808  0.4518 -0.6069  0.3441
  125OSM    H1S13226   0.210   1.623   2.845  0.2485 -0.1686  1.7399
  125OSM    H1T13227   0.088   1.703   2.752 -0.6681 -2.5804  2.7641
  125OSM     NF13228   0.061   1.698   3.028 -0.2808 -0.7612  0.1384
  125OSM    HNF13229  -0.037   1.688   3.011 -0.3308  2.2592 -2.3183
  125OSM    C2S13230   0.134   1.792   2.945  0.6813  0.3279 -0.0243
  125OSM    H2S13231   0.229   1.806   3.000  2.0887 -3.5264 -1.1398
  125OSM    C3S13232   0.056   1.922   2.916 -0.4918 -0.2622  0.3045
  125OSM    H3S13233  -0.042   1.904   2.867  0.1523 -1.3020 -0.6386
  125OSM     O313234   0.121   2.012   2.823 -0.4337  0.0117  0.1540
  125OSM    HO313235   0.177   1.950   2.776 -1.7361  0.0465 -1.5598
  125OSM    C4S13236   0.031   1.994   3.044 -0.5679  0.1956  0.3726
  125OSM    H4S13237   0.122   2.019   3.101 -0.7350  0.9998  0.3112
  125OSM    C5S13238  -0.080   2.049   3.096 -0.0356 -0.0349 -0.0932
  125OSM    H5S13239  -0.169   2.046   3.031 -0.1268 -1.6141  0.0775
  125OSM    C6S13240  -0.099   2.129   3.214  1.1327  0.7331 -1.2200
  125OSM    H6S13241  -0.139   2.067   3.297  0.8425  0.0281 -1.8752
  125OSM    H6T13242  -0.181   2.203   3.200  0.2211 -0.2612 -1.2720
  125OSM    C7S13243   0.021   2.205   3.272  0.3211  0.0427 -1.0181
  125OSM    H7S13244   0.091   2.246   3.195  0.3709  1.9201 -0.0291
  125OSM    H7T13245   0.080   2.132   3.331 -1.4233 -1.3042 -0.8554
  125OSM    C8S13246  -0.009   2.322   3.365 -0.3077  0.1173 -0.4890
  125OSM    H8S13247  -0.037   2.412   3.306  0.9507  0.0482 -1.2215
  125OSM    H8T13248   0.085   2.353   3.417 -1.4880  0.6602  1.4441
  125OSM    C9S13249  -0.099   2.272   3.481  0.1463 -0.2949  0.0077
  125OSM    H9S13250  -0.058   2.177   3.520 -1.4766 -0.2102  2.0605
  125OSM    H9T13251  -0.202   2.260   3.441  0.9824 -2.1662 -1.7511
  125OSM   C10S13252  -0.102   2.363   3.609 -0.1256 -0.0614  0.0872
  125OSM   H10S13253  -0.150   2.461   3.589 -1.2606 -0.4631  0.7192
  125OSM   H10T13254   0.001   2.378   3.648 -1.0388  1.8970  1.9395
  125OSM   C11S13255  -0.188   2.288   3.725  0.6864 -0.0430  0.3578
  125OSM   H11S13256  -0.128   2.204   3.768  0.0808 -0.3594  0.5899
  125OSM   H11T13257  -0.279   2.245   3.679  0.3811  0.6374  0.3078
  125OSM   C12S13258  -0.236   2.379   3.844 -0.4740  0.3169  0.2291
  125OSM   H12S13259  -0.307   2.321   3.906  0.0772 -0.3504  0.2435
  125OSM   H12T13260  -0.290   2.468   3.805 -0.0684  0.3514 -0.2653
  125OSM   C13S13261  -0.116   2.409   3.929 -1.2151  0.2348 -0.7696
  125OSM   H13S13262  -0.030   2.449   3.870  0.0234 -0.2172  0.6812
  125OSM   H13T13263  -0.068   2.315   3.962  1.2302  1.1582 -1.4900
  125OSM   C14S13264  -0.144   2.495   4.057 -0.0760 -0.1644 -0.2144
  125OSM   H14S13265  -0.211   2.433   4.120 -2.4498  1.8024 -0.6490
  125OSM   H14T13266  -0.194   2.588   4.019  0.1083  0.7955  1.7721
  125OSM   C15S13267  -0.015   2.532   4.132 -0.6819  0.9381  0.0290
  125OSM   H15S13268   0.055   2.582   4.061 -0.7006 -0.3368 -0.9291
  125OSM   H15T13269   0.031   2.437   4.166 -1.0280  1.1002  0.9732
  125OSM   C16S13270  -0.022   2.627   4.255 -0.1986  0.7507  0.5741
  125OSM   H16S13271  -0.111   2.606   4.319 -0.0662  1.6972  1.0884
  125OSM   H16T13272  -0.041   2.726   4.209 -0.0797 -0.5920 -2.6437
  125OSM   C17S13273   0.101   2.633   4.349 -0.6458 -0.1030  0.0233
  125OSM   H17S13274   0.193   2.611   4.291 -0.9185  1.0559 -0.8743
  125OSM   H17T13275   0.095   2.536   4.403 -1.5441  1.6667  3.3847
  125OSM   C18S13276   0.122   2.756   4.436  0.2039 -0.4636 -0.0636
  125OSM   H18S13277   0.026   2.786   4.484  0.2436 -0.5904  0.0969
  125OSM   H18T13278   0.143   2.848   4.379  2.7832 -0.9113  0.0246
  125OSM   H18U13279   0.204   2.748   4.510  0.6146  1.2150 -0.3067
  125OSM    C1F13280   0.109   1.607   3.115  0.1652  0.4986  0.8903
  125OSM     OF13281   0.226   1.593   3.130 -0.2757 -0.0889  0.2188
  125OSM    C2F13282   0.007   1.524   3.187  0.5774 -0.1606 -0.3703
  125OSM    H2F13283  -0.091   1.547   3.138  0.3612 -1.4709 -0.5865
  125OSM    H2G13284   0.007   1.553   3.294 -1.2277 -0.0493 -0.3603
  125OSM    C3F13285   0.031   1.377   3.153 -0.0528  0.7405  0.4407
  125OSM    H3F13286   0.113   1.330   3.212  0.8067  0.2796 -1.0404
  125OSM    H3G13287   0.059   1.370   3.045  2.0064  1.7765  0.8543
  125OSM    C4F13288  -0.091   1.291   3.172 -0.5571  0.1663 -0.4268
  125OSM    H4F13289  -0.066   1.201   3.113 -1.2432 -0.9566  0.9348
  125OSM    H4G13290  -0.178   1.335   3.119  0.4707 -1.8290 -4.0556
  125OSM    C5F13291  -0.129   1.259   3.319  0.1078  1.0573 -0.0510
  125OSM    H5F13292  -0.223   1.204   3.340  2.1198 -2.6119  0.1950
  125OSM    H5G13293  -0.137   1.358   3.371  0.2794  0.8433  0.3916
  125OSM    C6F13294  -0.026   1.178   3.391  0.8739  0.0091  0.5834
  125OSM    H6F13295   0.067   1.238   3.392  0.6263  0.4353 -0.4863
  125OSM    H6G13296  -0.003   1.092   3.325 -0.1101  1.0263 -1.1640
  125OSM    C7F13297  -0.081   1.117   3.525 -0.1263 -0.0768 -0.4023
  125OSM    H7F13298  -0.022   1.023   3.537 -2.1857 -1.3519  0.3820
  125OSM    H7G13299  -0.187   1.087   3.510 -0.4121 -0.2957  1.7631
  125OSM    C8F13300  -0.043   1.206   3.644  0.2177  0.0755 -0.5560
  125OSM    H8F13301   0.066   1.224   3.635  0.0677  1.4124 -0.0092
  125OSM    H8G13302  -0.066   1.148   3.735  0.8673  1.3826  0.4761
  125OSM    C9F13303  -0.104   1.347   3.645  0.0933 -0.1367 -0.5272
  125OSM    H9F13304  -0.056   1.418   3.576 -1.9833  1.9436  0.0698
  125OSM   C10F13305  -0.211   1.388   3.718  0.5665  0.3178 -0.6262
  125OSM   H10F13306  -0.243   1.493   3.709 -2.3747 -0.5131 -0.8453
  125OSM   C11F13307  -0.298   1.302   3.803  0.3740 -0.3592 -0.0348
  125OSM   H11F13308  -0.301   1.201   3.757  0.4888 -0.5987  0.4803
  125OSM   H11G13309  -0.402   1.341   3.799 -0.0606 -1.5493 -1.1793
  125OSM   C12F13310  -0.241   1.298   3.947  0.1570  0.1295  0.0887
  125OSM   H12F13311  -0.130   1.292   3.949  0.2168  1.1725  1.1626
  125OSM   H12G13312  -0.289   1.214   4.001  0.1823 -0.1624 -0.3409
  125OSM   C13F13313  -0.280   1.431   4.034 -0.0894 -0.1794  0.5271
  125OSM   H13F13314  -0.390   1.435   4.047 -0.1382  1.2561 -0.1561
  125OSM   H13G13315  -0.249   1.527   3.988 -4.2227  1.4870  0.7599
  125OSM   C14F13316  -0.224   1.423   4.177  0.4319  0.7545  0.2261
  125OSM   H14F13317  -0.114   1.412   4.160  0.6435  0.7021  1.5024
  125OSM   H14G13318  -0.247   1.329   4.232  1.6240 -0.2673 -0.9374
  125OSM   C15F13319  -0.257   1.536   4.272 -0.3596 -0.0024  0.1586
  125OSM   H15F13320  -0.364   1.524   4.296 -0.4704  0.1799 -0.2295
  125OSM   H15G13321  -0.248   1.636   4.224 -1.2729 -0.1983 -0.4519
  125OSM   C16F13322  -0.171   1.519   4.400 -0.2832  0.3364 -0.2051
  125OSM   H16F13323  -0.069   1.560   4.407 -0.9702  1.9663  0.7672
  125OSM   H16G13324  -0.150   1.412   4.421 -0.7567  0.4334  0.8094
  125OSM   C17F13325  -0.230   1.587   4.517 -0.4371 -0.8824  0.1502
  125OSM   H17F13326  -0.332   1.545   4.535 -0.2264 -1.1936  0.6168
  125OSM   H17G13327  -0.238   1.695   4.495 -1.9625 -1.4584 -2.5985
  125OSM   C18F13328  -0.144   1.574   4.643 -0.0720  0.0190 -0.1441
  125OSM   H18F13329  -0.157   1.477   4.695  2.8189 -0.6746 -0.5019
  125OSM   H18G13330  -0.180   1.648   4.718  2.1171  0.4341  0.5861
  125OSM   H18H13331  -0.039   1.591   4.611  0.1467 -1.7174 -0.4648
  126OSM      N13332   0.563   2.495   2.222  0.4458 -0.2005  0.1199
  126OSM    C1513333   0.685   2.509   2.140  0.2810  0.2480  0.6321
  126OSM   H15A13334   0.696   2.607   2.096 -1.2732 -0.7909 -2.4215
  126OSM   H15B13335   0.682   2.445   2.052 -1.4581  0.6141  0.3788
  126OSM   H15C13336   0.774   2.486   2.196  1.0616  4.5050  1.4582
  126OSM    C1413337   0.445   2.515   2.136 -0.0858  0.1402 -0.1613
  126OSM   H14A13338   0.469   2.594   2.067  0.3639 -0.1239 -0.3070
  126OSM   H14B13339   0.356   2.536   2.195  0.1543 -0.2639  0.3586
  126OSM   H14C13340   0.440   2.418   2.089  0.6670  0.1590 -0.2824
  126OSM    C1313341   0.570   2.355   2.280 -0.0119  0.0487  0.6120
  126OSM   H13A13342   0.488   2.342   2.349 -0.8068  1.3757 -0.0460
  126OSM   H13B13343   0.661   2.347   2.338  0.5075 -1.4516 -0.3660
  126OSM   H13C13344   0.579   2.287   2.196 -0.3788  0.9294 -0.1647
  126OSM    C1213345   0.571   2.598   2.336 -1.0900  0.5099 -0.4473
  126OSM   H12A13346   0.570   2.696   2.290 -1.4457  0.5930 -0.2687
  126OSM   H12B13347   0.663   2.576   2.389 -0.9692 -2.8712 -1.8312
  126OSM    C1113348   0.462   2.596   2.442  0.3770  0.6559  0.0175
  126OSM   H11A13349   0.482   2.692   2.494  4.0158 -0.1403  0.3631
  126OSM   H11B13350   0.483   2.508   2.506 -2.4451 -0.2445 -0.1909
  126OSM      P13351   0.217   2.682   2.423  0.2316  0.0137  0.3255
  126OSM    O1313352   0.218   2.788   2.321  0.0110 -0.5469 -0.1743
  126OSM    O1413353   0.089   2.607   2.423  0.1257 -0.6545  0.0691
  126OSM    O1113354   0.254   2.747   2.561  0.0015  0.6973 -0.0008
  126OSM    O1213355   0.331   2.578   2.387 -0.2751 -0.5321  0.8356
  126OSM    C1S13356   0.169   2.846   2.627  0.6740  0.2643 -0.4295
  126OSM    H1S13357   0.065   2.812   2.645  0.4235  0.6350 -1.1126
  126OSM    H1T13358   0.159   2.938   2.565  0.1879  1.3392  1.1767
  126OSM     NF13359   0.151   3.005   2.789 -0.0886 -0.2670 -0.3569
  126OSM    HNF13360   0.209   3.085   2.774 -0.3760 -0.0178 -0.1506
  126OSM    C2S13361   0.214   2.878   2.771  0.3708 -0.1552 -0.0079
  126OSM    H2S13362   0.174   2.806   2.845  1.0142 -0.6502 -0.1328
  126OSM    C3S13363   0.370   2.873   2.795  0.3248 -0.0863 -0.0721
  126OSM    H3S13364   0.405   2.960   2.736 -1.5945  1.1233  0.4440
  126OSM     O313365   0.432   2.762   2.743  0.2192  0.3691  0.1118
  126OSM    HO313366   0.383   2.746   2.662 -0.0849  0.1724  0.3267
  126OSM    C4S13367   0.402   2.904   2.935  0.3434 -0.2522  0.1192
  126OSM    H4S13368   0.397   3.010   2.965 -0.6694 -0.3702  0.4040
  126OSM    C5S13369   0.456   2.824   3.030 -0.3468  0.2353  0.1192
  126OSM    H5S13370   0.479   2.718   3.011  0.2868 -0.0818  2.3010
  126OSM    C6S13371   0.506   2.876   3.160  0.0807 -0.5446  0.3151
  126OSM    H6S13372   0.601   2.930   3.141  0.6716 -1.8872 -0.7432
  126OSM    H6T13373   0.518   2.792   3.231  0.2845 -1.6539 -0.9829
  126OSM    C7S13374   0.420   2.982   3.241 -0.4534  0.5996 -0.0708
  126OSM    H7S13375   0.315   2.947   3.244  0.3761 -2.0289  1.3334
  126OSM    H7T13376   0.420   3.078   3.184  0.4264  2.0231  2.2041
  126OSM    C8S13377   0.466   2.981   3.387  0.1812 -0.2850  0.4656
  126OSM    H8S13378   0.575   3.002   3.389 -0.2423  2.2082  0.7292
  126OSM    H8T13379   0.451   2.875   3.417 -5.0815 -0.7611 -2.4847
  126OSM    C9S13380   0.383   3.075   3.473 -0.1426 -0.2088  0.1608
  126OSM    H9S13381   0.278   3.045   3.453  0.6460 -1.2066 -3.1342
  126OSM    H9T13382   0.391   3.180   3.438  1.3368  0.4058  2.1785
  126OSM   C10S13383   0.430   3.070   3.623  0.4420 -0.2811  0.1087
  126OSM   H10S13384   0.541   3.081   3.620  0.6112 -1.9563 -1.5305
  126OSM   H10T13385   0.403   2.969   3.661  1.6316 -1.1614 -1.2821
  126OSM   C11S13386   0.362   3.190   3.692 -0.1756 -0.4709 -0.2216
  126OSM   H11S13387   0.273   3.219   3.633 -0.2330 -1.2459 -0.5295
  126OSM   H11T13388   0.429   3.278   3.683 -0.1655 -0.6458 -2.1995
  126OSM   C12S13389   0.341   3.174   3.843 -0.0499 -0.0771  0.4930
  126OSM   H12S13390   0.444   3.147   3.875  0.3978 -0.3628 -1.0837
  126OSM   H12T13391   0.272   3.088   3.859 -0.4329 -0.1393 -1.2150
  126OSM   C13S13392   0.281   3.298   3.913 -0.0033  0.1812 -0.2083
  126OSM   H13S13393   0.202   3.331   3.843 -0.2901 -0.6499 -0.2959
  126OSM   H13T13394   0.361   3.374   3.910 -0.1204  0.3655  0.8813
  126OSM   C14S13395   0.240   3.267   4.056  0.1431 -0.2194 -0.7234
  126OSM   H14S13396   0.160   3.190   4.063  0.6002 -0.7171 -0.9117
  126OSM   H14T13397   0.182   3.355   4.093  0.6777 -0.8147  1.7583
  126OSM   C15S13398   0.353   3.212   4.145 -0.4431  0.4967 -0.0613
  126OSM   H15S13399   0.412   3.131   4.098 -1.9837 -1.1458  0.6931
  126OSM   H15T13400   0.303   3.169   4.235  1.2198 -1.6916 -0.0961
  126OSM   C16S13401   0.443   3.327   4.202  0.5147 -0.0581 -0.3548
  126OSM   H16S13402   0.483   3.368   4.107  0.9383 -2.6160 -1.3646
  126OSM   H16T13403   0.536   3.289   4.250  1.4913  0.4655 -1.7557
  126OSM   C17S13404   0.377   3.425   4.301 -0.7847 -0.2267  0.2736
  126OSM   H17S13405   0.312   3.368   4.371 -2.4640 -2.8327 -3.1142
  126OSM   H17T13406   0.306   3.493   4.249 -0.0337  1.3383  1.2265
  126OSM   C18S13407   0.489   3.506   4.365 -0.9009 -0.1783 -0.6288
  126OSM   H18S13408   0.444   3.569   4.445  1.2428 -2.6318  2.7993
  126OSM   H18T13409   0.546   3.564   4.290 -1.6204  1.2902 -0.0947
  126OSM   H18U13410   0.561   3.439   4.417 -2.7282 -1.1158  0.8072
  126OSM    C1F13411   0.025   3.024   2.807  0.4198 -0.0676  0.1176
  126OSM     OF13412  -0.050   2.937   2.849  0.3671  0.3425 -0.3986
  126OSM    C2F13413  -0.036   3.156   2.767  0.0703  0.5858 -0.0891
  126OSM    H2F13414  -0.071   3.138   2.663  5.2849 -1.5902 -1.8192
  126OSM    H2G13415   0.048   3.229   2.766 -0.2571  0.9790  0.4643
  126OSM    C3F13416  -0.156   3.188   2.858 -0.3074  0.2671 -0.2538
  126OSM    H3F13417  -0.139   3.172   2.967 -0.0680  2.0978  0.0062
  126OSM    H3G13418  -0.230   3.112   2.824 -1.7615 -0.1032  3.2760
  126OSM    C4F13419  -0.198   3.335   2.845 -0.9677 -0.1151  0.1579
  126OSM    H4F13420  -0.191   3.361   2.737 -0.9925  1.1766  0.4416
  126OSM    H4G13421  -0.122   3.398   2.898 -0.0521 -0.4270 -0.7640
  126OSM    C5F13422  -0.339   3.367   2.910 -0.0564 -0.9127  0.3396
  126OSM    H5F13423  -0.420   3.310   2.860 -0.4082  0.2600 -0.4464
  126OSM    H5G13424  -0.371   3.472   2.894 -1.7021 -1.6980 -1.9815
  126OSM    C6F13425  -0.337   3.346   3.061 -0.1878 -0.5521  0.4955
  126OSM    H6F13426  -0.269   3.428   3.091  0.1239 -0.2933 -0.8545
  126OSM    H6G13427  -0.284   3.254   3.092  1.9964  1.1411  2.1011
  126OSM    C7F13428  -0.472   3.353   3.125  0.0113  0.0014 -0.7534
  126OSM    H7F13429  -0.525   3.257   3.104 -0.7140  0.1101  0.4956
  126OSM    H7G13430  -0.519   3.443   3.080  1.7606  2.1449  1.4477
  126OSM    C8F13431  -0.453   3.357   3.280 -1.1822 -0.2850  0.8860
  126OSM    H8F13432  -0.381   3.436   3.312 -1.3082  0.7398 -1.1722
  126OSM    H8G13433  -0.404   3.261   3.308  0.7267 -0.1059 -1.4817
  126OSM    C9F13434  -0.585   3.370   3.355  0.0627  0.9555  0.4188
  126OSM    H9F13435  -0.643   3.276   3.358 -1.0838  1.6251  0.0079
  126OSM   C10F13436  -0.633   3.471   3.432  0.3375 -0.0946  0.1294
  126OSM   H10F13437  -0.729   3.476   3.485  1.7310  1.5539  2.7418
  126OSM   C11F13438  -0.554   3.590   3.473  0.9085  0.4599 -0.0997
  126OSM   H11F13439  -0.625   3.670   3.445  0.0230  0.0558  0.9446
  126OSM   H11G13440  -0.462   3.603   3.411  0.6912  2.0883 -0.1158
  126OSM   C12F13441  -0.535   3.611   3.625  0.0167 -0.3717  0.7498
  126OSM   H12F13442  -0.489   3.711   3.633  0.0512 -0.4603  1.7373
  126OSM   H12G13443  -0.469   3.530   3.662 -0.5356 -0.3171  1.8854
  126OSM   C13F13444  -0.668   3.627   3.703 -0.2153  0.8571  0.7169
  126OSM   H13F13445  -0.738   3.544   3.680 -3.1677  3.3506  0.0377
  126OSM   H13G13446  -0.731   3.710   3.665 -0.5080 -0.0967 -0.9884
  126OSM   C14F13447  -0.658   3.630   3.857  0.4521 -0.2153  0.3137
  126OSM   H14F13448  -0.594   3.715   3.890 -1.1800  0.7450  1.1563
  126OSM   H14G13449  -0.611   3.537   3.895  1.1543 -0.6109 -1.4280
  126OSM   C15F13450  -0.793   3.659   3.933 -0.2718  0.3416  0.2932
  126OSM   H15F13451  -0.854   3.568   3.913  1.4674 -0.6699 -0.6668
  126OSM   H15G13452  -0.836   3.752   3.890  0.7723  0.5905 -0.2526
  126OSM   C16F13453  -0.774   3.671   4.083 -1.0694 -0.3636 -0.3123
  126OSM   H16F13454  -0.735   3.580   4.135  2.2377  1.9399  1.6097
  126OSM   H16G13455  -0.873   3.693   4.130 -0.6140 -0.5321  0.7605
  126OSM   C17F13456  -0.676   3.779   4.131  0.4430  0.3424 -0.0389
  126OSM   H17F13457  -0.700   3.871   4.074 -0.0349  0.4747  0.3721
  126OSM   H17G13458  -0.571   3.748   4.108  1.6427  2.1949  2.4501
  126OSM   C18F13459  -0.694   3.796   4.280 -0.2966 -0.6485 -0.0768
  126OSM   H18F13460  -0.790   3.847   4.303 -0.8163 -1.3150 -0.7137
  126OSM   H18G13461  -0.613   3.857   4.325 -0.5217 -1.2635  1.2375
  126OSM   H18H13462  -0.695   3.708   4.348  0.3886  1.9694  3.6692
  127OSM      N13463   5.456   2.872   2.323 -0.5436 -0.1567 -0.2455
  127OSM    C1513464   5.493   3.000   2.252 -0.5282  0.2233 -0.3607
  127OSM   H15A13465   5.477   2.994   2.145  1.0217  0.1399 -0.6108
  127OSM   H15B13466   5.597   3.030   2.255  0.1530 -1.8125 -1.3088
  127OSM   H15C13467   5.432   3.078   2.295  1.4304  1.5895  0.0805
  127OSM    C1413468   5.314   2.837   2.297  0.4954 -0.7637 -0.2704
  127OSM   H14A13469   5.242   2.892   2.357 -0.8693 -3.8389  1.1367
  127OSM   H14B13470   5.299   2.733   2.324  0.4789 -0.7635 -0.2796
  127OSM   H14C13471   5.289   2.839   2.192 -0.9657  1.1966  0.0449
  127OSM    C1313472   5.543   2.759   2.274 -0.2111  0.0500  0.8396
  127OSM   H13A13473   5.647   2.777   2.297 -0.6921  1.7392  1.8844
  127OSM   H13B13474   5.539   2.756   2.166  0.3480  0.6448  0.7916
  127OSM   H13C13475   5.522   2.660   2.311 -0.5727 -1.2584 -2.5118
  127OSM    C1213476   5.482   2.891   2.475 -0.5094  0.0999  0.1912
  127OSM   H12A13477   5.588   2.903   2.493 -0.5058 -0.1173  0.3170
  127OSM   H12B13478   5.450   2.805   2.532  2.5349  0.3726  2.5574
  127OSM    C1113479   5.429   3.021   2.546  0.1839  0.9645  0.2675
  127OSM   H11A13480   5.494   3.100   2.503  0.9780 -0.0291 -0.3978
  127OSM   H11B13481   5.457   3.014   2.654 -1.7182  1.1573  0.8294
  127OSM      P13482   5.235   3.175   2.483 -0.1595 -0.4953 -0.1913
  127OSM    O1313483   5.300   3.211   2.358  0.8917 -0.2179  0.2304
  127OSM    O1413484   5.089   3.165   2.485 -0.0878  0.2506 -0.1339
  127OSM    O1113485   5.288   3.284   2.583  0.6798  0.4464 -0.0452
  127OSM    O1213486   5.288   3.036   2.545 -0.1723  0.8677 -0.8043
  127OSM    C1S13487   5.216   3.328   2.707 -0.8530  0.2296  0.8407
  127OSM    H1S13488   5.110   3.297   2.708 -0.7877 -0.0113  0.5881
  127OSM    H1T13489   5.221   3.439   2.717  0.7050  0.3978 -1.0656
  127OSM     NF13490   5.208   3.274   2.951  0.0195 -0.0763  0.1268
  127OSM    HNF13491   5.234   3.342   3.019  0.4293  0.2555 -0.3440
  127OSM    C2S13492   5.285   3.257   2.832 -0.8199  0.6222 -0.9674
  127OSM    H2S13493   5.297   3.150   2.805  0.1924  0.1591  1.1144
  127OSM    C3S13494   5.428   3.314   2.845 -0.3045 -0.1550 -0.8764
  127OSM    H3S13495   5.411   3.421   2.873 -0.4823 -0.9468  2.4200
  127OSM     O313496   5.512   3.325   2.724  0.6140 -0.1326 -0.4589
  127OSM    HO313497   5.449   3.320   2.652  0.7288  0.1253 -0.5767
  127OSM    C4S13498   5.509   3.245   2.950 -0.2264 -1.3681  0.8560
  127OSM    H4S13499   5.502   3.297   3.046  0.2785  0.8544 -0.2549
  127OSM    C5S13500   5.574   3.125   2.931 -0.4138 -0.6379 -0.2518
  127OSM    H5S13501   5.573   3.080   2.831 -0.1128 -0.6268 -0.2621
  127OSM    C6S13502   5.649   3.048   3.035  0.3545 -0.4761 -0.2400
  127OSM    H6S13503   5.735   2.993   2.991  0.5639 -1.6204  1.4658
  127OSM    H6T13504   5.593   2.958   3.072 -2.9650  0.6183 -2.1615
  127OSM    C7S13505   5.698   3.130   3.154  0.2148 -0.2081 -0.2771
  127OSM    H7S13506   5.618   3.182   3.211  1.3641 -0.5894  1.7735
  127OSM    H7T13507   5.771   3.208   3.123 -0.6262  1.6833  2.1799
  127OSM    C8S13508   5.778   3.047   3.254  0.6469  0.4592  0.9762
  127OSM    H8S13509   5.859   2.997   3.195 -1.9725 -0.7233 -1.9405
  127OSM    H8T13510   5.713   2.965   3.292  0.5790  1.4252  3.0423
  127OSM    C9S13511   5.829   3.141   3.368  0.2950  0.3163 -0.5193
  127OSM    H9S13512   5.751   3.164   3.445  1.9236  0.9364  1.0134
  127OSM    H9T13513   5.850   3.239   3.320 -0.0336  0.6136 -0.0700
  127OSM   C10S13514   5.946   3.085   3.444  0.0710  0.3491 -0.3103
  127OSM   H10S13515   6.025   3.089   3.367  1.5008 -0.0738  1.0754
  127OSM   H10T13516   5.929   2.980   3.476  2.0456  0.1080  0.0782
  127OSM   C11S13517   5.970   3.172   3.566 -0.3505 -0.3116 -0.2092
  127OSM   H11S13518   5.916   3.268   3.554  0.5003  0.1852 -0.0861
  127OSM   H11T13519   6.078   3.181   3.587 -0.1962 -2.1722 -0.0542
  127OSM   C12S13520   5.905   3.106   3.686 -0.4758  0.7876 -0.1380
  127OSM   H12S13521   5.941   3.001   3.682 -4.5294 -0.8043  0.6077
  127OSM   H12T13522   5.794   3.103   3.681 -0.6261 -0.1718  2.4594
  127OSM   C13S13523   5.940   3.162   3.829  0.0627 -0.3893  0.4288
  127OSM   H13S13524   5.876   3.113   3.906  0.0147 -1.9014 -0.5184
  127OSM   H13T13525   5.911   3.268   3.824 -0.5637 -0.5832 -0.1646
  127OSM   C14S13526   6.080   3.136   3.866  0.4057  0.6618  0.7198
  127OSM   H14S13527   6.146   3.138   3.778 -0.0786 -0.5195  0.3096
  127OSM   H14T13528   6.086   3.030   3.897 -0.8987  0.4712  0.4014
  127OSM   C15S13529   6.130   3.226   3.978  0.4584  0.4911  0.5209
  127OSM   H15S13530   6.126   3.327   3.932  1.4857  1.0115  1.4989
  127OSM   H15T13531   6.233   3.192   4.002  0.3959 -0.3645 -0.3538
  127OSM   C16S13532   6.043   3.229   4.106  0.1727  0.3193 -0.0395
  127OSM   H16S13533   6.024   3.122   4.129  1.4592 -0.6098 -2.7799
  127OSM   H16T13534   5.944   3.275   4.084 -0.9204 -2.3449 -1.1116
  127OSM   C17S13535   6.112   3.300   4.230  0.3470 -0.5516  0.1127
  127OSM   H17S13536   6.023   3.320   4.293 -0.9815 -2.3444 -1.1009
  127OSM   H17T13537   6.165   3.396   4.211 -1.7910  1.3422  2.8231
  127OSM   C18S13538   6.209   3.219   4.326 -0.0241 -0.1662  0.3442
  127OSM   H18S13539   6.158   3.134   4.376 -0.7523 -1.0982 -1.8655
  127OSM   H18T13540   6.258   3.285   4.401 -2.7808  1.6003  0.7113
  127OSM   H18U13541   6.295   3.186   4.263 -0.7310 -0.4510 -0.4820
  127OSM    C1F13542   5.087   3.211   2.954  0.3820  0.0619  0.0611
  127OSM     OF13543   5.061   3.117   2.878 -0.0692 -0.0387  0.4180
  127OSM    C2F13544   4.988   3.266   3.051 -0.7736  0.7067 -0.1457
  127OSM    H2F13545   4.927   3.350   3.010  1.1635  2.6419  0.7972
  127OSM    H2G13546   5.038   3.297   3.145  1.1895 -0.1961 -0.8320
  127OSM    C3F13547   4.883   3.156   3.079  0.0117 -0.5229  0.5962
  127OSM    H3F13548   4.927   3.073   3.138  1.8936  0.4385  0.6169
  127OSM    H3G13549   4.845   3.116   2.983  1.7413  0.4759 -0.5653
  127OSM    C4F13550   4.762   3.204   3.160 -0.2187 -0.5163 -0.3860
  127OSM    H4F13551   4.703   3.117   3.194 -2.0350  0.7720 -0.1440
  127OSM    H4G13552   4.692   3.265   3.099  0.0101  0.5937  0.4092
  127OSM    C5F13553   4.819   3.270   3.288  0.2000 -0.6711  0.1871
  127OSM    H5F13554   4.885   3.357   3.267 -1.3761  0.7954  1.0518
  127OSM    H5G13555   4.879   3.195   3.345 -1.1846 -1.8138  0.1948
  127OSM    C6F13556   4.717   3.330   3.386 -0.0158  0.2656  0.0799
  127OSM    H6F13557   4.665   3.249   3.443  1.0813 -0.3502  0.2262
  127OSM    H6G13558   4.647   3.381   3.316 -1.7111 -0.9979  0.7759
  127OSM    C7F13559   4.769   3.416   3.499  0.9288  0.7261  0.5363
  127OSM    H7F13560   4.847   3.483   3.456  2.4221  1.0345  3.4856
  127OSM    H7G13561   4.825   3.348   3.566 -0.2179 -1.6028 -0.7208
  127OSM    C8F13562   4.661   3.493   3.579  0.5052  0.3217  0.3242
  127OSM    H8F13563   4.625   3.564   3.501  2.7663 -0.4116 -1.5241
  127OSM    H8G13564   4.701   3.559   3.658 -0.9679  2.0751 -0.3293
  127OSM    C9F13565   4.556   3.401   3.645 -0.1470 -0.9775 -0.4013
  127OSM    H9F13566   4.473   3.367   3.580  1.8850 -1.6876 -2.7790
  127OSM   C10F13567   4.546   3.386   3.775  0.4226 -0.4138 -0.5421
  127OSM   H10F13568   4.471   3.317   3.817 -0.6285  0.5591 -0.7816
  127OSM   C11F13569   4.646   3.449   3.871 -0.0082 -0.3228 -0.2591
  127OSM   H11F13570   4.746   3.470   3.827  0.0026  1.1701  0.4511
  127OSM   H11G13571   4.667   3.392   3.964 -2.3357  0.3548  0.7415
  127OSM   C12F13572   4.603   3.586   3.921  0.0158  0.0491  0.3838
  127OSM   H12F13573   4.581   3.651   3.834 -0.1717 -1.8896 -1.0808
  127OSM   H12G13574   4.691   3.623   3.978  1.3243 -1.2828 -0.6800
  127OSM   C13F13575   4.483   3.585   4.020  0.1692 -0.1121  0.6113
  127OSM   H13F13576   4.400   3.528   3.973 -0.0931 -0.1776  1.1599
  127OSM   H13G13577   4.471   3.696   4.028 -1.5454  0.1288 -3.1516
  127OSM   C14F13578   4.513   3.520   4.152  0.0103  0.4420 -0.2562
  127OSM   H14F13579   4.605   3.565   4.195  0.6087 -1.1029  0.1372
  127OSM   H14G13580   4.546   3.415   4.140  2.8562  1.1422  0.7588
  127OSM   C15F13581   4.397   3.531   4.248 -0.1306  0.3955 -0.1417
  127OSM   H15F13582   4.324   3.454   4.217  1.4323 -0.8068 -0.9782
  127OSM   H15G13583   4.353   3.633   4.244 -0.1775  0.3379 -3.0546
  127OSM   C16F13584   4.438   3.493   4.394 -0.5392  0.0218  0.3763
  127OSM   H16F13585   4.478   3.390   4.389 -2.6493 -0.8299 -0.5990
  127OSM   H16G13586   4.342   3.476   4.448 -1.4688 -0.7654 -1.4441
  127OSM   C17F13587   4.534   3.585   4.468 -1.0897 -0.0375  0.4369
  127OSM   H17F13588   4.616   3.628   4.408 -0.2268  0.4662  1.9253
  127OSM   H17G13589   4.583   3.522   4.545  0.6879  0.1797 -0.4641
  127OSM   C18F13590   4.459   3.697   4.547  0.5375 -0.1074  0.3406
  127OSM   H18F13591   4.379   3.660   4.615 -0.0193 -2.3366 -1.4259
  127OSM   H18G13592   4.408   3.775   4.487  1.7477  0.7629  0.3972
  127OSM   H18H13593   4.536   3.754   4.604 -1.1975  1.8897  0.8176
  128OSM      N13594   5.575   1.522   2.499 -0.1206  0.3403  0.0189
  128OSM    C1513595   5.515   1.520   2.361  0.9677 -0.1460 -0.3955
  128OSM   H15A13596   5.570   1.453   2.296 -2.7047 -4.0710  0.1121
  128OSM   H15B13597   5.512   1.620   2.321 -1.6909  0.2535  0.6237
  128OSM   H15C13598   5.416   1.482   2.379  0.1602  1.5589 -1.0676
  128OSM    C1413599   5.555   1.384   2.552 -0.5263  0.4796  0.2530
  128OSM   H14A13600   5.612   1.313   2.493 -0.0959  1.9221 -1.1401
  128OSM   H14B13601   5.450   1.359   2.544 -0.8160  0.6861  2.7399
  128OSM   H14C13602   5.583   1.378   2.656  0.0257  0.3953  0.1032
  128OSM    C1313603   5.722   1.548   2.497 -0.2791  0.3269  0.5525
  128OSM   H13A13604   5.780   1.478   2.439  1.7458  1.4855  1.0880
  128OSM   H13B13605   5.755   1.538   2.600 -3.1570  1.4847  1.6882
  128OSM   H13C13606   5.733   1.651   2.468 -0.8835  0.5819  1.2228
  128OSM    C1213607   5.520   1.631   2.585 -0.1110 -0.3813  0.3564
  128OSM   H12A13608   5.537   1.727   2.540  4.1279 -0.5016  1.3101
  128OSM   H12B13609   5.570   1.632   2.681 -2.5013  1.4056  1.7067
  128OSM    C1113610   5.373   1.613   2.629 -0.1013  0.1069 -0.0450
  128OSM   H11A13611   5.359   1.714   2.673  1.4033  1.3227 -2.1567
  128OSM   H11B13612   5.375   1.539   2.712  2.1806 -1.3259 -1.2506
  128OSM      P13613   5.182   1.454   2.522  0.4468  0.2230  0.2361
  128OSM    O1313614   5.066   1.474   2.433  0.2900  0.0889 -0.4243
  128OSM    O1413615   5.275   1.353   2.475 -0.4662  0.4234  0.5534
  128OSM    O1113616   5.132   1.440   2.671  0.1129  0.0803 -0.2006
  128OSM    O1213617   5.272   1.587   2.526  0.1995  0.0744  0.0414
  128OSM    C1S13618   5.156   1.321   2.733 -0.1076  0.2327 -1.0344
  128OSM    H1S13619   5.264   1.301   2.749 -0.0408  0.9669 -0.5028
  128OSM    H1T13620   5.112   1.238   2.675 -0.3632 -0.4274  0.0814
  128OSM     NF13621   5.125   1.188   2.948  0.6911  0.0256  0.1564
  128OSM    HNF13622   5.047   1.126   2.955 -0.1959  1.2093  1.1797
  128OSM    C2S13623   5.096   1.317   2.880 -0.4874  0.5300  0.4610
  128OSM    H2S13624   5.140   1.397   2.942 -0.8270  0.1880  1.1606
  128OSM    C3S13625   4.949   1.346   2.882  0.2910 -0.7921  0.5739
  128OSM    H3S13626   4.907   1.270   2.813  0.8466 -0.8543  0.2972
  128OSM     O313627   4.909   1.459   2.804  0.6973  0.1040 -0.4735
  128OSM    HO313628   4.978   1.463   2.738  0.8254 -2.4354 -0.5795
  128OSM    C4S13629   4.884   1.345   3.016  0.1907 -0.1820  0.3601
  128OSM    H4S13630   4.821   1.256   3.021 -0.0886 -0.1277 -1.6613
  128OSM    C5S13631   4.902   1.433   3.113 -0.1637 -0.6394  0.0956
  128OSM    H5S13632   4.987   1.502   3.104 -1.1048  0.4802 -0.5158
  128OSM    C6S13633   4.839   1.427   3.251  0.1987 -0.5995  0.4090
  128OSM    H6S13634   4.739   1.380   3.243 -0.8042  1.1750  1.8500
  128OSM    H6T13635   4.812   1.533   3.270 -0.6318 -0.7918  0.3160
  128OSM    C7S13636   4.932   1.362   3.352  0.2092  0.0659 -0.1592
  128OSM    H7S13637   5.033   1.407   3.342 -0.4914  1.7770  0.0769
  128OSM    H7T13638   4.942   1.254   3.331 -0.5484 -0.1107  0.3504
  128OSM    C8S13639   4.895   1.357   3.505  0.1159  0.0273  0.5636
  128OSM    H8S13640   4.963   1.286   3.555  1.2715  1.3876  1.0015
  128OSM    H8T13641   4.793   1.324   3.532 -0.3663  1.0323  0.0316
  128OSM    C9S13642   4.925   1.491   3.573  0.1388  0.3401  0.6578
  128OSM    H9S13643   4.861   1.563   3.517  1.0875  0.4211 -0.3460
  128OSM    H9T13644   5.028   1.531   3.563  0.0775  0.5435  0.8123
  128OSM   C10S13645   4.895   1.489   3.723 -0.2637  0.5043  0.0346
  128OSM   H10S13646   4.943   1.404   3.776 -0.3030  0.2829 -0.2807
  128OSM   H10T13647   4.787   1.470   3.740 -0.9856  1.8185 -2.5938
  128OSM   C11S13648   4.936   1.608   3.804 -0.2224 -0.7539  0.6274
  128OSM   H11S13649   4.901   1.699   3.750  2.0020 -0.9131 -1.2115
  128OSM   H11T13650   5.046   1.620   3.800 -0.3620  0.6075  0.2753
  128OSM   C12S13651   4.871   1.602   3.944 -0.0443 -0.3209 -0.2024
  128OSM   H12S13652   4.761   1.612   3.931 -0.0975 -1.7951 -1.1519
  128OSM   H12T13653   4.910   1.691   3.999 -3.2549  0.9058  0.3083
  128OSM   C13S13654   4.900   1.480   4.033  0.0683  0.5636  0.0324
  128OSM   H13S13655   5.003   1.441   4.021  0.5541  2.0811 -0.9611
  128OSM   H13T13656   4.835   1.401   3.989  0.8234 -1.5366  2.4443
  128OSM   C14S13657   4.867   1.500   4.184  0.0410  0.1320 -0.3863
  128OSM   H14S13658   4.757   1.498   4.194  0.1846  0.9656  2.1850
  128OSM   H14T13659   4.905   1.602   4.204 -0.1817  0.2042 -0.3296
  128OSM   C15S13660   4.949   1.398   4.263  0.7106  0.2548 -0.2139
  128OSM   H15S13661   5.057   1.421   4.249  1.2269 -1.0334  1.3396
  128OSM   H15T13662   4.911   1.298   4.233  0.2841 -0.4363  2.3837
  128OSM   C16S13663   4.914   1.431   4.411 -0.0186  0.3162 -1.0360
  128OSM   H16S13664   4.808   1.398   4.420  0.3235 -0.5756 -0.1283
  128OSM   H16T13665   4.911   1.538   4.442  0.4162  0.3392 -1.0677
  128OSM   C17S13666   4.998   1.364   4.520  0.4556 -0.2630  0.8123
  128OSM   H17S13667   5.101   1.377   4.481  0.3603  1.6558  1.0648
  128OSM   H17T13668   4.980   1.255   4.522  0.1354 -0.2071  1.1000
  128OSM   C18S13669   4.986   1.400   4.664 -0.2336 -0.3300  0.1060
  128OSM   H18S13670   5.057   1.333   4.718 -0.0129  1.0432  1.5900
  128OSM   H18T13671   4.883   1.392   4.703 -0.8307 -2.6871 -1.7377
  128OSM   H18U13672   5.026   1.502   4.682  1.1361 -0.7297 -0.4833
  128OSM    C1F13673   5.246   1.154   2.980 -0.1258  0.0849 -0.4507
  128OSM     OF13674   5.341   1.231   2.960  0.0126  0.2091  0.1092
  128OSM    C2F13675   5.269   1.021   3.035  0.0534  0.5125  0.4674
  128OSM    H2F13676   5.365   0.985   2.993 -1.4702 -1.7912 -1.2691
  128OSM    H2G13677   5.186   0.952   3.008  0.3930  0.5595 -0.7597
  128OSM    C3F13678   5.279   1.027   3.188 -0.1841 -0.4302 -0.1177
  128OSM    H3F13679   5.361   1.090   3.229 -0.3753 -1.9286  2.9020
  128OSM    H3G13680   5.318   0.928   3.220 -1.1348 -0.3174  1.5238
  128OSM    C4F13681   5.153   1.055   3.263  0.7101  0.1253 -0.0348
  128OSM    H4F13682   5.074   0.984   3.230 -0.0199 -0.0197  1.8956
  128OSM    H4G13683   5.122   1.161   3.251 -0.2431  0.0215  1.2391
  128OSM    C5F13684   5.161   1.027   3.414  0.0279 -0.1467  0.6102
  128OSM    H5F13685   5.056   1.032   3.449 -0.9393 -3.2914 -1.3913
  128OSM    H5G13686   5.223   1.100   3.470 -2.1349  3.3898 -1.2818
  128OSM    C6F13687   5.198   0.884   3.446 -0.2283  0.0238  0.0506
  128OSM    H6F13688   5.305   0.871   3.417  0.1936  1.7465  0.6706
  128OSM    H6G13689   5.123   0.820   3.396  1.6503  0.1046 -3.1031
  128OSM    C7F13690   5.216   0.863   3.601  0.0690  1.0798  0.4135
  128OSM    H7F13691   5.299   0.933   3.624  0.1435  0.8329  0.9147
  128OSM    H7G13692   5.253   0.759   3.611  1.9636  1.2757 -3.2002
  128OSM    C8F13693   5.094   0.886   3.689  0.8590 -0.5605  0.4558
  128OSM    H8F13694   5.097   0.836   3.788 -0.5671  0.9809  1.3244
  128OSM    H8G13695   5.018   0.831   3.629 -0.0901 -0.5152  1.5805
  128OSM    C9F13696   5.054   1.030   3.706  0.2757 -0.4083 -0.2066
  128OSM    H9F13697   4.978   1.071   3.638 -0.8898 -0.7476  0.8493
  128OSM   C10F13698   5.089   1.102   3.813 -0.1641  0.3081 -0.4763
  128OSM   H10F13699   5.063   1.209   3.817  0.3260  0.4426  3.4197
  128OSM   C11F13700   5.182   1.071   3.925 -0.9912  0.3109  0.0954
  128OSM   H11F13701   5.271   1.138   3.928  0.3364 -1.3626  3.3082
  128OSM   H11G13702   5.216   0.965   3.925  3.4727  1.5099  0.0761
  128OSM   C12F13703   5.127   1.093   4.066  0.3810  0.0144  0.3428
  128OSM   H12F13704   5.023   1.054   4.076  1.0631 -1.7439  0.9882
  128OSM   H12G13705   5.131   1.202   4.084  3.0456  0.1953 -0.8265
  128OSM   C13F13706   5.224   1.041   4.171  0.3479  0.6152 -0.0281
  128OSM   H13F13707   5.310   1.110   4.190 -0.6465  1.4092  1.8515
  128OSM   H13G13708   5.257   0.939   4.145  3.0297  1.2394  0.5698
  128OSM   C14F13709   5.154   1.028   4.315  0.5962  0.2144 -0.1763
  128OSM   H14F13710   5.079   0.947   4.319  0.6426  0.2358  1.9120
  128OSM   H14G13711   5.105   1.124   4.340 -1.3012 -1.0581  1.2714
  128OSM   C15F13712   5.263   1.013   4.424  0.5810  0.0807  0.0225
  128OSM   H15F13713   5.340   1.093   4.424  2.2631 -1.3848  2.9535
  128OSM   H15G13714   5.315   0.918   4.398  0.4491 -0.4135  1.4588
  128OSM   C16F13715   5.204   1.015   4.568 -0.5926 -0.3060  0.1885
  128OSM   H16F13716   5.134   0.929   4.572 -0.3806 -0.5910 -1.6334
  128OSM   H16G13717   5.145   1.109   4.578  1.5823  1.2458 -0.8462
  128OSM   C17F13718   5.310   1.022   4.671  0.7645  0.7084  0.1325
  128OSM   H17F13719   5.358   1.122   4.673  1.3463  0.4754 -1.2291
  128OSM   H17G13720   5.390   0.947   4.653  0.5287  0.6524 -0.6890
  128OSM   C18F13721   5.251   0.987   4.808  0.3799 -0.2105  0.5674
  128OSM   H18F13722   5.204   1.076   4.855  2.1806  1.2033 -0.1806
  128OSM   H18G13723   5.327   0.958   4.884  0.4819 -0.8149  0.2374
  128OSM   H18H13724   5.175   0.909   4.786 -0.9683  1.1390  0.2847
  129OSM      N13725   0.246   1.621   2.269 -0.0237  0.5032  0.3214
  129OSM    C1513726   0.175   1.497   2.205 -0.2467 -0.7430 -0.4352
  129OSM   H15A13727   0.218   1.456   2.114  0.2531  1.8962 -1.4696
  129OSM   H15B13728   0.069   1.513   2.193 -0.3475 -1.0848 -0.0518
  129OSM   H15C13729   0.189   1.416   2.276  1.9769 -1.0176 -1.0915
  129OSM    C1413730   0.370   1.569   2.342 -0.4851 -0.1990  0.2889
  129OSM   H14A13731   0.405   1.646   2.408  0.7018 -1.3291  1.0106
  129OSM   H14B13732   0.448   1.546   2.270  0.3784 -2.2893  1.7868
  129OSM   H14C13733   0.347   1.486   2.407  1.0655  1.6192  3.3576
  129OSM    C1313734   0.289   1.711   2.155 -0.1261 -0.3003 -0.3521
  129OSM   H13A13735   0.371   1.675   2.095  2.4975  0.8880  2.2800
  129OSM   H13B13736   0.327   1.805   2.192  1.1279 -1.3856  1.2070
  129OSM   H13C13737   0.204   1.734   2.091  0.2350 -0.6522 -0.9715
  129OSM    C1213738   0.152   1.695   2.364 -0.5267  0.2420  0.0093
  129OSM   H12A13739   0.080   1.750   2.304  0.5744  0.2487 -1.3782
  129OSM   H12B13740   0.199   1.775   2.419 -0.7915  0.5428 -0.1914
  129OSM    C1113741   0.074   1.612   2.473 -0.0948 -0.4417 -0.2645
  129OSM   H11A13742   0.045   1.676   2.559 -1.0057 -2.2202  0.7877
  129OSM   H11B13743   0.146   1.539   2.515  0.9295  0.9796  0.5785
  129OSM      P13744  -0.174   1.537   2.473 -0.5027  0.1982 -0.2380
  129OSM    O1313745  -0.268   1.528   2.364  0.0607 -0.1928  0.0957
  129OSM    O1413746  -0.170   1.424   2.566 -0.3281  0.0617 -0.5076
  129OSM    O1113747  -0.202   1.669   2.550 -0.7797  0.1063  0.2466
  129OSM    O1213748  -0.031   1.541   2.410  0.1326 -0.2809 -0.1086
  129OSM    C1S13749  -0.299   1.673   2.656  0.1798 -0.3175 -1.3653
  129OSM    H1S13750  -0.275   1.608   2.743 -3.9925 -1.6501 -1.0003
  129OSM    H1T13751  -0.398   1.642   2.617  0.3942 -2.4544 -0.3343
  129OSM     NF13752  -0.368   1.815   2.852  0.0323 -0.5939 -0.1501
  129OSM    HNF13753  -0.460   1.853   2.856  0.4560  0.3293  1.4068
  129OSM    C2S13754  -0.301   1.812   2.721 -0.4169  0.5082 -0.0337
  129OSM    H2S13755  -0.196   1.840   2.744  0.0665 -1.3061  0.0837
  129OSM    C3S13756  -0.348   1.919   2.619 -0.4389  0.1064  0.0441
  129OSM    H3S13757  -0.459   1.914   2.619 -0.4703  0.3585 -1.3174
  129OSM     O313758  -0.306   1.883   2.487  0.0177 -0.2099  0.8672
  129OSM    HO313759  -0.246   1.810   2.504 -0.2297 -0.1826  1.9395
  129OSM    C4S13760  -0.319   2.067   2.658 -0.8982  0.5210 -0.7384
  129OSM    H4S13761  -0.395   2.120   2.718  0.8008  1.5258  0.6420
  129OSM    C5S13762  -0.210   2.138   2.626  0.4075 -0.5296  0.4782
  129OSM    H5S13763  -0.131   2.082   2.573  0.1871 -1.4945  1.1560
  129OSM    C6S13764  -0.190   2.284   2.662  0.6939  0.5616  0.5549
  129OSM    H6S13765  -0.282   2.340   2.635  0.8014  0.7890  0.6540
  129OSM    H6T13766  -0.103   2.322   2.604  0.1184  0.5554 -0.3254
  129OSM    C7S13767  -0.150   2.316   2.816  0.1956  0.1174  0.1365
  129OSM    H7S13768  -0.076   2.241   2.850 -1.3977 -1.0828  1.0610
  129OSM    H7T13769  -0.239   2.298   2.880  0.2829  0.3321  0.3212
  129OSM    C8S13770  -0.109   2.461   2.833  0.2163  0.2039 -0.5654
  129OSM    H8S13771  -0.189   2.532   2.803  0.2361 -0.3934 -2.1304
  129OSM    H8T13772  -0.014   2.475   2.776 -1.7355 -0.7628 -4.3701
  129OSM    C9S13773  -0.088   2.489   2.978 -0.1201  0.0998 -0.1918
  129OSM    H9S13774  -0.013   2.419   3.021 -1.5253 -0.2832  1.7751
  129OSM    H9T13775  -0.180   2.480   3.040 -1.8854 -2.4107 -2.9281
  129OSM   C10S13776  -0.043   2.635   3.002 -0.4814 -0.0644 -0.3795
  129OSM   H10S13777  -0.122   2.707   2.972 -0.4966  0.5118  0.9452
  129OSM   H10T13778   0.055   2.653   2.953 -0.3603 -1.5087 -0.6947
  129OSM   C11S13779  -0.014   2.664   3.150  0.6083  1.1338 -0.3908
  129OSM   H11S13780   0.079   2.604   3.167  1.4872  2.1743 -1.4117
  129OSM   H11T13781  -0.102   2.637   3.212  2.1755  0.1816  1.5752
  129OSM   C12S13782   0.013   2.809   3.177 -0.4054 -0.1051  0.3562
  129OSM   H12S13783  -0.083   2.861   3.159  0.3709  0.9389 -0.9392
  129OSM   H12T13784   0.083   2.845   3.099 -0.6719  0.3423  0.3270
  129OSM   C13S13785   0.066   2.837   3.314  0.2153 -0.7506 -0.3833
  129OSM   H13S13786   0.059   2.948   3.322 -1.3088 -0.8133 -0.5611
  129OSM   H13T13787   0.171   2.809   3.337 -0.4988 -2.6467  0.7828
  129OSM   C14S13788  -0.018   2.786   3.430  0.0984  0.4392 -0.4888
  129OSM   H14S13789  -0.033   2.676   3.420 -0.7887  0.7033 -2.6716
  129OSM   H14T13790  -0.112   2.842   3.445 -0.3466 -0.7554  1.6018
  129OSM   C15S13791   0.065   2.800   3.565  0.4455  0.1061  0.0503
  129OSM   H15S13792   0.080   2.909   3.578  0.6244 -0.0412  1.1920
  129OSM   H15T13793   0.165   2.755   3.554  0.7921  1.0744 -0.8958
  129OSM   C16S13794  -0.012   2.743   3.682  0.7398  0.5609  0.4482
  129OSM   H16S13795  -0.034   2.635   3.677  0.1452  0.6723  0.4715
  129OSM   H16T13796  -0.110   2.797   3.683  0.2613 -0.2181  2.7637
  129OSM   C17S13797   0.053   2.771   3.817 -0.3830 -0.1795  0.9406
  129OSM   H17S13798  -0.021   2.740   3.893  0.4530 -2.1372  1.0157
  129OSM   H17T13799   0.065   2.882   3.820 -0.3987 -0.1107 -0.5796
  129OSM   C18S13800   0.175   2.687   3.838 -0.3160  0.2816  0.2636
  129OSM   H18S13801   0.236   2.720   3.925  0.1470 -0.3015  0.1694
  129OSM   H18T13802   0.240   2.690   3.748 -0.2671  0.9061  0.3159
  129OSM   H18U13803   0.138   2.584   3.858 -2.8889  0.8812 -1.1015
  129OSM    C1F13804  -0.315   1.766   2.964  0.0068  0.5353  0.4732
  129OSM     OF13805  -0.211   1.701   2.960 -0.6424 -0.5198  0.4561
  129OSM    C2F13806  -0.382   1.777   3.101  0.6995  0.3155  0.4633
  129OSM    H2F13807  -0.470   1.709   3.096  1.3093 -0.3962 -2.5936
  129OSM    H2G13808  -0.410   1.884   3.112  0.6630  0.1318  2.4154
  129OSM    C3F13809  -0.295   1.739   3.217  0.1813  0.6948 -0.0053
  129OSM    H3F13810  -0.193   1.776   3.197  0.0882  0.6965 -0.4901
  129OSM    H3G13811  -0.291   1.628   3.216  0.0582  0.6846 -1.2025
  129OSM    C4F13812  -0.349   1.778   3.357 -0.0115  0.1860  0.1808
  129OSM    H4F13813  -0.460   1.772   3.361 -0.0651  0.3851 -0.8194
  129OSM    H4G13814  -0.345   1.889   3.364  1.0699  0.1083  0.9647
  129OSM    C5F13815  -0.273   1.709   3.469 -0.2797  0.1192  0.3743
  129OSM    H5F13816  -0.237   1.609   3.437 -0.2795  1.1090 -3.1606
  129OSM    H5G13817  -0.332   1.709   3.563  0.1008 -0.8561  0.6293
  129OSM    C6F13818  -0.153   1.792   3.510 -0.7250 -0.1670 -0.4988
  129OSM    H6F13819  -0.191   1.894   3.534  0.8930  0.4045 -0.2273
  129OSM    H6G13820  -0.074   1.793   3.432 -0.9533 -0.1357 -0.7326
  129OSM    C7F13821  -0.089   1.732   3.639  0.0281 -0.2182  0.2503
  129OSM    H7F13822   0.007   1.787   3.647 -0.3653  0.2772  2.3777
  129OSM    H7G13823  -0.064   1.625   3.625  0.5179 -0.0161 -0.4741
  129OSM    C8F13824  -0.162   1.752   3.776 -0.4460  0.4311 -0.7002
  129OSM    H8F13825  -0.101   1.691   3.846 -0.6040  0.0463 -0.8912
  129OSM    H8G13826  -0.263   1.705   3.779 -0.3363  0.2371  0.4545
  129OSM    C9F13827  -0.167   1.898   3.822  0.2360  0.8392  0.1645
  129OSM    H9F13828  -0.090   1.970   3.790  0.0212  0.9472 -0.1141
  129OSM   C10F13829  -0.267   1.964   3.883 -0.5113 -0.0589 -0.3640
  129OSM   H10F13830  -0.259   2.073   3.896 -0.0046  0.0010 -1.1219
  129OSM   C11F13831  -0.399   1.909   3.932 -0.0251 -0.0281  0.6374
  129OSM   H11F13832  -0.424   1.822   3.868 -0.5601  0.9471 -0.5378
  129OSM   H11G13833  -0.477   1.986   3.913 -0.3449 -0.5090 -0.0357
  129OSM   C12F13834  -0.384   1.864   4.073 -0.7478  0.5156  1.0082
  129OSM   H12F13835  -0.286   1.811   4.075 -0.0801  1.5979 -0.2538
  129OSM   H12G13836  -0.472   1.805   4.104 -0.5328 -0.4262 -0.0926
  129OSM   C13F13837  -0.382   1.976   4.176 -0.5923 -0.4537  0.3566
  129OSM   H13F13838  -0.480   2.027   4.172  0.6712  2.7310  4.0118
  129OSM   H13G13839  -0.298   2.043   4.148 -0.1562 -1.1022  0.0742
  129OSM   C14F13840  -0.361   1.920   4.319  0.6685  0.0416 -0.0361
  129OSM   H14F13841  -0.323   2.002   4.383  0.1749 -0.3092  0.7297
  129OSM   H14G13842  -0.282   1.841   4.311  2.7547  2.1898 -2.1738
  129OSM   C15F13843  -0.499   1.883   4.373  0.1874 -0.7896 -0.0330
  129OSM   H15F13844  -0.539   1.791   4.324  2.2787 -0.9635 -1.5354
  129OSM   H15G13845  -0.577   1.954   4.338  0.4439 -1.4373 -2.0262
  129OSM   C16F13846  -0.502   1.848   4.523 -0.3704  0.3266  0.2551
  129OSM   H16F13847  -0.450   1.750   4.524 -3.4625 -1.4181  0.5402
  129OSM   H16G13848  -0.607   1.842   4.559 -0.3827  1.2999  0.4157
  129OSM   C17F13849  -0.442   1.947   4.621  0.5017 -0.7235  0.0553
  129OSM   H17F13850  -0.465   2.053   4.596 -1.7907 -1.1744  0.0181
  129OSM   H17G13851  -0.331   1.938   4.624  0.4575 -1.4771 -0.4618
  129OSM   C18F13852  -0.500   1.930   4.760  0.8628  0.0048 -0.5208
  129OSM   H18F13853  -0.506   2.026   4.815  0.9976 -0.0793 -0.3570
  129OSM   H18G13854  -0.429   1.866   4.817  1.1641  2.0991  1.6338
  129OSM   H18H13855  -0.604   1.891   4.763  0.4839  1.0174  0.4939
  130OSM      N13856   5.569   4.664   1.988  0.9546  0.9108  0.2080
  130OSM    C1513857   5.481   4.764   2.050 -0.0507  0.7636  0.7497
  130OSM   H15A13858   5.443   4.843   1.986  0.8163  1.3599  0.9483
  130OSM   H15B13859   5.532   4.819   2.128 -0.3895  1.2449  0.6356
  130OSM   H15C13860   5.392   4.710   2.078 -1.2584  0.2622 -3.4362
  130OSM    C1413861   5.576   4.544   2.086 -0.4413 -0.1235  1.2430
  130OSM   H14A13862   5.476   4.506   2.099 -0.4299 -0.7704 -0.3059
  130OSM   H14B13863   5.613   4.576   2.182 -0.1955  1.9281  0.5000
  130OSM   H14C13864   5.641   4.464   2.053 -1.5242 -0.8380  0.7699
  130OSM    C1313865   5.515   4.614   1.858 -0.3180 -0.1926 -0.3370
  130OSM   H13A13866   5.586   4.545   1.815 -0.5573  0.8931 -2.6032
  130OSM   H13B13867   5.514   4.695   1.786  0.2943 -0.2234 -0.3867
  130OSM   H13C13868   5.418   4.570   1.873 -0.5313  0.2155 -0.4984
  130OSM    C1213869   5.703   4.723   1.975  0.2070  0.1778  0.9467
  130OSM   H12A13870   5.705   4.811   1.914  2.0953 -0.1861  0.4055
  130OSM   H12B13871   5.759   4.657   1.910 -3.2563 -1.3343 -0.7735
  130OSM    C1113872   5.782   4.742   2.102 -0.0988  0.2701 -0.2671
  130OSM   H11A13873   5.888   4.757   2.071 -0.5374  0.3894 -1.8147
  130OSM   H11B13874   5.790   4.645   2.155  0.4005  1.3803  1.7757
  130OSM      P13875   5.763   4.981   2.183 -0.6147  0.3163  0.3303
  130OSM    O1313876   5.909   5.000   2.206 -0.4828  0.5064  0.2248
  130OSM    O1413877   5.710   5.025   2.052  0.0632 -0.2475  0.1386
  130OSM    O1113878   5.683   5.045   2.301 -0.7599 -0.1764 -0.1451
  130OSM    O1213879   5.732   4.825   2.200 -0.1317  0.2447 -0.6128
  130OSM    C1S13880   5.716   5.013   2.435 -0.0886  0.5018  0.8483
  130OSM    H1S13881   5.814   5.060   2.456  0.9780 -1.2906  0.0135
  130OSM    H1T13882   5.737   4.905   2.443  2.5106  0.9384  0.5431
  130OSM     NF13883   5.647   5.070   2.672  0.1263  0.0916 -0.4859
  130OSM    HNF13884   5.628   4.986   2.721  0.3182  0.1827 -0.2529
  130OSM    C2S13885   5.600   5.056   2.532 -0.7107 -0.0471 -0.2093
  130OSM    H2S13886   5.589   5.163   2.504 -1.2590  0.1770  0.8191
  130OSM    C3S13887   5.472   4.981   2.511  0.3113  0.6255  0.1236
  130OSM    H3S13888   5.499   4.874   2.520 -1.0928  0.3982  2.3761
  130OSM     O313889   5.426   5.005   2.380 -0.2412  0.2094 -0.3027
  130OSM    HO313890   5.495   5.033   2.320 -0.2239  0.8535  0.0095
  130OSM    C4S13891   5.372   5.023   2.610 -0.1484 -0.0722 -0.5286
  130OSM    H4S13892   5.318   5.117   2.591  1.9455  1.1352 -0.7017
  130OSM    C5S13893   5.339   4.940   2.713 -0.1911  0.2389 -0.1741
  130OSM    H5S13894   5.383   4.839   2.714 -2.4849 -0.8386  1.3104
  130OSM    C6S13895   5.229   4.974   2.810 -0.0454 -0.1679 -0.8744
  130OSM    H6S13896   5.157   4.891   2.800 -0.6724  0.0610  1.2318
  130OSM    H6T13897   5.174   5.070   2.799  1.2843  0.7742  0.1999
  130OSM    C7S13898   5.273   4.960   2.957 -1.2037  0.3769 -0.2790
  130OSM    H7S13899   5.348   5.040   2.977  0.5078 -1.0155 -0.8183
  130OSM    H7T13900   5.324   4.862   2.962  1.5845  1.7381  0.4614
  130OSM    C8S13901   5.162   4.956   3.060 -0.6870 -0.3941  0.6259
  130OSM    H8S13902   5.085   4.879   3.039 -0.3911 -0.4914 -0.1479
  130OSM    H8T13903   5.124   5.060   3.060  3.0753  1.1318  0.5966
  130OSM    C9S13904   5.220   4.927   3.198 -0.2444  0.2483 -0.2071
  130OSM    H9S13905   5.299   5.001   3.219 -1.4776  2.0711 -1.6358
  130OSM    H9T13906   5.256   4.822   3.200 -0.6684  0.1011  2.1189
  130OSM   C10S13907   5.123   4.934   3.314  0.5248  0.5543  0.3039
  130OSM   H10S13908   5.049   4.851   3.308  0.2129  0.7245  1.5591
  130OSM   H10T13909   5.074   5.032   3.327  0.6269  0.3791  2.3750
  130OSM   C11S13910   5.187   4.909   3.445 -0.7288  0.4918  0.4346
  130OSM   H11S13911   5.298   4.912   3.437 -0.7767 -1.4144 -2.7777
  130OSM   H11T13912   5.166   4.804   3.474 -3.5585  0.9021  0.1314
  130OSM   C12S13913   5.120   4.980   3.561  0.2654 -0.0925  0.7061
  130OSM   H12S13914   5.021   4.931   3.573  1.3458 -2.5471  0.1746
  130OSM   H12T13915   5.097   5.081   3.521 -0.7384 -0.8817 -0.7973
  130OSM   C13S13916   5.203   4.982   3.690 -0.2432  0.2532 -0.2833
  130OSM   H13S13917   5.201   5.086   3.730 -0.3575  0.1228  0.0474
  130OSM   H13T13918   5.309   4.960   3.666 -0.7409 -0.9168 -1.5236
  130OSM   C14S13919   5.144   4.882   3.793  0.0423  0.0821  0.6585
  130OSM   H14S13920   5.135   4.774   3.765  1.6075  0.5769 -2.1430
  130OSM   H14T13921   5.038   4.903   3.819  0.6585 -1.4308  5.2557
  130OSM   C15S13922   5.220   4.883   3.924 -0.6467  0.2269  0.1767
  130OSM   H15S13923   5.215   4.990   3.953  4.3754  0.7431 -0.1295
  130OSM   H15T13924   5.325   4.854   3.906 -1.3376 -1.1077 -2.0924
  130OSM   C16S13925   5.155   4.799   4.035  1.0164 -0.0212  0.8463
  130OSM   H16S13926   5.149   4.696   3.993 -0.2090  0.9230 -1.4283
  130OSM   H16T13927   5.049   4.832   4.041  1.7864  2.9133  0.0005
  130OSM   C17S13928   5.215   4.828   4.173 -0.8583  0.0063  0.0696
  130OSM   H17S13929   5.216   4.935   4.205 -1.8597 -0.0927  0.4805
  130OSM   H17T13930   5.324   4.803   4.175 -1.0722 -1.2270 -1.6013
  130OSM   C18S13931   5.142   4.762   4.289  1.1826  0.3414  0.1492
  130OSM   H18S13932   5.181   4.787   4.390  0.6298  0.0866  0.4342
  130OSM   H18T13933   5.150   4.652   4.280  2.3917  0.5628 -2.6174
  130OSM   H18U13934   5.033   4.782   4.283  1.1767  0.0947 -0.6243
  130OSM    C1F13935   5.732   5.154   2.714 -0.4294  0.2226 -0.6246
  130OSM     OF13936   5.779   5.243   2.641 -0.4223 -0.2214 -0.3509
  130OSM    C2F13937   5.782   5.140   2.861  0.0493 -0.1698 -0.3607
  130OSM    H2F13938   5.856   5.222   2.871 -0.5748  0.6306 -1.9977
  130OSM    H2G13939   5.836   5.043   2.873  0.2900  0.0075  0.0349
  130OSM    C3F13940   5.670   5.139   2.972 -0.2097 -0.1127 -0.2201
  130OSM    H3F13941   5.596   5.060   2.945  0.9180 -1.3040  0.0667
  130OSM    H3G13942   5.613   5.234   2.967 -0.0414 -0.0764 -1.8843
  130OSM    C4F13943   5.719   5.118   3.118  0.1173 -0.3344 -0.9633
  130OSM    H4F13944   5.755   5.215   3.160  0.5916 -1.1349  0.5765
  130OSM    H4G13945   5.801   5.044   3.128  0.0240 -0.3729 -0.4304
  130OSM    C5F13946   5.595   5.074   3.203 -0.0514  0.9290 -1.0317
  130OSM    H5F13947   5.537   4.990   3.159  0.5329  0.7073 -1.3768
  130OSM    H5G13948   5.527   5.157   3.234 -0.4575  0.3179 -0.2429
  130OSM    C6F13949   5.643   5.018   3.337  0.0166  0.1457 -0.0485
  130OSM    H6F13950   5.734   4.957   3.320 -0.6613 -0.4176 -1.9598
  130OSM    H6G13951   5.565   4.949   3.375 -1.1352  2.8328  2.9355
  130OSM    C7F13952   5.663   5.130   3.442  0.3671 -0.8343 -0.3163
  130OSM    H7F13953   5.571   5.192   3.444  1.4666  0.8951 -0.7204
  130OSM    H7G13954   5.747   5.198   3.415  0.7801 -1.1932  0.0514
  130OSM    C8F13955   5.696   5.098   3.590 -0.0349  0.5378  0.2541
  130OSM    H8F13956   5.704   5.188   3.655 -0.5975 -1.3664  3.1359
  130OSM    H8G13957   5.800   5.060   3.596 -0.3413 -0.6995 -1.3741
  130OSM    C9F13958   5.584   5.019   3.662 -0.8192  0.1349  0.5039
  130OSM    H9F13959   5.503   5.080   3.703  0.1923  0.2418  2.4798
  130OSM   C10F13960   5.586   4.888   3.673 -1.3772  0.4369 -0.5794
  130OSM   H10F13961   5.505   4.839   3.730 -1.0177 -1.2350 -1.4370
  130OSM   C11F13962   5.697   4.802   3.620  0.0731  0.3786  0.2400
  130OSM   H11F13963   5.796   4.851   3.620  0.9647 -1.3553  0.3748
  130OSM   H11G13964   5.677   4.767   3.516 -1.7297 -2.5729  1.4535
  130OSM   C12F13965   5.709   4.666   3.699  0.3214 -0.5909  0.0550
  130OSM   H12F13966   5.781   4.603   3.642  1.2838  0.2207  0.3435
  130OSM   H12G13967   5.612   4.614   3.686 -0.5474  0.7361  1.0032
  130OSM   C13F13968   5.750   4.686   3.844  0.3651 -0.5414  0.5477
  130OSM   H13F13969   5.688   4.762   3.896 -0.1703 -1.5276  1.3942
  130OSM   H13G13970   5.853   4.726   3.848  0.5738 -1.1610  2.7129
  130OSM   C14F13971   5.762   4.554   3.919  0.1543 -0.6453 -0.1021
  130OSM   H14F13972   5.802   4.474   3.853 -1.3001 -1.4275 -0.0633
  130OSM   H14G13973   5.664   4.510   3.949 -1.1408 -1.4282 -4.7420
  130OSM   C15F13974   5.852   4.565   4.042 -0.3238 -0.0087 -0.2627
  130OSM   H15F13975   5.959   4.553   4.015 -0.6615  2.2226 -3.1449
  130OSM   H15G13976   5.837   4.471   4.098 -0.9795 -0.0972 -0.5765
  130OSM   C16F13977   5.823   4.692   4.124  0.1815 -0.1683 -0.1956
  130OSM   H16F13978   5.713   4.706   4.130  0.1280  0.0583 -1.4132
  130OSM   H16G13979   5.861   4.780   4.069 -0.3999 -0.5613 -1.2680
  130OSM   C17F13980   5.874   4.691   4.273 -0.3175 -0.3624  0.0495
  130OSM   H17F13981   5.818   4.608   4.321  0.1244 -1.5390 -1.3915
  130OSM   H17G13982   5.843   4.779   4.334 -1.1890 -3.4652  4.5930
  130OSM   C18F13983   6.026   4.678   4.284 -0.6160  0.1556  0.1405
  130OSM   H18F13984   6.061   4.701   4.387  2.0662 -0.5731 -0.5286
  130OSM   H18G13985   6.089   4.745   4.223 -0.7184 -0.7333 -0.9848
  130OSM   H18H13986   6.049   4.570   4.272  2.1416  0.6286  0.5416
  131OSM      N13987   3.851   0.951   2.162  0.0663  0.2390  0.1501
  131OSM    C1513988   3.870   0.929   2.015 -0.6623  0.2955 -0.5186
  131OSM   H15A13989   3.912   1.019   1.973 -0.6234  0.3868 -0.2870
  131OSM   H15B13990   3.776   0.916   1.964 -1.0602 -2.9170  0.7922
  131OSM   H15C13991   3.935   0.844   1.999  0.0066  0.1656  2.3044
  131OSM    C1413992   3.966   1.029   2.216  0.3479  0.2558  0.4684
  131OSM   H14A13993   4.051   0.965   2.229  0.3927  0.1023 -0.4596
  131OSM   H14B13994   3.938   1.073   2.310 -0.8187  0.4224  0.0628
  131OSM   H14C13995   3.998   1.101   2.142  1.1194 -1.2483 -0.7136
  131OSM    C1313996   3.722   1.036   2.176 -0.0564  0.4889  0.0223
  131OSM   H13A13997   3.636   0.996   2.126  0.7295  1.0773 -1.9071
  131OSM   H13B13998   3.748   1.126   2.122  2.8357 -0.5508 -0.5056
  131OSM   H13C13999   3.696   1.063   2.277 -1.8873 -1.3433  0.1057
  131OSM    C1214000   3.834   0.821   2.239 -0.3289  0.6518  0.4598
  131OSM   H12A14001   3.738   0.778   2.215  0.0454 -0.3053  0.6150
  131OSM   H12B14002   3.831   0.841   2.346 -1.9550 -1.8596  0.9824
  131OSM    C1114003   3.927   0.700   2.225  0.3654  0.7982 -0.1624
  131OSM   H11A14004   3.956   0.684   2.119 -0.2424 -0.3700 -0.1771
  131OSM   H11B14005   3.866   0.619   2.270  0.4222  0.7175 -0.2303
  131OSM      P14006   4.177   0.646   2.272 -0.0958 -0.3802  0.3486
  131OSM    O1314007   4.156   0.521   2.194  0.5010 -0.1500  0.5110
  131OSM    O1414008   4.267   0.749   2.211  0.2453 -0.1094  0.1723
  131OSM    O1114009   4.232   0.603   2.414 -0.4316 -0.3162  1.2190
  131OSM    O1214010   4.043   0.718   2.299 -0.7221 -0.2097  0.1675
  131OSM    C1S14011   4.165   0.667   2.529 -0.2123 -0.1628 -0.3195
  131OSM    H1S14012   4.056   0.645   2.533 -0.0072 -1.2460  3.6416
  131OSM    H1T14013   4.165   0.778   2.524  0.1896 -0.1213  0.5025
  131OSM     NF14014   4.131   0.665   2.780  0.2961 -0.5603  0.7116
  131OSM    HNF14015   4.176   0.730   2.840  0.7069 -1.0958  0.9910
  131OSM    C2S14016   4.215   0.615   2.668 -0.3520  0.2018  0.3741
  131OSM    H2S14017   4.197   0.505   2.673 -2.3547  0.5414  2.2053
  131OSM    C3S14018   4.369   0.639   2.692  0.0807 -0.1956  0.4141
  131OSM    H3S14019   4.363   0.748   2.708  0.6406 -0.2290  0.8605
  131OSM     O314020   4.445   0.626   2.569  0.1731 -0.4081 -0.9434
  131OSM    HO314021   4.380   0.627   2.499 -0.2965  1.2858 -0.5168
  131OSM    C4S14022   4.434   0.575   2.807  0.8174  0.4400  0.2019
  131OSM    H4S14023   4.434   0.645   2.892 -0.0023  0.9352 -0.1870
  131OSM    C5S14024   4.511   0.466   2.814 -0.2730 -0.6690 -0.1551
  131OSM    H5S14025   4.529   0.408   2.722 -1.1035 -1.4723  0.1757
  131OSM    C6S14026   4.572   0.422   2.943 -0.2841 -0.0851  0.0297
  131OSM    H6S14027   4.504   0.459   3.023  0.9847 -0.3577  1.2837
  131OSM    H6T14028   4.671   0.470   2.956 -0.3378  1.3966 -3.9279
  131OSM    C7S14029   4.586   0.272   2.979 -0.0393  0.8501  0.1159
  131OSM    H7S14030   4.633   0.218   2.894 -2.0650 -0.9801  0.0803
  131OSM    H7T14031   4.481   0.237   2.987  0.3374 -0.1622  0.6607
  131OSM    C8S14032   4.644   0.239   3.118  1.0697 -0.0235 -0.7188
  131OSM    H8S14033   4.755   0.246   3.122  1.0432  0.3866 -0.6121
  131OSM    H8T14034   4.630   0.133   3.146  2.1547  0.0020  0.0074
  131OSM    C9S14035   4.600   0.336   3.233  0.1400 -0.2807 -0.0764
  131OSM    H9S14036   4.490   0.341   3.243  0.0472 -0.0771 -1.1462
  131OSM    H9T14037   4.634   0.432   3.190  0.1841  0.6436  1.9234
  131OSM   C10S14038   4.674   0.308   3.363  0.1122 -0.0171 -0.4860
  131OSM   H10S14039   4.780   0.338   3.353 -0.1587  2.0091  1.8388
  131OSM   H10T14040   4.678   0.199   3.383  0.2704 -0.4193 -2.4963
  131OSM   C11S14041   4.610   0.387   3.490  0.3052 -0.7695  0.6571
  131OSM   H11S14042   4.510   0.348   3.515 -0.6248 -0.9089 -2.7454
  131OSM   H11T14043   4.588   0.492   3.460 -0.6195 -0.9882  0.5613
  131OSM   C12S14044   4.686   0.374   3.619 -0.1915 -0.0251 -0.5269
  131OSM   H12S14045   4.791   0.408   3.603  0.1447 -1.0675 -0.6234
  131OSM   H12T14046   4.685   0.263   3.628  0.2228 -0.1047 -1.3465
  131OSM   C13S14047   4.636   0.439   3.752 -0.1435  0.0147  0.5151
  131OSM   H13S14048   4.540   0.391   3.781  0.4276  0.8943  4.3683
  131OSM   H13T14049   4.630   0.550   3.751  2.7138  0.2657  1.2546
  131OSM   C14S14050   4.729   0.409   3.869 -0.0023  0.7640  0.1761
  131OSM   H14S14051   4.838   0.406   3.848  0.2911  1.3549  1.4791
  131OSM   H14T14052   4.697   0.308   3.904 -2.6111  0.9477 -1.4515
  131OSM   C15S14053   4.706   0.498   3.989  0.2536  0.8691 -0.1734
  131OSM   H15S14054   4.598   0.492   4.015  0.5028  1.9092  1.1718
  131OSM   H15T14055   4.727   0.605   3.972 -1.6138  1.6758  2.1400
  131OSM   C16S14056   4.781   0.461   4.115 -0.7956 -0.0822 -0.0354
  131OSM   H16S14057   4.770   0.550   4.180 -0.0083 -0.8303  1.1514
  131OSM   H16T14058   4.885   0.426   4.099 -0.7308  0.4723 -0.8836
  131OSM   C17S14059   4.708   0.355   4.193  0.6886  0.4384 -0.0223
  131OSM   H17S14060   4.600   0.372   4.175 -0.0515 -0.9975  2.5594
  131OSM   H17T14061   4.735   0.374   4.300 -5.3878  0.4889  1.8543
  131OSM   C18S14062   4.763   0.210   4.167 -0.2550 -0.7571  0.0568
  131OSM   H18S14063   4.696   0.141   4.222  1.1280 -0.9462  1.5767
  131OSM   H18T14064   4.864   0.196   4.210  1.2804 -0.6237 -3.2373
  131OSM   H18U14065   4.772   0.184   4.059 -3.0238  0.0726 -0.4451
  131OSM    C1F14066   4.004   0.623   2.797 -0.7044 -1.1469 -0.3249
  131OSM     OF14067   3.959   0.537   2.726 -0.6801  0.0854  0.4707
  131OSM    C2F14068   3.945   0.677   2.922 -0.3794 -0.5639 -0.2852
  131OSM    H2F14069   3.911   0.777   2.889  1.0069  0.3854  1.0314
  131OSM    H2G14070   4.020   0.685   3.004  1.5448 -2.6516 -1.7230
  131OSM    C3F14071   3.830   0.581   2.967 -0.6177  0.5727  0.1168
  131OSM    H3F14072   3.875   0.480   2.981  0.0319  1.1002  2.0733
  131OSM    H3G14073   3.749   0.581   2.891 -0.2272 -0.9495 -0.3282
  131OSM    C4F14074   3.776   0.624   3.102  0.2381 -1.2170  0.5021
  131OSM    H4F14075   3.671   0.588   3.108 -0.0709 -0.4653 -0.1436
  131OSM    H4G14076   3.773   0.735   3.096 -0.4073 -1.2400  0.3021
  131OSM    C5F14077   3.853   0.577   3.224  0.2960 -0.0679 -0.6155
  131OSM    H5F14078   3.956   0.617   3.219  0.5907 -0.4484  1.5909
  131OSM    H5G14079   3.867   0.467   3.208  1.8312 -0.0138  0.1613
  131OSM    C6F14080   3.797   0.625   3.355 -0.5461 -0.5145 -0.2703
  131OSM    H6F14081   3.804   0.736   3.357 -2.2319 -0.3688 -0.5863
  131OSM    H6G14082   3.859   0.590   3.440 -1.8875 -0.9706  0.5433
  131OSM    C7F14083   3.646   0.593   3.384 -0.4696  0.0983 -0.4538
  131OSM    H7F14084   3.638   0.482   3.385 -1.5588  0.1635 -1.1477
  131OSM    H7G14085   3.574   0.624   3.306 -0.1192  2.1097 -0.0280
  131OSM    C8F14086   3.600   0.659   3.516  0.4418  0.2582 -0.1438
  131OSM    H8F14087   3.675   0.624   3.590  1.0010  1.9823  0.1569
  131OSM    H8G14088   3.496   0.627   3.537  0.4873  0.8073  0.9923
  131OSM    C9F14089   3.594   0.801   3.525  0.7449 -0.2336 -0.1617
  131OSM    H9F14090   3.614   0.843   3.425  2.5556 -0.2033  0.1736
  131OSM   C10F14091   3.576   0.874   3.637  0.6208  0.5443  0.2677
  131OSM   H10F14092   3.587   0.984   3.638  1.5175  0.4577  1.1995
  131OSM   C11F14093   3.556   0.818   3.773  0.4140 -0.1803 -0.4504
  131OSM   H11F14094   3.560   0.707   3.772 -2.6265 -0.4062 -1.7063
  131OSM   H11G14095   3.459   0.827   3.827  1.7905 -0.6773  2.2240
  131OSM   C12F14096   3.666   0.873   3.865  0.0206  0.4368 -0.1695
  131OSM   H12F14097   3.683   0.981   3.842 -1.1698  0.7541  0.3282
  131OSM   H12G14098   3.756   0.815   3.834 -1.4513 -2.5259  0.7413
  131OSM   C13F14099   3.638   0.851   4.017 -0.6891  0.3054 -0.0036
  131OSM   H13F14100   3.727   0.848   4.084 -1.7543  0.9330  1.5047
  131OSM   H13G14101   3.604   0.746   4.024 -1.2653  0.5818  2.2906
  131OSM   C14F14102   3.529   0.937   4.086  0.1694  0.0147  0.2588
  131OSM   H14F14103   3.425   0.909   4.056 -0.5929  0.9195  1.8704
  131OSM   H14G14104   3.542   1.040   4.049  0.4903 -0.2195 -0.2970
  131OSM   C15F14105   3.553   0.933   4.232 -0.0700  0.3743 -0.1594
  131OSM   H15F14106   3.478   1.003   4.275  0.4505 -0.4181  2.1372
  131OSM   H15G14107   3.655   0.965   4.263  0.0313  0.0882 -0.2000
  131OSM   C16F14108   3.521   0.792   4.289  0.2710 -0.0374  0.2324
  131OSM   H16F14109   3.599   0.720   4.255  2.7276  2.4200  0.3037
  131OSM   H16G14110   3.418   0.763   4.261 -1.2945  3.9453  1.2416
  131OSM   C17F14111   3.512   0.790   4.442  0.0576  0.1975  0.8438
  131OSM   H17F14112   3.486   0.687   4.474 -1.1223 -0.9038 -3.1723
  131OSM   H17G14113   3.431   0.860   4.475 -0.4066  0.8288 -1.4653
  131OSM   C18F14114   3.647   0.815   4.499  0.1936  0.2512 -0.5892
  131OSM   H18F14115   3.674   0.919   4.472 -1.9877  1.0645  0.1080
  131OSM   H18G14116   3.723   0.752   4.449  0.2580 -1.4084  1.4642
  131OSM   H18H14117   3.656   0.806   4.610  1.0002 -0.2389 -0.6903
  132OSM      N14118   2.009   6.692   2.358  0.0831 -0.0424 -1.0217
  132OSM    C1514119   1.896   6.592   2.372 -0.2744  0.5147  0.0151
  132OSM   H15A14120   1.878   6.547   2.275  0.6720  0.0994  0.0188
  132OSM   H15B14121   1.808   6.639   2.411 -1.5016 -1.5141 -0.1702
  132OSM   H15C14122   1.936   6.511   2.432  0.4739 -0.5318 -1.8056
  132OSM    C1414123   2.134   6.649   2.288 -0.2697  0.6182  0.6901
  132OSM   H14A14124   2.179   6.567   2.341 -1.5374  1.6292  3.5320
  132OSM   H14B14125   2.202   6.733   2.276 -0.6539  0.7197 -1.1514
  132OSM   H14C14126   2.119   6.621   2.184  0.8477 -4.1993  1.5899
  132OSM    C1314127   1.951   6.808   2.284 -0.8004 -0.0306  0.3523
  132OSM   H13A14128   1.860   6.841   2.332 -1.5358 -2.4821  0.7622
  132OSM   H13B14129   1.923   6.786   2.182  1.2778 -0.6658 -0.1380
  132OSM   H13C14130   2.016   6.894   2.277 -3.2133  1.8602 -0.3625
  132OSM    C1214131   2.056   6.739   2.501  0.1309  0.6063 -0.1546
  132OSM   H12A14132   2.090   6.655   2.559 -0.7256  0.8160  0.6723
  132OSM   H12B14133   1.966   6.777   2.548  0.1754 -0.2762  0.6654
  132OSM    C1114134   2.152   6.854   2.504 -0.0898 -0.5327 -0.1820
  132OSM   H11A14135   2.194   6.875   2.604  0.8217 -1.2653 -0.3904
  132OSM   H11B14136   2.090   6.943   2.482  0.7156  0.1049  0.0821
  132OSM      P14137   2.352   6.960   2.357 -0.0490  0.1645 -0.4007
  132OSM    O1314138   2.391   6.921   2.216  0.4889 -0.3201 -0.6673
  132OSM    O1414139   2.283   7.087   2.379 -0.4104  0.0152 -0.1065
  132OSM    O1114140   2.487   6.965   2.444  0.1328  0.4472 -0.1558
  132OSM    O1214141   2.272   6.846   2.417 -0.2598 -0.3508  0.2422
  132OSM    C1S14142   2.460   6.987   2.583  0.1237 -0.1065 -0.1135
  132OSM    H1S14143   2.419   6.899   2.637 -2.0975  0.1961 -1.1829
  132OSM    H1T14144   2.391   7.069   2.612  1.4707  0.2541  2.4484
  132OSM     NF14145   2.561   7.079   2.789  0.0889 -0.2558 -0.0022
  132OSM    HNF14146   2.533   7.172   2.810 -0.0070 -0.6583  1.8130
  132OSM    C2S14147   2.591   7.042   2.650  0.1176 -1.2429  0.0210
  132OSM    H2S14148   2.666   6.960   2.650 -0.2531 -1.6812  2.6560
  132OSM    C3S14149   2.665   7.153   2.559  0.2897  0.5341 -0.4561
  132OSM    H3S14150   2.593   7.233   2.532  0.0228  0.6527  0.5901
  132OSM     O314151   2.728   7.098   2.446 -0.1399  0.1131 -0.0047
  132OSM    HO314152   2.663   7.030   2.427  0.8616 -1.6164  2.2860
  132OSM    C4S14153   2.773   7.207   2.643  0.5585 -0.3344  0.0403
  132OSM    H4S14154   2.863   7.144   2.648  2.7026  2.4969  0.0305
  132OSM    C5S14155   2.786   7.331   2.700 -0.8416 -0.5337  0.5623
  132OSM    H5S14156   2.712   7.411   2.683  0.6172  1.0829  1.4699
  132OSM    C6S14157   2.913   7.362   2.777 -0.3994  0.1404  0.2613
  132OSM    H6S14158   2.951   7.458   2.738 -1.4455 -0.0491 -1.3230
  132OSM    H6T14159   2.996   7.289   2.764 -0.4439 -0.0205  0.8623
  132OSM    C7S14160   2.882   7.353   2.926  0.0683  0.2317 -0.6191
  132OSM    H7S14161   2.980   7.357   2.978  1.4036  0.4193 -3.0200
  132OSM    H7T14162   2.836   7.255   2.951 -0.3217  0.6212  0.2547
  132OSM    C8S14163   2.791   7.464   2.985  0.1372  0.3021  0.0956
  132OSM    H8S14164   2.697   7.471   2.927  0.2527  0.1864 -0.1073
  132OSM    H8T14165   2.834   7.566   2.988  1.2603 -0.1630  1.0896
  132OSM    C9S14166   2.754   7.433   3.131 -0.5275  0.6446 -0.6660
  132OSM    H9S14167   2.821   7.471   3.212 -3.6081  1.2506  1.8235
  132OSM    H9T14168   2.756   7.323   3.147 -0.2667  0.6467 -0.6756
  132OSM   C10S14169   2.616   7.483   3.180 -0.1585 -0.4904 -0.2041
  132OSM   H10S14170   2.546   7.415   3.128 -1.7128 -0.8254  2.1917
  132OSM   H10T14171   2.607   7.590   3.150 -0.8580 -0.0136  1.5944
  132OSM   C11S14172   2.597   7.464   3.330  0.1106 -1.1891  0.1577
  132OSM   H11S14173   2.500   7.498   3.372 -0.2185 -0.5831 -1.0655
  132OSM   H11T14174   2.682   7.513   3.381 -0.4060 -0.8904  0.7473
  132OSM   C12S14175   2.607   7.311   3.368 -0.5672 -0.2635  0.3145
  132OSM   H12S14176   2.710   7.270   3.357 -0.7740 -1.0934  1.3235
  132OSM   H12T14177   2.554   7.253   3.290  1.3482 -0.7371 -0.6969
  132OSM   C13S14178   2.576   7.274   3.514 -0.7954 -0.0988 -0.0426
  132OSM   H13S14179   2.553   7.166   3.523 -3.8731  0.6250  2.7174
  132OSM   H13T14180   2.478   7.318   3.543 -1.8120 -2.0894 -0.3253
  132OSM   C14S14181   2.693   7.328   3.596  1.0416  0.4234 -1.0389
  132OSM   H14S14182   2.717   7.433   3.566  0.5141  0.6821 -0.5844
  132OSM   H14T14183   2.781   7.268   3.565  2.2020  0.9938  0.8864
  132OSM   C15S14184   2.650   7.329   3.747  0.0341  0.5856 -0.0704
  132OSM   H15S14185   2.635   7.221   3.766  0.5800  0.2541 -1.4077
  132OSM   H15T14186   2.557   7.386   3.766  0.0445  0.5264  0.1523
  132OSM   C16S14187   2.762   7.378   3.847 -0.3347  0.0285  0.4226
  132OSM   H16S14188   2.794   7.483   3.828  0.9937 -0.1266  1.6927
  132OSM   H16T14189   2.852   7.316   3.833 -0.2658  0.1323  0.4024
  132OSM   C17S14190   2.721   7.378   3.992 -0.0189 -0.5089 -0.2543
  132OSM   H17S14191   2.808   7.414   4.051 -0.0693  0.7118 -0.9112
  132OSM   H17T14192   2.708   7.272   4.025  1.0975 -1.3728 -2.3980
  132OSM   C18S14193   2.586   7.446   4.028 -0.4957  0.1693 -0.5951
  132OSM   H18S14194   2.505   7.373   4.048  0.5874 -0.8377  0.2671
  132OSM   H18T14195   2.558   7.530   3.961 -1.2455  2.6184  2.5395
  132OSM   H18U14196   2.605   7.501   4.122  0.1342  0.1618 -0.7112
  132OSM    C1F14197   2.527   6.995   2.886  0.3172  0.1233  0.2097
  132OSM     OF14198   2.540   6.871   2.864 -0.2090  0.2728 -0.0699
  132OSM    C2F14199   2.458   7.048   3.019 -0.1797 -0.4096  1.2184
  132OSM    H2F14200   2.352   7.063   2.987 -0.9522  0.2109  3.8098
  132OSM    H2G14201   2.494   7.149   3.050 -0.7483 -0.1632  1.1059
  132OSM    C3F14202   2.486   6.961   3.138 -0.4158  0.4250  0.2131
  132OSM    H3F14203   2.593   6.974   3.166 -0.6864  2.1446  0.5417
  132OSM    H3G14204   2.464   6.858   3.103 -0.9809  0.7372 -0.3851
  132OSM    C4F14205   2.397   6.983   3.264 -0.2486 -0.2339  0.1418
  132OSM    H4F14206   2.291   6.961   3.243 -0.8456  1.6221  0.9359
  132OSM    H4G14207   2.405   7.092   3.288 -0.5720  0.7406 -3.6365
  132OSM    C5F14208   2.436   6.904   3.386  0.1799  0.2969  0.1900
  132OSM    H5F14209   2.542   6.929   3.407 -0.5639  2.5794  1.4875
  132OSM    H5G14210   2.432   6.795   3.362  0.4160  0.3332 -0.0178
  132OSM    C6F14211   2.353   6.944   3.510 -0.3409 -0.0598 -0.4856
  132OSM    H6F14212   2.246   6.938   3.482  0.3180 -2.0634 -2.9229
  132OSM    H6G14213   2.382   7.050   3.530  1.7751 -0.4866 -1.0514
  132OSM    C7F14214   2.373   6.846   3.625 -0.5151  0.0215 -0.0635
  132OSM    H7F14215   2.479   6.823   3.646 -0.8050 -2.9121 -1.3414
  132OSM    H7G14216   2.348   6.741   3.597 -1.0571 -0.1322  0.9480
  132OSM    C8F14217   2.317   6.888   3.762  0.4969  0.5089  0.3077
  132OSM    H8F14218   2.320   6.805   3.836 -0.3322  0.6406  0.4994
  132OSM    H8G14219   2.209   6.898   3.741  0.4678 -2.7358 -1.8784
  132OSM    C9F14220   2.370   7.019   3.805  0.0320 -0.4766 -0.0114
  132OSM    H9F14221   2.338   7.110   3.752  2.6728  1.6329  1.7379
  132OSM   C10F14222   2.441   7.046   3.917  0.7147 -0.3439  0.3408
  132OSM   H10F14223   2.467   7.152   3.930  1.5204 -0.3073 -1.2512
  132OSM   C11F14224   2.513   6.954   4.011 -0.0990  0.5783 -0.2001
  132OSM   H11F14225   2.621   6.979   4.008 -0.1010  0.8011  1.0982
  132OSM   H11G14226   2.505   6.846   3.987  1.8086  0.0739  1.1784
  132OSM   C12F14227   2.464   6.968   4.158  0.2796  0.8485 -0.2089
  132OSM   H12F14228   2.495   6.879   4.217 -0.1139 -1.7383 -3.5995
  132OSM   H12G14229   2.353   6.966   4.158  0.2154  2.5336 -0.4539
  132OSM   C13F14230   2.510   7.102   4.215 -0.8724  0.8021  0.2923
  132OSM   H13F14231   2.458   7.194   4.181 -2.5153  0.4440  1.6913
  132OSM   H13G14232   2.620   7.110   4.203 -0.4097 -1.1331  2.5411
  132OSM   C14F14233   2.496   7.100   4.365 -0.1094 -0.1809  0.3173
  132OSM   H14F14234   2.567   7.027   4.409 -0.8813 -0.8002  0.5515
  132OSM   H14G14235   2.394   7.076   4.401  0.3165 -0.0099  1.7155
  132OSM   C15F14236   2.521   7.239   4.430 -0.0623 -0.1093  1.2227
  132OSM   H15F14237   2.436   7.310   4.418 -1.5098 -1.9885 -0.2918
  132OSM   H15G14238   2.603   7.290   4.376 -1.6779  0.6591 -0.6412
  132OSM   C16F14239   2.558   7.233   4.581 -0.2015  0.2793  0.8715
  132OSM   H16F14240   2.610   7.328   4.605  0.5074 -0.0962  0.8568
  132OSM   H16G14241   2.638   7.156   4.589  0.4721  0.6850 -1.1759
  132OSM   C17F14242   2.440   7.202   4.674  0.5213  0.8662  0.3045
  132OSM   H17F14243   2.349   7.233   4.618 -0.5214  1.3727  2.2261
  132OSM   H17G14244   2.453   7.251   4.772 -1.1443  0.2457  0.8770
  132OSM   C18F14245   2.437   7.050   4.694  0.3779 -0.5269 -0.2223
  132OSM   H18F14246   2.537   7.015   4.724 -1.0098 -3.7247  1.1086
  132OSM   H18G14247   2.415   6.987   4.605  2.1576 -0.9448 -0.3991
  132OSM   H18H14248   2.363   7.014   4.769  0.8735 -2.8385 -0.7674
  133OSM      N14249   1.765   5.735   2.298  0.0489  0.2624  1.1707
  133OSM    C1514250   1.740   5.607   2.220  0.5273 -0.3219  0.7731
  133OSM   H15A14251   1.804   5.601   2.134  0.0691 -0.0246  0.4030
  133OSM   H15B14252   1.639   5.605   2.181  0.6290 -2.0820  0.5134
  133OSM   H15C14253   1.767   5.514   2.268 -0.4597 -0.3575  1.3106
  133OSM    C1414254   1.915   5.734   2.332  0.2455 -0.3882  0.0583
  133OSM   H14A14255   1.932   5.817   2.399 -0.5050  0.4410 -0.7351
  133OSM   H14B14256   1.979   5.722   2.246  1.5515 -0.7286  1.0462
  133OSM   H14C14257   1.940   5.648   2.392 -0.4350 -1.4277 -1.0871
  133OSM    C1314258   1.736   5.849   2.214  0.2101 -0.2970 -0.3047
  133OSM   H13A14259   1.727   5.934   2.280  0.4293 -0.4157 -0.1234
  133OSM   H13B14260   1.641   5.839   2.164  0.0520  2.4466 -0.7129
  133OSM   H13C14261   1.809   5.869   2.136 -0.8695  1.8176 -0.8637
  133OSM    C1214262   1.680   5.720   2.422  0.6733  0.0444  0.5285
  133OSM   H12A14263   1.697   5.794   2.499  1.4469  1.8288 -1.2609
  133OSM   H12B14264   1.703   5.622   2.462 -0.3063 -0.9697 -1.2734
  133OSM    C1114265   1.528   5.738   2.395 -0.0683 -1.3325  0.2530
  133OSM   H11A14266   1.517   5.840   2.354 -1.0212 -2.2683 -1.9441
  133OSM   H11B14267   1.479   5.724   2.494 -1.3366  0.0323 -0.1493
  133OSM      P14268   1.331   5.664   2.241  0.1297  0.1547 -0.0794
  133OSM    O1314269   1.312   5.795   2.176  0.2293 -0.2241 -0.0330
  133OSM    O1414270   1.300   5.551   2.157  0.3183 -0.0630 -0.4010
  133OSM    O1114271   1.244   5.651   2.375  0.3817 -0.2245 -0.1203
  133OSM    O1214272   1.478   5.642   2.305 -0.1238 -0.5109  0.6812
  133OSM    C1S14273   1.228   5.544   2.460  1.0102 -0.3980  0.2464
  133OSM    H1S14274   1.306   5.467   2.442 -1.1286 -2.3463 -1.0893
  133OSM    H1T14275   1.130   5.496   2.443  0.9857 -1.3826  2.8112
  133OSM     NF14276   1.154   5.493   2.690  0.2522  0.3543  0.2474
  133OSM    HNF14277   1.063   5.523   2.720  0.2143  1.6413 -1.0489
  133OSM    C2S14278   1.228   5.589   2.612  0.2843  0.1300 -0.2613
  133OSM    H2S14279   1.334   5.580   2.644 -0.4630  0.7728  2.7172
  133OSM    C3S14280   1.177   5.737   2.628 -0.3045 -0.0367  0.1895
  133OSM    H3S14281   1.076   5.744   2.583  0.5565 -0.4226 -1.8868
  133OSM     O314282   1.255   5.832   2.555  0.0605 -0.4044 -0.7608
  133OSM    HO314283   1.274   5.779   2.478 -2.4889  1.1293 -2.5954
  133OSM    C4S14284   1.182   5.771   2.777  0.1292  0.0601  0.0280
  133OSM    H4S14285   1.085   5.793   2.824 -0.2028 -1.1302 -0.0823
  133OSM    C5S14286   1.290   5.788   2.851  0.1063 -0.0321 -0.1174
  133OSM    H5S14287   1.392   5.768   2.816  0.3755 -0.0938  0.6740
  133OSM    C6S14288   1.292   5.818   2.999  0.2436 -0.2381 -0.0043
  133OSM    H6S14289   1.355   5.908   3.012  1.3963 -0.9387 -0.5891
  133OSM    H6T14290   1.344   5.739   3.058 -0.0738 -0.6504 -0.2675
  133OSM    C7S14291   1.156   5.851   3.076 -0.1104 -0.8991 -0.4947
  133OSM    H7S14292   1.078   5.776   3.052 -0.2918 -0.6071 -0.8404
  133OSM    H7T14293   1.106   5.941   3.034 -1.8458 -2.2593 -1.4650
  133OSM    C8S14294   1.165   5.868   3.228  0.2935 -0.1374 -0.4329
  133OSM    H8S14295   1.223   5.784   3.271  1.5546  0.5921 -0.6576
  133OSM    H8T14296   1.060   5.862   3.262  0.2296  2.7498  0.1720
  133OSM    C9S14297   1.235   6.005   3.261  0.8263  0.1652  0.1649
  133OSM    H9S14298   1.195   6.087   3.197 -1.0755  0.7515  1.9776
  133OSM    H9T14299   1.344   5.995   3.248  0.5978 -0.1796 -1.7638
  133OSM   C10S14300   1.222   6.047   3.406 -0.3316 -0.8093  0.5701
  133OSM   H10S14301   1.112   6.040   3.421  0.0582 -1.5853  3.8296
  133OSM   H10T14302   1.250   6.153   3.422 -1.0042 -0.3558 -1.0252
  133OSM   C11S14303   1.282   5.952   3.512  0.0647  0.9482  0.1338
  133OSM   H11S14304   1.391   5.940   3.498 -0.0129 -1.9816  1.3330
  133OSM   H11T14305   1.234   5.852   3.502  0.3235  0.8848 -0.5221
  133OSM   C12S14306   1.268   5.995   3.657 -0.2524 -0.6509  0.1955
  133OSM   H12S14307   1.162   6.014   3.683  0.0961  0.6079  0.7975
  133OSM   H12T14308   1.328   6.087   3.676 -1.7986  0.0866  1.8357
  133OSM   C13S14309   1.319   5.899   3.766  0.0444 -0.3559  0.0316
  133OSM   H13S14310   1.427   5.889   3.741  0.0392 -1.4239  0.3954
  133OSM   H13T14311   1.265   5.805   3.742 -0.9439  0.0308  0.6813
  133OSM   C14S14312   1.285   5.940   3.911  0.3871 -0.9151  0.0238
  133OSM   H14S14313   1.294   5.850   3.976 -0.6780 -1.5871 -0.7263
  133OSM   H14T14314   1.179   5.975   3.914 -0.0051 -2.0962  0.4351
  133OSM   C15S14315   1.377   6.055   3.971 -0.0981  0.4765 -0.1585
  133OSM   H15S14316   1.367   6.147   3.910 -0.7539  0.3521 -0.2473
  133OSM   H15T14317   1.483   6.025   3.955  0.4560  2.6711 -0.9283
  133OSM   C16S14318   1.351   6.085   4.116  0.6080  0.3236 -0.3101
  133OSM   H16S14319   1.339   5.991   4.175 -1.8294  0.7834  0.0592
  133OSM   H16T14320   1.254   6.138   4.121 -0.6611 -1.7631 -1.2745
  133OSM   C17S14321   1.455   6.162   4.202 -0.4851  0.0991  0.0006
  133OSM   H17S14322   1.424   6.140   4.307 -1.6637 -1.0196 -0.5526
  133OSM   H17T14323   1.438   6.271   4.188 -0.4869 -0.2001 -2.7031
  133OSM   C18S14324   1.600   6.100   4.185  0.1503  0.4490 -0.4277
  133OSM   H18S14325   1.632   6.125   4.082 -0.7269  1.5350 -0.4656
  133OSM   H18T14326   1.597   5.990   4.190  0.3014  0.3984 -1.3157
  133OSM   H18U14327   1.673   6.143   4.257 -2.5574  1.1576  2.0990
  133OSM    C1F14328   1.195   5.367   2.707  0.3630  0.2378  0.5125
  133OSM     OF14329   1.303   5.338   2.671 -0.5118 -0.1442  0.1815
  133OSM    C2F14330   1.098   5.269   2.760  0.0596  0.4097 -0.1963
  133OSM    H2F14331   1.005   5.278   2.700 -0.2587 -1.7355 -0.1235
  133OSM    H2G14332   1.083   5.288   2.868  2.0078 -1.7711  0.5566
  133OSM    C3F14333   1.148   5.117   2.749 -0.2210 -1.0068 -0.3439
  133OSM    H3F14334   1.250   5.100   2.789  0.9118 -1.0867 -3.0649
  133OSM    H3G14335   1.154   5.106   2.639 -0.8721  0.5983 -0.5671
  133OSM    C4F14336   1.059   5.003   2.800 -0.3657 -0.1031  0.1854
  133OSM    H4F14337   1.122   4.911   2.797  1.4975  1.0424  1.7282
  133OSM    H4G14338   0.974   4.992   2.729  0.5691 -0.5092 -0.9116
  133OSM    C5F14339   1.012   5.030   2.940 -0.7123 -0.4282 -0.0930
  133OSM    H5F14340   0.938   5.113   2.948  0.3354  0.5654 -0.3975
  133OSM    H5G14341   1.103   5.061   2.996  0.2450 -0.9679 -1.2990
  133OSM    C6F14342   0.941   4.903   3.003 -0.2761 -0.1282  0.0819
  133OSM    H6F14343   0.863   4.866   2.934  1.6684 -2.0972 -1.1980
  133OSM    H6G14344   0.900   4.946   3.097 -0.1946 -0.9032  0.4745
  133OSM    C7F14345   1.049   4.807   3.043 -0.6251 -0.4460  0.5443
  133OSM    H7F14346   1.147   4.854   3.068  1.2537 -3.6911 -0.0626
  133OSM    H7G14347   1.066   4.723   2.972 -0.9687 -0.5670  0.6034
  133OSM    C8F14348   1.006   4.747   3.180 -0.2883  0.0646  0.0953
  133OSM    H8F14349   0.911   4.691   3.162  0.2843 -0.7904 -0.3362
  133OSM    H8G14350   0.979   4.819   3.261 -1.8329 -1.8125  1.3342
  133OSM    C9F14351   1.114   4.663   3.238  0.1372  0.0180 -0.3867
  133OSM    H9F14352   1.163   4.593   3.169  0.2385 -2.1005  1.6791
  133OSM   C10F14353   1.172   4.676   3.363  0.4556  0.0535 -0.0247
  133OSM   H10F14354   1.252   4.605   3.388  1.7095  1.1735 -0.7112
  133OSM   C11F14355   1.129   4.777   3.466  0.1838  0.0463 -0.2264
  133OSM   H11F14356   1.019   4.787   3.459  0.0371 -1.3997 -0.1833
  133OSM   H11G14357   1.169   4.880   3.451  1.3380  0.0751  2.3775
  133OSM   C12F14358   1.144   4.738   3.615  0.3699  0.5998 -0.4728
  133OSM   H12F14359   1.116   4.829   3.672  1.7218  1.5916 -1.3353
  133OSM   H12G14360   1.252   4.723   3.636 -0.4440 -1.5387  3.1100
  133OSM   C13F14361   1.066   4.611   3.647  0.3244  0.5363 -0.4679
  133OSM   H13F14362   1.128   4.527   3.610 -0.7538  0.2248 -1.5974
  133OSM   H13G14363   0.972   4.607   3.588  2.0218 -0.5233 -3.2839
  133OSM   C14F14364   1.064   4.574   3.801 -0.1105  0.8948  0.2556
  133OSM   H14F14365   1.023   4.472   3.813 -0.3267  0.9904  0.3380
  133OSM   H14G14366   0.994   4.647   3.847 -1.0523 -0.6462  1.3556
  133OSM   C15F14367   1.202   4.574   3.874 -0.3289 -0.0808 -0.4072
  133OSM   H15F14368   1.245   4.676   3.872 -0.4424  0.1060  2.4143
  133OSM   H15G14369   1.272   4.510   3.815 -1.4601  0.2218 -2.1702
  133OSM   C16F14370   1.181   4.527   4.016 -0.8360  0.3405 -0.2043
  133OSM   H16F14371   1.282   4.513   4.060 -0.5282 -1.2956 -1.3698
  133OSM   H16G14372   1.138   4.425   4.023 -0.7961  0.4289  4.1154
  133OSM   C17F14373   1.102   4.630   4.102  0.2279 -0.0467 -0.3712
  133OSM   H17F14374   0.995   4.626   4.072 -0.1739  0.2216  0.9584
  133OSM   H17G14375   1.141   4.734   4.099 -0.8006  0.3535 -0.4683
  133OSM   C18F14376   1.101   4.579   4.247 -0.7364  0.4461 -0.1454
  133OSM   H18F14377   1.110   4.469   4.245  0.9485  0.5619 -0.1821
  133OSM   H18G14378   1.018   4.613   4.313 -0.2121 -1.0667  1.3523
  133OSM   H18H14379   1.194   4.606   4.301 -0.2432 -0.5593 -0.4706
  134OSM      N14380   0.504   0.065   2.444 -0.0456  0.3287  0.2271
  134OSM    C1514381   0.491   0.210   2.488 -1.2619  1.2525  0.0240
  134OSM   H15A14382   0.535   0.226   2.585  1.1889 -0.5203 -0.7086
  134OSM   H15B14383   0.387   0.238   2.500 -1.3016  0.6470  1.3510
  134OSM   H15C14384   0.542   0.268   2.413  1.4987  0.9421  1.5210
  134OSM    C1414385   0.461  -0.017   2.559 -0.2545  0.1982 -0.4871
  134OSM   H14A14386   0.461  -0.122   2.535  0.6855  0.4866 -1.8555
  134OSM   H14B14387   0.356  -0.008   2.584  0.0779 -1.3513  1.7661
  134OSM   H14C14388   0.525   0.003   2.644 -1.2185  0.3610  0.2331
  134OSM    C1314389   0.404   0.047   2.336  0.0352  0.2982  0.0413
  134OSM   H13A14390   0.421   0.109   2.249  1.4147 -0.2113 -0.0824
  134OSM   H13B14391   0.309   0.076   2.378 -0.2777  0.1420 -0.5500
  134OSM   H13C14392   0.400  -0.055   2.299 -0.5692  0.6595 -0.9170
  134OSM    C1214393   0.646   0.024   2.396  0.0180  0.3943  0.0416
  134OSM   H12A14394   0.669   0.092   2.315  1.6998  0.2639  0.3673
  134OSM   H12B14395   0.650  -0.075   2.354 -1.7099  0.2335  0.2026
  134OSM    C1114396   0.759   0.032   2.504 -0.2828  0.3692  0.4290
  134OSM   H11A14397   0.857   0.003   2.458 -0.5832  0.3491 -0.2152
  134OSM   H11B14398   0.753  -0.052   2.576 -0.0127  1.1423  1.3796
  134OSM      P14399   0.851   0.268   2.497  0.1620 -0.2604  0.4462
  134OSM    O1314400   0.830   0.272   2.349  0.6705 -0.6187  0.1266
  134OSM    O1414401   0.817   0.398   2.561 -0.3002  0.3139  0.0278
  134OSM    O1114402   0.998   0.235   2.545 -0.4714  0.2779  0.4715
  134OSM    O1214403   0.770   0.157   2.567  0.3101 -0.8955  0.0799
  134OSM    C1S14404   1.046   0.238   2.687  0.2161 -0.0249  0.3232
  134OSM    H1S14405   0.983   0.311   2.743 -1.8823 -1.6217  0.2016
  134OSM    H1T14406   1.151   0.274   2.686  0.1340  0.2141 -0.5751
  134OSM     NF14407   1.038   0.122   2.911  0.0079  0.1442  0.0754
  134OSM    HNF14408   1.127   0.108   2.953 -0.1054  0.6513  0.4990
  134OSM    C2S14409   1.043   0.103   2.762  0.2783  0.3222 -0.0648
  134OSM    H2S14410   0.950   0.045   2.744 -0.2667  0.6614  1.4900
  134OSM    C3S14411   1.164   0.019   2.714  0.0720  0.5473 -0.2169
  134OSM    H3S14412   1.257   0.078   2.727  0.7967 -0.4006 -0.8688
  134OSM     O314413   1.161   0.003   2.570  0.0946 -0.5792  0.1071
  134OSM    HO314414   1.095   0.064   2.536  0.9394 -1.0434 -2.5696
  134OSM    C4S14415   1.165  -0.111   2.784 -0.0881  0.3505 -0.1305
  134OSM    H4S14416   1.203  -0.102   2.887 -1.2943 -0.9934  0.4654
  134OSM    C5S14417   1.118  -0.234   2.756  0.2024 -0.0928 -0.7050
  134OSM    H5S14418   1.087  -0.249   2.652 -2.3500  0.5169 -0.1031
  134OSM    C6S14419   1.127  -0.355   2.845  0.0845 -0.0208  0.5079
  134OSM    H6S14420   1.180  -0.436   2.791 -0.8029  0.2997 -0.9127
  134OSM    H6T14421   1.027  -0.404   2.846  0.1706 -0.2161  2.2402
  134OSM    C7S14422   1.176  -0.348   2.992 -0.2254  0.0637 -0.3091
  134OSM    H7S14423   1.272  -0.293   2.989  0.5677 -1.3224 -2.9054
  134OSM    H7T14424   1.198  -0.455   3.013  0.9359  0.0997 -1.2883
  134OSM    C8S14425   1.086  -0.287   3.103  0.0671  0.3110  0.4376
  134OSM    H8S14426   0.983  -0.324   3.085  0.6592 -0.7497 -0.9537
  134OSM    H8T14427   1.070  -0.178   3.086  2.0780  0.7678  1.1318
  134OSM    C9S14428   1.138  -0.306   3.243  0.4707  0.5179 -0.0245
  134OSM    H9S14429   1.242  -0.268   3.259  1.1164 -0.5505 -1.4566
  134OSM    H9T14430   1.130  -0.415   3.259 -3.7234  0.5643 -0.7179
  134OSM   C10S14431   1.044  -0.237   3.351  0.2293  0.5066  0.6876
  134OSM   H10S14432   0.939  -0.261   3.321  0.5462  1.3248 -1.2087
  134OSM   H10T14433   1.048  -0.126   3.342  2.3726  0.5092  1.3531
  134OSM   C11S14434   1.079  -0.277   3.495 -0.3551 -0.1681 -0.2386
  134OSM   H11S14435   1.184  -0.241   3.507  0.1547 -1.3134 -1.1034
  134OSM   H11T14436   1.074  -0.387   3.479 -0.9218  0.0096 -1.3285
  134OSM   C12S14437   0.976  -0.242   3.599 -0.6487 -0.5268 -0.8267
  134OSM   H12S14438   0.876  -0.277   3.566 -0.8506 -0.4251 -0.3330
  134OSM   H12T14439   0.970  -0.132   3.613 -2.3384 -0.7417  0.4089
  134OSM   C13S14440   1.018  -0.307   3.732  0.3005 -0.4223  0.6201
  134OSM   H13S14441   1.111  -0.258   3.767 -1.4030  3.5640  0.1062
  134OSM   H13T14442   1.031  -0.416   3.713 -0.3136 -0.4604  0.3766
  134OSM   C14S14443   0.917  -0.276   3.843  0.3229  0.3679  1.5521
  134OSM   H14S14444   0.945  -0.332   3.935 -0.9098  1.7826  2.8267
  134OSM   H14T14445   0.821  -0.319   3.807  2.0309 -2.0418 -0.5925
  134OSM   C15S14446   0.910  -0.127   3.872  0.1994 -0.1880  0.3834
  134OSM   H15S14447   0.848  -0.072   3.797 -1.8472 -3.5664 -0.6220
  134OSM   H15T14448   1.017  -0.100   3.868  0.2542  0.3076  3.1785
  134OSM   C16S14449   0.866  -0.092   4.012  0.5839 -0.8411  0.4373
  134OSM   H16S14450   0.899   0.010   4.038 -0.1393 -0.5663  0.3102
  134OSM   H16T14451   0.901  -0.165   4.088 -0.8032 -0.9908  0.9660
  134OSM   C17S14452   0.713  -0.085   4.016  0.0127  0.3356  0.1687
  134OSM   H17S14453   0.674  -0.184   3.983  0.0576 -0.0030  1.1021
  134OSM   H17T14454   0.656  -0.018   3.947 -1.1988 -0.2340  0.5833
  134OSM   C18S14455   0.655  -0.054   4.153  0.2300  0.5521  0.2697
  134OSM   H18S14456   0.705   0.032   4.203  0.1606 -0.2237  1.7249
  134OSM   H18T14457   0.663  -0.145   4.217 -1.6507  0.3249  0.2551
  134OSM   H18U14458   0.548  -0.025   4.141 -0.3431 -0.9025  1.5355
  134OSM    C1F14459   0.934   0.173   2.971 -0.7402 -0.4612 -0.4541
  134OSM     OF14460   0.833   0.191   2.910  0.1920 -0.2753 -0.5632
  134OSM    C2F14461   0.954   0.208   3.115 -0.0253 -0.3816  0.8994
  134OSM    H2F14462   1.036   0.282   3.118  2.1944 -2.7514  2.8023
  134OSM    H2G14463   0.995   0.116   3.162  1.9111 -0.8640 -1.5235
  134OSM    C3F14464   0.828   0.269   3.177  0.6091 -0.5252  0.1542
  134OSM    H3F14465   0.757   0.184   3.178  0.7236 -0.7221  3.2026
  134OSM    H3G14466   0.777   0.344   3.113 -0.3076  0.0837  1.5420
  134OSM    C4F14467   0.838   0.301   3.327 -0.3167 -0.1375  0.3680
  134OSM    H4F14468   0.850   0.409   3.352  0.9356  0.2863 -1.8658
  134OSM    H4G14469   0.925   0.238   3.354  1.0148  0.5587 -1.9969
  134OSM    C5F14470   0.720   0.273   3.426 -0.2732 -0.5684  0.2865
  134OSM    H5F14471   0.693   0.166   3.428  2.0532 -1.2525  3.1014
  134OSM    H5G14472   0.630   0.333   3.402 -0.7544 -0.4912  2.0845
  134OSM    C6F14473   0.757   0.308   3.575 -0.2507  0.2934 -0.5946
  134OSM    H6F14474   0.666   0.293   3.638 -0.9470  2.1685 -1.1065
  134OSM    H6G14475   0.793   0.412   3.582 -1.0648  0.4855  1.3936
  134OSM    C7F14476   0.865   0.217   3.638 -0.1504  0.3620 -0.1989
  134OSM    H7F14477   0.961   0.242   3.589  0.0970  0.0436  0.1183
  134OSM    H7G14478   0.845   0.109   3.620  0.4922  0.0170  1.0305
  134OSM    C8F14479   0.892   0.244   3.788  0.1225  0.4825  0.2603
  134OSM    H8F14480   0.981   0.186   3.820 -0.5148 -0.4790  0.3168
  134OSM    H8G14481   0.806   0.200   3.842 -0.3500 -0.7097 -1.3776
  134OSM    C9F14482   0.915   0.390   3.835 -0.4935  0.4617 -0.1150
  134OSM    H9F14483   1.004   0.438   3.793  0.5093 -0.5181  0.7967
  134OSM   C10F14484   0.833   0.463   3.915 -0.4585  0.1338 -0.3111
  134OSM   H10F14485   0.860   0.568   3.931  1.1258 -0.4913  1.6823
  134OSM   C11F14486   0.694   0.421   3.965 -1.1212 -0.2614 -0.5711
  134OSM   H11F14487   0.642   0.353   3.894 -0.9513 -1.2035  0.1923
  134OSM   H11G14488   0.621   0.504   3.980 -1.2051 -0.5862  0.9630
  134OSM   C12F14489   0.689   0.343   4.097  0.0670 -0.1130 -0.4782
  134OSM   H12F14490   0.755   0.254   4.098  0.1985 -0.0143 -0.1158
  134OSM   H12G14491   0.586   0.306   4.117  0.7090 -1.9042 -0.2699
  134OSM   C13F14492   0.715   0.432   4.223 -0.6710 -0.6862  0.9585
  134OSM   H13F14493   0.788   0.512   4.199  0.6916 -2.6583 -2.0964
  134OSM   H13G14494   0.745   0.370   4.310 -0.2184 -2.5333 -0.4581
  134OSM   C14F14495   0.590   0.502   4.275 -0.8671  0.3065  0.3332
  134OSM   H14F14496   0.520   0.431   4.324 -1.2130  0.8354  0.6115
  134OSM   H14G14497   0.541   0.548   4.187  0.1912  0.5198 -0.1675
  134OSM   C15F14498   0.628   0.616   4.368 -0.4926 -0.1721  0.0985
  134OSM   H15F14499   0.539   0.678   4.391  0.1591  1.0437 -0.5185
  134OSM   H15G14500   0.700   0.681   4.313  1.2956 -1.5601  0.6919
  134OSM   C16F14501   0.681   0.561   4.505  0.3564 -0.0239 -0.2620
  134OSM   H16F14502   0.769   0.498   4.482  1.1627  0.7368  0.6575
  134OSM   H16G14503   0.606   0.490   4.547  1.2653 -1.1617 -0.5354
  134OSM   C17F14504   0.714   0.667   4.608  0.7994  0.6317 -0.6153
  134OSM   H17F14505   0.632   0.741   4.624  1.0439  0.4045  2.3151
  134OSM   H17G14506   0.808   0.718   4.580  1.4010  0.2354  0.6216
  134OSM   C18F14507   0.734   0.613   4.758 -0.1404 -0.6281 -0.0851
  134OSM   H18F14508   0.829   0.556   4.764  1.3341  1.8639  3.3724
  134OSM   H18G14509   0.645   0.558   4.795 -0.3570 -0.7140 -0.7089
  134OSM   H18H14510   0.754   0.696   4.829 -0.5345  0.7218 -1.4925
  135OSM      N14511   3.681   0.388   1.993  0.7954 -0.3513 -0.1319
  135OSM    C1514512   3.552   0.307   1.996 -0.3911 -0.6242 -0.7057
  135OSM   H15A14513   3.552   0.220   2.060  2.1131  0.9117  1.5761
  135OSM   H15B14514   3.528   0.275   1.895  2.5933  0.2446 -1.7995
  135OSM   H15C14515   3.473   0.366   2.038  0.6631 -0.5887  1.3277
  135OSM    C1414516   3.794   0.299   1.945  0.1210 -0.5544  0.3859
  135OSM   H14A14517   3.793   0.205   1.998 -2.0579 -1.5559 -1.2892
  135OSM   H14B14518   3.888   0.351   1.960 -0.0334 -0.0434 -0.3826
  135OSM   H14C14519   3.780   0.273   1.841 -0.4610 -1.4351  0.6716
  135OSM    C1314520   3.675   0.503   1.899 -1.0988 -0.5956  0.5261
  135OSM   H13A14521   3.617   0.583   1.943 -2.3034 -0.6222 -0.9263
  135OSM   H13B14522   3.638   0.468   1.803 -2.2450 -2.8664  1.7310
  135OSM   H13C14523   3.777   0.534   1.883 -0.5460 -2.2335  0.7175
  135OSM    C1214524   3.702   0.441   2.131 -0.0026  0.4530 -0.3764
  135OSM   H12A14525   3.789   0.505   2.119 -0.0420  0.4137 -0.9129
  135OSM   H12B14526   3.734   0.363   2.198 -1.5924 -0.3208 -0.4890
  135OSM    C1114527   3.600   0.527   2.206 -0.1037  0.2067  0.3687
  135OSM   H11A14528   3.623   0.543   2.314  0.7760  1.2523  0.0554
  135OSM   H11B14529   3.502   0.477   2.190 -0.1933  0.5846 -0.3210
  135OSM      P14530   3.462   0.744   2.130  0.6134 -0.1197  0.1142
  135OSM    O1314531   3.499   0.865   2.050  0.1660 -0.3466 -0.0784
  135OSM    O1414532   3.344   0.666   2.081 -0.2975 -0.2553 -0.0277
  135OSM    O1114533   3.450   0.775   2.283  0.3170  0.3163 -0.3997
  135OSM    O1214534   3.589   0.654   2.127  0.3349 -0.1863  0.0867
  135OSM    C1S14535   3.354   0.864   2.337 -0.3232  0.5120  0.1462
  135OSM    H1S14536   3.251   0.836   2.310 -0.8651  1.9316  0.6152
  135OSM    H1T14537   3.363   0.972   2.311 -0.9039  0.2600 -1.1916
  135OSM     NF14538   3.278   0.964   2.544  0.7286 -0.5633 -0.7328
  135OSM    HNF14539   3.308   1.059   2.556 -2.1030  0.3948 -0.4788
  135OSM    C2S14540   3.376   0.873   2.494 -0.5608 -0.1236 -0.2621
  135OSM    H2S14541   3.362   0.771   2.534  1.6551 -0.3093  0.2044
  135OSM    C3S14542   3.519   0.913   2.518 -0.6259 -0.0310 -0.6428
  135OSM    H3S14543   3.527   1.018   2.481  0.3294  0.1639  0.0745
  135OSM     O314544   3.626   0.836   2.458  0.3633  0.1965  0.5774
  135OSM    HO314545   3.582   0.791   2.386 -2.4163  0.1561  2.1428
  135OSM    C4S14546   3.544   0.922   2.671  0.6314 -0.3571  0.4418
  135OSM    H4S14547   3.558   1.025   2.705 -1.7858  0.3571 -0.6012
  135OSM    C5S14548   3.526   0.816   2.756 -0.6934 -0.3623  1.1210
  135OSM    H5S14549   3.499   0.719   2.712 -0.2483  0.5609 -1.3411
  135OSM    C6S14550   3.542   0.826   2.907  0.1188 -0.2191 -0.4528
  135OSM    H6S14551   3.643   0.800   2.944 -0.9072 -0.0539  2.7020
  135OSM    H6T14552   3.488   0.746   2.961 -0.5177 -0.5823 -1.5764
  135OSM    C7S14553   3.486   0.960   2.967 -0.2826 -0.4123  0.4902
  135OSM    H7S14554   3.386   0.995   2.932  0.5847  0.3225 -1.3734
  135OSM    H7T14555   3.564   1.032   2.935 -1.1734  0.7193  0.8170
  135OSM    C8S14556   3.474   0.959   3.117 -0.1595 -0.0723  0.0580
  135OSM    H8S14557   3.569   0.933   3.169 -0.5860  1.8688  1.9818
  135OSM    H8T14558   3.403   0.876   3.139  1.2767 -1.9945 -2.1351
  135OSM    C9S14559   3.432   1.101   3.160 -0.3261 -0.0421 -0.6120
  135OSM    H9S14560   3.340   1.137   3.109  0.8611  0.5326 -2.4471
  135OSM    H9T14561   3.516   1.171   3.139 -0.3259  0.1298 -0.0576
  135OSM   C10S14562   3.415   1.094   3.317 -0.8148 -0.5734 -0.4565
  135OSM   H10S14563   3.500   1.034   3.357 -0.8146 -0.2586  0.0168
  135OSM   H10T14564   3.328   1.031   3.345 -0.9863  0.3303  1.0980
  135OSM   C11S14565   3.427   1.228   3.389  0.3714 -1.1322 -0.3032
  135OSM   H11S14566   3.345   1.293   3.351 -0.1974 -1.9489 -0.4913
  135OSM   H11T14567   3.528   1.265   3.360  0.6165  0.6230  2.4003
  135OSM   C12S14568   3.411   1.215   3.543  0.1406  0.2913  0.0895
  135OSM   H12S14569   3.449   1.117   3.579 -0.5526 -0.3440 -0.8611
  135OSM   H12T14570   3.305   1.212   3.577  0.6800  0.2895  1.8517
  135OSM   C13S14571   3.474   1.333   3.620  1.0738 -0.2489 -0.2625
  135OSM   H13S14572   3.406   1.420   3.607  1.7785  0.3683  0.1356
  135OSM   H13T14573   3.575   1.360   3.583  0.2489  2.4548 -0.7428
  135OSM   C14S14574   3.497   1.308   3.771  0.1434 -0.2750  0.1060
  135OSM   H14S14575   3.581   1.236   3.786 -0.7436 -1.2261  0.6418
  135OSM   H14T14576   3.401   1.273   3.813 -1.0780  2.4165 -0.2660
  135OSM   C15S14577   3.542   1.445   3.844  0.1429 -0.3204  1.1819
  135OSM   H15S14578   3.459   1.518   3.830  1.5147  1.1864  0.6947
  135OSM   H15T14579   3.632   1.480   3.789  0.1189 -0.3031  1.1536
  135OSM   C16S14580   3.562   1.446   3.995  0.1346  0.5214 -0.2865
  135OSM   H16S14581   3.641   1.369   4.005 -1.3081 -1.3563 -2.3258
  135OSM   H16T14582   3.459   1.413   4.021  0.3236 -1.0874 -1.4585
  135OSM   C17S14583   3.603   1.580   4.051  0.3176 -0.1237  0.0401
  135OSM   H17S14584   3.521   1.654   4.042 -1.0184 -1.7139 -1.4239
  135OSM   H17T14585   3.688   1.605   3.984  0.3465 -1.4678 -0.4614
  135OSM   C18S14586   3.655   1.577   4.194 -0.3834  0.3305 -0.2304
  135OSM   H18S14587   3.570   1.568   4.265  0.6816 -2.2564  0.8239
  135OSM   H18T14588   3.714   1.667   4.220 -0.5973  0.1132  1.0567
  135OSM   H18U14589   3.721   1.495   4.227  0.1744  1.1001  0.5826
  135OSM    C1F14590   3.152   0.928   2.572  0.0834 -0.2801 -0.2956
  135OSM     OF14591   3.101   0.823   2.534 -0.6409 -0.5549  0.1037
  135OSM    C2F14592   3.071   1.023   2.659  0.1785 -0.1685 -1.0108
  135OSM    H2F14593   2.979   1.051   2.604  0.3947 -0.5788 -1.6035
  135OSM    H2G14594   3.134   1.114   2.672 -0.1353 -0.0578 -0.2653
  135OSM    C3F14595   3.035   0.975   2.799  0.1934 -0.2416  0.3635
  135OSM    H3F14596   3.120   0.929   2.855  1.9981  1.2266 -1.0168
  135OSM    H3G14597   2.958   0.899   2.777  0.7817 -0.3451 -1.4748
  135OSM    C4F14598   2.985   1.076   2.902 -0.1563  0.6977  0.0422
  135OSM    H4F14599   2.900   1.135   2.862  0.3089  2.4022  1.4744
  135OSM    H4G14600   3.062   1.154   2.921 -0.0122  0.2906  1.1776
  135OSM    C5F14601   2.936   1.011   3.025  0.7788  0.3958 -0.2496
  135OSM    H5F14602   3.006   0.938   3.071 -1.5578 -0.7054  1.7833
  135OSM    H5G14603   2.845   0.948   3.010  0.3450  0.7073  0.9944
  135OSM    C6F14604   2.892   1.123   3.122 -0.2472  0.5054 -0.3785
  135OSM    H6F14605   2.842   1.197   3.057 -0.2503 -0.6967 -1.8034
  135OSM    H6G14606   2.977   1.175   3.170 -0.7132 -0.7941  2.0886
  135OSM    C7F14607   2.814   1.086   3.242  0.6572  0.2811  0.2396
  135OSM    H7F14608   2.712   1.056   3.209  0.1873  2.3080 -0.2887
  135OSM    H7G14609   2.800   1.170   3.313 -0.8899  0.7521 -0.5949
  135OSM    C8F14610   2.871   0.965   3.315  0.0986  0.1682 -0.2415
  135OSM    H8F14611   2.876   0.881   3.243  0.2305 -0.2753  0.2820
  135OSM    H8G14612   2.806   0.932   3.398 -2.7106  0.0502 -2.3372
  135OSM    C9F14613   3.013   0.993   3.368  0.0033 -0.7209  0.4096
  135OSM    H9F14614   3.098   0.965   3.304  0.7246 -1.1383  1.4968
  135OSM   C10F14615   3.039   1.073   3.474  0.5888 -0.9226 -0.1881
  135OSM   H10F14616   3.144   1.094   3.497  0.7180 -0.4143 -1.2125
  135OSM   C11F14617   2.932   1.124   3.572 -0.7675  0.2667 -0.5073
  135OSM   H11F14618   2.832   1.125   3.525 -1.1610 -2.7216  0.0266
  135OSM   H11G14619   2.953   1.225   3.612 -1.1893 -0.2591  1.1241
  135OSM   C12F14620   2.923   1.031   3.696  0.2228  0.4150 -0.1485
  135OSM   H12F14621   3.019   1.027   3.752 -0.0338 -0.5002  0.2438
  135OSM   H12G14622   2.896   0.926   3.672 -3.1750  1.5087 -1.6720
  135OSM   C13F14623   2.813   1.070   3.794  0.6672 -0.2928  0.0815
  135OSM   H13F14624   2.721   1.085   3.733 -0.8420  1.2217  2.5722
  135OSM   H13G14625   2.830   1.175   3.824  1.4790 -0.7755  1.4193
  135OSM   C14F14626   2.788   0.975   3.918  0.3582 -0.1895  0.4662
  135OSM   H14F14627   2.888   0.948   3.959 -0.1391 -0.7313  1.3518
  135OSM   H14G14628   2.753   0.883   3.868 -1.0963  0.6774 -0.1639
  135OSM   C15F14629   2.672   1.016   4.000  0.7294  0.5204  0.2858
  135OSM   H15F14630   2.661   0.944   4.084 -1.7136  1.3026  0.7277
  135OSM   H15G14631   2.576   1.009   3.944  0.5473  0.8280  0.5579
  135OSM   C16F14632   2.682   1.156   4.064 -0.2853  0.1912 -0.3760
  135OSM   H16F14633   2.688   1.238   3.989 -2.2385  0.0639 -0.7245
  135OSM   H16G14634   2.781   1.160   4.113 -0.4562 -1.7037  0.2240
  135OSM   C17F14635   2.564   1.190   4.147  0.1434  0.3948  0.0606
  135OSM   H17F14636   2.537   1.114   4.223 -1.9736  0.0417 -0.9746
  135OSM   H17G14637   2.477   1.177   4.079  1.2658  0.7023 -1.4864
  135OSM   C18F14638   2.561   1.330   4.218 -0.2211 -0.1487  0.6154
  135OSM   H18F14639   2.572   1.415   4.147 -0.3891 -0.1555  0.5821
  135OSM   H18G14640   2.641   1.350   4.292 -0.3812 -2.9378  1.6879
  135OSM   H18H14641   2.468   1.344   4.277  0.8594 -1.9764  2.9315
  136OSM      N14642   5.705   5.444   2.118 -0.2461  0.4291  0.5773
  136OSM    C1514643   5.752   5.328   2.043 -0.1629 -0.1874 -0.2938
  136OSM   H15A14644   5.737   5.233   2.092 -1.1191  0.5986  1.0119
  136OSM   H15B14645   5.850   5.340   2.000 -0.2571  3.4024  0.1171
  136OSM   H15C14646   5.678   5.315   1.965 -1.4468  0.3078  0.7805
  136OSM    C1414647   5.584   5.391   2.187 -0.1449 -0.2703 -0.9223
  136OSM   H14A14648   5.533   5.471   2.239 -0.2440 -0.3106 -0.9584
  136OSM   H14B14649   5.599   5.306   2.251 -2.1718 -1.4651 -1.9355
  136OSM   H14C14650   5.519   5.368   2.104 -0.3841  0.8400 -1.0646
  136OSM    C1314651   5.815   5.476   2.213  0.0014 -0.2446  0.2624
  136OSM   H13A14652   5.858   5.390   2.263 -0.2686 -0.9117 -0.6104
  136OSM   H13B14653   5.779   5.547   2.285 -2.9889 -0.1543 -1.1547
  136OSM   H13C14654   5.892   5.524   2.154 -2.6743  0.4702 -2.9581
  136OSM    C1214655   5.670   5.563   2.025  0.1509  0.1569 -0.3571
  136OSM   H12A14656   5.566   5.559   1.996  0.1051 -2.0292 -0.0325
  136OSM   H12B14657   5.731   5.550   1.936  2.3772 -0.2343  1.1262
  136OSM    C1114658   5.706   5.707   2.080 -0.6298  0.1105  0.4324
  136OSM   H11A14659   5.674   5.782   2.005 -0.3756  1.2393  1.4205
  136OSM   H11B14660   5.815   5.724   2.097 -0.6802  0.5312  0.3410
  136OSM      P14661   5.498   5.760   2.229  0.1808 -0.1769 -0.0066
  136OSM    O1314662   5.479   5.907   2.217  0.0378 -0.0575 -0.3975
  136OSM    O1414663   5.405   5.679   2.148  0.0597  0.2813 -0.2780
  136OSM    O1114664   5.481   5.728   2.390 -0.1740  0.1963 -0.5136
  136OSM    O1214665   5.645   5.728   2.199 -0.4504  0.6240  0.6449
  136OSM    C1S14666   5.591   5.658   2.447 -0.5854 -0.6066 -0.3576
  136OSM    H1S14667   5.671   5.734   2.461 -1.3066  0.1856 -0.4664
  136OSM    H1T14668   5.615   5.574   2.378 -0.7481 -0.2272 -0.8852
  136OSM     NF14669   5.689   5.549   2.636  0.2913 -0.1132  0.2261
  136OSM    HNF14670   5.712   5.455   2.613  0.9225  0.1855 -0.3945
  136OSM    C2S14671   5.560   5.594   2.583  0.1407 -0.2732 -0.5630
  136OSM    H2S14672   5.514   5.674   2.645 -1.4789 -1.7728  0.2586
  136OSM    C3S14673   5.451   5.495   2.560  0.1152 -0.2133 -0.3797
  136OSM    H3S14674   5.477   5.427   2.476  0.1773 -0.1886 -0.3804
  136OSM     O314675   5.331   5.549   2.509 -0.3132  0.2631  0.7124
  136OSM    HO314676   5.361   5.634   2.476  2.0888 -0.3078  1.2882
  136OSM    C4S14677   5.428   5.417   2.688 -0.0692  0.0762  0.0587
  136OSM    H4S14678   5.493   5.329   2.695  0.9914  0.5757 -2.4479
  136OSM    C5S14679   5.333   5.440   2.777  0.4446 -0.4753  0.5667
  136OSM    H5S14680   5.262   5.523   2.765  0.0351 -1.0902 -1.5780
  136OSM    C6S14681   5.312   5.356   2.899  0.0127  0.4008 -0.8203
  136OSM    H6S14682   5.357   5.255   2.907  0.9234  0.8287 -0.4096
  136OSM    H6T14683   5.202   5.352   2.915  0.2521 -0.3012  0.9321
  136OSM    C7S14684   5.349   5.433   3.029  0.3166 -0.5592 -0.1024
  136OSM    H7S14685   5.285   5.523   3.038  2.8539  1.4661 -1.1318
  136OSM    H7T14686   5.453   5.469   3.021 -0.2381  1.2691  0.5404
  136OSM    C8S14687   5.309   5.351   3.154  0.2696  0.7295  0.1091
  136OSM    H8S14688   5.341   5.245   3.147  2.5467  1.4363 -1.1486
  136OSM    H8T14689   5.198   5.353   3.166 -0.0236  1.0502 -2.2310
  136OSM    C9S14690   5.364   5.401   3.294 -0.1894 -0.2636  0.2872
  136OSM    H9S14691   5.349   5.511   3.304  0.4886  0.0718 -1.9247
  136OSM    H9T14692   5.471   5.374   3.296 -0.1689 -0.4730 -1.6019
  136OSM   C10S14693   5.302   5.331   3.416  0.0809 -0.1588  0.6210
  136OSM   H10S14694   5.317   5.222   3.408 -4.5161 -1.1105  2.0608
  136OSM   H10T14695   5.193   5.342   3.397  0.0849 -2.3975 -1.0889
  136OSM   C11S14696   5.347   5.398   3.542 -0.6006  0.4388 -0.5763
  136OSM   H11S14697   5.324   5.505   3.524 -3.5175 -0.3624 -2.1824
  136OSM   H11T14698   5.453   5.388   3.575 -0.7692  1.9456  0.5272
  136OSM   C12S14699   5.265   5.355   3.662 -0.2724  0.0421  0.0021
  136OSM   H12S14700   5.292   5.254   3.698 -1.8761 -0.8886 -1.2549
  136OSM   H12T14701   5.160   5.341   3.629 -0.8407  0.7547  1.4069
  136OSM   C13S14702   5.276   5.444   3.786 -0.2820  0.3403 -0.2806
  136OSM   H13S14703   5.188   5.417   3.848 -0.5138  1.4524 -0.1034
  136OSM   H13T14704   5.273   5.552   3.759  1.5765  0.9016  1.5299
  136OSM   C14S14705   5.404   5.418   3.862 -0.3564 -0.3528 -0.5813
  136OSM   H14S14706   5.397   5.497   3.940 -1.0808 -0.0392 -0.9544
  136OSM   H14T14707   5.489   5.442   3.794 -0.2549 -1.5755 -0.9150
  136OSM   C15S14708   5.413   5.282   3.932  0.4180 -0.2005 -0.4540
  136OSM   H15S14709   5.423   5.210   3.848  1.3014  0.4297 -0.9130
  136OSM   H15T14710   5.313   5.277   3.978  0.5077  3.0303  0.3505
  136OSM   C16S14711   5.518   5.266   4.036 -0.3976  0.2314 -0.3502
  136OSM   H16S14712   5.511   5.352   4.106 -0.6717 -0.8138  0.9499
  136OSM   H16T14713   5.614   5.250   3.983  0.2944 -0.7094  1.1359
  136OSM   C17S14714   5.505   5.138   4.122  0.1721  0.1755  1.1136
  136OSM   H17S14715   5.399   5.128   4.154 -0.3863  1.6917 -0.1066
  136OSM   H17T14716   5.566   5.158   4.213 -1.2774 -1.4087  2.4956
  136OSM   C18S14717   5.551   5.010   4.050 -0.2170  0.7330  1.1481
  136OSM   H18S14718   5.532   4.917   4.108  2.2245  0.3869  1.4810
  136OSM   H18T14719   5.662   5.006   4.043 -0.3378 -0.6993 -1.2223
  136OSM   H18U14720   5.519   5.000   3.944 -0.8701 -0.6525  1.4504
  136OSM    C1F14721   5.777   5.626   2.695  0.6818 -0.1537 -0.3443
  136OSM     OF14722   5.749   5.739   2.742  0.0465 -0.5633 -0.2875
  136OSM    C2F14723   5.919   5.567   2.709 -0.0500 -0.0661  0.3215
  136OSM    H2F14724   5.960   5.587   2.608 -0.2564 -2.6022 -0.3108
  136OSM    H2G14725   5.920   5.457   2.717 -0.7855 -0.1018  0.0130
  136OSM    C3F14726   5.999   5.614   2.827  0.2119  0.3021 -0.2003
  136OSM    H3F14727   5.999   5.725   2.836 -0.6358  0.3137 -0.2810
  136OSM    H3G14728   6.104   5.578   2.821 -0.0851 -0.3044 -2.7768
  136OSM    C4F14729   5.942   5.562   2.958 -0.3021  0.7384 -0.8337
  136OSM    H4F14730   5.939   5.451   2.955  0.6803  0.7191 -1.7269
  136OSM    H4G14731   5.835   5.591   2.965 -0.8166 -1.2730  1.0629
  136OSM    C5F14732   6.017   5.602   3.086  0.5117 -0.1417 -0.0362
  136OSM    H5F14733   6.011   5.712   3.101 -6.0515  0.0062 -0.7703
  136OSM    H5G14734   6.124   5.584   3.062  0.8751  3.7487 -2.0938
  136OSM    C6F14735   5.962   5.536   3.215  0.0367  0.2507  0.1107
  136OSM    H6F14736   5.963   5.425   3.210 -0.4441  0.2855 -1.7946
  136OSM    H6G14737   5.855   5.560   3.229 -0.3031 -0.2567 -1.3484
  136OSM    C7F14738   6.050   5.566   3.342  1.0130  0.4954 -0.2764
  136OSM    H7F14739   6.038   5.674   3.363  0.1888  0.5896 -1.1462
  136OSM    H7G14740   6.156   5.534   3.329  0.5893 -1.1136  0.0128
  136OSM    C8F14741   6.009   5.481   3.467 -0.3327  0.3241 -0.7065
  136OSM    H8F14742   6.076   5.502   3.553 -1.7797 -1.0095  0.8185
  136OSM    H8G14743   6.012   5.375   3.434 -1.5020  1.1483 -3.7685
  136OSM    C9F14744   5.866   5.505   3.503  0.9202 -0.8823  0.2274
  136OSM    H9F14745   5.794   5.520   3.422  1.0753  0.1620  0.2634
  136OSM   C10F14746   5.813   5.500   3.623  0.0943  0.0755 -0.6142
  136OSM   H10F14747   5.708   5.530   3.634 -0.0589 -0.3715 -0.7945
  136OSM   C11F14748   5.873   5.482   3.759  0.0658 -0.3465  0.4592
  136OSM   H11F14749   5.816   5.401   3.810  0.0530  0.0318  1.0517
  136OSM   H11G14750   5.840   5.568   3.821 -0.3464  0.1598 -0.4303
  136OSM   C12F14751   6.016   5.469   3.794 -0.0024  0.2241  0.0976
  136OSM   H12F14752   6.071   5.556   3.752 -2.2682  2.3559  1.3165
  136OSM   H12G14753   6.074   5.387   3.746  0.6160  0.4754  0.4063
  136OSM   C13F14754   6.031   5.463   3.952  0.0213  0.3085  0.2122
  136OSM   H13F14755   6.045   5.357   3.981 -0.3861  0.1541 -0.1569
  136OSM   H13G14756   5.931   5.489   3.992 -0.2927  1.9991 -1.4903
  136OSM   C14F14757   6.136   5.550   4.011  0.3730 -0.2031  0.5124
  136OSM   H14F14758   6.127   5.657   3.981  0.6999 -0.1253  0.6951
  136OSM   H14G14759   6.233   5.505   3.982 -0.1714 -0.4228 -1.0975
  136OSM   C15F14760   6.134   5.554   4.166 -0.3536  0.3494  0.6699
  136OSM   H15F14761   6.224   5.607   4.205  1.5626 -0.1729 -2.6636
  136OSM   H15G14762   6.140   5.453   4.212  0.5282 -0.4456 -1.0806
  136OSM   C16F14763   6.002   5.627   4.205  0.1712 -0.3024 -0.2571
  136OSM   H16F14764   5.916   5.558   4.193 -0.6443  0.4555  1.0947
  136OSM   H16G14765   5.978   5.712   4.138  2.0400 -0.6345 -1.4091
  136OSM   C17F14766   5.994   5.680   4.347  1.0252 -0.0854 -0.7477
  136OSM   H17F14767   5.907   5.749   4.348  0.2521 -0.9941 -1.8217
  136OSM   H17G14768   6.087   5.737   4.364  2.4486 -2.4739  0.0043
  136OSM   C18F14769   5.983   5.574   4.463  0.0980  0.1124 -0.1440
  136OSM   H18F14770   5.945   5.627   4.553  0.9558 -0.0042  0.3029
  136OSM   H18G14771   6.074   5.512   4.481  1.5504  2.4002  0.8478
  136OSM   H18H14772   5.898   5.507   4.437 -1.3239  1.3216  1.1539
  137OSM      N14773   3.940   2.773   1.616 -0.2022 -0.5218 -0.5189
  137OSM    C1514774   3.948   2.665   1.512  0.2540  0.0359  0.2297
  137OSM   H15A14775   4.016   2.698   1.436  0.5487 -1.6737 -0.2921
  137OSM   H15B14776   3.862   2.651   1.447 -0.8168 -3.0259  2.0677
  137OSM   H15C14777   3.965   2.571   1.563 -1.2190 -0.7097 -0.5639
  137OSM    C1414778   4.076   2.818   1.659 -0.3879 -1.2833  0.3969
  137OSM   H14A14779   4.131   2.847   1.571 -3.6679 -1.0590 -1.7312
  137OSM   H14B14780   4.119   2.741   1.721 -1.0770 -0.2213  2.2879
  137OSM   H14C14781   4.070   2.910   1.714  0.8921 -0.6388 -0.4802
  137OSM    C1314782   3.881   2.892   1.556 -0.0847 -0.2468 -0.2545
  137OSM   H13A14783   3.780   2.877   1.520  0.0908  2.5188 -2.1985
  137OSM   H13B14784   3.940   2.923   1.471  0.2416 -0.6060 -0.1594
  137OSM   H13C14785   3.880   2.974   1.627 -0.7340  0.6089 -1.2217
  137OSM    C1214786   3.859   2.737   1.728  0.0958 -0.2077  0.9898
  137OSM   H12A14787   3.882   2.636   1.759 -1.5668 -0.4415  1.5964
  137OSM   H12B14788   3.755   2.742   1.700 -0.0099  1.3170  1.5676
  137OSM    C1114789   3.867   2.820   1.864 -0.2317  0.9271  0.3173
  137OSM   H11A14790   3.970   2.798   1.900  0.2704 -1.9335 -2.3816
  137OSM   H11B14791   3.793   2.776   1.934  0.9876 -2.2817 -0.2223
  137OSM      P14792   3.718   3.030   1.860  0.0460  0.1463 -0.0952
  137OSM    O1314793   3.727   3.171   1.824 -0.4546 -0.1608 -0.5337
  137OSM    O1414794   3.621   2.961   1.771 -0.9474  0.0515  0.5691
  137OSM    O1114795   3.680   3.003   2.008  0.0024  0.4541  0.2646
  137OSM    O1214796   3.857   2.960   1.845  0.0023  0.1058  0.4493
  137OSM    C1S14797   3.737   3.088   2.113  0.2567  0.2236 -0.2258
  137OSM    H1S14798   3.728   3.197   2.097  1.3464  0.2661 -0.6394
  137OSM    H1T14799   3.846   3.073   2.127  0.3967  0.7433 -0.6960
  137OSM     NF14800   3.722   3.148   2.348 -0.1778  0.6559  0.2805
  137OSM    HNF14801   3.803   3.130   2.403  2.0649  4.3368 -1.4122
  137OSM    C2S14802   3.680   3.044   2.252  0.0398  0.2172  0.0207
  137OSM    H2S14803   3.568   3.046   2.252  0.0151 -0.6969  0.3478
  137OSM    C3S14804   3.718   2.896   2.287 -0.2066 -0.4886  0.1374
  137OSM    H3S14805   3.826   2.875   2.269 -0.4173  0.0991 -2.2084
  137OSM     O314806   3.651   2.812   2.191  0.0442  0.1763  0.7014
  137OSM    HO314807   3.630   2.868   2.115 -0.9474 -0.1038  0.7564
  137OSM    C4S14808   3.696   2.863   2.434  0.4828  0.2936  1.1111
  137OSM    H4S14809   3.778   2.902   2.496  2.2237 -0.0879 -0.8278
  137OSM    C5S14810   3.583   2.808   2.487  0.4686 -0.8864  0.4569
  137OSM    H5S14811   3.496   2.785   2.424 -1.0065  2.0947  1.2431
  137OSM    C6S14812   3.560   2.796   2.637  0.7678 -0.1984  0.3480
  137OSM    H6S14813   3.548   2.690   2.666  1.2017 -0.0623  1.0726
  137OSM    H6T14814   3.465   2.844   2.670  0.2268  0.5086 -2.0571
  137OSM    C7S14815   3.682   2.852   2.718  0.3111 -0.2757  0.4264
  137OSM    H7S14816   3.680   2.962   2.699  0.1128 -0.7986 -3.3395
  137OSM    H7T14817   3.781   2.824   2.676  0.7914  0.6855  0.8864
  137OSM    C8S14818   3.691   2.835   2.873 -0.2824  0.4957  0.5641
  137OSM    H8S14819   3.668   2.728   2.894  0.3692 -0.5668 -3.2290
  137OSM    H8T14820   3.615   2.904   2.915 -0.6863  1.1098 -1.0827
  137OSM    C9S14821   3.823   2.888   2.929  0.1394 -0.3365  0.3811
  137OSM    H9S14822   3.834   2.994   2.896  0.2083  0.2422  2.1437
  137OSM    H9T14823   3.909   2.827   2.896  0.8047  1.8065 -2.2613
  137OSM   C10S14824   3.812   2.913   3.081  0.0054 -0.1815  1.0088
  137OSM   H10S14825   3.799   2.808   3.115  1.3517 -0.7396 -0.0984
  137OSM   H10T14826   3.719   2.962   3.116  0.8349  2.6406 -0.4037
  137OSM   C11S14827   3.931   2.995   3.135 -0.0174  0.7030  0.5296
  137OSM   H11S14828   3.956   3.083   3.072  2.1095  0.3210  0.7672
  137OSM   H11T14829   4.021   2.935   3.157  0.7104  1.8096  0.6496
  137OSM   C12S14830   3.898   3.044   3.281  0.5816  0.3388 -0.5672
  137OSM   H12S14831   3.814   3.117   3.280 -0.6061 -0.8843  1.7461
  137OSM   H12T14832   3.989   3.090   3.325 -0.0794 -0.3546  1.6638
  137OSM   C13S14833   3.854   2.924   3.366 -0.0050 -0.3671  0.1852
  137OSM   H13S14834   3.919   2.840   3.335 -1.1787 -0.6452 -1.7167
  137OSM   H13T14835   3.759   2.880   3.328  0.8201 -2.6349  0.5900
  137OSM   C14S14836   3.841   2.936   3.520 -0.0256  0.9782  0.6307
  137OSM   H14S14837   3.751   2.999   3.531 -0.7683 -0.1693  1.3202
  137OSM   H14T14838   3.923   2.993   3.569  1.2960  0.0774 -0.4541
  137OSM   C15S14839   3.815   2.806   3.594  0.3821  0.1174  0.3655
  137OSM   H15S14840   3.905   2.740   3.590  1.8790  2.0327  1.0263
  137OSM   H15T14841   3.734   2.748   3.545  0.1385 -0.6637  1.6501
  137OSM   C16S14842   3.780   2.823   3.745  0.1013  0.1472 -0.1860
  137OSM   H16S14843   3.767   2.719   3.782 -3.0099  1.2911  2.4441
  137OSM   H16T14844   3.679   2.869   3.748  0.0254  0.2952 -2.6942
  137OSM   C17S14845   3.886   2.888   3.836  0.4233 -0.8664 -0.5237
  137OSM   H17S14846   3.837   2.909   3.933  2.1432 -0.0779  0.2112
  137OSM   H17T14847   3.908   2.986   3.790  0.5041  0.5452  2.3104
  137OSM   C18S14848   4.013   2.807   3.865 -0.1942  0.7201 -0.3823
  137OSM   H18S14849   4.087   2.862   3.927 -0.9208  1.6650 -0.3289
  137OSM   H18T14850   4.064   2.762   3.777 -0.8021 -2.0617  0.5808
  137OSM   H18U14851   3.986   2.721   3.931 -2.5613  0.6452 -1.3600
  137OSM    C1F14852   3.681   3.274   2.352  0.0175 -0.6740  0.1275
  137OSM     OF14853   3.609   3.321   2.266 -0.1255 -0.3455 -0.2541
  137OSM    C2F14854   3.741   3.356   2.458 -0.5184 -1.4700 -0.3920
  137OSM    H2F14855   3.801   3.441   2.416 -1.7262 -0.4592 -0.1205
  137OSM    H2G14856   3.800   3.286   2.521  0.9825  0.2866  0.2709
  137OSM    C3F14857   3.620   3.415   2.533  0.4651 -0.4074 -0.2915
  137OSM    H3F14858   3.549   3.335   2.563  0.4112  0.7699  3.2212
  137OSM    H3G14859   3.571   3.489   2.466  0.6683  0.3750  0.3981
  137OSM    C4F14860   3.655   3.496   2.665 -0.2139 -0.1794  0.1164
  137OSM    H4F14861   3.566   3.534   2.719 -0.3271 -0.8271  0.3980
  137OSM    H4G14862   3.716   3.584   2.634  1.6567 -1.9760 -1.6276
  137OSM    C5F14863   3.734   3.421   2.773 -0.2994 -0.3469 -0.3615
  137OSM    H5F14864   3.818   3.376   2.716 -0.2644 -0.2586 -0.3802
  137OSM    H5G14865   3.679   3.329   2.801 -0.0032 -0.4911 -0.2424
  137OSM    C6F14866   3.786   3.502   2.892  0.1500  0.0391 -0.2466
  137OSM    H6F14867   3.709   3.560   2.947 -1.2727 -0.4053 -1.6789
  137OSM    H6G14868   3.844   3.590   2.859 -0.3744  0.3070 -0.4780
  137OSM    C7F14869   3.865   3.409   2.990 -1.2520  0.0052 -0.1793
  137OSM    H7F14870   3.930   3.345   2.927 -1.0731  2.4262 -2.6529
  137OSM    H7G14871   3.793   3.341   3.040  0.1320 -1.1005  0.3783
  137OSM    C8F14872   3.947   3.481   3.093 -0.1931 -0.1362 -0.0180
  137OSM    H8F14873   3.975   3.395   3.157 -0.9227 -0.4507 -0.1156
  137OSM    H8G14874   3.884   3.556   3.146  1.2860  1.8020 -0.8814
  137OSM    C9F14875   4.077   3.546   3.036  0.1706 -0.3888  0.4680
  137OSM    H9F14876   4.078   3.563   2.927 -2.6119  1.4768  0.6324
  137OSM   C10F14877   4.182   3.582   3.111  0.3729 -0.5513  0.7764
  137OSM   H10F14878   4.248   3.665   3.081 -1.5927  1.5227  1.8160
  137OSM   C11F14879   4.181   3.564   3.259  0.5079  0.7231 -0.4660
  137OSM   H11F14880   4.287   3.551   3.290  0.4109 -0.2264 -0.4990
  137OSM   H11G14881   4.141   3.464   3.287 -0.1437  1.1881  0.2888
  137OSM   C12F14882   4.102   3.664   3.338  0.4824 -0.5031 -1.0192
  137OSM   H12F14883   3.994   3.653   3.315  0.3333 -1.8549  0.1581
  137OSM   H12G14884   4.132   3.770   3.327  1.7336 -0.0249  4.2909
  137OSM   C13F14885   4.120   3.627   3.490  0.4457  0.3347  0.8110
  137OSM   H13F14886   4.212   3.679   3.524  0.2030  3.7403 -2.9633
  137OSM   H13G14887   4.131   3.519   3.515 -1.0201  0.6116  2.9240
  137OSM   C14F14888   4.011   3.679   3.578 -0.2709 -0.5898 -0.0195
  137OSM   H14F14889   3.912   3.649   3.538  0.2014 -0.3582 -1.4417
  137OSM   H14G14890   4.017   3.789   3.562  0.2944 -0.6565 -0.2731
  137OSM   C15F14891   4.011   3.638   3.727  0.2149  0.1006  0.5613
  137OSM   H15F14892   4.105   3.678   3.770  0.2864  1.3827 -0.7060
  137OSM   H15G14893   3.994   3.528   3.735 -2.3509  0.5135  2.0421
  137OSM   C16F14894   3.895   3.698   3.804  0.4005  0.0445 -0.6352
  137OSM   H16F14895   3.807   3.667   3.743  0.5783  1.2544 -1.5400
  137OSM   H16G14896   3.906   3.808   3.803 -2.2937  0.4721  2.1109
  137OSM   C17F14897   3.877   3.649   3.949 -0.1275 -0.0721  1.0032
  137OSM   H17F14898   3.963   3.655   4.019 -0.5130 -0.3465  1.5114
  137OSM   H17G14899   3.863   3.539   3.940  0.0667 -0.1015  1.0586
  137OSM   C18F14900   3.760   3.699   4.036  0.5773 -0.4799 -0.1941
  137OSM   H18F14901   3.782   3.674   4.143 -0.3847 -2.7659 -0.4705
  137OSM   H18G14902   3.660   3.659   4.007  0.3363  0.4367 -0.6449
  137OSM   H18H14903   3.741   3.808   4.032  1.1966 -0.3464  0.2441
  138OSM      N14904   1.270   0.289   2.279  0.1888  0.0087  0.2071
  138OSM    C1514905   1.168   0.367   2.347  0.3005 -0.3418  0.0337
  138OSM   H15A14906   1.101   0.409   2.273  0.7035  0.5628  0.1691
  138OSM   H15B14907   1.212   0.450   2.400  0.1793 -0.5624  0.4829
  138OSM   H15C14908   1.099   0.314   2.411 -0.7989  0.4908 -0.4307
  138OSM    C1414909   1.202   0.169   2.226 -0.2974  0.7923  0.0377
  138OSM   H14A14910   1.154   0.105   2.299  2.0774 -0.0587  0.9490
  138OSM   H14B14911   1.270   0.104   2.172 -0.0817 -0.5792  1.8751
  138OSM   H14C14912   1.122   0.193   2.157 -1.0881  0.1747  0.7132
  138OSM    C1314913   1.334   0.363   2.170  0.3995  0.8352 -0.0794
  138OSM   H13A14914   1.392   0.450   2.195 -0.3733  1.0913  0.8827
  138OSM   H13B14915   1.273   0.394   2.087  0.5780  1.8559  0.1621
  138OSM   H13C14916   1.407   0.290   2.137 -0.6066 -0.3117  0.1249
  138OSM    C1214917   1.381   0.241   2.371 -0.5487 -0.3448 -0.0732
  138OSM   H12A14918   1.450   0.175   2.320  1.2356  0.7578  0.8029
  138OSM   H12B14919   1.326   0.199   2.453 -0.0786 -1.0772 -0.1199
  138OSM    C1114920   1.473   0.357   2.416 -0.9584 -0.6108 -0.0476
  138OSM   H11A14921   1.525   0.307   2.501 -1.2629 -1.5176 -0.3784
  138OSM   H11B14922   1.419   0.442   2.462 -2.5552 -1.9595  0.6872
  138OSM      P14923   1.695   0.305   2.275  0.5933  0.3231 -0.4651
  138OSM    O1314924   1.654   0.164   2.262 -0.5350 -0.2435 -0.4365
  138OSM    O1414925   1.758   0.370   2.157  0.3217 -0.4471 -0.3309
  138OSM    O1114926   1.790   0.319   2.399 -0.2502  0.1259  0.0436
  138OSM    O1214927   1.564   0.398   2.312  0.1641 -0.2944 -0.6866
  138OSM    C1S14928   1.849   0.447   2.426  0.2471  0.2630 -0.5760
  138OSM    H1S14929   1.784   0.535   2.412 -0.3389 -0.2451 -1.1146
  138OSM    H1T14930   1.944   0.458   2.370  0.5594 -3.9265 -1.2326
  138OSM     NF14931   1.968   0.576   2.619 -0.6314  0.3664 -0.3195
  138OSM    HNF14932   2.066   0.564   2.623 -0.6494  0.1941 -0.3872
  138OSM    C2S14933   1.884   0.458   2.585 -0.3256  0.0666 -0.5687
  138OSM    H2S14934   1.783   0.470   2.629  0.3226  1.3405  0.6650
  138OSM    C3S14935   1.931   0.323   2.655  0.3562 -0.6799 -0.5173
  138OSM    H3S14936   2.028   0.299   2.606 -0.4868  1.9162 -3.8552
  138OSM     O314937   1.842   0.214   2.628 -0.5839  0.1715 -0.6964
  138OSM    HO314938   1.801   0.229   2.543  0.9399  0.8800 -1.3345
  138OSM    C4S14939   1.954   0.344   2.807 -0.1769  0.2075  0.0561
  138OSM    H4S14940   2.060   0.358   2.833 -0.1856  0.3856 -0.0063
  138OSM    C5S14941   1.860   0.346   2.904  0.7045 -0.1534  0.0162
  138OSM    H5S14942   1.756   0.318   2.886  0.8973 -1.9293  1.3840
  138OSM    C6S14943   1.887   0.368   3.050 -0.0971  0.2131  0.2593
  138OSM    H6S14944   1.820   0.450   3.085  0.1793  2.5557 -4.0078
  138OSM    H6T14945   1.988   0.408   3.070 -0.3013  2.5176 -2.5735
  138OSM    C7S14946   1.846   0.246   3.117  0.1727  0.7507 -0.1437
  138OSM    H7S14947   1.921   0.174   3.078  0.4727 -0.1199  1.8631
  138OSM    H7T14948   1.747   0.205   3.089 -1.1927  2.2587  2.0991
  138OSM    C8S14949   1.855   0.256   3.274 -0.0810 -0.3261 -0.1242
  138OSM    H8S14950   1.763   0.314   3.297 -0.3258  0.3046 -2.3818
  138OSM    H8T14951   1.939   0.323   3.303 -0.8058  0.4118  0.2957
  138OSM    C9S14952   1.849   0.126   3.345 -0.1150 -0.0034 -0.5229
  138OSM    H9S14953   1.931   0.059   3.312 -0.5352 -0.4711 -0.6387
  138OSM    H9T14954   1.755   0.075   3.313 -0.7664  0.7703  0.1126
  138OSM   C10S14955   1.853   0.145   3.502  0.0606  0.9587  0.1264
  138OSM   H10S14956   1.755   0.188   3.531 -0.4150  1.1311 -1.5840
  138OSM   H10T14957   1.938   0.212   3.526  0.8455  0.4557 -1.1139
  138OSM   C11S14958   1.868   0.004   3.569 -0.1760 -0.4035  0.0011
  138OSM   H11S14959   1.959  -0.033   3.518 -1.2463 -1.7167 -1.0562
  138OSM   H11T14960   1.781  -0.054   3.531 -0.3981 -0.8807  1.2012
  138OSM   C12S14961   1.871   0.005   3.721  0.5613  0.1750 -0.2314
  138OSM   H12S14962   1.784   0.056   3.767 -0.8770 -2.2672 -0.0943
  138OSM   H12T14963   1.961   0.051   3.767  0.1712 -1.2263  2.0520
  138OSM   C13S14964   1.868  -0.135   3.780  0.1311  0.0807 -0.2187
  138OSM   H13S14965   1.896  -0.204   3.698 -0.9402 -1.1450  0.3887
  138OSM   H13T14966   1.769  -0.183   3.800  1.0795 -2.6259 -1.5591
  138OSM   C14S14967   1.970  -0.162   3.894 -0.3909  0.2969  0.3588
  138OSM   H14S14968   1.946  -0.095   3.979  1.7926  0.5018  0.8610
  138OSM   H14T14969   2.071  -0.128   3.864  1.1962 -2.8209  1.7270
  138OSM   C15S14970   1.968  -0.311   3.933 -0.2347 -0.0016 -0.0271
  138OSM   H15S14971   2.060  -0.333   3.991  0.8591  2.2505 -0.7964
  138OSM   H15T14972   1.969  -0.382   3.848 -0.1820  1.2008 -1.0587
  138OSM   C16S14973   1.861  -0.347   4.033 -0.0547 -0.1492 -0.3491
  138OSM   H16S14974   1.843  -0.456   4.049 -0.1953  0.0155  0.6540
  138OSM   H16T14975   1.765  -0.301   4.002 -0.2841  0.6657  1.4623
  138OSM   C17S14976   1.874  -0.268   4.164  0.4624  0.7310 -0.3837
  138OSM   H17S14977   1.870  -0.160   4.141  0.6032  0.9479  0.5492
  138OSM   H17T14978   1.978  -0.295   4.193  0.2712  3.0104  3.0093
  138OSM   C18S14979   1.778  -0.311   4.276  0.6120 -0.1438 -0.3491
  138OSM   H18S14980   1.823  -0.301   4.377  1.1930  0.8875 -0.6956
  138OSM   H18T14981   1.756  -0.417   4.252  2.0827 -0.6431  0.3986
  138OSM   H18U14982   1.679  -0.264   4.260  1.2482  1.0815 -0.8321
  138OSM    C1F14983   1.936   0.702   2.609  0.7570  0.4738  0.0731
  138OSM     OF14984   1.820   0.726   2.596 -0.0724  0.1499 -0.2913
  138OSM    C2F14985   2.041   0.806   2.600  0.5363  0.0154 -0.5271
  138OSM    H2F14986   2.052   0.827   2.492 -2.7415 -3.8061 -1.8622
  138OSM    H2G14987   2.135   0.766   2.644  0.1299 -2.4100 -1.6818
  138OSM    C3F14988   2.023   0.932   2.693  0.1422 -0.1530 -0.0343
  138OSM    H3F14989   1.937   0.991   2.655  1.0751  0.4210 -1.3198
  138OSM    H3G14990   2.118   0.990   2.683  2.8639 -3.8981  1.5479
  138OSM    C4F14991   1.994   0.905   2.841 -0.7079 -0.2607 -0.3811
  138OSM    H4F14992   2.079   0.863   2.899 -1.9467 -3.4185 -0.6558
  138OSM    H4G14993   1.915   0.827   2.851  0.3089 -1.3960 -1.0024
  138OSM    C5F14994   1.942   1.026   2.927  0.4090  0.4626 -0.2305
  138OSM    H5F14995   1.862   1.076   2.868 -0.7321 -0.8563  0.1843
  138OSM    H5G14996   2.023   1.102   2.938  0.3011  0.9265 -2.2767
  138OSM    C6F14997   1.886   0.977   3.060  0.1298 -0.5088  0.5577
  138OSM    H6F14998   1.966   0.959   3.136  0.4015  0.8206  0.6021
  138OSM    H6G14999   1.829   0.882   3.047  1.6552 -1.3257 -0.4962
  138OSM    C7F15000   1.789   1.086   3.109  0.1712 -0.2955 -0.0650
  138OSM    H7F15001   1.743   1.057   3.206  0.0049  0.9585  0.2494
  138OSM    H7G15002   1.707   1.094   3.035  1.1367  0.7486 -1.0587
  138OSM    C8F15003   1.853   1.230   3.125 -0.1836  0.1986 -0.1796
  138OSM    H8F15004   1.899   1.264   3.029 -1.4494 -0.6582 -1.1329
  138OSM    H8G15005   1.942   1.216   3.189  0.1640 -1.8494 -1.0361
  138OSM    C9F15006   1.760   1.334   3.175 -0.6947 -0.3932 -0.8180
  138OSM    H9F15007   1.725   1.407   3.100  0.1425  1.5672  0.6321
  138OSM   C10F15008   1.742   1.367   3.310 -0.7720 -0.4116 -0.1253
  138OSM   H10F15009   1.670   1.445   3.337 -1.4818 -1.8627  2.5422
  138OSM   C11F15010   1.803   1.302   3.430 -0.2987 -0.1418  0.2970
  138OSM   H11F15011   1.804   1.194   3.404 -0.7593  0.2041 -1.2990
  138OSM   H11G15012   1.745   1.308   3.525 -2.7423  0.0943 -1.1222
  138OSM   C12F15013   1.941   1.358   3.471  0.5442  0.3860  0.3928
  138OSM   H12F15014   1.924   1.458   3.517  3.5350  0.1343  2.3428
  138OSM   H12G15015   2.001   1.373   3.378 -0.1700 -1.0776 -0.3185
  138OSM   C13F15016   2.017   1.280   3.578 -0.1034  0.1540  0.5824
  138OSM   H13F15017   2.127   1.276   3.559 -0.5078  0.0182 -2.0590
  138OSM   H13G15018   1.992   1.172   3.568  1.1279 -0.2337  1.3701
  138OSM   C14F15019   1.991   1.323   3.724 -0.5120  0.1566 -0.5144
  138OSM   H14F15020   1.882   1.316   3.745 -0.5298 -1.6359 -1.0474
  138OSM   H14G15021   2.008   1.430   3.749  2.1314 -0.9582  3.5053
  138OSM   C15F15022   2.063   1.226   3.818 -0.2841  0.3229  0.1643
  138OSM   H15F15023   2.171   1.236   3.797 -0.7185  2.3608 -1.3309
  138OSM   H15G15024   2.040   1.122   3.785  3.4048  0.2386 -2.7838
  138OSM   C16F15025   2.045   1.245   3.972 -1.3429 -0.2486  0.5112
  138OSM   H16F15026   1.940   1.214   3.992 -0.8615 -1.6588  0.9433
  138OSM   H16G15027   2.064   1.348   4.009 -0.3303 -0.9316  1.9802
  138OSM   C17F15028   2.139   1.146   4.043  0.1420  0.3496  0.6233
  138OSM   H17F15029   2.241   1.173   4.007 -0.7197  0.8289 -1.5870
  138OSM   H17G15030   2.112   1.051   3.993  0.3158  1.1212 -0.9813
  138OSM   C18F15031   2.148   1.161   4.198  0.3743  0.3756  0.7963
  138OSM   H18F15032   2.189   1.263   4.213  0.0638  0.5129  0.7246
  138OSM   H18G15033   2.228   1.094   4.237  0.3833  0.4548  0.9128
  138OSM   H18H15034   2.055   1.157   4.259 -0.3202  4.0132  0.2144
  139OSM      N15035   2.905   1.908   2.116 -0.4427 -0.0054 -0.7064
  139OSM    C1515036   2.873   1.795   2.210  0.0666  0.2532 -0.3235
  139OSM   H15A15037   2.854   1.824   2.312  1.7038 -0.5335  0.2271
  139OSM   H15B15038   2.951   1.720   2.208 -0.4133 -0.2363 -1.3881
  139OSM   H15C15039   2.798   1.729   2.169  1.3110 -1.4731  0.0582
  139OSM    C1415040   2.935   1.848   1.976  0.8947 -0.0015 -0.7077
  139OSM   H14A15041   3.034   1.806   1.965  0.7076 -0.5731 -0.2498
  139OSM   H14B15042   2.927   1.924   1.900 -0.1499  0.3505 -0.2605
  139OSM   H14C15043   2.869   1.766   1.951  0.9126 -0.0767 -0.5086
  139OSM    C1315044   2.777   1.988   2.095 -0.3694 -0.5756 -0.1712
  139OSM   H13A15045   2.760   2.051   2.181  1.7334 -2.2692  1.6371
  139OSM   H13B15046   2.695   1.920   2.080 -1.5545  1.0936 -1.4888
  139OSM   H13C15047   2.792   2.043   2.004 -0.0955 -2.8987 -1.6099
  139OSM    C1215048   3.021   1.987   2.163 -0.2989 -1.1146 -0.9575
  139OSM   H12A15049   3.044   2.070   2.098 -0.0745  0.7257  1.3845
  139OSM   H12B15050   3.105   1.919   2.174 -0.3426 -0.9389  0.6357
  139OSM    C1115051   3.020   2.064   2.299 -0.1054  0.0578  0.0259
  139OSM   H11A15052   3.120   2.106   2.322 -0.2869 -0.1471  1.2216
  139OSM   H11B15053   2.993   1.999   2.384 -3.1040  0.4269 -0.5284
  139OSM      P15054   2.943   2.301   2.213 -0.2614 -0.0252  0.0750
  139OSM    O1315055   3.066   2.291   2.131 -0.5283  0.2531  0.0155
  139OSM    O1415056   2.816   2.331   2.151  0.4886 -0.9064 -0.2767
  139OSM    O1115057   2.966   2.398   2.327 -0.1882 -0.2281 -0.1050
  139OSM    O1215058   2.922   2.164   2.287 -1.2022 -0.5249 -0.4108
  139OSM    C1S15059   2.938   2.375   2.468  0.0181  0.3507 -0.0250
  139OSM    H1S15060   2.862   2.297   2.485  2.3218 -1.5610  2.2992
  139OSM    H1T15061   2.894   2.467   2.511 -2.8523 -0.3423 -1.2833
  139OSM     NF15062   3.034   2.347   2.696 -0.2561  0.1503 -0.1210
  139OSM    HNF15063   3.061   2.424   2.753  0.9827 -0.0362 -0.4180
  139OSM    C2S15064   3.068   2.353   2.557  0.7418 -0.7680 -0.1460
  139OSM    H2S15065   3.115   2.254   2.540 -1.5654 -2.1243  0.8042
  139OSM    C3S15066   3.169   2.461   2.524 -0.3189  0.3032  0.4207
  139OSM    H3S15067   3.130   2.562   2.549  0.0677  0.3559  0.8397
  139OSM     O315068   3.213   2.471   2.387  0.4496  0.0636 -0.3599
  139OSM    HO315069   3.153   2.417   2.335 -0.3335 -0.6118  1.1855
  139OSM    C4S15070   3.284   2.440   2.620 -0.1107 -0.9801 -0.0137
  139OSM    H4S15071   3.260   2.479   2.720 -1.4751  0.7983 -0.9599
  139OSM    C5S15072   3.410   2.382   2.603 -0.3646  0.1969 -0.1020
  139OSM    H5S15073   3.439   2.358   2.499  3.2921  2.2519  0.2866
  139OSM    C6S15074   3.523   2.372   2.703 -0.0959  0.5064  0.2632
  139OSM    H6S15075   3.612   2.410   2.648  0.3061 -3.5664 -2.3270
  139OSM    H6T15076   3.549   2.265   2.713 -0.3082  0.4528  0.2441
  139OSM    C7S15077   3.508   2.441   2.843  0.4969  0.4090  0.3340
  139OSM    H7S15078   3.428   2.387   2.898  1.2641  0.6948  1.7788
  139OSM    H7T15079   3.471   2.544   2.823 -2.2688 -0.3063  1.2199
  139OSM    C8S15080   3.639   2.462   2.919 -0.2268  0.0701 -0.1525
  139OSM    H8S15081   3.698   2.535   2.860 -0.3446  0.9555  0.7801
  139OSM    H8T15082   3.699   2.369   2.917 -2.5576 -1.5420  0.4052
  139OSM    C9S15083   3.608   2.503   3.064  0.1848  0.1383 -0.1358
  139OSM    H9S15084   3.533   2.431   3.103 -1.0540  2.5753  2.3007
  139OSM    H9T15085   3.565   2.605   3.053 -0.2915 -0.1383 -0.9151
  139OSM   C10S15086   3.730   2.503   3.162  0.5496 -0.3691  0.1937
  139OSM   H10S15087   3.802   2.574   3.115 -0.8316  0.9338 -0.0333
  139OSM   H10T15088   3.774   2.401   3.166  0.9915 -0.2592 -1.2616
  139OSM   C11S15089   3.708   2.557   3.304 -0.2818  0.7427  0.1075
  139OSM   H11S15090   3.670   2.661   3.295  0.8171  1.2236  0.8639
  139OSM   H11T15091   3.795   2.549   3.371 -1.7576 -0.6466  1.9855
  139OSM   C12S15092   3.598   2.483   3.393  0.0311  0.1683  1.1211
  139OSM   H12S15093   3.559   2.393   3.341  0.8905  0.8235 -0.7721
  139OSM   H12T15094   3.509   2.549   3.400 -1.9077 -2.2808  0.6452
  139OSM   C13S15095   3.639   2.440   3.532 -0.5120  0.2678  0.5256
  139OSM   H13S15096   3.685   2.521   3.593 -0.9779  0.8759  0.0858
  139OSM   H13T15097   3.720   2.364   3.527 -1.5459 -0.8020 -1.6668
  139OSM   C14S15098   3.521   2.380   3.604 -0.2238  0.1398  0.6664
  139OSM   H14S15099   3.512   2.287   3.544 -0.7530 -0.8369  2.2101
  139OSM   H14T15100   3.435   2.441   3.571 -0.2438 -0.0343  0.3889
  139OSM   C15S15101   3.529   2.346   3.746 -0.1509  0.1928 -0.9162
  139OSM   H15S15102   3.616   2.282   3.773 -1.2666 -1.2331 -0.5566
  139OSM   H15T15103   3.440   2.285   3.773  1.4057 -1.4940  0.7244
  139OSM   C16S15104   3.509   2.476   3.827  0.4306 -0.3043 -0.2468
  139OSM   H16S15105   3.429   2.539   3.782  1.1457  0.4733 -0.4327
  139OSM   H16T15106   3.598   2.542   3.828  0.0702  0.1718  0.9504
  139OSM   C17S15107   3.500   2.438   3.975  0.1545  0.0321 -0.1010
  139OSM   H17S15108   3.399   2.396   3.994 -0.5462  1.3125 -0.8791
  139OSM   H17T15109   3.500   2.528   4.040 -1.4755  0.5731 -0.8163
  139OSM   C18S15110   3.608   2.346   4.031 -0.3502  0.7138 -0.0295
  139OSM   H18S15111   3.607   2.243   3.991 -2.4297  0.3619  0.7962
  139OSM   H18T15112   3.592   2.336   4.140 -2.1965  1.0512 -0.2309
  139OSM   H18U15113   3.710   2.389   4.024  0.7705 -1.9102 -0.7408
  139OSM    C1F15114   2.996   2.233   2.747  0.7238  0.3426 -0.9156
  139OSM     OF15115   2.954   2.144   2.680  0.3106  0.4904  0.2896
  139OSM    C2F15116   3.023   2.213   2.892 -0.2109  0.4664 -0.6128
  139OSM    H2F15117   2.983   2.304   2.942  1.0300  1.3035 -1.1108
  139OSM    H2G15118   3.133   2.223   2.900 -0.0047 -2.0923  0.5498
  139OSM    C3F15119   2.986   2.077   2.952  0.4629  0.1709 -0.1879
  139OSM    H3F15120   3.028   1.996   2.890 -0.0507 -1.7632  1.8441
  139OSM    H3G15121   2.875   2.068   2.955  0.1024  3.4260  0.4591
  139OSM    C4F15122   3.052   2.055   3.092 -0.0780  0.0858 -0.4856
  139OSM    H4F15123   3.154   2.101   3.089 -0.5354  1.0942 -0.9014
  139OSM    H4G15124   3.055   1.944   3.099  0.6609  0.0341 -1.3652
  139OSM    C5F15125   2.980   2.102   3.214  0.1825 -0.0118 -0.4270
  139OSM    H5F15126   2.880   2.063   3.241  0.3930  0.4573  1.1618
  139OSM    H5G15127   2.971   2.213   3.210 -0.4993 -0.1050 -1.9440
  139OSM    C6F15128   3.060   2.066   3.353 -0.1470  0.1705  0.4108
  139OSM    H6F15129   3.042   1.960   3.377 -3.1446  0.4230 -0.2579
  139OSM    H6G15130   3.022   2.133   3.433  1.8589  0.2137  1.3721
  139OSM    C7F15131   3.209   2.094   3.357 -0.6427 -0.3617  0.1888
  139OSM    H7F15132   3.229   2.194   3.311 -0.4716 -0.8953 -0.9350
  139OSM    H7G15133   3.261   2.014   3.300  2.5176  0.9169  1.0885
  139OSM    C8F15134   3.270   2.095   3.503  0.5004  0.5500 -0.6019
  139OSM    H8F15135   3.380   2.101   3.492  0.8848 -0.2663  2.1109
  139OSM    H8G15136   3.247   1.999   3.553  0.7117  1.6263  1.6811
  139OSM    C9F15137   3.222   2.218   3.583  0.1982  0.6366  0.4325
  139OSM    H9F15138   3.249   2.317   3.544  1.6258 -0.3865 -1.3213
  139OSM   C10F15139   3.138   2.214   3.688 -0.1826  0.3827  0.7016
  139OSM   H10F15140   3.101   2.308   3.732  0.1743  1.0012 -0.2906
  139OSM   C11F15141   3.072   2.093   3.751  0.5018  0.4057 -0.0143
  139OSM   H11F15142   3.074   2.006   3.682 -0.8579  0.0259  0.3902
  139OSM   H11G15143   2.965   2.124   3.758 -0.5652 -1.9728 -3.3095
  139OSM   C12F15144   3.123   2.054   3.895  0.3102 -0.9253  0.6526
  139OSM   H12F15145   3.073   1.956   3.913  1.6135 -1.3228  2.5348
  139OSM   H12G15146   3.083   2.131   3.965 -2.9296 -0.6796 -1.3080
  139OSM   C13F15147   3.272   2.027   3.907  0.5062  0.6677 -0.2044
  139OSM   H13F15148   3.333   2.118   3.886  0.4497  0.7802  0.1063
  139OSM   H13G15149   3.308   1.959   3.827 -0.3371 -0.1813  0.1196
  139OSM   C14F15150   3.315   1.979   4.051 -0.2148  0.7567 -0.2792
  139OSM   H14F15151   3.272   2.052   4.123  1.6239  2.2067 -0.5736
  139OSM   H14G15152   3.424   1.994   4.059 -0.1287 -0.0881  0.2213
  139OSM   C15F15153   3.275   1.839   4.100 -1.0640 -0.3451  0.1444
  139OSM   H15F15154   3.317   1.754   4.043 -0.0442  0.7927 -0.8745
  139OSM   H15G15155   3.169   1.819   4.075 -1.8480  0.8869  2.2819
  139OSM   C16F15156   3.285   1.806   4.249  0.3225 -0.3552 -0.4034
  139OSM   H16F15157   3.392   1.818   4.278 -0.3456  0.5832  1.8191
  139OSM   H16G15158   3.267   1.697   4.261  1.1795 -0.3501  1.2479
  139OSM   C17F15159   3.186   1.885   4.338  0.1391  0.0393 -0.1011
  139OSM   H17F15160   3.210   1.993   4.349 -0.7189  0.1422  0.9916
  139OSM   H17G15161   3.185   1.852   4.445 -1.0962 -0.2585 -0.1809
  139OSM   C18F15162   3.035   1.887   4.293 -0.6266 -0.0967  0.2521
  139OSM   H18F15163   2.988   1.787   4.304 -0.0240 -0.3281  0.7353
  139OSM   H18G15164   3.031   1.931   4.191  0.6827 -0.7870 -0.1172
  139OSM   H18H15165   2.978   1.965   4.348  0.1640  0.3274  0.4835
  140OSM      N15166   1.441   1.856   2.182 -0.6382  0.2122 -0.5131
  140OSM    C1515167   1.318   1.920   2.128 -0.6919  0.1444  0.3969
  140OSM   H15A15168   1.243   1.847   2.102  0.5718 -0.9491 -0.2846
  140OSM   H15B15169   1.353   1.979   2.044 -1.1813  0.8798  0.6918
  140OSM   H15C15170   1.279   1.991   2.199  0.2477  0.8159  0.2641
  140OSM    C1415171   1.485   1.729   2.109  0.1292 -0.9390  0.4081
  140OSM   H14A15172   1.506   1.740   2.004  0.1720 -0.8433  0.4269
  140OSM   H14B15173   1.414   1.648   2.119 -0.7223 -0.2271  0.3365
  140OSM   H14C15174   1.575   1.694   2.157  1.8508  1.9160 -0.5135
  140OSM    C1315175   1.546   1.965   2.163 -0.2614 -0.4864 -0.2477
  140OSM   H13A15176   1.504   2.062   2.184  1.1615  0.1565 -0.2759
  140OSM   H13B15177   1.582   1.979   2.062  0.8212  0.0032  0.2028
  140OSM   H13C15178   1.631   1.946   2.227  0.8119  0.2124 -1.4298
  140OSM    C1215179   1.431   1.827   2.333  0.1500  0.2647  0.2413
  140OSM   H12A15180   1.521   1.784   2.373  0.3481  1.0605  0.6827
  140OSM   H12B15181   1.353   1.761   2.367  0.7345  1.0872  3.4968
  140OSM    C1115182   1.408   1.954   2.425  0.2850 -0.4997 -0.0104
  140OSM   H11A15183   1.476   2.039   2.404  0.0246 -0.7000 -1.8432
  140OSM   H11B15184   1.440   1.914   2.524  2.5930  0.2629 -0.3953
  140OSM      P15185   1.163   1.892   2.464  0.1586 -0.0524  0.4745
  140OSM    O1315186   1.081   1.864   2.344  0.2410 -0.1554  0.3314
  140OSM    O1415187   1.233   1.779   2.539 -0.2219  0.4883  0.5219
  140OSM    O1115188   1.081   1.977   2.562 -0.1015  0.1167 -1.0059
  140OSM    O1215189   1.274   1.992   2.413  0.1552 -1.0931  0.2675
  140OSM    C1S15190   1.044   1.940   2.693  1.1310  0.3033  0.7758
  140OSM    H1S15191   1.022   1.831   2.693  0.3947  0.3700 -2.1904
  140OSM    H1T15192   0.955   2.003   2.711 -0.5823 -1.4135 -1.2753
  140OSM     NF15193   1.132   1.923   2.932  0.5140  0.5235 -0.1621
  140OSM    HNF15194   1.107   1.993   2.998 -0.1426  0.9809 -0.8868
  140OSM    C2S15195   1.154   1.976   2.800 -0.1179 -0.0276  0.3024
  140OSM    H2S15196   1.252   1.933   2.771 -0.4475 -1.1756  0.8216
  140OSM    C3S15197   1.169   2.131   2.797  0.4311  0.1428 -0.4364
  140OSM    H3S15198   1.072   2.179   2.824  1.8140  2.5798  0.5740
  140OSM     O315199   1.196   2.198   2.676  0.3948 -0.0836  0.4447
  140OSM    HO315200   1.159   2.138   2.611  0.0808  1.9245 -1.3618
  140OSM    C4S15201   1.269   2.164   2.903  0.7893  0.5293  0.5381
  140OSM    H4S15202   1.231   2.187   3.004 -0.5008 -1.7615  0.6256
  140OSM    C5S15203   1.402   2.174   2.884  0.1581  0.7509 -0.3079
  140OSM    H5S15204   1.442   2.182   2.782 -0.2909 -1.4334 -0.7071
  140OSM    C6S15205   1.506   2.205   2.993  0.9054  0.3040  0.0445
  140OSM    H6S15206   1.546   2.304   2.961 -1.1342  1.6765  1.5232
  140OSM    H6T15207   1.591   2.133   2.990  0.0814 -0.6752 -0.2543
  140OSM    C7S15208   1.459   2.202   3.136  0.5237 -0.3504  0.3804
  140OSM    H7S15209   1.401   2.109   3.158  0.4736 -1.5439 -3.9924
  140OSM    H7T15210   1.388   2.282   3.168  0.7339 -0.0451  0.0859
  140OSM    C8S15211   1.574   2.212   3.234 -0.0134  0.1991 -0.0066
  140OSM    H8S15212   1.618   2.314   3.228 -1.6379  0.9530  0.2291
  140OSM    H8T15213   1.652   2.137   3.209  0.0897  0.3042 -0.0007
  140OSM    C9S15214   1.528   2.172   3.376 -0.2249  0.1471  0.1740
  140OSM    H9S15215   1.492   2.067   3.381  1.3436 -0.5670 -1.7604
  140OSM    H9T15216   1.443   2.239   3.401 -1.3835 -1.0460 -0.4344
  140OSM   C10S15217   1.639   2.185   3.472  0.0834 -0.3137 -0.7859
  140OSM   H10S15218   1.683   2.287   3.473 -0.2931 -0.0766  2.4159
  140OSM   H10T15219   1.721   2.113   3.449  1.9527  0.9669  1.4344
  140OSM   C11S15220   1.581   2.147   3.611  0.4787  0.0816  0.3830
  140OSM   H11S15221   1.538   2.044   3.612 -0.8104  0.5920  0.1484
  140OSM   H11T15222   1.487   2.203   3.629 -0.0128 -1.1513  1.9197
  140OSM   C12S15223   1.675   2.153   3.733  0.4224  0.1085  0.9026
  140OSM   H12S15224   1.680   2.259   3.767 -0.7386 -0.1536  1.9217
  140OSM   H12T15225   1.778   2.131   3.696 -0.0801 -0.2579 -0.3387
  140OSM   C13S15226   1.639   2.062   3.853 -0.1737  0.5565 -0.2100
  140OSM   H13S15227   1.631   1.955   3.823  2.7985  0.4557 -0.9404
  140OSM   H13T15228   1.553   2.099   3.912  0.7913  1.0671  0.9161
  140OSM   C14S15229   1.758   2.065   3.953 -0.5198 -0.4310 -0.1714
  140OSM   H14S15230   1.786   2.173   3.953 -0.0456 -0.5500  0.3914
  140OSM   H14T15231   1.846   2.019   3.903 -1.3488  0.3211 -2.4701
  140OSM   C15S15232   1.736   1.994   4.087 -0.3100  0.3423 -0.4754
  140OSM   H15S15233   1.802   1.904   4.089 -0.3755  0.2881 -0.6669
  140OSM   H15T15234   1.633   1.953   4.082  0.0882 -0.7975  0.1898
  140OSM   C16S15235   1.769   2.087   4.204 -0.7667 -0.3523 -0.6699
  140OSM   H16S15236   1.699   2.173   4.195  0.4444  0.7195 -0.2027
  140OSM   H16T15237   1.876   2.117   4.192 -0.8633 -0.1433 -1.0353
  140OSM   C17S15238   1.746   2.031   4.344 -0.5761  0.9272  0.6230
  140OSM   H17S15239   1.836   1.972   4.369 -0.8739  0.1088 -0.1807
  140OSM   H17T15240   1.655   1.968   4.341 -1.3635  2.0420  0.3108
  140OSM   C18S15241   1.727   2.138   4.456  0.1341 -0.0924 -0.4787
  140OSM   H18S15242   1.730   2.097   4.559 -2.3996 -0.3219 -0.4391
  140OSM   H18T15243   1.631   2.189   4.433 -0.4430 -0.8780  0.1329
  140OSM   H18U15244   1.806   2.216   4.457 -1.3571  1.4683  0.1104
  140OSM    C1F15245   1.118   1.797   2.963 -0.2692  0.1018  0.6875
  140OSM     OF15246   1.160   1.708   2.883  0.1452  0.6829 -0.0442
  140OSM    C2F15247   1.064   1.763   3.104 -0.0011  0.0603  0.1373
  140OSM    H2F15248   0.961   1.805   3.106 -0.6140 -1.2022 -1.7697
  140OSM    H2G15249   1.126   1.816   3.179  0.3543  2.2410 -1.5698
  140OSM    C3F15250   1.040   1.616   3.128  0.0876 -0.2484  1.2647
  140OSM    H3F15251   1.134   1.556   3.118  0.8542  1.1176 -0.0741
  140OSM    H3G15252   0.969   1.587   3.047  1.1465  0.9091 -0.1428
  140OSM    C4F15253   0.963   1.576   3.252  0.4071 -0.0208 -0.0305
  140OSM    H4F15254   0.948   1.466   3.252 -1.9451  0.2457 -0.4919
  140OSM    H4G15255   0.862   1.622   3.251  0.4784  0.1566  0.5550
  140OSM    C5F15256   1.020   1.611   3.394  0.3315 -0.1328 -0.0671
  140OSM    H5F15257   1.049   1.718   3.398 -1.3816  0.3309  0.8724
  140OSM    H5G15258   1.114   1.555   3.416  1.4432  2.0164  0.9119
  140OSM    C6F15259   0.919   1.578   3.510 -0.0691  0.3583  0.0985
  140OSM    H6F15260   0.916   1.467   3.519  1.5678  0.3424  0.8627
  140OSM    H6G15261   0.815   1.601   3.478 -0.3421 -0.3936  0.4216
  140OSM    C7F15262   0.963   1.658   3.642 -0.3061  0.2938 -0.0092
  140OSM    H7F15263   0.970   1.763   3.607  0.0484  0.0908 -0.5665
  140OSM    H7G15264   1.071   1.636   3.658  0.7775  4.2730 -0.8184
  140OSM    C8F15265   0.887   1.641   3.771  0.3238  0.3001 -0.0572
  140OSM    H8F15266   0.954   1.693   3.843 -0.3074 -0.8256  1.3934
  140OSM    H8G15267   0.876   1.535   3.803 -2.8401  0.4568 -0.3180
  140OSM    C9F15268   0.756   1.712   3.761  0.0143  0.8524 -0.1156
  140OSM    H9F15269   0.692   1.682   3.677  0.7556 -0.3331 -0.2838
  140OSM   C10F15270   0.723   1.813   3.838 -0.9579  0.3233  0.1594
  140OSM   H10F15271   0.622   1.857   3.828 -0.1207  2.9992  2.1595
  140OSM   C11F15272   0.807   1.886   3.941  0.7376 -0.3439  1.0573
  140OSM   H11F15273   0.813   1.992   3.909 -2.2427 -0.4013  0.0698
  140OSM   H11G15274   0.912   1.853   3.955  1.3983  1.8856  1.7200
  140OSM   C12F15275   0.755   1.884   4.084  0.2477 -0.2354 -0.6108
  140OSM   H12F15276   0.766   1.787   4.136  0.9276  1.6695  3.1404
  140OSM   H12G15277   0.647   1.906   4.081 -0.0344 -1.3952  0.3850
  140OSM   C13F15278   0.834   1.987   4.168  0.2224  0.1697  0.3940
  140OSM   H13F15279   0.822   2.091   4.128  1.2221  0.2777  0.3569
  140OSM   H13G15280   0.941   1.960   4.157 -0.1165 -0.7893 -0.6701
  140OSM   C14F15281   0.809   1.996   4.320  0.3430 -0.4224  0.1158
  140OSM   H14F15282   0.858   2.073   4.384 -0.8436 -0.7442  1.4624
  140OSM   H14G15283   0.845   1.897   4.355 -0.1104 -0.5024  0.3606
  140OSM   C15F15284   0.662   1.978   4.356  0.2070  0.9111 -0.1763
  140OSM   H15F15285   0.629   1.878   4.320  0.7479  0.3260  0.9221
  140OSM   H15G15286   0.597   2.055   4.309 -1.9293 -0.3995  0.4664
  140OSM   C16F15287   0.636   1.981   4.507  0.0738  0.5275  0.1469
  140OSM   H16F15288   0.646   2.091   4.523  0.0826  1.4919 -4.7501
  140OSM   H16G15289   0.711   1.922   4.564  1.6409 -1.5650 -3.7066
  140OSM   C17F15290   0.498   1.925   4.543 -0.6207 -0.2344  0.3812
  140OSM   H17F15291   0.505   1.814   4.536 -2.6676 -0.3829  0.0876
  140OSM   H17G15292   0.429   1.946   4.458 -1.5543  0.1059  1.1912
  140OSM   C18F15293   0.441   1.967   4.675 -0.0994 -0.3606 -0.3954
  140OSM   H18F15294   0.341   1.921   4.694 -0.5644  1.1866  1.1139
  140OSM   H18G15295   0.437   2.077   4.663  1.9339 -0.4910 -3.3604
  140OSM   H18H15296   0.502   1.936   4.762 -1.8770  0.1297  1.0818
  141OSM      N15297   3.290   5.243   2.015  0.6616  0.0529 -0.3687
  141OSM    C1515298   3.378   5.360   2.037 -0.0089 -0.4082 -0.0716
  141OSM   H15A15299   3.472   5.314   2.064 -0.5126 -1.7741 -0.5694
  141OSM   H15B15300   3.354   5.434   2.112  1.1765 -1.7084  1.6606
  141OSM   H15C15301   3.398   5.414   1.946  2.5381  1.3098  1.3749
  141OSM    C1415302   3.136   5.282   2.019 -0.7668  0.1325  0.3786
  141OSM   H14A15303   3.130   5.370   1.957 -0.8255  0.7742  1.2807
  141OSM   H14B15304   3.099   5.316   2.114 -1.0737  3.0696 -0.7096
  141OSM   H14C15305   3.086   5.193   1.984 -0.4695  0.6367 -1.4603
  141OSM    C1315306   3.313   5.196   1.875 -0.4554  0.0352 -0.4201
  141OSM   H13A15307   3.314   5.264   1.790  0.9265 -0.6468 -0.9799
  141OSM   H13B15308   3.240   5.123   1.845  0.3864 -0.3554 -1.5991
  141OSM   H13C15309   3.412   5.153   1.869 -1.5802 -3.6136  3.2022
  141OSM    C1215310   3.307   5.140   2.126 -0.3271  0.2331 -0.0352
  141OSM   H12A15311   3.247   5.056   2.096 -1.3197  0.6686  0.6923
  141OSM   H12B15312   3.253   5.174   2.213 -2.5141 -0.6152 -0.9887
  141OSM    C1115313   3.451   5.101   2.164 -0.1727  0.6850  0.0201
  141OSM   H11A15314   3.507   5.074   2.072  1.7034  1.7531  0.7960
  141OSM   H11B15315   3.454   5.010   2.228  1.5616  0.4515 -0.3322
  141OSM      P15316   3.667   5.226   2.236 -0.2647 -0.0295  0.0923
  141OSM    O1315317   3.712   5.280   2.107 -0.2657 -0.4526 -0.9230
  141OSM    O1415318   3.696   5.310   2.352  0.2281  0.4989 -0.2277
  141OSM    O1115319   3.736   5.083   2.248 -0.3496 -0.0063  0.4162
  141OSM    O1215320   3.515   5.215   2.222  0.5632 -0.0794 -0.2447
  141OSM    C1S15321   3.832   5.065   2.351  0.1536  0.0378 -0.9818
  141OSM    H1S15322   3.889   5.154   2.384  0.9879 -1.7387  2.9766
  141OSM    H1T15323   3.912   4.997   2.315  0.4962 -0.4550  0.6417
  141OSM     NF15324   3.867   5.008   2.597  0.0560  0.4060 -0.3307
  141OSM    HNF15325   3.915   4.930   2.637  1.9529  1.3909 -0.5727
  141OSM    C2S15326   3.777   4.992   2.486  0.0580 -0.3485 -0.2945
  141OSM    H2S15327   3.689   5.053   2.517  2.0740  0.6807  4.2606
  141OSM    C3S15328   3.742   4.845   2.445 -0.3518  0.3093 -0.2631
  141OSM    H3S15329   3.837   4.788   2.440  0.6984  1.9872 -0.0666
  141OSM     O315330   3.680   4.828   2.321  0.5467  0.9177 -0.3427
  141OSM    HO315331   3.677   4.918   2.290 -0.9982  0.7585 -0.7386
  141OSM    C4S15332   3.657   4.788   2.559 -0.1636 -0.9478 -0.8598
  141OSM    H4S15333   3.577   4.851   2.599  0.0576 -1.8582  1.0991
  141OSM    C5S15334   3.684   4.683   2.635 -0.5139  0.4092  0.3256
  141OSM    H5S15335   3.777   4.630   2.610 -0.9918  0.2392 -1.2101
  141OSM    C6S15336   3.606   4.633   2.758 -0.5868 -0.3854  0.4753
  141OSM    H6S15337   3.667   4.645   2.850  1.0887 -2.3667 -0.2719
  141OSM    H6T15338   3.581   4.526   2.740  0.1466 -0.3081 -1.3012
  141OSM    C7S15339   3.467   4.704   2.768 -0.5201  0.1149 -0.0013
  141OSM    H7S15340   3.422   4.699   2.666  1.9277 -0.4060 -1.1253
  141OSM    H7T15341   3.491   4.808   2.798 -0.9900  0.1997  0.0855
  141OSM    C8S15342   3.386   4.635   2.875  0.2001  0.0193  0.4556
  141OSM    H8S15343   3.450   4.629   2.966 -0.1179  4.4604  1.2036
  141OSM    H8T15344   3.371   4.531   2.840  1.8687  0.6096 -2.2935
  141OSM    C9S15345   3.257   4.702   2.919 -0.7244 -0.4623  0.4351
  141OSM    H9S15346   3.182   4.675   2.842 -1.2253  1.8283  0.0713
  141OSM    H9T15347   3.278   4.811   2.913  1.5903 -0.9077 -1.2716
  141OSM   C10S15348   3.211   4.659   3.062 -1.1722 -0.1297 -0.1023
  141OSM   H10S15349   3.213   4.548   3.072  1.2738 -0.1481 -0.2266
  141OSM   H10T15350   3.108   4.693   3.087 -0.1324  1.5779  2.1597
  141OSM   C11S15351   3.297   4.714   3.173 -0.2904  0.1598  0.8636
  141OSM   H11S15352   3.261   4.817   3.196 -1.2660  0.0091  0.0787
  141OSM   H11T15353   3.402   4.725   3.138 -0.1573 -0.9953  0.8480
  141OSM   C12S15354   3.289   4.637   3.306 -0.5447 -0.0224 -0.6603
  141OSM   H12S15355   3.284   4.529   3.280 -0.3163  0.1492 -1.4166
  141OSM   H12T15356   3.185   4.658   3.340 -0.6784  1.3871 -1.8699
  141OSM   C13S15357   3.386   4.689   3.410 -0.4297  0.3221  0.5407
  141OSM   H13S15358   3.356   4.796   3.423  1.0872  0.7848  0.4244
  141OSM   H13T15359   3.491   4.694   3.374 -0.2595  0.3706  1.0361
  141OSM   C14S15360   3.390   4.614   3.546 -0.1187  0.1477 -0.2267
  141OSM   H14S15361   3.424   4.509   3.535  1.1733 -0.1469  4.4100
  141OSM   H14T15362   3.293   4.613   3.600 -1.6509  4.4951 -2.4051
  141OSM   C15S15363   3.501   4.664   3.645  0.1395  0.1149  0.4767
  141OSM   H15S15364   3.465   4.758   3.692  1.1874  0.4496  0.6390
  141OSM   H15T15365   3.594   4.686   3.587 -0.1524 -0.2873 -0.1590
  141OSM   C16S15366   3.536   4.559   3.753 -0.0921  0.0090 -0.3718
  141OSM   H16S15367   3.567   4.466   3.701  0.7448 -0.2240  0.5117
  141OSM   H16T15368   3.443   4.534   3.809  0.0673 -1.2690 -0.6368
  141OSM   C17S15369   3.661   4.598   3.834  0.1326  0.1469 -0.1425
  141OSM   H17S15370   3.684   4.706   3.822 -0.1171  0.5734  2.5387
  141OSM   H17T15371   3.746   4.547   3.785  1.0458  0.5667  0.9534
  141OSM   C18S15372   3.647   4.579   3.986 -0.4427 -0.6282  0.0134
  141OSM   H18S15373   3.549   4.622   4.014 -0.5099 -0.1498 -0.9272
  141OSM   H18T15374   3.732   4.628   4.039 -0.0284  0.3779 -1.5063
  141OSM   H18U15375   3.649   4.471   4.013 -0.5937 -0.3238  1.2747
  141OSM    C1F15376   3.885   5.123   2.652 -0.1479  0.3503 -0.2499
  141OSM     OF15377   3.826   5.225   2.622 -0.3863 -0.3375  0.1228
  141OSM    C2F15378   3.990   5.120   2.756 -0.1005  0.3028  0.2612
  141OSM    H2F15379   4.065   5.178   2.698 -1.3156  0.3716 -1.2829
  141OSM    H2G15380   4.019   5.014   2.775 -2.0826 -0.2103  0.6545
  141OSM    C3F15381   3.949   5.192   2.882  0.0412 -0.4800  0.1323
  141OSM    H3F15382   3.846   5.166   2.912  0.1799 -0.7819  0.3509
  141OSM    H3G15383   3.954   5.297   2.846  1.6497 -0.1914  1.1083
  141OSM    C4F15384   4.049   5.172   2.998  0.4307  0.5969 -1.3936
  141OSM    H4F15385   4.026   5.245   3.079 -1.3424  1.4220 -2.5688
  141OSM    H4G15386   4.156   5.192   2.976  1.1017 -1.2074  0.0543
  141OSM    C5F15387   4.029   5.028   3.058 -0.1412  0.2912  0.6586
  141OSM    H5F15388   4.042   4.968   2.965  0.3980 -0.2109  1.0482
  141OSM    H5G15389   3.929   5.019   3.105 -0.1409 -1.5961  0.3697
  141OSM    C6F15390   4.139   4.975   3.154 -0.0924  0.2268  0.5506
  141OSM    H6F15391   4.227   4.969   3.087  1.2752  0.5546  2.2478
  141OSM    H6G15392   4.109   4.872   3.183  2.2647 -0.5588  0.3860
  141OSM    C7F15393   4.158   5.059   3.275 -0.2889  0.0909  0.5788
  141OSM    H7F15394   4.052   5.084   3.296 -0.5561  0.5699 -1.1748
  141OSM    H7G15395   4.206   5.149   3.232  0.0092  0.5097  1.7339
  141OSM    C8F15396   4.242   4.993   3.387 -0.5023  0.3428  0.2501
  141OSM    H8F15397   4.195   4.894   3.403  1.3003 -0.7122 -0.7036
  141OSM    H8G15398   4.245   5.045   3.485  1.3656 -2.2352  1.6687
  141OSM    C9F15399   4.380   4.955   3.341  0.5050  0.5501  0.5051
  141OSM    H9F15400   4.395   4.976   3.234  0.8836  0.9473  0.6327
  141OSM   C10F15401   4.474   4.907   3.413 -0.3620 -0.1950 -0.5418
  141OSM   H10F15402   4.578   4.902   3.378  0.6368  5.7398  0.5796
  141OSM   C11F15403   4.473   4.883   3.560 -0.6239  0.7369 -1.0196
  141OSM   H11F15404   4.502   4.779   3.588 -1.9589  0.4364 -0.6798
  141OSM   H11G15405   4.370   4.885   3.601  0.0145  2.3201  0.6339
  141OSM   C12F15406   4.559   4.965   3.659 -0.0251 -0.2689 -0.8254
  141OSM   H12F15407   4.510   5.065   3.661 -1.5404 -0.9888  0.2681
  141OSM   H12G15408   4.663   4.965   3.620 -0.3626  2.1310 -1.9126
  141OSM   C13F15409   4.554   4.904   3.799  0.5667  0.4436  0.2553
  141OSM   H13F15410   4.568   4.793   3.799  0.3800  0.3182 -2.8026
  141OSM   H13G15411   4.445   4.897   3.824  0.5437 -1.9648 -0.2746
  141OSM   C14F15412   4.628   4.995   3.897 -0.7818  0.7637  0.0202
  141OSM   H14F15413   4.571   5.090   3.902 -0.0313  1.2086  0.3690
  141OSM   H14G15414   4.733   5.015   3.865 -0.7219 -0.0748 -0.3343
  141OSM   C15F15415   4.633   4.935   4.035 -0.1137 -0.4941 -0.0803
  141OSM   H15F15416   4.703   4.849   4.033 -1.2141 -1.4076  0.0073
  141OSM   H15G15417   4.530   4.902   4.061  0.2310 -0.5183  1.3070
  141OSM   C16F15418   4.675   5.034   4.146  0.0996 -0.0208 -0.3462
  141OSM   H16F15419   4.602   5.117   4.137  0.7575  0.6017 -0.0214
  141OSM   H16G15420   4.774   5.081   4.130  1.1313 -1.7951  0.4978
  141OSM   C17F15421   4.678   4.970   4.292  0.1599 -0.2050 -0.1025
  141OSM   H17F15422   4.762   4.897   4.286  1.4048  0.8839  2.3123
  141OSM   H17G15423   4.590   4.906   4.314  0.6101 -0.3709  1.3450
  141OSM   C18F15424   4.708   5.061   4.413  0.0811  0.0421 -0.1628
  141OSM   H18F15425   4.793   5.130   4.393  0.6337 -1.4844 -3.6399
  141OSM   H18G15426   4.729   5.006   4.507  1.3818 -0.8191 -0.9274
  141OSM   H18H15427   4.614   5.119   4.426 -0.2038 -0.7440  1.5472
  142OSM      N15428   4.134   6.623   1.803  0.5869  0.2324  0.2913
  142OSM    C1515429   4.222   6.730   1.761 -0.5222  0.0177 -0.1886
  142OSM   H15A15430   4.177   6.798   1.691  0.5352 -0.2340 -1.1498
  142OSM   H15B15431   4.311   6.683   1.722  0.0017  0.3481  0.5860
  142OSM   H15C15432   4.256   6.781   1.849 -2.2868 -1.4354  1.4247
  142OSM    C1415433   4.094   6.544   1.676 -0.0709  0.3074 -0.0145
  142OSM   H14A15434   4.030   6.591   1.603 -2.7475  0.0253  1.9966
  142OSM   H14B15435   4.055   6.448   1.706  1.3990 -0.6673 -1.0536
  142OSM   H14C15436   4.188   6.518   1.629 -0.7380 -1.0137 -0.6717
  142OSM    C1315437   4.222   6.539   1.886  0.1546  0.0340  0.5551
  142OSM   H13A15438   4.287   6.483   1.820 -1.6029 -0.7478 -0.6222
  142OSM   H13B15439   4.156   6.473   1.940 -1.0506  1.1669  0.5262
  142OSM   H13C15440   4.274   6.592   1.964  1.2582  1.6211 -1.1929
  142OSM    C1215441   4.013   6.677   1.879  0.0116 -0.2674  0.0080
  142OSM   H12A15442   3.950   6.741   1.820 -1.0206 -2.2707 -1.1659
  142OSM   H12B15443   4.061   6.737   1.956  1.3409  0.5021 -1.3497
  142OSM    C1115444   3.907   6.588   1.939  0.4724  0.5967 -0.1896
  142OSM   H11A15445   3.859   6.541   1.850  0.0746  1.2170 -0.3089
  142OSM   H11B15446   3.824   6.642   1.990 -1.1467 -2.5075  0.7444
  142OSM      P15447   3.961   6.513   2.189 -0.1560 -0.3827  0.0191
  142OSM    O1315448   3.833   6.472   2.247 -0.1946 -0.6313 -0.1385
  142OSM    O1415449   4.074   6.439   2.242 -0.2830 -0.2160 -0.0299
  142OSM    O1115450   3.984   6.664   2.212 -0.0492 -0.3493  0.2544
  142OSM    O1215451   3.956   6.493   2.033 -0.4867  0.1474 -0.3757
  142OSM    C1S15452   3.908   6.740   2.305 -0.5500  0.1548  0.3653
  142OSM    H1S15453   3.803   6.703   2.307  0.1461 -2.0122  2.0242
  142OSM    H1T15454   3.907   6.844   2.266  3.4783  0.4387  0.5673
  142OSM     NF15455   3.866   6.832   2.528  0.0657  0.0513 -0.1776
  142OSM    HNF15456   3.880   6.930   2.540  1.4480 -0.0408 -0.8918
  142OSM    C2S15457   3.964   6.755   2.450  0.4465  0.2148  0.0051
  142OSM    H2S15458   3.969   6.651   2.489  2.1422  1.0300  2.1666
  142OSM    C3S15459   4.107   6.821   2.449  0.0698  0.3183  0.5337
  142OSM    H3S15460   4.087   6.928   2.427 -1.1257  0.0581  0.2711
  142OSM     O315461   4.195   6.786   2.337 -0.2507  0.5671  0.2446
  142OSM    HO315462   4.123   6.771   2.275 -1.2667 -0.6930  1.6644
  142OSM    C4S15463   4.165   6.820   2.590 -0.5745 -0.1809 -0.3853
  142OSM    H4S15464   4.122   6.897   2.656 -0.3074  0.5827 -1.0720
  142OSM    C5S15465   4.259   6.730   2.629  0.3384 -0.5835  0.3306
  142OSM    H5S15466   4.283   6.649   2.559  0.4729  2.0975 -3.0238
  142OSM    C6S15467   4.329   6.720   2.757 -0.6695 -0.6275 -0.4181
  142OSM    H6S15468   4.434   6.758   2.759 -2.2124  4.1905  0.3283
  142OSM    H6T15469   4.325   6.612   2.782  0.6643 -0.4774  0.5180
  142OSM    C7S15470   4.271   6.789   2.883 -0.2240  0.5136 -0.8604
  142OSM    H7S15471   4.169   6.745   2.890  0.1721 -0.1907  0.8853
  142OSM    H7T15472   4.266   6.899   2.869  2.9250  0.8335 -0.0510
  142OSM    C8S15473   4.345   6.752   3.016  0.2663 -0.6843  0.1225
  142OSM    H8S15474   4.445   6.799   3.012  0.3023 -0.8280 -0.8969
  142OSM    H8T15475   4.365   6.643   3.025 -0.1522 -0.6516  2.1164
  142OSM    C9S15476   4.273   6.798   3.146  0.7525 -0.3431 -0.5761
  142OSM    H9S15477   4.173   6.750   3.150  0.6214 -0.2202 -1.9645
  142OSM    H9T15478   4.250   6.906   3.141  0.0230 -0.5300 -1.5305
  142OSM   C10S15479   4.358   6.768   3.273  0.0685  0.5675  0.0818
  142OSM   H10S15480   4.454   6.821   3.256 -0.0805  1.4480  1.7159
  142OSM   H10T15481   4.367   6.657   3.266  2.2016  0.7712 -1.3049
  142OSM   C11S15482   4.297   6.824   3.402 -0.3426  0.8826 -0.3499
  142OSM   H11S15483   4.205   6.767   3.425  0.2035  1.1007  2.8844
  142OSM   H11T15484   4.278   6.933   3.392 -2.4411  0.5776 -0.0885
  142OSM   C12S15485   4.388   6.797   3.524  0.6914 -0.0166 -0.1748
  142OSM   H12S15486   4.474   6.867   3.516  0.6998 -0.1074 -0.9860
  142OSM   H12T15487   4.412   6.689   3.528 -0.0998 -0.1811  0.2705
  142OSM   C13S15488   4.310   6.833   3.657  0.3695  0.6845  0.2066
  142OSM   H13S15489   4.226   6.767   3.686 -0.0668  1.7232  1.3887
  142OSM   H13T15490   4.262   6.930   3.636 -1.1851 -0.4598 -1.9443
  142OSM   C14S15491   4.413   6.852   3.776  0.1045 -0.1394  0.0528
  142OSM   H14S15492   4.505   6.894   3.730  1.5397 -2.0436  1.0017
  142OSM   H14T15493   4.430   6.751   3.821 -1.0673 -1.1866 -1.7405
  142OSM   C15S15494   4.380   6.944   3.893  0.9313 -0.2017  0.0727
  142OSM   H15S15495   4.345   7.041   3.853  0.6552 -0.4969 -0.4141
  142OSM   H15T15496   4.462   6.953   3.968  1.3253 -1.0584 -0.2346
  142OSM   C16S15497   4.251   6.886   3.964 -0.1158  0.3069  0.5619
  142OSM   H16S15498   4.205   6.837   3.876  3.0067 -4.1298  1.0528
  142OSM   H16T15499   4.187   6.971   3.998 -1.1799  0.4123 -1.5306
  142OSM   C17S15500   4.277   6.775   4.064 -0.2784 -0.3995 -0.2374
  142OSM   H17S15501   4.338   6.813   4.149 -1.0315 -1.5495  0.8417
  142OSM   H17T15502   4.331   6.693   4.013  0.1288 -0.0948 -0.3083
  142OSM   C18S15503   4.147   6.717   4.121 -0.3350 -0.0587  0.0197
  142OSM   H18S15504   4.120   6.637   4.048  0.0476 -0.1431 -0.0315
  142OSM   H18T15505   4.066   6.794   4.120 -0.5029 -0.2091 -1.9028
  142OSM   H18U15506   4.157   6.675   4.223 -0.2753  0.0845  0.0732
  142OSM    C1F15507   3.753   6.779   2.579 -0.4541  0.4189 -0.8620
  142OSM     OF15508   3.741   6.656   2.593  0.2438 -0.5585 -0.0245
  142OSM    C2F15509   3.653   6.871   2.620  0.0797 -0.7154  0.3988
  142OSM    H2F15510   3.582   6.885   2.536  1.1605 -1.1697 -0.6123
  142OSM    H2G15511   3.689   6.975   2.636 -1.0861 -0.2384  0.0292
  142OSM    C3F15512   3.581   6.823   2.740  0.7347  0.0273 -0.9362
  142OSM    H3F15513   3.535   6.722   2.737  0.2540  0.0795  1.8320
  142OSM    H3G15514   3.499   6.892   2.770  0.7259 -0.8574  1.2914
  142OSM    C4F15515   3.664   6.826   2.874 -0.2701  0.2798 -0.2454
  142OSM    H4F15516   3.767   6.791   2.850  0.5160  0.5783  2.4440
  142OSM    H4G15517   3.614   6.760   2.947  0.0110  0.6564  0.2945
  142OSM    C5F15518   3.686   6.971   2.926 -0.2488 -0.4862  0.3396
  142OSM    H5F15519   3.587   7.020   2.936 -0.5613 -0.9574 -0.3703
  142OSM    H5G15520   3.747   7.028   2.853 -0.5590 -1.1470 -0.4488
  142OSM    C6F15521   3.753   6.967   3.067 -0.4690  0.5751 -0.3408
  142OSM    H6F15522   3.787   7.069   3.097  2.3173 -0.7815  1.4968
  142OSM    H6G15523   3.846   6.909   3.048 -1.2088 -0.2571 -1.5777
  142OSM    C7F15524   3.663   6.907   3.182  0.0406  0.4934  0.1026
  142OSM    H7F15525   3.665   6.796   3.175 -1.2127  0.4915 -0.5568
  142OSM    H7G15526   3.560   6.948   3.170 -0.5550 -0.2737  2.2313
  142OSM    C8F15527   3.699   6.958   3.320  0.4901  0.2112 -0.0962
  142OSM    H8F15528   3.626   6.931   3.399  0.0561  0.6602 -0.3403
  142OSM    H8G15529   3.698   7.069   3.311  0.5391  0.1867 -0.4094
  142OSM    C9F15530   3.831   6.900   3.363  0.3262 -0.4611 -0.8556
  142OSM    H9F15531   3.858   6.804   3.318  1.6245  0.7735 -2.8865
  142OSM   C10F15532   3.910   6.963   3.454 -0.0250  0.2091  0.3000
  142OSM   H10F15533   3.993   6.903   3.494 -0.7478 -0.1615  1.2952
  142OSM   C11F15534   3.886   7.093   3.528 -0.0003 -0.0389 -0.0096
  142OSM   H11F15535   3.808   7.157   3.482  0.7239  0.5896 -0.3786
  142OSM   H11G15536   3.968   7.167   3.521 -0.7092  0.7959  0.2764
  142OSM   C12F15537   3.867   7.074   3.681 -0.1125  0.1170 -0.2822
  142OSM   H12F15538   3.937   7.136   3.741  0.7702 -1.6879  0.6419
  142OSM   H12G15539   3.891   6.967   3.701 -0.4038  0.0242 -0.4312
  142OSM   C13F15540   3.720   7.095   3.725 -0.0612  0.6245  0.2022
  142OSM   H13F15541   3.659   7.013   3.681  0.1874  0.7752 -0.4377
  142OSM   H13G15542   3.685   7.196   3.697  0.1777  0.7310  0.2774
  142OSM   C14F15543   3.699   7.084   3.879 -0.8701 -0.1619  0.3224
  142OSM   H14F15544   3.790   7.137   3.916  0.9605 -1.0034 -2.6637
  142OSM   H14G15545   3.715   6.981   3.916  1.4509  0.7190  2.0158
  142OSM   C15F15546   3.563   7.134   3.920 -0.1353  0.1074 -0.4287
  142OSM   H15F15547   3.480   7.091   3.860 -1.6003  2.1952 -0.0122
  142OSM   H15G15548   3.548   7.244   3.911 -0.4926  0.2599  1.5700
  142OSM   C16F15549   3.546   7.109   4.070 -0.7114  0.0530 -0.0739
  142OSM   H16F15550   3.638   7.140   4.125 -0.8886 -0.4713  0.5288
  142OSM   H16G15551   3.519   7.002   4.082  2.2290 -1.1350 -2.6909
  142OSM   C17F15552   3.426   7.180   4.134  0.5378  0.3751 -0.3311
  142OSM   H17F15553   3.339   7.147   4.073  1.4888 -0.2218 -1.4163
  142OSM   H17G15554   3.431   7.289   4.116 -0.7175  0.1265 -2.5343
  142OSM   C18F15555   3.393   7.143   4.278 -0.9360  0.1716 -0.9880
  142OSM   H18F15556   3.400   7.032   4.289 -0.1796  0.2449 -0.6170
  142OSM   H18G15557   3.298   7.185   4.317 -0.4495  2.4232 -2.0914
  142OSM   H18H15558   3.472   7.179   4.347 -0.4412  1.1517 -2.0402
  143OSM      N15559   3.851   6.131   2.061 -1.1164 -0.1582 -0.3322
  143OSM    C1515560   3.889   5.994   2.020 -0.4079  0.4650  0.8480
  143OSM   H15A15561   3.852   5.969   1.921  0.2915  1.3614  0.3401
  143OSM   H15B15562   3.851   5.922   2.091  0.3794 -0.4082  0.4059
  143OSM   H15C15563   3.995   5.975   2.023 -0.3063  0.7648 -0.2818
  143OSM    C1415564   3.913   6.224   1.955  0.0012  0.4463  0.1664
  143OSM   H14A15565   3.883   6.325   1.974  0.0660  0.5186 -0.1050
  143OSM   H14B15566   3.870   6.207   1.857  2.3211  0.8994 -0.9942
  143OSM   H14C15567   4.020   6.216   1.966 -0.1823  0.2286  2.1378
  143OSM    C1315568   3.703   6.131   2.066  0.1609 -0.6492  0.5193
  143OSM   H13A15569   3.651   6.224   2.085 -2.6568 -2.5333  2.8965
  143OSM   H13B15570   3.672   6.062   2.143  0.4178 -0.7457  0.5372
  143OSM   H13C15571   3.669   6.100   1.968  0.4006  2.4878 -0.6871
  143OSM    C1215572   3.913   6.162   2.200  0.5835 -0.0851  0.0299
  143OSM   H12A15573   3.921   6.268   2.217 -0.5862  0.1314 -0.6620
  143OSM   H12B15574   4.014   6.122   2.199  0.5193 -0.3674  1.5395
  143OSM    C1115575   3.854   6.097   2.324 -0.1000  0.4101  0.0231
  143OSM   H11A15576   3.744   6.114   2.334  0.0601  1.8867 -0.4889
  143OSM   H11B15577   3.904   6.137   2.414  3.3160 -0.6861 -1.2421
  143OSM      P15578   4.008   5.874   2.351  0.5655 -0.3518 -0.1964
  143OSM    O1315579   3.983   5.734   2.313  0.1653  0.1340  0.5221
  143OSM    O1415580   4.124   5.943   2.300 -0.3232 -0.2124 -0.4822
  143OSM    O1115581   4.007   5.898   2.502  0.2889  0.4424 -0.1660
  143OSM    O1215582   3.879   5.956   2.313 -0.1022  0.5151  0.9364
  143OSM    C1S15583   3.889   5.881   2.584 -0.6208  0.3600  0.0063
  143OSM    H1S15584   3.826   5.795   2.554  2.3909 -2.0622  0.0816
  143OSM    H1T15585   3.829   5.974   2.578 -0.0197  0.6785 -3.0068
  143OSM     NF15586   3.830   5.773   2.801 -0.2577 -0.1471  0.4080
  143OSM    HNF15587   3.792   5.814   2.884  1.8717 -0.8064  1.7782
  143OSM    C2S15588   3.927   5.854   2.734 -0.3023  0.0309 -0.2517
  143OSM    H2S15589   4.022   5.797   2.730 -0.3265  0.0512 -1.4990
  143OSM    C3S15590   3.966   5.995   2.794  0.2885 -0.1346  0.1819
  143OSM    H3S15591   3.874   6.056   2.784  0.4564 -0.0819 -1.1738
  143OSM     O315592   4.063   6.066   2.715 -0.2947  0.1517  0.0796
  143OSM    HO315593   4.075   6.006   2.641 -0.7900  1.4140 -1.0694
  143OSM    C4S15594   4.001   5.974   2.934 -0.0902  0.2179 -0.3582
  143OSM    H4S15595   3.913   5.955   2.996  0.3517 -2.3256 -0.3942
  143OSM    C5S15596   4.125   5.996   2.984  0.0913  0.8135 -0.6278
  143OSM    H5S15597   4.193   6.042   2.911  1.7466 -1.2248 -0.4426
  143OSM    C6S15598   4.168   5.988   3.131 -0.0923  0.5041  0.3714
  143OSM    H6S15599   4.187   6.093   3.164  0.4621 -0.2397  2.6401
  143OSM    H6T15600   4.254   5.918   3.130  0.4854  0.8884  4.5188
  143OSM    C7S15601   4.067   5.935   3.223 -0.0002 -0.2937 -0.7922
  143OSM    H7S15602   4.043   5.827   3.232 -0.7356  0.0449  2.5842
  143OSM    H7T15603   3.968   5.987   3.223 -0.5650 -1.2358 -3.1336
  143OSM    C8S15604   4.118   5.970   3.368 -0.5494  0.4329  0.1081
  143OSM    H8S15605   4.116   6.081   3.378  0.7893  0.4185  0.7653
  143OSM    H8T15606   4.225   5.941   3.369 -0.1710  1.7350  1.2647
  143OSM    C9S15607   4.040   5.898   3.487 -0.2193  0.0200 -0.2045
  143OSM    H9S15608   4.035   5.791   3.458 -0.2536 -0.0766  0.1607
  143OSM    H9T15609   3.939   5.944   3.492 -0.5667 -0.7995  0.6843
  143OSM   C10S15610   4.106   5.911   3.630  0.0578 -0.7078  0.1025
  143OSM   H10S15611   4.138   6.016   3.646  0.3032 -1.1562  2.9815
  143OSM   H10T15612   4.191   5.842   3.616 -0.2901 -1.0010 -0.6528
  143OSM   C11S15613   4.003   5.857   3.727 -0.1977 -0.1286 -0.7950
  143OSM   H11S15614   3.996   5.746   3.723 -1.4458 -0.1283  0.6163
  143OSM   H11T15615   3.898   5.894   3.719 -0.5300 -0.3951  1.6235
  143OSM   C12S15616   4.057   5.872   3.868 -1.0368 -0.0501 -0.1771
  143OSM   H12S15617   4.077   5.975   3.906  0.6858 -1.3606  2.8184
  143OSM   H12T15618   4.162   5.837   3.862 -0.1541  1.9568  1.7378
  143OSM   C13S15619   4.005   5.786   3.990 -0.0162 -0.2775  0.2190
  143OSM   H13S15620   4.035   5.681   3.966 -0.4844 -0.3835  0.0832
  143OSM   H13T15621   3.894   5.791   3.995 -0.0256  0.8809 -0.7211
  143OSM   C14S15622   4.062   5.827   4.126  0.3455 -0.0797  0.5369
  143OSM   H14S15623   4.009   5.908   4.181 -0.9184  0.0102 -0.7459
  143OSM   H14T15624   4.164   5.866   4.111 -0.8320  2.5193 -1.5297
  143OSM   C15S15625   4.070   5.713   4.228  0.1259 -0.3399 -0.6485
  143OSM   H15S15626   4.113   5.623   4.178  0.1788 -1.1373  0.7857
  143OSM   H15T15627   3.968   5.677   4.254  0.0663 -0.0143 -0.4348
  143OSM   C16S15628   4.150   5.760   4.352 -0.2744  0.3868  0.5576
  143OSM   H16S15629   4.119   5.862   4.382  0.5849  0.4869  1.1500
  143OSM   H16T15630   4.256   5.763   4.318 -0.6612 -3.4021 -1.5314
  143OSM   C17S15631   4.132   5.669   4.476  0.5843  0.6597 -0.2451
  143OSM   H17S15632   4.165   5.566   4.449  1.8599  0.7082  1.0124
  143OSM   H17T15633   4.026   5.649   4.503  0.7602 -0.2191 -0.1745
  143OSM   C18S15634   4.188   5.719   4.609 -0.5356  0.0992  0.1252
  143OSM   H18S15635   4.139   5.818   4.620 -1.0848 -0.0751 -0.6431
  143OSM   H18T15636   4.299   5.728   4.615 -0.6880  1.0189  2.9821
  143OSM   H18U15637   4.162   5.649   4.691 -0.6741 -0.6867 -0.5775
  143OSM    C1F15638   3.804   5.643   2.773  0.1182 -0.9410 -0.2460
  143OSM     OF15639   3.857   5.589   2.679  0.2655  0.0425 -0.0523
  143OSM    C2F15640   3.712   5.576   2.867 -0.4460  0.0268  0.0985
  143OSM    H2F15641   3.712   5.466   2.854 -0.7183  0.1222 -0.7107
  143OSM    H2G15642   3.608   5.613   2.868 -0.1974  0.7753  1.8490
  143OSM    C3F15643   3.774   5.592   3.006 -0.1403  0.1255 -0.4729
  143OSM    H3F15644   3.762   5.700   3.028 -5.5700 -0.2441 -0.2762
  143OSM    H3G15645   3.875   5.544   3.011 -0.2518 -0.0275  0.7224
  143OSM    C4F15646   3.693   5.508   3.118 -0.7063  0.0709 -0.1650
  143OSM    H4F15647   3.717   5.403   3.092 -0.2605 -0.5261  2.3995
  143OSM    H4G15648   3.584   5.530   3.116 -0.8254 -0.4851 -2.3044
  143OSM    C5F15649   3.760   5.515   3.257 -0.5065  0.1164  0.9376
  143OSM    H5F15650   3.741   5.620   3.287 -1.5005  0.0940  0.4287
  143OSM    H5G15651   3.868   5.493   3.244 -0.4082  0.4995  1.0888
  143OSM    C6F15652   3.712   5.418   3.364  0.9270 -0.4944  0.1467
  143OSM    H6F15653   3.686   5.316   3.328 -0.6664  0.6786 -2.3763
  143OSM    H6G15654   3.621   5.465   3.408  0.5245 -0.8511 -0.2855
  143OSM    C7F15655   3.808   5.412   3.487  0.0319  0.3918  0.2085
  143OSM    H7F15656   3.846   5.512   3.517  1.2364  0.1560 -0.4544
  143OSM    H7G15657   3.900   5.358   3.455 -0.1597 -0.9748  1.8205
  143OSM    C8F15658   3.738   5.345   3.607 -0.1639  0.1494 -0.2684
  143OSM    H8F15659   3.816   5.289   3.663  0.7902  0.3073 -1.3886
  143OSM    H8G15660   3.676   5.262   3.567  1.3430 -1.4040  0.4918
  143OSM    C9F15661   3.659   5.451   3.689 -0.0951 -0.0907 -0.1975
  143OSM    H9F15662   3.598   5.519   3.627 -0.6777  0.1573  0.6253
  143OSM   C10F15663   3.641   5.475   3.818  0.3544  0.3053  0.2724
  143OSM   H10F15664   3.572   5.555   3.850 -2.2443 -2.4188  2.0098
  143OSM   C11F15665   3.705   5.382   3.919 -0.0210  0.4752  0.3003
  143OSM   H11F15666   3.719   5.277   3.884 -1.9584 -0.6661  2.7144
  143OSM   H11G15667   3.635   5.374   4.004 -0.8342  0.0104 -0.4038
  143OSM   C12F15668   3.836   5.436   3.983  0.2767  0.5764  0.3972
  143OSM   H12F15669   3.819   5.537   4.026 -0.0965  0.3466  0.7928
  143OSM   H12G15670   3.909   5.465   3.905  2.0106  1.3903  2.2165
  143OSM   C13F15671   3.897   5.351   4.094  1.4000 -0.4735  0.3389
  143OSM   H13F15672   3.998   5.389   4.119  1.1707  1.5436 -1.5365
  143OSM   H13G15673   3.911   5.247   4.059  0.8138 -1.2155  2.1818
  143OSM   C14F15674   3.813   5.357   4.222  0.0164 -0.1984 -0.1047
  143OSM   H14F15675   3.721   5.295   4.218  0.0275 -0.3102  0.9848
  143OSM   H14G15676   3.781   5.462   4.238  0.8869 -0.0259  0.5664
  143OSM   C15F15677   3.883   5.319   4.352 -0.1109  0.1504 -0.7915
  143OSM   H15F15678   3.809   5.313   4.435 -0.2097  0.9612 -0.8068
  143OSM   H15G15679   3.956   5.396   4.384 -1.2201  0.7479  0.4163
  143OSM   C16F15680   3.940   5.180   4.344 -0.3893 -0.1355  0.8888
  143OSM   H16F15681   4.005   5.172   4.255 -0.3857 -0.1884  0.8963
  143OSM   H16G15682   3.862   5.102   4.338  1.3899 -2.4219  4.0736
  143OSM   C17F15683   4.033   5.141   4.463  0.0723 -1.1856 -0.2371
  143OSM   H17F15684   4.113   5.218   4.460 -1.0521 -0.0004 -2.8321
  143OSM   H17G15685   4.061   5.033   4.456 -0.7966 -1.3123 -2.3212
  143OSM   C18F15686   3.958   5.157   4.600  0.8926  0.7062 -0.4032
  143OSM   H18F15687   4.026   5.126   4.682 -0.5866 -2.8984 -0.3163
  143OSM   H18G15688   3.869   5.091   4.592 -0.3146  2.5209 -3.5752
  143OSM   H18H15689   3.923   5.261   4.616  1.8648  1.1786 -1.2180
  144OSM      N15690   2.777   6.203   2.378 -0.0195 -0.1421  0.2857
  144OSM    C1515691   2.905   6.227   2.453 -0.2616 -0.1685  0.4994
  144OSM   H15A15692   2.990   6.196   2.394  1.0105  0.0277  2.1546
  144OSM   H15B15693   2.905   6.170   2.545 -3.2693  1.1637  1.4573
  144OSM   H15C15694   2.924   6.332   2.469  0.1173  0.1884 -1.9308
  144OSM    C1415695   2.782   6.291   2.247  0.2452 -0.6851 -0.0500
  144OSM   H14A15696   2.685   6.293   2.199  0.6170  1.4505 -0.8149
  144OSM   H14B15697   2.851   6.254   2.174  2.9632  2.7110  0.5593
  144OSM   H14C15698   2.801   6.396   2.262 -2.7111 -0.2195  1.4197
  144OSM    C1315699   2.768   6.063   2.331  0.1944  0.1738 -0.3860
  144OSM   H13A15700   2.674   6.036   2.285  0.7689  0.2514 -1.6490
  144OSM   H13B15701   2.784   5.984   2.403  1.5927  0.9015  0.1432
  144OSM   H13C15702   2.837   6.046   2.250 -1.0345  0.4487 -1.5300
  144OSM    C1215703   2.654   6.218   2.463  0.1273  0.2886  0.8751
  144OSM   H12A15704   2.651   6.314   2.514 -0.0760  0.5702  0.3374
  144OSM   H12B15705   2.657   6.148   2.545  0.2288 -0.3965  0.2928
  144OSM    C1115706   2.514   6.193   2.396 -0.6407 -0.7099  0.0422
  144OSM   H11A15707   2.440   6.197   2.479 -1.7970  2.6193 -0.9598
  144OSM   H11B15708   2.510   6.091   2.352 -0.5819 -0.5595 -0.3156
  144OSM      P15709   2.410   6.421   2.322  0.2400  0.2222  0.2826
  144OSM    O1315710   2.439   6.525   2.225 -0.1271  0.1802  0.7740
  144OSM    O1415711   2.272   6.363   2.313 -0.4414 -0.4766  0.0082
  144OSM    O1115712   2.446   6.460   2.467 -0.1716 -0.7456 -0.3080
  144OSM    O1215713   2.503   6.294   2.295  0.2704  0.6766  0.1344
  144OSM    C1S15714   2.393   6.576   2.538  0.1889 -0.0613  1.0312
  144OSM    H1S15715   2.284   6.588   2.522  0.7627  2.2079 -2.0542
  144OSM    H1T15716   2.449   6.665   2.503  2.6481 -1.7563  0.3620
  144OSM     NF15717   2.373   6.658   2.768 -0.1142 -0.0674 -0.0487
  144OSM    HNF15718   2.427   6.737   2.796 -0.2082 -0.7959  2.4989
  144OSM    C2S15719   2.434   6.559   2.687 -0.7485 -0.8238 -0.7972
  144OSM    H2S15720   2.410   6.461   2.733  3.6546 -0.7973  2.2623
  144OSM    C3S15721   2.586   6.562   2.711 -0.7251 -0.2029 -0.3282
  144OSM    H3S15722   2.614   6.669   2.700  2.2834 -0.6444  1.6856
  144OSM     O315723   2.666   6.500   2.615 -0.3764  0.2301 -0.2113
  144OSM    HO315724   2.602   6.489   2.544 -1.1028 -0.0317  0.4686
  144OSM    C4S15725   2.623   6.533   2.852 -0.6761  0.3663  0.0648
  144OSM    H4S15726   2.624   6.621   2.918 -0.0735  1.2209 -1.0465
  144OSM    C5S15727   2.659   6.407   2.896 -0.3032  0.4364  0.0674
  144OSM    H5S15728   2.656   6.327   2.820 -0.9277 -2.0099  2.5250
  144OSM    C6S15729   2.691   6.370   3.033  0.5452 -0.2929 -0.5975
  144OSM    H6S15730   2.800   6.348   3.036  0.4158 -1.2919 -2.2123
  144OSM    H6T15731   2.652   6.271   3.064  0.6938  0.2235  1.4071
  144OSM    C7S15732   2.647   6.456   3.154 -0.1028 -0.2584 -0.9375
  144OSM    H7S15733   2.537   6.443   3.159 -0.0495 -0.8440 -1.1836
  144OSM    H7T15734   2.680   6.560   3.136  0.2452 -0.1428  0.3247
  144OSM    C8S15735   2.711   6.398   3.288 -0.3003 -0.7621  0.3173
  144OSM    H8S15736   2.821   6.394   3.279 -0.2491 -0.0610  0.5600
  144OSM    H8T15737   2.675   6.297   3.315  0.0653 -1.0274 -0.1884
  144OSM    C9S15738   2.680   6.497   3.402  0.7041  0.6987  0.0908
  144OSM    H9S15739   2.571   6.503   3.423  0.9993  0.3614  1.9004
  144OSM    H9T15740   2.722   6.597   3.379 -0.3230  1.0925 -0.0977
  144OSM   C10S15741   2.741   6.448   3.533  0.0604 -0.3395 -0.1729
  144OSM   H10S15742   2.846   6.430   3.503 -0.5518 -0.7918 -2.2074
  144OSM   H10T15743   2.698   6.353   3.570  1.2110 -1.0900 -0.7415
  144OSM   C11S15744   2.725   6.553   3.648  0.5415  0.2343  0.6886
  144OSM   H11S15745   2.629   6.609   3.643  0.7922  0.7488  1.4426
  144OSM   H11T15746   2.805   6.627   3.625  2.1708 -1.7349 -0.3287
  144OSM   C12S15747   2.754   6.492   3.781  0.4718  0.7506  0.8144
  144OSM   H12S15748   2.839   6.420   3.784  0.7693  1.1114  1.2457
  144OSM   H12T15749   2.658   6.442   3.809  1.1265 -1.2125 -0.2367
  144OSM   C13S15750   2.779   6.599   3.894  0.3805  0.2183  0.0168
  144OSM   H13S15751   2.695   6.671   3.903  0.1673 -0.1618  1.2414
  144OSM   H13T15752   2.867   6.655   3.854 -0.5923 -0.4384 -3.3738
  144OSM   C14S15753   2.817   6.539   4.032  0.5696 -0.3675  0.3080
  144OSM   H14S15754   2.830   6.627   4.099  0.4555  0.4869 -0.7650
  144OSM   H14T15755   2.917   6.490   4.029  0.6574 -0.1496 -2.8639
  144OSM   C15S15756   2.715   6.436   4.086 -0.4482 -0.3384 -0.4744
  144OSM   H15S15757   2.687   6.368   4.002 -1.2735 -0.0679 -0.4190
  144OSM   H15T15758   2.623   6.482   4.126 -1.0917 -3.4634  2.0949
  144OSM   C16S15759   2.781   6.356   4.201  0.2130 -0.5694  0.4851
  144OSM   H16S15760   2.853   6.418   4.259  2.0363 -0.5991 -1.6144
  144OSM   H16T15761   2.838   6.265   4.171 -0.0474 -1.3823  2.2998
  144OSM   C17S15762   2.679   6.309   4.295 -0.1030 -0.0282 -0.7862
  144OSM   H17S15763   2.598   6.249   4.248  1.0607 -2.1234 -0.2090
  144OSM   H17T15764   2.623   6.394   4.339 -1.9940 -2.3494  1.5855
  144OSM   C18S15765   2.746   6.230   4.416  0.0896  0.4577  0.0908
  144OSM   H18S15766   2.810   6.144   4.385 -0.6502  0.3219 -1.1086
  144OSM   H18T15767   2.669   6.173   4.474  1.0948  0.0760  1.0906
  144OSM   H18U15768   2.793   6.289   4.498 -0.7911 -1.0899  1.7879
  144OSM    C1F15769   2.243   6.660   2.797 -0.1876 -0.0128  0.8043
  144OSM     OF15770   2.168   6.570   2.757 -0.4728  0.0905 -0.6337
  144OSM    C2F15771   2.194   6.774   2.877  0.0174  0.2142 -0.7338
  144OSM    H2F15772   2.129   6.834   2.808  0.0920  0.9967 -0.1402
  144OSM    H2G15773   2.280   6.839   2.905  1.0041 -1.0176 -0.8379
  144OSM    C3F15774   2.116   6.734   3.001  0.2160  0.7410 -0.2807
  144OSM    H3F15775   2.028   6.677   2.963  2.0244 -1.5476 -1.3232
  144OSM    H3G15776   2.078   6.821   3.059  0.0611 -0.2631  1.1935
  144OSM    C4F15777   2.190   6.641   3.095  0.7242  0.3745  0.3194
  144OSM    H4F15778   2.299   6.651   3.074  0.6088 -0.6036 -0.7982
  144OSM    H4G15779   2.163   6.538   3.066  0.0048  0.1032  1.8192
  144OSM    C5F15780   2.156   6.653   3.239 -0.1046 -0.4121  0.4366
  144OSM    H5F15781   2.045   6.656   3.248 -0.0834  1.3112  0.3817
  144OSM    H5G15782   2.181   6.758   3.264  1.0457  0.1416 -2.7275
  144OSM    C6F15783   2.197   6.540   3.335  0.3159 -0.2227 -0.0353
  144OSM    H6F15784   2.306   6.523   3.329  0.3182 -0.1915 -0.0858
  144OSM    H6G15785   2.151   6.448   3.294 -1.1132  1.3098 -2.1150
  144OSM    C7F15786   2.148   6.546   3.479  0.8053  1.3269  0.0318
  144OSM    H7F15787   2.039   6.527   3.479  1.0400 -0.6116 -2.4943
  144OSM    H7G15788   2.164   6.647   3.521 -0.5248  1.9769 -0.9368
  144OSM    C8F15789   2.190   6.424   3.570 -0.3173 -0.5183  0.3672
  144OSM    H8F15790   2.152   6.331   3.524  0.0314 -1.4613  1.8952
  144OSM    H8G15791   2.143   6.427   3.671  1.0474  0.9686  0.9996
  144OSM    C9F15792   2.340   6.411   3.590 -0.2248 -0.0247  0.2047
  144OSM    H9F15793   2.391   6.373   3.500 -3.1884  0.7013 -1.9548
  144OSM   C10F15794   2.411   6.435   3.702  0.5371 -0.2762 -0.4738
  144OSM   H10F15795   2.517   6.407   3.702  1.3481  2.2395  2.5134
  144OSM   C11F15796   2.351   6.487   3.832  0.3218 -0.1177 -0.3665
  144OSM   H11F15797   2.247   6.523   3.818  0.1656 -0.9526 -1.5219
  144OSM   H11G15798   2.418   6.570   3.863  0.5625 -0.7048  0.7160
  144OSM   C12F15799   2.366   6.377   3.940  0.5068  0.1499  0.0311
  144OSM   H12F15800   2.342   6.433   4.033  2.0486  1.1233 -0.1229
  144OSM   H12G15801   2.470   6.348   3.965  0.5249 -1.1167 -1.3697
  144OSM   C13F15802   2.281   6.254   3.908 -1.2485  0.0894  0.3859
  144OSM   H13F15803   2.338   6.188   3.839  1.4992 -0.1862  2.7419
  144OSM   H13G15804   2.189   6.278   3.850 -1.9312 -2.0900  0.4736
  144OSM   C14F15805   2.250   6.164   4.029  0.2885 -0.4570 -0.1633
  144OSM   H14F15806   2.349   6.160   4.079  0.1521  1.0866  0.2818
  144OSM   H14G15807   2.210   6.064   4.003  0.3117 -0.5989  0.3516
  144OSM   C15F15808   2.153   6.231   4.127 -0.0439  0.0765  0.1675
  144OSM   H15F15809   2.054   6.212   4.081 -0.1934 -1.1507  0.9483
  144OSM   H15G15810   2.153   6.342   4.138 -0.4552  0.3479 -2.0502
  144OSM   C16F15811   2.156   6.172   4.269  0.7050  0.0530  0.4765
  144OSM   H16F15812   2.244   6.207   4.326  0.9368  1.6247 -0.7721
  144OSM   H16G15813   2.158   6.061   4.261 -0.4600  0.0960 -0.7996
  144OSM   C17F15814   2.033   6.201   4.347 -0.4847  0.2258 -0.6995
  144OSM   H17F15815   1.945   6.170   4.288  0.6893 -2.0105 -1.3734
  144OSM   H17G15816   2.024   6.307   4.380  1.1634  0.3955 -0.6931
  144OSM   C18F15817   2.044   6.118   4.480 -0.0094  0.9112 -0.1154
  144OSM   H18F15818   1.950   6.112   4.540  1.3720 -1.5471  1.9911
  144OSM   H18G15819   2.129   6.168   4.530 -0.8993  2.4111 -0.0590
  144OSM   H18H15820   2.074   6.015   4.451 -1.8753  0.5117 -0.8003
  145SAPE     N15821   3.473   0.507   6.932  0.0293  0.0872 -0.4595
  145SAPE   HN115822   3.437   0.600   6.961  0.0364 -0.0981  0.1433
  145SAPE   HN215823   3.402   0.444   6.890 -0.3392 -1.7727  2.6452
  145SAPE   HN315824   3.490   0.461   7.024 -1.7198  0.2728 -0.0101
  145SAPE   C1215825   3.599   0.532   6.860  0.0774  0.0926 -0.4885
  145SAPE  H12A15826   3.640   0.629   6.898  0.1751  0.4875 -1.5732
  145SAPE  H12B15827   3.583   0.555   6.753  1.4899  0.4615 -0.6458
  145SAPE   C1115828   3.691   0.413   6.887 -0.0481 -0.3198  0.2109
  145SAPE  H11A15829   3.701   0.400   6.997 -1.0909 -0.1388  0.3368
  145SAPE  H11B15830   3.791   0.437   6.844 -0.5206  1.4616  0.0214
  145SAPE     P15831   3.713   0.197   6.722 -0.6339 -0.2979  0.1580
  145SAPE   O1315832   3.837   0.145   6.788 -0.4673 -0.0867 -0.1440
  145SAPE   O1415833   3.613   0.098   6.680  0.4423  0.0971  0.4176
  145SAPE   O1215834   3.641   0.287   6.832  0.1308 -0.4601 -0.3933
  145SAPE   O1115835   3.756   0.304   6.605  0.3644  0.4123  0.7111
  145SAPE    C115836   3.660   0.349   6.510 -0.5029  0.2487  0.5295
  145SAPE    HA15837   3.555   0.320   6.532 -0.3994 -1.7092 -1.2668
  145SAPE    HB15838   3.660   0.459   6.497 -2.8620  0.3897  1.1962
  145SAPE    C215839   3.705   0.310   6.367 -0.1446  0.1500 -0.1631
  145SAPE    HS15840   3.639   0.351   6.288  0.4166 -2.4555 -2.1099
  145SAPE   O2115841   3.707   0.166   6.352 -0.2186 -0.4470  0.3757
  145SAPE   C2115842   3.590   0.111   6.322 -0.5283 -0.6362  0.6818
  145SAPE   O2215843   3.482   0.169   6.325  0.2691  0.2494 -0.0501
  145SAPE   C2215844   3.609  -0.045   6.314 -0.9443 -0.1061 -0.4867
  145SAPE   H2R15845   3.720  -0.058   6.305 -0.7646  1.2650 -0.3879
  145SAPE   H2S15846   3.570  -0.096   6.404 -0.1166 -0.2658 -0.2088
  145SAPE    C315847   3.856   0.341   6.344 -0.1648 -0.5398 -0.3233
  145SAPE    HX15848   3.920   0.290   6.419 -1.4226 -2.4085 -0.4663
  145SAPE    HY15849   3.858   0.452   6.357 -0.6321 -0.6960  1.1970
  145SAPE   O3115850   3.902   0.302   6.212  0.2102  0.0670 -0.7550
  145SAPE   C3115851   3.866   0.380   6.108  1.2411 -0.0504  0.2312
  145SAPE   O3215852   3.783   0.471   6.114 -0.2846  0.0573 -0.2408
  145SAPE   C3215853   3.940   0.332   5.984  0.0057  0.1327  0.1085
  145SAPE   H2X15854   3.923   0.225   5.959 -0.3172  0.2621 -0.2392
  145SAPE   H2Y15855   4.048   0.346   6.004  0.2899  0.4479 -1.5029
  145SAPE   C2315856   3.540  -0.113   6.189  0.5983 -0.4122  0.0125
  145SAPE   H3R15857   3.433  -0.130   6.214  1.0387 -2.4888  0.6570
  145SAPE   H3S15858   3.580  -0.216   6.179  0.2185 -0.6757  1.0563
  145SAPE   C2415859   3.565  -0.037   6.062  0.1822  0.3082  0.6230
  145SAPE   H4R15860   3.675  -0.028   6.051 -0.0064  1.1199 -0.8735
  145SAPE   H4S15861   3.516   0.062   6.072 -1.5130 -0.0510 -2.5729
  145SAPE   C2515862   3.501  -0.102   5.948 -0.1156  0.4472 -0.5610
  145SAPE   H5R15863   3.391  -0.107   5.946 -0.2955  2.8422 -3.2859
  145SAPE   C2615864   3.558  -0.141   5.832  0.1721 -0.0713  0.0513
  145SAPE   H6R15865   3.493  -0.175   5.750 -0.7745 -0.1568  0.8253
  145SAPE   C2715866   3.701  -0.137   5.785 -0.9293 -0.7607 -0.6060
  145SAPE   H7R15867   3.714  -0.222   5.714  1.0460 -1.9463  1.0764
  145SAPE   H7S15868   3.771  -0.150   5.870 -0.6185  0.7455 -0.6042
  145SAPE   C2815869   3.741  -0.009   5.710 -0.8060  0.4900 -0.2857
  145SAPE   H8R15870   3.772   0.068   5.782 -0.4157 -1.8857  2.2728
  145SAPE   C2915871   3.751   0.020   5.574  0.2798 -0.0038 -0.2284
  145SAPE   H9R15872   3.794   0.117   5.548  2.8796 -1.3151 -1.1955
  145SAPE  C21015873   3.699  -0.073   5.469  0.4458 -0.0650 -0.3815
  145SAPE  H10R15874   3.658   0.000   5.397  3.4485  1.0483 -1.1208
  145SAPE  H10S15875   3.622  -0.138   5.517  0.3634 -1.3717 -2.1598
  145SAPE  C21115876   3.805  -0.163   5.409 -0.1942 -0.0685 -0.1097
  145SAPE  H11R15877   3.877  -0.201   5.484 -0.3697  0.1384  0.1640
  145SAPE  C21215878   3.809  -0.197   5.279  0.5455 -0.6800  0.0761
  145SAPE  H12R15879   3.884  -0.272   5.248  0.7414  1.1130 -4.5907
  145SAPE  C21315880   3.705  -0.155   5.171 -0.1926 -0.0988 -0.1169
  145SAPE  H13R15881   3.619  -0.115   5.229 -0.4309  1.7098 -1.6163
  145SAPE  H13S15882   3.660  -0.246   5.126 -1.8774 -0.4377  2.0809
  145SAPE  C21415883   3.754  -0.038   5.094 -0.2516  0.7694  0.7474
  145SAPE  H14R15884   3.771   0.054   5.153  0.5197  1.1968 -0.1170
  145SAPE  C21515885   3.797  -0.043   4.967 -0.2732 -0.0309 -0.4818
  145SAPE  H15R15886   3.813   0.050   4.910 -1.0695  1.0145  0.9453
  145SAPE  C21615887   3.787  -0.170   4.882  0.4692  0.2372 -0.0479
  145SAPE  H16R15888   3.680  -0.186   4.858  0.7652  0.9414 -2.0269
  145SAPE  H16S15889   3.827  -0.258   4.937 -0.8143 -2.5591 -3.2506
  145SAPE  C21715890   3.872  -0.162   4.750  0.1722 -0.8468  0.1831
  145SAPE  H17R15891   3.883  -0.269   4.722  0.0518 -0.9544  0.5398
  145SAPE  H17S15892   3.979  -0.134   4.763  0.3283 -0.2213 -1.9782
  145SAPE  C21815893   3.821  -0.076   4.635  0.7201 -0.7279 -0.1844
  145SAPE  H18R15894   3.812   0.032   4.659 -1.5524 -0.7807 -0.5303
  145SAPE  H18S15895   3.715  -0.101   4.612 -0.1724  1.0844  1.5787
  145SAPE  C21915896   3.894  -0.078   4.501 -0.4309  0.4371  0.1151
  145SAPE  H19R15897   3.999  -0.053   4.527 -0.8073  2.3463 -0.0185
  145SAPE  H19S15898   3.858  -0.004   4.426  0.6647  1.0516  0.1772
  145SAPE  C22015899   3.876  -0.212   4.433  0.0554 -0.2379  0.3653
  145SAPE  H20R15900   3.922  -0.202   4.333  1.5437 -1.4129  0.9028
  145SAPE  H20S15901   3.766  -0.231   4.442  0.0591 -0.1317  0.6261
  145SAPE  H20T15902   3.932  -0.291   4.487  0.6171 -1.2088 -1.5315
  145SAPE   C3315903   3.914   0.429   5.868 -0.3096  0.0731 -0.2063
  145SAPE   H3X15904   3.997   0.417   5.796  0.5591 -0.3386  0.8351
  145SAPE   H3Y15905   3.913   0.538   5.890 -0.8841  0.3874 -1.6741
  145SAPE   C3415906   3.790   0.393   5.793  0.2035  0.7426 -0.8010
  145SAPE   H4X15907   3.704   0.440   5.844  0.7775  0.5729  0.3358
  145SAPE   H4Y15908   3.774   0.283   5.782  0.2054  0.5649  0.7828
  145SAPE   C3515909   3.801   0.446   5.649 -0.7534  0.2004  0.1547
  145SAPE   H5X15910   3.883   0.386   5.605 -0.0328  0.0570  1.6340
  145SAPE   H5Y15911   3.831   0.552   5.662  0.6205 -0.0967 -0.4122
  145SAPE   C3615912   3.677   0.440   5.565 -0.3983 -0.6808  0.7702
  145SAPE   H6X15913   3.601   0.487   5.630 -1.0103 -0.2333 -0.2364
  145SAPE   H6Y15914   3.643   0.339   5.532  0.4674 -0.9367  0.6303
  145SAPE   C3715915   3.696   0.537   5.439  0.5082  0.6081  0.5483
  145SAPE   H7X15916   3.774   0.488   5.378 -0.1726  0.1535  0.0358
  145SAPE   H7Y15917   3.738   0.633   5.477 -0.6518 -0.1124  4.0269
  145SAPE   C3815918   3.565   0.548   5.362 -0.1452  0.4283  1.1083
  145SAPE   H8X15919   3.492   0.606   5.423 -0.3465 -0.3713  1.6468
  145SAPE   H8Y15920   3.526   0.450   5.328 -0.6088  1.7211 -2.4549
  145SAPE   C3915921   3.584   0.632   5.235 -0.6495  0.0323  0.1699
  145SAPE   H9X15922   3.658   0.571   5.178  0.6783  0.5621  1.2843
  145SAPE   H9Y15923   3.634   0.730   5.251 -2.1533  0.6790  1.1540
  145SAPE  C31015924   3.455   0.651   5.154  0.3910  1.1298 -0.4865
  145SAPE  H10X15925   3.387   0.701   5.227  0.0435 -0.1446  0.0864
  145SAPE  H10Y15926   3.405   0.554   5.133  2.6672 -0.7428  2.0400
  145SAPE  C31115927   3.477   0.736   5.030  0.0509 -0.0011 -0.6157
  145SAPE  H11X15928   3.556   0.693   4.964 -0.7922 -1.4259 -0.7447
  145SAPE  H11Y15929   3.524   0.831   5.063 -2.1993  0.9580  0.0289
  145SAPE  C31215930   3.348   0.772   4.947 -0.6569 -0.0061  0.5734
  145SAPE  H12X15931   3.384   0.841   4.868 -3.4075 -1.3930 -2.1165
  145SAPE  H12Y15932   3.274   0.818   5.015 -0.9273 -0.3058  0.4826
  145SAPE  C31315933   3.285   0.645   4.878  0.2762  0.4065  0.0401
  145SAPE  H13X15934   3.223   0.580   4.944  0.4736 -1.1990 -1.2774
  145SAPE  H13Y15935   3.368   0.580   4.843 -2.2341 -2.0513 -1.8607
  145SAPE  C31415936   3.214   0.653   4.735  0.3178 -0.6256  0.1694
  145SAPE  H14X15937   3.293   0.683   4.662  0.8548  1.1670  1.3935
  145SAPE  H14Y15938   3.134   0.730   4.737  0.7494 -0.1692  0.1293
  145SAPE  C31515939   3.159   0.515   4.690  0.1838 -0.2939  0.0991
  145SAPE  H15X15940   3.109   0.472   4.779 -0.4956  0.7041  0.2146
  145SAPE  H15Y15941   3.240   0.441   4.671 -0.8658 -1.4600  0.0298
  145SAPE  C31615942   3.065   0.519   4.572  0.7321  0.0767 -0.3474
  145SAPE  H16X15943   3.124   0.556   4.485  2.6188  1.3551  1.3680
  145SAPE  H16Y15944   2.990   0.600   4.583 -0.0308 -0.5446 -0.8973
  145SAPE  C31715945   2.989   0.393   4.545 -0.4428  0.4542  0.2639
  145SAPE  H17X15946   2.932   0.409   4.451  1.0101 -2.8453 -1.3224
  145SAPE  H17Y15947   2.926   0.368   4.633 -1.5280  2.5683  0.1747
  145SAPE  C31815948   3.082   0.272   4.515 -0.0890  0.4500 -0.6156
  145SAPE  H18X15949   3.040   0.211   4.432  3.0577 -0.2431 -1.8042
  145SAPE  H18Y15950   3.097   0.205   4.603  0.5854 -2.3258 -2.6763
  145SAPE  H18Z15951   3.184   0.305   4.487  0.8754  0.7744  2.7545
  146SAPE     N15952   6.521   1.065   6.893 -0.5539 -0.1600 -0.2882
  146SAPE   HN115953   6.542   1.010   6.979  1.5406  1.2435  0.2003
  146SAPE   HN215954   6.615   1.087   6.852  0.1856 -3.1320 -0.4051
  146SAPE   HN315955   6.487   1.159   6.920 -0.4868  0.3733 -1.9208
  146SAPE   C1215956   6.431   1.009   6.793 -0.3508  0.5185  0.3700
  146SAPE  H12A15957   6.479   0.916   6.755 -0.9832 -0.1086  1.0713
  146SAPE  H12B15958   6.419   1.080   6.709 -1.2942 -1.7455 -1.5377
  146SAPE   C1115959   6.295   0.971   6.849  0.1494 -0.3005  0.6035
  146SAPE  H11A15960   6.314   0.940   6.954 -0.7427 -2.7713  0.1139
  146SAPE  H11B15961   6.249   0.896   6.782 -3.4031  2.1422  0.0659
  146SAPE     P15962   6.073   1.088   6.776 -0.0414 -0.0018 -0.3043
  146SAPE   O1315963   5.984   0.979   6.821 -0.4965  0.3333  0.5913
  146SAPE   O1415964   6.018   1.225   6.799  0.5449 -0.1107  0.3092
  146SAPE   O1215965   6.206   1.083   6.859 -0.5177 -0.2605  0.8804
  146SAPE   O1115966   6.121   1.072   6.620 -0.0154 -0.0298  0.0945
  146SAPE    C115967   6.170   1.177   6.532  0.3041  0.2280 -0.4350
  146SAPE    HA15968   6.194   1.270   6.586 -0.7044  0.1634  0.1521
  146SAPE    HB15969   6.264   1.139   6.487  1.3633 -0.9753  2.5339
  146SAPE    C215970   6.058   1.222   6.426 -0.6798 -0.3283 -0.1626
  146SAPE    HS15971   6.115   1.255   6.337 -1.6359 -3.8835 -2.2965
  146SAPE   O2115972   5.981   1.337   6.481  0.1647 -0.1603  0.6604
  146SAPE   C2115973   6.032   1.456   6.466 -0.6799 -0.7206  0.7083
  146SAPE   O2215974   6.143   1.481   6.407 -0.0153 -0.7095 -0.0770
  146SAPE   C2215975   5.944   1.562   6.536  0.6865  0.4290  1.2575
  146SAPE   H2R15976   5.840   1.539   6.502  2.1426 -1.5060 -2.5570
  146SAPE   H2S15977   5.951   1.545   6.645  0.3843 -1.4631  1.0179
  146SAPE    C315978   5.967   1.102   6.393  0.0419 -0.6067 -0.0246
  146SAPE    HX15979   5.880   1.119   6.460  0.0946 -1.4257  0.2634
  146SAPE    HY15980   6.012   1.003   6.417  0.3446 -0.2305  1.0180
  146SAPE   O3115981   5.924   1.101   6.254 -0.3960 -0.0992 -0.2338
  146SAPE   C3115982   6.013   1.065   6.164  0.1395  0.3627  0.0403
  146SAPE   O3215983   6.123   1.020   6.186 -0.0314 -0.1940  0.2120
  146SAPE   C3215984   5.955   1.088   6.024 -0.2129  0.0515  0.4107
  146SAPE   H2X15985   5.968   1.194   5.995  0.0784 -0.6913 -2.6227
  146SAPE   H2Y15986   5.848   1.059   6.033  0.2035 -1.1561  1.8387
  146SAPE   C2315987   5.975   1.701   6.484 -0.3998 -0.1499 -0.1009
  146SAPE   H3R15988   6.086   1.711   6.489 -0.5898  1.6556  1.6006
  146SAPE   H3S15989   5.940   1.772   6.562  0.3678  0.1971 -0.0605
  146SAPE   C2415990   5.885   1.752   6.369  0.0251 -0.4759  1.0040
  146SAPE   H4R15991   5.783   1.753   6.413 -0.7288  2.2884 -0.5675
  146SAPE   H4S15992   5.894   1.667   6.298 -0.7066  0.1929  0.0686
  146SAPE   C2515993   5.927   1.892   6.319  0.0925 -0.0223 -1.5078
  146SAPE   H5R15994   5.874   1.977   6.366  2.2307  1.1869 -1.1368
  146SAPE   C2615995   6.003   1.929   6.219  0.1021 -0.5577  0.6756
  146SAPE   H6R15996   6.014   2.036   6.197 -0.3260 -0.5546  0.4466
  146SAPE   C2715997   6.059   1.832   6.117  0.0637 -0.8304 -1.0024
  146SAPE   H7R15998   6.064   1.879   6.017  0.6487  0.5787 -0.3320
  146SAPE   H7S15999   5.991   1.744   6.112 -3.3103  1.5325  0.0127
  146SAPE   C2816000   6.202   1.803   6.164 -0.1220 -0.1188  0.3382
  146SAPE   H8R16001   6.239   1.864   6.247  0.0481 -0.1411  0.2797
  146SAPE   C2916002   6.287   1.716   6.105 -0.2660  0.5146 -0.5004
  146SAPE   H9R16003   6.383   1.689   6.150 -1.5823 -1.5749  1.2625
  146SAPE  C21016004   6.264   1.640   5.976 -0.1173  0.6709 -0.2724
  146SAPE  H10R16005   6.358   1.625   5.918  0.0155  0.0424  0.1021
  146SAPE  H10S16006   6.207   1.709   5.910  0.9318  1.6561 -0.1753
  146SAPE  C21116007   6.189   1.506   5.998 -0.8245 -0.1578 -0.6017
  146SAPE  H11R16008   6.145   1.492   6.098 -2.0078 -0.0694 -1.0958
  146SAPE  C21216009   6.177   1.406   5.911 -0.4250 -0.2880  0.4207
  146SAPE  H12R16010   6.149   1.306   5.948  0.4919  0.0138  2.0492
  146SAPE  C21316011   6.250   1.405   5.780  0.2317 -0.3406 -0.1240
  146SAPE  H13R16012   6.351   1.446   5.800  0.7624 -2.9202  3.6072
  146SAPE  H13S16013   6.195   1.473   5.712 -1.6671 -0.3646  1.2719
  146SAPE  C21416014   6.245   1.265   5.724  0.0005 -0.3913  0.5097
  146SAPE  H14R16015   6.207   1.176   5.777 -1.3064 -1.1565 -1.5773
  146SAPE  C21516016   6.286   1.234   5.596  0.7748 -0.3399  0.1451
  146SAPE  H15R16017   6.288   1.130   5.562  1.8772 -0.4754  0.6086
  146SAPE  C21616018   6.340   1.329   5.494  0.5797 -0.0724  0.0456
  146SAPE  H16R16019   6.449   1.313   5.482  0.1565 -3.5753 -0.3007
  146SAPE  H16S16020   6.311   1.429   5.533 -1.4695 -1.0859  1.3829
  146SAPE  C21716021   6.249   1.300   5.359 -0.0399  0.6442  0.1544
  146SAPE  H17R16022   6.255   1.394   5.299  0.7835  0.9126  0.6316
  146SAPE  H17S16023   6.141   1.287   5.381  0.1055 -0.4610  0.2658
  146SAPE  C21816024   6.296   1.187   5.274  0.3145  0.5389 -0.0068
  146SAPE  H18R16025   6.303   1.088   5.323  0.2212 -0.3159 -1.6577
  146SAPE  H18S16026   6.399   1.216   5.245  0.0632  1.4765 -0.0072
  146SAPE  C21916027   6.236   1.173   5.127  0.2473  0.2420 -0.4853
  146SAPE  H19R16028   6.236   1.274   5.080  0.2410  0.2540 -0.4587
  146SAPE  H19S16029   6.140   1.116   5.130  1.3759 -1.8649 -1.7690
  146SAPE  C22016030   6.326   1.082   5.036 -0.5334 -0.7119  0.7848
  146SAPE  H20R16031   6.404   1.135   4.977  2.6535 -2.3154  3.2684
  146SAPE  H20S16032   6.270   1.032   4.953  0.9682  0.4814 -1.0464
  146SAPE  H20T16033   6.381   0.999   5.084 -0.1842 -0.7984  0.2472
  146SAPE   C3316034   6.020   0.993   5.926  0.5592  0.1244  0.9788
  146SAPE   H3X16035   5.995   0.887   5.950 -3.2572  0.5824 -0.3314
  146SAPE   H3Y16036   6.131   0.996   5.929  0.6886 -2.2907  0.9575
  146SAPE   C3416037   5.975   1.020   5.779 -0.1076 -0.2147  0.2202
  146SAPE   H4X16038   5.979   1.129   5.756  0.2671 -0.6679 -2.1841
  146SAPE   H4Y16039   5.869   0.990   5.788 -0.4438  1.4897  3.6940
  146SAPE   C3516040   6.054   0.943   5.665  0.2987  0.5275 -0.2263
  146SAPE   H5X16041   6.067   0.840   5.704 -1.6312  0.4810  0.4124
  146SAPE   H5Y16042   6.159   0.978   5.659  0.6126 -0.1707  0.8275
  146SAPE   C3616043   5.981   0.956   5.532  1.1200  0.3229 -0.7335
  146SAPE   H6X16044   5.966   1.064   5.509  3.4666  0.6045 -1.1348
  146SAPE   H6Y16045   5.886   0.903   5.554  1.2278  1.2885  2.6217
  146SAPE   C3716046   6.039   0.867   5.416 -0.0089 -0.9140 -0.0112
  146SAPE   H7X16047   6.047   0.762   5.452  1.0124 -1.0833 -0.6851
  146SAPE   H7Y16048   6.144   0.902   5.402 -0.9835  1.5972 -1.6702
  146SAPE   C3816049   5.963   0.886   5.285  0.3709 -0.4456 -0.2181
  146SAPE   H8X16050   5.949   0.995   5.272  3.2130 -0.0446 -0.5511
  146SAPE   H8Y16051   5.858   0.851   5.301  0.7945 -1.7903 -0.2899
  146SAPE   C3916052   6.032   0.820   5.172  0.4091 -0.2088  0.6576
  146SAPE   H9X16053   6.071   0.722   5.206 -0.4877 -1.0773 -0.7441
  146SAPE   H9Y16054   6.109   0.884   5.124 -0.3122 -0.3845 -0.7785
  146SAPE  C31016055   5.943   0.796   5.044  0.9717 -0.0171 -0.4953
  146SAPE  H10X16056   5.839   0.804   5.082  0.8693  1.7995 -1.0542
  146SAPE  H10Y16057   5.960   0.693   5.007 -1.5194 -1.9555  3.1578
  146SAPE  C31116058   5.962   0.892   4.922  0.1266  0.3049  0.2486
  146SAPE  H11X16059   6.065   0.892   4.880 -0.4779  2.0053 -1.3623
  146SAPE  H11Y16060   5.946   0.990   4.972  0.1276  1.5572 -2.0680
  146SAPE  C31216061   5.862   0.852   4.808 -0.5373  0.4366  0.1069
  146SAPE  H12X16062   5.765   0.893   4.844 -0.6017 -0.1493  0.6274
  146SAPE  H12Y16063   5.837   0.744   4.802 -0.3878  0.4355 -0.6534
  146SAPE  C31316064   5.886   0.916   4.680 -0.3345  0.9520 -0.4621
  146SAPE  H13X16065   5.961   0.857   4.622 -1.6619 -0.9970 -0.3141
  146SAPE  H13Y16066   5.933   1.016   4.684  0.1682  0.7651 -1.3712
  146SAPE  C31416067   5.757   0.942   4.603 -0.5641 -0.2616  0.0130
  146SAPE  H14X16068   5.768   0.985   4.501  2.1111 -0.4800  0.1464
  146SAPE  H14Y16069   5.701   1.022   4.656 -3.3987 -1.5400 -0.7986
  146SAPE  C31516070   5.655   0.829   4.595  0.3838 -0.0041  0.1957
  146SAPE  H15X16071   5.572   0.874   4.536  0.7310 -1.7764 -1.7486
  146SAPE  H15Y16072   5.625   0.809   4.700  0.5959  0.7004  0.3978
  146SAPE  C31616073   5.723   0.703   4.534  0.6071 -0.1445  0.2821
  146SAPE  H16X16074   5.646   0.623   4.530 -1.0105  1.3272  0.5529
  146SAPE  H16Y16075   5.801   0.661   4.601  3.6661  3.0780 -0.9583
  146SAPE  C31716076   5.781   0.710   4.384  0.9807  0.1249  0.1083
  146SAPE  H17X16077   5.809   0.604   4.362  0.1254 -0.1992  0.5244
  146SAPE  H17Y16078   5.870   0.777   4.376  0.6153  0.6474  0.4156
  146SAPE  C31816079   5.684   0.764   4.283 -0.4946  0.0751 -0.4321
  146SAPE  H18X16080   5.608   0.690   4.250  0.8867 -1.1737 -0.8928
  146SAPE  H18Y16081   5.751   0.775   4.195 -0.2994 -1.1332 -0.4499
  146SAPE  H18Z16082   5.636   0.860   4.313  0.3927 -0.4260  3.0138
  147SAPE     N16083   0.470   5.855   6.798  1.2902  0.0591  0.2563
  147SAPE   HN116084   0.430   5.911   6.720 -0.3526 -0.6510  0.5546
  147SAPE   HN216085   0.565   5.891   6.819  1.4906  0.5492 -1.3469
  147SAPE   HN316086   0.482   5.754   6.774 -0.4281 -0.5893  1.8847
  147SAPE   C1216087   0.383   5.864   6.915 -0.3770  0.3988 -0.2392
  147SAPE  H12A16088   0.382   5.967   6.958 -1.0790 -0.2714  1.4569
  147SAPE  H12B16089   0.422   5.792   6.990 -0.1598 -1.0278 -1.6925
  147SAPE   C1116090   0.235   5.826   6.877 -0.0339  0.1328 -0.6341
  147SAPE  H11A16091   0.204   5.888   6.790 -1.2699 -0.8565 -0.9307
  147SAPE  H11B16092   0.167   5.837   6.964  2.2051 -0.3267  1.2806
  147SAPE     P16093   0.108   5.601   6.828 -0.4255 -0.2644  0.1495
  147SAPE   O1316094   0.148   5.488   6.919 -0.2273  0.2514  0.3237
  147SAPE   O1416095  -0.015   5.686   6.850  0.0699 -0.3851  0.2701
  147SAPE   O1216096   0.236   5.696   6.825  0.2902 -0.0347 -0.1464
  147SAPE   O1116097   0.096   5.541   6.685  0.3666 -0.0480 -0.0178
  147SAPE    C116098   0.204   5.561   6.585 -0.2422  0.2105 -0.1229
  147SAPE    HA16099   0.155   5.543   6.488 -0.5964 -0.5263  0.1800
  147SAPE    HB16100   0.250   5.662   6.590 -0.8044  0.4365  0.9703
  147SAPE    C216101   0.305   5.447   6.591 -0.0722 -0.6711 -0.1051
  147SAPE    HS16102   0.344   5.433   6.694 -1.2533  1.7744  0.7514
  147SAPE   O2116103   0.410   5.463   6.502  0.0699 -0.0674 -0.0718
  147SAPE   C2116104   0.490   5.558   6.533  0.2168 -0.2689 -0.6513
  147SAPE   O2216105   0.492   5.625   6.638  0.2013 -0.0449 -0.4196
  147SAPE   C2216106   0.607   5.560   6.433 -0.1337 -0.2108  0.3570
  147SAPE   H2R16107   0.701   5.562   6.493  0.1081 -0.9816  0.0227
  147SAPE   H2S16108   0.611   5.462   6.381 -0.0152 -0.7943  1.4209
  147SAPE    C316109   0.237   5.312   6.557  0.6345  0.0216 -0.0643
  147SAPE    HX16110   0.175   5.287   6.646  0.0769 -0.9630 -0.6946
  147SAPE    HY16111   0.318   5.236   6.552 -0.0354 -0.7029 -0.1638
  147SAPE   O3116112   0.157   5.311   6.437  0.4399 -0.4957  0.1568
  147SAPE   C3116113   0.101   5.199   6.397  0.3091  0.7184  0.4570
  147SAPE   O3216114   0.117   5.093   6.455  0.5644 -0.4015 -0.3430
  147SAPE   C3216115   0.026   5.214   6.265 -0.8252 -0.5774  0.7364
  147SAPE   H2X16116  -0.052   5.287   6.295 -1.8722 -0.6910 -1.4618
  147SAPE   H2Y16117  -0.009   5.112   6.239  3.3096 -2.6975  2.5722
  147SAPE   C2316118   0.597   5.673   6.322  0.0440  0.3936  0.6264
  147SAPE   H3R16119   0.673   5.662   6.242 -0.4057  0.8525  0.1285
  147SAPE   H3S16120   0.599   5.775   6.366 -1.2320  0.3955  0.7280
  147SAPE   C2416121   0.464   5.665   6.244 -0.3061  0.3552  0.5982
  147SAPE   H4R16122   0.460   5.761   6.187  1.4720  1.5241  2.3129
  147SAPE   H4S16123   0.379   5.666   6.316  0.6467 -2.6020  1.9089
  147SAPE   C2516124   0.454   5.549   6.148 -0.3001  0.4805  0.3994
  147SAPE   H5R16125   0.463   5.449   6.195  1.6505  0.9027  1.0176
  147SAPE   C2616126   0.429   5.546   6.015 -0.3439  0.8521  0.3425
  147SAPE   H6R16127   0.400   5.454   5.963 -0.5930 -0.5079  2.7608
  147SAPE   C2716128   0.437   5.669   5.933  0.3911  0.1039 -0.0225
  147SAPE   H7R16129   0.424   5.763   5.990  0.5904  1.0105 -1.4096
  147SAPE   H7S16130   0.356   5.678   5.858  0.6204 -0.9784 -0.4225
  147SAPE   C2816131   0.568   5.673   5.857 -0.5261 -0.5961 -0.3433
  147SAPE   H8R16132   0.658   5.676   5.920  0.3843 -0.3392 -1.6225
  147SAPE   C2916133   0.592   5.612   5.739  0.0856  0.3788 -0.4685
  147SAPE   H9R16134   0.691   5.610   5.693  0.8960 -4.2236  0.9445
  147SAPE  C21016135   0.480   5.560   5.659  0.0868 -0.2437  0.0280
  147SAPE  H10R16136   0.408   5.495   5.714  0.9010 -1.5994 -0.4417
  147SAPE  H10S16137   0.520   5.479   5.594 -1.1666 -1.7138  1.0354
  147SAPE  C21116138   0.410   5.661   5.570  0.2631 -0.2850 -0.0082
  147SAPE  H11R16139   0.347   5.738   5.616  0.6593  0.4693 -0.6970
  147SAPE  C21216140   0.449   5.691   5.446 -0.0895 -0.0993  0.7930
  147SAPE  H12R16141   0.399   5.776   5.396  0.4504  0.4138  1.1103
  147SAPE  C21316142   0.549   5.630   5.351  0.1490  0.4172  0.2342
  147SAPE  H13R16143   0.552   5.525   5.389 -1.9106 -0.3541 -1.4833
  147SAPE  H13S16144   0.648   5.678   5.363  0.7758 -0.4231 -1.2899
  147SAPE  C21416145   0.518   5.619   5.201  0.4031 -0.3897  0.1127
  147SAPE  H14R16146   0.409   5.614   5.188  0.3958  0.0363 -0.0134
  147SAPE  C21516147   0.603   5.612   5.088 -0.4907  0.2867 -0.5081
  147SAPE  H15R16148   0.549   5.614   4.993 -1.2095 -0.1939 -0.1149
  147SAPE  C21616149   0.758   5.614   5.101 -0.3952  0.5078 -0.4682
  147SAPE  H16R16150   0.806   5.519   5.134 -0.0656  1.5101  2.1235
  147SAPE  H16S16151   0.794   5.684   5.179  0.4988 -0.7762  0.3070
  147SAPE  C21716152   0.832   5.668   4.971  0.4802 -0.1237 -0.3503
  147SAPE  H17R16153   0.942   5.667   4.984  0.7087  1.9323 -1.7296
  147SAPE  H17S16154   0.804   5.773   4.953  1.9604  0.8264  2.3203
  147SAPE  C21816155   0.799   5.592   4.842 -0.3205 -0.2143 -0.2053
  147SAPE  H18R16156   0.690   5.596   4.825 -0.8667 -0.0214  2.8406
  147SAPE  H18S16157   0.845   5.491   4.848  1.2868  0.5848  2.2246
  147SAPE  C21916158   0.871   5.660   4.720  0.1445 -0.2314 -0.2076
  147SAPE  H19R16159   0.977   5.681   4.746 -0.5087  1.5338  1.2819
  147SAPE  H19S16160   0.831   5.761   4.698 -0.5707 -0.3558  0.4974
  147SAPE  C22016161   0.853   5.583   4.594  0.0204 -0.0907  0.6734
  147SAPE  H20R16162   0.749   5.594   4.558 -0.6549  1.0738  2.7744
  147SAPE  H20S16163   0.870   5.476   4.622 -0.5079  0.1556  1.9980
  147SAPE  H20T16164   0.923   5.631   4.523 -0.6823  3.7082  2.3482
  147SAPE   C3316165   0.115   5.273   6.154  0.1795 -0.3028  0.2998
  147SAPE   H3X16166   0.202   5.206   6.137  0.0327 -0.0299 -1.7840
  147SAPE   H3Y16167   0.160   5.373   6.174  2.0387 -0.4471 -2.6093
  147SAPE   C3416168   0.045   5.279   6.011 -0.1016 -0.2855 -0.2664
  147SAPE   H4X16169  -0.041   5.348   6.025 -0.8580 -1.2794  0.1203
  147SAPE   H4Y16170   0.014   5.174   5.993 -0.8997 -0.1429  0.2353
  147SAPE   C3516171   0.137   5.312   5.896 -0.5274 -0.6218  0.1238
  147SAPE   H5X16172   0.230   5.253   5.911 -0.2067 -0.6965 -1.8467
  147SAPE   H5Y16173   0.163   5.419   5.911  1.7089 -1.0941 -0.0158
  147SAPE   C3616174   0.068   5.294   5.760 -0.4880  0.4488 -0.0516
  147SAPE   H6X16175  -0.006   5.376   5.751  0.8757  1.6951 -0.4197
  147SAPE   H6Y16176   0.014   5.197   5.749 -0.0554  0.3883 -2.2484
  147SAPE   C3716177   0.158   5.310   5.644 -0.4968 -0.9673 -0.3879
  147SAPE   H7X16178   0.219   5.218   5.645 -0.5833 -1.0275 -0.5486
  147SAPE   H7Y16179   0.220   5.400   5.665 -1.1674 -1.1126  2.6749
  147SAPE   C3816180   0.088   5.321   5.506 -0.1463 -0.5356 -0.8779
  147SAPE   H8X16181   0.036   5.418   5.508 -3.9256 -2.3950  0.5052
  147SAPE   H8Y16182   0.014   5.239   5.495  0.0199 -1.0024  1.0155
  147SAPE   C3916183   0.192   5.322   5.388  0.4975 -0.6023 -0.5829
  147SAPE   H9X16184   0.227   5.218   5.372 -0.7423 -1.2838  0.8323
  147SAPE   H9Y16185   0.280   5.384   5.413  0.8111 -0.8459 -1.0854
  147SAPE  C31016186   0.139   5.385   5.256 -0.0203 -0.0461 -0.2859
  147SAPE  H10X16187   0.114   5.490   5.283  0.4838  0.2147 -0.8264
  147SAPE  H10Y16188   0.038   5.348   5.228  0.5008 -0.4637 -1.7031
  147SAPE  C31116189   0.240   5.378   5.146  0.6004  0.3746  0.2018
  147SAPE  H11X16190   0.246   5.271   5.117  0.0966  0.4774 -0.2979
  147SAPE  H11Y16191   0.341   5.413   5.176  0.7912  1.2717 -1.3594
  147SAPE  C31216192   0.195   5.462   5.022 -0.0015  0.1153  0.0620
  147SAPE  H12X16193   0.204   5.568   5.053 -3.5860  0.8550 -0.9609
  147SAPE  H12Y16194   0.086   5.441   5.011 -0.3349  1.5154  0.4477
  147SAPE  C31316195   0.255   5.442   4.887  0.1758  0.0439 -0.3471
  147SAPE  H13X16196   0.243   5.337   4.853  1.8993 -0.5376  0.6916
  147SAPE  H13Y16197   0.365   5.448   4.907  0.1584 -1.6548  0.3681
  147SAPE  C31416198   0.210   5.548   4.788  0.1521  0.7946  0.9604
  147SAPE  H14X16199   0.247   5.645   4.827  1.0198  1.0932 -0.5246
  147SAPE  H14Y16200   0.099   5.554   4.789 -0.1636 -1.5830 -2.5052
  147SAPE  C31516201   0.276   5.516   4.648 -0.3780 -0.5942  0.7474
  147SAPE  H15X16202   0.368   5.453   4.649 -0.2504 -0.7585 -3.4112
  147SAPE  H15Y16203   0.298   5.610   4.594 -1.6198 -0.7193  0.0113
  147SAPE  C31616204   0.179   5.443   4.557  0.0177 -0.2311 -0.2133
  147SAPE  H16X16205   0.234   5.407   4.467 -0.3813  1.0601 -1.0072
  147SAPE  H16Y16206   0.112   5.519   4.512 -1.1826 -0.4748  1.0862
  147SAPE  C31716207   0.089   5.337   4.608 -0.0155  0.0941 -0.3609
  147SAPE  H17X16208  -0.009   5.369   4.651  0.1906 -1.7301  1.6548
  147SAPE  H17Y16209   0.148   5.278   4.681  0.4474 -0.1314 -0.9128
  147SAPE  C31816210   0.056   5.232   4.500  0.0147  0.3763 -0.0088
  147SAPE  H18X16211  -0.001   5.281   4.417  0.1595 -0.3129 -0.5213
  147SAPE  H18Y16212  -0.017   5.152   4.526  1.6782 -0.8235  1.1683
  147SAPE  H18Z16213   0.144   5.173   4.470  1.9116  1.7929  2.3894
  148SAPE     N16214   3.672   6.420   6.979 -0.1142  0.6638  0.0727
  148SAPE   HN116215   3.579   6.441   7.019 -0.9295  0.3421 -1.6070
  148SAPE   HN216216   3.658   6.357   6.898  0.2140  2.6703 -1.6401
  148SAPE   HN316217   3.725   6.358   7.044  0.0464 -0.9177 -1.4994
  148SAPE   C1216218   3.766   6.533   6.958  0.2452  0.1856 -0.3585
  148SAPE  H12A16219   3.749   6.605   7.041  0.8562 -0.2323  0.1362
  148SAPE  H12B16220   3.746   6.574   6.857 -2.2285  0.8089  0.3136
  148SAPE   C1116221   3.911   6.487   6.948 -0.1087 -0.5451  0.1281
  148SAPE  H11A16222   3.910   6.396   6.884 -0.2597  0.4042 -1.2702
  148SAPE  H11B16223   3.946   6.468   7.052  0.7862  1.0172  0.1433
  148SAPE     P16224   4.153   6.593   6.899  0.1593 -0.2110 -0.4118
  148SAPE   O1316225   4.187   6.696   6.990  0.1316 -0.2380 -0.3644
  148SAPE   O1416226   4.209   6.461   6.913  0.1194  0.2473 -0.3590
  148SAPE   O1216227   3.986   6.587   6.888 -0.1502 -0.1325  0.0314
  148SAPE   O1116228   4.201   6.642   6.759 -0.0749  0.3520 -0.6177
  148SAPE    C116229   4.141   6.747   6.688  0.3024  0.3430 -1.2397
  148SAPE    HA16230   4.134   6.842   6.746 -0.5057 -0.8908  0.7732
  148SAPE    HB16231   4.197   6.765   6.594 -1.3051 -0.9284 -2.5021
  148SAPE    C216232   4.006   6.707   6.625  0.3518 -0.3954  0.0443
  148SAPE    HS16233   3.933   6.737   6.703 -0.8672 -0.1847 -1.1492
  148SAPE   O2116234   4.007   6.567   6.593  0.8173 -0.0675  0.4978
  148SAPE   C2116235   3.879   6.516   6.581 -0.1276  0.0802  0.4095
  148SAPE   O2216236   3.779   6.574   6.608  0.2283 -0.5428  0.1425
  148SAPE   C2216237   3.893   6.368   6.554  0.1713 -0.7019  0.4346
  148SAPE   H2R16238   3.992   6.345   6.510  0.1857 -1.3931  0.8056
  148SAPE   H2S16239   3.899   6.312   6.650  2.0880 -2.2836 -0.5238
  148SAPE    C316240   3.973   6.801   6.500  0.2305  0.2459  0.5865
  148SAPE    HX16241   3.954   6.905   6.534 -2.5802  0.9789 -2.6360
  148SAPE    HY16242   3.871   6.778   6.462  0.8366 -0.8073 -0.5189
  148SAPE   O3116243   4.077   6.801   6.395  0.2352 -0.3964  0.3597
  148SAPE   C3116244   4.051   6.717   6.294  0.7307  0.2140  0.2087
  148SAPE   O3216245   3.941   6.656   6.279  0.0086 -1.0393  0.3038
  148SAPE   C3216246   4.162   6.710   6.189  0.2913 -0.5625 -0.2524
  148SAPE   H2X16247   4.255   6.707   6.249 -0.2989  0.8381  0.7931
  148SAPE   H2Y16248   4.157   6.810   6.142 -0.8360 -1.2425 -1.6697
  148SAPE   C2316249   3.775   6.304   6.472 -0.3854  0.0297 -0.0397
  148SAPE   H3R16250   3.679   6.308   6.527 -0.0069  1.9293  0.5353
  148SAPE   H3S16251   3.811   6.199   6.462  2.7646  1.0684 -0.8053
  148SAPE   C2416252   3.756   6.357   6.330 -0.7121  0.4847  0.5300
  148SAPE   H4R16253   3.842   6.327   6.266  0.1712  2.0891  0.9026
  148SAPE   H4S16254   3.758   6.468   6.337  2.2816  0.6983 -1.5937
  148SAPE   C2516255   3.627   6.334   6.263  0.5109 -0.1985  0.5387
  148SAPE   H5R16256   3.546   6.383   6.318  1.0276  0.0822  1.0676
  148SAPE   C2616257   3.610   6.257   6.158  0.4240  0.1002 -0.5324
  148SAPE   H6R16258   3.511   6.244   6.113  0.4425 -1.0323 -0.2770
  148SAPE   C2716259   3.702   6.179   6.067 -0.8118 -0.5069 -0.3850
  148SAPE   H7R16260   3.644   6.092   6.031  0.3749 -2.4554  2.1266
  148SAPE   H7S16261   3.782   6.130   6.126  1.6371  2.9142 -0.5443
  148SAPE   C2816262   3.779   6.264   5.969 -0.7902  0.3882  0.4310
  148SAPE   H8R16263   3.822   6.354   6.016 -0.0285 -0.8917  2.3351
  148SAPE   C2916264   3.779   6.252   5.838  0.1038 -0.0356 -0.3774
  148SAPE   H9R16265   3.838   6.324   5.779 -0.4038  0.4493 -0.3107
  148SAPE  C21016266   3.723   6.145   5.748 -0.0090  0.4127 -0.3142
  148SAPE  H10R16267   3.654   6.191   5.675  0.1218  1.2101  0.0472
  148SAPE  H10S16268   3.662   6.077   5.812 -1.0012  1.2068 -0.4026
  148SAPE  C21116269   3.831   6.068   5.671 -0.4992  0.6554  0.4418
  148SAPE  H11R16270   3.923   6.044   5.725 -0.0704 -2.3120 -1.3527
  148SAPE  C21216271   3.813   6.014   5.552 -0.1964  0.0006  0.2166
  148SAPE  H12R16272   3.898   5.961   5.506  1.0027  1.1327  1.0467
  148SAPE  C21316273   3.689   6.022   5.464 -0.5857  0.1186  1.3132
  148SAPE  H13R16274   3.588   6.019   5.512 -3.1685 -0.6139 -3.5117
  148SAPE  H13S16275   3.681   5.936   5.394 -0.8300  1.9779 -1.0864
  148SAPE  C21416276   3.688   6.150   5.376 -0.3228 -0.7581  0.2447
  148SAPE  H14R16277   3.634   6.232   5.426 -0.1817  0.0312 -0.8460
  148SAPE  C21516278   3.745   6.164   5.250 -0.0278 -0.9965  0.1614
  148SAPE  H15R16279   3.729   6.257   5.193  0.2061 -0.5866  0.7504
  148SAPE  C21616280   3.819   6.050   5.178 -0.1429 -0.2268 -0.1115
  148SAPE  H16R16281   3.774   6.039   5.077  1.8198  0.9718 -1.1811
  148SAPE  H16S16282   3.818   5.953   5.232  0.0306  0.7330  1.6916
  148SAPE  C21716283   3.971   6.075   5.150  0.0216  1.0811 -0.3621
  148SAPE  H17R16284   4.008   5.974   5.121  0.5877  1.8597 -2.5437
  148SAPE  H17S16285   4.033   6.104   5.237  1.8278 -1.0304 -0.8673
  148SAPE  C21816286   3.990   6.158   5.023  0.3454 -0.3247 -0.3198
  148SAPE  H18R16287   3.929   6.250   5.038  1.3211  0.3777 -0.5715
  148SAPE  H18S16288   3.938   6.105   4.941 -1.5114  2.0837 -0.8087
  148SAPE  C21916289   4.133   6.175   4.976  0.3393 -0.3453  0.0349
  148SAPE  H19R16290   4.180   6.075   4.964  1.4211  0.2971 -1.3596
  148SAPE  H19S16291   4.189   6.243   5.043  0.7854  0.3758 -1.0397
  148SAPE  C22016292   4.130   6.238   4.833  0.7291 -0.3101 -0.8686
  148SAPE  H20R16293   4.235   6.263   4.807  0.8430  0.1040 -0.0518
  148SAPE  H20S16294   4.094   6.343   4.836  1.8855  0.0974  1.9421
  148SAPE  H20T16295   4.086   6.180   4.749  1.6365 -1.9529 -0.2541
  148SAPE   C3316296   4.162   6.601   6.083 -0.0801  0.3307 -0.2510
  148SAPE   H3X16297   4.131   6.505   6.130  1.6523  0.5703  1.5328
  148SAPE   H3Y16298   4.267   6.581   6.055 -0.5860 -2.5458 -0.4183
  148SAPE   C3416299   4.092   6.634   5.950 -0.3450  0.0273  0.3794
  148SAPE   H4X16300   4.107   6.743   5.930 -1.9109  0.3969  1.1129
  148SAPE   H4Y16301   3.984   6.611   5.955 -0.1579 -1.6532 -1.7743
  148SAPE   C3516302   4.155   6.551   5.837  0.3451 -0.2648  0.5321
  148SAPE   H5X16303   4.132   6.445   5.862 -1.6525  0.6729  3.1339
  148SAPE   H5Y16304   4.264   6.570   5.842  0.0759  1.2404  1.5260
  148SAPE   C3616305   4.092   6.589   5.701  0.4446 -0.1440  0.2442
  148SAPE   H6X16306   4.082   6.699   5.692 -0.1465 -0.0299  1.9353
  148SAPE   H6Y16307   3.986   6.554   5.695 -0.3434  2.3063 -2.1076
  148SAPE   C3716308   4.176   6.533   5.594  0.0491 -0.1132  0.1954
  148SAPE   H7X16309   4.277   6.502   5.627  0.0163  1.3466  1.8225
  148SAPE   H7Y16310   4.197   6.609   5.516  2.0694 -0.8048  0.0213
  148SAPE   C3816311   4.113   6.416   5.514  0.1285 -0.0797  0.7007
  148SAPE   H8X16312   4.012   6.442   5.477  0.4958 -0.1299 -0.3992
  148SAPE   H8Y16313   4.095   6.328   5.579  0.0878 -0.6703 -0.0908
  148SAPE   C3916314   4.200   6.375   5.390  0.3571  0.6656 -0.0879
  148SAPE   H9X16315   4.203   6.469   5.332  0.8701  1.7078  1.5596
  148SAPE   H9Y16316   4.150   6.292   5.336  0.4279 -1.9036  3.4202
  148SAPE  C31016317   4.346   6.345   5.411 -0.0365  0.0225  0.6440
  148SAPE  H10X16318   4.362   6.271   5.492  2.3562  0.9563  1.0921
  148SAPE  H10Y16319   4.396   6.433   5.456  1.1897  0.8033 -2.0014
  148SAPE  C31116320   4.407   6.293   5.284  0.2433 -0.1962  0.7498
  148SAPE  H11X16321   4.410   6.385   5.221 -0.8549 -0.4418  0.3103
  148SAPE  H11Y16322   4.338   6.216   5.241 -0.0329  0.1343  0.5908
  148SAPE  C31216323   4.548   6.235   5.308 -0.1093 -0.0447 -0.2965
  148SAPE  H12X16324   4.543   6.169   5.398  0.4577  2.7109  1.9038
  148SAPE  H12Y16325   4.621   6.314   5.334 -1.3997  0.4944  1.9265
  148SAPE  C31316326   4.597   6.146   5.197  0.7878  0.4250 -0.5553
  148SAPE  H13X16327   4.518   6.104   5.131  1.4078 -0.1504 -0.9420
  148SAPE  H13Y16328   4.643   6.058   5.246  0.0697  0.2214 -0.2431
  148SAPE  C31416329   4.683   6.223   5.094  0.2845  0.4809 -0.7417
  148SAPE  H14X16330   4.791   6.222   5.122  0.2399 -2.3042 -0.3660
  148SAPE  H14Y16331   4.657   6.331   5.102  0.9978  0.6529 -0.6453
  148SAPE  C31516332   4.664   6.177   4.952 -0.6376 -0.5918 -0.7847
  148SAPE  H15X16333   4.556   6.151   4.940 -0.8778 -1.2975  2.2107
  148SAPE  H15Y16334   4.709   6.078   4.931  2.8776  1.0200 -1.4301
  148SAPE  C31616335   4.725   6.278   4.853  0.3534 -0.3574 -0.6331
  148SAPE  H16X16336   4.832   6.256   4.832  1.2542  2.7566  0.0593
  148SAPE  H16Y16337   4.711   6.372   4.911 -0.9519  0.0097 -1.5009
  148SAPE  C31716338   4.645   6.306   4.720  0.1336  0.0926  0.4648
  148SAPE  H17X16339   4.689   6.394   4.668 -1.2427  0.1492 -0.6748
  148SAPE  H17Y16340   4.541   6.335   4.744 -0.7687 -1.3327 -1.4417
  148SAPE  C31816341   4.630   6.194   4.618  0.0649 -0.1144  0.6589
  148SAPE  H18X16342   4.572   6.223   4.528 -1.9997 -0.1776  1.9025
  148SAPE  H18Y16343   4.577   6.105   4.658 -1.0464  0.7026  1.0506
  148SAPE  H18Z16344   4.727   6.152   4.584 -0.9325 -1.0598 -1.1887
  149SAPE     N16345   4.037   1.733   6.944  0.2332  0.2129  0.6858
  149SAPE   HN116346   4.098   1.652   6.922  0.4809  0.6238 -0.1812
  149SAPE   HN216347   4.097   1.812   6.975 -1.4456  1.5651  0.6075
  149SAPE   HN316348   3.986   1.715   7.034 -1.5022  4.1100  0.6894
  149SAPE   C1216349   3.932   1.776   6.845  0.1805 -0.1205  0.1891
  149SAPE  H12A16350   3.860   1.853   6.881 -0.0905 -0.0227 -0.5323
  149SAPE  H12B16351   3.869   1.689   6.816  0.9410  0.0661 -2.3076
  149SAPE   C1116352   3.992   1.829   6.715 -0.5527 -0.2325  0.1253
  149SAPE  H11A16353   3.910   1.846   6.642 -0.0003 -1.0125 -0.6944
  149SAPE  H11B16354   4.066   1.758   6.671  0.3998  0.0260  1.2608
  149SAPE     P16355   3.980   2.093   6.714  0.2224 -0.1595  0.0748
  149SAPE   O1316356   3.829   2.084   6.718 -0.2579  0.2652 -0.4476
  149SAPE   O1416357   4.040   2.195   6.803 -0.5905 -0.3419  0.5437
  149SAPE   O1216358   4.051   1.954   6.747  0.2997 -0.4479 -0.0082
  149SAPE   O1116359   4.034   2.131   6.573 -0.2047  0.1360  0.0527
  149SAPE    C116360   4.175   2.136   6.565 -0.1503  0.4282 -0.4226
  149SAPE    HA16361   4.235   2.070   6.632  0.2671  0.3768 -0.8476
  149SAPE    HB16362   4.188   2.103   6.460 -1.7964 -0.2100 -0.4620
  149SAPE    C216363   4.246   2.270   6.566 -0.3542 -0.0333 -0.1607
  149SAPE    HS16364   4.237   2.309   6.670 -1.4036  2.8994 -1.2364
  149SAPE   O2116365   4.183   2.364   6.476  0.7459 -0.5089 -0.4522
  149SAPE   C2116366   4.217   2.488   6.499  0.1236 -0.0574  0.9146
  149SAPE   O2216367   4.294   2.529   6.584  0.4106 -0.7592  0.1708
  149SAPE   C2216368   4.167   2.571   6.394  0.3267  0.2700  0.3702
  149SAPE   H2R16369   4.180   2.515   6.299 -1.8881  0.0364  0.1531
  149SAPE   H2S16370   4.059   2.595   6.409  0.0273 -1.5837  1.3641
  149SAPE    C316371   4.400   2.248   6.539 -0.1401  0.2362  0.8302
  149SAPE    HX16372   4.434   2.166   6.606  1.8702 -0.2007 -0.6488
  149SAPE    HY16373   4.468   2.334   6.559  1.0681  0.1168 -2.2605
  149SAPE   O3116374   4.412   2.204   6.400  0.7971 -0.2241  0.0816
  149SAPE   C3116375   4.434   2.291   6.307  0.1495 -0.2937  0.2961
  149SAPE   O3216376   4.470   2.408   6.327  0.7316  0.0249 -0.1798
  149SAPE   C3216377   4.391   2.239   6.172 -0.1011 -0.0333 -0.0790
  149SAPE   H2X16378   4.281   2.242   6.159 -0.0527  0.9523 -0.2784
  149SAPE   H2Y16379   4.413   2.131   6.159 -1.8618 -0.6087  1.2252
  149SAPE   C2316380   4.236   2.700   6.362 -0.1957 -0.6687  0.0854
  149SAPE   H3R16381   4.346   2.690   6.351 -0.0780  0.9586 -0.5430
  149SAPE   H3S16382   4.240   2.763   6.453  2.5550 -0.7221  0.0611
  149SAPE   C2416383   4.177   2.765   6.244 -0.0104 -0.1879  0.5885
  149SAPE   H4R16384   4.069   2.789   6.259  0.1272  0.3760  0.7016
  149SAPE   H4S16385   4.172   2.696   6.156 -0.0828 -2.9824  2.6653
  149SAPE   C2516386   4.241   2.891   6.203 -0.0785  0.1536 -0.3402
  149SAPE   H5R16387   4.224   2.975   6.273  0.7685  0.6202 -0.6871
  149SAPE   C2616388   4.308   2.913   6.087  0.3800  0.3376  0.2134
  149SAPE   H6R16389   4.357   3.011   6.070 -0.2079  1.0484  2.3141
  149SAPE   C2716390   4.340   2.807   5.990 -0.0282 -0.7995  0.5413
  149SAPE   H7R16391   4.328   2.701   6.020  2.4189 -1.5639 -0.9199
  149SAPE   H7S16392   4.446   2.820   5.959  0.0736  1.8898  1.6851
  149SAPE   C2816393   4.235   2.823   5.882  0.5757 -0.2498  0.4279
  149SAPE   H8R16394   4.134   2.842   5.921  0.3975  0.7480 -0.4735
  149SAPE   C2916395   4.258   2.820   5.746 -0.1597  0.4280  0.6066
  149SAPE   H9R16396   4.179   2.823   5.670  0.7752 -0.6482 -0.4497
  149SAPE  C21016397   4.388   2.804   5.674 -0.1346 -0.7862  0.8321
  149SAPE  H10R16398   4.476   2.833   5.735 -0.9163 -1.8209  2.5082
  149SAPE  H10S16399   4.377   2.871   5.585 -1.0204 -1.5586  0.3483
  149SAPE  C21116400   4.391   2.660   5.619 -0.2932  0.0817 -0.6038
  149SAPE  H11R16401   4.360   2.586   5.694  2.5289 -1.0601 -0.4278
  149SAPE  C21216402   4.423   2.611   5.501  1.0720 -0.9099  0.2853
  149SAPE  H12R16403   4.418   2.502   5.487 -0.0253 -0.8271 -0.0334
  149SAPE  C21316404   4.459   2.696   5.379  0.0436 -0.1862  0.1042
  149SAPE  H13R16405   4.540   2.640   5.328  2.6579  2.1457  1.4391
  149SAPE  H13S16406   4.508   2.790   5.412 -0.4587  0.0560  0.1725
  149SAPE  C21416407   4.332   2.733   5.302 -0.4252  0.7688 -0.5289
  149SAPE  H14R16408   4.268   2.811   5.345 -1.6386  1.0141 -2.6332
  149SAPE  C21516409   4.299   2.682   5.179  0.0379 -0.3643 -0.2194
  149SAPE  H15R16410   4.215   2.726   5.123 -0.2930 -0.4102  0.2387
  149SAPE  C21616411   4.370   2.576   5.094 -0.0040  0.0745  0.4516
  149SAPE  H16R16412   4.309   2.484   5.081  2.6882 -1.6970 -0.5194
  149SAPE  H16S16413   4.467   2.551   5.141  0.2777  3.0196  1.6867
  149SAPE  C21716414   4.420   2.613   4.956 -0.1221  0.3933  0.0601
  149SAPE  H17R16415   4.499   2.691   4.963 -0.6280  0.8254  1.3160
  149SAPE  H17S16416   4.338   2.657   4.895  0.3611  0.7089 -0.3646
  149SAPE  C21816417   4.467   2.488   4.877 -0.6427  0.2331 -0.1210
  149SAPE  H18R16418   4.387   2.412   4.888 -1.5652  1.2602  0.3877
  149SAPE  H18S16419   4.560   2.461   4.932 -0.5475  1.4781  0.3605
  149SAPE  C21916420   4.488   2.519   4.732  0.8396  0.0123 -0.3451
  149SAPE  H19R16421   4.393   2.566   4.701  0.4294 -0.4079  0.2592
  149SAPE  H19S16422   4.506   2.424   4.678 -0.5448 -0.9967  0.8941
  149SAPE  C22016423   4.589   2.630   4.703  0.0260 -0.1528 -0.3193
  149SAPE  H20R16424   4.674   2.593   4.765 -1.4201 -1.8892  0.7352
  149SAPE  H20S16425   4.560   2.733   4.730  4.7159  1.5039 -0.6157
  149SAPE  H20T16426   4.624   2.629   4.598  1.2471  0.3957  0.0671
  149SAPE   C3316427   4.461   2.316   6.058 -0.6386 -0.0645  0.1520
  149SAPE   H3X16428   4.570   2.321   6.078  0.0986  0.5499 -3.3400
  149SAPE   H3Y16429   4.434   2.424   6.060  1.0921  0.4074  0.0122
  149SAPE   C3416430   4.441   2.251   5.924  0.5328 -0.1538  0.7032
  149SAPE   H4X16431   4.335   2.219   5.916 -0.0802  1.4370  1.9902
  149SAPE   H4Y16432   4.512   2.166   5.923  1.6189  0.7364 -0.0056
  149SAPE   C3516433   4.485   2.341   5.812  0.1375 -0.6037  0.5110
  149SAPE   H5X16434   4.553   2.423   5.844 -1.1153 -0.4227  2.9921
  149SAPE   H5Y16435   4.402   2.399   5.765  0.1193  0.3712  1.6951
  149SAPE   C3616436   4.567   2.269   5.705  0.2811 -0.6972 -0.2350
  149SAPE   H6X16437   4.666   2.246   5.749  0.8285 -1.4641 -1.7825
  149SAPE   H6Y16438   4.579   2.346   5.625  0.8844 -0.1214  0.4022
  149SAPE   C3716439   4.507   2.139   5.651 -0.3769 -0.4260  0.4624
  149SAPE   H7X16440   4.396   2.146   5.650 -0.4986 -2.0375 -0.0339
  149SAPE   H7Y16441   4.545   2.059   5.717  4.3649  0.5872 -0.6385
  149SAPE   C3816442   4.540   2.124   5.500 -0.1339  0.1735  0.4807
  149SAPE   H8X16443   4.470   2.045   5.466 -1.3891  1.0003  1.0882
  149SAPE   H8Y16444   4.641   2.081   5.481  0.6734  1.1688  2.2475
  149SAPE   C3916445   4.520   2.233   5.398  0.2357 -0.0171 -0.4592
  149SAPE   H9X16446   4.613   2.290   5.378  1.1019 -1.6286 -1.1861
  149SAPE   H9Y16447   4.442   2.293   5.449  1.5819  1.5044 -0.0690
  149SAPE  C31016448   4.467   2.187   5.263 -0.0605 -0.6570 -0.5758
  149SAPE  H10X16449   4.390   2.265   5.246  0.3881 -0.2602 -0.8060
  149SAPE  H10Y16450   4.413   2.090   5.259 -0.3431 -0.5094 -0.4122
  149SAPE  C31116451   4.577   2.180   5.164 -0.4770 -0.4944  0.2317
  149SAPE  H11X16452   4.644   2.097   5.198 -0.1590 -0.2629  0.1813
  149SAPE  H11Y16453   4.628   2.278   5.154 -0.5655 -0.4767 -0.0432
  149SAPE  C31216454   4.521   2.131   5.026  0.4155  0.4370  0.3183
  149SAPE  H12X16455   4.464   2.214   4.979  0.2021 -0.8255 -1.7938
  149SAPE  H12Y16456   4.458   2.039   5.036  1.1922 -0.1508 -0.0819
  149SAPE  C31316457   4.630   2.103   4.922  0.4046  0.7440  0.0495
  149SAPE  H13X16458   4.588   2.030   4.848  1.1839 -0.3727  0.6785
  149SAPE  H13Y16459   4.710   2.041   4.967  0.7547  1.9411  1.1175
  149SAPE  C31416460   4.682   2.224   4.851  0.6232 -0.4304 -0.0727
  149SAPE  H14X16461   4.717   2.303   4.921  2.8813 -1.3167 -0.1154
  149SAPE  H14Y16462   4.609   2.255   4.773  0.6474  0.6922  0.3347
  149SAPE  C31516463   4.806   2.192   4.765  0.1716  0.0067  0.4381
  149SAPE  H15X16464   4.784   2.115   4.688  2.5519 -0.9879  0.6683
  149SAPE  H15Y16465   4.896   2.167   4.826  0.9038  0.4083 -0.4476
  149SAPE  C31616466   4.853   2.317   4.683  0.5693  0.2666  0.6725
  149SAPE  H16X16467   4.763   2.376   4.658  0.2859 -0.1371  0.7424
  149SAPE  H16Y16468   4.909   2.283   4.593 -2.8985  0.7270 -1.8298
  149SAPE  C31716469   4.954   2.403   4.762  0.0035 -0.4166 -0.2099
  149SAPE  H17X16470   5.038   2.330   4.773  1.3060  1.0843  0.2378
  149SAPE  H17Y16471   4.915   2.430   4.862 -1.1050 -1.9432 -0.1990
  149SAPE  C31816472   5.011   2.525   4.678 -0.5216  0.7521  0.4378
  149SAPE  H18X16473   4.934   2.603   4.666 -1.5167 -0.4892 -1.8287
  149SAPE  H18Y16474   5.037   2.492   4.576  3.6459 -1.5274  1.9796
  149SAPE  H18Z16475   5.107   2.567   4.714  0.1217 -0.5391  0.3130
  150SAPE     N16476   6.374   2.876   7.068 -0.0095  0.4139  0.0524
  150SAPE   HN116477   6.314   2.795   7.044  0.9393 -0.6540  1.1666
  150SAPE   HN216478   6.455   2.842   7.124  0.6712  2.8171  0.6507
  150SAPE   HN316479   6.315   2.943   7.121 -0.1620  1.0132 -0.8538
  150SAPE   C1216480   6.418   2.949   6.950 -0.2872  1.0055  0.3229
  150SAPE  H12A16481   6.504   3.016   6.972  0.5731  0.3376 -0.8450
  150SAPE  H12B16482   6.323   2.999   6.919 -1.4204 -0.6770  0.9648
  150SAPE   C1116483   6.465   2.851   6.845  0.0820  0.7266 -0.3515
  150SAPE  H11A16484   6.466   2.908   6.750  2.1630 -0.4584 -1.0915
  150SAPE  H11B16485   6.384   2.778   6.822  1.1861 -1.0249  1.0223
  150SAPE     P16486   6.716   2.816   6.788 -0.5954  0.1302  0.0263
  150SAPE   O1316487   6.772   2.944   6.834  0.0107  0.2140  0.2460
  150SAPE   O1416488   6.805   2.704   6.812  0.2230 -0.0181  0.1847
  150SAPE   O1216489   6.590   2.787   6.872  0.2799  0.2882 -0.4764
  150SAPE   O1116490   6.674   2.835   6.643  0.0470 -0.0612 -0.1736
  150SAPE    C116491   6.609   2.736   6.571 -0.5201  0.3764  0.3575
  150SAPE    HA16492   6.606   2.639   6.624  1.2872  0.3243  0.4449
  150SAPE    HB16493   6.509   2.773   6.539  0.6289  2.2872 -1.2735
  150SAPE    C216494   6.699   2.710   6.443 -0.0461  0.1914 -0.4743
  150SAPE    HS16495   6.637   2.665   6.363  1.8633 -2.4901 -0.5726
  150SAPE   O2116496   6.810   2.617   6.483  0.4348  0.2405 -0.6077
  150SAPE   C2116497   6.788   2.492   6.469  0.1195 -0.4626 -0.1424
  150SAPE   O2216498   6.688   2.441   6.420 -0.1439  0.1432  0.1386
  150SAPE   C2216499   6.914   2.407   6.496 -0.3707  0.1573  0.3504
  150SAPE   H2R16500   6.996   2.477   6.523 -1.1209  0.5147  1.7690
  150SAPE   H2S16501   6.887   2.337   6.578  2.2773 -0.2283  0.9719
  150SAPE    C316502   6.762   2.843   6.385  0.1131  0.0919 -0.0688
  150SAPE    HX16503   6.846   2.874   6.451 -1.5583  0.9631  1.7240
  150SAPE    HY16504   6.690   2.926   6.397  0.2424  0.0129  1.3637
  150SAPE   O3116505   6.801   2.831   6.246  0.4941 -0.2258 -0.2445
  150SAPE   C3116506   6.926   2.776   6.225 -0.2178  0.3240 -0.1759
  150SAPE   O3216507   7.002   2.749   6.316  0.3259  0.7890  0.3572
  150SAPE   C3216508   6.946   2.754   6.073 -0.5880 -0.2846  0.0043
  150SAPE   H2X16509   6.892   2.843   6.033  1.4295  0.9963 -0.0177
  150SAPE   H2Y16510   6.902   2.656   6.046  0.0471 -0.9328  1.2366
  150SAPE   C2316511   6.952   2.316   6.377  0.6258  0.6989  0.0475
  150SAPE   H3R16512   6.881   2.238   6.343  1.6706 -0.8923  1.3793
  150SAPE   H3S16513   7.040   2.253   6.400  0.0338 -1.1112 -2.1866
  150SAPE   C2416514   6.981   2.404   6.257  0.2636 -0.1006 -0.6809
  150SAPE   H4R16515   7.049   2.483   6.295  0.1898  0.1101 -0.9812
  150SAPE   H4S16516   6.886   2.444   6.215 -0.1984 -0.7980 -0.3129
  150SAPE   C2516517   7.046   2.319   6.153  0.4178 -0.0681  0.1725
  150SAPE   H5R16518   7.150   2.290   6.171  0.3461 -0.5089 -0.1050
  150SAPE   C2616519   7.001   2.294   6.034  0.0438  0.5057 -0.0041
  150SAPE   H6R16520   7.068   2.244   5.963  0.9530  2.4133 -0.5550
  150SAPE   C2716521   6.877   2.345   5.968  0.5820  0.1771 -0.5020
  150SAPE   H7R16522   6.915   2.395   5.877 -2.2016  1.1025 -1.2678
  150SAPE   H7S16523   6.828   2.427   6.026  0.6147 -1.6593  2.3568
  150SAPE   C2816524   6.775   2.241   5.939 -0.3488 -0.3004 -0.2795
  150SAPE   H8R16525   6.706   2.223   6.022 -0.9821  2.9549  0.0169
  150SAPE   C2916526   6.756   2.187   5.818 -0.0397  0.5842 -1.1591
  150SAPE   H9R16527   6.680   2.107   5.814 -1.5821  1.7765  1.4863
  150SAPE  C21016528   6.856   2.205   5.702  0.6101 -0.5370  0.1708
  150SAPE  H10R16529   6.946   2.142   5.717 -0.3769 -1.7095  1.3969
  150SAPE  H10S16530   6.911   2.301   5.701  1.0770 -0.7872  1.0719
  150SAPE  C21116531   6.797   2.183   5.563  1.1255 -0.3016 -0.1081
  150SAPE  H11R16532   6.695   2.143   5.569 -0.1574  2.5646 -0.9131
  150SAPE  C21216533   6.853   2.203   5.445 -0.6623 -0.3332  0.5096
  150SAPE  H12R16534   6.798   2.186   5.351 -0.4684  0.5667  0.2227
  150SAPE  C21316535   6.990   2.253   5.428 -0.0404 -0.0498 -0.2093
  150SAPE  H13R16536   7.019   2.314   5.517  1.3183  0.4352 -0.9460
  150SAPE  H13S16537   6.992   2.334   5.352  1.2695  1.5618  1.4375
  150SAPE  C21416538   7.099   2.157   5.411 -0.8087  0.2715 -0.3174
  150SAPE  H14R16539   7.075   2.051   5.394  4.1390 -0.6782 -3.1823
  150SAPE  C21516540   7.232   2.193   5.401  0.3113  0.2331  0.4662
  150SAPE  H15R16541   7.306   2.113   5.384  1.4729  1.1765  0.9343
  150SAPE  C21616542   7.290   2.327   5.417 -0.2122 -0.0891  0.0790
  150SAPE  H16R16543   7.354   2.337   5.507 -0.1051 -1.9392  0.2493
  150SAPE  H16S16544   7.210   2.405   5.418 -1.4371 -1.3106 -0.2013
  150SAPE  C21716545   7.378   2.346   5.292  0.6209  0.0827 -0.1871
  150SAPE  H17R16546   7.317   2.354   5.199 -0.6068  0.9167  0.6677
  150SAPE  H17S16547   7.446   2.257   5.290 -0.8465 -1.1354  1.3192
  150SAPE  C21816548   7.450   2.482   5.299  0.1747 -0.0936 -0.7437
  150SAPE  H18R16549   7.503   2.498   5.395 -0.4531 -1.9825 -0.0211
  150SAPE  H18S16550   7.369   2.557   5.301 -1.2027 -1.5324 -0.1737
  150SAPE  C21916551   7.533   2.530   5.179 -0.3541  0.4163 -0.6111
  150SAPE  H19R16552   7.474   2.527   5.085 -1.0780  1.7810 -0.2266
  150SAPE  H19S16553   7.622   2.463   5.170 -1.0697 -1.2458  2.9967
  150SAPE  C22016554   7.578   2.675   5.203 -0.7358 -0.5620 -0.0523
  150SAPE  H20R16555   7.537   2.742   5.125  0.2373 -1.1280 -1.0733
  150SAPE  H20S16556   7.689   2.687   5.201 -0.9479  1.8387 -1.7665
  150SAPE  H20T16557   7.541   2.706   5.304 -1.4131 -0.7058 -0.2533
  150SAPE   C3316558   7.097   2.746   6.051  0.3604  0.0632  0.0474
  150SAPE   H3X16559   7.128   2.646   6.087  0.2043  0.2852  0.8213
  150SAPE   H3Y16560   7.141   2.837   6.096 -3.8864  1.1520  2.5428
  150SAPE   C3416561   7.137   2.759   5.904  0.6842  0.2405  0.5073
  150SAPE   H4X16562   7.247   2.766   5.906  0.8250 -0.4242 -1.8134
  150SAPE   H4Y16563   7.092   2.857   5.877  1.5114  0.8308  1.2172
  150SAPE   C3516564   7.095   2.641   5.804  0.1081 -0.0017 -0.1651
  150SAPE   H5X16565   6.986   2.623   5.806  0.1333 -0.1203  1.1745
  150SAPE   H5Y16566   7.161   2.558   5.840  1.3657  1.2748  0.5783
  150SAPE   C3616567   7.144   2.671   5.660  0.5116 -0.3486 -0.2793
  150SAPE   H6X16568   7.101   2.585   5.605  0.5468 -1.5804  1.5192
  150SAPE   H6Y16569   7.256   2.667   5.660  0.4821 -1.4876 -0.7326
  150SAPE   C3716570   7.091   2.804   5.605 -1.0908  0.7676 -0.0295
  150SAPE   H7X16571   7.115   2.799   5.497  2.6583  0.0943  0.6811
  150SAPE   H7Y16572   7.150   2.891   5.642  0.0594 -0.4405  1.0948
  150SAPE   C3816573   6.940   2.831   5.625 -0.0174 -0.3854  0.2204
  150SAPE   H8X16574   6.917   2.817   5.732 -1.3675 -1.7832 -0.2166
  150SAPE   H8Y16575   6.884   2.748   5.577  0.6474 -1.8702  1.9252
  150SAPE   C3916576   6.889   2.962   5.561 -0.2965  0.0061  0.1477
  150SAPE   H9X16577   6.918   2.971   5.454 -2.8799  0.8973 -0.5399
  150SAPE   H9Y16578   6.951   3.040   5.610  1.7436 -0.6785 -1.2163
  150SAPE  C31016579   6.738   2.973   5.567  0.2231  0.4524 -0.0022
  150SAPE  H10X16580   6.692   2.970   5.668  1.7238 -1.9449  0.6970
  150SAPE  H10Y16581   6.697   2.880   5.522 -1.6130  0.3816  1.6645
  150SAPE  C31116582   6.678   3.082   5.482  0.5216  1.2031 -0.2087
  150SAPE  H11X16583   6.716   3.071   5.379 -0.1497  1.4896 -0.4913
  150SAPE  H11Y16584   6.715   3.182   5.514 -3.1180  2.5808  0.1649
  150SAPE  C31216585   6.525   3.086   5.481  0.1228 -0.0442 -0.2150
  150SAPE  H12X16586   6.498   2.984   5.447 -0.5602 -0.2362  0.8535
  150SAPE  H12Y16587   6.473   3.149   5.405 -0.9008  0.3455  0.7708
  150SAPE  C31316588   6.457   3.108   5.619  0.3595 -0.2035 -0.0058
  150SAPE  H13X16589   6.491   3.028   5.689  0.8641 -0.6741 -0.7623
  150SAPE  H13Y16590   6.349   3.085   5.611  0.1482  0.9884 -0.7695
  150SAPE  C31416591   6.474   3.251   5.672  0.4385  0.5252  0.5701
  150SAPE  H14X16592   6.435   3.321   5.595 -0.9941 -1.8456 -0.9993
  150SAPE  H14Y16593   6.585   3.257   5.672  0.5717 -1.2804 -0.0530
  150SAPE  C31516594   6.420   3.289   5.808  0.5079 -0.4503 -0.1510
  150SAPE  H15X16595   6.447   3.203   5.872 -0.3753 -1.2857 -0.8544
  150SAPE  H15Y16596   6.309   3.289   5.794  0.8093 -1.3043 -3.4332
  150SAPE  C31616597   6.480   3.406   5.880 -0.3177 -0.1089 -0.2425
  150SAPE  H16X16598   6.455   3.509   5.847  2.1210  1.1985  1.6347
  150SAPE  H16Y16599   6.588   3.397   5.852  0.3077 -3.4738  2.5273
  150SAPE  C31716600   6.487   3.393   6.036 -0.4399  0.7416  0.4830
  150SAPE  H17X16601   6.526   3.295   6.071 -0.5690  0.1614 -0.9312
  150SAPE  H17Y16602   6.378   3.384   6.053 -0.3949 -1.1133 -0.0540
  150SAPE  C31816603   6.541   3.514   6.122  0.0027 -0.6381  0.1094
  150SAPE  H18X16604   6.478   3.601   6.094  1.0213 -0.1037 -0.5724
  150SAPE  H18Y16605   6.645   3.535   6.089  0.3922  0.4991  1.8889
  150SAPE  H18Z16606   6.549   3.495   6.232  2.4629  0.8634  0.2591
  151SAPE     N16607   1.094   0.167   6.875 -0.3798  0.1353 -0.1576
  151SAPE   HN116608   1.125   0.196   6.970 -1.0209 -0.6715  0.3090
  151SAPE   HN216609   1.086   0.063   6.879  0.3967  0.0264 -1.0267
  151SAPE   HN316610   1.171   0.184   6.807  0.8929 -1.6857  0.7119
  151SAPE   C1216611   0.971   0.229   6.824  0.4673  0.0094  0.4497
  151SAPE  H12A16612   0.965   0.203   6.716  1.8653  0.4946  0.2327
  151SAPE  H12B16613   0.975   0.340   6.810  1.4715 -0.1838 -1.0412
  151SAPE   C1116614   0.832   0.194   6.892  0.7509 -0.5704 -0.1032
  151SAPE  H11A16615   0.765   0.258   6.831  0.5879  1.5580  2.1885
  151SAPE  H11B16616   0.834   0.231   6.997 -1.2438 -0.9278  0.0939
  151SAPE     P16617   0.664   0.012   6.787 -0.1179  0.0802 -0.3868
  151SAPE   O1316618   0.703  -0.108   6.707 -0.0586 -0.4797  0.3470
  151SAPE   O1416619   0.549  -0.006   6.874 -0.0697 -0.4490 -0.2163
  151SAPE   O1216620   0.785   0.054   6.879  0.3921 -0.0024  0.1424
  151SAPE   O1116621   0.638   0.133   6.688 -0.6315  0.1237 -0.2346
  151SAPE    C116622   0.688   0.136   6.556  0.0191  0.7177 -0.2754
  151SAPE    HA16623   0.798   0.154   6.550  0.4410 -1.5626 -0.6344
  151SAPE    HB16624   0.674   0.035   6.510  0.7616  0.2171  0.5617
  151SAPE    C216625   0.614   0.240   6.461  0.5674  0.2982  0.3041
  151SAPE    HS16626   0.602   0.338   6.513 -1.0364 -0.3566  1.2550
  151SAPE   O2116627   0.485   0.182   6.429 -0.5988  0.1537 -0.2955
  151SAPE   C2116628   0.386   0.214   6.509 -0.6918  0.9322  0.8125
  151SAPE   O2216629   0.380   0.298   6.597 -0.7124 -0.3798 -0.1627
  151SAPE   C2216630   0.271   0.137   6.454 -0.5696  0.6053  0.1785
  151SAPE   H2R16631   0.180   0.197   6.435  0.3064  2.0317  0.2651
  151SAPE   H2S16632   0.297   0.091   6.356 -0.2560 -0.3344  0.6892
  151SAPE    C316633   0.689   0.272   6.333 -0.7383 -0.3180  0.3958
  151SAPE    HX16634   0.772   0.338   6.369 -1.8508  1.2373  0.2078
  151SAPE    HY16635   0.641   0.332   6.253 -0.5408  0.7655  1.0504
  151SAPE   O3116636   0.752   0.154   6.274 -0.2279  0.3556 -0.6731
  151SAPE   C3116637   0.860   0.176   6.205 -0.4846  0.4540  0.4651
  151SAPE   O3216638   0.912   0.283   6.184 -0.1412  0.2802  0.1992
  151SAPE   C3216639   0.910   0.044   6.152 -0.5322  0.2658  0.2620
  151SAPE   H2X16640   0.887  -0.043   6.218  2.3476 -1.0645 -0.3371
  151SAPE   H2Y16641   1.020   0.061   6.147 -0.8863  3.1570  0.7563
  151SAPE   C2316642   0.230   0.026   6.552  0.4548  0.4221 -0.9466
  151SAPE   H3R16643   0.199   0.072   6.648 -0.9975 -2.4331  0.0392
  151SAPE   H3S16644   0.318  -0.027   6.595  1.8145  4.1447  1.3752
  151SAPE   C2416645   0.120  -0.074   6.501  0.2925 -0.4324  0.1253
  151SAPE   H4R16646   0.103  -0.144   6.585 -4.2047 -0.2605 -0.4013
  151SAPE   H4S16647   0.162  -0.119   6.408  0.1059  1.0904 -0.7375
  151SAPE   C2516648  -0.012  -0.013   6.471 -0.3804  0.3078 -0.4148
  151SAPE   H5R16649  -0.070   0.028   6.554 -1.1234 -1.3910 -0.0617
  151SAPE   C2616650  -0.072   0.004   6.355  0.8856  0.0755 -0.0319
  151SAPE   H6R16651  -0.162   0.066   6.348 -0.0163 -1.2688 -1.2054
  151SAPE   C2716652  -0.012  -0.031   6.218  0.4189 -0.4690 -0.2224
  151SAPE   H7R16653  -0.048  -0.134   6.199 -1.5140 -0.1790  1.4556
  151SAPE   H7S16654   0.098  -0.038   6.224  0.5072 -0.6516 -1.7408
  151SAPE   C2816655  -0.041   0.066   6.103 -0.0389 -0.2829 -0.5508
  151SAPE   H8R16656  -0.091   0.163   6.118  0.5148  0.4039 -2.8134
  151SAPE   C2916657  -0.031   0.041   5.974  0.6395  0.1360  0.4964
  151SAPE   H9R16658  -0.049   0.119   5.898 -0.1333 -0.1245  0.4036
  151SAPE  C21016659   0.016  -0.094   5.925  0.2183  0.6376  0.0806
  151SAPE  H10R16660  -0.071  -0.145   5.877 -0.1669  1.0667  0.3147
  151SAPE  H10S16661   0.053  -0.156   6.010  1.3981 -0.4264 -1.1591
  151SAPE  C21116662   0.136  -0.087   5.831  0.1192 -0.3062  0.3172
  151SAPE  H11R16663   0.232  -0.062   5.879  0.2076  1.4887 -0.7157
  151SAPE  C21216664   0.131  -0.073   5.694  0.4200  0.0643 -0.7738
  151SAPE  H12R16665   0.228  -0.076   5.644  0.7611  0.3215 -0.1388
  151SAPE  C21316666   0.005  -0.077   5.609  0.2758 -0.5299  0.2564
  151SAPE  H13R16667  -0.069  -0.129   5.673 -0.4897  0.7336  0.4404
  151SAPE  H13S16668   0.023  -0.132   5.515 -0.6193  0.4961 -0.5419
  151SAPE  C21416669  -0.039   0.070   5.573 -0.0227 -0.3135  0.1364
  151SAPE  H14R16670   0.021   0.148   5.621  3.8005 -3.1014  0.4092
  151SAPE  C21516671  -0.131   0.099   5.481 -0.5124 -0.3480  0.0937
  151SAPE  H15R16672  -0.155   0.204   5.462  0.4267 -0.8272 -4.9426
  151SAPE  C21616673  -0.216   0.013   5.401 -0.3675  1.0951  0.8904
  151SAPE  H16R16674  -0.310   0.065   5.372 -2.6506 -2.0143  2.1323
  151SAPE  H16S16675  -0.258  -0.073   5.458 -0.8784  0.3836 -0.5284
  151SAPE  C21716676  -0.158  -0.030   5.265 -0.2746 -0.3028 -0.3114
  151SAPE  H17R16677  -0.056  -0.072   5.281  1.2203  3.0429 -0.4216
  151SAPE  H17S16678  -0.137   0.054   5.196 -3.8083  1.2192  0.2722
  151SAPE  C21816679  -0.256  -0.122   5.185 -0.5181  0.1979 -0.3245
  151SAPE  H18R16680  -0.357  -0.074   5.188 -1.6388 -2.0370  0.9844
  151SAPE  H18S16681  -0.261  -0.217   5.242  0.0934  1.8269  2.6669
  151SAPE  C21916682  -0.220  -0.142   5.039 -0.0120 -0.1321 -0.1930
  151SAPE  H19R16683  -0.133  -0.207   5.013 -1.6177 -1.6525 -2.0867
  151SAPE  H19S16684  -0.198  -0.043   4.995 -0.1786  0.6425  1.3777
  151SAPE  C22016685  -0.347  -0.198   4.972 -0.0090  0.2426 -0.5129
  151SAPE  H20R16686  -0.336  -0.173   4.864  1.1474  0.4842 -0.3614
  151SAPE  H20S16687  -0.441  -0.146   4.998  0.0364  0.4515 -0.7564
  151SAPE  H20T16688  -0.338  -0.307   4.987  1.5532  0.0441 -2.3605
  151SAPE   C3316689   0.870   0.016   6.007 -0.1662  0.9772  0.3144
  151SAPE   H3X16690   0.760   0.024   5.990  0.2431  1.8199 -2.2729
  151SAPE   H3Y16691   0.908  -0.087   5.990  0.3117  1.6883 -3.8722
  151SAPE   C3416692   0.937   0.109   5.901 -0.1877  0.0992  0.1343
  151SAPE   H4X16693   1.045   0.118   5.924 -0.1021 -0.3871 -0.0774
  151SAPE   H4Y16694   0.885   0.207   5.915 -0.1970  0.0356  0.5497
  151SAPE   C3516695   0.908   0.070   5.751  0.2430 -0.8312 -0.5799
  151SAPE   H5X16696   0.802   0.040   5.743 -0.0812 -0.8197  2.4573
  151SAPE   H5Y16697   0.967  -0.022   5.733  0.5617 -1.2386  2.1362
  151SAPE   C3616698   0.945   0.178   5.650 -0.5094  0.5314 -0.3802
  151SAPE   H6X16699   1.052   0.192   5.675 -0.6983  0.4746  0.4866
  151SAPE   H6Y16700   0.884   0.265   5.682  1.5427  0.9249  2.8240
  151SAPE   C3716701   0.922   0.146   5.501 -0.1998 -0.4126  0.5555
  151SAPE   H7X16702   0.830   0.089   5.477 -0.2264 -0.0863 -0.1469
  151SAPE   H7Y16703   1.004   0.075   5.476 -0.9244 -0.7914 -0.8473
  151SAPE   C3816704   0.939   0.272   5.414 -0.0766 -1.0072  0.2401
  151SAPE   H8X16705   1.021   0.318   5.473 -0.4166 -1.8455  1.4131
  151SAPE   H8Y16706   0.845   0.331   5.422 -0.8541 -2.3829  1.7828
  151SAPE   C3916707   0.990   0.242   5.277  0.9467  0.0135  0.0861
  151SAPE   H9X16708   1.089   0.191   5.284 -0.4226 -2.5573  2.7987
  151SAPE   H9Y16709   0.996   0.342   5.228 -0.8701  0.1819  0.1443
  151SAPE  C31016710   0.894   0.151   5.192 -0.3523  0.0257 -0.7844
  151SAPE  H10X16711   0.800   0.209   5.188  0.4235  1.3528 -0.5947
  151SAPE  H10Y16712   0.854   0.054   5.227 -0.4788  0.5518  0.5872
  151SAPE  C31116713   0.952   0.132   5.055  0.0897 -0.4488  0.0339
  151SAPE  H11X16714   0.897   0.052   4.999 -1.2888  1.4092 -1.3862
  151SAPE  H11Y16715   1.054   0.090   5.067 -0.6122 -1.5515  2.8690
  151SAPE  C31216716   0.952   0.249   4.957 -0.1231 -0.1632  0.1267
  151SAPE  H12X16717   1.010   0.334   4.999 -0.1143  0.1496 -0.5180
  151SAPE  H12Y16718   0.849   0.288   4.944 -0.2328 -1.0356 -2.0359
  151SAPE  C31316719   1.029   0.196   4.833 -0.9462 -0.4647 -0.0603
  151SAPE  H13X16720   0.994   0.092   4.815  1.0921 -1.1317 -0.4598
  151SAPE  H13Y16721   1.135   0.195   4.866 -0.3933  2.1666 -1.4708
  151SAPE  C31416722   1.030   0.283   4.706  0.2995  0.4222 -0.5354
  151SAPE  H14X16723   1.036   0.393   4.716  2.2008  0.1920  1.6907
  151SAPE  H14Y16724   0.934   0.272   4.651  0.7162  0.6354 -1.3218
  151SAPE  C31516725   1.143   0.241   4.610 -0.5011  0.1470 -0.2166
  151SAPE  H15X16726   1.146   0.130   4.609  3.4828  0.0927 -2.1957
  151SAPE  H15Y16727   1.243   0.270   4.648 -1.2436  0.4152  1.6779
  151SAPE  C31616728   1.126   0.286   4.461 -0.0541 -0.0390  0.4098
  151SAPE  H16X16729   1.216   0.254   4.403  0.9129  0.8086  1.4033
  151SAPE  H16Y16730   1.108   0.395   4.453 -0.8077  0.0973  3.0616
  151SAPE  C31716731   1.005   0.213   4.391 -0.0250  0.2948 -0.1936
  151SAPE  H17X16732   0.921   0.284   4.406 -0.8239 -0.3691 -1.3819
  151SAPE  H17Y16733   0.992   0.120   4.450  0.0734 -0.4018 -1.2442
  151SAPE  C31816734   1.027   0.173   4.239  0.3799  0.2578 -1.0175
  151SAPE  H18X16735   1.037   0.259   4.169  0.6131 -1.9037 -3.8154
  151SAPE  H18Y16736   0.937   0.119   4.200  1.5460 -2.0753 -0.6745
  151SAPE  H18Z16737   1.111   0.102   4.223  1.0333  1.0973 -1.3655
  152SAPE     N16738   1.340   2.345   7.255  0.7825 -0.0615  0.6329
  152SAPE   HN116739   1.363   2.247   7.282 -1.4361 -0.4249  1.4290
  152SAPE   HN216740   1.284   2.394   7.327  0.2281  2.1898 -1.2224
  152SAPE   HN316741   1.278   2.347   7.172  1.3483  2.0963  0.2036
  152SAPE   C1216742   1.463   2.415   7.214  0.1409  0.3741  0.0335
  152SAPE  H12A16743   1.536   2.390   7.294 -1.8776 -2.1544  1.2012
  152SAPE  H12B16744   1.450   2.526   7.221  3.8734  0.9562 -0.1871
  152SAPE   C1116745   1.530   2.379   7.078  0.2140  0.2343 -0.2907
  152SAPE  H11A16746   1.450   2.409   7.006  2.1297  0.2678 -2.5423
  152SAPE  H11B16747   1.533   2.268   7.076 -1.1065  0.1399  0.9460
  152SAPE     P16748   1.787   2.381   7.069  0.0077  0.1235 -0.0169
  152SAPE   O1316749   1.883   2.480   7.117 -0.7314 -1.0008 -0.7330
  152SAPE   O1416750   1.782   2.259   7.151  0.6997 -0.1570 -0.0054
  152SAPE   O1216751   1.648   2.458   7.060  0.1036  0.1768  0.4974
  152SAPE   O1116752   1.815   2.338   6.918  0.1794  0.3992 -0.0688
  152SAPE    C116753   1.786   2.423   6.808 -0.1638  0.2115 -0.1420
  152SAPE    HA16754   1.801   2.531   6.833 -0.7350  0.7113 -1.8188
  152SAPE    HB16755   1.865   2.399   6.734  0.3510 -1.9906  1.0535
  152SAPE    C216756   1.652   2.390   6.733 -0.1411 -0.3724  0.0378
  152SAPE    HS16757   1.575   2.419   6.809  0.3186 -0.8480  0.6964
  152SAPE   O2116758   1.641   2.255   6.696  0.0150  0.4000 -0.1558
  152SAPE   C2116759   1.511   2.226   6.674 -0.1782 -0.0780 -0.4603
  152SAPE   O2216760   1.417   2.302   6.701 -0.2115  0.2858 -0.4893
  152SAPE   C2216761   1.486   2.082   6.623 -0.4104 -0.5529  0.3487
  152SAPE   H2R16762   1.583   2.030   6.613  0.2103  0.6558 -0.1952
  152SAPE   H2S16763   1.421   2.035   6.700 -1.8415 -0.7935 -0.9520
  152SAPE    C316764   1.638   2.487   6.618  0.5844 -0.3523  0.1445
  152SAPE    HX16765   1.623   2.587   6.662  0.7276  0.0348 -0.6588
  152SAPE    HY16766   1.538   2.477   6.570 -0.8791  0.0121  2.9281
  152SAPE   O3116767   1.742   2.475   6.518  0.5191  0.3275  0.5382
  152SAPE   C3116768   1.780   2.589   6.456  0.0409  0.5498 -0.3473
  152SAPE   O3216769   1.737   2.697   6.487 -0.3633 -0.0310  0.2250
  152SAPE   C3216770   1.891   2.555   6.359 -0.3470 -0.0719  0.1617
  152SAPE   H2X16771   1.960   2.485   6.411  0.9555  1.5562  0.7324
  152SAPE   H2Y16772   1.943   2.651   6.336 -0.9090  0.1942 -0.0201
  152SAPE   C2316773   1.401   2.091   6.491  0.0165  0.1843  0.1106
  152SAPE   H3R16774   1.305   2.146   6.502 -1.0472 -1.0481 -2.2605
  152SAPE   H3S16775   1.354   1.993   6.470 -1.9632  1.0306  0.3938
  152SAPE   C2416776   1.478   2.140   6.368  0.0534  0.5537  0.3304
  152SAPE   H4R16777   1.499   2.248   6.378 -2.5859  1.2144 -0.5853
  152SAPE   H4S16778   1.430   2.126   6.269 -0.8826  0.1466  0.8251
  152SAPE   C2516779   1.597   2.049   6.346 -0.0439  0.2494 -0.3310
  152SAPE   H5R16780   1.590   1.960   6.410 -0.2538  1.1782  0.9800
  152SAPE   C2616781   1.696   2.062   6.256 -0.4369  0.1073  0.0661
  152SAPE   H6R16782   1.769   1.980   6.252 -3.2946 -2.5850 -1.0575
  152SAPE   C2716783   1.698   2.173   6.150  0.2168  0.1393 -0.3264
  152SAPE   H7R16784   1.805   2.203   6.140  0.2499  1.2438  2.4954
  152SAPE   H7S16785   1.641   2.262   6.181 -1.9354 -1.4758  0.6369
  152SAPE   C2816786   1.652   2.121   6.019 -0.6529 -1.0271 -0.8996
  152SAPE   H8R16787   1.550   2.082   6.019 -1.1196  0.1613 -0.6617
  152SAPE   C2916788   1.720   2.117   5.897  0.0024  0.5921 -1.0704
  152SAPE   H9R16789   1.667   2.056   5.823  1.3899  0.6100 -2.1181
  152SAPE  C21016790   1.859   2.154   5.857 -0.5379  0.0628 -0.0257
  152SAPE  H10R16791   1.895   2.052   5.833 -1.4143 -0.4057  0.5819
  152SAPE  H10S16792   1.914   2.191   5.946 -0.3894  0.1794 -0.1652
  152SAPE  C21116793   1.863   2.260   5.751 -1.0382  0.0831  0.9648
  152SAPE  H11R16794   1.787   2.340   5.757 -1.0173  0.3414 -1.4431
  152SAPE  C21216795   1.954   2.270   5.655 -0.2014 -0.5941  0.3452
  152SAPE  H12R16796   1.944   2.355   5.586  0.8616 -1.4638 -0.9311
  152SAPE  C21316797   2.063   2.177   5.617  1.3335 -0.8489  0.2436
  152SAPE  H13R16798   2.019   2.120   5.532  0.4982  0.1053  0.0099
  152SAPE  H13S16799   2.091   2.110   5.701 -0.8950 -1.3312  0.6851
  152SAPE  C21416800   2.181   2.253   5.560  0.3524  0.2411  0.7122
  152SAPE  H14R16801   2.251   2.294   5.634  2.2544 -1.7069  0.1264
  152SAPE  C21516802   2.205   2.294   5.437 -0.7884 -0.0801  0.6606
  152SAPE  H15R16803   2.296   2.352   5.420 -0.2974 -0.6831  1.1798
  152SAPE  C21616804   2.119   2.284   5.312 -0.3533  0.0166 -0.3242
  152SAPE  H16R16805   2.089   2.386   5.281  1.3038  1.2888  2.0384
  152SAPE  H16S16806   2.026   2.230   5.341  0.3250 -1.4389 -0.7652
  152SAPE  C21716807   2.191   2.225   5.184  1.0702 -0.0640 -0.8306
  152SAPE  H17R16808   2.118   2.233   5.101  0.5252  0.8535 -0.2835
  152SAPE  H17S16809   2.226   2.120   5.197 -0.8921 -1.0799 -3.0291
  152SAPE  C21816810   2.301   2.319   5.144 -0.0598 -0.5656  0.1163
  152SAPE  H18R16811   2.385   2.332   5.216 -0.7877  0.7756  0.7451
  152SAPE  H18S16812   2.254   2.419   5.136  0.0366 -0.4850  0.5444
  152SAPE  C21916813   2.369   2.282   5.015 -0.0704  0.6397 -0.2272
  152SAPE  H19R16814   2.306   2.213   4.954  0.1888  1.0005 -0.9134
  152SAPE  H19S16815   2.456   2.212   5.013 -0.2119  0.4586 -2.3724
  152SAPE  C22016816   2.415   2.390   4.931  0.3061 -0.1918 -0.4256
  152SAPE  H20R16817   2.485   2.344   4.858  1.1558 -1.1952  0.9691
  152SAPE  H20S16818   2.471   2.471   4.983  2.5944 -0.9280 -1.5979
  152SAPE  H20T16819   2.333   2.452   4.887 -1.1474 -1.7615 -0.0057
  152SAPE   C3316820   1.834   2.497   6.235  0.0844 -0.6497  0.4967
  152SAPE   H3X16821   1.741   2.445   6.266 -0.3926 -1.2710 -1.7776
  152SAPE   H3Y16822   1.901   2.412   6.207 -0.3072 -1.5166  2.0623
  152SAPE   C3416823   1.799   2.593   6.120  0.0425 -0.0936 -0.5309
  152SAPE   H4X16824   1.744   2.677   6.166 -1.5362 -1.5651  0.3999
  152SAPE   H4Y16825   1.737   2.542   6.042  0.0533  0.9074 -1.2129
  152SAPE   C3516826   1.924   2.653   6.054  0.2984 -0.2612  0.1308
  152SAPE   H5X16827   1.985   2.568   6.016 -0.3467 -0.4483 -0.5043
  152SAPE   H5Y16828   1.984   2.701   6.134 -0.4555 -0.2427  0.6955
  152SAPE   C3616829   1.908   2.761   5.950  0.5559 -0.4831  0.3121
  152SAPE   H6X16830   2.011   2.803   5.940  0.3514 -0.0937 -0.2042
  152SAPE   H6Y16831   1.842   2.842   5.986 -2.4521 -2.0852 -1.1707
  152SAPE   C3716832   1.848   2.710   5.817  1.1875  0.4382 -1.0731
  152SAPE   H7X16833   1.806   2.798   5.762  1.1260  0.9931 -0.1606
  152SAPE   H7Y16834   1.770   2.633   5.835  0.1580  1.7836  0.6212
  152SAPE   C3816835   1.961   2.679   5.717 -0.4314  0.7785  0.5102
  152SAPE   H8X16836   2.022   2.596   5.757 -5.0531 -2.8233  0.9142
  152SAPE   H8Y16837   2.014   2.777   5.713  1.8276 -0.3259  1.4834
  152SAPE   C3916838   1.898   2.647   5.585  0.8423  0.5247  0.3580
  152SAPE   H9X16839   1.818   2.723   5.571 -1.9789 -2.2193  0.3201
  152SAPE   H9Y16840   1.841   2.552   5.599 -0.3515  1.4527  2.2435
  152SAPE  C31016841   2.000   2.638   5.468  0.3306 -0.5252 -1.7207
  152SAPE  H10X16842   2.060   2.547   5.489  0.3839  0.3433  2.9044
  152SAPE  H10Y16843   2.081   2.711   5.487  0.2254 -0.9454  0.5225
  152SAPE  C31116844   1.955   2.667   5.328 -0.2046 -0.6330 -0.2963
  152SAPE  H11X16845   1.888   2.755   5.323  0.7323  0.1150  0.0857
  152SAPE  H11Y16846   1.892   2.585   5.287  0.6858 -0.6771 -1.6570
  152SAPE  C31216847   2.082   2.691   5.237 -0.1744  0.0988 -0.5944
  152SAPE  H12X16848   2.150   2.608   5.265 -0.1222 -0.6492 -2.7342
  152SAPE  H12Y16849   2.131   2.784   5.272  2.3676 -1.9648  1.8000
  152SAPE  C31316850   2.074   2.707   5.087  0.0913  0.0194  0.8130
  152SAPE  H13X16851   2.004   2.787   5.055  4.2485  3.2361 -1.3546
  152SAPE  H13Y16852   2.029   2.612   5.051 -1.8369  1.3703 -0.5405
  152SAPE  C31416853   2.202   2.722   5.000  0.0600  1.3490 -0.1882
  152SAPE  H14X16854   2.187   2.674   4.901 -0.0662 -1.9468  1.3089
  152SAPE  H14Y16855   2.280   2.656   5.043 -1.0079  0.6019  0.6373
  152SAPE  C31516856   2.251   2.860   4.971  0.5760 -0.4559 -0.2694
  152SAPE  H15X16857   2.272   2.910   5.068 -0.2023 -0.0139 -0.3215
  152SAPE  H15Y16858   2.168   2.923   4.932  0.7499 -0.1357 -0.1270
  152SAPE  C31616859   2.381   2.861   4.890 -0.5487  0.4690  0.4200
  152SAPE  H16X16860   2.365   2.810   4.793 -1.5329 -2.1136  1.8548
  152SAPE  H16Y16861   2.455   2.805   4.952 -1.4617 -0.1627  0.9508
  152SAPE  C31716862   2.441   3.003   4.863 -0.0426  0.0287 -0.2542
  152SAPE  H17X16863   2.534   2.978   4.808  0.5886 -1.0284  1.2520
  152SAPE  H17Y16864   2.458   3.056   4.958  0.6687 -0.8680  0.1243
  152SAPE  C31816865   2.348   3.090   4.775  0.0801  0.1423  0.3323
  152SAPE  H18X16866   2.347   3.053   4.670 -2.6514 -2.8212  1.2173
  152SAPE  H18Y16867   2.383   3.195   4.769  1.4507 -0.2702  0.6774
  152SAPE  H18Z16868   2.243   3.087   4.812  0.2184  1.3557  0.8848
  153SAPE     N16869   0.058   1.343   7.077 -0.2093  0.5295  0.3053
  153SAPE   HN116870  -0.013   1.415   7.051 -0.5330 -0.5840 -2.1272
  153SAPE   HN216871   0.041   1.252   7.031 -1.2871  0.9345 -0.1403
  153SAPE   HN316872   0.061   1.329   7.180 -0.8601 -1.3402  0.1144
  153SAPE   C1216873   0.187   1.387   7.026 -0.8825  0.3438 -0.5200
  153SAPE  H12A16874   0.189   1.368   6.917  1.9124 -0.3359 -0.4207
  153SAPE  H12B16875   0.264   1.326   7.078 -0.5529 -0.7364 -2.2055
  153SAPE   C1116876   0.199   1.537   7.048  0.5282 -0.2296 -0.0004
  153SAPE  H11A16877   0.304   1.569   7.032  0.4124  0.1587  0.0056
  153SAPE  H11B16878   0.181   1.556   7.156 -0.5844 -3.1121  0.4094
  153SAPE     P16879   0.163   1.748   6.890  0.0981  0.2497 -0.4198
  153SAPE   O1316880   0.052   1.846   6.869  0.4508 -0.2178 -0.6166
  153SAPE   O1416881   0.286   1.787   6.965 -0.4624  0.1998 -0.0227
  153SAPE   O1216882   0.109   1.616   6.961 -0.0357  0.1870  0.4221
  153SAPE   O1116883   0.216   1.710   6.747 -0.3216  0.3318 -0.1764
  153SAPE    C116884   0.312   1.608   6.724  0.6867  0.4202  0.0354
  153SAPE    HA16885   0.379   1.576   6.806  0.6458  3.5132  1.4223
  153SAPE    HB16886   0.251   1.520   6.695  0.3726  0.8651 -0.6820
  153SAPE    C216887   0.404   1.646   6.606  0.0004  0.1630 -0.7309
  153SAPE    HS16888   0.478   1.714   6.653 -1.7532  3.3156 -2.2428
  153SAPE   O2116889   0.322   1.708   6.506 -0.0040  0.7839  0.0450
  153SAPE   C2116890   0.338   1.839   6.499  0.1920 -0.0097 -0.0289
  153SAPE   O2216891   0.396   1.907   6.587  0.4386  0.4458  0.2609
  153SAPE   C2216892   0.279   1.905   6.382  0.1804 -0.5424  0.1039
  153SAPE   H2R16893   0.171   1.887   6.398  0.4075 -1.5695  0.5712
  153SAPE   H2S16894   0.284   2.016   6.391 -2.4652 -0.3961  0.5836
  153SAPE    C316895   0.479   1.520   6.557 -1.1107 -0.0864 -0.2013
  153SAPE    HX16896   0.408   1.442   6.521 -0.3755 -1.6399  1.5871
  153SAPE    HY16897   0.532   1.478   6.644 -0.7560  1.0045  0.1235
  153SAPE   O3116898   0.571   1.561   6.451 -1.3856  0.4016 -0.1073
  153SAPE   C3116899   0.693   1.614   6.495 -0.0921 -0.2123 -0.5941
  153SAPE   O3216900   0.710   1.651   6.612 -0.3141 -0.2206 -0.5226
  153SAPE   C3216901   0.785   1.606   6.374 -0.5338 -0.0366 -0.3181
  153SAPE   H2X16902   0.780   1.504   6.330 -4.0727 -1.0380  1.9989
  153SAPE   H2Y16903   0.890   1.638   6.394 -0.7477  1.6334 -1.5873
  153SAPE   C2316904   0.298   1.840   6.243  0.1840  0.3110 -0.4868
  153SAPE   H3R16905   0.216   1.766   6.230 -0.9712  1.3838  0.3922
  153SAPE   H3S16906   0.390   1.779   6.237 -0.4759 -0.6893 -0.7509
  153SAPE   C2416907   0.310   1.946   6.130  0.6388 -0.1938 -0.9384
  153SAPE   H4R16908   0.395   2.014   6.158  1.6911 -0.9852 -2.1079
  153SAPE   H4S16909   0.212   1.997   6.121 -0.1832 -2.0173 -3.2215
  153SAPE   C2516910   0.349   1.900   5.996 -0.4414 -0.7204 -0.3385
  153SAPE   H5R16911   0.284   1.824   5.951 -0.6781  0.4096 -1.9965
  153SAPE   C2616912   0.444   1.949   5.918 -0.2533 -0.1860  0.0578
  153SAPE   H6R16913   0.469   1.908   5.819  2.8495  1.3331  0.1185
  153SAPE   C2716914   0.542   2.058   5.945  0.7365 -1.0126 -0.4282
  153SAPE   H7R16915   0.636   2.000   5.963  1.2832  0.2504  0.9913
  153SAPE   H7S16916   0.532   2.121   6.035  1.2368 -2.1943  0.4862
  153SAPE   C2816917   0.564   2.142   5.823  0.2597 -0.8492 -0.5864
  153SAPE   H8R16918   0.512   2.104   5.734 -1.1471  2.0225 -1.0937
  153SAPE   C2916919   0.616   2.263   5.819 -0.0103 -0.1426  0.2838
  153SAPE   H9R16920   0.638   2.308   5.721 -1.3825  0.5004  0.2524
  153SAPE  C21016921   0.681   2.332   5.931  0.2476  0.0284 -0.6720
  153SAPE  H10R16922   0.792   2.324   5.924  0.4415 -0.2795  1.8312
  153SAPE  H10S16923   0.658   2.292   6.032  1.3390 -1.9469 -1.1563
  153SAPE  C21116924   0.640   2.471   5.925  0.6341  0.3375 -0.2519
  153SAPE  H11R16925   0.553   2.503   5.985  2.0072  2.8951  0.5089
  153SAPE  C21216926   0.689   2.569   5.852 -0.1472  0.0663  0.1277
  153SAPE  H12R16927   0.636   2.666   5.846 -1.7860 -0.8805 -2.5042
  153SAPE  C21316928   0.817   2.572   5.765  0.6101 -0.1841 -0.8738
  153SAPE  H13R16929   0.783   2.561   5.660 -1.2590 -0.4786 -0.2704
  153SAPE  H13S16930   0.889   2.498   5.807 -0.7528 -2.2087 -1.9578
  153SAPE  C21416931   0.872   2.709   5.792  0.0219  0.0546  0.6712
  153SAPE  H14R16932   0.953   2.718   5.866  1.1474 -1.3850 -0.3288
  153SAPE  C21516933   0.833   2.820   5.723 -0.0963  0.0976  0.8445
  153SAPE  H15R16934   0.883   2.917   5.734  0.7358  0.0770 -1.9125
  153SAPE  C21616935   0.738   2.815   5.609  0.7218  0.3309  0.1579
  153SAPE  H16R16936   0.674   2.724   5.618  1.3446 -0.0061  1.3946
  153SAPE  H16S16937   0.793   2.812   5.513  0.4257 -1.0541  0.0103
  153SAPE  C21716938   0.632   2.927   5.613 -0.6615 -0.6859 -0.3775
  153SAPE  H17R16939   0.575   2.929   5.708 -2.7154 -1.0452 -1.5607
  153SAPE  H17S16940   0.564   2.889   5.534  0.7081 -0.4753 -1.7120
  153SAPE  C21816941   0.678   3.065   5.573  0.3834 -0.5718  0.4473
  153SAPE  H18R16942   0.719   3.069   5.470 -0.7076 -2.3970 -0.1140
  153SAPE  H18S16943   0.758   3.107   5.637 -1.1151  2.8071  0.3465
  153SAPE  C21916944   0.555   3.167   5.571  0.1689  0.8524 -0.2403
  153SAPE  H19R16945   0.569   3.199   5.676  1.1530  0.6209 -0.2920
  153SAPE  H19S16946   0.458   3.113   5.560  0.1828  1.1358 -2.1158
  153SAPE  C22016947   0.556   3.290   5.483  0.0702  0.5011 -0.0447
  153SAPE  H20R16948   0.527   3.385   5.532  0.4876  1.3338 -1.3590
  153SAPE  H20S16949   0.485   3.276   5.399 -0.0347  1.7984 -0.1822
  153SAPE  H20T16950   0.655   3.315   5.440 -0.3784  1.3404 -0.6120
  153SAPE   C3316951   0.733   1.718   6.278 -0.2271  0.3324 -0.0897
  153SAPE   H3X16952   0.735   1.818   6.326  1.1464  0.1124  0.3526
  153SAPE   H3Y16953   0.626   1.701   6.252  0.4938 -0.9835 -2.5573
  153SAPE   C3416954   0.796   1.730   6.139 -0.3148  0.0237 -0.1291
  153SAPE   H4X16955   0.905   1.745   6.154 -0.5639  0.8863  0.9710
  153SAPE   H4Y16956   0.768   1.827   6.093  0.9968  1.1410  1.2961
  153SAPE   C3516957   0.758   1.621   6.039  0.1539 -0.5067  0.3997
  153SAPE   H5X16958   0.649   1.612   6.020 -0.0539 -0.7725  1.5958
  153SAPE   H5Y16959   0.797   1.525   6.078 -0.8814 -0.7386  0.9301
  153SAPE   C3616960   0.832   1.634   5.906 -0.2689  0.0305 -0.6421
  153SAPE   H6X16961   0.815   1.548   5.839  0.8574 -1.3859  0.8110
  153SAPE   H6Y16962   0.941   1.636   5.929  0.2363 -1.6168 -2.6217
  153SAPE   C3716963   0.787   1.754   5.821  0.2917  0.4330 -0.5024
  153SAPE   H7X16964   0.796   1.845   5.884  3.0262  1.4277 -2.1428
  153SAPE   H7Y16965   0.679   1.750   5.797  0.8980  0.2607 -3.6080
  153SAPE   C3816966   0.846   1.766   5.678 -0.2250 -0.0488 -0.0058
  153SAPE   H8X16967   0.848   1.661   5.641  0.3152 -0.6270  1.5808
  153SAPE   H8Y16968   0.952   1.798   5.672  0.3797 -2.0570 -0.8354
  153SAPE   C3916969   0.770   1.862   5.580 -0.4100  0.6420 -0.0098
  153SAPE   H9X16970   0.731   1.943   5.646 -1.0656 -0.4832  1.0144
  153SAPE   H9Y16971   0.675   1.813   5.553  1.4883 -2.8435 -0.9410
  153SAPE  C31016972   0.852   1.899   5.454 -0.2352 -0.0876  0.2530
  153SAPE  H10X16973   0.910   1.808   5.428 -0.9509 -0.3268 -0.5356
  153SAPE  H10Y16974   0.924   1.980   5.481  0.3806 -0.8120  0.8039
  153SAPE  C31116975   0.761   1.927   5.333 -0.1042  0.4134 -0.2074
  153SAPE  H11X16976   0.677   1.996   5.357 -0.2435  0.3722 -0.5618
  153SAPE  H11Y16977   0.720   1.830   5.296  1.6348  0.2347 -1.8218
  153SAPE  C31216978   0.856   1.979   5.224 -0.0272  0.1132 -0.0813
  153SAPE  H12X16979   0.927   1.900   5.192 -0.5446 -0.7150  0.7877
  153SAPE  H12Y16980   0.903   2.074   5.260 -2.2948  1.9063 -1.5486
  153SAPE  C31316981   0.780   2.018   5.100 -0.3670  0.0511  0.6287
  153SAPE  H13X16982   0.682   2.063   5.126 -0.8689 -0.7417  0.1611
  153SAPE  H13Y16983   0.756   1.922   5.049  1.2200 -0.0725  0.0518
  153SAPE  C31416984   0.860   2.115   5.016  0.2448 -0.0814 -0.2780
  153SAPE  H14X16985   0.939   2.054   4.967 -0.0116  0.7377 -1.7662
  153SAPE  H14Y16986   0.910   2.189   5.083  1.6827  0.1297 -1.5432
  153SAPE  C31516987   0.777   2.199   4.922  0.0238 -0.3351  0.2818
  153SAPE  H15X16988   0.723   2.268   4.991  0.9259 -0.6431  1.3253
  153SAPE  H15Y16989   0.694   2.139   4.879  0.3364  0.8190 -2.0873
  153SAPE  C31616990   0.856   2.274   4.810  0.1181 -0.3070  0.0886
  153SAPE  H16X16991   0.909   2.363   4.850  0.9261  1.0466 -3.5460
  153SAPE  H16Y16992   0.776   2.311   4.741  1.1918  0.4858 -0.7532
  153SAPE  C31716993   0.946   2.178   4.734  0.4421 -0.4098  0.3913
  153SAPE  H17X16994   0.886   2.087   4.716 -0.6890  0.1725  1.1021
  153SAPE  H17Y16995   1.037   2.156   4.793 -0.1989 -3.0864  0.4992
  153SAPE  C31816996   1.000   2.230   4.593  0.2469  0.3347 -0.3990
  153SAPE  H18X16997   0.911   2.247   4.529 -0.5098 -0.8686  0.2966
  153SAPE  H18Y16998   1.067   2.156   4.545 -0.4235 -0.5981  0.0560
  153SAPE  H18Z16999   1.052   2.327   4.609 -0.4321  0.4561  1.3037
  154SAPE     N17000   5.778   0.981   7.017 -0.6492 -0.1950  0.0470
  154SAPE   HN117001   5.825   0.931   7.095 -1.8022 -0.5677  0.5098
  154SAPE   HN217002   5.679   0.952   7.008 -0.6478 -0.3462  0.5050
  154SAPE   HN317003   5.834   0.971   6.929  0.9907 -1.5260  1.1817
  154SAPE   C1217004   5.764   1.116   7.073 -0.0795  0.8743  0.3216
  154SAPE  H12A17005   5.863   1.165   7.060 -0.5594  1.5306 -1.1069
  154SAPE  H12B17006   5.741   1.099   7.181 -3.1424 -1.8240 -0.5863
  154SAPE   C1117007   5.643   1.187   7.002 -0.0734 -0.6482 -0.2840
  154SAPE  H11A17008   5.649   1.177   6.892  2.4805 -3.6951 -0.0287
  154SAPE  H11B17009   5.628   1.289   7.042  0.1582 -0.5033 -0.5636
  154SAPE     P17010   5.383   1.155   7.009  0.1386 -0.3439  0.1118
  154SAPE   O1317011   5.310   1.047   6.946  0.4852  0.3965  0.3902
  154SAPE   O1417012   5.347   1.204   7.141 -0.1515 -0.2287 -0.6597
  154SAPE   O1217013   5.530   1.104   7.027 -0.1433 -0.1895 -0.1605
  154SAPE   O1117014   5.401   1.273   6.903  0.4111  0.2694  0.1638
  154SAPE    C117015   5.290   1.308   6.823 -0.0250  0.5534  0.3278
  154SAPE    HA17016   5.197   1.263   6.865  0.2872  0.1198  0.5589
  154SAPE    HB17017   5.269   1.417   6.825  0.9647  0.7501  0.5061
  154SAPE    C217018   5.305   1.264   6.667  0.1390  0.7091  0.7205
  154SAPE    HS17019   5.314   1.154   6.658 -1.3250  0.6301 -0.1037
  154SAPE   O2117020   5.404   1.337   6.588  0.0379 -0.1387 -0.0959
  154SAPE   C2117021   5.506   1.268   6.557 -0.9897 -0.1918 -0.3753
  154SAPE   O2217022   5.516   1.147   6.542  0.4587  0.3721 -0.6335
  154SAPE   C2217023   5.624   1.362   6.520 -0.7623 -0.7336 -0.3911
  154SAPE   H2R17024   5.657   1.416   6.611 -0.1518 -1.4070 -0.1981
  154SAPE   H2S17025   5.708   1.297   6.487 -0.0551  0.1390 -0.3686
  154SAPE    C317026   5.167   1.291   6.599 -0.2163 -0.0644  0.7224
  154SAPE    HX17027   5.149   1.400   6.614 -0.8494  0.0378 -0.6250
  154SAPE    HY17028   5.082   1.233   6.640  0.6459 -2.2361 -0.4265
  154SAPE   O3117029   5.177   1.254   6.454 -0.7273  0.2673  0.6419
  154SAPE   C3117030   5.163   1.355   6.366  0.3934 -0.6615  0.0434
  154SAPE   O3217031   5.130   1.469   6.391 -0.0016 -0.3620  0.1042
  154SAPE   C3217032   5.220   1.316   6.227  0.4773  0.2546  0.0669
  154SAPE   H2X17033   5.198   1.207   6.214  2.9815 -0.2057 -0.8608
  154SAPE   H2Y17034   5.330   1.332   6.221  0.4703  0.7420  1.0616
  154SAPE   C2317035   5.588   1.472   6.414 -0.2009  0.2747 -0.1607
  154SAPE   H3R17036   5.649   1.565   6.424  0.4559 -0.0831 -0.7388
  154SAPE   H3S17037   5.484   1.504   6.433 -0.4957 -0.8435  0.1301
  154SAPE   C2417038   5.604   1.415   6.272  0.0864  0.2414 -0.1113
  154SAPE   H4R17039   5.536   1.473   6.206  2.0144  1.6188 -0.9567
  154SAPE   H4S17040   5.562   1.311   6.273 -0.2024  0.2605 -2.9176
  154SAPE   C2517041   5.756   1.405   6.230  0.6177  0.3363 -0.0615
  154SAPE   H5R17042   5.824   1.352   6.298 -1.4474 -1.5454  0.6559
  154SAPE   C2617043   5.811   1.436   6.113  0.7226 -0.4605 -0.3146
  154SAPE   H6R17044   5.921   1.438   6.106  0.7289 -2.7260 -1.7660
  154SAPE   C2717045   5.734   1.518   6.008 -0.5358  0.3055 -0.1135
  154SAPE   H7R17046   5.699   1.611   6.059  1.9724  0.5387  1.3121
  154SAPE   H7S17047   5.645   1.471   5.960 -1.4855  0.5021  1.4023
  154SAPE   C2817048   5.827   1.549   5.889  0.0507 -0.2411  0.0254
  154SAPE   H8R17049   5.900   1.626   5.919  0.7398 -0.7519 -0.3314
  154SAPE   C2917050   5.821   1.499   5.761  0.2074  0.0973  0.7721
  154SAPE   H9R17051   5.901   1.515   5.686 -0.4814 -1.3301 -0.3154
  154SAPE  C21017052   5.730   1.396   5.711  0.1507 -0.7112 -0.0291
  154SAPE  H10R17053   5.634   1.430   5.667  0.5354  1.5696  0.7733
  154SAPE  H10S17054   5.693   1.339   5.799 -0.2422  0.4492  0.5726
  154SAPE  C21117055   5.784   1.298   5.609 -0.0846  0.2141  0.3913
  154SAPE  H11R17056   5.820   1.203   5.651 -1.1016  0.2253  1.3294
  154SAPE  C21217057   5.805   1.322   5.480 -0.7803  0.2291 -0.1155
  154SAPE  H12R17058   5.834   1.241   5.412 -2.8311 -1.3435  0.7558
  154SAPE  C21317059   5.781   1.447   5.394  0.1905  0.0341 -0.8308
  154SAPE  H13R17060   5.862   1.461   5.320 -1.0922  3.5128 -1.7507
  154SAPE  H13S17061   5.774   1.543   5.451 -3.7436 -1.0987  0.9425
  154SAPE  C21417062   5.652   1.433   5.324 -0.5746  0.0876 -0.6095
  154SAPE  H14R17063   5.562   1.478   5.370  0.7314  3.3937 -1.0197
  154SAPE  C21517064   5.635   1.370   5.208 -0.3842  0.2881 -0.0637
  154SAPE  H15R17065   5.538   1.386   5.158 -0.4779  0.6903  0.2417
  154SAPE  C21617066   5.738   1.292   5.127  0.0667 -0.7480 -0.6113
  154SAPE  H16R17067   5.810   1.239   5.193 -0.3705 -0.6185 -0.0205
  154SAPE  H16S17068   5.797   1.366   5.069 -0.2386  2.0636  2.3457
  154SAPE  C21717069   5.684   1.176   5.038 -0.1868  0.3139  0.6136
  154SAPE  H17R17070   5.627   1.106   5.102  1.8497 -1.0683  1.0099
  154SAPE  H17S17071   5.778   1.129   5.001  0.6758  1.9588  0.5999
  154SAPE  C21817072   5.590   1.227   4.923 -0.4617  0.1228 -0.0236
  154SAPE  H18R17073   5.495   1.250   4.975  0.8989  3.3791  1.2776
  154SAPE  H18S17074   5.573   1.146   4.848 -0.5866 -0.7119  0.8900
  154SAPE  C21917075   5.655   1.353   4.851 -0.2961  0.2207  0.2600
  154SAPE  H19R17076   5.764   1.354   4.872 -0.0173  2.5481 -0.9366
  154SAPE  H19S17077   5.608   1.448   4.887  2.4990  1.6510  0.4102
  154SAPE  C22017078   5.637   1.350   4.701  0.0946 -0.1727  0.8986
  154SAPE  H20R17079   5.703   1.273   4.655  0.4593  0.2058  0.7799
  154SAPE  H20S17080   5.676   1.443   4.653 -1.1125 -0.0057  0.1790
  154SAPE  H20T17081   5.529   1.345   4.674  0.1824  0.3057  0.4205
  154SAPE   C3317082   5.157   1.396   6.109  0.2516 -0.4401  0.5273
  154SAPE   H3X17083   5.179   1.504   6.120 -1.3494  0.0011 -0.3456
  154SAPE   H3Y17084   5.047   1.400   6.118 -0.0661 -3.5723 -0.6682
  154SAPE   C3417085   5.204   1.355   5.965 -0.1797 -0.0804 -0.4449
  154SAPE   H4X17086   5.313   1.331   5.964 -0.1700 -0.1266  0.5030
  154SAPE   H4Y17087   5.196   1.439   5.893  0.0827 -0.7369 -1.2558
  154SAPE   C3517088   5.133   1.227   5.916  0.2031 -0.4630  0.5001
  154SAPE   H5X17089   5.025   1.245   5.901  0.3475  2.0615  1.9169
  154SAPE   H5Y17090   5.149   1.144   5.988 -0.6232  1.3449  2.8836
  154SAPE   C3617091   5.185   1.197   5.774 -1.1611  0.8657  0.0535
  154SAPE   H6X17092   5.158   1.268   5.693  0.0141  0.5482 -0.6315
  154SAPE   H6Y17093   5.142   1.096   5.757 -0.0573  0.5779 -1.1630
  154SAPE   C3717094   5.341   1.179   5.766 -0.3745 -0.0374  0.4401
  154SAPE   H7X17095   5.384   1.135   5.858  0.1426  0.1321  0.2841
  154SAPE   H7Y17096   5.381   1.281   5.745 -0.8468  0.5018  2.0805
  154SAPE   C3817097   5.378   1.072   5.657  0.2445 -0.5153 -0.2848
  154SAPE   H8X17098   5.324   0.980   5.687  0.8986  0.1567  3.4644
  154SAPE   H8Y17099   5.482   1.038   5.671  0.6254  1.3708  2.2072
  154SAPE   C3917100   5.363   1.122   5.513 -0.0325  0.5856 -0.1349
  154SAPE   H9X17101   5.427   1.210   5.492  0.1754  0.0939 -1.7128
  154SAPE   H9Y17102   5.259   1.152   5.486 -1.1375 -3.2432 -0.7018
  154SAPE  C31017103   5.394   0.995   5.427  1.2171 -0.4330 -0.0231
  154SAPE  H10X17104   5.347   0.903   5.466  1.4023 -0.4806  0.0840
  154SAPE  H10Y17105   5.503   0.975   5.436  1.3453 -0.7940 -1.8286
  154SAPE  C31117106   5.354   1.024   5.275  0.1321 -0.6420 -0.0312
  154SAPE  H11X17107   5.410   1.113   5.238  2.5693 -1.3780  1.6379
  154SAPE  H11Y17108   5.244   1.043   5.276 -0.2781 -2.4914  3.1543
  154SAPE  C31217109   5.394   0.907   5.189 -0.1078  0.2773 -0.1793
  154SAPE  H12X17110   5.497   0.880   5.220 -0.1808 -0.3091 -0.4288
  154SAPE  H12Y17111   5.413   0.928   5.082 -0.4218 -1.8314 -0.7053
  154SAPE  C31317112   5.306   0.785   5.203  0.0883 -0.1747 -0.4615
  154SAPE  H13X17113   5.197   0.807   5.201  0.0201 -0.2609  1.0370
  154SAPE  H13Y17114   5.320   0.734   5.301 -0.3343 -0.4407 -0.5363
  154SAPE  C31417115   5.340   0.669   5.098 -0.3820 -1.1484 -0.8160
  154SAPE  H14X17116   5.442   0.633   5.126 -0.5363 -0.3624  0.8782
  154SAPE  H14Y17117   5.340   0.714   4.996  1.4711 -1.9305 -1.2124
  154SAPE  C31517118   5.249   0.552   5.114  0.5300 -0.7977  0.5973
  154SAPE  H15X17119   5.263   0.512   5.216  0.9781 -0.0351  0.8404
  154SAPE  H15Y17120   5.293   0.479   5.042  3.4906  1.6148 -0.2641
  154SAPE  C31617121   5.105   0.580   5.072  0.4240 -0.0154 -0.0892
  154SAPE  H16X17122   5.106   0.637   4.977  1.2695  0.6230  0.2825
  154SAPE  H16Y17123   5.061   0.657   5.140 -0.0851  0.3156 -0.7757
  154SAPE  C31717124   5.019   0.455   5.078 -0.4923 -0.1934  0.5311
  154SAPE  H17X17125   5.017   0.439   5.188 -0.0545  1.6765  0.8565
  154SAPE  H17Y17126   5.081   0.379   5.027  1.1726  0.2851  1.7449
  154SAPE  C31817127   4.885   0.484   5.015 -0.1068 -0.5612 -0.0712
  154SAPE  H18X17128   4.898   0.534   4.917 -2.1596  0.6331  0.1894
  154SAPE  H18Y17129   4.839   0.556   5.086 -0.6359 -0.7681 -0.2007
  154SAPE  H18Z17130   4.820   0.395   5.005  0.6358 -1.4668  2.4684
  155SAPE     N17131   1.273   6.256   6.775  0.1351  0.6659 -0.5713
  155SAPE   HN117132   1.240   6.261   6.676  0.8197  0.3045 -0.8295
  155SAPE   HN217133   1.264   6.347   6.825 -1.4066  0.1310  0.1592
  155SAPE   HN317134   1.377   6.254   6.778  0.2377 -1.3469 -2.5878
  155SAPE   C1217135   1.225   6.135   6.849 -0.5620 -0.6780 -0.2096
  155SAPE  H12A17136   1.115   6.137   6.834 -0.4804  1.8313 -0.7956
  155SAPE  H12B17137   1.244   6.157   6.957  0.7366  0.6704 -0.6842
  155SAPE   C1117138   1.305   6.020   6.800  0.2342  0.0480  0.5088
  155SAPE  H11A17139   1.251   5.991   6.707  0.1973  1.9178 -0.0813
  155SAPE  H11B17140   1.301   5.939   6.877 -0.1609  0.8946  1.4012
  155SAPE     P17141   1.532   5.973   6.667  0.2444 -0.2586 -0.5798
  155SAPE   O1317142   1.650   6.057   6.634 -0.1635 -0.3281  0.0974
  155SAPE   O1417143   1.564   5.836   6.710  0.1141 -0.2640 -0.5443
  155SAPE   O1217144   1.442   6.046   6.782 -0.2517  0.0109 -0.0394
  155SAPE   O1117145   1.438   5.970   6.545  0.0520 -0.0721 -0.5262
  155SAPE    C117146   1.444   5.852   6.457  0.3128 -0.6967  0.0662
  155SAPE    HA17147   1.549   5.821   6.435 -0.6278 -2.0528 -3.0881
  155SAPE    HB17148   1.394   5.764   6.502  0.4954 -1.5457 -1.3420
  155SAPE    C217149   1.380   5.882   6.317  0.0928  0.5839  0.1861
  155SAPE    HS17150   1.398   5.797   6.248 -3.0035  0.3203 -0.4255
  155SAPE   O2117151   1.432   6.006   6.269  0.0850 -0.2801  0.2919
  155SAPE   C2117152   1.472   6.016   6.141 -0.0960  0.4371  0.0309
  155SAPE   O2217153   1.475   5.923   6.060 -0.0128 -0.1677  0.1024
  155SAPE   C2217154   1.498   6.161   6.115 -0.1068 -0.5631  0.2688
  155SAPE   H2R17155   1.403   6.216   6.135  0.7764  1.3630 -0.5143
  155SAPE   H2S17156   1.564   6.199   6.195 -1.5278 -1.6504  2.0408
  155SAPE    C317157   1.223   5.900   6.337  0.1192 -0.4636  0.3179
  155SAPE    HX17158   1.213   5.990   6.401  0.5450 -1.7554  2.3286
  155SAPE    HY17159   1.171   5.814   6.384 -3.1697  0.6149 -1.0469
  155SAPE   O3117160   1.163   5.927   6.210  0.4828  0.1996 -0.5601
  155SAPE   C3117161   1.123   5.824   6.135 -0.0353  0.0630 -0.3312
  155SAPE   O3217162   1.148   5.710   6.160  0.4776  0.2848  0.2614
  155SAPE   C3217163   1.076   5.883   6.002  0.6818 -0.3294  0.3561
  155SAPE   H2X17164   1.158   5.942   5.957 -0.3002 -0.5333 -1.8533
  155SAPE   H2Y17165   0.993   5.954   6.022 -1.6522 -2.2067 -1.9810
  155SAPE   C2317166   1.553   6.182   5.971  0.1804 -0.4697 -0.0009
  155SAPE   H3R17167   1.476   6.142   5.901 -0.4688  0.2248  0.3040
  155SAPE   H3S17168   1.643   6.121   5.948  1.8452  1.4968  0.9678
  155SAPE   C2417169   1.585   6.330   5.938 -0.4131 -0.2389 -0.0354
  155SAPE   H4R17170   1.634   6.383   6.022 -1.1729 -0.7476  0.7567
  155SAPE   H4S17171   1.487   6.381   5.928  0.3229  1.1950 -0.1803
  155SAPE   C2517172   1.668   6.333   5.814 -0.1193 -1.2495 -0.8117
  155SAPE   H5R17173   1.662   6.240   5.756 -2.7394 -1.9378  0.4479
  155SAPE   C2617174   1.731   6.441   5.757  0.0835  0.0115 -0.3441
  155SAPE   H6R17175   1.772   6.435   5.655  0.2635 -0.6723 -0.2342
  155SAPE   C2717176   1.751   6.573   5.820  0.4087 -0.1276  0.3773
  155SAPE   H7R17177   1.667   6.613   5.880  0.0000  1.3765 -1.1221
  155SAPE   H7S17178   1.742   6.649   5.739 -0.2671  1.6638  2.0762
  155SAPE   C2817179   1.879   6.580   5.909 -0.1386 -0.2897  0.9905
  155SAPE   H8R17180   1.872   6.527   6.006 -1.2505 -0.6186  0.7418
  155SAPE   C2917181   1.997   6.635   5.868  0.0728  0.6507 -0.4896
  155SAPE   H9R17182   2.080   6.655   5.938  0.3705  1.4438 -1.0559
  155SAPE  C21017183   2.024   6.702   5.737 -0.1206  0.2874 -0.0512
  155SAPE  H10R17184   2.102   6.779   5.756  0.2176 -0.2294  0.6824
  155SAPE  H10S17185   1.939   6.754   5.688 -1.5482  0.2938  2.2690
  155SAPE  C21117186   2.085   6.607   5.645 -0.6622  0.0612  0.6194
  155SAPE  H11R17187   2.179   6.566   5.685  0.5126  1.7686 -0.2777
  155SAPE  C21217188   2.046   6.564   5.526 -0.7329 -0.0484 -0.6012
  155SAPE  H12R17189   2.115   6.492   5.480  2.4575  1.6082  1.2677
  155SAPE  C21317190   1.923   6.620   5.457 -0.0352 -0.0713  0.0607
  155SAPE  H13R17191   1.862   6.687   5.521  0.8781  1.7639 -0.9196
  155SAPE  H13S17192   1.853   6.536   5.436 -1.0094  0.6720  0.2453
  155SAPE  C21417193   1.965   6.689   5.337 -0.6101 -0.1705 -0.0770
  155SAPE  H14R17194   2.010   6.785   5.368 -0.8676  0.0485 -0.3785
  155SAPE  C21517195   1.961   6.660   5.208 -0.2501  0.0960  0.3877
  155SAPE  H15R17196   2.010   6.730   5.140 -1.4802  1.3516  0.7476
  155SAPE  C21617197   1.913   6.527   5.159  0.7280  0.0809 -0.2197
  155SAPE  H16R17198   1.871   6.454   5.231 -1.5606  0.7773 -0.7829
  155SAPE  H16S17199   2.004   6.480   5.116  1.0857  1.9476 -1.5917
  155SAPE  C21717200   1.824   6.543   5.039 -0.0432  0.3156  0.3107
  155SAPE  H17R17201   1.870   6.600   4.956  0.2823 -1.3512 -0.7122
  155SAPE  H17S17202   1.725   6.582   5.070  0.1773  0.9825  0.1961
  155SAPE  C21817203   1.796   6.409   4.967 -0.1229  0.4878 -0.4279
  155SAPE  H18R17204   1.891   6.352   4.962  0.4639  1.4517 -0.6302
  155SAPE  H18S17205   1.763   6.431   4.864 -1.9801 -1.3383 -0.2888
  155SAPE  C21917206   1.672   6.327   5.015 -0.1053 -0.1403 -0.1945
  155SAPE  H19R17207   1.581   6.390   5.003 -1.1340 -1.4587  0.4932
  155SAPE  H19S17208   1.687   6.326   5.125  1.2552  1.7620 -0.3138
  155SAPE  C22017209   1.654   6.193   4.950 -0.5166  0.3556  0.2286
  155SAPE  H20R17210   1.730   6.119   4.982 -1.4756 -0.6199  0.3320
  155SAPE  H20S17211   1.648   6.202   4.839 -0.2109  1.5878  0.3004
  155SAPE  H20T17212   1.559   6.153   4.993  0.9343 -2.1949  1.2528
  155SAPE   C3317213   1.027   5.770   5.910  0.1973  0.4328  0.1947
  155SAPE   H3X17214   0.937   5.720   5.949  1.6844 -1.5212  1.3199
  155SAPE   H3Y17215   1.106   5.692   5.906 -0.2596 -0.1546  1.8895
  155SAPE   C3417216   0.985   5.818   5.764 -0.8844  0.5755 -0.7160
  155SAPE   H4X17217   0.926   5.912   5.767 -1.6368  0.2080 -2.5996
  155SAPE   H4Y17218   0.928   5.736   5.715 -1.7858  1.3310 -0.9681
  155SAPE   C3517219   1.109   5.835   5.678 -0.0303 -0.5008 -0.1910
  155SAPE   H5X17220   1.164   5.739   5.670  2.2453  0.8215 -1.3819
  155SAPE   H5Y17221   1.175   5.910   5.726  0.4279 -1.9325  1.5103
  155SAPE   C3617222   1.084   5.894   5.532  0.4148  0.3334  0.7795
  155SAPE   H6X17223   1.187   5.918   5.498  0.9097 -0.6438  1.5393
  155SAPE   H6Y17224   1.018   5.982   5.547  0.7726  0.6622  0.4613
  155SAPE   C3717225   1.038   5.787   5.431 -0.3665 -0.0914  0.3547
  155SAPE   H7X17226   0.938   5.743   5.449 -0.1371 -1.5671 -1.6588
  155SAPE   H7Y17227   1.103   5.697   5.439 -1.1249 -0.7355 -0.5242
  155SAPE   C3817228   1.030   5.831   5.285  0.1358 -0.5731  0.7974
  155SAPE   H8X17229   1.028   5.745   5.214 -0.9576 -0.9625  1.2760
  155SAPE   H8Y17230   1.120   5.892   5.264 -0.2287  0.0366  0.9690
  155SAPE   C3917231   0.912   5.929   5.274  0.1997 -0.1197  0.1216
  155SAPE   H9X17232   0.926   6.001   5.357 -0.4716  0.1004  0.0450
  155SAPE   H9Y17233   0.822   5.869   5.297  0.2176 -0.0303  0.4284
  155SAPE  C31017234   0.899   6.018   5.150  0.7994  0.1441 -0.0481
  155SAPE  H10X17235   0.826   6.096   5.180  1.8706  0.4465  1.8897
  155SAPE  H10Y17236   0.852   5.958   5.068  1.8593 -2.8007  1.3454
  155SAPE  C31117237   1.029   6.093   5.098  0.1746  1.1625  0.2694
  155SAPE  H11X17238   1.001   6.138   5.001  2.0517  0.0096 -0.8890
  155SAPE  H11Y17239   1.100   6.014   5.065 -1.1045  1.0562 -2.4487
  155SAPE  C31217240   1.094   6.175   5.203 -0.1260  0.0451 -0.9440
  155SAPE  H12X17241   1.150   6.109   5.273 -0.6914  0.4353 -0.1047
  155SAPE  H12Y17242   1.026   6.234   5.268 -2.1670 -0.3423 -2.6168
  155SAPE  C31317243   1.189   6.275   5.140  0.2360  0.7226  0.5913
  155SAPE  H13X17244   1.136   6.346   5.072  0.1998  0.4805  0.3669
  155SAPE  H13Y17245   1.272   6.230   5.082 -0.1073  0.4976  0.2675
  155SAPE  C31417246   1.253   6.370   5.241 -0.0153 -0.8205  0.1095
  155SAPE  H14X17247   1.177   6.444   5.273 -1.8403 -0.9969 -3.3149
  155SAPE  H14Y17248   1.319   6.437   5.182 -0.7790 -0.0653  0.0892
  155SAPE  C31517249   1.319   6.293   5.362 -0.7976  0.3149  0.4437
  155SAPE  H15X17250   1.265   6.219   5.425 -0.2842 -3.2135 -2.9098
  155SAPE  H15Y17251   1.356   6.365   5.438  0.1009  0.0183  0.2952
  155SAPE  C31617252   1.434   6.200   5.313 -0.1447 -0.0797  0.6302
  155SAPE  H16X17253   1.520   6.263   5.283  1.0243 -2.6974 -1.9557
  155SAPE  H16Y17254   1.408   6.133   5.229  1.7883  2.1986 -1.9516
  155SAPE  C31717255   1.485   6.098   5.425 -0.1319 -0.2650 -0.5398
  155SAPE  H17X17256   1.551   6.027   5.373  1.7619  1.0866 -0.1007
  155SAPE  H17Y17257   1.389   6.056   5.461 -0.7513  0.7658 -0.9342
  155SAPE  C31817258   1.569   6.143   5.540 -0.2777  0.2669 -0.0124
  155SAPE  H18X17259   1.673   6.156   5.503 -0.3629 -0.2270 -0.4409
  155SAPE  H18Y17260   1.580   6.066   5.619 -1.6672  0.7857  0.7168
  155SAPE  H18Z17261   1.534   6.241   5.579 -4.6787 -1.0706 -0.1326
  156SAPE     N17262   3.043   2.603   6.951 -0.0574 -0.2632 -0.4362
  156SAPE   HN117263   3.026   2.674   6.878 -2.5977 -0.2646  0.0727
  156SAPE   HN217264   2.995   2.660   7.024 -2.5968 -0.6296 -1.7318
  156SAPE   HN317265   3.145   2.601   6.972  0.7977 -1.7805 -4.0062
  156SAPE   C1217266   3.007   2.458   6.936 -0.0771 -0.3916  0.7968
  156SAPE  H12A17267   3.067   2.393   7.004 -0.8059 -1.2681  0.6105
  156SAPE  H12B17268   3.045   2.431   6.835  0.7332  0.1012  0.9602
  156SAPE   C1117269   2.855   2.438   6.965 -0.0060  0.4192  0.4576
  156SAPE  H11A17270   2.824   2.469   7.067  0.9460  0.6104  0.6961
  156SAPE  H11B17271   2.821   2.332   6.966 -0.4447  0.5509  1.9366
  156SAPE     P17272   2.679   2.468   6.775 -0.2307 -0.0767  0.4411
  156SAPE   O1317273   2.581   2.390   6.843 -0.1377  0.3908  0.2591
  156SAPE   O1417274   2.634   2.592   6.707  0.0268 -0.4734 -0.0822
  156SAPE   O1217275   2.788   2.519   6.871 -0.0727  0.1998 -1.1114
  156SAPE   O1117276   2.760   2.372   6.673  0.2450 -0.1953 -0.5536
  156SAPE    C117277   2.706   2.344   6.546  1.1359  0.7289 -0.8414
  156SAPE    HA17278   2.613   2.284   6.550  0.9277  1.0408  3.1926
  156SAPE    HB17279   2.689   2.440   6.492  2.0575  1.6702  0.4750
  156SAPE    C217280   2.815   2.272   6.466  0.8275 -0.0997  0.0098
  156SAPE    HS17281   2.840   2.186   6.532 -0.0194  0.2091  0.7516
  156SAPE   O2117282   2.920   2.365   6.460  0.1252  0.3312  0.1916
  156SAPE   C2117283   3.039   2.313   6.439 -0.3149 -0.3973 -0.1250
  156SAPE   O2217284   3.064   2.197   6.431  0.1553  0.5820 -0.4957
  156SAPE   C2217285   3.143   2.422   6.445  0.0575  0.4111 -0.0017
  156SAPE   H2R17286   3.116   2.502   6.517 -1.9319 -0.6943  0.5536
  156SAPE   H2S17287   3.232   2.365   6.481 -0.5195  0.2413  1.2285
  156SAPE    C317288   2.766   2.214   6.324 -0.0676 -0.4774 -0.4681
  156SAPE    HX17289   2.842   2.143   6.286  0.9125  0.1023  0.3439
  156SAPE    HY17290   2.744   2.305   6.266 -0.5468  0.5643  1.2680
  156SAPE   O3117291   2.639   2.141   6.337  0.2157  0.6465 -0.5633
  156SAPE   C3117292   2.658   2.020   6.390  0.6411 -0.6304 -0.3269
  156SAPE   O3217293   2.754   1.975   6.445  0.7299  0.6076 -0.0328
  156SAPE   C3217294   2.517   1.955   6.367  0.4717 -0.2265 -0.7759
  156SAPE   H2X17295   2.476   1.992   6.271  0.9192 -0.0562 -0.9033
  156SAPE   H2Y17296   2.457   1.980   6.457  0.4869 -0.5143 -0.6854
  156SAPE   C2317297   3.180   2.483   6.305 -0.1431  0.7246 -0.7816
  156SAPE   H3R17298   3.239   2.575   6.323 -0.0931  0.5473 -0.0094
  156SAPE   H3S17299   3.084   2.515   6.259 -0.3628 -0.5534 -1.2282
  156SAPE   C2417300   3.262   2.400   6.211 -0.6202 -0.4350 -0.0512
  156SAPE   H4R17301   3.346   2.362   6.274  1.0503 -0.1764 -1.9916
  156SAPE   H4S17302   3.312   2.461   6.133  1.4065 -1.8673  0.0317
  156SAPE   C2517303   3.185   2.289   6.145  0.5408  0.4605  0.1990
  156SAPE   H5R17304   3.167   2.198   6.205 -0.0840  0.7933  0.5211
  156SAPE   C2617305   3.155   2.290   6.012 -0.0179  0.1412  0.0314
  156SAPE   H6R17306   3.098   2.205   5.973 -0.0829 -0.1795  0.7953
  156SAPE   C2717307   3.187   2.385   5.902 -0.3524  0.7379  0.1879
  156SAPE   H7R17308   3.265   2.336   5.841 -2.1865 -0.0093 -1.6885
  156SAPE   H7S17309   3.229   2.483   5.935  0.0362  0.4129  0.6778
  156SAPE   C2817310   3.062   2.425   5.832 -0.9351 -0.2363 -0.1591
  156SAPE   H8R17311   3.001   2.502   5.881  0.2670  0.0752  0.9095
  156SAPE   C2917312   3.020   2.388   5.709 -0.2836 -0.1541  0.6780
  156SAPE   H9R17313   2.934   2.441   5.665 -1.3293 -1.5878  0.9355
  156SAPE  C21017314   3.082   2.286   5.611 -0.3797  0.5058  0.0123
  156SAPE  H10R17315   3.007   2.208   5.586 -0.5465  0.5339  0.4060
  156SAPE  H10S17316   3.164   2.231   5.662 -0.3919  1.6166  1.2900
  156SAPE  C21117317   3.147   2.351   5.497 -0.4831 -0.3285  0.4783
  156SAPE  H11R17318   3.242   2.404   5.511 -0.7803  0.3422 -0.0028
  156SAPE  C21217319   3.116   2.322   5.373 -0.2177  0.4261  0.1592
  156SAPE  H12R17320   3.183   2.355   5.292 -0.5318  0.5503 -0.0529
  156SAPE  C21317321   2.999   2.238   5.330 -0.1968 -0.0301  0.0336
  156SAPE  H13R17322   2.913   2.287   5.381  0.8158  2.0148 -0.0940
  156SAPE  H13S17323   3.000   2.131   5.357 -0.4202 -0.5336 -1.8154
  156SAPE  C21417324   2.967   2.258   5.176  0.4587  0.7889  0.2893
  156SAPE  H14R17325   3.035   2.321   5.116  0.1629 -1.3106 -2.4737
  156SAPE  C21517326   2.878   2.184   5.106  0.6505 -0.3709  0.7294
  156SAPE  H15R17327   2.850   2.217   5.005  1.7494 -0.0719  0.5086
  156SAPE  C21617328   2.794   2.079   5.161  0.5837 -0.5093 -0.2692
  156SAPE  H16R17329   2.825   2.050   5.264 -3.7939 -0.1402  1.3965
  156SAPE  H16S17330   2.789   1.991   5.093  1.1553 -0.8748  0.1556
  156SAPE  C21717331   2.655   2.129   5.194 -1.0021  0.0406 -0.0420
  156SAPE  H17R17332   2.573   2.064   5.155  0.5460 -1.5835 -0.7078
  156SAPE  H17S17333   2.637   2.221   5.135  1.1346  1.1547  0.9493
  156SAPE  C21817334   2.630   2.168   5.345  0.3991 -0.1930 -0.5081
  156SAPE  H18R17335   2.542   2.235   5.358 -0.1327 -0.4901 -2.2359
  156SAPE  H18S17336   2.727   2.209   5.381  0.2034  1.4097 -1.6903
  156SAPE  C21917337   2.598   2.051   5.437 -0.0797  0.3497 -0.0881
  156SAPE  H19R17338   2.675   1.970   5.435  2.1428  2.3821 -1.0232
  156SAPE  H19S17339   2.500   2.007   5.408  1.0502 -1.6681 -1.1085
  156SAPE  C22017340   2.597   2.098   5.592  0.2030 -0.5119 -0.4532
  156SAPE  H20R17341   2.537   2.191   5.591  0.7402 -0.1577 -0.1364
  156SAPE  H20S17342   2.703   2.121   5.619  0.3252 -2.1941  0.6591
  156SAPE  H20T17343   2.541   2.028   5.659 -1.4393  0.1254 -1.1157
  156SAPE   C3317344   2.527   1.798   6.346 -0.5746  0.2031 -0.2773
  156SAPE   H3X17345   2.422   1.767   6.368 -0.6094 -0.7266 -1.6439
  156SAPE   H3Y17346   2.604   1.749   6.409  0.2506  1.7638 -0.0389
  156SAPE   C3417347   2.555   1.777   6.199 -0.0461  0.2139  0.2161
  156SAPE   H4X17348   2.660   1.810   6.186 -0.4648  1.2758 -0.6798
  156SAPE   H4Y17349   2.489   1.834   6.129 -0.4352 -1.1407 -0.5725
  156SAPE   C3517350   2.536   1.633   6.159  0.0698  0.1747  0.8232
  156SAPE   H5X17351   2.434   1.605   6.193 -0.4821 -0.3317 -1.1208
  156SAPE   H5Y17352   2.606   1.569   6.217  1.5547  1.1397  0.1364
  156SAPE   C3617353   2.521   1.600   6.009 -0.6455 -0.4885 -0.4221
  156SAPE   H6X17354   2.434   1.657   5.970  0.3421  0.2996 -1.5311
  156SAPE   H6Y17355   2.494   1.495   5.985 -1.0127 -0.6454  0.6203
  156SAPE   C3717356   2.647   1.638   5.925  1.0384  0.4191  0.4172
  156SAPE   H7X17357   2.739   1.584   5.953 -0.3199 -2.2605 -0.0097
  156SAPE   H7Y17358   2.658   1.746   5.950  2.1079  0.6419 -0.9153
  156SAPE   C3817359   2.628   1.622   5.779 -0.0120  0.2127 -0.2778
  156SAPE   H8X17360   2.539   1.678   5.745 -0.5111 -1.6819 -2.2823
  156SAPE   H8Y17361   2.615   1.514   5.758  0.7723 -0.2324  1.3449
  156SAPE   C3917362   2.751   1.655   5.700  0.1430 -0.3063 -0.0650
  156SAPE   H9X17363   2.831   1.580   5.720  0.7822  0.2970 -0.3223
  156SAPE   H9Y17364   2.797   1.753   5.726  0.4322 -0.8654  1.7215
  156SAPE  C31017365   2.718   1.642   5.547  0.2736 -0.0144 -0.5041
  156SAPE  H10X17366   2.624   1.691   5.514  0.0740 -1.4384 -2.1809
  156SAPE  H10Y17367   2.695   1.535   5.527 -1.7883  0.2117  0.3762
  156SAPE  C31117368   2.833   1.699   5.465 -0.0400 -0.2308  0.1298
  156SAPE  H11X17369   2.929   1.643   5.478  0.3367 -0.0340 -1.6112
  156SAPE  H11Y17370   2.851   1.805   5.495 -1.5123 -0.1174  0.6555
  156SAPE  C31217371   2.811   1.684   5.309  0.8399  0.4706 -0.3723
  156SAPE  H12X17372   2.744   1.757   5.259 -2.0636 -2.2635 -0.7576
  156SAPE  H12Y17373   2.757   1.587   5.307 -0.1640  0.9904  0.3907
  156SAPE  C31317374   2.951   1.670   5.230 -0.2519  0.1618  0.4351
  156SAPE  H13X17375   3.009   1.589   5.278 -0.5252 -0.2267  0.1218
  156SAPE  H13Y17376   3.008   1.763   5.250 -0.6357  0.1988  1.4359
  156SAPE  C31417377   2.948   1.648   5.077  0.5285 -0.0149 -0.1777
  156SAPE  H14X17378   2.873   1.717   5.033  0.5043  0.4988  0.6282
  156SAPE  H14Y17379   2.911   1.548   5.046 -1.1871  0.2325  0.9168
  156SAPE  C31517380   3.085   1.672   5.014 -0.4211  0.0039  0.0001
  156SAPE  H15X17381   3.167   1.617   5.065  0.4847  0.6202 -0.7484
  156SAPE  H15Y17382   3.107   1.781   5.008  0.8868 -0.2713 -0.4370
  156SAPE  C31617383   3.081   1.630   4.868 -0.4516 -0.2302 -0.3612
  156SAPE  H16X17384   2.987   1.673   4.828  0.2434  1.8076  0.0995
  156SAPE  H16Y17385   3.047   1.524   4.872 -0.4965 -0.1876  1.9845
  156SAPE  C31717386   3.209   1.663   4.802 -0.8287 -0.0287  0.1691
  156SAPE  H17X17387   3.222   1.579   4.731 -2.0744 -1.2421  1.3121
  156SAPE  H17Y17388   3.293   1.657   4.873  0.6513 -1.0713 -1.5780
  156SAPE  C31817389   3.216   1.799   4.734  0.2954  0.3884 -0.8588
  156SAPE  H18X17390   3.320   1.831   4.714  1.2046 -0.8999  1.3923
  156SAPE  H18Y17391   3.160   1.873   4.796 -0.1946 -0.2409 -0.5410
  156SAPE  H18Z17392   3.166   1.778   4.637  0.1839 -1.6173 -0.3983
  157SAPE     N17393   2.116   1.068   7.208 -0.6494  0.4811  0.0828
  157SAPE   HN117394   2.135   1.053   7.107  1.7426  1.5465  0.3095
  157SAPE   HN217395   2.137   1.170   7.221 -1.9281  0.8512 -0.5986
  157SAPE   HN317396   2.181   1.020   7.274 -2.0255 -0.3998  0.8431
  157SAPE   C1217397   1.978   1.025   7.252 -0.5927 -0.0994 -0.4977
  157SAPE  H12A17398   1.968   1.027   7.362  0.6828 -1.3352 -0.3422
  157SAPE  H12B17399   1.966   0.916   7.235  0.0398 -0.4450  1.0979
  157SAPE   C1117400   1.857   1.102   7.189  0.4351  0.2028 -0.0629
  157SAPE  H11A17401   1.865   1.210   7.215  1.4543  0.1643 -0.2052
  157SAPE  H11B17402   1.760   1.069   7.233  0.9843 -3.4068 -1.2538
  157SAPE     P17403   1.804   0.961   6.977 -0.2968  0.1511 -0.0679
  157SAPE   O1317404   1.904   0.851   6.977  0.0395 -0.7406  0.0749
  157SAPE   O1417405   1.672   0.925   7.041  0.4472  0.1664  0.3948
  157SAPE   O1217406   1.860   1.091   7.050 -0.0394 -0.1298 -0.5001
  157SAPE   O1117407   1.774   1.010   6.825 -0.4153  0.2944 -0.0279
  157SAPE    C117408   1.870   1.100   6.760 -0.1217 -0.3934 -0.6441
  157SAPE    HA17409   1.943   1.159   6.819  1.5477  0.1869 -3.1501
  157SAPE    HB17410   1.928   1.051   6.679  0.8294  1.1584 -0.9572
  157SAPE    C217411   1.792   1.224   6.686  1.2082  0.1517 -0.0830
  157SAPE    HS17412   1.748   1.288   6.765  0.2789  1.3718 -1.5431
  157SAPE   O2117413   1.688   1.164   6.605 -0.1507  0.1644  0.3866
  157SAPE   C2117414   1.599   1.246   6.549  0.1169 -0.3347  0.1321
  157SAPE   O2217415   1.588   1.366   6.573 -0.3924  0.5209 -0.6444
  157SAPE   C2217416   1.518   1.174   6.445  0.0902 -0.3067 -0.8221
  157SAPE   H2R17417   1.548   1.067   6.449  0.2411 -0.2403  2.5117
  157SAPE   H2S17418   1.411   1.178   6.477  0.0282  0.8627 -1.1507
  157SAPE    C317419   1.887   1.322   6.613  0.3361  0.3877  0.3908
  157SAPE    HX17420   1.937   1.384   6.691  0.2334 -0.3658  1.0648
  157SAPE    HY17421   1.821   1.390   6.556  0.8241  2.2880  1.9653
  157SAPE   O3117422   1.978   1.253   6.525 -0.1599  1.0703 -0.3540
  157SAPE   C3117423   2.014   1.311   6.417  0.7704  0.0778 -0.2620
  157SAPE   O3217424   1.988   1.426   6.386  1.2313 -0.0337 -0.0228
  157SAPE   C3217425   2.097   1.211   6.334  0.0207  0.0766 -0.5857
  157SAPE   H2X17426   2.031   1.124   6.313  2.2748 -1.6375 -0.9711
  157SAPE   H2Y17427   2.176   1.184   6.408 -0.4421  1.9415  0.6499
  157SAPE   C2317428   1.536   1.236   6.306  0.4118  0.1821 -0.3041
  157SAPE   H3R17429   1.497   1.340   6.306 -0.7173  0.0127  4.9485
  157SAPE   H3S17430   1.475   1.187   6.227 -0.4101  0.8144 -0.0791
  157SAPE   C2417431   1.679   1.254   6.258  0.5876 -0.3385  0.2196
  157SAPE   H4R17432   1.733   1.299   6.343  0.1677 -1.3685  1.0494
  157SAPE   H4S17433   1.684   1.322   6.170 -0.7777 -0.1465  0.2764
  157SAPE   C2517434   1.742   1.123   6.204 -0.1114  0.8109  0.1506
  157SAPE   H5R17435   1.755   1.041   6.276  1.0971 -2.7706 -3.7314
  157SAPE   C2617436   1.778   1.086   6.079 -0.8148  0.1764  0.2763
  157SAPE   H6R17437   1.813   0.983   6.061  3.2034  1.1596  1.4749
  157SAPE   C2717438   1.783   1.174   5.957  0.1294 -0.0472  0.4744
  157SAPE   H7R17439   1.877   1.155   5.901  0.8991  0.7542  1.4777
  157SAPE   H7S17440   1.774   1.282   5.980 -3.5968  0.1344 -1.0346
  157SAPE   C2817441   1.648   1.151   5.890  0.1624  0.7836 -0.5104
  157SAPE   H8R17442   1.579   1.075   5.928 -0.3839  1.6079  0.1770
  157SAPE   C2917443   1.623   1.185   5.762  0.7121  0.5773 -0.6333
  157SAPE   H9R17444   1.528   1.146   5.722  2.2845 -2.9260 -1.3411
  157SAPE  C21017445   1.712   1.257   5.669 -0.1404 -0.1338  0.1999
  157SAPE  H10R17446   1.818   1.250   5.699 -0.5464 -0.7351  1.5947
  157SAPE  H10S17447   1.694   1.367   5.672  1.8768  0.2759 -0.9744
  157SAPE  C21117448   1.701   1.193   5.531  0.1665  0.1100 -0.0127
  157SAPE  H11R17449   1.691   1.083   5.529  0.9444  0.0059  0.7572
  157SAPE  C21217450   1.715   1.245   5.411 -0.2388 -0.6843  0.2589
  157SAPE  H12R17451   1.693   1.185   5.322  2.2553 -0.8613 -0.3193
  157SAPE  C21317452   1.724   1.397   5.392  0.7897  0.3497  0.6279
  157SAPE  H13R17453   1.789   1.446   5.468  1.9214  0.0119 -0.1042
  157SAPE  H13S17454   1.623   1.440   5.411 -1.0503 -3.3004 -0.0152
  157SAPE  C21417455   1.763   1.433   5.248  0.5704 -0.1445 -0.1852
  157SAPE  H14R17456   1.872   1.447   5.240  0.5503  0.6941  0.6961
  157SAPE  C21517457   1.685   1.434   5.141 -0.9830  0.0311  0.1098
  157SAPE  H15R17458   1.732   1.452   5.043  1.3397 -0.4316  1.0883
  157SAPE  C21617459   1.540   1.423   5.132 -0.3074 -0.1242  0.0998
  157SAPE  H16R17460   1.507   1.431   5.238  1.3891  0.3801  0.6218
  157SAPE  H16S17461   1.529   1.317   5.100 -0.5615 -0.4462  1.2008
  157SAPE  C21717462   1.468   1.533   5.047  1.0388  0.0653 -0.1121
  157SAPE  H17R17463   1.513   1.634   5.057 -1.7696  1.4726 -0.7469
  157SAPE  H17S17464   1.365   1.536   5.088  0.1205 -0.5035 -2.2066
  157SAPE  C21817465   1.460   1.502   4.891 -0.3463  0.8371  0.7670
  157SAPE  H18R17466   1.374   1.557   4.848  1.4711  0.8212 -3.4046
  157SAPE  H18S17467   1.452   1.393   4.875  2.1322  0.7279 -0.2146
  157SAPE  C21917468   1.575   1.556   4.812  0.1519  0.4308 -0.9484
  157SAPE  H19R17469   1.665   1.496   4.836 -0.5669 -0.9673 -1.6765
  157SAPE  H19S17470   1.589   1.661   4.847 -2.1799  0.4003  0.2715
  157SAPE  C22017471   1.553   1.547   4.666  0.1590  0.1401  0.0103
  157SAPE  H20R17472   1.647   1.572   4.611 -1.4690 -0.5105 -3.3519
  157SAPE  H20S17473   1.475   1.620   4.637  2.3902  2.3341 -0.8825
  157SAPE  H20T17474   1.527   1.445   4.630  1.8924 -0.2048 -0.3644
  157SAPE   C3317475   2.184   1.271   6.224  0.0176  0.0628  0.2563
  157SAPE   H3X17476   2.244   1.180   6.199  0.9105  0.1186  2.0306
  157SAPE   H3Y17477   2.253   1.344   6.272  0.2936  1.5158 -2.2100
  157SAPE   C3417478   2.110   1.322   6.104  0.4023  0.3785 -0.4415
  157SAPE   H4X17479   2.054   1.413   6.136 -0.1655 -0.1320  0.0397
  157SAPE   H4Y17480   2.039   1.242   6.075  1.2520 -0.4734 -0.2319
  157SAPE   C3517481   2.206   1.347   5.989 -0.0467 -0.5117  1.1143
  157SAPE   H5X17482   2.252   1.246   5.984  0.4870 -0.2422  0.3941
  157SAPE   H5Y17483   2.287   1.422   6.006 -0.7968 -0.0126  2.7369
  157SAPE   C3617484   2.126   1.380   5.858 -0.2428  0.0085 -0.0354
  157SAPE   H6X17485   2.076   1.478   5.875 -2.4632 -0.9904 -0.5316
  157SAPE   H6Y17486   2.054   1.296   5.856  1.1319 -1.2058  0.1981
  157SAPE   C3717487   2.206   1.387   5.732  0.0337  0.2036  0.4078
  157SAPE   H7X17488   2.256   1.289   5.717 -0.0676 -0.8485  5.1644
  157SAPE   H7Y17489   2.280   1.470   5.741 -0.6232  0.7608  0.7830
  157SAPE   C3817490   2.119   1.420   5.609  0.2760 -0.1849 -0.0833
  157SAPE   H8X17491   2.085   1.525   5.624 -1.1508 -0.6928  0.4001
  157SAPE   H8Y17492   2.026   1.360   5.599  0.2930 -0.0410 -1.3458
  157SAPE   C3917493   2.205   1.417   5.478 -0.0886 -1.0892 -0.5345
  157SAPE   H9X17494   2.248   1.316   5.464  3.2112  0.1078  0.0570
  157SAPE   H9Y17495   2.287   1.492   5.486 -1.6134  0.4643  1.3377
  157SAPE  C31017496   2.126   1.452   5.353  0.6901  0.1849  0.1410
  157SAPE  H10X17497   2.069   1.547   5.353 -0.2107 -0.3313  0.7410
  157SAPE  H10Y17498   2.050   1.372   5.338  0.5981  0.2872  0.0638
  157SAPE  C31117499   2.208   1.429   5.222 -0.3908 -0.2014 -0.0813
  157SAPE  H11X17500   2.271   1.338   5.226 -3.1983 -2.2371  0.6278
  157SAPE  H11Y17501   2.274   1.516   5.202  0.5039 -0.7787  0.3049
  157SAPE  C31217502   2.110   1.423   5.094 -0.8487  0.2236  0.3734
  157SAPE  H12X17503   2.058   1.520   5.086  4.3016  3.2959 -0.6629
  157SAPE  H12Y17504   2.032   1.344   5.107 -2.2107  1.1549 -1.6709
  157SAPE  C31317505   2.192   1.392   4.965  0.9082  0.2091 -0.4844
  157SAPE  H13X17506   2.237   1.291   4.977 -0.2338 -0.3209 -0.5825
  157SAPE  H13Y17507   2.275   1.466   4.974  1.6524 -0.6778  0.1356
  157SAPE  C31417508   2.110   1.408   4.840  0.6629 -0.3537  0.1713
  157SAPE  H14X17509   2.053   1.503   4.848  1.7562  0.3055  0.3215
  157SAPE  H14Y17510   2.023   1.339   4.847 -0.7902  1.3857 -0.0139
  157SAPE  C31517511   2.191   1.415   4.708  0.1103  0.1005 -0.0572
  157SAPE  H15X17512   2.270   1.493   4.715 -3.0740  3.6990 -0.1923
  157SAPE  H15Y17513   2.120   1.444   4.627  1.7518  0.0021 -1.5758
  157SAPE  C31617514   2.255   1.279   4.666 -0.7058 -0.1321  0.0057
  157SAPE  H16X17515   2.176   1.201   4.670 -0.3639 -0.4552  0.7088
  157SAPE  H16Y17516   2.321   1.260   4.754 -1.4854  0.3784  0.7118
  157SAPE  C31717517   2.342   1.288   4.534  0.5186 -0.3712 -0.0009
  157SAPE  H17X17518   2.421   1.366   4.546  0.8692 -0.6824 -0.2548
  157SAPE  H17Y17519   2.271   1.311   4.453 -0.1904 -0.8512  0.4685
  157SAPE  C31817520   2.409   1.147   4.509 -0.2865 -0.2646 -0.6122
  157SAPE  H18X17521   2.341   1.061   4.528 -0.8939  0.6205  1.4672
  157SAPE  H18Y17522   2.481   1.134   4.592  0.3541  2.6943 -0.5904
  157SAPE  H18Z17523   2.474   1.140   4.420  0.7401  1.2148 -0.0249
  158SAPE     N17524   4.631   0.156   6.785  0.2147  0.7057  1.0789
  158SAPE   HN117525   4.715   0.185   6.732  1.7075 -0.8327  2.4694
  158SAPE   HN217526   4.603   0.232   6.851 -1.3023 -0.8692  2.3624
  158SAPE   HN317527   4.657   0.071   6.840  0.2615 -0.5653 -0.8376
  158SAPE   C1217528   4.524   0.121   6.684 -0.5620  0.2469 -0.4699
  158SAPE  H12A17529   4.464   0.042   6.734 -0.0317 -0.1823 -0.5019
  158SAPE  H12B17530   4.567   0.072   6.594  0.9868 -0.4642  0.6141
  158SAPE   C1117531   4.447   0.245   6.646 -0.2265  0.6980 -0.4615
  158SAPE  H11A17532   4.393   0.278   6.737  0.6306  2.1430 -0.4373
  158SAPE  H11B17533   4.367   0.215   6.575 -1.2543 -0.5630  1.1832
  158SAPE     P17534   4.516   0.364   6.430 -0.0717 -0.0296  0.0109
  158SAPE   O1317535   4.376   0.407   6.408  0.0193 -0.0468  0.6585
  158SAPE   O1417536   4.623   0.453   6.388  0.4515  0.3961  0.1179
  158SAPE   O1217537   4.538   0.345   6.589 -0.5258 -0.1724  0.3135
  158SAPE   O1117538   4.543   0.214   6.373  0.0082 -0.0479  0.5970
  158SAPE    C117539   4.674   0.183   6.315  0.3370  0.3635  0.5037
  158SAPE    HA17540   4.762   0.225   6.369  2.6213 -3.1032 -0.1618
  158SAPE    HB17541   4.696   0.074   6.311  1.5334  0.5360  1.6259
  158SAPE    C217542   4.676   0.227   6.166 -0.0127 -0.7110  0.2508
  158SAPE    HS17543   4.665   0.337   6.172 -4.2242 -1.0435  1.5910
  158SAPE   O2117544   4.580   0.156   6.090  0.1913 -0.7239  0.4257
  158SAPE   C2117545   4.498   0.238   6.025  0.8402  0.5856  0.4876
  158SAPE   O2217546   4.507   0.356   6.012 -0.1126  0.5762  0.3421
  158SAPE   C2217547   4.388   0.148   5.964 -0.1641 -0.0910  0.4063
  158SAPE   H2R17548   4.378   0.050   6.015 -3.3579 -0.2999 -0.3641
  158SAPE   H2S17549   4.296   0.206   5.989  1.4201  2.8559 -0.1927
  158SAPE    C317550   4.814   0.201   6.101  0.0559 -0.0553 -0.4314
  158SAPE    HX17551   4.835   0.094   6.118  0.5670 -0.1946 -1.8638
  158SAPE    HY17552   4.894   0.253   6.159  0.6657 -0.1230 -1.1977
  158SAPE   O3117553   4.816   0.222   5.960 -0.4317 -0.0103  0.1844
  158SAPE   C3117554   4.811   0.351   5.929  0.3929 -0.1970 -0.5891
  158SAPE   O3217555   4.832   0.449   6.003  0.4809 -0.3294 -0.2215
  158SAPE   C3217556   4.759   0.368   5.786  0.1101 -0.9247  0.8571
  158SAPE   H2X17557   4.670   0.302   5.774 -2.4400  2.3167  0.8125
  158SAPE   H2Y17558   4.847   0.341   5.723 -1.2583 -1.7201 -0.7960
  158SAPE   C2317559   4.411   0.129   5.811 -0.1984 -0.0931 -0.4798
  158SAPE   H3R17560   4.357   0.036   5.783 -1.1110 -0.0952  1.1818
  158SAPE   H3S17561   4.516   0.106   5.781 -0.5480 -1.1113 -0.9601
  158SAPE   C2417562   4.349   0.244   5.722  0.6056  0.0493  0.2218
  158SAPE   H4R17563   4.402   0.243   5.624  0.0377  1.3072 -0.1118
  158SAPE   H4S17564   4.377   0.342   5.766 -0.6217  1.3468 -1.7581
  158SAPE   C2517565   4.198   0.232   5.704 -0.2127  0.7666 -0.0032
  158SAPE   H5R17566   4.149   0.221   5.802 -1.2590  0.0371 -0.5923
  158SAPE   C2617567   4.113   0.239   5.599 -0.6235  0.6784  0.3271
  158SAPE   H6R17568   4.008   0.221   5.629 -1.0632 -0.9166 -1.9628
  158SAPE   C2717569   4.148   0.269   5.453  0.8841  0.1391  0.2077
  158SAPE   H7R17570   4.259   0.263   5.451  0.8155 -2.2462 -0.4418
  158SAPE   H7S17571   4.115   0.372   5.432  1.6179 -0.2725 -3.6318
  158SAPE   C2817572   4.080   0.170   5.354 -0.0154 -0.2764  0.0793
  158SAPE   H8R17573   4.095   0.063   5.374 -1.7022 -0.4571  0.5080
  158SAPE   C2917574   4.047   0.211   5.232  0.1946 -0.3828  0.0907
  158SAPE   H9R17575   3.989   0.137   5.175  1.4127 -0.2642 -1.3323
  158SAPE  C21017576   4.015   0.347   5.185  0.2980 -0.1851 -0.0127
  158SAPE  H10R17577   4.098   0.374   5.116  0.2508  0.5328  0.2030
  158SAPE  H10S17578   4.012   0.418   5.270  0.0578 -2.5334  2.0789
  158SAPE  C21117579   3.879   0.365   5.117 -0.4132  0.1648 -0.0501
  158SAPE  H11R17580   3.792   0.324   5.172  1.4692 -1.6285  1.8023
  158SAPE  C21217581   3.862   0.411   4.989  0.4094 -0.5522  0.6599
  158SAPE  H12R17582   3.759   0.428   4.952  0.2283  1.6923  2.0075
  158SAPE  C21317583   3.971   0.464   4.907  0.5675  0.1955 -0.0290
  158SAPE  H13R17584   3.931   0.462   4.803 -1.9223  3.1846  0.7348
  158SAPE  H13S17585   4.048   0.384   4.897 -1.6239 -1.9435 -0.9481
  158SAPE  C21417586   4.010   0.603   4.932  0.1418 -0.3698 -0.5330
  158SAPE  H14R17587   4.058   0.612   5.030  1.9126 -0.1121 -1.3677
  158SAPE  C21517588   4.026   0.704   4.841 -0.0275 -0.6520 -0.6939
  158SAPE  H15R17589   4.066   0.798   4.882  0.5642 -0.0221 -2.6187
  158SAPE  C21617590   3.986   0.720   4.700  0.7334 -0.5778  0.2761
  158SAPE  H16R17591   3.899   0.788   4.689  1.6174  0.1684 -4.3872
  158SAPE  H16S17592   3.949   0.624   4.657 -0.2228  0.5145 -1.4710
  158SAPE  C21717593   4.081   0.797   4.604 -0.3221  0.9754 -0.7172
  158SAPE  H17R17594   4.048   0.773   4.500  0.0128 -1.4915 -0.3147
  158SAPE  H17S17595   4.178   0.751   4.633 -1.1114 -0.3577 -0.0999
  158SAPE  C21817596   4.085   0.946   4.621 -0.3800 -0.2993  0.6430
  158SAPE  H18R17597   4.105   0.969   4.728 -0.7764  0.4568  0.5602
  158SAPE  H18S17598   3.983   0.974   4.588  0.2284  1.7353  0.3725
  158SAPE  C21917599   4.190   1.004   4.525  0.3235 -0.5631 -0.2630
  158SAPE  H19R17600   4.179   0.944   4.432 -0.7120 -0.8978  0.0581
  158SAPE  H19S17601   4.292   0.979   4.560 -0.2110 -2.7765 -0.1497
  158SAPE  C22017602   4.172   1.156   4.510 -0.1878  0.1343 -0.5866
  158SAPE  H20R17603   4.239   1.186   4.427  1.0064  0.8960  0.6225
  158SAPE  H20S17604   4.205   1.209   4.601  1.6877  0.3085 -1.3341
  158SAPE  H20T17605   4.063   1.169   4.494 -0.2109  0.9052  0.1473
  158SAPE   C3317606   4.705   0.510   5.742  0.5155  0.2219 -0.2770
  158SAPE   H3X17607   4.760   0.589   5.797 -1.4333 -0.8727  3.6406
  158SAPE   H3Y17608   4.597   0.530   5.760  0.9253  1.1711  1.2946
  158SAPE   C3417609   4.714   0.538   5.589  0.3533 -0.5106 -0.3865
  158SAPE   H4X17610   4.817   0.519   5.553  0.3177  0.0988 -0.8063
  158SAPE   H4Y17611   4.709   0.647   5.570 -0.4901 -0.6032 -0.7386
  158SAPE   C3517612   4.606   0.460   5.514 -0.2782  0.3444 -0.2633
  158SAPE   H5X17613   4.506   0.502   5.534 -0.9236  0.0464 -2.5562
  158SAPE   H5Y17614   4.612   0.353   5.543 -0.3792  0.6155  0.8067
  158SAPE   C3617615   4.631   0.469   5.367  0.4919  0.3954  0.0336
  158SAPE   H6X17616   4.723   0.420   5.327 -1.0994 -0.4881 -2.7795
  158SAPE   H6Y17617   4.646   0.574   5.334  2.4039  0.4209  0.8459
  158SAPE   C3717618   4.526   0.400   5.283 -0.4323  0.4553  0.6625
  158SAPE   H7X17619   4.429   0.454   5.287 -1.8846 -2.0649  2.4436
  158SAPE   H7Y17620   4.503   0.297   5.317 -2.2620  0.8029  0.6122
  158SAPE   C3817621   4.560   0.396   5.131 -0.3539 -0.7960 -0.0914
  158SAPE   H8X17622   4.627   0.308   5.119 -0.5828 -1.1174  0.9096
  158SAPE   H8Y17623   4.604   0.493   5.099 -0.8275 -0.1874  1.0612
  158SAPE   C3917624   4.441   0.377   5.040  0.1355 -0.3951  0.0901
  158SAPE   H9X17625   4.375   0.462   5.012  0.6066  0.4445  1.4030
  158SAPE   H9Y17626   4.380   0.296   5.084 -0.1978  0.5167  1.3825
  158SAPE  C31017627   4.495   0.319   4.907  1.0504 -0.1009 -0.0274
  158SAPE  H10X17628   4.552   0.225   4.927  0.0273 -0.8443 -0.4785
  158SAPE  H10Y17629   4.550   0.403   4.860  0.2084  0.3828 -0.1658
  158SAPE  C31117630   4.384   0.315   4.793  0.3675  0.2762  0.4199
  158SAPE  H11X17631   4.326   0.409   4.805 -1.1271 -0.8354  2.6944
  158SAPE  H11Y17632   4.302   0.242   4.814 -1.5966  2.8043  2.2357
  158SAPE  C31217633   4.447   0.314   4.657  0.1100 -0.0998  0.0286
  158SAPE  H12X17634   4.516   0.227   4.650 -0.1819 -0.3767  0.5812
  158SAPE  H12Y17635   4.511   0.404   4.644 -0.5088  0.2196 -0.9314
  158SAPE  C31317636   4.359   0.337   4.532  0.4198  0.5844 -0.2400
  158SAPE  H13X17637   4.415   0.332   4.436 -0.9301  0.5003 -1.0627
  158SAPE  H13Y17638   4.298   0.430   4.537 -1.2084 -0.3837 -1.0866
  158SAPE  C31417639   4.252   0.224   4.530  0.2307 -0.0278 -0.8283
  158SAPE  H14X17640   4.198   0.218   4.627  1.4578 -2.2073 -0.2066
  158SAPE  H14Y17641   4.298   0.123   4.529  0.0874 -0.1396  1.0523
  158SAPE  C31517642   4.166   0.240   4.407 -1.0884 -0.0875 -0.1133
  158SAPE  H15X17643   4.117   0.142   4.388 -4.3848  1.1720  1.0508
  158SAPE  H15Y17644   4.216   0.275   4.315  1.5069 -1.1571  0.7781
  158SAPE  C31617645   4.059   0.348   4.431 -0.6277  0.2385 -0.7119
  158SAPE  H16X17646   4.107   0.447   4.446 -1.5659  0.3216  2.2990
  158SAPE  H16Y17647   3.993   0.322   4.516 -1.0422 -1.8566 -1.6156
  158SAPE  C31717648   3.967   0.350   4.308  0.0249 -0.3952  0.4235
  158SAPE  H17X17649   3.897   0.264   4.305 -1.9623  1.1293  0.9997
  158SAPE  H17Y17650   4.024   0.348   4.212  1.3095  0.5471  1.1393
  158SAPE  C31817651   3.883   0.478   4.313 -0.7515 -0.4326  0.2604
  158SAPE  H18X17652   3.930   0.567   4.362 -1.6998 -1.4563  3.2316
  158SAPE  H18Y17653   3.788   0.465   4.368 -0.3946 -0.6377  0.8386
  158SAPE  H18Z17654   3.857   0.514   4.211  1.3480  3.9711  1.0135
  159SAPE     N17655   1.768   3.447   2.192 -0.4335  0.0894  0.2961
  159SAPE   HN117656   1.839   3.419   2.262 -1.2325 -1.3267  0.5853
  159SAPE   HN217657   1.824   3.496   2.119 -2.2847  0.2664 -1.0766
  159SAPE   HN317658   1.694   3.513   2.224 -0.3936 -0.5748  1.8516
  159SAPE   C1217659   1.695   3.317   2.161 -0.7160 -0.2552 -0.5195
  159SAPE  H12A17660   1.765   3.245   2.113 -1.2349 -1.5069  0.5348
  159SAPE  H12B17661   1.614   3.348   2.091 -1.1002  0.4896  0.2273
  159SAPE   C1117662   1.639   3.254   2.293 -0.0721  1.1139 -0.0758
  159SAPE  H11A17663   1.720   3.253   2.370  1.3944  0.1089 -1.5558
  159SAPE  H11B17664   1.627   3.145   2.273 -0.6929  0.8803  1.4242
  159SAPE     P17665   1.492   3.432   2.427  0.0417 -0.1735 -0.0747
  159SAPE   O1317666   1.344   3.461   2.415 -0.3684  0.1237  0.7373
  159SAPE   O1417667   1.548   3.406   2.565  0.4945 -0.2248 -0.0718
  159SAPE   O1217668   1.520   3.305   2.343 -0.4119  0.1814 -0.3346
  159SAPE   O1117669   1.576   3.542   2.360  0.3217  0.4190  0.4845
  159SAPE    C117670   1.535   3.680   2.365  0.3849  0.4609 -0.8825
  159SAPE    HA17671   1.513   3.715   2.262  0.6338  0.2572 -1.0046
  159SAPE    HB17672   1.439   3.691   2.422 -0.8803 -2.3952 -2.2957
  159SAPE    C217673   1.642   3.777   2.424  0.2233  0.4048  0.0293
  159SAPE    HS17674   1.596   3.877   2.434 -0.5036  0.3942 -2.5876
  159SAPE   O2117675   1.752   3.757   2.333  0.4744  0.4705 -0.2906
  159SAPE   C2117676   1.813   3.865   2.303  0.1968  0.1495  0.3810
  159SAPE   O2217677   1.781   3.978   2.323 -0.2835  0.1092  0.8781
  159SAPE   C2217678   1.938   3.838   2.209  0.2268  0.1685  0.4784
  159SAPE   H2R17679   1.944   3.727   2.200 -0.4912  0.2432 -1.3952
  159SAPE   H2S17680   1.909   3.880   2.111 -1.2005  2.6221  1.8502
  159SAPE    C317681   1.674   3.731   2.573  0.2751 -0.2522 -0.3653
  159SAPE    HX17682   1.754   3.655   2.558  0.5651 -0.7511  2.9402
  159SAPE    HY17683   1.592   3.681   2.629 -1.8173  2.4970 -0.7464
  159SAPE   O3117684   1.744   3.825   2.656 -0.0138 -0.2698  0.4986
  159SAPE   C3117685   1.671   3.892   2.732  0.3528  0.2426 -0.7679
  159SAPE   O3217686   1.549   3.880   2.737 -0.0472 -0.7993  0.1500
  159SAPE   C3217687   1.750   3.981   2.835 -0.2617  0.4279 -0.3258
  159SAPE   H2X17688   1.765   4.081   2.790  3.9213 -0.4909 -1.3509
  159SAPE   H2Y17689   1.847   3.929   2.849 -1.0379 -0.9239  0.2024
  159SAPE   C2317690   2.065   3.905   2.264  0.0692  0.3874  0.1168
  159SAPE   H3R17691   2.065   4.016   2.251  1.8451  0.2876 -1.0013
  159SAPE   H3S17692   2.151   3.864   2.207  0.4353 -0.1741  1.0516
  159SAPE   C2417693   2.097   3.859   2.414 -0.8059  0.0024 -0.2158
  159SAPE   H4R17694   2.090   3.748   2.412 -1.8877  0.0162 -4.1659
  159SAPE   H4S17695   2.027   3.909   2.485 -1.0098 -0.9250  0.2592
  159SAPE   C2517696   2.239   3.907   2.455 -0.9505 -0.4142  0.2151
  159SAPE   H5R17697   2.306   3.934   2.372 -0.9798  0.9623  0.6299
  159SAPE   C2617698   2.278   3.947   2.580 -0.1745 -0.3179  1.3037
  159SAPE   H6R17699   2.382   3.978   2.600 -0.7242  2.0905  0.7446
  159SAPE   C2717700   2.204   3.934   2.711  0.4953 -0.6846  0.4836
  159SAPE   H7R17701   2.269   3.866   2.770  0.0679 -2.6648 -1.2047
  159SAPE   H7S17702   2.103   3.886   2.705  0.0169  0.0157  2.1884
  159SAPE   C2817703   2.182   4.079   2.760 -0.1436  0.2534 -0.3827
  159SAPE   H8R17704   2.080   4.117   2.750  0.0194  1.1431  1.0229
  159SAPE   C2917705   2.267   4.150   2.834 -0.3969  0.0347 -0.7378
  159SAPE   H9R17706   2.235   4.249   2.869 -0.0665 -0.1538  0.1307
  159SAPE  C21017707   2.410   4.108   2.880  0.0784  0.5142  0.2065
  159SAPE  H10R17708   2.476   4.133   2.794  2.0599 -0.9238  1.2208
  159SAPE  H10S17709   2.399   3.999   2.901  0.2921  0.8564  2.2814
  159SAPE  C21117710   2.471   4.169   3.006  0.5251  0.6010  0.4326
  159SAPE  H11R17711   2.467   4.279   3.008  0.2914  0.5932  2.2039
  159SAPE  C21217712   2.501   4.112   3.124  0.6009  0.4168 -0.2464
  159SAPE  H12R17713   2.561   4.174   3.192 -0.0508  2.2112 -1.2347
  159SAPE  C21317714   2.485   3.965   3.168  0.0269 -0.6803  0.4666
  159SAPE  H13R17715   2.573   3.954   3.236  0.8714  2.0427 -0.0408
  159SAPE  H13S17716   2.501   3.892   3.087  0.1870 -1.3595  1.0965
  159SAPE  C21417717   2.351   3.936   3.231  0.2229 -0.6114 -0.2622
  159SAPE  H14R17718   2.259   3.946   3.171 -0.5356 -1.6274  0.6849
  159SAPE  C21517719   2.332   3.912   3.361  0.2429 -0.1199 -0.6835
  159SAPE  H15R17720   2.234   3.898   3.409  0.5374  1.1263  0.3113
  159SAPE  C21617721   2.436   3.894   3.475 -0.5874  0.4083  1.0353
  159SAPE  H16R17722   2.534   3.939   3.450 -0.7193  0.8202  1.2604
  159SAPE  H16S17723   2.449   3.784   3.483 -1.8962  0.1121 -0.4416
  159SAPE  C21717724   2.399   3.942   3.621  0.0658  0.1746 -0.8385
  159SAPE  H17R17725   2.481   3.911   3.690 -2.2382 -0.1190  1.9801
  159SAPE  H17S17726   2.309   3.891   3.663  0.6187 -1.3103 -1.3957
  159SAPE  C21817727   2.351   4.090   3.629  0.3740  0.2942 -0.1137
  159SAPE  H18R17728   2.324   4.123   3.731 -0.7340  1.4376 -0.7544
  159SAPE  H18S17729   2.257   4.100   3.570 -0.8891 -0.3070  1.7211
  159SAPE  C21917730   2.448   4.184   3.565 -0.6004 -0.0237  0.2997
  159SAPE  H19R17731   2.472   4.157   3.460  1.9574 -0.2018  0.8600
  159SAPE  H19S17732   2.548   4.192   3.613  1.4351 -1.3879 -3.3065
  159SAPE  C22017733   2.385   4.323   3.557 -0.4518  0.4840  0.2810
  159SAPE  H20R17734   2.280   4.310   3.522  0.1838 -0.2195 -1.4785
  159SAPE  H20S17735   2.440   4.395   3.493  0.7660 -1.6951 -1.2385
  159SAPE  H20T17736   2.373   4.363   3.660 -0.4409 -0.1644  0.5346
  159SAPE   C3317737   1.680   3.986   2.968 -0.1289 -0.1229 -0.0303
  159SAPE   H3X17738   1.667   3.890   3.022  2.0207  0.3461  1.4707
  159SAPE   H3Y17739   1.583   4.036   2.944  0.3732 -0.0824 -2.1394
  159SAPE   C3417740   1.762   4.082   3.056 -0.2548 -0.6605  0.3099
  159SAPE   H4X17741   1.692   4.120   3.134 -0.6631  0.6159 -0.6425
  159SAPE   H4Y17742   1.779   4.176   2.999  1.1993 -0.0958  1.5785
  159SAPE   C3517743   1.884   4.019   3.123 -0.3458  0.1129  0.3233
  159SAPE   H5X17744   1.961   3.990   3.049 -0.0779 -0.2497  0.7415
  159SAPE   H5Y17745   1.857   3.926   3.177  0.6429 -0.4557 -0.1268
  159SAPE   C3617746   1.955   4.127   3.216 -0.3747  0.9951  0.2019
  159SAPE   H6X17747   1.965   4.221   3.158  0.0867 -0.8017 -2.7992
  159SAPE   H6Y17748   2.049   4.077   3.247 -0.4275 -0.1264 -1.3164
  159SAPE   C3717749   1.883   4.147   3.345 -0.5354  0.4706 -0.4197
  159SAPE   H7X17750   1.899   4.059   3.411  0.9775  1.1955  0.2202
  159SAPE   H7Y17751   1.773   4.155   3.329 -1.3927 -1.0437  3.5072
  159SAPE   C3817752   1.935   4.265   3.429  1.2521  0.9610  0.9579
  159SAPE   H8X17753   1.894   4.361   3.390  1.4508  0.4971 -0.4620
  159SAPE   H8Y17754   2.043   4.271   3.402  1.0352  0.1221 -0.1686
  159SAPE   C3917755   1.920   4.230   3.572  0.5914 -0.6767  0.9858
  159SAPE   H9X17756   1.979   4.143   3.607  0.2812 -0.6266  1.6662
  159SAPE   H9Y17757   1.816   4.200   3.600  0.9812 -2.1127  0.9480
  159SAPE  C31017758   1.959   4.354   3.646 -0.0977 -0.6263  0.1715
  159SAPE  H10X17759   1.893   4.438   3.616  0.8974  0.8202  1.8404
  159SAPE  H10Y17760   2.066   4.374   3.629 -0.0399 -2.3261 -1.8060
  159SAPE  C31117761   1.941   4.336   3.796 -0.4647 -0.3460 -0.1414
  159SAPE  H11X17762   1.838   4.346   3.835 -0.0617  2.5414  0.4555
  159SAPE  H11Y17763   2.013   4.411   3.836  0.5456 -1.5051  0.2647
  159SAPE  C31217764   2.021   4.216   3.858  0.4098  0.7539  0.1783
  159SAPE  H12X17765   2.128   4.232   3.836  0.9416  1.9402  3.2569
  159SAPE  H12Y17766   1.982   4.121   3.814 -0.4462  1.9520 -1.7986
  159SAPE  C31317767   2.012   4.199   4.006 -0.2760 -0.9133 -0.2198
  159SAPE  H13X17768   2.027   4.099   4.052  2.3125 -0.9301 -0.9558
  159SAPE  H13Y17769   1.908   4.230   4.032  0.1454 -0.3298  0.8514
  159SAPE  C31417770   2.101   4.301   4.079 -0.3872 -0.0006  0.5672
  159SAPE  H14X17771   2.056   4.401   4.060  1.1972  0.5310 -0.6076
  159SAPE  H14Y17772   2.199   4.312   4.028 -1.2552  1.0636 -0.9570
  159SAPE  C31517773   2.115   4.283   4.233 -0.3506 -0.2752  0.4216
  159SAPE  H15X17774   2.077   4.184   4.265 -1.4985  0.2786  0.8135
  159SAPE  H15Y17775   2.038   4.346   4.283 -1.7252  0.4422 -2.3671
  159SAPE  C31617776   2.255   4.310   4.298 -0.3961  0.1782  0.0976
  159SAPE  H16X17777   2.283   4.414   4.267 -1.8825  1.2852  2.2523
  159SAPE  H16Y17778   2.334   4.243   4.257 -0.8394  0.5315 -1.3840
  159SAPE  C31717779   2.240   4.322   4.448 -0.0914 -0.9788 -0.1415
  159SAPE  H17X17780   2.181   4.235   4.486  0.1131 -2.0876 -2.1928
  159SAPE  H17Y17781   2.184   4.416   4.462 -0.9209 -1.4480 -0.2442
  159SAPE  C31817782   2.381   4.340   4.510  0.2350 -0.5215 -0.3627
  159SAPE  H18X17783   2.420   4.439   4.478 -1.1099  0.4916  1.0316
  159SAPE  H18Y17784   2.458   4.275   4.461 -1.2304 -1.3428 -1.6833
  159SAPE  H18Z17785   2.387   4.331   4.620  0.1150 -0.1751 -0.3292
  160SAPE     N17786   2.117   3.012   2.405 -0.2581  0.4567 -0.2189
  160SAPE   HN117787   2.175   3.086   2.447 -2.3966  1.9265  0.3096
  160SAPE   HN217788   2.176   2.928   2.391  0.3186  0.1746  3.1266
  160SAPE   HN317789   2.063   3.028   2.317 -1.9349 -1.4741  0.3830
  160SAPE   C1217790   2.007   2.981   2.503 -1.0962 -0.3630 -0.0666
  160SAPE  H12A17791   1.955   3.077   2.523  2.0820  1.5563 -0.3380
  160SAPE  H12B17792   2.064   2.951   2.594  0.8680 -0.0292 -1.1207
  160SAPE   C1117793   1.903   2.872   2.457 -0.5759 -0.4010  0.7815
  160SAPE  H11A17794   1.840   2.836   2.541  0.4480 -2.0555  0.8964
  160SAPE  H11B17795   1.963   2.785   2.422  0.8745  0.7002  0.3914
  160SAPE     P17796   1.698   2.827   2.306  0.2149  0.0978 -0.6453
  160SAPE   O1317797   1.595   2.893   2.224 -0.0908  0.3997 -0.2635
  160SAPE   O1417798   1.776   2.711   2.254 -0.0446 -0.2887 -0.0734
  160SAPE   O1217799   1.811   2.927   2.359 -0.1080 -0.7118 -0.3941
  160SAPE   O1117800   1.621   2.780   2.438 -0.4052 -0.6944  0.1256
  160SAPE    C117801   1.516   2.858   2.504  0.1498 -0.3129  0.7068
  160SAPE    HA17802   1.441   2.891   2.429 -0.1016  2.0744  1.9329
  160SAPE    HB17803   1.456   2.796   2.574  0.3015 -0.4287  0.7339
  160SAPE    C217804   1.570   2.986   2.574  0.0665 -0.5701  0.5812
  160SAPE    HS17805   1.636   3.047   2.509 -1.6572  1.0364  0.2333
  160SAPE   O2117806   1.626   2.950   2.702  0.1945 -0.3235 -0.2162
  160SAPE   C2117807   1.715   3.032   2.753  0.6924  0.1385 -0.0128
  160SAPE   O2217808   1.757   3.130   2.698  0.4286  0.4470 -0.0360
  160SAPE   C2217809   1.749   2.998   2.899 -0.1145 -0.0626 -0.2915
  160SAPE   H2R17810   1.656   2.994   2.960  0.0011 -1.2938 -0.1603
  160SAPE   H2S17811   1.794   2.897   2.885  0.3323  0.1480 -0.3856
  160SAPE    C317812   1.454   3.081   2.605 -0.3978 -0.2706 -0.6949
  160SAPE    HX17813   1.409   3.122   2.512 -1.8780 -1.5906 -0.6018
  160SAPE    HY17814   1.490   3.168   2.665 -0.4069 -0.5071 -0.3407
  160SAPE   O3117815   1.350   3.022   2.690 -0.2012 -0.0480  0.3239
  160SAPE   C3117816   1.233   3.003   2.638 -1.1622  0.6879 -0.4072
  160SAPE   O3217817   1.204   3.018   2.517  0.0051  0.0356  0.3345
  160SAPE   C3217818   1.135   2.960   2.745 -1.4404 -0.1352  0.1488
  160SAPE   H2X17819   1.187   2.928   2.838  1.7654 -0.9862 -1.7658
  160SAPE   H2Y17820   1.069   2.877   2.711  0.7917 -1.6779 -0.6059
  160SAPE   C2317821   1.855   3.092   2.969  0.3614 -0.1605  0.4771
  160SAPE   H3R17822   1.819   3.194   2.941 -1.8566 -0.9875  0.2041
  160SAPE   H3S17823   1.952   3.077   2.916 -0.4088 -2.0798 -0.4787
  160SAPE   C2417824   1.853   3.091   3.126  0.1463 -0.2364  1.3465
  160SAPE   H4R17825   1.746   3.071   3.146 -0.8309  2.6642 -0.3320
  160SAPE   H4S17826   1.881   3.186   3.178 -0.9868  1.6588 -1.2757
  160SAPE   C2517827   1.941   2.971   3.173  0.0485  0.0859 -0.6351
  160SAPE   H5R17828   1.922   2.885   3.108 -1.2744 -1.7676  2.0202
  160SAPE   C2617829   2.023   2.961   3.284  0.1238  0.0350  0.4221
  160SAPE   H6R17830   2.082   2.868   3.288 -2.3484 -1.6424  0.2827
  160SAPE   C2717831   2.051   3.078   3.372 -0.0025 -0.3102 -0.5606
  160SAPE   H7R17832   1.976   3.160   3.366  0.7207  0.7960  2.8601
  160SAPE   H7S17833   2.149   3.115   3.334 -0.9085  2.7280 -0.2265
  160SAPE   C2817834   2.060   3.025   3.512  0.4852  0.4781  0.1002
  160SAPE   H8R17835   2.031   2.919   3.518 -0.4976  0.5170 -2.8347
  160SAPE   C2917836   2.110   3.078   3.625  0.4171  0.6691  0.5468
  160SAPE   H9R17837   2.115   3.016   3.716  2.4861  1.2511  0.8711
  160SAPE  C21017838   2.171   3.209   3.653 -0.4278 -0.0655 -0.5595
  160SAPE  H10R17839   2.087   3.270   3.691 -0.4442 -0.9452  0.8869
  160SAPE  H10S17840   2.211   3.257   3.561  1.8281  1.9347  1.3398
  160SAPE  C21117841   2.278   3.207   3.757 -0.3402  0.1193 -0.6630
  160SAPE  H11R17842   2.373   3.246   3.718 -1.0088  0.4549 -1.9996
  160SAPE  C21217843   2.266   3.197   3.888  0.4589 -0.3737  0.3300
  160SAPE  H12R17844   2.357   3.207   3.949  1.4240  2.4480 -1.3683
  160SAPE  C21317845   2.149   3.163   3.976  0.2886  0.3135  0.5940
  160SAPE  H13R17846   2.085   3.097   3.912  0.0926  1.7368 -0.7547
  160SAPE  H13S17847   2.089   3.252   4.005 -1.3635 -1.0480  1.5779
  160SAPE  C21417848   2.192   3.085   4.102  0.1383  0.2273 -0.2997
  160SAPE  H14R17849   2.237   3.146   4.181  1.5813  1.8699 -2.2587
  160SAPE  C21517850   2.151   2.967   4.151 -0.3487  0.3665 -0.6197
  160SAPE  H15R17851   2.190   2.930   4.247  0.2463 -0.5763 -1.2132
  160SAPE  C21617852   2.051   2.877   4.073 -0.4020  0.4426  0.5251
  160SAPE  H16R17853   2.106   2.823   3.993  0.1162  1.5252  0.1329
  160SAPE  H16S17854   1.974   2.936   4.018  0.3920  0.5478 -0.5025
  160SAPE  C21717855   1.987   2.766   4.163  0.1743 -0.7021 -0.2372
  160SAPE  H17R17856   1.933   2.820   4.244  2.6441  3.1881 -0.8865
  160SAPE  H17S17857   2.066   2.710   4.218  0.4959  0.8589  0.9698
  160SAPE  C21817858   1.912   2.661   4.082 -0.0751 -0.5660  0.3322
  160SAPE  H18R17859   1.842   2.703   4.006  1.5219 -0.2571 -1.0296
  160SAPE  H18S17860   1.845   2.614   4.157 -2.2231  0.5094 -0.8199
  160SAPE  C21917861   1.999   2.557   4.014  0.2577  0.5454 -0.4678
  160SAPE  H19R17862   2.100   2.556   4.060  0.6277  0.3558 -1.2818
  160SAPE  H19S17863   2.027   2.584   3.910 -1.1236 -0.1816 -1.0512
  160SAPE  C22017864   1.946   2.414   4.031  0.3854  0.2147  0.4737
  160SAPE  H20R17865   2.016   2.335   3.999 -1.4742 -0.6887 -1.6596
  160SAPE  H20S17866   1.858   2.404   3.964  0.1208  0.3187  0.7998
  160SAPE  H20T17867   1.922   2.401   4.139 -0.2557  0.1758  0.3308
  160SAPE   C3317868   1.035   3.080   2.777  0.0699  0.6200 -0.4974
  160SAPE   H3X17869   0.954   3.035   2.839  0.6261  0.1287 -0.1192
  160SAPE   H3Y17870   0.985   3.111   2.682 -2.1077 -0.3980  0.2346
  160SAPE   C3417871   1.078   3.187   2.871 -0.1768  0.2437  0.1879
  160SAPE   H4X17872   1.003   3.270   2.876 -3.2456 -2.4019  2.0667
  160SAPE   H4Y17873   1.179   3.211   2.833  0.6075 -3.3531 -0.3247
  160SAPE   C3517874   1.087   3.143   3.021 -0.1828 -0.2486  0.2378
  160SAPE   H5X17875   1.159   3.058   3.023  1.6367  1.2345 -0.0892
  160SAPE   H5Y17876   0.988   3.108   3.058 -0.1481 -0.5055  0.0932
  160SAPE   C3617877   1.137   3.245   3.117 -0.3782  0.5240  0.6088
  160SAPE   H6X17878   1.066   3.330   3.128  0.0687  0.7590  1.8991
  160SAPE   H6Y17879   1.234   3.272   3.069 -0.7896 -2.6375 -2.3946
  160SAPE   C3717880   1.157   3.187   3.254  0.5111  0.7081 -0.1343
  160SAPE   H7X17881   1.221   3.098   3.242 -0.8925 -0.6344  1.7802
  160SAPE   H7Y17882   1.055   3.153   3.282  0.3579  1.3828  0.1684
  160SAPE   C3817883   1.213   3.279   3.355 -0.6616 -0.9349  0.1995
  160SAPE   H8X17884   1.151   3.370   3.366 -0.3258 -0.5415 -0.9917
  160SAPE   H8Y17885   1.311   3.315   3.317 -1.1751 -0.2652 -0.5049
  160SAPE   C3917886   1.219   3.233   3.497  0.2498 -0.5063  0.9081
  160SAPE   H9X17887   1.286   3.145   3.502 -0.5540 -1.2323 -0.6090
  160SAPE   H9Y17888   1.119   3.192   3.521 -1.1313  0.2264 -2.8918
  160SAPE  C31017889   1.228   3.353   3.598  0.0041  0.1592 -0.0609
  160SAPE  H10X17890   1.201   3.313   3.698  2.2502  0.7208  0.8370
  160SAPE  H10Y17891   1.155   3.433   3.578 -0.7531 -0.5656 -0.2611
  160SAPE  C31117892   1.374   3.402   3.610 -0.5275 -0.2384  0.2042
  160SAPE  H11X17893   1.376   3.505   3.568 -2.9579 -0.3697 -0.3783
  160SAPE  H11Y17894   1.438   3.331   3.552 -1.9211 -0.8578 -0.6240
  160SAPE  C31217895   1.438   3.403   3.749 -0.6510  0.1850 -1.3608
  160SAPE  H12X17896   1.446   3.301   3.791  0.9258 -0.1203 -2.3068
  160SAPE  H12Y17897   1.369   3.463   3.813  0.2995 -0.2853  0.1417
  160SAPE  C31317898   1.569   3.472   3.757  0.0874  0.0987 -0.1664
  160SAPE  H13X17899   1.560   3.560   3.691  0.0326  0.9952  0.9913
  160SAPE  H13Y17900   1.653   3.411   3.718  0.4495  0.7086 -0.3447
  160SAPE  C31417901   1.602   3.526   3.898 -0.2791  0.0143  0.3208
  160SAPE  H14X17902   1.514   3.584   3.933  1.3679  0.9685  3.2078
  160SAPE  H14Y17903   1.698   3.582   3.905  0.1846 -0.6578 -0.4723
  160SAPE  C31517904   1.609   3.406   3.998 -0.4279  0.3245  0.1928
  160SAPE  H15X17905   1.665   3.322   3.952  1.8887  1.1371  1.3851
  160SAPE  H15Y17906   1.511   3.354   4.006 -0.2112 -0.5176 -2.0370
  160SAPE  C31617907   1.661   3.458   4.133 -0.3873 -0.0879  0.5364
  160SAPE  H16X17908   1.599   3.543   4.170  0.6761 -0.1705  2.6635
  160SAPE  H16Y17909   1.760   3.505   4.112 -1.0667  1.3954  0.5374
  160SAPE  C31717910   1.688   3.346   4.236  0.1731 -0.0334 -0.4567
  160SAPE  H17X17911   1.599   3.284   4.260  2.3536 -2.3814  2.3588
  160SAPE  H17Y17912   1.714   3.389   4.335 -0.8381  0.1258 -0.2510
  160SAPE  C31817913   1.797   3.243   4.187  0.0263 -0.5005 -0.3028
  160SAPE  H18X17914   1.737   3.185   4.114 -1.3599 -1.8897  1.8508
  160SAPE  H18Y17915   1.828   3.169   4.264 -2.5606 -1.3861 -0.0145
  160SAPE  H18Z17916   1.877   3.299   4.132  1.3083 -1.8316  0.1384
  161SAPE     N17917   5.558   6.086   2.428  0.4246  0.0708 -0.2388
  161SAPE   HN117918   5.505   6.031   2.358  0.7763  0.5536 -0.8924
  161SAPE   HN217919   5.656   6.093   2.395  0.5711  1.1321  0.3675
  161SAPE   HN317920   5.567   6.039   2.520 -0.0684  0.0195 -0.2119
  161SAPE   C1217921   5.486   6.218   2.425  0.3176  0.7912 -1.0637
  161SAPE  H12A17922   5.545   6.284   2.359  0.1319  0.3695 -1.6628
  161SAPE  H12B17923   5.476   6.252   2.530 -0.2270  0.8751 -1.1377
  161SAPE   C1117924   5.345   6.206   2.364  0.7723 -0.2033  0.9506
  161SAPE  H11A17925   5.352   6.171   2.259 -1.2402  1.3515  0.2329
  161SAPE  H11B17926   5.287   6.300   2.358  1.4992  0.2080  0.1555
  161SAPE     P17927   5.116   6.094   2.413  0.0650  0.3450  0.0493
  161SAPE   O1317928   5.031   6.191   2.485 -0.2750  0.2012 -0.2363
  161SAPE   O1417929   5.098   6.079   2.264 -0.0855 -0.2528 -0.7091
  161SAPE   O1217930   5.265   6.121   2.445 -0.2308  0.1744 -0.5383
  161SAPE   O1117931   5.084   5.957   2.481 -0.4245  0.0354  0.6782
  161SAPE    C117932   5.170   5.853   2.525 -0.6916  0.1470 -0.4670
  161SAPE    HA17933   5.130   5.758   2.485 -1.6224  1.1079 -1.9308
  161SAPE    HB17934   5.276   5.866   2.492  0.0204  1.8759  2.1952
  161SAPE    C217935   5.174   5.834   2.680  0.2143  0.4711  0.2468
  161SAPE    HS17936   5.242   5.750   2.707 -1.6379 -1.2129 -0.0970
  161SAPE   O2117937   5.041   5.806   2.733 -0.0994  0.3931 -0.2936
  161SAPE   C2117938   4.988   5.685   2.701 -0.2467 -0.1350 -0.3738
  161SAPE   O2217939   5.050   5.595   2.638 -0.1058  0.0918  0.1597
  161SAPE   C2217940   4.838   5.686   2.740 -0.3769  0.2166 -0.3544
  161SAPE   H2R17941   4.826   5.760   2.822  1.8486  2.1020 -1.6070
  161SAPE   H2S17942   4.786   5.719   2.648 -1.4609 -0.8179 -0.1423
  161SAPE    C317943   5.235   5.948   2.758  0.2762 -0.1693 -0.5035
  161SAPE    HX17944   5.159   6.029   2.749 -0.6377 -1.0598 -1.0110
  161SAPE    HY17945   5.324   5.974   2.697 -0.9155  2.7548 -1.1999
  161SAPE   O3117946   5.267   5.907   2.899  0.0051 -0.9862 -0.0944
  161SAPE   C3117947   5.397   5.924   2.935  0.3489 -0.5187 -0.5006
  161SAPE   O3217948   5.477   5.992   2.870  0.4091  0.1754 -0.0235
  161SAPE   C3217949   5.430   5.850   3.059  0.2683 -0.0358  0.2657
  161SAPE   H2X17950   5.388   5.749   3.039 -0.2954  0.4181 -0.8947
  161SAPE   H2Y17951   5.384   5.902   3.146  2.1524 -1.4408  2.2391
  161SAPE   C2317952   4.793   5.539   2.758 -0.9169  0.8252  0.1238
  161SAPE   H3R17953   4.789   5.496   2.656 -0.0846  1.8014 -0.3357
  161SAPE   H3S17954   4.685   5.542   2.783 -0.8845  2.1186  0.1365
  161SAPE   C2417955   4.869   5.471   2.875 -0.3947 -0.2463  0.8945
  161SAPE   H4R17956   4.979   5.459   2.860 -0.8321 -1.1606 -2.3907
  161SAPE   H4S17957   4.835   5.367   2.892  0.1917 -0.2975  1.8295
  161SAPE   C2517958   4.817   5.535   3.001 -0.5767 -0.1960  0.3989
  161SAPE   H5R17959   4.708   5.525   3.009 -0.7269  1.7018  1.0647
  161SAPE   C2617960   4.892   5.595   3.101  0.2626  0.6180  0.9365
  161SAPE   H6R17961   4.838   5.645   3.182  0.5141 -0.2475  1.6582
  161SAPE   C2717962   5.040   5.622   3.090  0.5331 -0.4951  0.7126
  161SAPE   H7R17963   5.081   5.565   3.004 -0.1468 -0.8519  0.6226
  161SAPE   H7S17964   5.090   5.575   3.178  0.2089  0.7945  1.6201
  161SAPE   C2817965   5.082   5.765   3.091 -0.1885  0.0222 -0.2166
  161SAPE   H8R17966   5.071   5.814   2.993  0.0603 -0.0859 -0.2976
  161SAPE   C2917967   5.108   5.843   3.201 -0.2080 -0.1421  0.7541
  161SAPE   H9R17968   5.147   5.944   3.183 -0.5322 -0.2689 -0.7680
  161SAPE  C21017969   5.112   5.786   3.342 -0.2341  0.1433  0.6536
  161SAPE  H10R17970   5.200   5.720   3.354 -0.5916 -0.6335 -0.7900
  161SAPE  H10S17971   5.029   5.713   3.347  0.1498 -0.3716 -0.2373
  161SAPE  C21117972   5.112   5.890   3.453  0.6870 -0.1108  0.0585
  161SAPE  H11R17973   5.127   5.995   3.422  1.1506  0.4830  2.1476
  161SAPE  C21217974   5.103   5.864   3.584  0.0494  0.3479  0.4427
  161SAPE  H12R17975   5.117   5.941   3.661  1.6559 -1.8728  2.5541
  161SAPE  C21317976   5.072   5.736   3.650 -0.4639 -0.6147 -0.4088
  161SAPE  H13R17977   5.140   5.723   3.737 -1.1431  2.5475  0.7274
  161SAPE  H13S17978   5.077   5.649   3.581  0.5740 -0.1677 -0.9112
  161SAPE  C21417979   4.936   5.740   3.706 -1.2797 -0.3113 -0.0244
  161SAPE  H14R17980   4.853   5.704   3.644  0.6766 -0.5974 -2.6639
  161SAPE  C21517981   4.904   5.788   3.830  0.7154  0.4824 -0.1720
  161SAPE  H15R17982   4.800   5.805   3.861 -0.1675 -1.8086 -1.6347
  161SAPE  C21617983   5.003   5.832   3.929 -0.1196  0.0914  0.7547
  161SAPE  H16R17984   5.095   5.874   3.883  1.3676 -1.8994  1.7625
  161SAPE  H16S17985   5.043   5.753   3.997  0.5825  0.7613  1.1394
  161SAPE  C21717986   4.937   5.944   4.013  0.2092  0.1980  0.0463
  161SAPE  H17R17987   5.016   5.970   4.087  0.3445  0.8397 -0.3114
  161SAPE  H17S17988   4.846   5.910   4.068 -0.2280 -0.0883 -0.8337
  161SAPE  C21817989   4.898   6.077   3.942 -0.2017  0.1374  0.4354
  161SAPE  H18R17990   4.854   6.127   4.031 -1.1733  1.4474 -0.7370
  161SAPE  H18S17991   4.814   6.070   3.869  0.1864  2.5680 -0.3187
  161SAPE  C21917992   5.020   6.149   3.882  0.3337  0.6347  0.0168
  161SAPE  H19R17993   5.052   6.084   3.798 -1.2912 -3.5692  2.3413
  161SAPE  H19S17994   5.101   6.150   3.959  1.4259 -0.4545 -1.0753
  161SAPE  C22017995   4.989   6.297   3.839  0.0667 -0.1549 -0.0525
  161SAPE  H20R17996   4.907   6.308   3.764  0.8433  1.1298 -0.7411
  161SAPE  H20S17997   5.080   6.344   3.798 -0.1464 -0.0715 -0.4388
  161SAPE  H20T17998   4.966   6.356   3.930 -1.7727 -1.2563  0.2429
  161SAPE   C3317999   5.577   5.817   3.082 -0.1168  0.9502  0.3700
  161SAPE   H3X18000   5.631   5.913   3.071 -1.3585  1.4528 -2.1881
  161SAPE   H3Y18001   5.613   5.748   3.003 -0.0871 -0.0985  1.2758
  161SAPE   C3418002   5.604   5.744   3.214 -0.3821  0.2646  0.3017
  161SAPE   H4X18003   5.713   5.722   3.226 -0.1569  0.8608 -0.6161
  161SAPE   H4Y18004   5.557   5.645   3.195 -0.5464  0.6396 -1.3987
  161SAPE   C3518005   5.555   5.822   3.337 -0.0470  0.0971 -0.0931
  161SAPE   H5X18006   5.446   5.842   3.325 -0.0801 -0.6409 -1.1718
  161SAPE   H5Y18007   5.605   5.920   3.325 -2.0875  1.4347  1.5493
  161SAPE   C3618008   5.582   5.751   3.463 -0.0753  0.2128 -0.8124
  161SAPE   H6X18009   5.690   5.724   3.457 -0.4153 -1.4698 -0.1026
  161SAPE   H6Y18010   5.525   5.655   3.467  0.2522 -0.0797 -2.4201
  161SAPE   C3718011   5.572   5.822   3.599 -0.7570  0.2153 -0.3117
  161SAPE   H7X18012   5.534   5.925   3.582 -0.1606  0.6529  0.9103
  161SAPE   H7Y18013   5.672   5.821   3.648 -1.1733 -3.3178  0.7510
  161SAPE   C3818014   5.466   5.747   3.688 -0.7330 -0.5054  0.4306
  161SAPE   H8X18015   5.497   5.644   3.716  1.1864  0.8268  3.7480
  161SAPE   H8Y18016   5.376   5.747   3.623 -0.8096 -0.1719  0.5393
  161SAPE   C3918017   5.457   5.821   3.823  0.0829  0.1643  0.1515
  161SAPE   H9X18018   5.368   5.771   3.867  1.0469 -2.4046 -0.5975
  161SAPE   H9Y18019   5.426   5.927   3.817  1.8010  0.7757  1.4345
  161SAPE  C31018020   5.587   5.821   3.910  0.2246  0.2834  0.4594
  161SAPE  H10X18021   5.655   5.894   3.860  0.3162  0.4889  0.8743
  161SAPE  H10Y18022   5.637   5.722   3.905  1.4750  0.7784  2.0667
  161SAPE  C31118023   5.575   5.864   4.057 -0.6449  0.4138 -0.5469
  161SAPE  H11X18024   5.509   5.953   4.060 -1.2910 -0.0740  0.1915
  161SAPE  H11Y18025   5.678   5.880   4.096  0.1259 -0.9183 -1.9316
  161SAPE  C31218026   5.519   5.744   4.136 -0.2762  0.1222  0.0634
  161SAPE  H12X18027   5.606   5.675   4.130  0.4552  1.0961 -1.1108
  161SAPE  H12Y18028   5.434   5.713   4.072  0.3333  0.4147 -0.9078
  161SAPE  C31318029   5.483   5.754   4.284 -0.0916 -0.4571  0.3618
  161SAPE  H13X18030   5.569   5.793   4.342 -1.3032 -0.0733  1.9671
  161SAPE  H13Y18031   5.462   5.657   4.335 -2.3696 -0.8013 -1.1103
  161SAPE  C31418032   5.365   5.843   4.304  0.4772 -0.1502  0.3329
  161SAPE  H14X18033   5.384   5.944   4.262 -0.0109 -1.0689 -2.2765
  161SAPE  H14Y18034   5.335   5.847   4.411 -0.3169  0.6400  0.1039
  161SAPE  C31518035   5.234   5.800   4.236 -0.3227 -0.2649  0.1671
  161SAPE  H15X18036   5.256   5.804   4.127  1.8448 -3.8876  0.3304
  161SAPE  H15Y18037   5.156   5.876   4.257 -2.0328 -1.7290 -0.6206
  161SAPE  C31618038   5.183   5.656   4.270  0.4330 -0.0582 -0.2918
  161SAPE  H16X18039   5.072   5.653   4.271  0.3414  0.2627 -2.9723
  161SAPE  H16Y18040   5.218   5.650   4.375 -3.8422  1.1133  1.4210
  161SAPE  C31718041   5.227   5.542   4.183 -0.9722  0.5205 -0.4265
  161SAPE  H17X18042   5.337   5.542   4.197 -0.9595 -0.8379 -0.4187
  161SAPE  H17Y18043   5.189   5.548   4.079 -0.2135 -1.3245 -0.8418
  161SAPE  C31818044   5.197   5.396   4.228 -0.1836 -0.2251  0.3945
  161SAPE  H18X18045   5.098   5.358   4.195  0.8639 -1.8224 -1.0717
  161SAPE  H18Y18046   5.210   5.404   4.339 -0.3562  0.3435  0.3777
  161SAPE  H18Z18047   5.278   5.335   4.183  1.6322  3.4876 -1.8285
  162SAPE     N18048   4.789   1.532   2.545  0.2244  0.4603 -0.1194
  162SAPE   HN118049   4.764   1.630   2.569  1.0298  1.5495 -3.2711
  162SAPE   HN218050   4.782   1.462   2.621 -1.4477 -1.5707 -1.9918
  162SAPE   HN318051   4.884   1.523   2.503  1.5682 -0.8365  2.9386
  162SAPE   C1218052   4.694   1.494   2.439 -0.3825  1.2308  0.3494
  162SAPE  H12A18053   4.731   1.399   2.396 -1.6598  0.7695  0.2424
  162SAPE  H12B18054   4.698   1.573   2.361  0.8977  0.3205 -0.5635
  162SAPE   C1118055   4.551   1.470   2.491  0.1766  0.3477 -0.4720
  162SAPE  H11A18056   4.495   1.444   2.398  1.6851 -1.6367 -0.9199
  162SAPE  H11B18057   4.493   1.555   2.530 -1.7742 -1.4794  0.8380
  162SAPE     P18058   4.499   1.218   2.552 -0.0067  0.0304  0.2919
  162SAPE   O1318059   4.369   1.220   2.473  0.2386 -0.0502 -0.7335
  162SAPE   O1418060   4.610   1.145   2.486  0.0785 -0.0014  0.0221
  162SAPE   O1218061   4.556   1.361   2.591  0.1508  0.2527 -0.5283
  162SAPE   O1118062   4.480   1.145   2.692 -1.0437  0.2871  0.1345
  162SAPE    C118063   4.589   1.165   2.784  0.3323  0.2377 -0.5772
  162SAPE    HA18064   4.685   1.138   2.734  0.8373 -2.8174  1.7023
  162SAPE    HB18065   4.592   1.271   2.816  1.2582  0.4887 -1.4547
  162SAPE    C218066   4.587   1.061   2.909  0.9377 -0.1680  0.0502
  162SAPE    HS18067   4.626   1.115   2.998  0.4408  0.5076 -0.1402
  162SAPE   O2118068   4.656   0.933   2.895  0.0572  0.2034  0.6284
  162SAPE   C2118069   4.791   0.944   2.884  0.5228 -0.2860 -0.6702
  162SAPE   O2218070   4.854   1.048   2.909  0.1976  0.4272  0.0525
  162SAPE   C2218071   4.846   0.803   2.864  0.6787  0.2498 -0.6173
  162SAPE   H2R18072   4.804   0.774   2.766 -2.0244 -0.7566  0.7396
  162SAPE   H2S18073   4.955   0.810   2.842  0.7876  0.0557 -0.1524
  162SAPE    C318074   4.438   1.026   2.936 -0.3822 -0.4148 -0.6903
  162SAPE    HX18075   4.411   0.952   2.858 -0.0452 -0.4983 -0.7275
  162SAPE    HY18076   4.382   1.121   2.929 -0.5089 -0.4182  0.1651
  162SAPE   O3118077   4.411   0.973   3.068 -0.6927 -0.4878 -0.1181
  162SAPE   C3118078   4.345   0.853   3.064 -0.1824 -0.4360 -0.0446
  162SAPE   O3218079   4.291   0.806   2.964  0.2071 -0.2505  0.1160
  162SAPE   C3218080   4.361   0.783   3.191  0.6883 -0.2276 -0.6860
  162SAPE   H2X18081   4.343   0.852   3.276  2.7156 -0.2494 -0.1910
  162SAPE   H2Y18082   4.465   0.744   3.193  0.7687 -0.0758 -1.5246
  162SAPE   C2318083   4.812   0.699   2.971  0.0361 -0.7652 -0.1060
  162SAPE   H3R18084   4.824   0.605   2.913  1.0929  0.4956 -2.0340
  162SAPE   H3S18085   4.706   0.705   3.004  0.1200 -2.0631  0.4518
  162SAPE   C2418086   4.918   0.703   3.082  0.5382  0.2214 -0.3403
  162SAPE   H4R18087   4.945   0.806   3.114  0.9507  0.3409 -1.0333
  162SAPE   H4S18088   5.015   0.659   3.052  0.7744 -0.5488  1.4600
  162SAPE   C2518089   4.859   0.629   3.200 -0.9385 -0.5107 -0.4200
  162SAPE   H5R18090   4.856   0.520   3.196 -1.6461 -0.4873 -0.6643
  162SAPE   C2618091   4.818   0.685   3.316  0.2442 -0.1609 -0.4241
  162SAPE   H6R18092   4.793   0.622   3.402 -0.3373 -0.7275 -0.9944
  162SAPE   C2718093   4.816   0.837   3.343 -0.0788  0.3250 -0.0129
  162SAPE   H7R18094   4.907   0.879   3.295 -0.5868  0.5857 -0.7734
  162SAPE   H7S18095   4.825   0.847   3.453 -1.7104 -0.1189  0.1926
  162SAPE   C2818096   4.704   0.915   3.281  0.5836  0.0017 -0.1971
  162SAPE   H8R18097   4.699   0.884   3.176 -1.9508 -1.5752  0.2949
  162SAPE   C2918098   4.603   0.982   3.336 -0.2297  0.4504  0.2516
  162SAPE   H9R18099   4.542   1.042   3.267  0.4595  3.0268  1.7410
  162SAPE  C21018100   4.593   1.018   3.480  0.2244  0.4031  0.2214
  162SAPE  H10R18101   4.558   1.123   3.491  0.2128  0.1944  2.8662
  162SAPE  H10S18102   4.692   1.007   3.530 -0.4634  1.4145  1.9129
  162SAPE  C21118103   4.491   0.929   3.547 -0.0513 -0.0712  0.5486
  162SAPE  H11R18104   4.444   0.859   3.477 -0.0702  0.1594  0.3316
  162SAPE  C21218105   4.455   0.931   3.675  0.2550  0.9706 -1.4091
  162SAPE  H12R18106   4.389   0.852   3.714  1.8265 -0.9884 -2.5027
  162SAPE  C21318107   4.516   1.014   3.782 -0.7306  0.1743 -1.1849
  162SAPE  H13R18108   4.452   1.015   3.872  2.9089 -1.7843  1.7256
  162SAPE  H13S18109   4.529   1.117   3.742 -4.4255  1.8591  1.4324
  162SAPE  C21418110   4.650   0.952   3.823 -0.3857 -0.7040 -0.7146
  162SAPE  H14R18111   4.691   0.876   3.755  0.0847 -0.9914 -0.1213
  162SAPE  C21518112   4.731   0.979   3.930  0.2268 -0.2257 -0.4680
  162SAPE  H15R18113   4.827   0.926   3.942 -0.5515 -1.6015 -0.0548
  162SAPE  C21618114   4.689   1.069   4.038 -0.0068 -0.1899  0.2456
  162SAPE  H16R18115   4.585   1.106   4.024  0.1590  0.1997  0.0202
  162SAPE  H16S18116   4.762   1.152   4.045 -0.7359  0.3871  1.1573
  162SAPE  C21718117   4.694   0.995   4.176 -0.1987 -0.0327 -0.4680
  162SAPE  H17R18118   4.788   0.937   4.184  1.0181  1.9925  0.4981
  162SAPE  H17S18119   4.604   0.928   4.173  0.1628 -0.5663  0.1902
  162SAPE  C21818120   4.674   1.095   4.290 -0.2544  0.2336 -0.1572
  162SAPE  H18R18121   4.763   1.160   4.300 -1.4355  1.8307  0.5373
  162SAPE  H18S18122   4.668   1.031   4.381 -0.2181 -2.2665 -1.8043
  162SAPE  C21918123   4.558   1.193   4.285  0.0511 -0.0908 -0.3237
  162SAPE  H19R18124   4.468   1.143   4.245 -1.5824  3.8664 -2.1653
  162SAPE  H19S18125   4.570   1.273   4.209 -2.1480 -0.8717 -1.5770
  162SAPE  C22018126   4.531   1.272   4.414 -0.1837  0.6349 -0.3513
  162SAPE  H20R18127   4.451   1.346   4.393 -0.1979  0.3415 -1.4157
  162SAPE  H20S18128   4.625   1.316   4.455  1.7522 -1.3284 -2.3268
  162SAPE  H20T18129   4.491   1.206   4.493 -2.4428  1.5877 -0.6221
  162SAPE   C3318130   4.263   0.664   3.196  0.0614 -0.4004 -0.2550
  162SAPE   H3X18131   4.289   0.595   3.113  4.2961 -0.3739  0.8128
  162SAPE   H3Y18132   4.154   0.687   3.196 -0.2887 -1.9184 -1.3266
  162SAPE   C3418133   4.291   0.582   3.324 -0.5289  0.6079 -0.9335
  162SAPE   H4X18134   4.400   0.577   3.347 -0.2687  0.9735 -2.0326
  162SAPE   H4Y18135   4.261   0.481   3.289  0.4360  0.8617 -2.6275
  162SAPE   C3518136   4.228   0.610   3.459 -0.3107 -0.4332 -0.1785
  162SAPE   H5X18137   4.117   0.607   3.460 -0.4771  2.6130 -0.5404
  162SAPE   H5Y18138   4.252   0.714   3.490 -1.1409 -0.0447 -0.7990
  162SAPE   C3618139   4.272   0.505   3.570 -0.0008  0.2469 -0.3349
  162SAPE   H6X18140   4.379   0.512   3.598 -0.2056 -4.1024  2.6121
  162SAPE   H6Y18141   4.278   0.402   3.527  1.0575  0.2222 -0.1692
  162SAPE   C3718142   4.178   0.508   3.693  0.0934 -0.4487 -0.5967
  162SAPE   H7X18143   4.203   0.417   3.752 -0.6753 -0.3250 -0.0568
  162SAPE   H7Y18144   4.071   0.512   3.662 -0.3420  0.1580  0.8610
  162SAPE   C3818145   4.209   0.626   3.800  0.8329  0.4183 -0.1489
  162SAPE   H8X18146   4.131   0.615   3.878  0.9140 -1.1075 -0.2515
  162SAPE   H8Y18147   4.203   0.725   3.749 -0.2754  0.5854  0.2853
  162SAPE   C3918148   4.346   0.608   3.872 -0.3988 -0.0493  0.9203
  162SAPE   H9X18149   4.435   0.642   3.815  1.1099 -1.9978  1.9763
  162SAPE   H9Y18150   4.365   0.501   3.893  2.9047  0.2789  0.0510
  162SAPE  C31018151   4.354   0.685   4.000 -0.1648  0.3326  0.2156
  162SAPE  H10X18152   4.273   0.761   3.993 -1.6643 -1.2825 -1.5471
  162SAPE  H10Y18153   4.457   0.726   4.008  0.7692 -1.1953 -2.5305
  162SAPE  C31118154   4.305   0.590   4.115  0.2657 -0.3586 -0.7385
  162SAPE  H11X18155   4.356   0.492   4.106  0.4804 -0.0970 -2.7973
  162SAPE  H11Y18156   4.199   0.568   4.088 -1.1508  2.3843  1.9160
  162SAPE  C31218157   4.309   0.651   4.259 -0.8361  0.1009 -0.0191
  162SAPE  H12X18158   4.260   0.581   4.330 -0.2672 -0.2627  0.0140
  162SAPE  H12Y18159   4.251   0.746   4.268 -2.6513 -1.1420  3.9466
  162SAPE  C31318160   4.449   0.677   4.303  0.2009 -0.4997  0.4441
  162SAPE  H13X18161   4.489   0.755   4.234 -1.5235 -0.9656 -1.1654
  162SAPE  H13Y18162   4.508   0.585   4.288 -1.9455 -2.4726  3.1456
  162SAPE  C31418163   4.472   0.718   4.449 -0.3264  0.4210 -0.2297
  162SAPE  H14X18164   4.412   0.640   4.500 -0.3416  1.4606  1.4240
  162SAPE  H14Y18165   4.409   0.808   4.467 -1.6450 -0.8358  1.9049
  162SAPE  C31518166   4.618   0.712   4.496  0.2658  0.5136 -0.4209
  162SAPE  H15X18167   4.690   0.756   4.424 -0.0735  0.9554 -0.4930
  162SAPE  H15Y18168   4.645   0.605   4.511 -0.0230  0.5651  0.5356
  162SAPE  C31618169   4.636   0.777   4.637  0.2398  0.5834  0.5073
  162SAPE  H16X18170   4.569   0.732   4.713  0.7278  0.8086  1.0817
  162SAPE  H16Y18171   4.613   0.884   4.624  1.0178  0.5642 -1.3004
  162SAPE  C31718172   4.785   0.755   4.693 -0.0724  0.4656 -0.0059
  162SAPE  H17X18173   4.859   0.789   4.618  1.1729  0.6108  1.2531
  162SAPE  H17Y18174   4.802   0.646   4.704 -0.5034  0.4687  0.7790
  162SAPE  C31818175   4.834   0.826   4.821 -0.5210  0.6108 -0.3339
  162SAPE  H18X18176   4.799   0.931   4.817 -0.9736  0.4252 -1.6119
  162SAPE  H18Y18177   4.944   0.834   4.839 -0.5475 -1.6638  1.3235
  162SAPE  H18Z18178   4.793   0.788   4.918 -0.1565 -0.3937 -0.5585
  163SAPE     N18179   4.947   3.347   2.338  0.4129 -0.1651  0.2808
  163SAPE   HN118180   5.036   3.388   2.302  0.6913 -2.2258 -1.6733
  163SAPE   HN218181   4.981   3.278   2.408  0.6222 -1.2158 -0.8165
  163SAPE   HN318182   4.900   3.293   2.263  0.8713  0.5011 -0.5105
  163SAPE   C1218183   4.866   3.456   2.405 -0.1105 -0.4597 -0.0844
  163SAPE  H12A18184   4.763   3.423   2.380  0.0035 -1.4715  0.6848
  163SAPE  H12B18185   4.891   3.550   2.351 -0.6999 -0.2870 -0.0588
  163SAPE   C1118186   4.902   3.478   2.553 -0.5276 -0.4652 -0.0387
  163SAPE  H11A18187   4.904   3.383   2.609 -2.2047 -0.0078  0.8620
  163SAPE  H11B18188   4.820   3.533   2.605  1.3859  1.7645  0.8080
  163SAPE     P18189   5.062   3.671   2.634  0.1253  0.0486 -0.6813
  163SAPE   O1318190   5.175   3.725   2.559 -0.6550  0.0568 -0.2014
  163SAPE   O1418191   4.941   3.747   2.627  0.2103  0.2499  0.3958
  163SAPE   O1218192   5.037   3.531   2.567 -0.2467 -0.2622  0.1364
  163SAPE   O1118193   5.105   3.637   2.789  0.1267  0.6193  0.6358
  163SAPE    C118194   5.223   3.685   2.849 -0.1271  0.1072 -0.9918
  163SAPE    HA18195   5.250   3.605   2.921 -0.2541 -0.2633 -1.3506
  163SAPE    HB18196   5.307   3.698   2.777  2.8501  3.6969  2.7063
  163SAPE    C218197   5.198   3.819   2.928 -0.3741 -0.1108  1.1145
  163SAPE    HS18198   5.269   3.831   3.013  1.3176  1.0361 -0.3701
  163SAPE   O2118199   5.070   3.824   2.997 -0.0117  0.0734 -0.1342
  163SAPE   C2118200   5.051   3.717   3.073 -0.0498  0.4136 -0.6684
  163SAPE   O2218201   5.141   3.659   3.132  0.5280 -0.2638  0.4512
  163SAPE   C2218202   4.903   3.672   3.095  0.8418 -0.4048 -0.4925
  163SAPE   H2R18203   4.910   3.587   3.167 -2.1655  0.4236  0.9237
  163SAPE   H2S18204   4.858   3.758   3.149  1.8440 -0.7284  0.9245
  163SAPE    C318205   5.206   3.942   2.835 -0.5589  0.4262  0.3069
  163SAPE    HX18206   5.120   3.947   2.764 -1.6680  1.4322  1.6707
  163SAPE    HY18207   5.294   3.935   2.768 -0.4721  1.2446  0.3325
  163SAPE   O3118208   5.218   4.065   2.914 -0.2798  0.3237  0.1073
  163SAPE   C3118209   5.098   4.127   2.926  0.4377 -0.2458  0.2701
  163SAPE   O3218210   4.992   4.099   2.864 -0.1347 -0.7618 -0.6242
  163SAPE   C3218211   5.122   4.238   3.017  0.3836  0.5153 -0.2828
  163SAPE   H2X18212   5.095   4.331   2.962 -0.5217  0.1225 -0.5251
  163SAPE   H2Y18213   5.226   4.252   3.054  1.1115 -1.1802 -1.5510
  163SAPE   C2318214   4.833   3.633   2.964  0.1115 -0.0455 -0.0781
  163SAPE   H3R18215   4.906   3.571   2.908 -0.7640 -0.8042 -0.3981
  163SAPE   H3S18216   4.812   3.727   2.908 -0.8920 -0.0381  0.2940
  163SAPE   C2418217   4.693   3.556   2.986  0.0735 -0.1674 -0.5273
  163SAPE   H4R18218   4.613   3.633   2.987 -0.1914 -0.4429  0.0120
  163SAPE   H4S18219   4.700   3.508   3.086  1.7289 -1.0411 -1.0242
  163SAPE   C2518220   4.675   3.450   2.885  1.0875  0.3156 -0.4148
  163SAPE   H5R18221   4.747   3.366   2.881 -0.3475 -0.9968  0.2407
  163SAPE   C2618222   4.585   3.456   2.781 -0.3660 -0.0542  0.1386
  163SAPE   H6R18223   4.591   3.389   2.694  0.8188 -1.1380  0.9960
  163SAPE   C2718224   4.477   3.558   2.761  0.4750 -0.4025  0.0646
  163SAPE   H7R18225   4.481   3.641   2.835  0.2838  0.0278 -0.3978
  163SAPE   H7S18226   4.374   3.522   2.783  0.0718  1.1751  0.9288
  163SAPE   C2818227   4.478   3.625   2.619  0.9459 -0.0734 -0.4942
  163SAPE   H8R18228   4.577   3.632   2.573  0.2255 -0.8883 -2.2642
  163SAPE   C2918229   4.372   3.686   2.555  0.0074  0.0870  0.2987
  163SAPE   H9R18230   4.386   3.729   2.454  1.8436 -1.1188 -0.0065
  163SAPE  C21018231   4.239   3.705   2.612  0.4487  0.1405 -0.7561
  163SAPE  H10R18232   4.237   3.695   2.722 -1.3124 -0.9987 -0.8485
  163SAPE  H10S18233   4.173   3.624   2.574 -3.8353  2.1353  1.8086
  163SAPE  C21118234   4.178   3.833   2.567  0.7195  0.4458  0.4668
  163SAPE  H11R18235   4.254   3.912   2.556  0.7934  0.0806 -2.4579
  163SAPE  C21218236   4.047   3.872   2.562 -0.3642  0.1223  0.3842
  163SAPE  H12R18237   4.025   3.976   2.532  0.6496  0.4241  0.6488
  163SAPE  C21318238   3.926   3.787   2.589 -0.3570  0.2910 -0.0944
  163SAPE  H13R18239   3.898   3.797   2.696 -1.0471  2.5123 -0.4318
  163SAPE  H13S18240   3.961   3.682   2.579  1.1846  0.8507 -0.8547
  163SAPE  C21418241   3.808   3.800   2.501  0.8249  0.2596  0.0447
  163SAPE  H14R18242   3.838   3.787   2.396 -0.2139 -2.2372  0.0047
  163SAPE  C21518243   3.677   3.840   2.534 -0.2130  0.2357  0.0082
  163SAPE  H15R18244   3.608   3.851   2.449 -1.2287 -3.1143  0.2731
  163SAPE  C21618245   3.623   3.884   2.668  0.4678  0.0467 -0.9403
  163SAPE  H16R18246   3.682   3.838   2.750 -0.1859  0.2246 -0.3598
  163SAPE  H16S18247   3.517   3.852   2.681  0.8362 -0.4134  1.2073
  163SAPE  C21718248   3.621   4.033   2.695 -0.3601  0.2170 -0.1200
  163SAPE  H17R18249   3.713   4.075   2.650  0.5794 -0.2645  1.3022
  163SAPE  H17S18250   3.621   4.052   2.804 -1.9090 -0.1551 -0.0258
  163SAPE  C21818251   3.499   4.105   2.637 -0.3569 -0.3192 -0.8309
  163SAPE  H18R18252   3.403   4.067   2.679  0.4180 -0.9369  0.4567
  163SAPE  H18S18253   3.491   4.092   2.527  0.5304  1.1396 -1.0880
  163SAPE  C21918254   3.500   4.261   2.668 -0.1189  0.6152 -0.0855
  163SAPE  H19R18255   3.594   4.304   2.626  0.0762 -0.6465 -1.0121
  163SAPE  H19S18256   3.506   4.275   2.778 -0.0169  1.5117 -0.1924
  163SAPE  C22018257   3.375   4.322   2.614 -0.0047  0.2168  0.1754
  163SAPE  H20R18258   3.285   4.273   2.655 -0.1745  0.7000  0.3878
  163SAPE  H20S18259   3.369   4.304   2.504 -0.1900  1.7446 -0.0848
  163SAPE  H20T18260   3.353   4.427   2.644 -2.2402  0.0928 -0.8200
  163SAPE   C3318261   5.013   4.242   3.133  0.1060 -0.3174  0.6658
  163SAPE   H3X18262   4.915   4.257   3.083  0.9169  1.0213 -0.6130
  163SAPE   H3Y18263   5.028   4.345   3.172  3.9702 -0.2990 -0.4269
  163SAPE   C3418264   5.020   4.124   3.229  0.2245 -0.1661  0.8507
  163SAPE   H4X18265   5.118   4.124   3.282  0.1018 -0.6261  1.0818
  163SAPE   H4Y18266   4.996   4.027   3.182 -0.5461 -0.6853  2.2648
  163SAPE   C3518267   4.900   4.131   3.332 -0.2132 -0.3134  0.0379
  163SAPE   H5X18268   4.810   4.167   3.277 -2.1594  1.3768  3.8744
  163SAPE   H5Y18269   4.923   4.211   3.406  1.0819 -0.7312  0.1097
  163SAPE   C3618270   4.873   3.996   3.403  0.8094 -0.0667 -0.2783
  163SAPE   H6X18271   4.863   3.918   3.324  1.5079 -0.7894  0.3315
  163SAPE   H6Y18272   4.775   4.011   3.453  1.5936  1.0328  1.0157
  163SAPE   C3718273   4.974   3.960   3.505  0.6539  0.1772  0.0272
  163SAPE   H7X18274   4.983   4.046   3.575 -0.9960  0.5065 -0.1309
  163SAPE   H7Y18275   5.072   3.949   3.453 -0.3061  1.3689 -2.1463
  163SAPE   C3818276   4.947   3.824   3.578 -0.7594  0.0010 -0.8851
  163SAPE   H8X18277   4.918   3.747   3.504  2.7988 -1.1284 -1.2516
  163SAPE   H8Y18278   4.854   3.832   3.638 -0.7061  0.9907 -0.9183
  163SAPE   C3918279   5.069   3.749   3.651  0.6837 -0.6057 -0.3773
  163SAPE   H9X18280   5.141   3.723   3.571 -0.4552 -0.2776 -1.5422
  163SAPE   H9Y18281   5.032   3.655   3.698  0.4882 -0.5123 -0.3467
  163SAPE  C31018282   5.126   3.849   3.756 -0.6503 -0.3463  0.1695
  163SAPE  H10X18283   5.044   3.909   3.801 -0.4838  0.0750 -0.0890
  163SAPE  H10Y18284   5.184   3.928   3.704 -0.9789  0.0672  0.4347
  163SAPE  C31118285   5.202   3.788   3.873  0.4293  0.0900 -0.1540
  163SAPE  H11X18286   5.234   3.870   3.941  0.6541 -1.2281  1.3929
  163SAPE  H11Y18287   5.289   3.726   3.843 -0.3179 -1.3033  0.4400
  163SAPE  C31218288   5.114   3.697   3.971  0.6174 -0.8530  0.3482
  163SAPE  H12X18289   5.062   3.616   3.916 -0.4423  0.7257 -1.0843
  163SAPE  H12Y18290   5.041   3.774   4.002 -0.9143 -1.3530 -1.8256
  163SAPE  C31318291   5.180   3.623   4.090  0.3374 -0.2548 -0.0678
  163SAPE  H13X18292   5.212   3.699   4.165  1.4170 -0.4904 -0.2814
  163SAPE  H13Y18293   5.269   3.576   4.044  0.5129  0.4946 -0.4990
  163SAPE  C31418294   5.109   3.508   4.163  0.8952 -0.4514 -0.0062
  163SAPE  H14X18295   5.184   3.438   4.205 -0.4882 -2.5009 -0.8014
  163SAPE  H14Y18296   5.040   3.444   4.104 -0.1932 -1.0608  1.8303
  163SAPE  C31518297   5.018   3.551   4.289 -0.6127 -0.2225  0.7920
  163SAPE  H15X18298   4.986   3.461   4.345 -1.7648  0.1685  0.7860
  163SAPE  H15Y18299   4.931   3.601   4.243 -0.3319 -1.6089 -1.3562
  163SAPE  C31618300   5.075   3.659   4.382 -0.3799  0.0240  0.0015
  163SAPE  H16X18301   5.090   3.746   4.314 -1.0103  0.5021  0.4560
  163SAPE  H16Y18302   5.176   3.626   4.416 -0.8097 -1.0923  0.2375
  163SAPE  C31718303   4.987   3.698   4.504 -0.0322 -0.1458  0.5100
  163SAPE  H17X18304   4.960   3.598   4.545  1.4973 -0.1921  1.5001
  163SAPE  H17Y18305   4.903   3.765   4.477 -0.1130 -1.8240 -4.3790
  163SAPE  C31818306   5.063   3.768   4.613 -0.7310  0.2420 -0.8022
  163SAPE  H18X18307   4.995   3.826   4.678  0.0013 -0.4029  0.5888
  163SAPE  H18Y18308   5.141   3.836   4.572  0.5365 -1.4701 -1.3515
  163SAPE  H18Z18309   5.116   3.697   4.680 -0.9838  0.6031 -0.2059
  164SAPE     N18310   2.270   4.924   2.324  0.0387  0.6256  0.1608
  164SAPE   HN118311   2.296   4.823   2.320 -0.6678  0.3630  1.6424
  164SAPE   HN218312   2.209   4.941   2.242 -2.5708 -0.6518  1.7129
  164SAPE   HN318313   2.354   4.982   2.302 -0.2162  0.1045 -2.4773
  164SAPE   C1218314   2.211   4.958   2.462 -0.5144  0.4863 -0.2220
  164SAPE  H12A18315   2.242   5.061   2.487  0.2950 -0.2585  2.0689
  164SAPE  H12B18316   2.261   4.890   2.534 -0.1642 -0.2857 -1.1650
  164SAPE   C1118317   2.060   4.944   2.446 -0.6717 -0.4800 -0.2368
  164SAPE  H11A18318   2.014   4.960   2.546 -0.6864  2.5618 -0.6246
  164SAPE  H11B18319   2.029   4.847   2.402  2.7608  0.0266 -4.3957
  164SAPE     P18320   1.862   5.068   2.325 -0.1491  0.1636 -0.0823
  164SAPE   O1318321   1.851   5.183   2.239 -0.2490  0.1251  0.1306
  164SAPE   O1418322   1.824   4.938   2.270 -0.5663  0.4677 -0.0412
  164SAPE   O1218323   2.016   5.055   2.364 -0.5529 -0.5170  0.2803
  164SAPE   O1118324   1.796   5.087   2.469  0.5432  0.0954 -0.1227
  164SAPE    C118325   1.784   5.217   2.528 -0.2761 -0.4287 -0.0121
  164SAPE    HA18326   1.746   5.288   2.451  0.5100 -0.0753 -0.0847
  164SAPE    HB18327   1.721   5.229   2.619  0.6966  1.1177  0.5154
  164SAPE    C218328   1.926   5.274   2.580  0.2742 -0.0313  0.4807
  164SAPE    HS18329   1.987   5.272   2.487 -0.0159  0.0049  0.2869
  164SAPE   O2118330   1.975   5.179   2.677 -0.3748 -0.5656  0.4704
  164SAPE   C2118331   2.094   5.206   2.724  0.1305 -0.4550  0.1900
  164SAPE   O2218332   2.175   5.284   2.673  0.3362 -0.2214  0.4688
  164SAPE   C2218333   2.125   5.136   2.859 -0.1827  0.6527  0.0031
  164SAPE   H2R18334   2.123   5.215   2.937  1.2769  1.5856 -0.8685
  164SAPE   H2S18335   2.050   5.054   2.866  0.7139 -0.1563  0.5251
  164SAPE    C318336   1.903   5.422   2.624  0.1749 -0.2978  0.2897
  164SAPE    HX18337   1.849   5.463   2.536 -0.3806  0.9389  1.1758
  164SAPE    HY18338   1.993   5.485   2.636  0.5710 -0.8388  0.2028
  164SAPE   O3118339   1.822   5.418   2.741  0.0609 -0.2188 -0.1248
  164SAPE   C3118340   1.757   5.534   2.763  1.0266 -0.1593 -0.3886
  164SAPE   O3218341   1.760   5.629   2.690 -0.4679 -0.5604 -0.0343
  164SAPE   C3218342   1.686   5.535   2.898  0.4551 -0.4327 -0.0182
  164SAPE   H2X18343   1.690   5.635   2.946 -0.2471 -0.2654 -0.2965
  164SAPE   H2Y18344   1.744   5.471   2.967  0.5697 -0.0184  0.2720
  164SAPE   C2318345   2.259   5.060   2.858 -0.4661  0.4260 -0.3505
  164SAPE   H3R18346   2.275   4.997   2.768  1.7033 -0.3710  0.5289
  164SAPE   H3S18347   2.249   4.980   2.935 -1.6475 -0.4347 -1.3614
  164SAPE   C2418348   2.384   5.143   2.885  0.1913 -0.8441  0.3730
  164SAPE   H4R18349   2.366   5.192   2.983 -0.2610 -1.6031  0.6762
  164SAPE   H4S18350   2.397   5.222   2.807  1.8071 -0.4608  0.9785
  164SAPE   C2518351   2.510   5.059   2.905  0.4981  0.4314  0.4966
  164SAPE   H5R18352   2.556   5.008   2.819  1.9126 -0.6659  1.8389
  164SAPE   C2618353   2.556   5.016   3.023 -0.7734  0.1008 -0.6062
  164SAPE   H6R18354   2.651   4.961   3.010 -0.2025  1.3797 -2.1627
  164SAPE   C2718355   2.506   5.046   3.167 -0.0242 -0.4407 -0.2804
  164SAPE   H7R18356   2.430   4.972   3.201 -1.5512  0.8608 -0.7201
  164SAPE   H7S18357   2.449   5.142   3.162 -0.5279 -0.6528  1.1076
  164SAPE   C2818358   2.625   5.068   3.260 -1.1296  0.8759 -0.1351
  164SAPE   H8R18359   2.719   5.107   3.219  0.2366 -1.6411  0.3707
  164SAPE   C2918360   2.636   5.024   3.388 -0.4475 -0.3042 -0.0236
  164SAPE   H9R18361   2.726   5.053   3.444 -1.1916  1.5241  0.3093
  164SAPE  C21018362   2.523   4.965   3.476 -0.5844  0.5115 -0.0603
  164SAPE  H10R18363   2.434   4.947   3.411  0.0521  0.1671 -0.8606
  164SAPE  H10S18364   2.489   5.042   3.548 -0.0195 -0.6809  1.5414
  164SAPE  C21118365   2.548   4.835   3.551  0.1445 -0.9845  0.0817
  164SAPE  H11R18366   2.492   4.748   3.514  0.7466 -2.0678  1.6361
  164SAPE  C21218367   2.635   4.811   3.647  0.1394 -0.0485  0.1549
  164SAPE  H12R18368   2.625   4.713   3.698  0.1632 -1.0395 -1.6521
  164SAPE  C21318369   2.727   4.894   3.718  0.2477 -0.1270  0.5007
  164SAPE  H13R18370   2.759   4.967   3.641 -2.1887 -3.7550 -4.4914
  164SAPE  H13S18371   2.810   4.830   3.755 -0.5230 -1.2366  0.3651
  164SAPE  C21418372   2.663   4.970   3.830  0.6056 -0.2485  0.0014
  164SAPE  H14R18373   2.558   4.997   3.808 -0.2163 -2.3504  1.0301
  164SAPE  C21518374   2.712   4.999   3.949 -0.4861  0.2094  0.6992
  164SAPE  H15R18375   2.646   5.046   4.024  0.0269 -0.7340  1.7587
  164SAPE  C21618376   2.851   4.963   4.005  0.8908  0.5539  0.4198
  164SAPE  H16R18377   2.896   5.058   4.040 -1.4180  0.7684  3.2147
  164SAPE  H16S18378   2.912   4.931   3.919 -2.2184 -1.3231 -1.2988
  164SAPE  C21718379   2.858   4.861   4.119  0.0440 -0.2108  0.2309
  164SAPE  H17R18380   2.957   4.851   4.169  0.0268 -1.5759  0.0323
  164SAPE  H17S18381   2.828   4.758   4.092 -2.0972 -0.0990  1.8914
  164SAPE  C21818382   2.774   4.915   4.233  0.3131 -0.3424 -0.1878
  164SAPE  H18R18383   2.668   4.918   4.198 -0.0932 -1.3795  0.8780
  164SAPE  H18S18384   2.794   5.022   4.257 -0.6339  0.0320 -0.9587
  164SAPE  C21918385   2.781   4.828   4.357  0.1094 -0.8672 -0.1318
  164SAPE  H19R18386   2.754   4.726   4.322 -1.0259 -1.3822  2.0689
  164SAPE  H19S18387   2.709   4.858   4.436 -0.0503  0.5076 -0.7687
  164SAPE  C22018388   2.917   4.821   4.427  0.4159 -0.5463 -0.2217
  164SAPE  H20R18389   3.002   4.794   4.360  0.8420 -0.1849  0.1645
  164SAPE  H20S18390   2.909   4.748   4.510 -0.5022 -0.2726 -0.0620
  164SAPE  H20T18391   2.936   4.919   4.477  0.5279 -0.1882 -0.9467
  164SAPE   C3318392   1.542   5.472   2.889 -0.3726 -0.4913 -0.5965
  164SAPE   H3X18393   1.551   5.382   2.825  1.2934 -0.4622 -0.4554
  164SAPE   H3Y18394   1.479   5.540   2.828 -0.0218  0.0713 -0.3448
  164SAPE   C3418395   1.470   5.446   3.024  0.4380  0.0651  0.0123
  164SAPE   H4X18396   1.455   5.537   3.086 -2.2053 -2.6034  3.7408
  164SAPE   H4Y18397   1.536   5.378   3.082  0.5327  1.0338  1.0891
  164SAPE   C3518398   1.337   5.369   3.006 -0.3046  0.0162  0.2078
  164SAPE   H5X18399   1.359   5.271   2.957  0.4665  1.5717 -2.8305
  164SAPE   H5Y18400   1.266   5.426   2.943  0.0320  3.9222  3.0787
  164SAPE   C3618401   1.257   5.332   3.127 -0.0411  0.1158  0.7457
  164SAPE   H6X18402   1.312   5.263   3.195 -1.4142 -1.0841  0.6864
  164SAPE   H6Y18403   1.168   5.274   3.094  0.4424 -1.0331  1.3764
  164SAPE   C3718404   1.199   5.449   3.203 -0.0125  0.4619  0.2421
  164SAPE   H7X18405   1.169   5.524   3.127 -1.0577  0.2130  0.3943
  164SAPE   H7Y18406   1.271   5.485   3.280 -0.0576  0.5942  0.2225
  164SAPE   C3818407   1.071   5.407   3.281 -0.7870  0.1558 -0.4528
  164SAPE   H8X18408   0.988   5.374   3.215 -1.5247 -1.8477  1.3386
  164SAPE   H8Y18409   1.035   5.493   3.341 -0.7938  1.4071 -2.1789
  164SAPE   C3918410   1.117   5.296   3.390 -0.4863  0.7559  0.5996
  164SAPE   H9X18411   1.218   5.323   3.428  0.7681  0.7305 -2.4801
  164SAPE   H9Y18412   1.137   5.204   3.332 -1.1690  1.1726 -0.3272
  164SAPE  C31018413   1.009   5.273   3.497 -0.7240 -0.2769  0.0262
  164SAPE  H10X18414   0.911   5.289   3.446 -0.5210  0.2295 -0.2144
  164SAPE  H10Y18415   1.004   5.353   3.574 -0.9131 -1.8523  1.7298
  164SAPE  C31118416   1.016   5.134   3.570  0.0893 -0.5254  0.5979
  164SAPE  H11X18417   1.119   5.117   3.608  0.3897 -1.6916 -0.6552
  164SAPE  H11Y18418   0.982   5.052   3.503 -2.2074 -1.1356  2.3684
  164SAPE  C31218419   0.930   5.137   3.699 -0.4476  0.1446  0.5263
  164SAPE  H12X18420   0.821   5.129   3.680 -0.2503 -2.0497  0.0783
  164SAPE  H12Y18421   0.931   5.244   3.729 -1.8200  0.1873  0.4695
  164SAPE  C31318422   0.982   5.045   3.814 -0.2368 -0.4769  0.0688
  164SAPE  H13X18423   1.086   5.076   3.839  0.0445  0.6256 -2.2207
  164SAPE  H13Y18424   0.973   4.936   3.799  6.0909 -1.1124 -2.2236
  164SAPE  C31418425   0.920   5.089   3.951  0.8772 -0.3292  0.2204
  164SAPE  H14X18426   0.811   5.069   3.947  0.7224  0.5513 -0.3245
  164SAPE  H14Y18427   0.942   5.196   3.970  1.1326 -0.2435 -0.5201
  164SAPE  C31518428   0.986   5.010   4.069 -0.9622 -0.4254  0.9340
  164SAPE  H15X18429   1.097   5.015   4.063 -0.8458  0.0252  2.7951
  164SAPE  H15Y18430   0.950   4.906   4.054 -0.4421 -0.3754 -0.8502
  164SAPE  C31618431   0.962   5.067   4.208 -0.3473  0.7676  0.1022
  164SAPE  H16X18432   0.935   4.995   4.288  0.7017  1.4317  1.0949
  164SAPE  H16Y18433   0.886   5.147   4.219 -0.5757  0.3402  1.8091
  164SAPE  C31718434   1.086   5.137   4.267 -0.0384 -0.1580  1.0316
  164SAPE  H17X18435   1.108   5.236   4.220  1.6784 -1.6402 -1.5649
  164SAPE  H17Y18436   1.178   5.079   4.243  0.0952  0.9614 -1.5024
  164SAPE  C31818437   1.072   5.181   4.408 -0.3487  0.0450  0.1819
  164SAPE  H18X18438   0.991   5.257   4.412  1.0143  1.6228 -0.9457
  164SAPE  H18Y18439   1.170   5.207   4.453 -1.0163  1.1161  1.0786
  164SAPE  H18Z18440   1.038   5.088   4.458 -0.7568 -0.3417 -0.7944
  165SAPE     N18441   0.716   0.643   2.519  0.0338 -0.7793 -0.2863
  165SAPE   HN118442   0.725   0.726   2.581 -2.3672 -1.2413  0.8112
  165SAPE   HN218443   0.624   0.603   2.548  0.0302  0.8993  2.3434
  165SAPE   HN318444   0.785   0.570   2.544 -0.2671 -0.8365  0.4061
  165SAPE   C1218445   0.708   0.668   2.369 -0.6621  0.0517  0.1488
  165SAPE  H12A18446   0.605   0.697   2.338  0.3062  3.7052 -0.1011
  165SAPE  H12B18447   0.732   0.566   2.331  3.3908  0.6218  0.7849
  165SAPE   C1118448   0.807   0.786   2.329 -0.4056  0.5865  0.3181
  165SAPE  H11A18449   0.778   0.881   2.379  2.5134  1.8753 -0.2249
  165SAPE  H11B18450   0.798   0.795   2.218 -2.3562 -1.3594  0.2510
  165SAPE     P18451   1.044   0.705   2.281 -0.3582 -0.1395  0.3428
  165SAPE   O1318452   0.984   0.585   2.204  0.2977  0.5757 -0.0558
  165SAPE   O1418453   1.095   0.815   2.191 -0.2459 -0.0636  0.2268
  165SAPE   O1218454   0.937   0.754   2.379  0.6541 -0.3571 -0.7930
  165SAPE   O1118455   1.157   0.651   2.386  0.0276  0.7686  0.2583
  165SAPE    C118456   1.234   0.727   2.478  0.2441 -0.4627 -0.3848
  165SAPE    HA18457   1.339   0.692   2.490  0.7703  1.3949  0.8471
  165SAPE    HB18458   1.250   0.832   2.446 -0.4071 -0.7201 -1.5969
  165SAPE    C218459   1.168   0.728   2.619  0.2367  0.3233  0.4809
  165SAPE    HS18460   1.090   0.805   2.634 -0.3581 -0.0569 -0.5385
  165SAPE   O2118461   1.283   0.757   2.700  0.2684  0.4918  0.2453
  165SAPE   C2118462   1.293   0.881   2.743 -0.1049 -0.1965 -0.1856
  165SAPE   O2218463   1.219   0.973   2.713 -0.4381  0.0361 -0.5106
  165SAPE   C2218464   1.413   0.893   2.838 -0.4210 -0.1358  0.3849
  165SAPE   H2R18465   1.478   0.803   2.836 -1.1235 -0.6376 -1.2265
  165SAPE   H2S18466   1.468   0.981   2.799 -0.4876 -0.8793 -1.4903
  165SAPE    C318467   1.115   0.592   2.657  0.3165  0.4523 -0.3209
  165SAPE    HX18468   1.204   0.527   2.669  0.8323  1.5081  2.2257
  165SAPE    HY18469   1.051   0.564   2.570 -0.9176 -3.1198  1.5354
  165SAPE   O3118470   1.033   0.596   2.779 -0.0258  0.1207  0.7628
  165SAPE   C3118471   1.090   0.583   2.890 -0.4806 -0.9903 -0.3254
  165SAPE   O3218472   1.216   0.576   2.908  0.7979  0.3377  0.2932
  165SAPE   C3218473   0.984   0.588   3.003  0.2907  0.6706  0.2547
  165SAPE   H2X18474   0.908   0.519   2.960  0.6982  0.2557  0.1876
  165SAPE   H2Y18475   0.929   0.684   3.004 -1.8097 -0.4392 -1.4235
  165SAPE   C2318476   1.362   0.920   2.981 -0.1999  0.4613 -0.5373
  165SAPE   H3R18477   1.258   0.886   3.002  0.2818 -0.3628  0.6101
  165SAPE   H3S18478   1.375   1.030   2.986  0.2201  0.4572 -1.2954
  165SAPE   C2418479   1.457   0.869   3.090 -0.2275  0.5595 -0.3263
  165SAPE   H4R18480   1.417   0.922   3.179 -1.3710  0.2870 -0.6636
  165SAPE   H4S18481   1.553   0.922   3.070 -0.1270 -0.3659 -2.6294
  165SAPE   C2518482   1.461   0.719   3.104 -0.1091  0.1406 -0.1621
  165SAPE   H5R18483   1.363   0.670   3.090  0.1343 -0.2934 -0.3831
  165SAPE   C2618484   1.559   0.638   3.153 -0.7070 -0.2347  1.3815
  165SAPE   H6R18485   1.552   0.529   3.141  1.7191 -0.4008  0.9070
  165SAPE   C2718486   1.694   0.687   3.195 -0.4818  0.8119  1.1309
  165SAPE   H7R18487   1.691   0.798   3.197 -1.9897  0.8060  0.9868
  165SAPE   H7S18488   1.766   0.656   3.117  0.4054  0.1862  2.1738
  165SAPE   C2818489   1.727   0.629   3.339 -0.2013 -0.5051 -0.5147
  165SAPE   H8R18490   1.732   0.521   3.354  1.5375 -0.1063  2.9011
  165SAPE   C2918491   1.753   0.704   3.449 -0.6335  0.2759 -0.5450
  165SAPE   H9R18492   1.771   0.647   3.542 -0.8480 -1.0594 -1.2961
  165SAPE  C21018493   1.762   0.854   3.454  0.2025  0.1003  0.0437
  165SAPE  H10R18494   1.789   0.891   3.353  2.1233 -0.6363  0.2480
  165SAPE  H10S18495   1.852   0.881   3.514 -1.1280  3.5324  0.7127
  165SAPE  C21118496   1.632   0.914   3.504 -0.0937  0.1254 -0.2253
  165SAPE  H11R18497   1.564   0.956   3.428 -2.7435 -2.5342  0.4557
  165SAPE  C21218498   1.595   0.928   3.630  0.2080 -0.2958  0.0678
  165SAPE  H12R18499   1.513   0.998   3.652  0.3398  1.0718 -3.2738
  165SAPE  C21318500   1.670   0.878   3.753 -0.2267  0.0831  0.5205
  165SAPE  H13R18501   1.695   0.974   3.804  0.0883  0.4001 -0.2159
  165SAPE  H13S18502   1.764   0.834   3.714  0.0368 -0.1475  1.3986
  165SAPE  C21418503   1.599   0.780   3.844  0.0772 -0.1880 -0.3517
  165SAPE  H14R18504   1.589   0.678   3.804 -0.0506 -0.9299  1.5143
  165SAPE  C21518505   1.550   0.814   3.966 -0.5461  0.2537 -0.0961
  165SAPE  H15R18506   1.522   0.732   4.034 -3.2629 -0.5500 -2.0028
  165SAPE  C21618507   1.567   0.949   4.032  0.6994  0.2890  0.0426
  165SAPE  H16R18508   1.478   0.957   4.099 -0.0600 -2.2117 -0.5378
  165SAPE  H16S18509   1.567   1.034   3.962  0.0841  0.3409  0.0978
  165SAPE  C21718510   1.691   0.979   4.127  0.6274  0.4160  0.4289
  165SAPE  H17R18511   1.672   1.082   4.164  0.2715  0.7514 -0.6521
  165SAPE  H17S18512   1.789   0.974   4.075  0.7972 -1.3051  0.8704
  165SAPE  C21818513   1.703   0.890   4.248 -1.1782 -0.0978  0.4868
  165SAPE  H18R18514   1.734   0.788   4.219  0.6887  0.8032 -0.8947
  165SAPE  H18S18515   1.599   0.878   4.288 -0.4490 -3.0183  1.7811
  165SAPE  C21918516   1.806   0.951   4.351 -0.7658  0.4426 -0.1805
  165SAPE  H19R18517   1.775   1.054   4.376  1.2069  1.0819 -0.2422
  165SAPE  H19S18518   1.905   0.960   4.301 -1.4891  1.5539 -1.4959
  165SAPE  C22018519   1.804   0.879   4.488  0.3627 -0.3534  0.1824
  165SAPE  H20R18520   1.818   0.769   4.476  2.6408  0.1749 -3.0225
  165SAPE  H20S18521   1.698   0.880   4.523  1.1776 -1.9630  3.1035
  165SAPE  H20T18522   1.873   0.921   4.565 -1.3915  3.3215 -0.0415
  165SAPE   C3318523   1.038   0.547   3.142  0.2066 -0.5935 -0.0332
  165SAPE   H3X18524   1.127   0.480   3.152  0.3954 -0.1153  1.9177
  165SAPE   H3Y18525   0.958   0.500   3.203 -1.6609  1.0728 -1.0762
  165SAPE   C3418526   1.076   0.670   3.215 -0.4166 -0.2080 -0.2101
  165SAPE   H4X18527   1.008   0.755   3.196  0.3955  0.7761  1.0465
  165SAPE   H4Y18528   1.175   0.699   3.173 -0.0753  0.7444  1.1864
  165SAPE   C3518529   1.117   0.672   3.359 -0.2016 -0.2481  0.2960
  165SAPE   H5X18530   1.192   0.596   3.388 -1.1414 -1.0558  0.6933
  165SAPE   H5Y18531   1.025   0.657   3.420  0.8513 -0.9840  1.7635
  165SAPE   C3618532   1.174   0.809   3.398 -0.2812  0.2471 -1.3782
  165SAPE   H6X18533   1.100   0.891   3.379 -0.8925  0.2651  0.8517
  165SAPE   H6Y18534   1.264   0.836   3.338 -0.4578  2.0617 -0.8962
  165SAPE   C3718535   1.230   0.818   3.540 -0.4419 -0.3738  0.4539
  165SAPE   H7X18536   1.281   0.917   3.546 -1.5349  0.2053  0.5644
  165SAPE   H7Y18537   1.301   0.735   3.556 -0.6300 -0.5912  0.1726
  165SAPE   C3818538   1.122   0.786   3.647  0.5738 -0.5911  0.1076
  165SAPE   H8X18539   1.067   0.692   3.624 -2.0846  0.8953  0.0061
  165SAPE   H8Y18540   1.048   0.865   3.621  1.8161 -0.2495 -2.8935
  165SAPE   C3918541   1.175   0.797   3.790  0.7814 -0.0882  0.0731
  165SAPE   H9X18542   1.216   0.900   3.796 -0.3301  0.3242  0.9442
  165SAPE   H9Y18543   1.251   0.716   3.798 -0.6115 -1.3924  0.6976
  165SAPE  C31018544   1.068   0.767   3.901 -0.1087 -0.1251 -0.0096
  165SAPE  H10X18545   1.009   0.681   3.863 -1.8907  0.9180  0.2587
  165SAPE  H10Y18546   1.008   0.860   3.916  0.8133  0.4396  0.2640
  165SAPE  C31118547   1.153   0.727   4.024  0.3015 -0.6742 -0.2478
  165SAPE  H11X18548   1.223   0.808   4.052 -0.3175 -0.0748 -0.4179
  165SAPE  H11Y18549   1.202   0.631   3.998 -0.1963 -0.3556 -2.5656
  165SAPE  C31218550   1.064   0.710   4.151 -0.3377  0.4040  0.1926
  165SAPE  H12X18551   1.013   0.611   4.154 -0.3800  0.4490  1.7000
  165SAPE  H12Y18552   0.982   0.784   4.159  0.0814  0.6587  4.9073
  165SAPE  C31318553   1.142   0.727   4.279  0.5263  0.6033  0.4934
  165SAPE  H13X18554   1.190   0.828   4.281 -0.3437  1.1019 -1.5933
  165SAPE  H13Y18555   1.233   0.664   4.284  0.7349  0.9446  1.3968
  165SAPE  C31418556   1.059   0.697   4.409  0.2005 -0.3592  0.2728
  165SAPE  H14X18557   0.981   0.619   4.391 -2.0939  1.9056 -0.2621
  165SAPE  H14Y18558   0.996   0.788   4.425 -0.1975  0.7353 -5.5165
  165SAPE  C31518559   1.141   0.673   4.535  0.0932  0.0261 -1.1008
  165SAPE  H15X18560   1.248   0.677   4.506  0.0743  1.8299 -1.0413
  165SAPE  H15Y18561   1.129   0.565   4.557  2.7132 -0.4542 -1.6544
  165SAPE  C31618562   1.119   0.776   4.654  0.4586  0.3674  0.2569
  165SAPE  H16X18563   1.027   0.748   4.710  1.3456 -0.3313  1.4324
  165SAPE  H16Y18564   1.104   0.880   4.620 -0.3564  0.1604 -0.0253
  165SAPE  C31718565   1.237   0.780   4.750  0.5185  0.4298  0.4819
  165SAPE  H17X18566   1.322   0.827   4.697 -0.1583 -0.2278 -1.2534
  165SAPE  H17Y18567   1.261   0.672   4.764  1.0866  0.1929 -1.9402
  165SAPE  C31818568   1.219   0.840   4.898  0.2435  0.1446  0.4659
  165SAPE  H18X18569   1.319   0.856   4.943  0.4113 -0.2988  0.2573
  165SAPE  H18Y18570   1.163   0.772   4.965  1.9809 -1.8833 -0.0293
  165SAPE  H18Z18571   1.162   0.935   4.903  1.5342  0.9561  0.1935
  166SAPE     N18572   2.289   5.507   2.046  0.3119  0.5746 -0.4417
  166SAPE   HN118573   2.231   5.582   2.003  1.4629  0.3713 -2.4709
  166SAPE   HN218574   2.313   5.524   2.146 -1.6659 -0.0947  0.1974
  166SAPE   HN318575   2.377   5.524   1.993  0.3074  5.5534  0.5995
  166SAPE   C1218576   2.234   5.372   2.022 -0.1923 -0.1100 -0.2779
  166SAPE  H12A18577   2.190   5.365   1.920  1.8118  0.2355 -1.2280
  166SAPE  H12B18578   2.156   5.348   2.097  2.1767 -1.2326  2.0008
  166SAPE   C1118579   2.342   5.263   2.045  0.1535  0.8049  0.1312
  166SAPE  H11A18580   2.423   5.273   1.970  2.0799  1.5408  2.2110
  166SAPE  H11B18581   2.284   5.171   2.024 -1.0539  1.3086  1.0742
  166SAPE     P18582   2.504   5.185   2.223 -0.1241  0.3359 -0.1554
  166SAPE   O1318583   2.464   5.040   2.197  0.2154 -0.3271  0.6284
  166SAPE   O1418584   2.634   5.244   2.180  0.0313 -0.3135 -0.1087
  166SAPE   O1218585   2.392   5.281   2.174  0.4952  0.2452  0.6250
  166SAPE   O1118586   2.478   5.205   2.379  0.0978  0.5419  0.2362
  166SAPE    C118587   2.530   5.327   2.435  0.7759  0.2867 -0.7363
  166SAPE    HA18588   2.499   5.416   2.376 -2.6929  2.1517  3.3484
  166SAPE    HB18589   2.489   5.334   2.538  1.7103  1.3710 -0.4159
  166SAPE    C218590   2.680   5.319   2.474 -0.1044  0.2502  0.2917
  166SAPE    HS18591   2.734   5.290   2.382 -0.5428  0.6023 -0.0890
  166SAPE   O2118592   2.692   5.223   2.578 -0.2500  0.4007  0.1971
  166SAPE   C2118593   2.812   5.186   2.609  0.2972  0.9125 -0.2848
  166SAPE   O2218594   2.912   5.221   2.549 -0.2496  0.1918 -0.4891
  166SAPE   C2218595   2.808   5.105   2.737  0.0608 -0.1049  0.1243
  166SAPE   H2R18596   2.762   5.169   2.815 -0.6422 -0.4892  0.0345
  166SAPE   H2S18597   2.740   5.018   2.724 -1.7018  0.9244  1.8630
  166SAPE    C318598   2.745   5.452   2.534  1.0364  0.0013  1.0440
  166SAPE    HX18599   2.727   5.519   2.447  1.4748  0.0052  0.9552
  166SAPE    HY18600   2.854   5.455   2.554  1.7960  1.6682 -2.5049
  166SAPE   O3118601   2.667   5.514   2.636 -0.1502 -0.0336 -0.1639
  166SAPE   C3118602   2.705   5.487   2.763 -0.4853  0.4730 -0.1702
  166SAPE   O3218603   2.796   5.412   2.791 -0.0004  0.5436  0.1518
  166SAPE   C3218604   2.609   5.552   2.863 -0.0417  0.3890 -0.5424
  166SAPE   H2X18605   2.511   5.543   2.813 -0.6861  0.9863  0.5742
  166SAPE   H2Y18606   2.636   5.658   2.883 -1.3858  0.7038 -0.3029
  166SAPE   C2318607   2.940   5.047   2.773 -0.6068  0.1940  0.2137
  166SAPE   H3R18608   3.026   5.115   2.754 -2.2527  2.1722 -0.5601
  166SAPE   H3S18609   2.965   4.957   2.713 -3.6496 -0.8753  0.3961
  166SAPE   C2418610   2.945   5.001   2.918  0.6813  0.3981 -0.5533
  166SAPE   H4R18611   3.024   4.926   2.937 -0.0058 -0.2289 -0.1305
  166SAPE   H4S18612   2.848   4.953   2.942  1.0047 -0.3059 -0.6478
  166SAPE   C2518613   2.950   5.120   3.007  0.3017  0.5138 -0.0218
  166SAPE   H5R18614   2.932   5.216   2.957  3.4407  0.7532 -0.9382
  166SAPE   C2618615   3.015   5.116   3.126  0.0472 -0.0398  0.7104
  166SAPE   H6R18616   3.030   5.209   3.182 -0.5831  0.1295  0.6020
  166SAPE   C2718617   3.076   4.996   3.192  0.5831  0.4119  0.5019
  166SAPE   H7R18618   3.163   5.029   3.253  0.7563  0.8685  0.0154
  166SAPE   H7S18619   3.119   4.922   3.121 -0.6512 -1.8016  1.9556
  166SAPE   C2818620   2.983   4.939   3.291 -0.9097 -0.3261 -0.0185
  166SAPE   H8R18621   2.899   4.889   3.240  0.8866  0.0818 -3.7089
  166SAPE   C2918622   2.990   4.946   3.424  0.5937  0.1153  1.1159
  166SAPE   H9R18623   2.912   4.897   3.485 -1.9598  2.6950  0.1335
  166SAPE  C21018624   3.084   5.025   3.519 -0.1522 -0.1059  0.0414
  166SAPE  H10R18625   3.015   5.106   3.551 -0.2652  0.9169 -2.5605
  166SAPE  H10S18626   3.176   5.054   3.464  0.0228 -1.5961 -0.4996
  166SAPE  C21118627   3.131   4.946   3.639 -0.0644 -0.3111  0.6178
  166SAPE  H11R18628   3.100   4.841   3.641  1.4916 -0.8277 -0.3063
  166SAPE  C21218629   3.207   4.985   3.743  0.1927 -0.5709  0.3325
  166SAPE  H12R18630   3.217   4.914   3.826  2.1992  0.2611  0.8462
  166SAPE  C21318631   3.268   5.120   3.761  0.1516 -1.1944 -0.9500
  166SAPE  H13R18632   3.231   5.167   3.854  0.4529 -0.2227 -1.3069
  166SAPE  H13S18633   3.232   5.196   3.689 -2.4681  1.3079  2.6382
  166SAPE  C21418634   3.419   5.116   3.764  0.8112  0.7345  0.0846
  166SAPE  H14R18635   3.464   5.134   3.665 -1.7785 -0.0004 -1.3008
  166SAPE  C21518636   3.509   5.096   3.861 -0.4035  0.1848  0.2688
  166SAPE  H15R18637   3.608   5.078   3.817 -1.8001 -2.5926 -2.1442
  166SAPE  C21618638   3.476   5.061   4.005 -1.0813  0.5249 -0.1550
  166SAPE  H16R18639   3.376   5.020   4.027 -0.0879 -1.8067  0.3243
  166SAPE  H16S18640   3.484   5.161   4.053  0.5840  0.9616 -1.2505
  166SAPE  C21718641   3.582   4.960   4.047 -0.3842 -0.0103 -0.4203
  166SAPE  H17R18642   3.680   5.010   4.036  0.2111 -0.9945  0.2482
  166SAPE  H17S18643   3.574   4.871   3.981 -0.2508 -0.3939  0.0697
  166SAPE  C21818644   3.568   4.921   4.191  0.1199 -0.2296 -0.2351
  166SAPE  H18R18645   3.480   4.855   4.204 -0.8807  1.2501  0.8898
  166SAPE  H18S18646   3.548   5.017   4.243 -1.1001 -1.1921  1.1264
  166SAPE  C21918647   3.697   4.865   4.246 -0.7625 -0.4296  0.0195
  166SAPE  H19R18648   3.786   4.931   4.245  0.7793 -2.4297 -0.4293
  166SAPE  H19S18649   3.727   4.777   4.185  1.6179 -0.5636  1.2671
  166SAPE  C22018650   3.673   4.817   4.388  0.3409  0.0669 -0.4241
  166SAPE  H20R18651   3.610   4.727   4.400  0.4499  0.2098  1.6965
  166SAPE  H20S18652   3.631   4.900   4.449  0.4028 -0.8712  0.9604
  166SAPE  H20T18653   3.765   4.789   4.444  1.1618  0.0633 -1.7322
  166SAPE   C3318654   2.607   5.471   3.000  0.7846  0.0457  0.5475
  166SAPE   H3X18655   2.579   5.367   2.971 -0.6424  0.4975  0.1709
  166SAPE   H3Y18656   2.509   5.502   3.043 -1.4314 -2.1715 -2.4906
  166SAPE   C3418657   2.721   5.499   3.094 -0.2290  0.2668  0.4264
  166SAPE   H4X18658   2.731   5.610   3.103  0.4451  0.1064  1.8027
  166SAPE   H4Y18659   2.824   5.469   3.063 -0.1264  0.1622  0.8734
  166SAPE   C3518660   2.702   5.444   3.235  0.4473 -0.8697  0.1410
  166SAPE   H5X18661   2.682   5.336   3.214 -3.0124 -0.0522 -1.5987
  166SAPE   H5Y18662   2.609   5.480   3.284  2.0708  1.3049  1.8163
  166SAPE   C3618663   2.810   5.477   3.340  0.3157 -0.1772  0.0687
  166SAPE   H6X18664   2.801   5.586   3.356 -2.0887 -0.1207 -1.1786
  166SAPE   H6Y18665   2.911   5.453   3.302 -0.1594 -2.7672  0.2600
  166SAPE   C3718666   2.801   5.402   3.474 -0.6535 -0.8020 -0.1954
  166SAPE   H7X18667   2.879   5.453   3.535  1.5686 -1.1145 -2.6085
  166SAPE   H7Y18668   2.830   5.296   3.460 -0.4125 -0.5766 -1.4983
  166SAPE   C3818669   2.662   5.399   3.533  0.2398 -0.3739  0.5688
  166SAPE   H8X18670   2.607   5.334   3.461 -1.0996  0.4819  0.8041
  166SAPE   H8Y18671   2.610   5.496   3.540  1.2780  0.1634  1.0834
  166SAPE   C3918672   2.655   5.330   3.671 -0.1981 -0.6465 -0.0559
  166SAPE   H9X18673   2.735   5.254   3.659  1.3186  0.8503  0.2027
  166SAPE   H9Y18674   2.560   5.277   3.693 -1.4124  2.0659  1.6996
  166SAPE  C31018675   2.684   5.411   3.798 -0.5141 -0.5091 -0.2411
  166SAPE  H10X18676   2.602   5.484   3.814  0.6227  1.1291 -1.5151
  166SAPE  H10Y18677   2.782   5.464   3.791 -0.8062  0.0268 -0.3443
  166SAPE  C31118678   2.676   5.333   3.932 -0.2170  0.3897  0.3948
  166SAPE  H11X18679   2.761   5.261   3.934 -0.7731 -0.3832  4.5898
  166SAPE  H11Y18680   2.582   5.274   3.943 -0.1835  0.2905  0.1632
  166SAPE  C31218681   2.675   5.428   4.048 -0.6768  0.4529 -0.1133
  166SAPE  H12X18682   2.582   5.488   4.057  0.0607  2.4975 -4.1962
  166SAPE  H12Y18683   2.760   5.499   4.037  1.1073 -0.8101  3.6986
  166SAPE  C31318684   2.705   5.350   4.176  0.4750  0.6393 -0.3724
  166SAPE  H13X18685   2.808   5.309   4.184  0.1727 -0.1812 -0.5935
  166SAPE  H13Y18686   2.645   5.257   4.176 -1.8214  2.0311 -0.8551
  166SAPE  C31418687   2.669   5.434   4.305 -0.4351  0.2796  0.6734
  166SAPE  H14X18688   2.568   5.478   4.293  0.0417  0.9608 -1.2811
  166SAPE  H14Y18689   2.738   5.522   4.305  0.6026 -0.5209  1.0081
  166SAPE  C31518690   2.691   5.358   4.435 -0.4586 -0.3070 -0.1356
  166SAPE  H15X18691   2.606   5.287   4.443 -1.3338  0.8945  2.4945
  166SAPE  H15Y18692   2.682   5.432   4.517  0.7738 -0.4361  0.1390
  166SAPE  C31618693   2.830   5.294   4.461 -0.3022 -0.1739 -0.2939
  166SAPE  H16X18694   2.909   5.372   4.463 -0.6325  0.1639 -0.3492
  166SAPE  H16Y18695   2.856   5.220   4.382 -0.0868 -0.4408  0.0228
  166SAPE  C31718696   2.831   5.229   4.602  0.4861  0.3248 -0.0588
  166SAPE  H17X18697   2.755   5.148   4.601  1.7671 -0.9417  1.1357
  166SAPE  H17Y18698   2.799   5.302   4.679 -0.4695  0.8143 -0.9005
  166SAPE  C31818699   2.960   5.166   4.645 -0.4950 -0.5149 -0.4931
  166SAPE  H18X18700   3.022   5.253   4.677  0.0861 -0.7479 -0.9590
  166SAPE  H18Y18701   3.014   5.115   4.562 -0.6172  0.8928 -1.4859
  166SAPE  H18Z18702   2.943   5.097   4.730 -0.7953  1.4068  1.0584
  167SAPE     N18703   1.890   4.493   2.068  0.4848  0.0092 -0.8707
  167SAPE   HN118704   1.922   4.584   2.107  0.8088 -0.0551 -0.9820
  167SAPE   HN218705   1.895   4.488   1.964 -2.3853 -1.4639 -1.0136
  167SAPE   HN318706   1.794   4.469   2.099 -0.0272  1.4967 -1.2290
  167SAPE   C1218707   1.983   4.384   2.128  0.4158 -0.0095  0.1623
  167SAPE  H12A18708   1.944   4.286   2.091 -0.6526  0.5779 -0.3091
  167SAPE  H12B18709   1.974   4.380   2.238  1.6290  1.5262  0.3450
  167SAPE   C1118710   2.130   4.403   2.072 -0.2153  0.0208 -0.8232
  167SAPE  H11A18711   2.121   4.387   1.963  0.3663 -1.9535 -0.6201
  167SAPE  H11B18712   2.202   4.325   2.104 -2.0179 -0.9124  1.3219
  167SAPE     P18713   2.225   4.577   2.252 -0.0858 -0.0800  0.2870
  167SAPE   O1318714   2.338   4.673   2.253 -0.3599  0.5532  0.4944
  167SAPE   O1418715   2.109   4.609   2.333  0.0117 -0.4973  0.0033
  167SAPE   O1218716   2.183   4.534   2.106 -0.1186  0.0416 -0.1621
  167SAPE   O1118717   2.292   4.443   2.299 -0.5886  0.2190 -0.8856
  167SAPE    C118718   2.243   4.375   2.411 -0.1359 -0.0609  0.2397
  167SAPE    HA18719   2.159   4.425   2.463  0.3765 -0.4699  1.5039
  167SAPE    HB18720   2.208   4.276   2.375 -0.5283  0.0345  0.3582
  167SAPE    C218721   2.350   4.343   2.514 -0.3914 -0.3245 -0.3320
  167SAPE    HS18722   2.296   4.276   2.583  0.1394  0.5207  0.9619
  167SAPE   O2118723   2.384   4.461   2.587 -0.6282  0.2255  0.5385
  167SAPE   C2118724   2.305   4.504   2.680  0.5150 -0.0036 -0.8846
  167SAPE   O2218725   2.190   4.463   2.697  0.1670 -0.6756  0.3801
  167SAPE   C2218726   2.381   4.595   2.775 -0.4187 -0.4215  0.7578
  167SAPE   H2R18727   2.471   4.538   2.806  0.1423 -1.0281 -1.7602
  167SAPE   H2S18728   2.413   4.677   2.707 -0.6150 -1.0651 -0.1324
  167SAPE    C318729   2.477   4.288   2.448  0.0086 -0.4061 -0.3889
  167SAPE    HX18730   2.517   4.365   2.378 -1.3185 -1.2326 -2.1353
  167SAPE    HY18731   2.452   4.199   2.387 -1.2654 -1.2898  1.3528
  167SAPE   O3118732   2.577   4.263   2.547  0.3203 -0.2864 -0.2712
  167SAPE   C3118733   2.634   4.146   2.554  0.4093 -0.1275  0.9870
  167SAPE   O3218734   2.604   4.044   2.492 -0.7461 -0.6349 -0.1803
  167SAPE   C3218735   2.755   4.159   2.633  0.3107 -0.4671 -0.3418
  167SAPE   H2X18736   2.739   4.241   2.706 -2.8356 -0.5554 -0.8091
  167SAPE   H2Y18737   2.841   4.190   2.571  1.2476 -0.4784  0.9066
  167SAPE   C2318738   2.299   4.662   2.886 -0.5282  1.2645 -0.0719
  167SAPE   H3R18739   2.197   4.681   2.846 -1.2585 -1.0940  0.5150
  167SAPE   H3S18740   2.341   4.756   2.929  0.8225  0.0742  1.3249
  167SAPE   C2418741   2.283   4.553   3.001  0.2066 -0.7110  0.4205
  167SAPE   H4R18742   2.344   4.594   3.084  0.3875  1.4411 -0.6989
  167SAPE   H4S18743   2.327   4.458   2.963 -0.7518 -0.9370 -0.1790
  167SAPE   C2518744   2.140   4.517   3.046  0.8197 -0.0923  0.9616
  167SAPE   H5R18745   2.073   4.486   2.965  0.7177  2.7446 -0.1333
  167SAPE   C2618746   2.090   4.534   3.168  0.5945 -0.5102 -0.3384
  167SAPE   H6R18747   1.984   4.518   3.189  1.1235 -1.3837  1.9880
  167SAPE   C2718748   2.172   4.582   3.290 -0.3630 -0.3942 -0.1555
  167SAPE   H7R18749   2.269   4.529   3.276 -0.7440 -0.9173 -0.8945
  167SAPE   H7S18750   2.136   4.541   3.387  1.5205 -0.1122  0.7094
  167SAPE   C2818751   2.187   4.733   3.296  0.3246  0.4801  0.7278
  167SAPE   H8R18752   2.196   4.798   3.207 -0.3379 -0.7147 -0.2304
  167SAPE   C2918753   2.180   4.791   3.419 -0.1296  0.1758  0.5600
  167SAPE   H9R18754   2.193   4.900   3.421 -0.4256  0.4078 -3.0230
  167SAPE  C21018755   2.170   4.737   3.557  0.2124 -0.1221 -0.2569
  167SAPE  H10R18756   2.221   4.640   3.575  0.4998  0.4339  2.3888
  167SAPE  H10S18757   2.065   4.718   3.587  0.3462 -0.5128 -0.0208
  167SAPE  C21118758   2.222   4.816   3.674  0.4698  0.4159 -0.0378
  167SAPE  H11R18759   2.258   4.917   3.649  0.8802  0.7613  1.7731
  167SAPE  C21218760   2.220   4.777   3.807 -0.1036  0.3467 -0.0424
  167SAPE  H12R18761   2.242   4.847   3.889 -1.7032 -1.0500  1.6907
  167SAPE  C21318762   2.168   4.649   3.869 -0.4083  0.4508 -1.0076
  167SAPE  H13R18763   2.193   4.562   3.804  0.4732 -2.2857  2.6643
  167SAPE  H13S18764   2.058   4.654   3.885 -0.3408  1.3731 -0.7774
  167SAPE  C21418765   2.239   4.629   4.005 -0.2444 -0.3895 -0.2622
  167SAPE  H14R18766   2.176   4.613   4.093 -2.2772 -0.1840 -1.6199
  167SAPE  C21518767   2.372   4.614   4.020  0.1597 -0.4288 -0.0571
  167SAPE  H15R18768   2.395   4.607   4.127 -0.4312 -0.7787  0.0505
  167SAPE  C21618769   2.483   4.594   3.917  0.3845  0.6342 -0.4394
  167SAPE  H16R18770   2.538   4.688   3.895 -2.0571  1.5210 -3.4321
  167SAPE  H16S18771   2.450   4.558   3.817 -0.8075 -0.5685  0.3429
  167SAPE  C21718772   2.570   4.463   3.960  0.6104 -0.1030  0.2793
  167SAPE  H17R18773   2.637   4.510   4.036  0.8873 -0.3901  0.2116
  167SAPE  H17S18774   2.624   4.423   3.871 -1.8314 -1.7831 -0.5406
  167SAPE  C21818775   2.507   4.341   4.022  0.9340 -0.4108  0.1004
  167SAPE  H18R18776   2.418   4.324   3.958  1.2405  2.2934 -1.1896
  167SAPE  H18S18777   2.451   4.365   4.115 -2.3676 -1.0527 -1.5902
  167SAPE  C21918778   2.587   4.217   4.034  0.0112 -0.5050  0.6933
  167SAPE  H19R18779   2.517   4.141   4.075 -2.5120  0.5057 -1.4799
  167SAPE  H19S18780   2.662   4.221   4.116  1.4541 -0.4313 -0.5777
  167SAPE  C22018781   2.645   4.156   3.900 -0.7597 -0.9920 -0.8836
  167SAPE  H20R18782   2.709   4.073   3.936 -1.5746  0.1811  4.1587
  167SAPE  H20S18783   2.706   4.220   3.833 -0.8004 -0.2079 -0.1844
  167SAPE  H20T18784   2.567   4.119   3.831  1.3098 -1.6425 -2.9808
  167SAPE   C3318785   2.787   4.020   2.699  0.2317  0.0913  0.8230
  167SAPE   H3X18786   2.852   3.962   2.630 -0.5815 -0.7993  0.7822
  167SAPE   H3Y18787   2.691   3.967   2.720 -0.0616  0.3340  0.1277
  167SAPE   C3418788   2.870   4.035   2.830  0.3913 -0.3056 -0.2032
  167SAPE   H4X18789   2.872   3.936   2.882 -1.6681 -1.8984 -2.8674
  167SAPE   H4Y18790   2.826   4.110   2.899  0.7301  0.6740 -1.0306
  167SAPE   C3518791   3.014   4.077   2.801  0.4011 -0.0485 -0.3398
  167SAPE   H5X18792   3.025   4.153   2.720  0.5183  0.1493 -0.1374
  167SAPE   H5Y18793   3.071   3.988   2.766  0.7504  0.2979 -0.6824
  167SAPE   C3618794   3.087   4.118   2.931  0.9398  0.2412 -0.9831
  167SAPE   H6X18795   3.196   4.119   2.911  1.1829  1.3839  0.2737
  167SAPE   H6Y18796   3.051   4.043   3.005 -1.1742  0.3414 -1.8312
  167SAPE   C3718797   3.042   4.248   2.991 -0.2925 -0.6137  0.1184
  167SAPE   H7X18798   2.939   4.225   3.029 -0.3460 -1.3991 -0.4863
  167SAPE   H7Y18799   3.039   4.325   2.911  0.4373 -3.2093 -2.5644
  167SAPE   C3818800   3.126   4.292   3.109  0.2736 -0.4481  0.3356
  167SAPE   H8X18801   3.094   4.394   3.141 -1.0285 -0.1734 -1.6542
  167SAPE   H8Y18802   3.232   4.306   3.080  0.4717  0.7726  1.5364
  167SAPE   C3918803   3.122   4.204   3.232 -0.3458 -0.3456  0.2790
  167SAPE   H9X18804   3.146   4.101   3.199 -3.6222 -0.7178 -1.3657
  167SAPE   H9Y18805   3.014   4.199   3.258 -0.2825  0.3868  0.7234
  167SAPE  C31018806   3.222   4.249   3.327  0.2076 -0.1435  0.1475
  167SAPE  H10X18807   3.213   4.358   3.343 -0.5966  0.0238 -1.2276
  167SAPE  H10Y18808   3.322   4.233   3.281 -0.2874 -1.2349 -0.5895
  167SAPE  C31118809   3.213   4.174   3.460  0.6598 -0.2668 -0.7584
  167SAPE  H11X18810   3.225   4.065   3.442 -2.0865 -0.5226 -1.4262
  167SAPE  H11Y18811   3.109   4.183   3.497 -0.0343  1.1770 -2.9167
  167SAPE  C31218812   3.305   4.227   3.563  0.2537  0.4186  0.6318
  167SAPE  H12X18813   3.309   4.338   3.571 -0.0210  0.3949  1.1182
  167SAPE  H12Y18814   3.410   4.193   3.550  0.3341  1.4213 -2.1781
  167SAPE  C31318815   3.284   4.161   3.701 -0.4506  0.1224  0.8801
  167SAPE  H13X18816   3.301   4.054   3.677  0.4594  0.5702 -0.6024
  167SAPE  H13Y18817   3.179   4.180   3.734 -0.0889  0.7917  1.6826
  167SAPE  C31418818   3.380   4.215   3.807 -0.4133 -0.4354 -0.0928
  167SAPE  H14X18819   3.348   4.213   3.914  0.4037  0.2149  0.1730
  167SAPE  H14Y18820   3.411   4.321   3.798  0.8546 -0.5185  2.3453
  167SAPE  C31518821   3.518   4.144   3.796 -0.0138 -0.0669  0.5118
  167SAPE  H15X18822   3.563   4.186   3.704 -0.5970  1.9783  1.1183
  167SAPE  H15Y18823   3.505   4.033   3.799 -1.1737  0.0467  3.2128
  167SAPE  C31618824   3.604   4.178   3.914  0.2125 -0.1597 -0.2149
  167SAPE  H16X18825   3.544   4.143   4.000 -0.4354  0.6709 -0.3100
  167SAPE  H16Y18826   3.596   4.288   3.930 -0.9228  0.0510 -1.9194
  167SAPE  C31718827   3.752   4.135   3.912  0.0931 -0.3043 -0.3692
  167SAPE  H17X18828   3.753   4.032   3.955  2.8489  0.2352  1.1336
  167SAPE  H17Y18829   3.804   4.205   3.981  1.5660  1.4059 -3.0489
  167SAPE  C31818830   3.817   4.136   3.772  0.1443  0.0317  0.4115
  167SAPE  H18X18831   3.811   4.237   3.727 -1.0252 -0.1943  0.0024
  167SAPE  H18Y18832   3.776   4.061   3.701 -0.4215 -0.8988  1.6728
  167SAPE  H18Z18833   3.922   4.102   3.778 -0.1393 -1.2101 -1.0210
  168SAPE     N18834   4.990   0.315   1.980  0.0470  0.6703  1.0540
  168SAPE   HN118835   4.986   0.342   1.880 -0.4431 -0.5328  0.7218
  168SAPE   HN218836   5.074   0.355   2.026 -0.0154 -1.1093  2.8361
  168SAPE   HN318837   5.009   0.213   1.972  2.3237  1.1103 -0.1628
  168SAPE   C1218838   4.855   0.331   2.050 -0.5887  0.5764 -0.4741
  168SAPE  H12A18839   4.802   0.424   2.020 -3.1922 -0.7754 -0.3573
  168SAPE  H12B18840   4.881   0.333   2.158  0.2073  3.0477 -0.6666
  168SAPE   C1118841   4.764   0.214   2.023  0.5071  0.3994  0.1414
  168SAPE  H11A18842   4.704   0.231   1.931 -1.0658 -0.1095  1.0385
  168SAPE  H11B18843   4.676   0.207   2.090  0.6806 -0.8872  0.2467
  168SAPE     P18844   4.829  -0.017   2.134  0.1333 -0.7278 -0.1300
  168SAPE   O1318845   4.690  -0.068   2.148 -0.6120  0.2598 -0.0632
  168SAPE   O1418846   4.936  -0.114   2.116  0.1039 -0.1858 -0.0557
  168SAPE   O1218847   4.838   0.089   2.009 -0.4117 -0.3060  0.1504
  168SAPE   O1118848   4.855   0.078   2.254  0.2008  0.0869 -0.4409
  168SAPE    C118849   4.975   0.083   2.331  0.4715  0.2293  0.3647
  168SAPE    HA18850   5.069   0.092   2.271  1.2229  2.0633  1.7273
  168SAPE    HB18851   4.981   0.177   2.390  0.7219 -0.8288  2.0797
  168SAPE    C218852   4.984  -0.031   2.435  0.2898  0.0161  0.4045
  168SAPE    HS18853   4.967  -0.121   2.372 -1.3243 -0.0253  0.8586
  168SAPE   O2118854   4.886  -0.007   2.535 -0.3861 -0.1505  0.5329
  168SAPE   C2118855   4.811  -0.107   2.575  0.0508 -0.0917  0.1226
  168SAPE   O2218856   4.815  -0.217   2.517 -0.2489 -0.2066  0.2607
  168SAPE   C2218857   4.710  -0.067   2.687 -0.6013  0.7992  0.4349
  168SAPE   H2R18858   4.700   0.044   2.679 -0.7407  0.6883 -1.3012
  168SAPE   H2S18859   4.614  -0.114   2.657 -1.6441  2.1186  1.5362
  168SAPE    C318860   5.128  -0.029   2.495  0.2703 -0.2420 -0.0934
  168SAPE    HX18861   5.146   0.076   2.527 -0.2388 -0.8368  2.3258
  168SAPE    HY18862   5.200  -0.051   2.413 -2.6507  0.2621 -3.0532
  168SAPE   O3118863   5.149  -0.122   2.606  0.3266  0.0566  0.3268
  168SAPE   C3118864   5.200  -0.238   2.577 -0.4260  0.2933 -0.2725
  168SAPE   O3218865   5.220  -0.288   2.465 -0.1043  0.1672 -0.1535
  168SAPE   C3218866   5.243  -0.316   2.709  0.7348  0.2410 -0.0239
  168SAPE   H2X18867   5.298  -0.242   2.772  0.1914  1.1086 -0.5559
  168SAPE   H2Y18868   5.313  -0.399   2.684 -0.7111 -0.7358 -1.0084
  168SAPE   C2318869   4.757  -0.087   2.834 -0.6203 -0.0603 -0.4340
  168SAPE   H3R18870   4.781  -0.189   2.868  2.8954  1.6734  3.0821
  168SAPE   H3S18871   4.667  -0.059   2.892 -0.5125 -1.3502  0.3816
  168SAPE   C2418872   4.864   0.013   2.883 -0.2929 -0.1244 -0.0156
  168SAPE   H4R18873   4.852   0.033   2.992  1.9732  0.9730  0.0718
  168SAPE   H4S18874   4.840   0.111   2.836  0.0536  0.1456  0.3642
  168SAPE   C2518875   5.006  -0.012   2.845  1.0938  0.5410 -0.5425
  168SAPE   H5R18876   5.049  -0.112   2.829  1.4088  1.0693 -3.4338
  168SAPE   C2618877   5.094   0.089   2.838  0.7272  0.3900 -0.6078
  168SAPE   H6R18878   5.195   0.066   2.802  0.9198 -2.1017  1.3228
  168SAPE   C2718879   5.077   0.238   2.867 -0.1499  0.2546 -0.3946
  168SAPE   H7R18880   5.147   0.248   2.953  0.1980 -2.3807 -0.2829
  168SAPE   H7S18881   4.973   0.263   2.897  0.0810  0.2616  0.4436
  168SAPE   C2818882   5.112   0.319   2.741  0.2464 -0.1619  0.2964
  168SAPE   H8R18883   5.035   0.342   2.666 -0.2148  0.6332  0.9998
  168SAPE   C2918884   5.235   0.335   2.697 -0.8252 -0.2608 -0.3117
  168SAPE   H9R18885   5.250   0.386   2.601 -0.9776 -0.7392 -0.5884
  168SAPE  C21018886   5.366   0.297   2.769 -0.0530 -0.5596 -0.7103
  168SAPE  H10R18887   5.334   0.274   2.873 -0.0951 -0.9969 -0.8173
  168SAPE  H10S18888   5.428   0.389   2.773  0.2671 -0.7855 -0.3832
  168SAPE  C21118889   5.455   0.200   2.695 -0.2368 -0.1845 -0.2739
  168SAPE  H11R18890   5.436   0.174   2.590 -0.7261 -1.2190  0.0513
  168SAPE  C21218891   5.566   0.139   2.740  0.0389  0.3433  0.4832
  168SAPE  H12R18892   5.624   0.075   2.672  0.3695  1.1814 -0.0379
  168SAPE  C21318893   5.619   0.154   2.879  0.3919  0.4572 -0.4801
  168SAPE  H13R18894   5.549   0.210   2.945 -1.8019 -1.0010 -1.4568
  168SAPE  H13S18895   5.715   0.208   2.890  0.2456  0.9042 -1.3025
  168SAPE  C21418896   5.640   0.028   2.950 -0.3035 -0.2420 -0.0052
  168SAPE  H14R18897   5.720  -0.029   2.899 -0.5114 -0.0827 -0.5150
  168SAPE  C21518898   5.585  -0.013   3.063 -0.1423 -0.7705 -0.4696
  168SAPE  H15R18899   5.617  -0.111   3.102 -1.0182 -0.2305  1.8046
  168SAPE  C21618900   5.485   0.065   3.150 -0.4006 -0.3236 -0.1088
  168SAPE  H16R18901   5.412   0.119   3.085  0.0458 -1.1779 -1.3469
  168SAPE  H16S18902   5.535   0.136   3.219 -1.0077 -0.3377  0.3621
  168SAPE  C21718903   5.411  -0.051   3.222 -0.6721 -0.5393  0.0896
  168SAPE  H17R18904   5.476  -0.110   3.289 -1.7261 -1.1444  0.5969
  168SAPE  H17S18905   5.364  -0.120   3.148 -0.6128 -0.7377  0.2370
  168SAPE  C21818906   5.297   0.013   3.310 -0.5923 -0.4342 -0.0810
  168SAPE  H18R18907   5.330   0.111   3.353 -1.9965  0.0327 -0.0334
  168SAPE  H18S18908   5.281  -0.053   3.398  0.1756  0.1781  0.5387
  168SAPE  C21918909   5.170   0.048   3.233 -0.1063 -0.8920  0.5718
  168SAPE  H19R18910   5.119  -0.050   3.217  0.3050 -0.6537 -2.8690
  168SAPE  H19S18911   5.190   0.085   3.131 -0.6332 -0.3223  0.6700
  168SAPE  C22018912   5.073   0.159   3.280 -0.3067  0.2863 -0.1661
  168SAPE  H20R18913   5.004   0.126   3.361  0.3373 -0.0601  0.2469
  168SAPE  H20S18914   5.003   0.178   3.196  0.2172 -0.7258 -0.8534
  168SAPE  H20T18915   5.121   0.252   3.316  1.2919 -1.5691  2.8983
  168SAPE   C3318916   5.115  -0.377   2.770  0.0817  0.0914  0.5063
  168SAPE   H3X18917   5.102  -0.480   2.729  1.7630  0.3453 -0.7762
  168SAPE   H3Y18918   5.019  -0.333   2.734  2.3201  2.8880 -2.6205
  168SAPE   C3418919   5.124  -0.370   2.922  0.0789 -0.4276 -0.6651
  168SAPE   H4X18920   5.123  -0.265   2.959  2.2693 -0.3794 -0.6189
  168SAPE   H4Y18921   5.225  -0.405   2.954  0.3595  0.0690 -1.0007
  168SAPE   C3518922   5.012  -0.443   3.000 -1.1736  0.5426  0.8751
  168SAPE   H5X18923   5.013  -0.549   2.967 -0.5290  1.1621 -1.2408
  168SAPE   H5Y18924   4.915  -0.399   2.971 -0.2222  1.5117 -1.0341
  168SAPE   C3618925   5.031  -0.411   3.149 -0.3829 -0.1182  0.0170
  168SAPE   H6X18926   5.135  -0.397   3.186  0.8453 -2.5143 -2.1572
  168SAPE   H6Y18927   4.996  -0.501   3.204  1.5478 -1.1279 -0.3168
  168SAPE   C3718928   4.945  -0.294   3.208 -0.0198 -0.0466  0.7209
  168SAPE   H7X18929   4.836  -0.316   3.208 -0.1568  0.6131  0.9089
  168SAPE   H7Y18930   4.964  -0.204   3.145 -0.6741 -0.4189 -0.0152
  168SAPE   C3818931   4.992  -0.266   3.353 -0.5364  0.2089 -0.3988
  168SAPE   H8X18932   5.097  -0.230   3.353 -0.2603 -0.5094  1.2214
  168SAPE   H8Y18933   4.983  -0.359   3.415 -0.5246 -0.7553 -1.7975
  168SAPE   C3918934   4.898  -0.174   3.425  0.0367  0.0110  0.5351
  168SAPE   H9X18935   4.791  -0.201   3.434  0.3243 -0.8763  1.5675
  168SAPE   H9Y18936   4.890  -0.083   3.363  0.2380 -0.2683  0.0980
  168SAPE  C31018937   4.951  -0.136   3.565 -0.1032 -0.1342  0.4253
  168SAPE  H10X18938   5.052  -0.089   3.564 -0.7238  1.3131 -1.6418
  168SAPE  H10Y18939   4.961  -0.221   3.635 -0.0457  0.2102  0.8441
  168SAPE  C31118940   4.856  -0.033   3.627 -0.1551 -0.3489  0.5786
  168SAPE  H11X18941   4.748  -0.051   3.607 -0.1606 -0.8787  1.0758
  168SAPE  H11Y18942   4.887   0.060   3.574 -0.0281 -1.8151 -2.1154
  168SAPE  C31218943   4.877  -0.008   3.772 -0.0865 -0.3127  0.0579
  168SAPE  H12X18944   4.826   0.087   3.795 -0.6895 -0.0964 -1.9965
  168SAPE  H12Y18945   4.984   0.006   3.800  0.1851 -1.1249 -0.5312
  168SAPE  C31318946   4.817  -0.120   3.860  0.2364  0.0389 -0.0438
  168SAPE  H13X18947   4.832  -0.220   3.815 -2.3103 -0.3394 -0.1807
  168SAPE  H13Y18948   4.708  -0.100   3.864  0.4027  0.9486  0.3321
  168SAPE  C31418949   4.867  -0.099   4.009  0.3827  0.1808  0.2175
  168SAPE  H14X18950   4.851   0.008   4.034  1.6257  0.5462 -0.4329
  168SAPE  H14Y18951   4.974  -0.130   4.001 -0.0228 -0.8531 -2.4407
  168SAPE  C31518952   4.783  -0.183   4.115 -0.9538  0.4956  0.2014
  168SAPE  H15X18953   4.812  -0.132   4.209 -0.0433  0.0952  0.1473
  168SAPE  H15Y18954   4.817  -0.289   4.120  1.0973  1.0913 -0.1595
  168SAPE  C31618955   4.634  -0.187   4.096  0.4862 -0.0656 -0.1411
  168SAPE  H16X18956   4.614  -0.277   4.035 -1.4909  1.2760 -1.5960
  168SAPE  H16Y18957   4.596  -0.092   4.053 -0.3584 -0.2361  0.2227
  168SAPE  C31718958   4.568  -0.199   4.236  0.1432  0.3555 -0.8157
  168SAPE  H17X18959   4.457  -0.196   4.222  0.2273 -0.3476 -1.7173
  168SAPE  H17Y18960   4.588  -0.107   4.295 -1.1672 -1.0165  1.9464
  168SAPE  C31818961   4.606  -0.330   4.323  0.9101  0.6438  0.3159
  168SAPE  H18X18962   4.544  -0.332   4.415  1.1299 -0.6994  0.4425
  168SAPE  H18Y18963   4.712  -0.345   4.352  0.7030 -0.8367  0.3675
  168SAPE  H18Z18964   4.569  -0.418   4.267 -1.4491  0.2208  2.3684
  169SAPE     N18965   3.277   3.119   1.894 -0.2709  0.1697  0.1643
  169SAPE   HN118966   3.193   3.173   1.922  0.4794  1.1512  0.5923
  169SAPE   HN218967   3.357   3.184   1.882  0.9988 -1.7651 -3.1370
  169SAPE   HN318968   3.255   3.086   1.798  1.0174 -0.1772 -0.0313
  169SAPE   C1218969   3.293   3.006   1.992  0.5178 -0.6011 -0.1168
  169SAPE  H12A18970   3.399   2.976   2.008  1.1980  2.7921  2.9132
  169SAPE  H12B18971   3.241   2.916   1.954 -0.6476  0.1095 -0.2852
  169SAPE   C1118972   3.239   3.037   2.135 -0.7289  0.5048  0.7201
  169SAPE  H11A18973   3.295   3.122   2.181  0.0831  0.3984 -0.0548
  169SAPE  H11B18974   3.257   2.947   2.199  1.1033 -0.3602 -0.9101
  169SAPE     P18975   2.979   2.979   2.123 -0.5503  0.1539 -0.2489
  169SAPE   O1318976   2.887   3.048   2.029 -0.1326 -0.1129  0.3906
  169SAPE   O1418977   3.024   2.842   2.091  0.7906  0.6354  0.0693
  169SAPE   O1218978   3.103   3.077   2.128 -0.1725  0.2087 -0.2195
  169SAPE   O1118979   2.922   2.983   2.267  0.0362 -0.4228 -0.0543
  169SAPE    C118980   2.846   3.086   2.328 -1.0363  0.2808  0.6696
  169SAPE    HA18981   2.755   3.117   2.272 -1.1507 -0.5195  0.4031
  169SAPE    HB18982   2.804   3.038   2.419  0.1470 -0.4718  0.8525
  169SAPE    C218983   2.929   3.215   2.364  0.6289 -0.0062  0.1071
  169SAPE    HS18984   2.938   3.274   2.271 -1.4788 -0.1519 -0.2388
  169SAPE   O2118985   3.056   3.183   2.424 -0.3777  0.0698 -0.2217
  169SAPE   C2118986   3.141   3.285   2.434 -0.5170  0.6596  0.0777
  169SAPE   O2218987   3.123   3.394   2.384 -0.5360  0.5708 -0.4173
  169SAPE   C2218988   3.274   3.231   2.490 -0.0655  0.6143  0.5144
  169SAPE   H2R18989   3.305   3.148   2.424  1.9574  0.1067  2.0339
  169SAPE   H2S18990   3.344   3.316   2.476  1.2396 -0.5942 -0.5174
  169SAPE    C318991   2.837   3.302   2.466  0.2740 -0.5192  0.7840
  169SAPE    HX18992   2.745   3.313   2.404  1.4344 -1.4151 -1.1479
  169SAPE    HY18993   2.863   3.410   2.474 -0.6611 -0.1697 -0.4702
  169SAPE   O3118994   2.809   3.236   2.586 -0.0040 -0.2604 -0.3201
  169SAPE   C3118995   2.906   3.252   2.685  0.4439 -0.1319  0.1892
  169SAPE   O3218996   2.990   3.341   2.685  0.1431  0.5951  0.1839
  169SAPE   C3218997   2.883   3.155   2.805 -0.0728 -0.6034 -0.1922
  169SAPE   H2X18998   2.880   3.055   2.756 -1.1942 -0.6772  0.0180
  169SAPE   H2Y18999   2.787   3.180   2.853  0.1147 -0.0329 -0.1087
  169SAPE   C2319000   3.251   3.183   2.632  0.0124 -0.4078  0.4319
  169SAPE   H3R19001   3.172   3.105   2.625  1.1730 -1.4887 -1.7267
  169SAPE   H3S19002   3.219   3.266   2.699 -3.0085  1.4297 -2.9063
  169SAPE   C2419003   3.381   3.113   2.685 -0.7237 -0.6354 -0.0935
  169SAPE   H4R19004   3.452   3.193   2.715  0.2052 -1.0483 -1.1155
  169SAPE   H4S19005   3.436   3.059   2.604 -0.4299  0.8086 -0.8911
  169SAPE   C2519006   3.349   3.020   2.801 -0.6237 -0.5409 -0.0197
  169SAPE   H5R19007   3.278   2.938   2.781 -1.2580  0.0627 -0.3156
  169SAPE   C2619008   3.380   3.050   2.933  0.9669 -0.6349  0.2051
  169SAPE   H6R19009   3.359   2.982   3.016 -0.4744  0.2843  0.6270
  169SAPE   C2719010   3.462   3.164   2.978 -0.1833 -0.3719  0.0783
  169SAPE   H7R19011   3.550   3.169   2.910  0.5808  0.6777  1.1006
  169SAPE   H7S19012   3.513   3.137   3.073  0.9492  1.3931  0.0141
  169SAPE   C2819013   3.406   3.306   2.989  0.6679  0.2836  0.0215
  169SAPE   H8R19014   3.354   3.341   2.899  0.5834 -0.7288 -0.3379
  169SAPE   C2919015   3.411   3.390   3.096 -0.2862 -0.5805 -0.3121
  169SAPE   H9R19016   3.382   3.495   3.077  1.4739  0.2529  1.2826
  169SAPE  C21019017   3.494   3.366   3.218  0.3491 -0.0641 -1.1986
  169SAPE  H10R19018   3.558   3.456   3.228  0.1829  0.1285 -1.8397
  169SAPE  H10S19019   3.561   3.277   3.218 -2.0846 -2.0627  0.8240
  169SAPE  C21119020   3.415   3.368   3.347  0.0253 -0.8716  0.3950
  169SAPE  H11R19021   3.315   3.409   3.328  0.5524 -0.4151 -1.5114
  169SAPE  C21219022   3.439   3.304   3.461  0.1798  0.4280  0.2152
  169SAPE  H12R19023   3.370   3.328   3.543  0.7434 -0.4358  0.9654
  169SAPE  C21319024   3.565   3.232   3.502 -0.3217  0.1869 -0.1236
  169SAPE  H13R19025   3.621   3.172   3.427  1.8068  0.0543  1.4900
  169SAPE  H13S19026   3.536   3.153   3.574  1.6729 -1.2969 -0.8786
  169SAPE  C21419027   3.674   3.324   3.555  0.7834  0.3656  0.1588
  169SAPE  H14R19028   3.708   3.402   3.485  0.6149  1.8279  1.6474
  169SAPE  C21519029   3.723   3.327   3.679  0.3316  0.0530 -1.0124
  169SAPE  H15R19030   3.806   3.393   3.707  0.3851 -0.1206 -0.7541
  169SAPE  C21619031   3.674   3.238   3.799  0.3353 -0.4446 -0.3733
  169SAPE  H16R19032   3.754   3.163   3.816  0.0358 -0.4935  0.9772
  169SAPE  H16S19033   3.582   3.177   3.787 -1.9052  2.8300 -1.0416
  169SAPE  C21719034   3.635   3.306   3.934  0.1713  0.4419  0.2266
  169SAPE  H17R19035   3.534   3.348   3.918  0.0516  0.3013  0.6224
  169SAPE  H17S19036   3.700   3.392   3.961  1.0746 -0.0763 -0.2528
  169SAPE  C21819037   3.620   3.216   4.062  0.3539  0.2140 -0.1092
  169SAPE  H18R19038   3.713   3.158   4.078 -0.4648 -1.8547 -2.1952
  169SAPE  H18S19039   3.551   3.129   4.049  0.7881 -0.2266  0.4926
  169SAPE  C21919040   3.598   3.285   4.199  0.3491  0.1969  0.1992
  169SAPE  H19R19041   3.494   3.324   4.194 -0.4961 -1.9270  0.2850
  169SAPE  H19S19042   3.664   3.374   4.210  1.3036 -0.3641 -0.7943
  169SAPE  C22019043   3.613   3.198   4.324  0.6290  0.0590  0.0718
  169SAPE  H20R19044   3.620   3.266   4.411  0.6869 -2.0886  1.8204
  169SAPE  H20S19045   3.701   3.130   4.314  1.5795  1.3724 -1.0031
  169SAPE  H20T19046   3.523   3.135   4.338  1.7527 -2.2005 -2.1055
  169SAPE   C3319047   2.999   3.147   2.906  0.4667  0.0851  0.5603
  169SAPE   H3X19048   3.096   3.179   2.862 -0.8131  0.7692 -1.9392
  169SAPE   H3Y19049   3.000   3.038   2.926 -1.8612 -0.7417 -3.0161
  169SAPE   C3419050   2.981   3.229   3.032  0.1361 -0.4176 -0.0102
  169SAPE   H4X19051   2.878   3.212   3.070 -0.0590 -1.3015 -0.8923
  169SAPE   H4Y19052   2.990   3.337   3.006  1.8213  0.0939  2.3273
  169SAPE   C3519053   3.078   3.192   3.147 -0.3588  0.6630  0.7612
  169SAPE   H5X19054   3.156   3.271   3.143 -1.8968  2.1966 -1.7660
  169SAPE   H5Y19055   3.110   3.092   3.110 -2.6537  0.5586 -1.1573
  169SAPE   C3619056   3.003   3.173   3.281 -0.9831  0.5083 -0.5859
  169SAPE   H6X19057   3.081   3.138   3.353 -0.9297  2.0238  0.1258
  169SAPE   H6Y19058   2.929   3.091   3.275 -0.5026  0.1631 -2.3509
  169SAPE   C3719059   2.946   3.304   3.338  0.5959 -0.0275 -0.9696
  169SAPE   H7X19060   2.867   3.338   3.268  0.7017  0.3896 -0.8916
  169SAPE   H7Y19061   3.026   3.382   3.344  0.3039  0.1758  1.3778
  169SAPE   C3819062   2.876   3.287   3.472 -0.2601  0.5242 -0.5817
  169SAPE   H8X19063   2.820   3.193   3.489  0.2836  0.2158 -0.4474
  169SAPE   H8Y19064   2.807   3.373   3.483  1.7161  2.0578  0.7998
  169SAPE   C3919065   2.962   3.301   3.602 -0.6267 -0.5264  0.2515
  169SAPE   H9X19066   3.027   3.211   3.609 -1.6063 -1.3349 -0.7806
  169SAPE   H9Y19067   2.901   3.294   3.695  1.2213  0.4957  1.6051
  169SAPE  C31019068   3.039   3.431   3.605 -0.4329 -0.3796 -0.0623
  169SAPE  H10X19069   2.980   3.520   3.574  0.9706  0.6561  0.1394
  169SAPE  H10Y19070   3.122   3.426   3.531  1.0985 -2.2993  1.6401
  169SAPE  C31119071   3.090   3.467   3.747  0.2491 -0.2466  0.9326
  169SAPE  H11X19072   3.001   3.486   3.811 -1.8778  1.0601 -2.1835
  169SAPE  H11Y19073   3.140   3.566   3.751  2.8986 -1.4543  0.0546
  169SAPE  C31219074   3.180   3.373   3.810 -0.1436 -0.2981  0.5817
  169SAPE  H12X19075   3.270   3.354   3.748 -0.5377  0.3632 -0.2160
  169SAPE  H12Y19076   3.129   3.276   3.831 -0.3671 -0.1634  0.6555
  169SAPE  C31319077   3.232   3.427   3.948  0.5306 -0.1685 -0.6359
  169SAPE  H13X19078   3.320   3.493   3.932  0.3851 -0.5190 -3.4155
  169SAPE  H13Y19079   3.280   3.339   3.997  0.7826  0.4954  0.3527
  169SAPE  C31419080   3.144   3.498   4.048  0.0830 -0.0871 -0.0434
  169SAPE  H14X19081   3.051   3.441   4.071 -0.6736  1.4966  1.0192
  169SAPE  H14Y19082   3.111   3.598   4.012  0.7498 -0.0495 -0.5611
  169SAPE  C31519083   3.223   3.536   4.181  0.1236 -0.4018  0.3960
  169SAPE  H15X19084   3.256   3.445   4.235  1.5443  0.7504  1.5742
  169SAPE  H15Y19085   3.157   3.605   4.238 -2.1589 -2.4219  0.3166
  169SAPE  C31619086   3.359   3.613   4.159  0.0810 -0.1675 -0.2103
  169SAPE  H16X19087   3.436   3.559   4.100 -1.0758 -1.0984 -0.9064
  169SAPE  H16Y19088   3.398   3.634   4.262 -0.7337 -2.5334  0.6428
  169SAPE  C31719089   3.329   3.746   4.095  0.3827  0.1234 -0.6590
  169SAPE  H17X19090   3.243   3.791   4.149  1.3935  2.0040 -0.5358
  169SAPE  H17Y19091   3.292   3.730   3.992  1.3466  0.4229 -1.0691
  169SAPE  C31819092   3.437   3.858   4.108  0.2088 -0.1159  0.1402
  169SAPE  H18X19093   3.512   3.846   4.027  0.6199 -3.7456  0.9044
  169SAPE  H18Y19094   3.485   3.851   4.208  1.8973 -0.1441 -0.6330
  169SAPE  H18Z19095   3.378   3.952   4.101  1.1608  0.6249  1.5153
  170SAPE     N19096   3.568   6.482   2.294 -0.1710  0.3599 -0.3707
  170SAPE   HN119097   3.671   6.465   2.296  0.0164  1.3409  1.9077
  170SAPE   HN219098   3.524   6.406   2.238 -0.7308  0.7643 -0.4871
  170SAPE   HN319099   3.539   6.570   2.248  0.8197  1.8062  1.5964
  170SAPE   C1219100   3.521   6.471   2.436 -0.4299  0.8021  0.8165
  170SAPE  H12A19101   3.413   6.494   2.441 -1.0587 -1.7942  0.6282
  170SAPE  H12B19102   3.574   6.545   2.499  0.6243 -0.7847  1.8598
  170SAPE   C1119103   3.571   6.326   2.485 -0.2060 -0.5306  0.2981
  170SAPE  H11A19104   3.542   6.314   2.591 -0.4039 -0.4316  0.2571
  170SAPE  H11B19105   3.681   6.319   2.471  0.1662  0.3773  2.4535
  170SAPE     P19106   3.377   6.153   2.444 -0.2439  0.4060 -0.1368
  170SAPE   O1319107   3.276   6.258   2.437  0.0764  0.2464  0.5042
  170SAPE   O1419108   3.365   6.044   2.349 -0.3901  0.2665 -0.1884
  170SAPE   O1219109   3.517   6.222   2.407  0.3246  0.0017  0.0979
  170SAPE   O1119110   3.376   6.098   2.591 -0.1901 -0.0883  0.1504
  170SAPE    C119111   3.465   5.989   2.617  0.4178  0.2941  0.5456
  170SAPE    HA19112   3.457   5.900   2.551 -0.7598 -1.7364  3.2526
  170SAPE    HB19113   3.572   6.019   2.624  0.1920  1.0059  1.0795
  170SAPE    C219114   3.443   5.935   2.763  0.8688 -0.9037 -0.2375
  170SAPE    HS19115   3.520   5.855   2.773 -0.0450 -1.9821 -1.4135
  170SAPE   O2119116   3.306   5.882   2.774 -0.2765  0.3123 -0.1902
  170SAPE   C2119117   3.293   5.768   2.711 -0.7168 -0.1648  0.7230
  170SAPE   O2219118   3.386   5.699   2.663  0.4394 -0.8140  0.0785
  170SAPE   C2219119   3.151   5.734   2.685  0.5418  0.0401  0.0954
  170SAPE   H2R19120   3.087   5.775   2.766  1.1016  0.7565  0.1910
  170SAPE   H2S19121   3.122   5.781   2.588 -1.6750 -1.0036  0.1975
  170SAPE    C319122   3.461   6.046   2.865 -0.2160  0.3493 -0.0722
  170SAPE    HX19123   3.371   6.108   2.845 -1.1518 -0.7580  0.5115
  170SAPE    HY19124   3.550   6.104   2.836  0.4409 -1.0364 -0.9345
  170SAPE   O3119125   3.452   6.004   3.005  0.0981  0.1574  0.0846
  170SAPE   C3119126   3.551   5.936   3.051 -0.1258 -0.0338 -0.6000
  170SAPE   O3219127   3.658   5.915   2.997 -0.4684 -0.0504  0.7330
  170SAPE   C3219128   3.502   5.876   3.183 -0.4297 -0.4611 -0.5873
  170SAPE   H2X19129   3.506   5.765   3.172 -4.1572 -0.8763  0.8242
  170SAPE   H2Y19130   3.398   5.913   3.192 -0.6711 -0.9171 -1.4600
  170SAPE   C2319131   3.115   5.583   2.663  0.3739  0.1738  0.5986
  170SAPE   H3R19132   3.146   5.539   2.566 -0.6178  1.4147 -0.3056
  170SAPE   H3S19133   3.005   5.580   2.651  0.4529 -1.1203  0.0392
  170SAPE   C2419134   3.143   5.475   2.775 -0.1275 -0.1068 -0.3979
  170SAPE   H4R19135   3.126   5.375   2.731  0.7320 -0.5962  0.3567
  170SAPE   H4S19136   3.077   5.493   2.862  0.1934 -0.1073 -0.1504
  170SAPE   C2519137   3.285   5.469   2.826 -0.7630 -0.0459 -1.1862
  170SAPE   H5R19138   3.356   5.422   2.758  0.8186 -0.6256  0.7945
  170SAPE   C2619139   3.326   5.516   2.949  0.2061  0.8550  0.5371
  170SAPE   H6R19140   3.428   5.498   2.986  0.5410  0.5776 -0.5000
  170SAPE   C2719141   3.239   5.591   3.048 -0.2657 -0.0698 -0.5287
  170SAPE   H7R19142   3.165   5.653   2.994 -0.1158  0.0037 -0.6519
  170SAPE   H7S19143   3.302   5.662   3.107  0.3270 -0.9870 -0.0296
  170SAPE   C2819144   3.161   5.492   3.128 -0.6728 -0.7656  0.1280
  170SAPE   H8R19145   3.106   5.407   3.085 -2.0904  0.4408 -0.5637
  170SAPE   C2919146   3.174   5.482   3.262  0.0095 -0.4276  0.0686
  170SAPE   H9R19147   3.127   5.396   3.312 -0.3883 -0.1168  0.2264
  170SAPE  C21019148   3.242   5.576   3.354  0.0765 -0.1536 -0.0603
  170SAPE  H10R19149   3.165   5.643   3.398  0.4337  0.0667  0.2371
  170SAPE  H10S19150   3.307   5.645   3.296 -1.9737  1.1430 -0.9158
  170SAPE  C21119151   3.327   5.490   3.438 -0.5794 -0.4893  0.2970
  170SAPE  H11R19152   3.413   5.450   3.383  0.8002  0.6036  1.5889
  170SAPE  C21219153   3.304   5.455   3.568  0.7581  0.4579 -0.4486
  170SAPE  H12R19154   3.370   5.389   3.626 -0.3867 -1.8224 -1.6074
  170SAPE  C21319155   3.181   5.498   3.644 -0.1622  0.4931 -0.7793
  170SAPE  H13R19156   3.148   5.411   3.705  0.0038  1.1760  0.3102
  170SAPE  H13S19157   3.099   5.531   3.577 -1.4493  0.6537  0.8005
  170SAPE  C21419158   3.219   5.612   3.736  0.4695 -0.4690  0.1096
  170SAPE  H14R19159   3.294   5.681   3.696 -0.5196 -0.4487 -1.8046
  170SAPE  C21519160   3.180   5.631   3.866 -0.1939 -0.0675  0.7860
  170SAPE  H15R19161   3.208   5.726   3.914 -1.1532  0.2265  0.7848
  170SAPE  C21619162   3.084   5.544   3.939  0.1261 -0.3447 -0.8811
  170SAPE  H16R19163   3.122   5.440   3.946 -2.5113 -1.5999 -3.2774
  170SAPE  H16S19164   2.988   5.551   3.882 -0.4406  3.8942  0.2501
  170SAPE  C21719165   3.056   5.614   4.075  0.2681 -0.4835 -0.4136
  170SAPE  H17R19166   3.149   5.633   4.133 -1.3288  2.1654  1.5209
  170SAPE  H17S19167   3.001   5.538   4.134 -0.7661  0.8311  0.3910
  170SAPE  C21819168   2.981   5.749   4.064  0.2042 -0.4674 -0.2128
  170SAPE  H18R19169   2.914   5.736   3.977  0.2468  1.2822 -0.5396
  170SAPE  H18S19170   3.051   5.834   4.048  0.8769 -0.9731 -0.0115
  170SAPE  C21919171   2.890   5.784   4.189  0.4831  0.3751  0.0520
  170SAPE  H19R19172   2.813   5.703   4.192 -0.0114  0.7842 -1.0765
  170SAPE  H19S19173   2.840   5.880   4.164 -1.1934  0.3938  2.9912
  170SAPE  C22019174   2.958   5.802   4.332  0.1265  0.1657  0.3792
  170SAPE  H20R19175   3.017   5.709   4.350 -2.1717 -1.7627 -1.2984
  170SAPE  H20S19176   2.880   5.811   4.411  0.2233 -1.1071  0.6432
  170SAPE  H20T19177   3.024   5.891   4.330  0.5467 -0.1528 -1.5375
  170SAPE   C3319178   3.600   5.921   3.299  0.3634 -0.0643 -0.7817
  170SAPE   H3X19179   3.610   6.032   3.295 -1.2885  0.1263 -0.4864
  170SAPE   H3Y19180   3.695   5.873   3.267 -0.5245 -0.5336 -2.9055
  170SAPE   C3419181   3.558   5.881   3.446 -0.2622 -0.4113  0.4591
  170SAPE   H4X19182   3.500   5.788   3.438 -0.6393 -0.2500  1.1919
  170SAPE   H4Y19183   3.477   5.944   3.489  0.4022 -0.0817  1.2873
  170SAPE   C3519184   3.672   5.869   3.542 -0.1221 -0.3346 -0.6343
  170SAPE   H5X19185   3.736   5.959   3.553  0.1136 -0.6577  0.7990
  170SAPE   H5Y19186   3.737   5.782   3.522  0.9470  0.8870 -2.8537
  170SAPE   C3619187   3.618   5.837   3.684  0.4985  0.2465 -0.5945
  170SAPE   H6X19188   3.690   5.784   3.750 -2.2493 -1.4101  1.3003
  170SAPE   H6Y19189   3.533   5.766   3.681  1.8135 -1.5566  1.3844
  170SAPE   C3719190   3.576   5.964   3.763 -0.8659  0.2631 -0.1569
  170SAPE   H7X19191   3.529   6.041   3.697 -0.3363  0.3112 -0.4842
  170SAPE   H7Y19192   3.670   6.006   3.804  0.4966 -4.3510  2.0889
  170SAPE   C3819193   3.494   5.933   3.887  0.2720  0.9062 -0.0434
  170SAPE   H8X19194   3.408   5.868   3.860 -0.5527 -1.4003  6.4437
  170SAPE   H8Y19195   3.448   6.020   3.938 -2.4356 -0.5624  0.1499
  170SAPE   C3919196   3.572   5.848   3.988 -0.5399 -0.2851 -0.5761
  170SAPE   H9X19197   3.644   5.907   4.049  0.2545 -0.8599 -0.9329
  170SAPE   H9Y19198   3.628   5.770   3.932 -1.3310 -1.9025  0.8173
  170SAPE  C31019199   3.484   5.760   4.080 -0.6389  0.3393  0.8539
  170SAPE  H10X19200   3.443   5.680   4.015 -0.4580  2.1322 -1.5906
  170SAPE  H10Y19201   3.397   5.816   4.120 -2.4073 -0.7843 -1.2407
  170SAPE  C31119202   3.574   5.701   4.194 -0.0145 -0.1892  0.4706
  170SAPE  H11X19203   3.601   5.782   4.265  0.8464 -1.8839  2.1757
  170SAPE  H11Y19204   3.672   5.680   4.148 -1.1293 -0.1317 -2.0609
  170SAPE  C31219205   3.502   5.584   4.270  0.2081 -0.5310  0.3072
  170SAPE  H12X19206   3.576   5.539   4.340  2.5576  1.1380 -0.9518
  170SAPE  H12Y19207   3.470   5.512   4.193 -1.5572  1.2135 -0.6980
  170SAPE  C31319208   3.394   5.636   4.361  0.0055  0.1983  0.8243
  170SAPE  H13X19209   3.304   5.662   4.300  1.9734  0.2813 -2.2659
  170SAPE  H13Y19210   3.431   5.735   4.396  1.7791 -0.3904  0.7134
  170SAPE  C31419211   3.366   5.539   4.478 -0.3390 -0.4404  0.4845
  170SAPE  H14X19212   3.275   5.581   4.526 -0.2517 -0.3683  0.5847
  170SAPE  H14Y19213   3.438   5.557   4.560  0.2776  1.1629 -0.3528
  170SAPE  C31519214   3.346   5.391   4.447  0.5572  0.9898 -0.4785
  170SAPE  H15X19215   3.337   5.330   4.540 -1.6131  0.6678 -0.8321
  170SAPE  H15Y19216   3.436   5.349   4.397  0.1607 -1.3271  0.6235
  170SAPE  C31619217   3.218   5.366   4.365 -1.0022  0.6368 -0.3555
  170SAPE  H16X19218   3.171   5.454   4.315 -1.8353 -1.1971 -2.9859
  170SAPE  H16Y19219   3.148   5.316   4.435 -0.5821 -0.8917 -0.9888
  170SAPE  C31719220   3.237   5.270   4.248 -0.4408  0.0230  0.1831
  170SAPE  H17X19221   3.303   5.190   4.287 -0.2876  1.3167  2.7480
  170SAPE  H17Y19222   3.288   5.329   4.169  2.2448 -2.4176 -0.1161
  170SAPE  C31819223   3.103   5.217   4.193 -0.1912  0.2325  0.2473
  170SAPE  H18X19224   3.017   5.224   4.264  0.0410  0.3363  0.5241
  170SAPE  H18Y19225   3.106   5.109   4.168 -0.5796  0.3752 -0.4392
  170SAPE  H18Z19226   3.061   5.276   4.109 -1.7272 -1.2033 -0.0401
  171SAPE     N19227   3.465   4.898   1.628  0.6145 -1.1358 -0.2887
  171SAPE   HN119228   3.385   4.879   1.691  1.4468 -0.5952  0.9745
  171SAPE   HN219229   3.428   4.970   1.563 -0.0076 -1.0568  0.1455
  171SAPE   HN319230   3.480   4.814   1.569  2.5164 -0.8228 -0.3075
  171SAPE   C1219231   3.585   4.931   1.706  0.1293  0.4918 -0.1598
  171SAPE  H12A19232   3.554   5.022   1.761 -1.4254  0.2288 -0.5571
  171SAPE  H12B19233   3.674   4.947   1.641  0.0603  0.4954 -0.2534
  171SAPE   C1119234   3.623   4.800   1.790 -0.1010  0.0988 -0.4826
  171SAPE  H11A19235   3.539   4.768   1.854  0.8088 -2.9651 -0.6908
  171SAPE  H11B19236   3.710   4.827   1.854 -0.8424 -1.3987  1.2292
  171SAPE     P19237   3.753   4.586   1.739  0.4294  0.4061  0.0031
  171SAPE   O1319238   3.756   4.493   1.625 -0.3529 -0.0339  0.0231
  171SAPE   O1419239   3.876   4.667   1.764 -0.3074 -0.2524  0.2811
  171SAPE   O1219240   3.640   4.684   1.714  0.9478 -0.4647 -0.0494
  171SAPE   O1119241   3.720   4.499   1.860  0.6015  0.3423 -0.6306
  171SAPE    C119242   3.726   4.553   1.992 -0.0763 -0.6600 -0.6027
  171SAPE    HA19243   3.791   4.643   2.002 -1.7530  0.5040  0.3036
  171SAPE    HB19244   3.629   4.595   2.026  0.1911 -1.2107  0.9208
  171SAPE    C219245   3.751   4.443   2.097 -0.3278 -0.0450 -0.2780
  171SAPE    HS19246   3.847   4.394   2.068 -0.6646  0.2286 -1.9748
  171SAPE   O2119247   3.652   4.337   2.094  0.3245  0.7106  0.1200
  171SAPE   C2119248   3.698   4.221   2.129  0.1738 -0.9572 -0.0205
  171SAPE   O2219249   3.811   4.190   2.160  0.4221  0.1588 -0.0613
  171SAPE   C2219250   3.588   4.121   2.135  1.0456 -0.4177  0.2980
  171SAPE   H2R19251   3.547   4.106   2.033 -0.8786  0.6470  0.8671
  171SAPE   H2S19252   3.641   4.028   2.164  0.4798 -0.6862  0.4964
  171SAPE    C319253   3.760   4.511   2.239 -0.1164 -0.4473  0.1464
  171SAPE    HX19254   3.664   4.561   2.261  0.7402  1.5159 -0.2981
  171SAPE    HY19255   3.819   4.605   2.242 -2.0794  0.8563 -0.3174
  171SAPE   O3119256   3.786   4.413   2.343  0.0166  0.4622  0.3050
  171SAPE   C3119257   3.917   4.387   2.370  0.5313 -0.0218 -0.8247
  171SAPE   O3219258   4.010   4.437   2.309  0.1251 -0.7339  0.5419
  171SAPE   C3219259   3.930   4.292   2.490 -0.4456 -0.1088  0.7124
  171SAPE   H2X19260   3.941   4.189   2.450 -0.2119  0.2778 -0.2346
  171SAPE   H2Y19261   3.840   4.297   2.556  1.3535 -2.2804  3.5842
  171SAPE   C2319262   3.466   4.155   2.226  0.4909 -0.5035  0.7405
  171SAPE   H3R19263   3.427   4.254   2.195 -1.2691 -1.6735 -0.9867
  171SAPE   H3S19264   3.490   4.168   2.334 -0.1454  1.1014  0.7130
  171SAPE   C2419265   3.354   4.051   2.217  0.3711  0.4551 -0.5809
  171SAPE   H4R19266   3.387   3.956   2.266 -1.7074 -2.1997 -3.8853
  171SAPE   H4S19267   3.343   4.016   2.112  0.9519  0.7687 -0.7516
  171SAPE   C2519268   3.217   4.088   2.267  0.5417 -0.0087 -1.2989
  171SAPE   H5R19269   3.169   4.170   2.211 -0.0860  0.9272  0.5231
  171SAPE   C2619270   3.149   4.039   2.377 -0.0642  0.0982  0.1273
  171SAPE   H6R19271   3.055   4.087   2.409 -0.3301 -1.8417  2.5260
  171SAPE   C2719272   3.191   3.931   2.477 -0.0731 -0.3025 -0.5932
  171SAPE   H7R19273   3.210   3.983   2.573 -0.0088 -0.0867 -0.7232
  171SAPE   H7S19274   3.286   3.884   2.445  0.4181  0.1009  0.2275
  171SAPE   C2819275   3.088   3.823   2.505 -0.0158 -0.8312 -0.7867
  171SAPE   H8R19276   2.982   3.850   2.498  0.2223  1.7714  2.7419
  171SAPE   C2919277   3.105   3.715   2.587 -0.2122  0.5291 -0.7874
  171SAPE   H9R19278   3.021   3.647   2.604  1.6713 -2.3610 -2.1291
  171SAPE  C21019279   3.239   3.686   2.657 -1.0444 -0.0802 -0.0297
  171SAPE  H10R19280   3.306   3.774   2.666  0.1362 -0.9122 -0.4420
  171SAPE  H10S19281   3.291   3.622   2.583 -0.7816  0.2904 -0.1648
  171SAPE  C21119282   3.216   3.622   2.790  0.3732 -0.0683  0.0927
  171SAPE  H11R19283   3.166   3.524   2.783 -1.3621  0.7752  0.0808
  171SAPE  C21219284   3.229   3.679   2.911 -0.5137 -0.2582  0.6871
  171SAPE  H12R19285   3.193   3.615   2.993  0.1692  0.3677  1.5012
  171SAPE  C21319286   3.298   3.811   2.950  0.7046  0.3674  0.2593
  171SAPE  H13R19287   3.232   3.876   3.011  0.7327 -0.7792  1.5725
  171SAPE  H13S19288   3.324   3.872   2.861  2.6901  1.9886  1.8445
  171SAPE  C21419289   3.420   3.793   3.035  0.4603 -0.4230 -0.1046
  171SAPE  H14R19290   3.521   3.815   2.996  0.4387  2.1445  1.1058
  171SAPE  C21519291   3.434   3.768   3.164  0.2735  0.0994 -0.5415
  171SAPE  H15R19292   3.535   3.737   3.196 -0.0466 -2.3794 -1.7286
  171SAPE  C21619293   3.324   3.724   3.259  0.2243 -0.5627  0.5303
  171SAPE  H16R19294   3.358   3.624   3.294  0.0409 -0.5406  0.7771
  171SAPE  H16S19295   3.221   3.718   3.216 -0.6000  1.6452  2.0154
  171SAPE  C21719296   3.315   3.829   3.369 -0.3710  0.5783 -0.1215
  171SAPE  H17R19297   3.223   3.809   3.429 -0.7375  1.3443 -0.4112
  171SAPE  H17S19298   3.310   3.927   3.316  1.6606  0.8675  0.1631
  171SAPE  C21819299   3.436   3.846   3.474  0.1605 -0.1905  0.7343
  171SAPE  H18R19300   3.414   3.930   3.543 -0.2804 -0.8011  1.3510
  171SAPE  H18S19301   3.528   3.884   3.425  0.7482 -3.6410 -1.1355
  171SAPE  C21919302   3.462   3.717   3.556  0.2337 -0.7076  0.1947
  171SAPE  H19R19303   3.525   3.647   3.498  0.3822 -0.2883 -0.1558
  171SAPE  H19S19304   3.363   3.669   3.576  0.3069 -0.2198  1.8749
  171SAPE  C22019305   3.520   3.747   3.696 -0.2516 -0.4823 -0.8589
  171SAPE  H20R19306   3.532   3.651   3.750 -2.1159 -0.8348 -0.9837
  171SAPE  H20S19307   3.452   3.813   3.754  0.7062  0.1606 -0.4466
  171SAPE  H20T19308   3.621   3.792   3.683  1.4574 -4.0748 -1.1889
  171SAPE   C3319309   4.064   4.329   2.566 -0.3426 -0.4248 -1.1955
  171SAPE   H3X19310   4.149   4.325   2.493  0.1925  0.3220 -0.6364
  171SAPE   H3Y19311   4.074   4.253   2.646  2.2006  0.0483 -0.9738
  171SAPE   C3419312   4.054   4.470   2.621  0.7724 -0.0701  0.0642
  171SAPE   H4X19313   3.946   4.480   2.647  0.4421  1.1832 -1.6158
  171SAPE   H4Y19314   4.079   4.548   2.547 -1.2386  2.5951  2.0082
  171SAPE   C3519315   4.134   4.489   2.746  0.0980  0.3223  0.3222
  171SAPE   H5X19316   4.148   4.596   2.774 -1.2642  0.3406  1.0221
  171SAPE   H5Y19317   4.238   4.453   2.731 -0.1881 -0.4737  0.2329
  171SAPE   C3619318   4.085   4.426   2.883 -0.0925  0.2178  0.1527
  171SAPE   H6X19319   4.161   4.439   2.963 -1.2754 -0.8545  1.5087
  171SAPE   H6Y19320   4.080   4.316   2.868 -0.0165 -0.2317  2.9390
  171SAPE   C3719321   3.951   4.482   2.951 -0.0205  0.3560  0.1710
  171SAPE   H7X19322   3.908   4.416   3.029 -1.5643 -2.1575 -2.5971
  171SAPE   H7Y19323   3.879   4.487   2.866  1.0651 -0.5334 -0.8391
  171SAPE   C3819324   3.974   4.623   3.017 -0.8633  1.0098  1.0589
  171SAPE   H8X19325   4.014   4.681   2.931  1.1611 -1.8641 -0.1259
  171SAPE   H8Y19326   4.058   4.607   3.088  1.0930 -1.0234 -1.4913
  171SAPE   C3919327   3.850   4.676   3.084  0.2649  0.4098 -0.7040
  171SAPE   H9X19328   3.776   4.714   3.010  1.7673  2.8742 -1.0855
  171SAPE   H9Y19329   3.886   4.765   3.141  3.1718 -1.4889  0.6807
  171SAPE  C31019330   3.775   4.583   3.189 -0.0805 -0.6797  0.0542
  171SAPE  H10X19331   3.721   4.499   3.141  1.8990 -1.8085 -0.3069
  171SAPE  H10Y19332   3.690   4.633   3.239 -0.8252 -2.5514  0.7716
  171SAPE  C31119333   3.870   4.530   3.298  0.5127  0.0851 -0.0224
  171SAPE  H11X19334   3.935   4.615   3.327  0.1845 -0.1936  1.6039
  171SAPE  H11Y19335   3.933   4.456   3.245  2.2713  1.1663  0.4641
  171SAPE  C31219336   3.793   4.477   3.423 -0.1618 -0.5217  0.1741
  171SAPE  H12X19337   3.769   4.569   3.481 -2.0509 -0.8274 -0.0545
  171SAPE  H12Y19338   3.867   4.424   3.488 -0.5824  0.9220  1.9281
  171SAPE  C31319339   3.664   4.395   3.390  0.2761  0.0600  0.1350
  171SAPE  H13X19340   3.588   4.464   3.347 -1.8938 -1.4306  1.3637
  171SAPE  H13Y19341   3.634   4.381   3.496 -1.6594  1.4799 -0.1677
  171SAPE  C31419342   3.693   4.260   3.328  0.0207 -0.4346  0.6872
  171SAPE  H14X19343   3.732   4.283   3.227 -3.0997  1.3055 -0.2482
  171SAPE  H14Y19344   3.601   4.201   3.306 -0.2120  0.0948  0.2087
  171SAPE  C31519345   3.785   4.170   3.404  0.0674 -0.3682  0.4694
  171SAPE  H15X19346   3.742   4.146   3.503  2.3999 -0.8456  1.4368
  171SAPE  H15Y19347   3.881   4.224   3.420  0.4251 -1.0818  0.8123
  171SAPE  C31619348   3.812   4.032   3.336  0.3257  0.7859 -0.1759
  171SAPE  H16X19349   3.722   3.971   3.361  0.3871  1.3211  1.5410
  171SAPE  H16Y19350   3.896   3.991   3.396  1.0319  2.5486  0.1054
  171SAPE  C31719351   3.855   4.026   3.193  0.0914 -0.2310  0.1515
  171SAPE  H17X19352   3.938   4.096   3.169 -0.3668  0.7491  1.2817
  171SAPE  H17Y19353   3.775   4.064   3.127  0.3739 -0.5111 -0.3549
  171SAPE  C31819354   3.903   3.891   3.138  0.2595  0.5167 -0.1995
  171SAPE  H18X19355   3.820   3.818   3.129 -1.7500  2.6311  0.2804
  171SAPE  H18Y19356   3.972   3.834   3.203  0.9149  0.1215 -1.2109
  171SAPE  H18Z19357   3.953   3.911   3.041 -0.4729  0.6979 -0.5497
  172SAPE     N19358   3.120   4.414   1.935  0.1387 -0.7369  0.0467
  172SAPE   HN119359   3.094   4.396   2.035 -0.4817  0.2136  0.0752
  172SAPE   HN219360   3.110   4.320   1.892  0.8779 -0.8802  0.1874
  172SAPE   HN319361   3.221   4.438   1.932 -0.2120  0.9864  0.5189
  172SAPE   C1219362   3.035   4.519   1.874 -0.0681  0.0332  0.1686
  172SAPE  H12A19363   2.930   4.483   1.868  0.1576 -1.2557  2.7885
  172SAPE  H12B19364   3.084   4.551   1.779  0.4215  2.0935  1.0482
  172SAPE   C1119365   3.027   4.644   1.968 -0.0986  0.3530  0.2781
  172SAPE  H11A19366   2.984   4.608   2.064 -1.0028  2.7140  0.8237
  172SAPE  H11B19367   2.952   4.715   1.928 -1.3724 -1.7231 -1.2266
  172SAPE     P19368   3.201   4.839   1.951  0.0692 -0.2776 -0.2169
  172SAPE   O1319369   3.261   4.839   1.813 -0.4299 -1.2894  0.4291
  172SAPE   O1419370   3.097   4.936   1.979 -0.4065  0.1349 -0.1645
  172SAPE   O1219371   3.154   4.695   1.996  1.0860 -1.1654 -0.1596
  172SAPE   O1119372   3.320   4.869   2.048  0.1180 -0.1731  0.1245
  172SAPE    C119373   3.361   4.769   2.140 -0.0185  0.0573 -0.5480
  172SAPE    HA19374   3.365   4.671   2.086 -0.7178  1.0367 -2.4626
  172SAPE    HB19375   3.463   4.791   2.178 -0.5538  0.0518  0.9450
  172SAPE    C219376   3.277   4.768   2.276  0.2263 -0.4758 -0.3250
  172SAPE    HS19377   3.170   4.748   2.252  0.5892  0.0921 -2.7065
  172SAPE   O2119378   3.293   4.897   2.342 -0.0363  0.6585  0.0239
  172SAPE   C2119379   3.192   4.956   2.396 -0.0828 -0.4178  0.0744
  172SAPE   O2219380   3.072   4.933   2.373  0.3771  0.3364  0.1579
  172SAPE   C2219381   3.231   5.058   2.494 -0.2982 -0.0847 -0.6288
  172SAPE   H2R19382   3.324   5.101   2.451 -0.9216  1.7819 -0.2167
  172SAPE   H2S19383   3.148   5.131   2.508  0.5762  1.2060 -1.8570
  172SAPE    C319384   3.318   4.653   2.376  0.4192  0.5401  0.3754
  172SAPE    HX19385   3.416   4.691   2.412  1.3164 -1.0171 -0.3626
  172SAPE    HY19386   3.341   4.554   2.332 -1.2424  0.0411  0.5625
  172SAPE   O3119387   3.231   4.644   2.490  0.0551 -0.2585  0.5600
  172SAPE   C3119388   3.126   4.577   2.480 -0.1189 -0.2856  0.5646
  172SAPE   O3219389   3.093   4.496   2.392  0.0034  0.4755  0.1077
  172SAPE   C3219390   3.035   4.613   2.601 -0.3830  0.9253  0.1149
  172SAPE   H2X19391   3.051   4.722   2.612 -0.8528  1.0925 -0.7950
  172SAPE   H2Y19392   3.076   4.551   2.685  2.1528  1.9542 -0.2671
  172SAPE   C2319393   3.270   4.989   2.618 -0.6525  0.4438 -0.3497
  172SAPE   H3R19394   3.356   4.919   2.605 -1.3533 -0.5051  0.0360
  172SAPE   H3S19395   3.190   4.918   2.647  0.9243 -1.3051 -0.0523
  172SAPE   C2419396   3.310   5.083   2.736  0.9415  0.7606 -0.2177
  172SAPE   H4R19397   3.315   5.007   2.817 -1.5110 -1.4509 -1.9958
  172SAPE   H4S19398   3.227   5.155   2.751  1.3466  1.1283  0.3153
  172SAPE   C2519399   3.440   5.157   2.724 -0.2801  0.3690  0.1799
  172SAPE   H5R19400   3.456   5.202   2.625  2.3814 -0.9268 -0.0640
  172SAPE   C2619401   3.537   5.153   2.819 -0.7521  0.5302 -0.0572
  172SAPE   H6R19402   3.636   5.198   2.800  0.2100 -1.5776 -0.3388
  172SAPE   C2719403   3.540   5.092   2.958  0.3729  0.0741 -0.2871
  172SAPE   H7R19404   3.643   5.089   2.998 -0.0242  2.1394  1.0211
  172SAPE   H7S19405   3.505   4.986   2.955  0.5411 -0.1182  2.2541
  172SAPE   C2819406   3.452   5.159   3.058  0.0817  0.3920 -0.0705
  172SAPE   H8R19407   3.363   5.210   3.016 -0.2374 -1.3129 -1.5976
  172SAPE   C2919408   3.469   5.151   3.187  0.4296  0.4846  0.1474
  172SAPE   H9R19409   3.419   5.211   3.264 -1.3291 -2.4970  1.4727
  172SAPE  C21019410   3.580   5.063   3.241 -0.3757  0.5300  0.6442
  172SAPE  H10R19411   3.679   5.111   3.226  0.4467 -1.6897 -1.7367
  172SAPE  H10S19412   3.587   4.970   3.180  0.7933  2.1869 -1.9271
  172SAPE  C21119413   3.562   5.012   3.382 -1.1438 -0.1865 -0.5489
  172SAPE  H11R19414   3.461   5.010   3.426 -0.2051 -2.6600  1.7892
  172SAPE  C21219415   3.662   4.970   3.460  0.1438  1.0352  0.7776
  172SAPE  H12R19416   3.634   4.929   3.558  0.6565 -0.6104  0.2632
  172SAPE  C21319417   3.804   4.965   3.420 -0.3053 -0.7669 -0.4198
  172SAPE  H13R19418   3.833   5.072   3.417 -1.1092 -0.4098  2.1607
  172SAPE  H13S19419   3.809   4.937   3.312 -0.7458 -1.3628 -0.2871
  172SAPE  C21419420   3.896   4.876   3.506  0.4025 -0.7140  0.3764
  172SAPE  H14R19421   3.916   4.780   3.458 -0.1569 -0.7348  0.1744
  172SAPE  C21519422   3.960   4.908   3.620  0.0878  0.0860 -0.1298
  172SAPE  H15R19423   4.031   4.835   3.661  0.9501  0.6781 -0.5426
  172SAPE  C21619424   3.937   5.039   3.695 -0.0176  0.9886  0.5203
  172SAPE  H16R19425   3.837   5.078   3.664 -0.6682 -1.1830 -0.2858
  172SAPE  H16S19426   4.005   5.117   3.655 -0.8892  1.0469 -0.9129
  172SAPE  C21719427   3.954   5.026   3.845  0.4724  0.2840 -0.0822
  172SAPE  H17R19428   3.880   4.954   3.884  3.4274 -2.4763  0.8258
  172SAPE  H17S19429   3.934   5.126   3.889 -1.3758 -0.5551  1.0937
  172SAPE  C21819430   4.094   4.992   3.896  0.2218  0.8652 -0.3988
  172SAPE  H18R19431   4.171   5.068   3.870  2.1517 -1.4336 -1.8202
  172SAPE  H18S19432   4.133   4.909   3.833 -0.7904  0.1123 -0.0729
  172SAPE  C21919433   4.088   4.958   4.044 -0.2172 -0.2775  0.1120
  172SAPE  H19R19434   3.995   4.897   4.049 -0.6804 -0.0436 -3.1818
  172SAPE  H19S19435   4.091   5.056   4.096  0.7410  0.9376 -2.0590
  172SAPE  C22019436   4.201   4.866   4.082 -0.9186  0.6560 -0.5339
  172SAPE  H20R19437   4.189   4.768   4.033  0.7433  0.0454  0.2293
  172SAPE  H20S19438   4.196   4.842   4.191  4.5288 -1.4938 -0.4795
  172SAPE  H20T19439   4.300   4.912   4.063  0.1155 -1.0832  0.3768
  172SAPE   C3319440   2.886   4.582   2.578  0.4075  0.3125 -0.6264
  172SAPE   H3X19441   2.852   4.477   2.575 -0.9522  0.7436 -1.8665
  172SAPE   H3Y19442   2.863   4.622   2.477 -0.4812  0.0838 -0.5252
  172SAPE   C3419443   2.798   4.665   2.676  0.2676  0.8830 -0.0507
  172SAPE   H4X19444   2.692   4.633   2.666  0.0469  1.6097 -0.0863
  172SAPE   H4Y19445   2.805   4.772   2.648 -0.8060  0.7601 -0.8610
  172SAPE   C3519446   2.844   4.640   2.825  0.2781  0.1595 -0.3933
  172SAPE   H5X19447   2.942   4.691   2.831  0.5576 -0.0453 -2.5946
  172SAPE   H5Y19448   2.871   4.533   2.838  0.6620  0.4545  1.4275
  172SAPE   C3619449   2.749   4.679   2.934 -0.0006 -0.0349  0.9233
  172SAPE   H6X19450   2.660   4.612   2.933 -0.2740  0.2662 -1.5878
  172SAPE   H6Y19451   2.702   4.777   2.914 -1.0372 -0.6486  0.2188
  172SAPE   C3719452   2.811   4.675   3.075  0.1468 -0.2477  0.5467
  172SAPE   H7X19453   2.884   4.759   3.079  2.1920 -1.9594  0.8504
  172SAPE   H7Y19454   2.865   4.580   3.095  0.1609 -0.7859 -1.7668
  172SAPE   C3819455   2.703   4.693   3.180 -0.3433 -0.1099 -0.0269
  172SAPE   H8X19456   2.631   4.761   3.128  1.6186  1.4052 -0.9232
  172SAPE   H8Y19457   2.743   4.741   3.271 -0.2604 -2.7477  1.4124
  172SAPE   C3919458   2.622   4.564   3.213  0.6520 -0.0702 -0.3433
  172SAPE   H9X19459   2.583   4.527   3.116 -0.6771 -2.2875  0.9495
  172SAPE   H9Y19460   2.540   4.591   3.283  1.5144  0.8762  0.3380
  172SAPE  C31019461   2.711   4.452   3.277  1.1860 -0.3769 -0.1101
  172SAPE  H10X19462   2.799   4.438   3.210  0.1829  0.7984 -1.7709
  172SAPE  H10Y19463   2.644   4.364   3.275 -0.2023  0.5781  1.5411
  172SAPE  C31119464   2.773   4.489   3.415 -0.1590  0.0171  0.1498
  172SAPE  H11X19465   2.697   4.516   3.492  0.7073 -1.8748  1.7752
  172SAPE  H11Y19466   2.832   4.580   3.395  0.2258 -0.9014 -3.5405
  172SAPE  C31219467   2.857   4.374   3.471  0.2819 -0.0990 -0.6183
  172SAPE  H12X19468   2.959   4.371   3.428  0.4972 -0.4794 -0.0973
  172SAPE  H12Y19469   2.804   4.278   3.454  0.7719 -0.5946  0.5138
  172SAPE  C31319470   2.886   4.387   3.623 -0.3958  0.5883 -0.2771
  172SAPE  H13X19471   2.936   4.294   3.658 -1.8619 -1.1267 -2.4959
  172SAPE  H13Y19472   2.791   4.392   3.681 -0.4281  2.7936 -0.4362
  172SAPE  C31419473   2.963   4.518   3.665  0.1293 -0.3600  0.0490
  172SAPE  H14X19474   2.885   4.597   3.649  0.5569 -0.1378 -1.0056
  172SAPE  H14Y19475   3.046   4.526   3.591 -0.2642 -2.4799 -0.6707
  172SAPE  C31519476   3.025   4.523   3.801 -0.2219 -0.8112 -0.2998
  172SAPE  H15X19477   3.088   4.432   3.815 -0.4919 -1.0233 -0.4542
  172SAPE  H15Y19478   2.939   4.512   3.870  0.2367 -0.1538  0.3830
  172SAPE  C31619479   3.106   4.648   3.839  0.4711 -0.8428  0.2451
  172SAPE  H16X19480   3.045   4.738   3.815 -0.9055 -1.4832  1.2161
  172SAPE  H16Y19481   3.196   4.652   3.774 -0.8984  0.4250 -1.6787
  172SAPE  C31719482   3.139   4.636   3.992 -0.0862 -0.8294  0.3066
  172SAPE  H17X19483   3.189   4.538   4.005  0.2560 -0.4916  1.7067
  172SAPE  H17Y19484   3.040   4.625   4.043 -0.1072  0.0805  0.4783
  172SAPE  C31819485   3.225   4.753   4.044 -0.3607  0.0400 -0.3461
  172SAPE  H18X19486   3.325   4.747   3.997  0.0075 -1.9692  0.5722
  172SAPE  H18Y19487   3.245   4.746   4.153 -1.5198  2.0995  0.0602
  172SAPE  H18Z19488   3.186   4.856   4.029  0.0745  0.5146  1.4895
  173SLPC     N19489   2.071   0.173   6.722 -0.1588  0.0414  0.4760
  173SLPC   C1319490   2.129   0.064   6.808 -0.3448  0.1408 -0.4668
  173SLPC  H13A19491   2.089  -0.028   6.769  0.8058 -0.4149 -0.3894
  173SLPC  H13B19492   2.237   0.062   6.803 -0.1901  2.2934  0.8372
  173SLPC  H13C19493   2.103   0.061   6.913  2.2505  0.7616  0.2797
  173SLPC   C1419494   1.923   0.155   6.704  0.4721  0.4695  0.1895
  173SLPC  H14A19495   1.901   0.080   6.629 -1.7626  0.7140  0.5245
  173SLPC  H14B19496   1.880   0.108   6.791 -1.4997 -0.2133 -1.0901
  173SLPC  H14C19497   1.877   0.249   6.675  2.1702  1.0763 -0.6928
  173SLPC   C1519498   2.138   0.158   6.587  0.6664  0.2806 -0.1016
  173SLPC  H15A19499   2.113   0.235   6.515  0.1662 -0.0267 -0.2560
  173SLPC  H15B19500   2.246   0.163   6.595  0.7068 -0.0472 -0.3988
  173SLPC  H15C19501   2.117   0.058   6.552 -1.1597  0.6854 -0.2848
  173SLPC   C1219502   2.116   0.303   6.773  0.0133 -0.6532 -0.0566
  173SLPC  H12A19503   2.222   0.307   6.792  0.7790  1.4138 -3.6745
  173SLPC  H12B19504   2.066   0.317   6.868 -0.5358  0.3294 -0.4742
  173SLPC   C1119505   2.076   0.425   6.688  0.4944  0.1452  0.0755
  173SLPC  H11A19506   1.969   0.419   6.660  0.4031 -2.3599  0.7955
  173SLPC  H11B19507   2.135   0.429   6.593  0.2408  1.4556 -0.0550
  173SLPC     P19508   2.230   0.628   6.753  0.3047  0.2261  0.0315
  173SLPC   O1319509   2.225   0.725   6.860 -0.2337  0.0272 -0.4814
  173SLPC   O1419510   2.348   0.541   6.748  0.6222 -0.1596  0.5651
  173SLPC   O1219511   2.099   0.537   6.757 -0.2670  0.0533 -0.0646
  173SLPC   O1119512   2.213   0.703   6.615  0.1254 -0.2162  0.2067
  173SLPC    C119513   2.097   0.795   6.605  0.3049  1.0146 -0.9962
  173SLPC    HA19514   2.025   0.791   6.690  0.8394  3.4630 -0.3255
  173SLPC    HB19515   2.135   0.899   6.616 -1.2343  1.4655  0.6075
  173SLPC    C219516   2.023   0.772   6.473  0.1082  0.1534  0.8084
  173SLPC    HS19517   2.006   0.662   6.466  2.4910 -0.1528 -2.1737
  173SLPC   O2119518   2.114   0.814   6.367  0.5697 -0.4066 -0.4362
  173SLPC   C2119519   2.111   0.748   6.250 -0.1316 -0.6373  0.2234
  173SLPC   O2219520   2.060   0.641   6.233 -0.6216  0.3513  0.7452
  173SLPC   C2219521   2.185   0.839   6.146 -0.2061 -0.7418  0.5976
  173SLPC   H2R19522   2.205   0.935   6.198 -2.0632 -0.1900  0.3591
  173SLPC   H2S19523   2.278   0.786   6.116 -0.2509 -0.0383 -0.8196
  173SLPC    C319524   1.883   0.842   6.484 -0.8471  0.0223  0.4248
  173SLPC    HX19525   1.915   0.948   6.483 -1.2998  0.1873  1.5669
  173SLPC    HY19526   1.832   0.819   6.580 -1.6144  0.0341  0.0324
  173SLPC   O3119527   1.792   0.821   6.378 -0.5336 -0.0245  0.1049
  173SLPC   C3119528   1.759   0.696   6.367  1.1369  0.2775 -0.0739
  173SLPC   O3219529   1.770   0.617   6.459 -0.8549  0.5188  0.2555
  173SLPC   C3219530   1.673   0.673   6.241 -0.2577  0.5987  0.0814
  173SLPC   H2X19531   1.588   0.744   6.245 -1.5897 -0.9423 -0.1456
  173SLPC   H2Y19532   1.627   0.572   6.240  1.2973 -0.1480 -1.2176
  173SLPC   C2319533   2.105   0.870   6.015  0.1354 -0.0137  0.1018
  173SLPC   H3R19534   2.018   0.932   6.047  0.3176  0.4341 -0.2614
  173SLPC   H3S19535   2.062   0.774   5.979 -1.3859  1.0556 -1.0754
  173SLPC   C2419536   2.176   0.948   5.903  0.9686  0.1152  1.2407
  173SLPC   H4R19537   2.262   0.896   5.856  0.4801  0.9859 -0.6858
  173SLPC   H4S19538   2.224   1.039   5.945 -1.6089  1.4414  1.5408
  173SLPC   C2519539   2.087   0.981   5.785  0.6291 -0.0533 -0.5601
  173SLPC   H5R19540   2.035   1.078   5.801  0.6339  0.0994 -1.3999
  173SLPC   H5S19541   2.002   0.911   5.772 -0.1429  1.0543 -1.8368
  173SLPC   C2619542   2.159   0.985   5.654  0.3983  0.2533  0.6881
  173SLPC   H6R19543   2.195   0.884   5.625 -1.5437 -0.6500  1.2117
  173SLPC   H6S19544   2.239   1.062   5.648 -1.4618  2.1929 -1.2188
  173SLPC   C2719545   2.061   1.024   5.534 -0.2659 -0.2655  0.1671
  173SLPC   H7R19546   2.011   1.117   5.570 -0.0495  0.6910 -1.8751
  173SLPC   H7S19547   1.985   0.945   5.519  0.7938 -1.1893 -0.5153
  173SLPC   C2819548   2.138   1.022   5.401  0.3699  0.0132 -0.6511
  173SLPC   H8R19549   2.177   0.919   5.391 -3.4361 -1.6544 -0.1107
  173SLPC   H8S19550   2.235   1.075   5.413  0.5003 -0.4088  0.2917
  173SLPC   C2919551   2.061   1.070   5.276  0.0591  0.3383 -0.1948
  173SLPC   H9R19552   1.963   1.120   5.281  0.4533  1.6734 -3.6149
  173SLPC  C21019553   2.099   1.028   5.151  0.1467 -0.4592 -0.6499
  173SLPC  H10R19554   2.031   1.057   5.069 -1.0475  0.2520  0.5556
  173SLPC  C21119555   2.221   0.952   5.116 -0.3754  0.1497 -1.1546
  173SLPC  H11R19556   2.173   0.852   5.103  2.0377 -1.0896 -1.2274
  173SLPC  H11S19557   2.295   0.944   5.199  1.2334  0.5622 -2.4827
  173SLPC  C21219558   2.284   0.987   4.980 -0.4856  0.3480 -0.1886
  173SLPC  H12R19559   2.376   1.046   4.990 -0.3786  0.1680 -0.0977
  173SLPC  C21319560   2.242   0.946   4.859  0.6765 -0.5537  0.6539
  173SLPC  H13R19561   2.302   0.975   4.771  0.7115 -0.5880  0.6664
  173SLPC  C21419562   2.123   0.867   4.828  0.4883  0.2686  0.5903
  173SLPC  H14R19563   2.078   0.916   4.738  1.3624 -0.9696 -0.5579
  173SLPC  H14S19564   2.057   0.870   4.917  1.0203 -1.6580  1.0805
  173SLPC  C21519565   2.159   0.719   4.800  0.9023 -0.4771  0.4779
  173SLPC  H15R19566   2.207   0.660   4.880 -0.1461 -0.7923  0.8889
  173SLPC  H15S19567   2.236   0.726   4.720  0.4366 -1.5696 -0.0860
  173SLPC  C21619568   2.039   0.637   4.761 -0.9556  0.5633  0.4918
  173SLPC  H16R19569   1.985   0.671   4.670 -1.6416 -1.3297  0.1466
  173SLPC  H16S19570   1.966   0.641   4.845  0.6054  0.5450  1.9034
  173SLPC  C21719571   2.066   0.492   4.719 -0.5365  0.1140  0.0902
  173SLPC  H17R19572   2.120   0.430   4.795  0.6156 -0.4206 -1.1214
  173SLPC  H17S19573   2.138   0.497   4.635 -2.2222 -1.9907 -1.5974
  173SLPC  C21819574   1.940   0.419   4.660 -0.2487 -0.1048 -0.3394
  173SLPC  H18R19575   1.871   0.384   4.740  1.2377 -0.6835  0.7400
  173SLPC  H18S19576   1.972   0.326   4.610 -1.5194 -0.5114 -0.4326
  173SLPC  H18T19577   1.896   0.485   4.582  1.0561  2.6478  1.1112
  173SLPC   C3319578   1.758   0.691   6.114 -0.5799 -0.2638  0.0061
  173SLPC   H3X19579   1.823   0.602   6.102  1.6605  1.1530  0.8405
  173SLPC   H3Y19580   1.834   0.772   6.127  1.0164 -1.7831  0.4582
  173SLPC   C3419581   1.688   0.715   5.986  0.6376 -0.1018  1.3048
  173SLPC   H4X19582   1.667   0.824   5.982 -0.7716 -0.3389  1.7750
  173SLPC   H4Y19583   1.587   0.670   5.978 -0.5372  2.1355  2.5054
  173SLPC   C3519584   1.782   0.676   5.871 -0.6039  0.2065 -0.1394
  173SLPC   H5X19585   1.785   0.567   5.851  0.7291  0.2635 -0.3151
  173SLPC   H5Y19586   1.883   0.716   5.893 -0.9511  2.2266 -1.8789
  173SLPC   C3619587   1.725   0.739   5.743  0.2271 -0.3111 -0.2233
  173SLPC   H6X19588   1.726   0.849   5.761  0.5055 -0.2091 -0.8286
  173SLPC   H6Y19589   1.617   0.713   5.741 -0.1019  0.8605  0.9479
  173SLPC   C3719590   1.785   0.698   5.610 -0.4009  0.4673 -0.1564
  173SLPC   H7X19591   1.785   0.589   5.585 -0.5617  0.3816  0.2213
  173SLPC   H7Y19592   1.894   0.721   5.601  0.0145 -1.1355  0.2560
  173SLPC   C3819593   1.722   0.768   5.493  0.8455 -0.0389 -0.0975
  173SLPC   H8X19594   1.758   0.873   5.490  0.3678  0.1100 -2.2821
  173SLPC   H8Y19595   1.613   0.774   5.512  1.1497 -1.5033  2.6897
  173SLPC   C3919596   1.758   0.708   5.353  0.3380 -0.5250 -0.2216
  173SLPC   H9X19597   1.709   0.609   5.346 -0.9686 -0.0976  1.8569
  173SLPC   H9Y19598   1.866   0.681   5.351  0.0138 -1.8759 -0.3085
  173SLPC  C31019599   1.724   0.804   5.241  0.1765 -0.0144 -0.6508
  173SLPC  H10X19600   1.755   0.905   5.276  1.5615 -0.1968 -1.2999
  173SLPC  H10Y19601   1.614   0.807   5.229  0.0298 -0.7067  0.4046
  173SLPC  C31119602   1.799   0.757   5.119  0.0413  0.3025 -0.6256
  173SLPC  H11X19603   1.791   0.647   5.116  1.7439  0.1366 -0.2543
  173SLPC  H11Y19604   1.907   0.783   5.128 -0.1007  1.1226 -1.1092
  173SLPC  C31219605   1.758   0.831   4.993  0.1998  0.2520  0.0810
  173SLPC  H12X19606   1.667   0.779   4.956  0.6437  0.0488 -0.7359
  173SLPC  H12Y19607   1.838   0.831   4.917  0.5195 -0.1825  0.4120
  173SLPC  C31319608   1.725   0.981   5.019 -0.6034 -0.5337 -0.1890
  173SLPC  H13X19609   1.783   1.026   5.102 -1.2006  1.3502 -0.7382
  173SLPC  H13Y19610   1.616   0.987   5.038 -0.7074 -1.7163 -0.3157
  173SLPC  C31419611   1.766   1.068   4.900  0.1019 -0.0388 -0.0262
  173SLPC  H14X19612   1.865   1.028   4.868  0.2136  0.1983  0.0216
  173SLPC  H14Y19613   1.773   1.173   4.935 -0.9593  0.9184 -2.4468
  173SLPC  C31519614   1.656   1.065   4.791  0.1215 -0.1437  0.5373
  173SLPC  H15X19615   1.592   0.975   4.796 -0.4707  0.1636 -0.9530
  173SLPC  H15Y19616   1.708   1.071   4.693  1.1396 -0.4877  1.0402
  173SLPC  C31619617   1.548   1.179   4.797  0.4454  0.2430 -0.8781
  173SLPC  H16X19618   1.596   1.276   4.773  0.3380  0.6713  0.5328
  173SLPC  H16Y19619   1.505   1.186   4.899  0.7058 -0.6677 -0.6948
  173SLPC  C31719620   1.446   1.151   4.693  0.3023 -0.4326  0.1756
  173SLPC  H17X19621   1.458   1.046   4.658 -0.7284 -0.0994 -1.2498
  173SLPC  H17Y19622   1.468   1.226   4.614 -1.0475 -1.2943 -1.0603
  173SLPC  C31819623   1.299   1.157   4.745 -0.1509 -0.0896  0.2442
  173SLPC  H18X19624   1.229   1.135   4.661  0.9665 -1.3424 -0.3870
  173SLPC  H18Y19625   1.270   1.259   4.777  1.4483  0.1304  1.0831
  173SLPC  H18Z19626   1.284   1.085   4.829  1.1635 -0.0652  0.5122
  174SLPC     N19627   4.350   2.774   6.913 -0.2278  0.3065  0.0584
  174SLPC   C1319628   4.262   2.657   6.858 -0.3045 -0.6908 -0.0502
  174SLPC  H13A19629   4.279   2.636   6.753 -0.1946 -0.3208 -0.1066
  174SLPC  H13B19630   4.287   2.562   6.904  3.4081 -0.3472 -1.0778
  174SLPC  H13C19631   4.158   2.679   6.880 -0.1219  0.1187  0.0160
  174SLPC   C1419632   4.491   2.730   6.888 -0.1998 -0.2454 -0.0692
  174SLPC  H14A19633   4.550   2.821   6.895 -0.0939 -0.4270  2.0622
  174SLPC  H14B19634   4.514   2.679   6.980 -0.3681  1.9494  1.2558
  174SLPC  H14C19635   4.506   2.681   6.793  1.5380  1.0760 -0.5282
  174SLPC   C1519636   4.321   2.785   7.063 -0.6091  0.1358  0.3315
  174SLPC  H15A19637   4.386   2.863   7.100  0.1401 -0.8160  1.0714
  174SLPC  H15B19638   4.226   2.829   7.089 -0.9998 -1.7200  2.2957
  174SLPC  H15C19639   4.342   2.696   7.121 -1.4796  1.4272  2.7529
  174SLPC   C1219640   4.312   2.901   6.843  0.3288 -0.4749 -0.2805
  174SLPC  H12A19641   4.204   2.898   6.844  0.1860  0.7029  3.3547
  174SLPC  H12B19642   4.345   2.900   6.740 -0.8560  0.7893 -0.7054
  174SLPC   C1119643   4.364   3.036   6.908  0.0784 -0.1090 -0.4486
  174SLPC  H11A19644   4.334   3.047   7.014  1.4164  0.8117 -0.1454
  174SLPC  H11B19645   4.307   3.113   6.851 -0.4528 -0.5818 -0.5679
  174SLPC     P19646   4.588   3.059   6.757  0.3067  0.5366  0.0930
  174SLPC   O1319647   4.648   3.195   6.759 -0.0361  0.4209 -0.3689
  174SLPC   O1419648   4.681   2.941   6.760 -0.1066 -0.1551 -0.1794
  174SLPC   O1219649   4.507   3.042   6.889 -0.5631 -0.6176  0.4271
  174SLPC   O1119650   4.479   3.051   6.638 -0.0707  0.0243 -0.5771
  174SLPC    C119651   4.516   2.990   6.513  0.1050  0.4519 -0.8358
  174SLPC    HA19652   4.585   2.905   6.532  0.3101  0.4328 -1.6257
  174SLPC    HB19653   4.435   2.946   6.452  1.4062 -0.0246 -2.2838
  174SLPC    C219654   4.573   3.108   6.418 -0.5579  0.2823 -0.7441
  174SLPC    HS19655   4.660   3.141   6.479 -0.6725  0.0712 -0.4582
  174SLPC   O2119656   4.482   3.214   6.394 -0.6738  0.6159  0.1248
  174SLPC   C2119657   4.534   3.334   6.383  0.2404  0.4048  0.3535
  174SLPC   O2219658   4.649   3.370   6.401  0.0501 -0.4454 -0.3663
  174SLPC   C2219659   4.429   3.427   6.319  0.7267 -0.6006  0.4700
  174SLPC   H2R19660   4.406   3.380   6.221 -2.7405  1.0087  0.3676
  174SLPC   H2S19661   4.329   3.436   6.367 -0.7011  1.4876 -2.5975
  174SLPC    C319662   4.616   3.057   6.275 -0.0166 -0.0953 -0.9133
  174SLPC    HX19663   4.523   3.018   6.228 -0.0754  0.8867 -1.6480
  174SLPC    HY19664   4.692   2.978   6.293 -1.0770 -1.1027 -0.7389
  174SLPC   O3119665   4.665   3.155   6.185 -0.3903  0.6840 -0.0291
  174SLPC   C3119666   4.789   3.168   6.192 -0.2269 -0.0474 -0.9918
  174SLPC   O3219667   4.863   3.109   6.276  0.9480  0.4081  0.5642
  174SLPC   C3219668   4.837   3.268   6.098 -0.5472  0.3075 -0.0886
  174SLPC   H2X19669   4.813   3.369   6.138 -0.7441 -0.0021  0.5850
  174SLPC   H2Y19670   4.793   3.262   5.996 -0.5563  2.0397 -0.2152
  174SLPC   C2319671   4.479   3.574   6.296 -0.4918  0.1191  0.1165
  174SLPC   H3R19672   4.505   3.624   6.392  2.1534  0.5439 -0.7470
  174SLPC   H3S19673   4.401   3.641   6.254 -0.9148  0.6622  1.6903
  174SLPC   C2419674   4.594   3.588   6.196 -0.2691 -0.3776 -0.2281
  174SLPC   H4R19675   4.679   3.531   6.240 -1.1624 -0.5400  1.3658
  174SLPC   H4S19676   4.630   3.692   6.180 -1.5300  0.6360  2.8627
  174SLPC   C2519677   4.549   3.527   6.063 -0.6524  0.0758  0.0096
  174SLPC   H5R19678   4.445   3.553   6.033  0.2072  3.8802 -0.1729
  174SLPC   H5S19679   4.562   3.417   6.071  2.1183  0.1716 -1.6633
  174SLPC   C2619680   4.644   3.570   5.958 -0.2941  0.5145  0.3363
  174SLPC   H6R19681   4.748   3.569   5.999  0.6386 -1.5680 -1.8468
  174SLPC   H6S19682   4.628   3.676   5.928 -0.3203  0.8022  1.3221
  174SLPC   C2719683   4.643   3.480   5.837  0.7859 -0.6027  0.8394
  174SLPC   H7R19684   4.539   3.493   5.797  1.8445  1.2159 -1.5920
  174SLPC   H7S19685   4.668   3.375   5.862  1.5149 -1.4829 -2.9179
  174SLPC   C2819686   4.737   3.528   5.721 -0.2213 -0.8900 -0.4191
  174SLPC   H8R19687   4.841   3.489   5.735  1.5203  3.6985  1.4601
  174SLPC   H8S19688   4.754   3.636   5.742  3.1372 -1.1683 -1.1601
  174SLPC   C2919689   4.667   3.509   5.586 -0.0931 -0.1968 -0.0136
  174SLPC   H9R19690   4.603   3.591   5.551 -0.1022 -0.0710  0.3014
  174SLPC  C21019691   4.692   3.398   5.515  0.1745  0.2249 -0.0007
  174SLPC  H10R19692   4.634   3.398   5.421  1.1317 -2.8361 -0.7006
  174SLPC  C21119693   4.764   3.269   5.538 -0.2305 -0.5549 -0.2163
  174SLPC  H11R19694   4.721   3.194   5.468 -1.8529 -0.0026  0.1265
  174SLPC  H11S19695   4.734   3.233   5.639 -1.2985 -0.0468 -0.3371
  174SLPC  C21219696   4.914   3.280   5.516  0.0941 -0.1705  0.4451
  174SLPC  H12R19697   4.959   3.349   5.589  0.3832 -2.5987  2.7069
  174SLPC  C21319698   4.985   3.241   5.413 -0.5067  0.3948  0.5560
  174SLPC  H13R19699   5.094   3.259   5.419 -0.7165  1.3628  2.1515
  174SLPC  C21419700   4.941   3.170   5.285 -0.2900  0.0595  0.1133
  174SLPC  H14R19701   4.946   3.242   5.201  3.1261  0.8608  0.8501
  174SLPC  H14S19702   4.834   3.143   5.286 -0.1363 -0.7700 -1.5361
  174SLPC  C21519703   5.024   3.051   5.228 -0.3853  0.0091  0.4501
  174SLPC  H15R19704   5.003   2.967   5.298 -2.0339  0.9508  1.1439
  174SLPC  H15S19705   5.130   3.083   5.214 -0.3059  0.7241  2.3513
  174SLPC  C21619706   4.983   2.989   5.089  0.3099  0.0706  0.7276
  174SLPC  H16R19707   5.009   3.065   5.013  3.2263 -1.9236 -0.4893
  174SLPC  H16S19708   4.873   2.985   5.079  0.3476 -3.4200  0.2749
  174SLPC  C21719709   5.065   2.865   5.057  0.4898  0.0460  0.3257
  174SLPC  H17R19710   5.080   2.795   5.142  0.1201 -0.2850  0.1230
  174SLPC  H17S19711   5.164   2.906   5.028 -0.1447  0.1134 -1.9840
  174SLPC  C21819712   5.008   2.790   4.935 -0.3290  0.0946  0.1395
  174SLPC  H18R19713   5.002   2.864   4.853  0.1426  1.8507  1.6235
  174SLPC  H18S19714   4.907   2.745   4.951 -0.0409 -1.4531 -1.9416
  174SLPC  H18T19715   5.069   2.703   4.903  0.7435  1.7334 -2.6503
  174SLPC   C3319716   4.994   3.265   6.084 -0.7030 -0.9422  0.6452
  174SLPC   H3X19717   5.033   3.274   6.188 -0.8268 -0.9773  0.6953
  174SLPC   H3Y19718   5.031   3.354   6.030  0.1872 -2.2079 -0.9313
  174SLPC   C3419719   5.044   3.140   6.012  0.6003  0.0964 -0.2157
  174SLPC   H4X19720   4.989   3.054   6.055  1.0860  0.2979  0.8494
  174SLPC   H4Y19721   5.154   3.129   6.029  1.0257 -0.1808 -2.8083
  174SLPC   C3519722   5.021   3.142   5.858 -0.4771 -0.5690 -0.0409
  174SLPC   H5X19723   5.045   3.234   5.800 -1.6427 -1.1780 -1.5860
  174SLPC   H5Y19724   4.917   3.110   5.833  0.2659 -1.8905 -1.6687
  174SLPC   C3619725   5.105   3.033   5.781  0.8766  0.4097 -0.4289
  174SLPC   H6X19726   5.087   3.038   5.671  3.2451  1.8103 -0.8094
  174SLPC   H6Y19727   5.069   2.937   5.823  0.1294  0.8884  0.0428
  174SLPC   C3719728   5.266   3.042   5.778 -0.0287 -0.6326 -0.4442
  174SLPC   H7X19729   5.307   3.006   5.875  1.5390 -0.3354 -0.9710
  174SLPC   H7Y19730   5.277   3.151   5.766 -0.0829 -0.2765  2.0715
  174SLPC   C3819731   5.327   2.965   5.652  0.6204 -0.0575 -0.3311
  174SLPC   H8X19732   5.288   2.861   5.651 -0.6915  0.4232 -0.7180
  174SLPC   H8Y19733   5.437   2.949   5.662  0.7941  1.1492 -0.2052
  174SLPC   C3919734   5.293   3.033   5.520  0.2802  0.5509  0.6449
  174SLPC   H9X19735   5.324   3.138   5.535 -0.6592  1.1155 -1.1242
  174SLPC   H9Y19736   5.189   3.022   5.483  1.2237 -0.2807 -1.9731
  174SLPC  C31019737   5.371   2.980   5.395 -0.6742  0.6361  0.5895
  174SLPC  H10X19738   5.481   2.992   5.409 -0.1110  0.0577 -2.5307
  174SLPC  H10Y19739   5.351   3.047   5.309  0.2508  2.2520  1.5620
  174SLPC  C31119740   5.344   2.833   5.367 -0.1011 -0.3064 -0.2265
  174SLPC  H11X19741   5.234   2.814   5.364 -0.1500 -0.2067  0.7688
  174SLPC  H11Y19742   5.385   2.769   5.447 -1.2589 -0.8810 -0.0780
  174SLPC  C31219743   5.415   2.775   5.244 -0.3411  0.0588 -0.1642
  174SLPC  H12X19744   5.346   2.795   5.159 -1.9320  0.5573  1.1833
  174SLPC  H12Y19745   5.423   2.667   5.271  1.6574  0.4603  1.0145
  174SLPC  C31319746   5.557   2.831   5.217 -0.5992 -0.2647  0.8177
  174SLPC  H13X19747   5.600   2.829   5.319  0.0722 -3.8191  0.5995
  174SLPC  H13Y19748   5.543   2.930   5.169 -2.8465 -0.9290 -0.0093
  174SLPC  C31419749   5.642   2.745   5.124 -0.4355 -0.1753 -0.7167
  174SLPC  H14X19750   5.588   2.759   5.028  0.2633  3.0904 -0.7281
  174SLPC  H14Y19751   5.633   2.639   5.158 -0.7103  0.3654  0.9574
  174SLPC  C31519752   5.788   2.779   5.110 -0.1229  0.0629  0.1787
  174SLPC  H15X19753   5.841   2.788   5.207  1.7141  1.1072 -0.8544
  174SLPC  H15Y19754   5.779   2.881   5.067 -1.1837  0.3815  1.1015
  174SLPC  C31619755   5.871   2.690   5.012 -0.0536  0.1391 -0.0194
  174SLPC  H16X19756   5.815   2.689   4.917 -1.9174 -1.0445  1.0315
  174SLPC  H16Y19757   5.869   2.583   5.043 -0.6191 -0.1613 -1.0438
  174SLPC  C31719758   6.012   2.749   4.978 -0.0112 -0.4600 -0.4689
  174SLPC  H17X19759   6.051   2.785   5.075  1.0426 -1.0466 -0.6690
  174SLPC  H17Y19760   6.000   2.831   4.903  1.3226  0.7901  0.6271
  174SLPC  C31819761   6.107   2.639   4.915  0.1288 -0.6108  0.1816
  174SLPC  H18X19762   6.118   2.554   4.985 -1.0183 -0.6182  0.3725
  174SLPC  H18Y19763   6.211   2.669   4.888  0.5703 -0.5208  1.9178
  174SLPC  H18Z19764   6.063   2.595   4.823  1.2752  0.1772 -0.7790
  175SLPC     N19765   2.110   3.729   6.949  0.5043 -0.2757  0.2585
  175SLPC   C1319766   2.107   3.593   7.025 -0.8405 -0.7345  0.3080
  175SLPC  H13A19767   2.004   3.562   7.025 -1.2479  0.5342  1.3107
  175SLPC  H13B19768   2.168   3.516   6.981  0.8147  1.1419 -0.8807
  175SLPC  H13C19769   2.145   3.603   7.125 -0.7442 -0.7270  0.2712
  175SLPC   C1419770   2.245   3.786   6.929  0.3708  0.8871 -0.1580
  175SLPC  H14A19771   2.235   3.870   6.862 -4.3581 -0.5073 -1.6389
  175SLPC  H14B19772   2.299   3.809   7.019  0.5431 -1.0682  0.2817
  175SLPC  H14C19773   2.302   3.713   6.873 -0.1571  0.6000 -0.3366
  175SLPC   C1519774   2.034   3.825   7.037 -0.1410  0.8004  0.0872
  175SLPC  H15A19775   1.960   3.775   7.097 -0.0748  0.0556 -0.4460
  175SLPC  H15B19776   2.106   3.872   7.104  1.8027 -2.6955  0.6923
  175SLPC  H15C19777   1.980   3.904   6.987 -1.8866  0.9962  2.1256
  175SLPC   C1219778   2.042   3.709   6.815 -0.4461  0.1795 -0.0151
  175SLPC  H12A19779   1.941   3.684   6.842 -0.1016  0.1166  1.2925
  175SLPC  H12B19780   2.093   3.625   6.769 -1.9148 -1.7040  1.6376
  175SLPC   C1119781   2.033   3.823   6.710 -0.5867  0.0916 -0.0023
  175SLPC  H11A19782   1.964   3.784   6.632 -0.3347 -0.7249  0.1743
  175SLPC  H11B19783   2.134   3.833   6.664 -0.0507  2.3244  1.4880
  175SLPC     P19784   2.067   4.076   6.764  0.0160  0.2045  0.0866
  175SLPC   O1319785   2.025   4.171   6.872  0.5876  0.0182  0.6543
  175SLPC   O1419786   2.213   4.050   6.746 -0.3000  0.2415 -0.9593
  175SLPC   O1219787   1.986   3.945   6.768  0.3456  0.1706 -0.7321
  175SLPC   O1119788   2.011   4.135   6.637 -0.1936 -0.3530  0.3165
  175SLPC    C119789   1.873   4.161   6.620 -0.3418 -0.2021  0.2365
  175SLPC    HA19790   1.813   4.143   6.712  0.3002 -1.4125  0.4482
  175SLPC    HB19791   1.856   4.266   6.587  0.7061  0.1192  0.7004
  175SLPC    C219792   1.812   4.061   6.525  0.0586 -0.8460  0.3542
  175SLPC    HS19793   1.846   3.958   6.550 -0.8401 -0.6176  2.7683
  175SLPC   O2119794   1.867   4.111   6.394  0.3986 -0.0818 -0.3345
  175SLPC   C2119795   1.913   4.011   6.322 -0.2162  0.0989 -0.0558
  175SLPC   O2219796   1.911   3.893   6.343 -0.1661  0.8514 -0.2447
  175SLPC   C2219797   1.973   4.067   6.195  0.1441  0.3292 -0.9514
  175SLPC   H2R19798   1.901   4.103   6.119  0.2104  2.6420  0.0133
  175SLPC   H2S19799   2.024   4.161   6.224 -0.5177  0.2787  0.4486
  175SLPC    C319800   1.658   4.068   6.518 -0.0270 -1.0608 -0.0343
  175SLPC    HX19801   1.625   4.174   6.504 -1.2957 -1.4318  0.0350
  175SLPC    HY19802   1.624   4.041   6.620 -1.1603 -0.1136 -0.1351
  175SLPC   O3119803   1.589   3.997   6.417  0.1101  0.0887  0.5743
  175SLPC   C3119804   1.525   3.888   6.445 -1.1471 -0.7956  0.4687
  175SLPC   O3219805   1.505   3.854   6.560 -0.2369 -0.0730 -0.9379
  175SLPC   C3219806   1.493   3.815   6.320 -0.0655  0.1425 -0.2699
  175SLPC   H2X19807   1.397   3.856   6.283 -0.3480  0.1222  0.4316
  175SLPC   H2Y19808   1.478   3.711   6.358  2.0482  0.4672  1.6606
  175SLPC   C2319809   2.081   3.984   6.131  0.3393  0.0425  0.0839
  175SLPC   H3R19810   2.058   3.875   6.134 -2.3553  0.5153 -0.5993
  175SLPC   H3S19811   2.182   4.000   6.176  0.6350  0.2338 -0.6290
  175SLPC   C2419812   2.095   4.027   5.983  0.6076 -0.1444  0.0455
  175SLPC   H4R19813   2.196   4.001   5.944 -0.0442  0.2278 -2.0194
  175SLPC   H4S19814   2.082   4.137   5.975 -1.0009 -0.2768  0.6349
  175SLPC   C2519815   1.986   3.974   5.887  0.8976  0.0108  0.5421
  175SLPC   H5R19816   1.906   4.049   5.905 -0.1677 -0.9768  0.0300
  175SLPC   H5S19817   1.953   3.870   5.909  0.4336  0.2607  1.0422
  175SLPC   C2619818   2.022   3.996   5.739  0.5068  0.8960  0.0961
  175SLPC   H6R19819   2.076   3.908   5.699 -1.6206  0.0372 -1.0429
  175SLPC   H6S19820   2.078   4.093   5.735  0.5853  0.8034 -1.3978
  175SLPC   C2719821   1.905   4.007   5.642  0.3424 -0.7451  1.2110
  175SLPC   H7R19822   1.842   4.094   5.673  1.4523  0.7878 -0.6392
  175SLPC   H7S19823   1.851   3.911   5.654 -2.0073  0.4662  1.0277
  175SLPC   C2819824   1.942   4.027   5.492  0.6964  0.0404  0.4840
  175SLPC   H8R19825   2.017   3.952   5.459  0.4119  0.4890 -1.2813
  175SLPC   H8S19826   1.993   4.125   5.484 -0.2870  0.5578  0.4314
  175SLPC   C2919827   1.811   4.014   5.413 -0.3509 -0.3331  0.6947
  175SLPC   H9R19828   1.756   3.919   5.417 -2.4248  0.8345  1.0054
  175SLPC  C21019829   1.766   4.107   5.326 -0.0914 -0.9771  0.2306
  175SLPC  H10R19830   1.677   4.095   5.262  1.5818  2.5085 -3.1685
  175SLPC  C21119831   1.821   4.243   5.299 -0.3682  0.2824 -0.0047
  175SLPC  H11R19832   1.830   4.254   5.188  1.6159  1.5060  0.2298
  175SLPC  H11S19833   1.925   4.253   5.338  0.6035  0.3628 -2.3877
  175SLPC  C21219834   1.738   4.357   5.355 -0.9907  0.1809  0.0713
  175SLPC  H12R19835   1.663   4.405   5.290 -0.7476 -0.1061 -0.4334
  175SLPC  C21319836   1.768   4.424   5.468 -0.1317 -0.0843 -0.5222
  175SLPC  H13R19837   1.702   4.506   5.499 -0.6815 -0.5852 -0.3619
  175SLPC  C21419838   1.875   4.405   5.574 -0.4637  0.3658  0.6037
  175SLPC  H14R19839   1.967   4.462   5.547 -1.2808  0.3324 -2.8220
  175SLPC  H14S19840   1.908   4.299   5.566 -2.2851 -0.4038  2.4965
  175SLPC  C21519841   1.832   4.417   5.714 -0.0376 -0.2470  0.1753
  175SLPC  H15R19842   1.749   4.351   5.750  0.3153 -0.6837  0.1925
  175SLPC  H15S19843   1.803   4.523   5.728 -0.2537 -0.2893  0.0592
  175SLPC  C21619844   1.942   4.389   5.820 -0.0484  0.1255  0.7365
  175SLPC  H16R19845   2.032   4.444   5.786 -1.0827  2.8067  2.0646
  175SLPC  H16S19846   1.969   4.281   5.823  2.1726  0.6329  4.5753
  175SLPC  C21719847   1.901   4.435   5.961  0.8088  0.6686 -0.3466
  175SLPC  H17R19848   1.824   4.363   5.996  0.1463  2.0073  1.0506
  175SLPC  H17S19849   1.856   4.537   5.954 -0.9990 -0.1294 -0.8182
  175SLPC  C21819850   2.021   4.446   6.055 -0.1638  0.0114  0.6592
  175SLPC  H18R19851   2.068   4.345   6.065  0.0283 -0.0076 -0.3803
  175SLPC  H18S19852   1.984   4.485   6.152 -1.9667  0.1854 -0.0775
  175SLPC  H18T19853   2.091   4.524   6.017 -2.7036  1.4391 -1.3554
  175SLPC   C3319854   1.598   3.796   6.211 -0.9973 -0.2704  0.2576
  175SLPC   H3X19855   1.695   3.754   6.244  0.1233  2.5539  0.8783
  175SLPC   H3Y19856   1.609   3.900   6.174 -3.7019  0.7066  1.9059
  175SLPC   C3419857   1.557   3.720   6.082  0.4424  0.7893 -0.2383
  175SLPC   H4X19858   1.488   3.791   6.030  1.8958  0.8161 -2.2405
  175SLPC   H4Y19859   1.506   3.626   6.113 -0.3648  1.1855 -0.3225
  175SLPC   C3519860   1.679   3.696   5.990  0.1854  0.8565  0.1121
  175SLPC   H5X19861   1.746   3.623   6.041 -0.1948 -0.4882 -1.2264
  175SLPC   H5Y19862   1.724   3.793   5.960  0.9469  0.2330 -0.8416
  175SLPC   C3619863   1.637   3.621   5.856 -0.1927 -0.1834  0.1890
  175SLPC   H6X19864   1.573   3.692   5.801 -0.3637  0.2467  0.9311
  175SLPC   H6Y19865   1.571   3.538   5.890 -1.2626  0.6169  0.0910
  175SLPC   C3719866   1.763   3.570   5.782  0.2652 -0.3191 -0.6132
  175SLPC   H7X19867   1.822   3.524   5.864  1.3646  0.3032 -1.0358
  175SLPC   H7Y19868   1.828   3.647   5.735  2.4972 -1.9591 -0.3743
  175SLPC   C3819869   1.737   3.460   5.675 -0.5763  0.0012 -0.2103
  175SLPC   H8X19870   1.663   3.393   5.724  0.8705 -2.8328 -1.6386
  175SLPC   H8Y19871   1.832   3.403   5.664 -1.4577 -2.4424  3.2691
  175SLPC   C3919872   1.668   3.503   5.547 -0.1381  0.7083 -0.4559
  175SLPC   H9X19873   1.577   3.564   5.565 -0.5704 -0.7985  3.5831
  175SLPC   H9Y19874   1.633   3.408   5.501  1.1993  1.0699 -2.2919
  175SLPC  C31019875   1.773   3.570   5.451 -0.1741 -0.2095 -0.0291
  175SLPC  H10X19876   1.872   3.521   5.461 -0.9653 -1.4665  2.3059
  175SLPC  H10Y19877   1.787   3.674   5.489  0.5105 -1.1931  2.6112
  175SLPC  C31119878   1.721   3.581   5.307  0.6136  0.0778  0.0901
  175SLPC  H11X19879   1.632   3.648   5.301 -0.6606 -1.5610 -0.1871
  175SLPC  H11Y19880   1.683   3.484   5.270  1.1361  0.2390 -0.9110
  175SLPC  C31219881   1.828   3.622   5.210  0.5671  0.1199  0.3245
  175SLPC  H12X19882   1.914   3.552   5.203 -0.1148 -0.7378  0.2675
  175SLPC  H12Y19883   1.865   3.721   5.243 -1.3580 -0.0009  3.2506
  175SLPC  C31319884   1.782   3.644   5.063  0.1734  0.7662  0.3578
  175SLPC  H13X19885   1.733   3.554   5.021  1.9930  1.0155 -2.6459
  175SLPC  H13Y19886   1.862   3.680   4.995 -0.6181 -0.9680 -1.5951
  175SLPC  C31419887   1.683   3.766   5.051 -0.6815 -0.2179 -1.0436
  175SLPC  H14X19888   1.738   3.856   5.086 -0.8681 -0.3441 -0.4054
  175SLPC  H14Y19889   1.595   3.753   5.118  1.9303 -1.8417  2.3823
  175SLPC  C31519890   1.637   3.795   4.909 -0.1437 -0.2427  0.2077
  175SLPC  H15X19891   1.577   3.707   4.876 -0.1233  0.0819 -0.7288
  175SLPC  H15Y19892   1.725   3.814   4.845 -1.3180  1.5808 -0.9765
  175SLPC  C31619893   1.558   3.928   4.902 -0.6752 -0.2420  0.0829
  175SLPC  H16X19894   1.473   3.915   4.972 -0.2430 -0.4581  0.5759
  175SLPC  H16Y19895   1.514   3.925   4.800 -0.9745 -2.4633  0.2417
  175SLPC  C31719896   1.636   4.059   4.921  0.1292  0.5438  0.1222
  175SLPC  H17X19897   1.705   4.065   4.834  1.2185  0.0741  0.9359
  175SLPC  H17Y19898   1.689   4.054   5.018 -2.6827  3.2378  1.9695
  175SLPC  C31819899   1.547   4.185   4.931  0.3310  0.0915 -0.0702
  175SLPC  H18X19900   1.459   4.174   4.998  0.3146  0.9485  0.0603
  175SLPC  H18Y19901   1.516   4.204   4.826 -0.2266  1.4673  0.3266
  175SLPC  H18Z19902   1.615   4.264   4.970  1.5447 -0.1240 -1.6794
  176SLPC     N19903   0.252   0.722   6.835  0.2912 -0.5945  0.0975
  176SLPC   C1319904   0.212   0.606   6.750  0.6790  0.6401 -0.5459
  176SLPC  H13A19905   0.141   0.630   6.673 -0.4761  1.5374  0.7369
  176SLPC  H13B19906   0.295   0.568   6.693  2.2451  1.6794  0.9432
  176SLPC  H13C19907   0.172   0.529   6.815 -1.7866  2.0793 -0.2258
  176SLPC   C1419908   0.349   0.691   6.936  0.1455  0.1778 -0.0082
  176SLPC  H14A19909   0.314   0.610   6.998  1.6340  1.2595  2.3873
  176SLPC  H14B19910   0.440   0.647   6.898 -0.2743  0.0466 -0.8929
  176SLPC  H14C19911   0.373   0.779   6.994 -1.9304  0.4318  0.5596
  176SLPC   C1519912   0.123   0.772   6.906  0.1684 -0.3697 -0.0029
  176SLPC  H15A19913   0.055   0.808   6.830 -1.6826  0.4628  1.9556
  176SLPC  H15B19914   0.076   0.689   6.955  0.0970 -1.2068 -1.4221
  176SLPC  H15C19915   0.137   0.851   6.978  0.6199 -1.1266  0.7629
  176SLPC   C1219916   0.295   0.836   6.743  0.5515 -0.7173  0.2129
  176SLPC  H12A19917   0.393   0.816   6.702  0.9586 -0.5550  1.0834
  176SLPC  H12B19918   0.315   0.922   6.805 -1.5779 -0.0609  0.0661
  176SLPC   C1119919   0.198   0.894   6.633  0.3003 -0.4674 -0.1581
  176SLPC  H11A19920   0.168   0.817   6.558 -0.1171  1.2077 -1.7852
  176SLPC  H11B19921   0.255   0.963   6.566  1.8906 -0.6098  0.9944
  176SLPC     P19922   0.094   1.105   6.746 -0.8716 -0.1931 -0.2964
  176SLPC   O1319923  -0.035   1.142   6.808 -0.1434 -0.6261  0.1052
  176SLPC   O1419924   0.214   1.117   6.837  0.4950 -0.1488  0.3866
  176SLPC   O1219925   0.086   0.964   6.683 -0.0758  0.0163  0.1217
  176SLPC   O1119926   0.118   1.194   6.618  0.1884 -0.5585 -0.3675
  176SLPC    C119927  -0.004   1.232   6.552  0.2255  0.3117  0.5674
  176SLPC    HA19928  -0.081   1.153   6.542  0.2619  0.2540  0.7435
  176SLPC    HB19929  -0.045   1.320   6.606 -0.4877 -0.5441  1.4465
  176SLPC    C219930   0.043   1.264   6.405 -0.2314  1.1356 -0.1600
  176SLPC    HS19931  -0.041   1.294   6.338  1.0771 -0.0988 -2.4519
  176SLPC   O2119932   0.099   1.149   6.353  0.5541 -0.0645  0.6182
  176SLPC   C2119933   0.010   1.056   6.309  0.1710 -0.7853  0.2606
  176SLPC   O2219934  -0.117   1.065   6.320 -0.2440 -0.7058 -0.3222
  176SLPC   C2219935   0.089   0.954   6.234  0.5041  0.1369 -0.7575
  176SLPC   H2R19936   0.134   0.893   6.316 -2.0579 -1.5981 -0.5256
  176SLPC   H2S19937   0.013   0.888   6.187 -1.2653  1.0111  0.7469
  176SLPC    C319938   0.137   1.381   6.412 -0.2407  0.1409  0.2319
  176SLPC    HX19939   0.228   1.364   6.473 -0.2919  0.9633  0.5601
  176SLPC    HY19940   0.079   1.457   6.470 -1.0155 -0.5462  0.3693
  176SLPC   O3119941   0.164   1.427   6.278 -0.0650  0.0327  0.0561
  176SLPC   C3119942   0.281   1.375   6.221  0.4162 -0.5188 -0.4042
  176SLPC   O3219943   0.367   1.310   6.278 -0.1931  0.1583 -0.3327
  176SLPC   C3219944   0.272   1.397   6.066 -0.4208 -0.0033 -1.0259
  176SLPC   H2X19945   0.279   1.507   6.048 -0.0717 -0.0829 -1.3905
  176SLPC   H2Y19946   0.173   1.357   6.035  0.6284 -2.8921 -0.9591
  176SLPC   C2319947   0.204   1.006   6.150  0.8651 -0.0133  0.1489
  176SLPC   H3R19948   0.286   0.932   6.138  1.5235  0.9684 -1.7883
  176SLPC   H3S19949   0.259   1.091   6.195  1.4772 -0.0803 -0.4474
  176SLPC   C2419950   0.161   1.035   6.003  0.2672 -0.6019  0.6760
  176SLPC   H4R19951   0.228   1.102   5.944 -0.8283 -0.1359 -0.0751
  176SLPC   H4S19952   0.061   1.084   6.005  1.2832  1.5718  0.3778
  176SLPC   C2519953   0.171   0.903   5.916 -0.5353  0.4570 -1.0969
  176SLPC   H5R19954   0.113   0.913   5.822 -1.6156 -1.8939 -0.7483
  176SLPC   H5S19955   0.127   0.819   5.974 -0.7224  1.1962 -0.1508
  176SLPC   C2619956   0.316   0.867   5.882  0.1923 -0.0474 -0.2484
  176SLPC   H6R19957   0.374   0.828   5.968  2.9331 -1.4278 -2.5505
  176SLPC   H6S19958   0.379   0.950   5.843  0.4727 -0.6952 -1.2098
  176SLPC   C2719959   0.311   0.759   5.779  0.1178 -0.2594  0.7592
  176SLPC   H7R19960   0.254   0.790   5.689  1.6233 -1.1772 -0.5411
  176SLPC   H7S19961   0.256   0.668   5.811  3.1986 -2.0759  1.2942
  176SLPC   C2819962   0.453   0.724   5.713 -0.7613 -0.5463  0.0704
  176SLPC   H8R19963   0.427   0.635   5.652  0.7538 -0.3561 -0.9016
  176SLPC   H8S19964   0.511   0.687   5.800 -2.7431 -0.8052  1.3458
  176SLPC   C2919965   0.526   0.827   5.631 -0.3336 -0.0608 -0.2879
  176SLPC   H9R19966   0.584   0.900   5.689  0.4771 -0.8806 -0.0536
  176SLPC  C21019967   0.513   0.850   5.504 -0.6371  0.2357  0.4048
  176SLPC  H10R19968   0.571   0.936   5.469  0.1718  0.6036  2.4733
  176SLPC  C21119969   0.432   0.776   5.402 -0.2297  1.0185 -0.7006
  176SLPC  H11R19970   0.407   0.674   5.437  1.0892  0.4706 -1.2948
  176SLPC  H11S19971   0.496   0.764   5.313  1.8373  0.6460  0.7519
  176SLPC  C21219972   0.302   0.836   5.365 -0.1315 -0.8884 -0.4886
  176SLPC  H12R19973   0.250   0.881   5.451  1.7729  1.2250 -0.3715
  176SLPC  C21319974   0.256   0.860   5.240  0.1088  0.2483  0.1821
  176SLPC  H13R19975   0.156   0.900   5.218 -0.2432 -0.4498  0.4865
  176SLPC  C21419976   0.326   0.805   5.114 -0.0474  0.4858 -0.3820
  176SLPC  H14R19977   0.351   0.699   5.137  4.5697  1.0638 -1.7163
  176SLPC  H14S19978   0.420   0.864   5.109  0.9737 -0.9055  1.0591
  176SLPC  C21519979   0.235   0.815   4.979 -0.5909  0.6824 -0.3134
  176SLPC  H15R19980   0.223   0.923   4.957  0.7169  1.2767  1.6298
  176SLPC  H15S19981   0.140   0.759   4.993 -0.8725  0.4355 -2.8611
  176SLPC  C21619982   0.299   0.743   4.866  0.7368 -0.1205 -0.0813
  176SLPC  H16R19983   0.300   0.633   4.878  1.9281  0.0522  1.9310
  176SLPC  H16S19984   0.404   0.779   4.864  0.6825  0.1489  1.0760
  176SLPC  C21719985   0.232   0.778   4.730 -0.0290  0.0579  0.0955
  176SLPC  H17R19986   0.247   0.886   4.711 -4.2434  1.1824  2.1135
  176SLPC  H17S19987   0.122   0.765   4.733 -0.1961  1.5407  1.3004
  176SLPC  C21819988   0.280   0.682   4.621 -0.6766 -0.2446 -0.5194
  176SLPC  H18R19989   0.385   0.710   4.596 -0.4967 -0.0665  0.3834
  176SLPC  H18S19990   0.212   0.697   4.535  0.3581  1.9797 -1.0356
  176SLPC  H18T19991   0.264   0.581   4.665 -3.5873  1.0655  1.7176
  176SLPC   C3319992   0.380   1.323   5.981 -0.4709  0.2406  0.0384
  176SLPC   H3X19993   0.390   1.216   6.010 -0.9191  0.3425  0.5876
  176SLPC   H3Y19994   0.478   1.367   6.008  0.6398 -1.2604 -1.3190
  176SLPC   C3419995   0.350   1.330   5.830  0.1438  0.1555 -0.3799
  176SLPC   H4X19996   0.253   1.276   5.819  0.5134 -0.6724  0.2918
  176SLPC   H4Y19997   0.429   1.276   5.773 -0.4737 -0.8097 -0.3526
  176SLPC   C3519998   0.351   1.473   5.767  0.2391 -0.3281 -0.5559
  176SLPC   H5X19999   0.457   1.506   5.768 -0.3042  1.4984  0.6066
  176SLPC   H5Y20000   0.298   1.543   5.835  1.1371  1.2700 -1.4485
  176SLPC   C3620001   0.306   1.482   5.622 -0.5262 -1.1164 -0.1578
  176SLPC   H6X20002   0.204   1.441   5.614 -1.0376  0.1507 -0.3207
  176SLPC   H6Y20003   0.373   1.423   5.555  2.1646  1.2634  0.2204
  176SLPC   C3720004   0.299   1.633   5.586 -0.1972  0.3726  0.7578
  176SLPC   H7X20005   0.386   1.690   5.626 -0.5043  1.8293 -0.5340
  176SLPC   H7Y20006   0.208   1.664   5.640 -0.5868  0.4104  0.0977
  176SLPC   C3820007   0.278   1.662   5.442  0.3271  0.5550  0.3066
  176SLPC   H8X20008   0.236   1.764   5.438  1.8419  1.1892  0.0038
  176SLPC   H8Y20009   0.209   1.588   5.395  1.5182 -0.1318 -0.4168
  176SLPC   C3920010   0.408   1.663   5.365 -0.8979 -0.8090  0.3589
  176SLPC   H9X20011   0.468   1.571   5.383  1.3419  0.7428  1.1864
  176SLPC   H9Y20012   0.475   1.744   5.401  0.0412 -0.1819 -2.5384
  176SLPC  C31020013   0.396   1.700   5.219  0.3523  0.4006  0.0646
  176SLPC  H10X20014   0.301   1.654   5.185  1.6695 -2.6863  0.2397
  176SLPC  H10Y20015   0.471   1.639   5.164 -1.6219 -2.0048 -0.1440
  176SLPC  C31120016   0.399   1.851   5.187  0.1222 -0.6651  0.3656
  176SLPC  H11X20017   0.503   1.890   5.190  0.5634 -1.5119 -2.0302
  176SLPC  H11Y20018   0.330   1.892   5.263  0.2210  1.2212 -0.5152
  176SLPC  C31220019   0.353   1.898   5.051 -0.2815 -0.1135 -0.4142
  176SLPC  H12X20020   0.251   1.862   5.028 -1.5755  2.2569  1.2439
  176SLPC  H12Y20021   0.420   1.840   4.983  0.0467  0.7462 -0.8425
  176SLPC  C31320022   0.354   2.049   5.037 -0.2416 -0.4570 -0.3131
  176SLPC  H13X20023   0.447   2.071   4.981  0.5911  0.8259  1.4552
  176SLPC  H13Y20024   0.355   2.104   5.134 -2.6284 -0.4420 -0.2471
  176SLPC  C31420025   0.233   2.103   4.971  1.0993  0.5640  0.0948
  176SLPC  H14X20026   0.144   2.084   5.035  0.8843 -4.9526 -1.3305
  176SLPC  H14Y20027   0.213   2.058   4.871  0.1719 -1.0231  0.9548
  176SLPC  C31520028   0.240   2.256   4.967  1.0235 -0.8552  0.1709
  176SLPC  H15X20029   0.330   2.281   4.907  0.3244 -1.1499 -1.0293
  176SLPC  H15Y20030   0.248   2.293   5.072  0.7689  0.6211 -0.2930
  176SLPC  C31620031   0.107   2.319   4.901  0.7683  0.0887  0.9141
  176SLPC  H16X20032   0.125   2.429   4.903  0.0907  0.2146  0.1920
  176SLPC  H16Y20033   0.020   2.288   4.962  1.0758 -0.3619  1.1319
  176SLPC  C31720034   0.087   2.288   4.750  0.0971  0.5446  0.5020
  176SLPC  H17X20035   0.048   2.184   4.749 -1.4244  1.0921 -0.2188
  176SLPC  H17Y20036   0.186   2.289   4.700 -0.5625  1.5322 -0.8248
  176SLPC  C31820037  -0.003   2.392   4.678  0.0333 -0.1680  0.0037
  176SLPC  H18X20038  -0.060   2.348   4.594  2.3044  0.6044 -2.0497
  176SLPC  H18Y20039   0.065   2.462   4.625 -0.8708  0.3804 -0.4617
  176SLPC  H18Z20040  -0.067   2.450   4.749  1.8095 -2.3619  3.7061
  177SLPC     N20041   0.710   1.643   7.044 -0.1136 -0.8525  0.1878
  177SLPC   C1320042   0.796   1.709   7.147 -0.3381 -0.8169  0.3983
  177SLPC  H13A20043   0.813   1.809   7.110 -3.7391 -0.6697 -1.1077
  177SLPC  H13B20044   0.753   1.704   7.246  1.3061 -0.8803  1.1430
  177SLPC  H13C20045   0.888   1.652   7.155 -0.0227 -0.4279 -0.3923
  177SLPC   C1420046   0.572   1.684   7.056 -0.5197  0.1600  0.4575
  177SLPC  H14A20047   0.569   1.791   7.067  1.0471  0.1289  1.5341
  177SLPC  H14B20048   0.512   1.659   6.969 -0.9931  1.2659  0.4567
  177SLPC  H14C20049   0.539   1.635   7.146 -0.8793 -0.2342  0.1198
  177SLPC   C1520050   0.712   1.495   7.069 -0.8324  0.0403 -0.1496
  177SLPC  H15A20051   0.660   1.461   7.157 -1.0870 -2.0346 -1.0478
  177SLPC  H15B20052   0.669   1.447   6.983  0.4372  0.9633 -1.3496
  177SLPC  H15C20053   0.814   1.461   7.078 -0.5333  0.3608 -1.9592
  177SLPC   C1220054   0.773   1.668   6.906  0.3117  0.3561  0.0855
  177SLPC  H12A20055   0.726   1.611   6.828 -1.0570 -1.2307  1.9809
  177SLPC  H12B20056   0.878   1.641   6.909  0.2102 -0.7578 -3.0360
  177SLPC   C1120057   0.791   1.819   6.874  0.1923 -0.5822  0.1761
  177SLPC  H11A20058   0.706   1.885   6.902 -0.8871 -2.1263  0.7106
  177SLPC  H11B20059   0.798   1.833   6.764 -0.1454 -2.3429 -0.0985
  177SLPC     P20060   1.042   1.862   6.890  0.2126  0.4229  0.2337
  177SLPC   O1320061   1.131   1.959   6.945 -0.5414  0.5235 -0.2747
  177SLPC   O1420062   1.069   1.720   6.907  0.5388  0.2195 -0.0796
  177SLPC   O1220063   0.898   1.893   6.940 -0.2199 -0.3484  0.1297
  177SLPC   O1120064   1.022   1.883   6.731  0.5731  0.4869  0.5101
  177SLPC    C120065   1.089   1.998   6.667  0.3511 -0.0979  0.3538
  177SLPC    HA20066   1.087   2.083   6.738  2.2626 -0.0933  0.4686
  177SLPC    HB20067   1.193   1.976   6.634 -0.5999 -0.0680 -3.0278
  177SLPC    C220068   1.017   2.042   6.535  0.4249  1.0631  0.0524
  177SLPC    HS20069   1.060   2.131   6.486 -0.1607  1.6405  0.5731
  177SLPC   O2120070   0.877   2.053   6.566  0.1573 -0.0176  0.2016
  177SLPC   C2120071   0.834   2.169   6.608  0.3990 -0.5937  0.2484
  177SLPC   O2220072   0.905   2.263   6.628 -0.4510  0.8190  0.2954
  177SLPC   C2220073   0.682   2.179   6.630  0.1899 -0.7100 -0.2250
  177SLPC   H2R20074   0.656   2.096   6.700 -0.7432 -1.6514 -1.6334
  177SLPC   H2S20075   0.663   2.278   6.678 -2.7492 -1.5647  0.5969
  177SLPC    C320076   1.026   1.926   6.432  0.1119  0.3696 -0.1186
  177SLPC    HX20077   0.956   1.849   6.472 -0.3242 -0.2579 -1.9769
  177SLPC    HY20078   1.127   1.879   6.423 -0.9236 -1.7018 -1.8106
  177SLPC   O3120079   0.973   1.963   6.301 -0.8742 -0.6601  0.1302
  177SLPC   C3120080   1.058   2.034   6.220 -0.5137  0.4202 -0.3401
  177SLPC   O3220081   1.174   2.051   6.237 -0.9318  0.3533 -0.5727
  177SLPC   C3220082   0.977   2.071   6.102 -0.0860 -0.2298  0.2861
  177SLPC   H2X20083   0.954   2.179   6.116 -0.2938 -0.4146  1.5327
  177SLPC   H2Y20084   0.881   2.016   6.114 -0.5461  0.2072 -1.1642
  177SLPC   C2320085   0.603   2.166   6.501  0.4012  0.0144 -0.2925
  177SLPC   H3R20086   0.492   2.178   6.507  0.2332 -1.0191 -1.0407
  177SLPC   H3S20087   0.615   2.063   6.460 -2.0137 -1.1513  1.6234
  177SLPC   C2420088   0.635   2.273   6.398 -0.2900  0.0089  0.3249
  177SLPC   H4R20089   0.574   2.238   6.311  0.6966 -1.8576  0.3460
  177SLPC   H4S20090   0.742   2.275   6.371 -0.0146 -0.5891  1.3284
  177SLPC   C2520091   0.589   2.413   6.437 -0.1357 -0.8242 -0.1705
  177SLPC   H5R20092   0.654   2.443   6.522  1.0098  2.5281 -2.0273
  177SLPC   H5S20093   0.485   2.419   6.473  0.1310  2.8334  0.3983
  177SLPC   C2620094   0.609   2.510   6.319 -0.0847  0.4315 -0.4364
  177SLPC   H6R20095   0.556   2.484   6.226  0.1493  1.5034 -0.8880
  177SLPC   H6S20096   0.714   2.520   6.285  0.3684  0.6198  0.9547
  177SLPC   C2720097   0.562   2.653   6.352  1.0342 -0.1378  0.3425
  177SLPC   H7R20098   0.601   2.693   6.448 -0.0260 -0.4992  0.9477
  177SLPC   H7S20099   0.454   2.637   6.375  1.0710 -2.3005 -0.7433
  177SLPC   C2820100   0.585   2.747   6.220 -0.0734  0.0021  0.4719
  177SLPC   H8R20101   0.516   2.834   6.230  0.5758  0.9058 -2.1540
  177SLPC   H8S20102   0.566   2.708   6.118 -0.6812 -0.1803  0.6528
  177SLPC   C2920103   0.734   2.798   6.224  0.3041  0.3167  0.7170
  177SLPC   H9R20104   0.798   2.743   6.294 -0.7041 -1.4462  0.3323
  177SLPC  C21020105   0.767   2.916   6.170 -0.2530  0.3740  0.0803
  177SLPC  H10R20106   0.862   2.968   6.188  0.0347 -0.4085  0.8843
  177SLPC  C21120107   0.677   3.008   6.086 -0.3078  0.3704  0.2912
  177SLPC  H11R20108   0.615   2.946   6.018 -0.5136 -0.3236  1.1118
  177SLPC  H11S20109   0.733   3.069   6.012 -1.1190 -0.7616 -1.3225
  177SLPC  C21220110   0.594   3.108   6.170 -0.2019 -0.1127 -0.6579
  177SLPC  H12R20111   0.628   3.134   6.271  0.0546  0.3067 -0.8526
  177SLPC  C21320112   0.481   3.180   6.123 -0.6986 -0.5996  0.2086
  177SLPC  H13R20113   0.418   3.244   6.187  0.3663  0.8678 -0.1541
  177SLPC  C21420114   0.434   3.174   5.985 -0.0846  0.2677  0.3411
  177SLPC  H14R20115   0.443   3.070   5.948  0.4221 -0.5625  2.6713
  177SLPC  H14S20116   0.492   3.242   5.919  1.5742 -1.7632 -0.3922
  177SLPC  C21520117   0.293   3.230   5.978 -0.7603  1.2473 -0.2547
  177SLPC  H15R20118   0.254   3.223   5.874 -2.3724 -0.0117  0.3969
  177SLPC  H15S20119   0.294   3.336   6.009  0.7190  1.0108  0.5574
  177SLPC  C21620120   0.185   3.141   6.044 -0.2077  0.0248 -0.3125
  177SLPC  H16R20121   0.209   3.151   6.152  1.9628 -0.1687 -0.7299
  177SLPC  H16S20122   0.202   3.038   6.004 -1.5191  0.5643 -2.4075
  177SLPC  C21720123   0.041   3.179   6.014 -0.1811 -0.2295  0.2667
  177SLPC  H17R20124   0.028   3.289   6.022  0.5477 -0.2066  1.3172
  177SLPC  H17S20125  -0.023   3.128   6.088 -0.7337 -0.1392 -0.1386
  177SLPC  C21820126  -0.001   3.137   5.875 -0.1423  0.1697  0.2643
  177SLPC  H18R20127   0.018   3.212   5.795 -2.5821 -0.7854 -1.3393
  177SLPC  H18S20128  -0.111   3.121   5.879 -0.2155  0.7523  0.6470
  177SLPC  H18T20129   0.034   3.036   5.845 -1.4898 -0.4496  0.6811
  177SLPC   C3320130   1.048   2.035   5.973 -0.4763  0.2186  0.4965
  177SLPC   H3X20131   1.053   1.924   5.970  0.3455  0.2648  0.0399
  177SLPC   H3Y20132   1.157   2.058   5.978 -0.0599 -1.6255  4.9093
  177SLPC   C3420133   0.971   2.088   5.853 -0.4460 -0.0318  0.2818
  177SLPC   H4X20134   0.960   2.196   5.880 -0.9135  0.7555 -2.7061
  177SLPC   H4Y20135   0.873   2.037   5.848  0.6963 -2.3968  0.7266
  177SLPC   C3520136   1.033   2.096   5.710 -0.4974 -0.0497 -0.1902
  177SLPC   H5X20137   1.043   1.997   5.662  1.1635 -0.3359  0.6746
  177SLPC   H5Y20138   1.137   2.131   5.727 -0.7556  0.3638  0.5984
  177SLPC   C3620139   0.968   2.199   5.619  0.3056 -0.2805 -0.5973
  177SLPC   H6X20140   0.953   2.284   5.689 -0.6721  0.0476 -1.1910
  177SLPC   H6Y20141   0.859   2.185   5.603 -0.3320  2.9481  0.1903
  177SLPC   C3720142   1.053   2.243   5.494  0.5690 -0.2133 -0.3141
  177SLPC   H7X20143   1.038   2.163   5.418  0.6507 -0.4339 -0.0952
  177SLPC   H7Y20144   1.162   2.229   5.509  0.6237 -2.3641 -2.1369
  177SLPC   C3820145   1.025   2.391   5.447 -0.3983  0.6353 -0.1429
  177SLPC   H8X20146   1.031   2.449   5.541 -0.1731  0.5478 -0.1023
  177SLPC   H8Y20147   0.921   2.400   5.410 -0.0973  1.6454 -0.7839
  177SLPC   C3920148   1.125   2.441   5.340  0.1602  0.2771 -0.3143
  177SLPC   H9X20149   1.221   2.453   5.394 -0.3150  0.3505  0.5389
  177SLPC   H9Y20150   1.101   2.548   5.319  0.0308  1.0068  2.9898
  177SLPC  C31020151   1.124   2.358   5.209 -1.3794  0.1463 -0.1089
  177SLPC  H10X20152   1.027   2.376   5.158 -2.0968  0.2695  1.2393
  177SLPC  H10Y20153   1.122   2.251   5.237 -0.3423 -0.4923 -2.2633
  177SLPC  C31120154   1.245   2.392   5.127  0.4595  0.0928  0.3451
  177SLPC  H11X20155   1.335   2.333   5.154  1.5802  1.7605  0.3912
  177SLPC  H11Y20156   1.271   2.498   5.150 -0.1099  0.0607  1.1940
  177SLPC  C31220157   1.221   2.383   4.972 -0.8924  0.2244 -0.1065
  177SLPC  H12X20158   1.152   2.469   4.961  3.4739  4.1153 -0.4466
  177SLPC  H12Y20159   1.182   2.279   4.960 -2.3649  0.6916  0.3884
  177SLPC  C31320160   1.346   2.399   4.887  0.9928 -0.7784  0.4890
  177SLPC  H13X20161   1.418   2.314   4.896  0.0367 -1.5268  1.3313
  177SLPC  H13Y20162   1.411   2.486   4.911  0.1716 -0.2936  1.0068
  177SLPC  C31420163   1.307   2.422   4.731  0.3617 -0.2833  0.1713
  177SLPC  H14X20164   1.228   2.499   4.720  1.5812  0.7354 -2.1388
  177SLPC  H14Y20165   1.257   2.330   4.692 -1.0312  0.5800 -0.1145
  177SLPC  C31520166   1.422   2.453   4.632  0.1375 -0.3382  0.8051
  177SLPC  H15X20167   1.508   2.385   4.648  0.9264 -1.0109 -4.4840
  177SLPC  H15Y20168   1.462   2.556   4.641  1.0573 -0.7004  0.9914
  177SLPC  C31620169   1.390   2.436   4.483 -0.0236  0.4544 -0.3776
  177SLPC  H16X20170   1.299   2.491   4.451  0.0198 -0.5145 -2.3042
  177SLPC  H16Y20171   1.361   2.332   4.458  0.9471  0.2454 -0.6790
  177SLPC  C31720172   1.504   2.451   4.387 -0.5834 -0.6561  0.0307
  177SLPC  H17X20173   1.603   2.423   4.428 -0.2438 -0.5826 -0.7171
  177SLPC  H17Y20174   1.525   2.559   4.372 -0.3301 -0.7742 -0.4894
  177SLPC  C31820175   1.482   2.373   4.256 -0.1970 -0.5419  0.0475
  177SLPC  H18X20176   1.448   2.269   4.275 -0.4727 -0.3039  0.9294
  177SLPC  H18Y20177   1.573   2.362   4.194 -1.5917 -0.1050 -2.1572
  177SLPC  H18Z20178   1.407   2.427   4.194 -0.5603  1.5782  2.1732
  178SLPC     N20179   5.589   6.386   6.541 -0.0172  0.0032  0.7676
  178SLPC   C1320180   5.596   6.404   6.395  0.0395  0.2346  0.3937
  178SLPC  H13A20181   5.504   6.398   6.338  0.3967 -0.7234 -0.1106
  178SLPC  H13B20182   5.636   6.502   6.374 -1.2433  1.0304  1.4853
  178SLPC  H13C20183   5.665   6.334   6.349 -1.4954 -0.5749 -0.7901
  178SLPC   C1420184   5.730   6.365   6.593  0.5277  0.4772  0.0309
  178SLPC  H14A20185   5.738   6.343   6.698 -0.8363 -1.4696 -0.2056
  178SLPC  H14B20186   5.765   6.278   6.539 -0.2320  1.2251 -1.7381
  178SLPC  H14C20187   5.796   6.447   6.569  0.9057  0.2994  0.4569
  178SLPC   C1520188   5.509   6.263   6.573  0.5129  0.1847 -0.0257
  178SLPC  H15A20189   5.512   6.250   6.680  2.1672  1.8269  0.1911
  178SLPC  H15B20190   5.412   6.273   6.527  0.5057  0.0196 -0.0492
  178SLPC  H15C20191   5.553   6.182   6.516 -1.2237  0.7395 -2.2852
  178SLPC   C1220192   5.528   6.514   6.604  0.1559  0.2398  0.1375
  178SLPC  H12A20193   5.595   6.592   6.572 -0.8538  0.6377 -1.0808
  178SLPC  H12B20194   5.544   6.507   6.711  0.8337  3.4632  0.3341
  178SLPC   C1120195   5.382   6.562   6.570 -0.0436  1.0839  0.4795
  178SLPC  H11A20196   5.380   6.615   6.472  0.1923  0.2444  0.0121
  178SLPC  H11B20197   5.350   6.642   6.640 -0.2280  1.5690 -0.1511
  178SLPC     P20198   5.184   6.420   6.683  0.0918 -0.1339 -0.3324
  178SLPC   O1320199   5.261   6.381   6.804  0.0116 -0.6596 -0.5024
  178SLPC   O1420200   5.079   6.526   6.689 -0.1576 -0.1042 -0.4445
  178SLPC   O1220201   5.285   6.454   6.567  0.6431  0.8699 -0.3818
  178SLPC   O1120202   5.114   6.288   6.631  0.0069  0.3583 -0.3099
  178SLPC    C120203   5.126   6.232   6.496 -0.7531 -0.3635 -0.1977
  178SLPC    HA20204   5.232   6.239   6.463 -0.8484 -0.5352 -0.5466
  178SLPC    HB20205   5.102   6.123   6.498  2.8158 -1.2613  0.1136
  178SLPC    C220206   5.025   6.284   6.396 -0.6043 -0.4232  0.4571
  178SLPC    HS20207   5.038   6.208   6.316 -0.0081 -2.1304  2.1032
  178SLPC   O2120208   5.044   6.413   6.349  0.1141 -0.0667 -0.1662
  178SLPC   C2120209   5.147   6.440   6.283  0.1817  0.3042  0.2571
  178SLPC   O2220210   5.231   6.362   6.238 -0.3552  0.4318  0.3373
  178SLPC   C2220211   5.146   6.590   6.255 -0.4475  0.2587  0.1468
  178SLPC   H2R20212   5.129   6.647   6.349 -1.6112  0.3560 -0.1033
  178SLPC   H2S20213   5.244   6.615   6.208 -0.2483  2.1131  1.4267
  178SLPC    C320214   4.892   6.276   6.468  0.6826 -0.2929  0.0193
  178SLPC    HX20215   4.897   6.348   6.552  0.2295  0.0975 -0.2759
  178SLPC    HY20216   4.878   6.180   6.520 -0.5045  0.7994  1.8205
  178SLPC   O3120217   4.780   6.308   6.388  0.0459 -0.2829 -0.0839
  178SLPC   C3120218   4.737   6.439   6.380 -0.3483  0.2966 -0.0254
  178SLPC   O3220219   4.801   6.537   6.410  0.2333 -0.0099  0.2224
  178SLPC   C3220220   4.593   6.437   6.329  0.1182 -0.4798  0.5414
  178SLPC   H2X20221   4.524   6.438   6.417 -1.8800  1.8566 -0.8876
  178SLPC   H2Y20222   4.576   6.338   6.282 -1.9260 -1.3453  2.8760
  178SLPC   C2320223   5.054   6.647   6.144 -0.8178  0.5796  0.1161
  178SLPC   H3R20224   5.040   6.758   6.144 -1.5361  0.4988  1.0564
  178SLPC   H3S20225   4.951   6.609   6.130 -0.4756 -0.1332 -0.5256
  178SLPC   C2420226   5.115   6.624   6.002 -0.1409 -0.9022 -0.2829
  178SLPC   H4R20227   5.041   6.572   5.937  0.2430 -3.0631  0.9403
  178SLPC   H4S20228   5.198   6.552   6.010 -1.0734 -1.9523  0.2088
  178SLPC   C2520229   5.145   6.760   5.937  0.3048 -0.2171  0.9592
  178SLPC   H5R20230   5.233   6.810   5.983 -1.7294  3.9128  0.7558
  178SLPC   H5S20231   5.061   6.832   5.949  1.6731  1.8521 -1.1826
  178SLPC   C2620232   5.178   6.744   5.787  0.2654 -0.3693 -0.1494
  178SLPC   H6R20233   5.238   6.654   5.761 -0.2073 -0.2410 -1.8368
  178SLPC   H6S20234   5.244   6.830   5.762  2.4146 -0.3639  4.4951
  178SLPC   C2720235   5.051   6.730   5.697  0.4241  0.0020  0.8662
  178SLPC   H7R20236   4.979   6.656   5.740  0.0037 -0.1010  0.0070
  178SLPC   H7S20237   5.089   6.698   5.598 -0.0451  1.6631  0.1236
  178SLPC   C2820238   4.965   6.855   5.677 -0.5953 -0.6189  0.1014
  178SLPC   H8R20239   4.934   6.891   5.777  1.7012 -0.2230  0.7334
  178SLPC   H8S20240   4.875   6.826   5.619 -0.6343 -0.6063  0.1556
  178SLPC   C2920241   5.038   6.969   5.603 -0.1907 -0.3223  0.1733
  178SLPC   H9R20242   5.118   7.008   5.668  0.8069 -0.7238 -0.7699
  178SLPC  C21020243   5.030   7.005   5.473 -0.3150  0.2897 -0.2412
  178SLPC  H10R20244   5.095   7.086   5.435  2.2761 -0.6283  1.9658
  178SLPC  C21120245   4.923   6.960   5.367  0.0755  0.6985  0.4334
  178SLPC  H11R20246   4.935   7.035   5.286 -0.1546 -0.0723 -0.3315
  178SLPC  H11S20247   4.821   6.953   5.412 -0.2267  0.2014 -0.3045
  178SLPC  C21220248   4.939   6.824   5.306  0.3115 -0.4767  0.3684
  178SLPC  H12R20249   5.015   6.758   5.351 -1.9367 -3.0217  0.6556
  178SLPC  C21320250   4.890   6.785   5.185 -0.5718  0.1483 -0.7647
  178SLPC  H13R20251   4.896   6.676   5.170  0.1614  0.0652  0.0797
  178SLPC  C21420252   4.799   6.864   5.088  0.4323  0.4854  0.1112
  178SLPC  H14R20253   4.783   6.968   5.126  0.4080  0.2205  0.8505
  178SLPC  H14S20254   4.698   6.818   5.093  1.0702 -1.1386 -1.2034
  178SLPC  C21520255   4.850   6.867   4.936  0.4511 -0.0104 -0.5727
  178SLPC  H15R20256   4.953   6.905   4.925  0.9840 -1.3339 -0.3671
  178SLPC  H15S20257   4.786   6.942   4.885 -0.1987 -0.1777 -0.0287
  178SLPC  C21620258   4.837   6.737   4.853 -0.4110 -0.6916 -0.5158
  178SLPC  H16R20259   4.732   6.701   4.858 -0.0550 -1.7380 -0.4397
  178SLPC  H16S20260   4.901   6.660   4.900 -2.1300 -0.8546  1.7798
  178SLPC  C21720261   4.869   6.760   4.700  0.1240  0.4843 -0.9368
  178SLPC  H17R20262   4.875   6.653   4.670  1.5421 -0.1770  1.4781
  178SLPC  H17S20263   4.968   6.805   4.680  0.1003  0.7692 -0.4321
  178SLPC  C21820264   4.762   6.840   4.628 -0.3716 -0.2264  0.3215
  178SLPC  H18R20265   4.660   6.811   4.664 -0.4742  1.5635  1.5897
  178SLPC  H18S20266   4.758   6.816   4.519  1.1864 -1.6404  0.5382
  178SLPC  H18T20267   4.762   6.949   4.650 -3.0546 -0.2077  0.6043
  178SLPC   C3320268   4.561   6.568   6.245 -0.5913  0.5690 -0.4177
  178SLPC   H3X20269   4.576   6.661   6.303 -0.8853 -0.1170  0.7976
  178SLPC   H3Y20270   4.451   6.568   6.233 -0.6224 -0.2678 -0.1970
  178SLPC   C3420271   4.651   6.583   6.123 -0.6084  0.3189 -0.0411
  178SLPC   H4X20272   4.736   6.512   6.122 -1.7916 -1.1700  0.8727
  178SLPC   H4Y20273   4.685   6.689   6.121  1.3712 -0.2712 -0.2602
  178SLPC   C3520274   4.571   6.561   5.993 -0.2776 -0.0359 -0.5332
  178SLPC   H5X20275   4.496   6.643   5.984  1.4711  1.7538  0.6521
  178SLPC   H5Y20276   4.523   6.461   6.004  0.5554 -0.4370 -0.4865
  178SLPC   C3620277   4.637   6.574   5.854 -0.3050  0.5765 -0.6356
  178SLPC   H6X20278   4.727   6.509   5.848 -2.0990 -2.0798 -0.6174
  178SLPC   H6Y20279   4.671   6.678   5.837 -0.7357  0.8480  0.1413
  178SLPC   C3720280   4.548   6.527   5.739  0.1555  0.1390  0.1195
  178SLPC   H7X20281   4.474   6.610   5.726 -0.5001 -0.0119  2.4355
  178SLPC   H7Y20282   4.495   6.434   5.766 -1.9797  1.3082  0.1955
  178SLPC   C3820283   4.628   6.511   5.613  0.5884 -0.6797  0.4694
  178SLPC   H8X20284   4.568   6.451   5.541 -0.5717  1.5404 -0.4970
  178SLPC   H8Y20285   4.726   6.467   5.642  0.9169 -0.6753 -0.5841
  178SLPC   C3920286   4.656   6.641   5.539 -0.4898  0.5093  0.3532
  178SLPC   H9X20287   4.726   6.604   5.461  1.9031  0.9994  2.1474
  178SLPC   H9Y20288   4.713   6.709   5.607  0.3370 -0.1752  0.3651
  178SLPC  C31020289   4.537   6.720   5.481 -0.4089 -0.3677 -0.5474
  178SLPC  H10X20290   4.565   6.826   5.497  0.1740 -0.4369 -1.1075
  178SLPC  H10Y20291   4.440   6.698   5.530 -1.2390  0.7743 -1.6095
  178SLPC  C31120292   4.524   6.700   5.329 -0.3518  0.5432  0.7772
  178SLPC  H11X20293   4.482   6.599   5.314 -1.4342  1.0327  0.4196
  178SLPC  H11Y20294   4.622   6.710   5.278  0.0768  0.3648  1.5541
  178SLPC  C31220295   4.429   6.809   5.273 -0.5685  0.1597  0.0449
  178SLPC  H12X20296   4.480   6.903   5.241  0.1948  0.0569  0.9135
  178SLPC  H12Y20297   4.350   6.841   5.344 -1.3485  0.4432 -0.9402
  178SLPC  C31320298   4.357   6.748   5.156 -0.1511  0.3982  0.1724
  178SLPC  H13X20299   4.286   6.826   5.122  1.8002  2.3186  0.2481
  178SLPC  H13Y20300   4.307   6.656   5.195 -0.7965  0.6366 -0.0880
  178SLPC  C31420301   4.437   6.702   5.039  0.5534 -0.2253  0.2101
  178SLPC  H14X20302   4.531   6.655   5.076  0.5758  0.0288  0.4835
  178SLPC  H14Y20303   4.474   6.795   4.992  0.7430 -0.6394 -0.4664
  178SLPC  C31520304   4.351   6.609   4.947 -0.0462  0.1152 -0.0942
  178SLPC  H15X20305   4.318   6.526   5.014 -0.2447 -0.1272 -0.4861
  178SLPC  H15Y20306   4.418   6.551   4.879 -0.2905 -1.7605  1.1628
  178SLPC  C31620307   4.241   6.687   4.879  0.4596 -0.5114  0.5828
  178SLPC  H16X20308   4.192   6.761   4.946  1.5608  0.5532  0.2590
  178SLPC  H16Y20309   4.174   6.601   4.859  0.0856 -0.4326  1.4465
  178SLPC  C31720310   4.277   6.741   4.738 -0.0339 -0.3480 -0.4427
  178SLPC  H17X20311   4.363   6.812   4.744  0.9083 -1.5507  1.1887
  178SLPC  H17Y20312   4.184   6.792   4.705  0.0875 -0.1479 -0.4764
  178SLPC  C31820313   4.311   6.640   4.636 -0.0653  0.6985  0.7912
  178SLPC  H18X20314   4.398   6.584   4.674  0.8795  1.4831 -0.1661
  178SLPC  H18Y20315   4.328   6.684   4.535  0.7111 -1.2796  0.0279
  178SLPC  H18Z20316   4.220   6.576   4.633 -0.6388  1.5218 -0.0481
  179SLPC     N20317   0.674   4.049   2.383 -0.1186 -0.1480 -0.2057
  179SLPC   C1320318   0.810   4.029   2.324  0.1302 -0.3903 -0.3033
  179SLPC  H13A20319   0.822   3.922   2.309 -0.6764 -0.5727  0.3091
  179SLPC  H13B20320   0.819   4.075   2.227  2.2884 -1.1634 -0.5428
  179SLPC  H13C20321   0.892   4.067   2.383 -0.2718 -1.7381  1.2052
  179SLPC   C1420322   0.581   3.995   2.282 -0.3134 -0.5152 -0.2242
  179SLPC  H14A20323   0.609   3.894   2.256  0.3749 -1.5242  3.8439
  179SLPC  H14B20324   0.490   3.988   2.340  0.2015  0.7090  0.7897
  179SLPC  H14C20325   0.574   4.062   2.197 -0.0123  1.1779  1.0364
  179SLPC   C1520326   0.661   4.199   2.387  0.6824 -0.2516  0.1300
  179SLPC  H15A20327   0.720   4.236   2.304 -2.4165  1.1908 -1.5886
  179SLPC  H15B20328   0.561   4.232   2.363  1.5127  1.1149 -1.7417
  179SLPC  H15C20329   0.704   4.245   2.475  1.1479  4.2089 -2.1049
  179SLPC   C1220330   0.670   3.996   2.526  0.6483  0.1081  0.5652
  179SLPC  H12A20331   0.568   4.015   2.556 -0.8619 -3.9878 -1.1652
  179SLPC  H12B20332   0.745   4.047   2.584 -0.1548 -1.6973  3.3928
  179SLPC   C1120333   0.684   3.849   2.546 -0.1066  0.9272  0.9590
  179SLPC  H11A20334   0.698   3.823   2.653  0.9470  0.7094  0.7783
  179SLPC  H11B20335   0.779   3.817   2.498 -0.6447  0.8181 -0.0904
  179SLPC     P20336   0.435   3.771   2.556  0.2777  0.0755  0.3949
  179SLPC   O1320337   0.395   3.910   2.593 -0.1544  0.4539 -0.5813
  179SLPC   O1420338   0.338   3.707   2.461 -0.2760 -0.6808 -0.6381
  179SLPC   O1220339   0.572   3.780   2.481 -0.0964 -0.4294 -0.6247
  179SLPC   O1120340   0.458   3.679   2.680  0.6788 -0.4920 -0.2421
  179SLPC    C120341   0.558   3.578   2.684 -0.5128  0.8582 -0.4669
  179SLPC    HA20342   0.618   3.578   2.590  0.2827 -0.1108  0.0164
  179SLPC    HB20343   0.628   3.613   2.762 -1.2958  1.0269  0.1706
  179SLPC    C220344   0.495   3.442   2.718  0.0688  0.9150  0.2941
  179SLPC    HS20345   0.426   3.422   2.633 -0.2489  1.0572  0.5151
  179SLPC   O2120346   0.426   3.454   2.844 -0.1007 -0.6374  0.5396
  179SLPC   C2120347   0.338   3.363   2.858 -0.1936 -0.3211  0.5660
  179SLPC   O2220348   0.308   3.276   2.780  0.0495  0.6141  1.1663
  179SLPC   C2220349   0.277   3.382   2.994 -0.4134 -0.4891  0.3415
  179SLPC   H2R20350   0.360   3.368   3.067 -1.1255  1.7218  1.6700
  179SLPC   H2S20351   0.239   3.486   3.002 -0.2456 -0.4205  0.2582
  179SLPC    C320352   0.601   3.328   2.716  0.1843  0.2341 -0.4277
  179SLPC    HX20353   0.651   3.336   2.617  0.4825 -1.5782 -0.4496
  179SLPC    HY20354   0.548   3.231   2.714  0.0305  0.3268 -0.8424
  179SLPC   O3120355   0.698   3.355   2.826 -0.4387 -0.0275 -0.0181
  179SLPC   C3120356   0.671   3.289   2.931 -0.0412  0.9576 -0.1178
  179SLPC   O3220357   0.587   3.199   2.940 -0.0130 -0.2440  0.4317
  179SLPC   C3220358   0.760   3.344   3.044  0.1068 -0.0592 -0.1868
  179SLPC   H2X20359   0.741   3.452   3.059  0.2908 -0.2632  1.7200
  179SLPC   H2Y20360   0.869   3.335   3.023  0.7586 -1.3637  3.1213
  179SLPC   C2320361   0.164   3.287   3.029  0.1939 -0.2191  0.1204
  179SLPC   H3R20362   0.203   3.186   3.003 -0.2090 -1.0614  2.5278
  179SLPC   H3S20363   0.068   3.312   2.980  1.1850  0.6103 -1.5123
  179SLPC   C2420364   0.157   3.266   3.179  0.0626 -0.4452  0.2441
  179SLPC   H4R20365   0.261   3.254   3.216  1.8500  2.1334 -3.3467
  179SLPC   H4S20366   0.097   3.173   3.192 -0.9155  0.1289 -0.0397
  179SLPC   C2520367   0.091   3.383   3.247 -0.7076  0.0724  0.2387
  179SLPC   H5R20368  -0.005   3.411   3.198  1.3594  0.3951 -4.2015
  179SLPC   H5S20369   0.154   3.470   3.221  1.4457 -1.5483 -0.1985
  179SLPC   C2620370   0.084   3.376   3.399  0.8390  0.1863 -0.5027
  179SLPC   H6R20371   0.024   3.464   3.432 -0.7606 -0.1831 -2.2878
  179SLPC   H6S20372   0.189   3.387   3.434  1.0941 -0.2999 -1.1027
  179SLPC   C2720373   0.011   3.253   3.462  0.2980 -0.6043 -0.1936
  179SLPC   H7R20374   0.023   3.260   3.572 -0.2547 -0.8440 -0.1158
  179SLPC   H7S20375   0.056   3.157   3.430  0.4561 -1.9246  3.5495
  179SLPC   C2820376  -0.138   3.241   3.440  0.4340 -0.0955  0.6176
  179SLPC   H8R20377  -0.167   3.246   3.333 -1.4726 -0.3140  1.0980
  179SLPC   H8S20378  -0.177   3.338   3.477  1.2497  1.3874 -2.1381
  179SLPC   C2920379  -0.199   3.126   3.514  0.1235 -0.8538  0.0729
  179SLPC   H9R20380  -0.199   3.028   3.464  2.3029 -1.3063  0.8681
  179SLPC  C21020381  -0.259   3.128   3.633  0.2175 -0.6282 -0.4062
  179SLPC  H10R20382  -0.309   3.035   3.664  0.6301 -0.2121  1.7211
  179SLPC  C21120383  -0.276   3.245   3.723  1.0101  0.4423  0.5830
  179SLPC  H11R20384  -0.385   3.264   3.729  0.0585 -3.6631 -0.5629
  179SLPC  H11S20385  -0.212   3.328   3.685  2.8110 -0.4507  1.5085
  179SLPC  C21220386  -0.234   3.210   3.864  0.3040 -0.6170 -1.1110
  179SLPC  H12R20387  -0.200   3.107   3.883  0.0120 -0.5122  0.0112
  179SLPC  C21320388  -0.215   3.298   3.971  0.3802 -0.0996 -1.2213
  179SLPC  H13R20389  -0.200   3.244   4.066 -1.2980 -1.3709 -1.6296
  179SLPC  C21420390  -0.235   3.445   3.970  0.1629 -0.3421  0.0956
  179SLPC  H14R20391  -0.343   3.467   3.958 -0.2276 -1.4458  1.4234
  179SLPC  H14S20392  -0.188   3.494   3.882 -2.5103  0.8375 -0.8041
  179SLPC  C21520393  -0.204   3.519   4.104  0.7433  0.6858  0.6935
  179SLPC  H15R20394  -0.238   3.624   4.097 -1.8347  0.0344  2.0863
  179SLPC  H15S20395  -0.096   3.499   4.118  0.3835 -1.1349  1.1280
  179SLPC  C21620396  -0.258   3.447   4.235  0.5102  0.4283  0.2602
  179SLPC  H16R20397  -0.217   3.348   4.263 -1.2952 -0.4590 -0.0576
  179SLPC  H16S20398  -0.361   3.415   4.206 -0.2986  1.3188  1.9963
  179SLPC  C21720399  -0.265   3.549   4.354 -0.0321 -0.8486 -0.6580
  179SLPC  H17R20400  -0.160   3.581   4.373  0.3304  0.0283 -3.5688
  179SLPC  H17S20401  -0.304   3.494   4.442  0.2044 -0.4552 -0.3035
  179SLPC  C21820402  -0.360   3.665   4.347 -0.4585  0.4194  0.6705
  179SLPC  H18R20403  -0.343   3.724   4.440 -1.1963  0.1225  1.0078
  179SLPC  H18S20404  -0.461   3.618   4.352 -0.6754  0.9107  0.9187
  179SLPC  H18T20405  -0.356   3.732   4.259 -2.2064 -0.1040  0.1596
  179SLPC   C3320406   0.721   3.282   3.176 -0.0582 -0.1280 -0.3213
  179SLPC   H3X20407   0.750   3.175   3.173 -1.3928 -0.5981  1.7730
  179SLPC   H3Y20408   0.611   3.287   3.186 -0.0405 -2.2965  2.2053
  179SLPC   C3420409   0.789   3.346   3.298  0.3713  0.4361  0.2503
  179SLPC   H4X20410   0.755   3.452   3.291  0.1196  0.2204 -3.4823
  179SLPC   H4Y20411   0.899   3.339   3.283  0.0955 -3.5802 -1.0347
  179SLPC   C3520412   0.752   3.287   3.438 -0.4303 -0.0654  0.1074
  179SLPC   H5X20413   0.643   3.301   3.453 -0.6712 -0.0436 -1.4505
  179SLPC   H5Y20414   0.772   3.178   3.446  0.4091  0.0105 -0.7897
  179SLPC   C3620415   0.819   3.361   3.557 -0.3751  0.0188 -0.0840
  179SLPC   H6X20416   0.818   3.471   3.547 -0.3797 -0.0132 -0.4395
  179SLPC   H6Y20417   0.928   3.339   3.555  0.0091  1.8230 -1.0787
  179SLPC   C3720418   0.763   3.308   3.690 -0.5871  0.4811  0.0300
  179SLPC   H7X20419   0.787   3.201   3.706  0.4645  0.9660  2.0292
  179SLPC   H7Y20420   0.658   3.341   3.702 -1.3348 -1.7786 -0.0045
  179SLPC   C3820421   0.846   3.374   3.805 -0.5617 -0.3232  0.1302
  179SLPC   H8X20422   0.854   3.485   3.798  3.1158 -0.5457 -2.5022
  179SLPC   H8Y20423   0.953   3.344   3.803 -0.6200 -0.6564  1.5462
  179SLPC   C3920424   0.783   3.331   3.934  1.1036 -0.0535  0.1934
  179SLPC   H9X20425   0.800   3.222   3.940  4.5467  0.3972  0.3054
  179SLPC   H9Y20426   0.673   3.346   3.930  0.7649 -2.2807 -0.1711
  179SLPC  C31020427   0.839   3.402   4.059 -0.5157 -0.4189  0.1762
  179SLPC  H10X20428   0.948   3.426   4.056 -0.5865 -0.1204 -1.8166
  179SLPC  H10Y20429   0.803   3.349   4.149 -0.4800  0.7754  0.9187
  179SLPC  C31120430   0.784   3.544   4.081  0.0076  0.0489 -0.5672
  179SLPC  H11X20431   0.674   3.534   4.095  0.0181  0.1155 -0.4447
  179SLPC  H11Y20432   0.798   3.605   3.989  1.5546  0.0246 -0.3655
  179SLPC  C31220433   0.843   3.621   4.200 -0.2848 -0.4242  0.2873
  179SLPC  H12X20434   0.953   3.624   4.188 -0.3252 -0.4241 -0.1112
  179SLPC  H12Y20435   0.843   3.559   4.291  0.1334 -0.4421  0.2776
  179SLPC  C31320436   0.786   3.768   4.220  0.1097  0.8309  0.0418
  179SLPC  H13X20437   0.677   3.752   4.236  0.2454  0.5810  0.7394
  179SLPC  H13Y20438   0.798   3.824   4.125  0.2370 -1.7662 -1.5977
  179SLPC  C31420439   0.839   3.854   4.332  0.2674 -0.4526 -0.3955
  179SLPC  H14X20440   0.950   3.860   4.329  0.4618 -2.8344 -0.4335
  179SLPC  H14Y20441   0.812   3.799   4.425  1.5612  1.1083  0.9685
  179SLPC  C31520442   0.791   4.002   4.332 -0.5193 -0.1355  0.0037
  179SLPC  H15X20443   0.681   4.004   4.313 -0.5646 -1.0373  0.1053
  179SLPC  H15Y20444   0.843   4.062   4.255 -1.2244  2.0186  1.1482
  179SLPC  C31620445   0.821   4.065   4.465  0.4105  0.2328 -0.1680
  179SLPC  H16X20446   0.927   4.073   4.495  0.0110 -0.0577  1.4086
  179SLPC  H16Y20447   0.785   3.990   4.539 -0.4683  0.3458 -0.4615
  179SLPC  C31720448   0.755   4.199   4.485 -0.0596  0.7522  0.1206
  179SLPC  H17X20449   0.644   4.198   4.488 -0.0499  1.3274  0.7100
  179SLPC  H17Y20450   0.766   4.266   4.397  0.7878  2.5145  1.5118
  179SLPC  C31820451   0.813   4.289   4.600 -0.6178  0.2881  0.1055
  179SLPC  H18X20452   0.759   4.386   4.597  0.7779  1.2239  2.4277
  179SLPC  H18Y20453   0.920   4.298   4.571 -0.6331  1.4972  0.3596
  179SLPC  H18Z20454   0.815   4.242   4.700  1.3857 -0.8389 -0.4080
  180SLPC     N20455   3.835   2.182   2.046 -0.1296  0.3906  0.0927
  180SLPC   C1320456   3.765   2.305   2.022  0.2203  0.2485  0.2730
  180SLPC  H13A20457   3.809   2.386   2.078  0.0437 -1.0113  2.3365
  180SLPC  H13B20458   3.761   2.328   1.916 -0.3684  0.4463  0.3308
  180SLPC  H13C20459   3.665   2.297   2.063  0.8031  0.9218  1.9233
  180SLPC   C1420460   3.845   2.153   2.191 -0.1566 -0.0230 -0.4403
  180SLPC  H14A20461   3.753   2.124   2.240  0.3812 -0.5522  0.2742
  180SLPC  H14B20462   3.915   2.071   2.204 -0.7602 -0.3397  0.9344
  180SLPC  H14C20463   3.876   2.239   2.247  0.1360 -1.4464  1.6928
  180SLPC   C1520464   3.971   2.205   1.997 -0.0024  0.2149  0.1741
  180SLPC  H15A20465   4.024   2.275   2.061  1.1080 -3.0117  3.0542
  180SLPC  H15B20466   4.023   2.112   1.980 -2.8952 -1.1738 -1.8426
  180SLPC  H15C20467   3.976   2.250   1.898 -0.3725  1.2150  0.6005
  180SLPC   C1220468   3.770   2.063   1.971 -0.0235 -0.0487  0.2585
  180SLPC  H12A20469   3.776   2.086   1.866 -2.8272  1.8746  0.4264
  180SLPC  H12B20470   3.665   2.067   1.994  0.1199  0.1183  0.9203
  180SLPC   C1120471   3.823   1.927   1.999 -0.1935 -0.3393  0.1172
  180SLPC  H11A20472   3.830   1.896   2.105 -1.3963  0.6208  0.5019
  180SLPC  H11B20473   3.926   1.929   1.956  0.9994  2.7506  2.6969
  180SLPC     P20474   3.638   1.748   1.987  0.3650  0.5724  0.3944
  180SLPC   O1320475   3.509   1.823   2.007  0.1383  0.2496  0.8424
  180SLPC   O1420476   3.631   1.635   1.892 -0.6566 -0.1780 -0.3690
  180SLPC   O1220477   3.746   1.843   1.915 -0.0846  0.1339  0.1369
  180SLPC   O1120478   3.710   1.694   2.121  0.2527  0.7083 -0.0909
  180SLPC    C120479   3.642   1.621   2.222 -0.3332  0.1431 -0.4215
  180SLPC    HA20480   3.534   1.607   2.200 -0.6131  1.1510  0.2534
  180SLPC    HB20481   3.692   1.522   2.225 -0.9658 -0.1841 -0.4028
  180SLPC    C220482   3.652   1.681   2.367 -0.6949  0.2570 -0.4024
  180SLPC    HS20483   3.639   1.600   2.443  2.5849  0.5753  0.6605
  180SLPC   O2120484   3.550   1.780   2.387 -0.1078  0.2314  0.1526
  180SLPC   C2120485   3.475   1.782   2.494 -0.2366  0.9786 -0.4654
  180SLPC   O2220486   3.477   1.702   2.590  0.1781 -0.1471 -0.2006
  180SLPC   C2220487   3.387   1.907   2.480 -0.1327  0.3596 -0.3503
  180SLPC   H2R20488   3.448   1.998   2.464 -1.8514  1.7209  0.3826
  180SLPC   H2S20489   3.336   1.898   2.382 -1.2455  0.8967  0.1557
  180SLPC    C320490   3.799   1.730   2.397  0.7429  0.5480 -0.2842
  180SLPC    HX20491   3.810   1.827   2.344  1.1266  0.3832 -0.5151
  180SLPC    HY20492   3.877   1.660   2.360 -0.4390 -1.8984  1.5555
  180SLPC   O3120493   3.812   1.735   2.543 -1.0522  0.3022 -0.3702
  180SLPC   C3120494   3.808   1.854   2.603 -0.4899 -0.2522 -0.1876
  180SLPC   O3220495   3.779   1.960   2.549  0.3487  0.3590 -0.7267
  180SLPC   C3220496   3.850   1.838   2.743 -0.0005 -0.2349 -0.5380
  180SLPC   H2X20497   3.927   1.760   2.762  0.4782  0.2409 -0.5034
  180SLPC   H2Y20498   3.758   1.818   2.802  0.4322 -0.9245 -0.0764
  180SLPC   C2320499   3.284   1.923   2.595  0.6198  0.1486  0.3420
  180SLPC   H3R20500   3.259   1.825   2.642  0.4335  0.8379  1.7301
  180SLPC   H3S20501   3.195   1.971   2.549 -0.5645  0.4643  2.7992
  180SLPC   C2420502   3.336   2.021   2.707  0.7285  0.9341  0.9368
  180SLPC   H4R20503   3.252   2.034   2.778 -0.8513 -0.6868 -0.5631
  180SLPC   H4S20504   3.353   2.122   2.664  3.0699  1.2427  2.3871
  180SLPC   C2520505   3.454   1.982   2.787  0.0127  0.3628  0.4913
  180SLPC   H5R20506   3.547   1.996   2.728 -0.4415  0.5190 -0.2080
  180SLPC   H5S20507   3.440   1.874   2.811  0.9094 -1.0598 -4.2143
  180SLPC   C2620508   3.453   2.054   2.923 -0.6795  0.1164  0.7958
  180SLPC   H6R20509   3.363   2.026   2.982 -1.0202  0.2654  0.3593
  180SLPC   H6S20510   3.447   2.164   2.908  1.3914  0.1881  0.2145
  180SLPC   C2720511   3.583   2.031   3.006 -0.1731 -0.5527  0.5666
  180SLPC   H7R20512   3.671   2.078   2.957  0.3284 -2.6074 -0.6141
  180SLPC   H7S20513   3.610   1.924   3.011  0.9034 -0.3753 -0.7706
  180SLPC   C2820514   3.563   2.084   3.150  1.0201  0.2982 -0.1810
  180SLPC   H8R20515   3.494   2.008   3.191  0.6624  0.1947 -0.9528
  180SLPC   H8S20516   3.513   2.182   3.162  0.2181  0.1422 -1.9210
  180SLPC   C2920517   3.695   2.097   3.226  0.0793  0.6266 -0.0331
  180SLPC   H9R20518   3.751   2.191   3.212 -0.5071  0.7319 -1.8422
  180SLPC  C21020519   3.745   2.002   3.307 -0.2448  0.6028  0.4715
  180SLPC  H10R20520   3.842   2.022   3.353  1.0771  0.1592 -1.9696
  180SLPC  C21120521   3.698   1.860   3.328  0.3110  0.2798  0.0731
  180SLPC  H11R20522   3.779   1.813   3.388  2.1165 -0.6791 -2.9435
  180SLPC  H11S20523   3.697   1.796   3.237  0.0887 -0.3622  0.5166
  180SLPC  C21220524   3.562   1.828   3.388 -0.0482 -0.2881 -0.7579
  180SLPC  H12R20525   3.480   1.860   3.323  0.9441  1.1380 -1.3573
  180SLPC  C21320526   3.532   1.787   3.513 -0.3119  0.2308 -0.3934
  180SLPC  H13R20527   3.426   1.770   3.533  0.2876 -1.0215  1.9816
  180SLPC  C21420528   3.627   1.735   3.617  0.4865 -0.2650 -0.4073
  180SLPC  H14R20529   3.733   1.740   3.585  0.1965 -1.9672 -1.8062
  180SLPC  H14S20530   3.609   1.627   3.637  2.2222 -0.8073 -1.5830
  180SLPC  C21520531   3.614   1.816   3.741 -1.1055  0.9138  0.3335
  180SLPC  H15R20532   3.642   1.750   3.826  1.5602  0.6476 -0.6476
  180SLPC  H15S20533   3.512   1.854   3.761 -2.1603 -0.8538 -1.4038
  180SLPC  C21620534   3.701   1.937   3.741 -0.4123  0.8056 -0.7078
  180SLPC  H16R20535   3.691   2.003   3.652  0.7769  0.4120 -1.1675
  180SLPC  H16S20536   3.809   1.911   3.730 -0.8519 -1.2317 -0.4786
  180SLPC  C21720537   3.678   2.029   3.864 -0.0572  0.0509  0.6358
  180SLPC  H17R20538   3.568   2.038   3.871 -0.1002  0.6085 -0.4939
  180SLPC  H17S20539   3.728   2.125   3.840  1.8737 -0.3481  2.7291
  180SLPC  C21820540   3.744   1.980   3.994  0.2946  0.2306  1.1120
  180SLPC  H18R20541   3.693   1.888   4.029  0.1578  0.9230  2.8069
  180SLPC  H18S20542   3.736   2.051   4.079  0.4552  3.1717 -1.1642
  180SLPC  H18T20543   3.850   1.951   3.977 -0.1987 -0.4778 -1.1055
  180SLPC   C3320544   3.909   1.972   2.815  0.0219  0.4018  0.4587
  180SLPC   H3X20545   3.829   2.048   2.810 -0.9441 -0.6567 -2.4911
  180SLPC   H3Y20546   3.989   2.011   2.748 -1.5247  0.1905 -1.6064
  180SLPC   C3420547   3.965   1.949   2.956 -0.2729  0.2670 -0.3688
  180SLPC   H4X20548   3.898   1.892   3.024  0.2125 -1.1189 -1.0242
  180SLPC   H4Y20549   3.974   2.053   2.996  1.9106  0.4515 -1.2365
  180SLPC   C3520550   4.099   1.870   2.954 -0.7308  0.0316 -0.4024
  180SLPC   H5X20551   4.161   1.941   2.896 -1.0732  1.3156  0.7429
  180SLPC   H5Y20552   4.092   1.773   2.900 -1.5753  0.5588 -1.2699
  180SLPC   C3620553   4.154   1.860   3.102  0.2620 -0.7632 -0.5032
  180SLPC   H6X20554   4.157   1.969   3.126  0.4081 -0.4525 -1.8153
  180SLPC   H6Y20555   4.258   1.822   3.102  0.6485  0.1569  1.7261
  180SLPC   C3720556   4.066   1.765   3.185  1.0451  0.1555 -0.1543
  180SLPC   H7X20557   4.060   1.662   3.145  1.1224  1.3646 -3.6310
  180SLPC   H7Y20558   3.961   1.803   3.186  1.5799  1.7255  0.9829
  180SLPC   C3820559   4.116   1.736   3.329 -0.8630  0.0253  0.0423
  180SLPC   H8X20560   4.217   1.690   3.327 -1.4730 -1.3481  0.0359
  180SLPC   H8Y20561   4.065   1.650   3.378  1.9863 -0.4002  2.5625
  180SLPC   C3920562   4.125   1.863   3.416  0.0376  0.3654 -0.0069
  180SLPC   H9X20563   4.039   1.933   3.410 -0.7203 -0.5411 -0.1007
  180SLPC   H9Y20564   4.213   1.928   3.400  1.1611 -1.1595 -0.2800
  180SLPC  C31020565   4.123   1.829   3.559 -0.4451 -0.1284 -0.6032
  180SLPC  H10X20566   4.206   1.757   3.579 -0.3534  0.3742  1.0017
  180SLPC  H10Y20567   4.025   1.792   3.596 -0.0520  0.2755  0.9557
  180SLPC  C31120568   4.134   1.960   3.645  0.3420 -0.1784  0.5704
  180SLPC  H11X20569   4.060   2.033   3.606  0.4850  1.3081  2.9053
  180SLPC  H11Y20570   4.234   2.005   3.626 -0.7615  2.2206  0.0724
  180SLPC  C31220571   4.108   1.934   3.792 -0.1583  0.1004  0.1443
  180SLPC  H12X20572   4.018   1.870   3.800 -2.0066  2.7407  2.9567
  180SLPC  H12Y20573   4.080   2.026   3.849 -1.2018  1.6562 -2.6532
  180SLPC  C31320574   4.226   1.866   3.860  0.2910 -0.0633  0.5666
  180SLPC  H13X20575   4.309   1.939   3.862 -0.2271  0.5733 -0.3650
  180SLPC  H13Y20576   4.257   1.785   3.791 -4.8287 -1.1801 -0.8695
  180SLPC  C31420577   4.187   1.803   4.001  0.3690 -0.0356 -0.1125
  180SLPC  H14X20578   4.155   1.886   4.067 -1.0754 -0.2968 -0.4536
  180SLPC  H14Y20579   4.277   1.762   4.052 -0.9409 -0.1875  2.2134
  180SLPC  C31520580   4.083   1.697   4.003  0.9331 -0.1499  0.4032
  180SLPC  H15X20581   4.113   1.624   3.924  0.7329 -0.1893  0.3636
  180SLPC  H15Y20582   3.982   1.732   3.972  1.1166 -0.3667 -0.4762
  180SLPC  C31620583   4.068   1.626   4.135 -0.4946  0.7498 -0.6090
  180SLPC  H16X20584   4.160   1.573   4.166 -1.8111 -1.0215  0.4966
  180SLPC  H16Y20585   4.004   1.538   4.112  0.2535  0.1180 -0.2893
  180SLPC  C31720586   4.009   1.703   4.257  0.3167 -0.0930 -0.0841
  180SLPC  H17X20587   3.903   1.721   4.230  0.5308  1.9175  0.2620
  180SLPC  H17Y20588   4.066   1.798   4.268  2.7200 -1.3273 -1.1147
  180SLPC  C31820589   4.028   1.623   4.381  0.4783  0.3559  0.1648
  180SLPC  H18X20590   4.120   1.645   4.440  1.5563  0.3583 -1.4475
  180SLPC  H18Y20591   4.022   1.513   4.368 -0.7979  0.1875  1.9154
  180SLPC  H18Z20592   3.951   1.655   4.454 -0.0870 -1.3099  0.3262
  181SLPC     N20593   5.766   0.513   2.477 -1.0360 -0.2107  0.0664
  181SLPC   C1320594   5.828   0.479   2.352 -0.2283  0.1269 -0.3512
  181SLPC  H13A20595   5.760   0.478   2.268 -0.4059  1.8800 -0.2592
  181SLPC  H13B20596   5.912   0.537   2.314 -0.3415  0.7095  0.2681
  181SLPC  H13C20597   5.877   0.383   2.350 -0.5221 -0.0155 -1.1993
  181SLPC   C1420598   5.639   0.440   2.487 -0.0170 -0.5155 -0.1251
  181SLPC  H14A20599   5.586   0.456   2.580  0.8687 -2.0341  0.6880
  181SLPC  H14B20600   5.580   0.457   2.398  1.1120 -1.0226 -0.9900
  181SLPC  H14C20601   5.659   0.334   2.495 -0.2173 -0.5851 -0.5144
  181SLPC   C1520602   5.748   0.657   2.474  0.4028 -0.7336  0.1061
  181SLPC  H15A20603   5.844   0.706   2.463  1.4887 -2.1186  2.6181
  181SLPC  H15B20604   5.669   0.699   2.413  1.3273  0.9562 -0.0011
  181SLPC  H15C20605   5.714   0.693   2.570 -0.3346 -1.3659  0.0900
  181SLPC   C1220606   5.855   0.467   2.596  0.4602  0.0324  0.3097
  181SLPC  H12A20607   5.814   0.508   2.687  2.1123 -0.2793  1.2354
  181SLPC  H12B20608   5.949   0.519   2.589 -0.8746  2.4069 -1.9195
  181SLPC   C1120609   5.878   0.313   2.619 -0.3456  0.5448 -0.2016
  181SLPC  H11A20610   5.777   0.265   2.620 -0.4483  0.6949 -1.3265
  181SLPC  H11B20611   5.921   0.303   2.721  1.6961  0.0809 -1.0610
  181SLPC     P20612   5.927   0.113   2.459  0.0020  0.4787 -0.0404
  181SLPC   O1320613   5.808   0.134   2.377  0.9137  1.0708  0.7415
  181SLPC   O1420614   6.037   0.053   2.383  0.0691  0.1538  0.0435
  181SLPC   O1220615   5.967   0.246   2.531 -0.2204 -0.1270  0.3276
  181SLPC   O1120616   5.898   0.010   2.577 -0.8996  0.3293  0.1969
  181SLPC    C120617   5.978  -0.034   2.686  0.4801 -0.2993 -0.1404
  181SLPC    HA20618   6.083   0.003   2.686  0.3153  0.1709 -0.4992
  181SLPC    HB20619   5.932   0.012   2.776 -2.8738 -1.1064 -1.2853
  181SLPC    C220620   5.968  -0.179   2.720  0.1389 -0.2551 -0.1995
  181SLPC    HS20621   5.981  -0.234   2.624 -1.0822 -2.0331  0.5972
  181SLPC   O2120622   5.837  -0.199   2.764  0.5646  0.3588  0.0090
  181SLPC   C2120623   5.790  -0.328   2.750 -0.2074  0.3315 -0.3954
  181SLPC   O2220624   5.860  -0.421   2.718  0.1498  0.0946  0.5606
  181SLPC   C2220625   5.642  -0.337   2.800  0.3064  0.2640 -0.2635
  181SLPC   H2R20626   5.596  -0.246   2.755  1.4041  0.5664 -0.8062
  181SLPC   H2S20627   5.601  -0.431   2.759 -0.2375 -0.1165  1.0931
  181SLPC    C320628   6.069  -0.225   2.823 -0.4078 -0.4819  0.3508
  181SLPC    HX20629   6.168  -0.207   2.776 -0.0753 -1.3711  0.6932
  181SLPC    HY20630   6.088  -0.332   2.843  0.9084 -0.2332  0.5387
  181SLPC   O3120631   6.071  -0.154   2.953  0.5239  0.1757 -0.2654
  181SLPC   C3120632   5.998  -0.224   3.046  0.2976 -0.4182 -0.2433
  181SLPC   O3220633   5.941  -0.325   3.026  0.3480  0.0568 -0.2110
  181SLPC   C3220634   5.983  -0.137   3.168  0.3269 -0.0005  0.5412
  181SLPC   H2X20635   5.955  -0.034   3.138  2.6818  0.3476 -0.7683
  181SLPC   H2Y20636   6.085  -0.116   3.208  1.2248 -2.1869 -0.4369
  181SLPC   C2320637   5.636  -0.362   2.957  1.0815  0.3274  0.0621
  181SLPC   H3R20638   5.664  -0.270   3.013 -2.1239  1.3549  0.1960
  181SLPC   H3S20639   5.702  -0.445   2.990 -1.8811 -1.9552  0.6908
  181SLPC   C2420640   5.496  -0.403   2.995 -0.4229 -1.0880  0.5545
  181SLPC   H4R20641   5.457  -0.503   2.965 -0.6965  0.0094 -3.3550
  181SLPC   H4S20642   5.423  -0.331   2.952 -0.7390 -1.8709 -0.2498
  181SLPC   C2520643   5.488  -0.417   3.150  0.1311 -0.6776  0.1999
  181SLPC   H5R20644   5.378  -0.401   3.162  0.3979  1.3883  0.2892
  181SLPC   H5S20645   5.540  -0.329   3.194  0.2012  0.2677 -1.6512
  181SLPC   C2620646   5.556  -0.544   3.201  0.8185 -0.6139 -0.2006
  181SLPC   H6R20647   5.667  -0.534   3.196  0.8853 -0.3687  1.4252
  181SLPC   H6S20648   5.533  -0.634   3.140  2.3321  0.0416 -1.8424
  181SLPC   C2720649   5.541  -0.571   3.351  0.3490 -0.3563 -0.5518
  181SLPC   H7R20650   5.574  -0.477   3.401 -0.0733  0.1044 -1.1245
  181SLPC   H7S20651   5.607  -0.650   3.393  1.8353  0.6677 -0.8646
  181SLPC   C2820652   5.396  -0.593   3.404 -0.3707 -0.1029 -0.2036
  181SLPC   H8R20653   5.359  -0.692   3.372 -0.8085  0.1663 -0.5567
  181SLPC   H8S20654   5.334  -0.516   3.352  0.0688 -0.4092 -1.2076
  181SLPC   C2920655   5.384  -0.586   3.554 -0.3098  0.2557  0.1377
  181SLPC   H9R20656   5.399  -0.681   3.607  0.8136 -0.0390 -0.6567
  181SLPC  C21020657   5.345  -0.482   3.621 -0.5767  0.0265  0.2953
  181SLPC  H10R20658   5.348  -0.472   3.731  0.3104  1.4296  0.1725
  181SLPC  C21120659   5.306  -0.349   3.559  0.3491  0.6803  0.2300
  181SLPC  H11R20660   5.211  -0.316   3.607 -0.4532 -0.7632 -0.3037
  181SLPC  H11S20661   5.266  -0.355   3.456 -2.2013 -0.2772  1.1912
  181SLPC  C21220662   5.407  -0.235   3.565 -0.3592  0.1244  0.4663
  181SLPC  H12R20663   5.464  -0.212   3.474  0.4326 -0.5403  0.7780
  181SLPC  C21320664   5.430  -0.166   3.676  0.2145  0.2190  0.1475
  181SLPC  H13R20665   5.504  -0.084   3.675 -2.8992  3.2930 -1.6169
  181SLPC  C21420666   5.377  -0.183   3.815  1.0173  0.4744 -0.3655
  181SLPC  H14R20667   5.454  -0.206   3.892 -0.5725  0.1498  1.1942
  181SLPC  H14S20668   5.297  -0.259   3.830  2.2553 -0.7185  0.4511
  181SLPC  C21520669   5.316  -0.048   3.859  0.4861 -0.0464  0.2048
  181SLPC  H15R20670   5.237  -0.030   3.783  0.1378 -2.3063 -0.0215
  181SLPC  H15S20671   5.391   0.033   3.844 -0.4569  0.8229  0.0772
  181SLPC  C21620672   5.259  -0.037   3.998 -0.1657  0.4626 -0.2370
  181SLPC  H16R20673   5.337  -0.067   4.071 -2.3046 -0.7000  1.7086
  181SLPC  H16S20674   5.182  -0.116   4.011  1.5924 -1.4166 -0.6927
  181SLPC  C21720675   5.221   0.105   4.039  0.3205 -0.4161  0.0677
  181SLPC  H17R20676   5.143   0.146   3.971 -0.0579  1.0023  1.3148
  181SLPC  H17S20677   5.311   0.167   4.020 -0.8981  2.0760  1.8365
  181SLPC  C21820678   5.183   0.124   4.184  0.2753  0.8589 -0.6041
  181SLPC  H18R20679   5.260   0.101   4.262  0.1515 -1.8049 -1.1750
  181SLPC  H18S20680   5.103   0.050   4.204  1.9953 -2.2990 -4.2040
  181SLPC  H18T20681   5.147   0.229   4.197  0.6817  0.8408  0.8927
  181SLPC   C3320682   5.893  -0.192   3.279  0.3622  0.0134  0.5371
  181SLPC   H3X20683   5.824  -0.270   3.240  0.7496 -1.2989  2.2939
  181SLPC   H3Y20684   5.838  -0.115   3.336 -1.2598 -1.0889  0.5251
  181SLPC   C3420685   5.971  -0.279   3.378 -0.4558 -0.3964 -0.5721
  181SLPC   H4X20686   6.034  -0.220   3.448  0.0349 -1.8312  0.2398
  181SLPC   H4Y20687   6.039  -0.342   3.317 -0.1327 -2.7276  1.9794
  181SLPC   C3520688   5.876  -0.372   3.463 -0.0571 -0.2132 -0.3331
  181SLPC   H5X20689   5.937  -0.452   3.511  0.6248  0.8379  0.5999
  181SLPC   H5Y20690   5.802  -0.424   3.399  0.5397 -1.8592  0.2546
  181SLPC   C3620691   5.811  -0.300   3.581 -0.0354 -0.3321 -0.2859
  181SLPC   H6X20692   5.743  -0.222   3.541 -2.0459 -1.6431  0.4505
  181SLPC   H6Y20693   5.890  -0.240   3.631 -0.0100  1.5604 -2.4485
  181SLPC   C3720694   5.735  -0.387   3.685  0.6604  0.1518  0.0992
  181SLPC   H7X20695   5.662  -0.450   3.630  2.3572 -1.6604 -0.1813
  181SLPC   H7Y20696   5.689  -0.309   3.750 -0.3289 -0.6864  0.4275
  181SLPC   C3820697   5.813  -0.489   3.772 -0.5631 -0.2354  0.6669
  181SLPC   H8X20698   5.895  -0.431   3.819 -1.1869  2.0293 -0.8673
  181SLPC   H8Y20699   5.879  -0.561   3.718 -1.5229 -1.5542  1.1922
  181SLPC   C3920700   5.736  -0.562   3.875  0.1653 -0.9189  0.0945
  181SLPC   H9X20701   5.820  -0.603   3.934  0.9755  0.6805  0.0861
  181SLPC   H9Y20702   5.675  -0.641   3.826 -0.7312  0.4918 -1.1609
  181SLPC  C31020703   5.664  -0.476   3.972 -0.2445  0.7799 -0.5792
  181SLPC  H10X20704   5.587  -0.417   3.918 -1.0804 -1.2909 -1.7487
  181SLPC  H10Y20705   5.730  -0.403   4.023  0.3757  0.3000 -0.6921
  181SLPC  C31120706   5.580  -0.570   4.056 -0.3087 -0.1951  0.0647
  181SLPC  H11X20707   5.635  -0.662   4.084  0.9749  0.7374  0.6628
  181SLPC  H11Y20708   5.495  -0.606   3.994 -0.1952 -0.0289 -0.1886
  181SLPC  C31220709   5.523  -0.512   4.183 -0.3666  0.1494 -0.0417
  181SLPC  H12X20710   5.604  -0.453   4.230  1.2047 -0.3934 -1.9553
  181SLPC  H12Y20711   5.516  -0.600   4.251 -0.6830 -0.6285 -1.0471
  181SLPC  C31320712   5.396  -0.440   4.179  0.2282  0.1492  0.5914
  181SLPC  H13X20713   5.329  -0.524   4.152  1.1698 -1.3365  2.6243
  181SLPC  H13Y20714   5.401  -0.360   4.102 -0.5083 -0.0908  0.2886
  181SLPC  C31420715   5.337  -0.391   4.313 -0.5978  0.7667  0.4895
  181SLPC  H14X20716   5.420  -0.361   4.380 -0.6060  1.5779  0.1481
  181SLPC  H14Y20717   5.301  -0.483   4.364  3.2114 -0.8977  0.5081
  181SLPC  C31520718   5.239  -0.272   4.311  0.5940  0.0042  0.1458
  181SLPC  H15X20719   5.160  -0.288   4.234  0.7625  0.7325 -0.1928
  181SLPC  H15Y20720   5.295  -0.178   4.292 -1.0584  1.0928  0.5078
  181SLPC  C31620721   5.157  -0.255   4.435 -0.5733  0.4476  0.5295
  181SLPC  H16X20722   5.134  -0.146   4.432  1.1418  0.8097 -1.5231
  181SLPC  H16Y20723   5.218  -0.282   4.523 -0.6152 -1.9129 -0.1080
  181SLPC  C31720724   5.021  -0.324   4.426 -0.1365  0.5295  0.2667
  181SLPC  H17X20725   4.957  -0.270   4.353 -2.0241 -0.3748  1.1630
  181SLPC  H17Y20726   4.976  -0.311   4.527  0.0571  0.2480  0.3925
  181SLPC  C31820727   5.024  -0.472   4.394  0.2376  0.7371  0.4114
  181SLPC  H18X20728   5.034  -0.487   4.285  1.6832 -1.1830  0.7394
  181SLPC  H18Y20729   4.932  -0.523   4.430  0.5296 -0.2483 -0.1751
  181SLPC  H18Z20730   5.104  -0.539   4.434 -1.0252 -0.4713  1.0136
  182SLPC     N20731   6.282   1.073   2.376  0.3187  0.0682 -0.4087
  182SLPC   C1320732   6.373   1.184   2.415 -0.2375 -0.4081 -0.3483
  182SLPC  H13A20733   6.350   1.227   2.511  0.6302  3.1016 -1.5528
  182SLPC  H13B20734   6.476   1.152   2.418  0.0266  0.4734  2.2057
  182SLPC  H13C20735   6.364   1.266   2.345 -0.9385 -1.9533 -2.1466
  182SLPC   C1420736   6.336   1.026   2.234 -0.1595  0.0081 -0.5488
  182SLPC  H14A20737   6.443   1.012   2.243 -0.3128 -0.1862  1.7505
  182SLPC  H14B20738   6.296   0.929   2.210  1.1299 -0.6369 -0.1951
  182SLPC  H14C20739   6.313   1.092   2.152  3.4651  0.8426 -1.0779
  182SLPC   C1520740   6.138   1.115   2.360 -0.0255 -0.3227  0.2463
  182SLPC  H15A20741   6.089   1.026   2.324 -2.2941  0.1161  1.9955
  182SLPC  H15B20742   6.088   1.130   2.455 -0.1785 -2.8783  0.6318
  182SLPC  H15C20743   6.136   1.196   2.287  0.8294 -1.9264 -1.6598
  182SLPC   C1220744   6.284   0.958   2.481 -0.8237  0.4418  0.7558
  182SLPC  H12A20745   6.384   0.924   2.505 -0.6769 -1.4322 -2.0600
  182SLPC  H12B20746   6.233   0.873   2.440  1.7923 -1.0754  0.3925
  182SLPC   C1120747   6.235   0.987   2.627  0.1327  0.1409 -0.2037
  182SLPC  H11A20748   6.292   1.071   2.673  2.7848 -0.7506 -1.6330
  182SLPC  H11B20749   6.257   0.903   2.696  0.1399  0.2868 -0.0286
  182SLPC     P20750   5.984   0.921   2.630  0.0200  0.3407  0.1824
  182SLPC   O1320751   5.855   0.994   2.616 -0.1406  0.2526 -0.2940
  182SLPC   O1420752   6.007   0.812   2.531 -0.1717  0.1037  0.7164
  182SLPC   O1220753   6.098   1.028   2.619 -0.2326  0.1488  0.0294
  182SLPC   O1120754   6.005   0.870   2.772 -0.2392 -0.8857 -0.9154
  182SLPC    C120755   5.972   0.944   2.895 -0.0313 -0.0436  0.3654
  182SLPC    HA20756   6.053   0.917   2.966 -1.5490 -1.4732  1.6386
  182SLPC    HB20757   5.976   1.053   2.878  0.5081 -0.1605 -0.2984
  182SLPC    C220758   5.836   0.883   2.947  0.2954  0.6950 -0.6284
  182SLPC    HS20759   5.749   0.917   2.888  0.8830 -0.2260 -2.0666
  182SLPC   O2120760   5.809   0.917   3.088 -0.6822 -0.0053  0.2407
  182SLPC   C2120761   5.819   1.037   3.120 -0.0124  0.3771  0.6228
  182SLPC   O2220762   5.834   1.129   3.040 -0.2768 -0.1110 -0.1272
  182SLPC   C2220763   5.816   1.052   3.266 -0.3433 -0.5962 -0.7607
  182SLPC   H2R20764   5.920   1.039   3.301 -0.8418 -0.1190  1.0107
  182SLPC   H2S20765   5.768   1.150   3.286  0.1742 -0.3567 -0.6860
  182SLPC    C320766   5.839   0.724   2.944  0.5479 -0.0139 -0.4004
  182SLPC    HX20767   5.925   0.685   3.002  1.0981  1.0196 -0.5038
  182SLPC    HY20768   5.857   0.690   2.840 -0.5446 -2.4491  0.1329
  182SLPC   O3120769   5.715   0.667   3.002  0.1995  0.1055  0.2772
  182SLPC   C3120770   5.650   0.579   2.932 -0.1015  0.0842 -0.1171
  182SLPC   O3220771   5.666   0.542   2.818 -0.3569  0.0151  0.3468
  182SLPC   C3220772   5.536   0.532   3.018 -0.3395 -0.2404 -0.1293
  182SLPC   H2X20773   5.583   0.456   3.084  2.1434  0.3631 -1.0960
  182SLPC   H2Y20774   5.477   0.479   2.940 -1.4114  1.2238 -0.3562
  182SLPC   C2320775   5.736   0.938   3.345  0.1882  0.4516 -0.4816
  182SLPC   H3R20776   5.798   0.847   3.329  0.5902  0.0816  2.6008
  182SLPC   H3S20777   5.634   0.926   3.302  0.6383 -2.6182 -0.9100
  182SLPC   C2420778   5.731   0.963   3.501  0.0133  0.4927  0.0625
  182SLPC   H4R20779   5.835   0.971   3.540  0.6672 -1.1955 -1.1803
  182SLPC   H4S20780   5.684   0.877   3.554 -2.7025 -0.0348 -2.9052
  182SLPC   C2520781   5.658   1.089   3.540 -0.9209 -0.4936  0.2452
  182SLPC   H5R20782   5.554   1.093   3.501 -1.4301  1.3129  1.6817
  182SLPC   H5S20783   5.721   1.172   3.501 -1.9808  0.3795  0.3570
  182SLPC   C2620784   5.656   1.111   3.686  0.4379  0.6707  0.3077
  182SLPC   H6R20785   5.641   1.219   3.703 -2.7548  0.4177 -0.3348
  182SLPC   H6S20786   5.745   1.070   3.738  1.5495 -0.5924 -2.3926
  182SLPC   C2720787   5.528   1.054   3.750  0.7975  1.2142  0.2070
  182SLPC   H7R20788   5.522   0.957   3.695  0.8466  0.0692  2.1360
  182SLPC   H7S20789   5.436   1.113   3.732 -0.1653 -1.1441 -4.0299
  182SLPC   C2820790   5.545   1.025   3.899 -0.3232 -0.3210 -0.3618
  182SLPC   H8R20791   5.626   0.949   3.906 -0.7116 -0.7145 -0.1107
  182SLPC   H8S20792   5.457   0.969   3.937 -1.0951  0.6556 -0.6586
  182SLPC   C2920793   5.552   1.148   3.988 -0.1402 -0.6065 -0.6315
  182SLPC   H9R20794   5.475   1.223   3.967 -1.2791 -1.8937 -1.2649
  182SLPC  C21020795   5.651   1.193   4.068 -0.4327  0.3021 -0.0251
  182SLPC  H10R20796   5.632   1.284   4.126 -1.4244 -0.2134  0.4769
  182SLPC  C21120797   5.793   1.130   4.094  0.3941  0.3158  0.5621
  182SLPC  H11R20798   5.870   1.199   4.054  0.6133  0.2675  0.8973
  182SLPC  H11S20799   5.804   1.031   4.047  1.4051 -0.3003  2.0069
  182SLPC  C21220800   5.813   1.114   4.242  0.0729  0.3766  0.0452
  182SLPC  H12R20801   5.729   1.073   4.301  2.2829 -1.8960  1.8279
  182SLPC  C21320802   5.932   1.128   4.310 -0.4897  0.0874  0.6414
  182SLPC  H13R20803   5.930   1.132   4.420  0.9668 -0.2449  0.7101
  182SLPC  C21420804   6.067   1.159   4.247 -0.6249 -0.5455 -0.3693
  182SLPC  H14R20805   6.113   1.246   4.298 -0.6754 -0.6205 -0.1951
  182SLPC  H14S20806   6.078   1.166   4.137  2.3615 -0.7301 -0.1578
  182SLPC  C21520807   6.166   1.050   4.288  0.0063  0.0203  0.2389
  182SLPC  H15R20808   6.145   0.950   4.245 -0.3309  1.5903 -3.7984
  182SLPC  H15S20809   6.158   1.053   4.398 -0.8876  1.4971  0.1587
  182SLPC  C21620810   6.308   1.080   4.237  0.2392 -0.2026  0.4750
  182SLPC  H16R20811   6.359   1.145   4.311  1.9920 -0.9167 -0.0541
  182SLPC  H16S20812   6.303   1.130   4.137 -0.6194  0.4256  0.8218
  182SLPC  C21720813   6.386   0.940   4.221  0.2776 -0.7812 -0.2649
  182SLPC  H17R20814   6.496   0.958   4.214  0.5547 -2.2064  0.1037
  182SLPC  H17S20815   6.355   0.908   4.119 -2.2686  2.7719 -0.7805
  182SLPC  C21820816   6.368   0.826   4.331  0.7576  0.0154  0.5522
  182SLPC  H18R20817   6.423   0.740   4.287 -0.3156  0.3489 -1.5444
  182SLPC  H18S20818   6.259   0.809   4.344 -0.3597  2.2519 -3.9278
  182SLPC  H18T20819   6.414   0.854   4.429  1.9837 -0.8451  0.2455
  182SLPC   C3320820   5.446   0.639   3.079  0.0004 -0.1948  0.5417
  182SLPC   H3X20821   5.425   0.711   2.996  0.6175 -0.6845 -0.0455
  182SLPC   H3Y20822   5.509   0.693   3.153 -0.9714 -1.0781  2.0582
  182SLPC   C3420823   5.306   0.589   3.132  0.7627 -0.5061  0.0419
  182SLPC   H4X20824   5.256   0.511   3.070  1.1841 -1.9934  1.4913
  182SLPC   H4Y20825   5.243   0.680   3.131 -0.6745 -1.3131 -4.2257
  182SLPC   C3520826   5.317   0.543   3.277 -0.1812  0.6992 -0.3697
  182SLPC   H5X20827   5.368   0.628   3.328  1.1620  0.4256 -1.1923
  182SLPC   H5Y20828   5.376   0.449   3.285  0.0332  0.8035 -0.7039
  182SLPC   C3620829   5.174   0.531   3.333 -0.0696 -0.0139 -0.8134
  182SLPC   H6X20830   5.111   0.475   3.260  0.5345 -1.8868  0.0294
  182SLPC   H6Y20831   5.134   0.634   3.337 -0.5222 -0.1784 -1.0400
  182SLPC   C3720832   5.191   0.474   3.471  0.1664  0.1757  0.2290
  182SLPC   H7X20833   5.230   0.563   3.524 -0.1698  0.8905 -0.6926
  182SLPC   H7Y20834   5.253   0.382   3.473 -1.1938 -0.8509 -1.4841
  182SLPC   C3820835   5.057   0.446   3.539 -0.2151  0.9269  0.0720
  182SLPC   H8X20836   5.017   0.365   3.475  0.4029 -2.2310  3.4099
  182SLPC   H8Y20837   4.992   0.537   3.541  2.1711  2.7462 -0.0882
  182SLPC   C3920838   5.070   0.389   3.682  0.0178 -0.2938 -0.1917
  182SLPC   H9X20839   5.129   0.295   3.685  1.3457  0.5195 -0.1626
  182SLPC   H9Y20840   4.978   0.348   3.729 -0.5963 -0.1901 -1.2695
  182SLPC  C31020841   5.132   0.488   3.784  0.2325 -0.1954  0.1661
  182SLPC  H10X20842   5.072   0.582   3.780 -0.6640 -0.6204  2.4283
  182SLPC  H10Y20843   5.232   0.520   3.748  0.4478  0.7405  1.5355
  182SLPC  C31120844   5.135   0.447   3.931 -0.2390  0.0805  0.6388
  182SLPC  H11X20845   5.196   0.354   3.930  1.2013  0.9800  1.0342
  182SLPC  H11Y20846   5.031   0.423   3.963  0.5636 -1.2601  2.4172
  182SLPC  C31220847   5.206   0.547   4.025  0.3756 -0.5705  0.4684
  182SLPC  H12X20848   5.154   0.644   4.015 -0.7594 -1.1357  0.6959
  182SLPC  H12Y20849   5.312   0.553   3.991  1.0071  1.3782  2.5175
  182SLPC  C31320850   5.214   0.523   4.179 -0.0958  0.0808  0.2105
  182SLPC  H13X20851   5.247   0.418   4.192 -2.2285 -0.5054  1.4972
  182SLPC  H13Y20852   5.112   0.523   4.223  0.1590  2.8618  1.0238
  182SLPC  C31420853   5.300   0.631   4.242  0.7391 -0.6316  0.1451
  182SLPC  H14X20854   5.256   0.726   4.204  0.9328  0.0490  1.5895
  182SLPC  H14Y20855   5.405   0.612   4.212  0.6947  0.0222 -0.4388
  182SLPC  C31520856   5.277   0.638   4.390  0.0642  0.6702  0.6902
  182SLPC  H15X20857   5.178   0.680   4.418 -0.3825  1.1084 -1.3466
  182SLPC  H15Y20858   5.359   0.704   4.425  0.2718  0.8483 -0.0961
  182SLPC  C31620859   5.301   0.505   4.460 -0.2543 -0.0711 -1.1825
  182SLPC  H16X20860   5.407   0.472   4.463  0.3351  1.7535  1.2643
  182SLPC  H16Y20861   5.234   0.428   4.416 -1.2863  0.0577  0.1091
  182SLPC  C31720862   5.250   0.517   4.608  0.3755  0.4767  0.3244
  182SLPC  H17X20863   5.139   0.524   4.609  0.2955 -0.5231  1.8380
  182SLPC  H17Y20864   5.286   0.610   4.657 -0.3645  0.9371 -0.0009
  182SLPC  C31820865   5.290   0.389   4.681  0.4988 -0.4177  0.3517
  182SLPC  H18X20866   5.399   0.382   4.703  0.8491  0.6126 -0.9790
  182SLPC  H18Y20867   5.252   0.296   4.634 -0.3749  0.2772 -0.3473
  182SLPC  H18Z20868   5.242   0.389   4.781  0.2995 -1.5680  0.2668
  183SLPC     N20869   2.372   3.414   1.941 -0.2032  0.2863  0.1500
  183SLPC   C1320870   2.483   3.398   1.840  0.0255 -0.3995  0.3964
  183SLPC  H13A20871   2.559   3.473   1.854 -0.4700  0.4877 -1.3481
  183SLPC  H13B20872   2.533   3.303   1.855  1.8064  0.5143  0.5691
  183SLPC  H13C20873   2.451   3.401   1.737  1.7518  0.5693 -0.1663
  183SLPC   C1420874   2.355   3.273   1.998  0.3788 -0.1439 -0.0063
  183SLPC  H14A20875   2.318   3.202   1.925  0.7969  0.5189 -0.8950
  183SLPC  H14B20876   2.445   3.237   2.045 -0.9920 -2.2318  1.1342
  183SLPC  H14C20877   2.284   3.275   2.079  1.6570 -2.3790  1.2557
  183SLPC   C1520878   2.247   3.463   1.876 -0.5601 -0.3974 -0.5142
  183SLPC  H15A20879   2.163   3.463   1.945  0.4489  1.3934  0.7974
  183SLPC  H15B20880   2.265   3.565   1.845  3.3402 -0.5557  0.7431
  183SLPC  H15C20881   2.239   3.410   1.782 -1.4341  1.1617 -1.3754
  183SLPC   C1220882   2.415   3.495   2.049  0.0011 -0.1328 -0.3904
  183SLPC  H12A20883   2.464   3.583   2.011  1.5504 -0.4940  0.6648
  183SLPC  H12B20884   2.489   3.444   2.110  0.8813  1.0256 -0.4395
  183SLPC   C1120885   2.300   3.535   2.156 -1.1203  0.1751  0.0371
  183SLPC  H11A20886   2.217   3.588   2.104 -0.9541  1.3001  0.8831
  183SLPC  H11B20887   2.357   3.611   2.213  1.2114 -0.9270 -0.7013
  183SLPC     P20888   2.315   3.354   2.350  0.2274  0.0094 -0.1081
  183SLPC   O1320889   2.207   3.286   2.428  0.3340 -0.5755 -0.0184
  183SLPC   O1420890   2.417   3.264   2.293  0.4421 -0.6108  0.3217
  183SLPC   O1220891   2.243   3.430   2.235 -0.0149  0.1600 -0.1692
  183SLPC   O1120892   2.380   3.462   2.443 -0.2051  0.3550  0.1055
  183SLPC    C120893   2.304   3.567   2.511  0.0287 -0.1025 -0.2796
  183SLPC    HA20894   2.354   3.665   2.491  1.3666 -0.6145  0.4606
  183SLPC    HB20895   2.197   3.566   2.482 -0.5585 -0.2785  1.7341
  183SLPC    C220896   2.307   3.554   2.667 -0.6394  0.2769 -0.0082
  183SLPC    HS20897   2.303   3.653   2.719 -2.1388 -0.1176  0.6716
  183SLPC   O2120898   2.420   3.482   2.721 -0.1452  0.5224  0.2417
  183SLPC   C2120899   2.529   3.538   2.700  0.0100  0.3754 -0.0572
  183SLPC   O2220900   2.546   3.651   2.648 -0.5934 -0.5397  0.0571
  183SLPC   C2220901   2.645   3.450   2.738  0.7052  0.0139 -0.0241
  183SLPC   H2R20902   2.628   3.342   2.720  0.1287 -0.0538  0.8706
  183SLPC   H2S20903   2.736   3.477   2.679  0.9586  2.5002  1.3758
  183SLPC    C320904   2.174   3.478   2.722 -0.2675 -0.0674 -0.0629
  183SLPC    HX20905   2.178   3.371   2.695 -2.8308 -0.8865  2.3304
  183SLPC    HY20906   2.084   3.519   2.670  0.4394 -0.6211 -1.7936
  183SLPC   O3120907   2.160   3.503   2.861 -0.0133 -0.1067  0.0705
  183SLPC   C3120908   2.174   3.397   2.939 -0.6806 -0.2741 -0.7729
  183SLPC   O3220909   2.219   3.290   2.908  0.3886  0.5078 -0.0422
  183SLPC   C3220910   2.139   3.438   3.084 -0.0018 -0.1951  0.2378
  183SLPC   H2X20911   2.071   3.361   3.128  0.5487 -2.3833 -2.4305
  183SLPC   H2Y20912   2.072   3.527   3.077  1.8398  1.3511  1.3732
  183SLPC   C2320913   2.702   3.487   2.879 -0.4397  0.9555  0.7504
  183SLPC   H3R20914   2.782   3.412   2.898 -0.5470  0.5995 -0.1988
  183SLPC   H3S20915   2.632   3.477   2.965 -0.0410 -2.6485  0.7707
  183SLPC   C2420916   2.773   3.628   2.893 -0.1578 -0.0093 -0.2761
  183SLPC   H4R20917   2.696   3.706   2.908 -2.8644 -2.2778 -1.4059
  183SLPC   H4S20918   2.826   3.664   2.802 -0.8140  1.1094 -0.2360
  183SLPC   C2520919   2.863   3.625   3.008 -0.2531 -0.2877 -0.2019
  183SLPC   H5R20920   2.928   3.714   2.994  1.6030 -1.3447  1.1888
  183SLPC   H5S20921   2.929   3.536   3.015  0.9775  0.5863 -0.4718
  183SLPC   C2620922   2.790   3.654   3.145 -0.3316  0.1924  0.4413
  183SLPC   H6R20923   2.799   3.557   3.197  1.0364  0.7057  1.2246
  183SLPC   H6S20924   2.681   3.663   3.127  0.0311  0.8170 -1.7449
  183SLPC   C2720925   2.854   3.768   3.225  0.0620 -0.4527  0.1191
  183SLPC   H7R20926   2.846   3.859   3.161  0.1412  0.9846  2.0593
  183SLPC   H7S20927   2.965   3.759   3.224  0.0181 -1.0360 -0.1068
  183SLPC   C2820928   2.793   3.783   3.360  0.7338  0.5707  0.0207
  183SLPC   H8R20929   2.820   3.697   3.425  1.3010  1.8369  1.5349
  183SLPC   H8S20930   2.683   3.790   3.351  0.6515 -1.2644 -0.7753
  183SLPC   C2920931   2.839   3.919   3.400  0.2864 -0.3216 -0.5838
  183SLPC   H9R20932   2.822   4.002   3.330  0.1097 -0.8872 -1.2220
  183SLPC  C21020933   2.898   3.936   3.520  0.5357  0.3881  0.0022
  183SLPC  H10R20934   2.925   4.038   3.551 -2.1836  1.3250 -0.4285
  183SLPC  C21120935   2.938   3.830   3.616  1.2977  0.3636  0.5954
  183SLPC  H11R20936   2.946   3.731   3.567 -0.3904  0.8168 -0.7078
  183SLPC  H11S20937   2.852   3.817   3.685  2.8290 -0.2047  2.4853
  183SLPC  C21220938   3.063   3.859   3.689 -0.6587  0.0736  0.8151
  183SLPC  H12R20939   3.143   3.877   3.616 -1.1873  2.3000  0.7238
  183SLPC  C21320940   3.097   3.886   3.816  0.2768  0.3658 -0.3115
  183SLPC  H13R20941   3.204   3.895   3.836  0.6522  0.3967 -2.1539
  183SLPC  C21420942   2.996   3.887   3.926 -0.1042  0.2100  0.3248
  183SLPC  H14R20943   3.017   3.828   4.018 -4.0374 -0.0507  1.2308
  183SLPC  H14S20944   2.894   3.859   3.892  0.2606 -0.5870 -0.1508
  183SLPC  C21520945   2.995   4.027   3.999 -0.2287  0.5886 -0.2132
  183SLPC  H15R20946   2.901   4.034   4.057 -0.4190  2.2310 -0.6664
  183SLPC  H15S20947   2.972   4.099   3.918  0.1206  1.0879  0.1248
  183SLPC  C21620948   3.115   4.082   4.078  0.1192  0.0303 -0.6160
  183SLPC  H16R20949   3.201   4.055   4.013 -0.3300 -2.7595 -0.1783
  183SLPC  H16S20950   3.133   4.021   4.169  1.6231  1.8076  0.3538
  183SLPC  C21720951   3.113   4.225   4.114  0.1147  0.7548 -0.3748
  183SLPC  H17R20952   3.153   4.287   4.031  0.8701  1.5419  0.5384
  183SLPC  H17S20953   3.184   4.248   4.197  0.1951  0.8869 -0.4791
  183SLPC  C21820954   2.982   4.291   4.161 -0.1764  0.0065  0.0167
  183SLPC  H18R20955   2.908   4.288   4.079  1.9030 -0.3384 -1.9309
  183SLPC  H18S20956   3.007   4.397   4.183  1.4626 -0.5430  0.9679
  183SLPC  H18T20957   2.942   4.242   4.253 -0.5207  0.5643  0.1690
  183SLPC   C3320958   2.263   3.477   3.173 -0.1436 -0.0602  0.8963
  183SLPC   H3X20959   2.235   3.528   3.267 -0.7632 -0.3503  0.8791
  183SLPC   H3Y20960   2.331   3.538   3.110  0.2165 -0.1841  1.1598
  183SLPC   C3420961   2.359   3.362   3.207  0.0444  0.1662  0.3345
  183SLPC   H4X20962   2.378   3.308   3.111  2.1957 -0.1910  0.9086
  183SLPC   H4Y20963   2.313   3.292   3.280 -1.6334 -0.5914 -1.3443
  183SLPC   C3520964   2.501   3.404   3.251  0.3638 -0.3994  0.0678
  183SLPC   H5X20965   2.560   3.437   3.163  2.3280 -0.6443  1.2500
  183SLPC   H5Y20966   2.562   3.319   3.287 -2.9752 -3.2124 -0.3868
  183SLPC   C3620967   2.505   3.505   3.369 -0.8167 -0.2621  0.6925
  183SLPC   H6X20968   2.450   3.602   3.359  1.7250  1.7852  4.2403
  183SLPC   H6Y20969   2.615   3.519   3.376  0.0016 -3.3176 -2.8187
  183SLPC   C3720970   2.477   3.431   3.498  0.8611 -0.0903 -0.4670
  183SLPC   H7X20971   2.537   3.338   3.510 -0.5374 -1.0519 -0.7190
  183SLPC   H7Y20972   2.369   3.410   3.488  0.8916 -0.0644 -0.8632
  183SLPC   C3820973   2.487   3.517   3.619  0.0108 -0.3913  0.2969
  183SLPC   H8X20974   2.439   3.472   3.709  0.0179 -0.1856  0.4042
  183SLPC   H8Y20975   2.450   3.620   3.598 -0.1546 -0.5395 -0.1376
  183SLPC   C3920976   2.633   3.539   3.663  0.1714  0.7530  0.5353
  183SLPC   H9X20977   2.683   3.583   3.574 -0.3815 -2.2264 -1.3992
  183SLPC   H9Y20978   2.672   3.436   3.679  0.0223  0.5221 -0.4993
  183SLPC  C31020979   2.661   3.631   3.778 -0.2441  0.0564  0.0404
  183SLPC  H10X20980   2.624   3.734   3.761 -0.7779 -0.0669  0.4337
  183SLPC  H10Y20981   2.768   3.631   3.807 -0.4553 -2.2417  1.0545
  183SLPC  C31120982   2.583   3.586   3.905 -0.6469  0.4254  0.5270
  183SLPC  H11X20983   2.478   3.622   3.911 -0.0017  2.4346  0.3688
  183SLPC  H11Y20984   2.640   3.641   3.983 -0.8054 -1.1830  1.8209
  183SLPC  C31220985   2.604   3.440   3.949 -0.1639  0.6283 -0.8467
  183SLPC  H12X20986   2.563   3.366   3.877  0.0023  0.1789 -0.4879
  183SLPC  H12Y20987   2.538   3.421   4.037 -0.4685 -2.0649 -1.5603
  183SLPC  C31320988   2.750   3.397   3.978 -0.3626 -0.3343 -0.3032
  183SLPC  H13X20989   2.788   3.443   4.071 -2.1097  0.1602  0.1898
  183SLPC  H13Y20990   2.821   3.422   3.895  0.1388  1.6044  0.6556
  183SLPC  C31420991   2.764   3.243   3.999 -0.1327 -0.3688  0.6973
  183SLPC  H14X20992   2.864   3.213   4.036  2.2993  3.5204 -2.1019
  183SLPC  H14Y20993   2.754   3.204   3.896 -0.6948 -1.7896  1.2559
  183SLPC  C31520994   2.659   3.170   4.087 -0.6507  0.2189 -0.0727
  183SLPC  H15X20995   2.670   3.062   4.061 -2.8430  0.0564 -0.5906
  183SLPC  H15Y20996   2.554   3.190   4.055 -0.4485  0.7932 -0.3857
  183SLPC  C31620997   2.673   3.196   4.235  0.0711  0.1273  0.3497
  183SLPC  H16X20998   2.638   3.298   4.264  0.1830  0.1544  0.3894
  183SLPC  H16Y20999   2.780   3.198   4.265  0.2681  1.5472 -0.3558
  183SLPC  C31721000   2.583   3.096   4.315  0.7186  0.0253  0.1460
  183SLPC  H17X21001   2.594   2.993   4.276  0.0974 -0.3071  0.8288
  183SLPC  H17Y21002   2.473   3.109   4.303  0.6789 -1.3077 -1.2741
  183SLPC  C31821003   2.617   3.080   4.467 -0.3373  0.3471 -0.5309
  183SLPC  H18X21004   2.602   3.184   4.503 -0.9490  0.4279 -1.0007
  183SLPC  H18Y21005   2.712   3.029   4.492 -0.5069 -1.1003 -2.5979
  183SLPC  H18Z21006   2.531   3.028   4.513 -0.9150  0.4509 -1.4536
  184SLPC     N21007   2.578   1.128   2.078  0.2514 -0.3835  0.1371
  184SLPC   C1321008   2.700   1.144   1.994 -0.5838 -0.0812  0.1970
  184SLPC  H13A21009   2.778   1.072   2.012  0.7842  0.6380 -2.3446
  184SLPC  H13B21010   2.675   1.141   1.889 -0.8484 -1.6745  0.2804
  184SLPC  H13C21011   2.744   1.237   2.028  1.5358 -0.7028 -0.6948
  184SLPC   C1421012   2.519   0.994   2.063 -0.1423  0.3191 -0.0668
  184SLPC  H14A21013   2.420   0.983   2.106 -1.6586 -0.8926 -3.5049
  184SLPC  H14B21014   2.502   0.969   1.959 -0.7646  0.3936  0.0139
  184SLPC  H14C21015   2.587   0.924   2.108  1.1794  2.6539  1.8140
  184SLPC   C1521016   2.485   1.233   2.034  0.8573 -0.1216  0.2097
  184SLPC  H15A21017   2.485   1.236   1.926  2.4401  4.5228  0.1045
  184SLPC  H15B21018   2.386   1.214   2.072  0.3920  0.6898 -0.5699
  184SLPC  H15C21019   2.509   1.332   2.069  0.6665 -0.3011  0.8595
  184SLPC   C1221020   2.620   1.140   2.224  0.9047 -0.8034  0.3663
  184SLPC  H12A21021   2.720   1.102   2.241 -0.0775 -4.4068 -1.0175
  184SLPC  H12B21022   2.551   1.086   2.288 -0.2313  2.0651  1.7150
  184SLPC   C1121023   2.623   1.274   2.285 -0.3076 -0.0126  0.4787
  184SLPC  H11A21024   2.652   1.264   2.392  0.8491  0.5500  0.2403
  184SLPC  H11B21025   2.525   1.325   2.279 -0.3264 -0.2174 -1.7403
  184SLPC     P21026   2.878   1.352   2.239  0.1401 -0.2356 -0.5061
  184SLPC   O1321027   2.932   1.224   2.195 -0.2546  0.4296 -0.0020
  184SLPC   O1421028   2.935   1.472   2.175 -0.2575  0.6939  0.2991
  184SLPC   O1221029   2.723   1.349   2.209 -0.2310  0.8342 -1.1017
  184SLPC   O1121030   2.899   1.377   2.396 -0.3024  0.2586 -0.0006
  184SLPC    C121031   2.892   1.511   2.451  0.0588  0.7029  0.2844
  184SLPC    HA21032   2.980   1.572   2.423  1.0104 -0.3872  0.7924
  184SLPC    HB21033   2.799   1.565   2.425 -0.0288 -0.1574 -1.2754
  184SLPC    C221034   2.900   1.505   2.609  0.0507  0.4442 -0.0847
  184SLPC    HS21035   2.872   1.606   2.644 -1.2272 -0.1765  0.7949
  184SLPC   O2121036   3.027   1.464   2.653 -0.1516 -0.4617  0.0943
  184SLPC   C2121037   3.113   1.554   2.694  0.5516 -0.5161 -0.1943
  184SLPC   O2221038   3.095   1.674   2.709 -0.2712 -0.1552  0.5813
  184SLPC   C2221039   3.247   1.490   2.715  0.1035 -0.2042  0.1769
  184SLPC   H2R21040   3.243   1.380   2.721  1.7875 -0.2872  0.1846
  184SLPC   H2S21041   3.309   1.527   2.631 -0.6874  0.3589 -0.1792
  184SLPC    C321042   2.799   1.413   2.673 -0.7307 -0.1222 -0.0939
  184SLPC    HX21043   2.829   1.306   2.664 -0.9584 -0.1680 -0.3661
  184SLPC    HY21044   2.705   1.434   2.617 -0.4788 -1.5446 -1.1066
  184SLPC   O3121045   2.803   1.447   2.820  0.0287  0.6787  0.0699
  184SLPC   C3121046   2.726   1.553   2.844  0.4829 -1.3374  0.2348
  184SLPC   O3221047   2.647   1.610   2.768  0.5287  0.0558  0.4005
  184SLPC   C3221048   2.740   1.598   2.984  0.0779 -0.2596 -0.6749
  184SLPC   H2X21049   2.839   1.566   3.025  0.7032  1.1786 -0.9853
  184SLPC   H2Y21050   2.651   1.560   3.036 -1.7824  1.3056 -2.5185
  184SLPC   C2321051   3.314   1.536   2.848  0.8104 -0.2240  0.3733
  184SLPC   H3R21052   3.312   1.647   2.859  3.2614 -0.1489  0.5610
  184SLPC   H3S21053   3.421   1.507   2.852  0.7446 -0.8422 -1.5414
  184SLPC   C2421054   3.246   1.476   2.967 -0.0847  0.0267 -1.0163
  184SLPC   H4R21055   3.241   1.368   2.943 -2.5858  0.4332 -2.7416
  184SLPC   H4S21056   3.138   1.501   2.973  0.2297  1.4221 -0.6770
  184SLPC   C2521057   3.317   1.469   3.105  0.5349 -0.1353  0.0457
  184SLPC   H5R21058   3.426   1.455   3.092  0.5740 -0.1374  0.3709
  184SLPC   H5S21059   3.281   1.379   3.160 -1.2657  0.5598  0.0841
  184SLPC   C2621060   3.280   1.593   3.191 -0.3032 -0.0253  0.2003
  184SLPC   H6R21061   3.288   1.684   3.127  0.4979 -0.4923 -0.3775
  184SLPC   H6S21062   3.349   1.609   3.277 -3.2660  0.7697  2.6091
  184SLPC   C2721063   3.134   1.575   3.244 -0.1925  0.2068  0.7210
  184SLPC   H7R21064   3.067   1.545   3.160  2.2560  0.7567 -1.5811
  184SLPC   H7S21065   3.092   1.669   3.286  1.3985  0.5445  1.6302
  184SLPC   C2821066   3.133   1.470   3.363 -0.0742 -0.1067  0.3545
  184SLPC   H8R21067   3.220   1.505   3.423  0.9586  0.2705 -1.2775
  184SLPC   H8S21068   3.164   1.373   3.317 -0.9257 -0.1186 -0.2178
  184SLPC   C2921069   3.009   1.471   3.446  0.1944 -0.3438  0.5997
  184SLPC   H9R21070   2.938   1.392   3.420  0.4660 -0.5673  0.5337
  184SLPC  C21021071   2.984   1.546   3.553 -0.4117  0.1628  0.6969
  184SLPC  H10R21072   2.891   1.523   3.606 -0.4065 -2.6819 -0.3680
  184SLPC  C21121073   3.072   1.645   3.619 -0.3897 -0.2039  0.5735
  184SLPC  H11R21074   3.010   1.719   3.674  0.5700 -0.8148  2.6018
  184SLPC  H11S21075   3.127   1.700   3.540 -1.8929 -0.7098 -0.8929
  184SLPC  C21221076   3.169   1.593   3.722  0.4476 -0.2310  1.0335
  184SLPC  H12R21077   3.263   1.553   3.681 -0.7050 -0.2690 -1.7652
  184SLPC  C21321078   3.139   1.583   3.856 -0.5462  0.2385  0.0870
  184SLPC  H13R21079   3.215   1.536   3.921 -0.8820  0.3941  0.6030
  184SLPC  C21421080   3.009   1.617   3.930 -0.3195 -0.1987  0.4929
  184SLPC  H14R21081   2.935   1.649   3.854  1.5360 -0.4341 -1.5298
  184SLPC  H14S21082   3.035   1.704   3.994  1.2621  0.0865 -0.4849
  184SLPC  C21521083   2.967   1.491   4.009  0.7576 -0.6462  0.0748
  184SLPC  H15R21084   2.961   1.412   3.931  1.3819 -0.9993  0.3789
  184SLPC  H15S21085   2.866   1.509   4.053  0.5429 -0.1144 -0.6110
  184SLPC  C21621086   3.060   1.452   4.126 -0.3371  0.0520  0.0995
  184SLPC  H16R21087   3.063   1.532   4.203 -0.3944 -0.1069  0.2674
  184SLPC  H16S21088   3.164   1.441   4.089 -0.4944 -1.5925  0.0629
  184SLPC  C21721089   3.020   1.314   4.191  0.1990 -0.0951 -0.3409
  184SLPC  H17R21090   2.909   1.304   4.196 -0.2153  3.5163  0.5592
  184SLPC  H17S21091   3.067   1.330   4.291  1.2224 -0.5814 -0.7294
  184SLPC  C21821092   3.094   1.195   4.132  0.0912  0.0482  0.1386
  184SLPC  H18R21093   3.200   1.228   4.130 -0.2368  1.1035 -0.4918
  184SLPC  H18S21094   3.054   1.173   4.031 -0.7925  2.0875 -0.0072
  184SLPC  H18T21095   3.084   1.102   4.192  0.2508  0.0661  0.1947
  184SLPC   C3321096   2.734   1.753   2.988 -0.4883  0.1415  0.7670
  184SLPC   H3X21097   2.631   1.785   2.959 -1.4766 -0.8180  3.0379
  184SLPC   H3Y21098   2.806   1.791   2.912 -1.8001 -0.3969 -0.8177
  184SLPC   C3421099   2.782   1.806   3.121 -0.1551 -0.0773  0.4191
  184SLPC   H4X21100   2.760   1.915   3.112  1.0507  0.1500  0.1113
  184SLPC   H4Y21101   2.891   1.790   3.132 -0.3926 -2.2696  0.0881
  184SLPC   C3521102   2.709   1.748   3.237  0.5482 -0.3538  0.0257
  184SLPC   H5X21103   2.760   1.652   3.258  1.1509 -0.4327 -1.6166
  184SLPC   H5Y21104   2.601   1.737   3.211  0.1992  1.5056  0.5191
  184SLPC   C3621105   2.724   1.834   3.359  0.5119 -0.8244  0.3049
  184SLPC   H6X21106   2.673   1.931   3.344 -0.5254 -1.3738  0.2331
  184SLPC   H6Y21107   2.832   1.852   3.381  0.1239  1.1971  0.6745
  184SLPC   C3721108   2.684   1.777   3.489 -0.5486  0.4157 -0.7959
  184SLPC   H7X21109   2.734   1.679   3.507  0.1042  1.0774  1.3541
  184SLPC   H7Y21110   2.575   1.759   3.502 -0.1834 -0.2897  1.7960
  184SLPC   C3821111   2.721   1.879   3.606  0.3291  0.3869  0.0159
  184SLPC   H8X21112   2.668   1.975   3.589  2.9318  1.7333 -1.0508
  184SLPC   H8Y21113   2.830   1.895   3.594  0.5279 -0.1234  1.0198
  184SLPC   C3921114   2.688   1.834   3.747  0.1845 -0.0916  0.7706
  184SLPC   H9X21115   2.738   1.738   3.772 -0.9990 -0.6857  0.9308
  184SLPC   H9Y21116   2.578   1.817   3.750  0.0543  0.2713 -1.1459
  184SLPC  C31021117   2.722   1.944   3.842 -0.5784 -0.6309 -0.0302
  184SLPC  H10X21118   2.673   2.038   3.808  2.3768  0.9751 -0.2056
  184SLPC  H10Y21119   2.832   1.956   3.858 -0.8953  0.3203  1.7949
  184SLPC  C31121120   2.656   1.925   3.977 -0.0790  0.1256  0.2393
  184SLPC  H11X21121   2.678   1.834   4.036  0.6634  0.8921  1.1821
  184SLPC  H11Y21122   2.546   1.925   3.963 -0.3481  0.5850  2.1376
  184SLPC  C31221123   2.690   2.031   4.087  0.1709  0.1061  0.3928
  184SLPC  H12X21124   2.663   2.134   4.056 -2.6053 -1.2514 -2.2195
  184SLPC  H12Y21125   2.798   2.020   4.113  0.1439  0.3563  0.6135
  184SLPC  C31321126   2.607   2.004   4.215 -0.2573 -0.1446  0.1110
  184SLPC  H13X21127   2.613   1.899   4.252  0.4427 -0.2878 -0.4115
  184SLPC  H13Y21128   2.498   2.016   4.198 -0.0847  0.3767 -0.6349
  184SLPC  C31421129   2.647   2.094   4.329  0.1749  0.5463  0.1671
  184SLPC  H14X21130   2.640   2.203   4.311 -4.4342  0.3832 -0.1699
  184SLPC  H14Y21131   2.755   2.068   4.344 -0.4833 -2.1126  0.9058
  184SLPC  C31521132   2.580   2.057   4.467  0.0233  0.2610  0.1213
  184SLPC  H15X21133   2.555   1.951   4.489  0.4325  0.2439  0.5076
  184SLPC  H15Y21134   2.484   2.112   4.457  1.2033  2.8239  1.9022
  184SLPC  C31621135   2.660   2.107   4.588  0.0686 -0.0276  0.5494
  184SLPC  H16X21136   2.602   2.104   4.682 -1.5497 -1.2212 -0.4244
  184SLPC  H16Y21137   2.684   2.213   4.565 -0.4004  0.2564  1.3284
  184SLPC  C31721138   2.801   2.042   4.616  0.6011  0.4885 -0.1859
  184SLPC  H17X21139   2.873   2.074   4.538 -0.3771  1.7926 -0.5878
  184SLPC  H17Y21140   2.778   1.933   4.611  0.5056  0.4581  0.7675
  184SLPC  C31821141   2.863   2.071   4.757 -0.2985 -0.4303 -0.2931
  184SLPC  H18X21142   2.800   2.030   4.840 -1.5635  0.1030 -0.9564
  184SLPC  H18Y21143   2.860   2.182   4.766  0.7978 -0.1172 -3.0290
  184SLPC  H18Z21144   2.963   2.027   4.774 -0.9810 -1.4001  1.4366
  185POPC     N21145   3.734   5.212   7.062 -0.3865 -0.0533 -0.0940
  185POPC   C1221146   3.636   5.316   7.003 -1.3061  0.5184 -0.3372
  185POPC  H12A21147   3.689   5.410   7.004 -1.0555  0.3978  1.7240
  185POPC  H12B21148   3.553   5.321   7.072 -2.0959 -0.9999 -1.1233
  185POPC   C1321149   3.664   5.080   7.083 -0.4351  0.7225  0.2747
  185POPC  H13A21150   3.626   5.042   6.989 -0.2966 -0.0018  0.5020
  185POPC  H13B21151   3.725   5.002   7.126 -0.7717  0.0982 -0.3537
  185POPC  H13C21152   3.577   5.085   7.148 -0.6941 -0.1649  0.0198
  185POPC   C1421153   3.845   5.183   6.966  0.2641 -0.3184 -0.9969
  185POPC  H14A21154   3.922   5.133   7.022 -1.4683 -0.3314  1.5398
  185POPC  H14B21155   3.817   5.115   6.887  0.5828 -2.5709  0.7196
  185POPC  H14C21156   3.880   5.275   6.921  2.5287 -0.8845 -0.4839
  185POPC   C1521157   3.797   5.266   7.181 -0.3600 -0.1136 -0.0201
  185POPC  H15A21158   3.838   5.363   7.158 -0.4437  0.6750  2.7021
  185POPC  H15B21159   3.870   5.201   7.228  0.4650 -0.8637 -2.2488
  185POPC  H15C21160   3.730   5.284   7.264  1.9708  1.1947  1.6858
  185POPC   C1121161   3.582   5.294   6.865  0.1331  0.7564  0.1618
  185POPC  H11A21162   3.661   5.312   6.790 -0.0082 -0.4848 -0.3166
  185POPC  H11B21163   3.512   5.380   6.854  0.5540  1.2349  1.1161
  185POPC     P21164   3.378   5.127   6.813  0.1073 -0.5686  0.0115
  185POPC   O1321165   3.285   5.227   6.883 -1.1471  0.3054  0.0726
  185POPC   O1421166   3.351   4.987   6.845  0.3156  0.1750 -0.3215
  185POPC   O1221167   3.523   5.165   6.845  0.2885  0.5513  0.6011
  185POPC   O1121168   3.358   5.146   6.657  0.2703  0.5181 -0.2393
  185POPC    C121169   3.485   5.140   6.576  0.3158 -0.5465 -0.2188
  185POPC    HA21170   3.455   5.083   6.485  1.5856  1.2429 -1.8613
  185POPC    HB21171   3.574   5.091   6.620 -0.1246 -0.3994  0.8563
  185POPC    C221172   3.532   5.281   6.519  0.3306  0.1823  0.3633
  185POPC    HS21173   3.552   5.353   6.601 -0.4670 -0.2430  0.9392
  185POPC   O2121174   3.441   5.321   6.416  0.5019  0.2591  0.6443
  185POPC   C2121175   3.393   5.444   6.438 -0.1373  0.1726  0.3321
  185POPC   O2221176   3.431   5.524   6.523 -0.3283 -0.5587 -0.0194
  185POPC   C2221177   3.284   5.468   6.327 -0.1878  0.4719  0.2182
  185POPC   H2R21178   3.185   5.497   6.368 -0.4005 -1.1802  0.9665
  185POPC   H2S21179   3.255   5.369   6.284 -0.2630  0.3655  0.5122
  185POPC    C321180   3.673   5.262   6.452 -0.3492 -1.4108 -0.0455
  185POPC    HX21181   3.749   5.236   6.528  0.4967 -1.2305 -0.8032
  185POPC    HY21182   3.705   5.359   6.407  1.9602 -2.5124 -0.9259
  185POPC   O3121183   3.674   5.161   6.350  0.2202  0.3110  0.1435
  185POPC   C3121184   3.773   5.168   6.261 -0.2307  0.7772  0.1079
  185POPC   O3221185   3.855   5.259   6.261 -0.1479  0.3670  0.4699
  185POPC   C3221186   3.779   5.034   6.187  0.4442 -0.3351  0.3136
  185POPC   H2X21187   3.679   4.989   6.172 -0.4258  0.8783  2.0028
  185POPC   H2Y21188   3.829   4.965   6.258  1.4101 -0.6088 -0.6239
  185POPC   C2321189   3.334   5.579   6.229 -0.3535  0.2840  0.5997
  185POPC   H3R21190   3.359   5.669   6.288 -0.8138  0.2075  0.9198
  185POPC   H3S21191   3.243   5.615   6.177 -1.7947  1.9008  3.9213
  185POPC   C2421192   3.440   5.524   6.138 -0.2874 -0.8539 -0.1563
  185POPC   H4R21193   3.512   5.464   6.196  0.7288  0.6778  0.2268
  185POPC   H4S21194   3.482   5.611   6.083  1.3999 -1.9019 -0.5779
  185POPC   C2521195   3.379   5.438   6.028 -0.0209 -0.0637  0.3529
  185POPC   H5R21196   3.304   5.497   5.971  0.2593  0.1789  0.2279
  185POPC   H5S21197   3.327   5.351   6.072 -0.4340 -1.3207 -2.4362
  185POPC   C2621198   3.486   5.387   5.929  0.1573 -0.3666  0.2165
  185POPC   H6R21199   3.434   5.303   5.877 -2.7406  0.8361  0.9756
  185POPC   H6S21200   3.561   5.340   5.996  2.5605 -0.4662 -2.3544
  185POPC   C2721201   3.566   5.489   5.847 -0.8443 -0.3915  0.0946
  185POPC   H7R21202   3.645   5.448   5.780  1.4058  1.7555  1.2416
  185POPC   H7S21203   3.629   5.560   5.905  0.6648 -1.7821  0.2508
  185POPC   C2821204   3.479   5.569   5.748 -0.6546 -0.2630 -0.6645
  185POPC   H8R21205   3.545   5.635   5.689  1.2751 -0.1929  1.4198
  185POPC   H8S21206   3.416   5.640   5.807  1.3899  0.1447  1.1731
  185POPC   C2921207   3.406   5.481   5.654  0.2729  0.1055  0.7915
  185POPC   H9121208   3.351   5.391   5.688  0.6940 -0.4707 -0.0247
  185POPC  C21021209   3.388   5.502   5.523 -0.2358  0.6703 -0.4035
  185POPC  H10121210   3.307   5.439   5.482  0.4596 -0.9002  0.5435
  185POPC  C21121211   3.451   5.611   5.447 -1.0611  0.4200 -0.0402
  185POPC  H11R21212   3.506   5.692   5.499 -0.5620  1.6810 -2.3741
  185POPC  H11S21213   3.377   5.665   5.383 -1.1698 -1.1252 -1.2729
  185POPC  C21221214   3.570   5.555   5.359 -0.3362 -0.2914 -0.9663
  185POPC  H12R21215   3.642   5.500   5.423  1.3252 -0.7258 -3.0700
  185POPC  H12S21216   3.627   5.644   5.324  2.1377  0.1926  3.6069
  185POPC  C21321217   3.533   5.460   5.250 -0.0502  0.1930  0.6390
  185POPC  H13R21218   3.448   5.491   5.185  0.6709  0.6056 -0.1197
  185POPC  H13S21219   3.496   5.364   5.293 -2.2064  0.7456  0.1633
  185POPC  C21421220   3.656   5.430   5.157  0.1334  0.3489 -0.3916
  185POPC  H14R21221   3.749   5.416   5.216  0.1143 -2.3651 -0.9057
  185POPC  H14S21222   3.671   5.528   5.106  0.5388  0.3258 -0.3155
  185POPC  C21521223   3.644   5.307   5.064  0.3442  1.0242 -0.4385
  185POPC  H15R21224   3.602   5.341   4.967 -1.3238 -0.8290 -0.4205
  185POPC  H15S21225   3.573   5.239   5.115  1.5800  0.2676  0.2997
  185POPC  C21621226   3.779   5.238   5.036 -0.2909  0.3602 -0.2742
  185POPC  H16R21227   3.820   5.226   5.138 -1.4917 -1.7018  0.0034
  185POPC  H16S21228   3.836   5.308   4.970 -1.6275  1.4800 -0.2811
  185POPC  C21721229   3.758   5.105   4.968 -0.8412 -0.0643 -0.4337
  185POPC  H17R21230   3.727   5.032   5.045 -0.8588 -1.8400 -2.0391
  185POPC  H17S21231   3.857   5.069   4.931 -1.2814 -1.3663 -0.3924
  185POPC  C21821232   3.657   5.103   4.847  0.0039  0.0483  0.3225
  185POPC  H18R21233   3.677   5.188   4.778  1.6503 -0.1593  0.4867
  185POPC  H18S21234   3.553   5.106   4.885 -0.9024  0.1163 -2.0441
  185POPC  H18T21235   3.672   5.015   4.780  1.3108 -0.3269  1.0707
  185POPC   C3321236   3.851   5.045   6.050  0.3585  0.3014 -0.3281
  185POPC   H3X21237   3.882   4.945   6.011 -1.9732 -1.0781  1.1202
  185POPC   H3Y21238   3.944   5.104   6.059  0.9561 -0.8562  1.6082
  185POPC   C3421239   3.769   5.117   5.943  0.6965  0.2773  1.1414
  185POPC   H4X21240   3.745   5.224   5.958  1.2733  0.7536 -0.9524
  185POPC   H4Y21241   3.670   5.068   5.941 -0.0999  1.8382  0.7467
  185POPC   C3521242   3.836   5.110   5.801  0.1542 -0.1336  0.8195
  185POPC   H5X21243   3.828   5.000   5.785 -0.8309  0.1547 -0.8875
  185POPC   H5Y21244   3.940   5.148   5.801  0.6020 -1.2914  0.0488
  185POPC   C3621245   3.760   5.184   5.690  0.3316 -0.1483 -0.4241
  185POPC   H6X21246   3.761   5.292   5.712  1.1046 -0.6700  2.5551
  185POPC   H6Y21247   3.654   5.150   5.687 -0.4955  2.1313  0.8483
  185POPC   C3721248   3.817   5.164   5.552 -0.3038 -0.2083  1.1136
  185POPC   H7X21249   3.755   5.214   5.474  2.0868  0.0860 -0.7213
  185POPC   H7Y21250   3.815   5.055   5.535 -3.2516  0.0945 -1.2953
  185POPC   C3821251   3.958   5.223   5.528 -0.1001 -0.0207 -0.5463
  185POPC   H8X21252   4.031   5.157   5.581 -1.0716  0.9601  2.2131
  185POPC   H8Y21253   3.956   5.329   5.559  0.6730 -0.3281  0.6501
  185POPC   C3921254   3.992   5.208   5.389 -0.2464 -0.9130  0.6337
  185POPC   H9X21255   3.938   5.286   5.331  0.8088 -0.7680 -0.1823
  185POPC   H9Y21256   3.962   5.107   5.355  3.4226 -1.8092 -0.3468
  185POPC  C31021257   4.140   5.217   5.363 -0.3003 -0.1609 -0.0630
  185POPC  H10X21258   4.200   5.162   5.438  2.4168  4.3678  1.4658
  185POPC  H10Y21259   4.182   5.320   5.360 -0.2297 -0.2002 -0.5347
  185POPC  C31121260   4.185   5.155   5.224 -0.0100  0.5095 -0.2096
  185POPC  H11X21261   4.110   5.075   5.204 -1.1287  1.9400 -1.9340
  185POPC  H11Y21262   4.290   5.120   5.235  0.5323  2.4239  1.2157
  185POPC  C31221263   4.168   5.245   5.100 -0.4885 -0.2104 -0.2834
  185POPC  H12X21264   4.220   5.344   5.100 -2.5975  0.9662 -0.8690
  185POPC  H12Y21265   4.060   5.268   5.095 -0.8359 -1.8162 -0.6357
  185POPC  C31321266   4.211   5.165   4.975 -0.5646 -0.6951  0.0406
  185POPC  H13X21267   4.184   5.228   4.887  0.3594 -0.2214  0.0870
  185POPC  H13Y21268   4.158   5.068   4.979 -0.0678 -0.9396  0.9133
  185POPC  C31421269   4.367   5.162   4.962  0.0263 -0.5495  0.1838
  185POPC  H14X21270   4.412   5.108   5.049  2.1922  1.6082  0.5067
  185POPC  H14Y21271   4.400   5.267   4.951 -0.2904 -0.0083  3.3352
  185POPC  C31521272   4.431   5.100   4.836  0.1071 -0.3571 -0.8031
  185POPC  H15X21273   4.407   5.178   4.762  0.4849  2.1995  1.6035
  185POPC  H15Y21274   4.383   5.004   4.806  0.2062 -0.0419 -1.9893
  185POPC  C31621275   4.586   5.092   4.836 -0.0038  0.6429  0.2172
  185POPC  H16X21276   4.633   5.073   4.737 -0.0454  1.0230  0.1200
  185POPC  H16Y21277   4.621   5.016   4.909  0.7441  0.6422 -0.1298
  185POPC  H16Z21278   4.628   5.190   4.869 -0.8936  0.9606  0.4552
  186POPC     N21279   0.800   6.573   7.150  0.3847  0.1677  0.5001
  186POPC   C1221280   0.834   6.431   7.188  0.0582 -0.3469 -0.1030
  186POPC  H12A21281   0.780   6.405   7.278  0.0619 -0.3683 -0.1071
  186POPC  H12B21282   0.941   6.428   7.195  0.1332  0.5008 -0.7946
  186POPC   C1321283   0.838   6.657   7.272  0.1030 -0.5015  0.2286
  186POPC  H13A21284   0.795   6.756   7.266 -0.6411 -0.8339 -0.0688
  186POPC  H13B21285   0.797   6.605   7.358 -1.1694  0.0958  0.0176
  186POPC  H13C21286   0.945   6.669   7.275  0.3107 -2.2320  2.4602
  186POPC   C1421287   0.876   6.623   7.030  0.1897  0.1652  0.0248
  186POPC  H14A21288   0.846   6.725   7.008 -0.9174 -0.0357  0.5366
  186POPC  H14B21289   0.982   6.616   7.047  0.4016  1.3071 -0.6852
  186POPC  H14C21290   0.850   6.570   6.939  0.1608 -1.7442  1.0904
  186POPC   C1521291   0.649   6.591   7.131 -0.2069  0.0349 -0.1408
  186POPC  H15A21292   0.594   6.572   7.222  0.3879  1.4675  0.5387
  186POPC  H15B21293   0.621   6.525   7.050  1.3439 -1.0087  0.1314
  186POPC  H15C21294   0.640   6.695   7.105  1.4676  0.2570  0.0592
  186POPC   C1121295   0.790   6.326   7.077 -0.5908  0.1211  0.1769
  186POPC  H11A21296   0.830   6.233   7.123  0.2313 -1.4306 -3.3453
  186POPC  H11B21297   0.841   6.343   6.980  0.3848 -0.2686  0.6008
  186POPC     P21298   0.549   6.192   7.039 -0.0158  0.3808  0.0235
  186POPC   O1321299   0.409   6.220   7.078 -0.2508 -0.0904 -0.3067
  186POPC   O1421300   0.611   6.079   7.106 -0.1617  0.0540  0.2056
  186POPC   O1221301   0.644   6.317   7.065 -0.3418  0.4911 -0.0503
  186POPC   O1121302   0.552   6.171   6.883 -0.0172  0.0241  0.4179
  186POPC    C121303   0.528   6.284   6.801  0.3367 -0.0965 -0.1998
  186POPC    HA21304   0.622   6.316   6.750 -1.4529  1.9456 -2.4690
  186POPC    HB21305   0.500   6.372   6.863 -1.8283 -1.6864  1.2299
  186POPC    C221306   0.423   6.255   6.688  0.1935 -0.1591  0.1149
  186POPC    HS21307   0.355   6.177   6.730  3.1792 -3.5308 -0.8042
  186POPC   O2121308   0.480   6.219   6.554  0.3233  0.9040  0.6060
  186POPC   C2121309   0.464   6.096   6.516 -0.2952 -0.0649  0.4245
  186POPC   O2221310   0.396   6.011   6.575  0.3641 -0.0304 -0.2246
  186POPC   C2221311   0.546   6.069   6.388 -0.2738  0.2770 -0.4974
  186POPC   H2R21312   0.574   5.962   6.395 -0.0726  0.2891 -1.0486
  186POPC   H2S21313   0.630   6.142   6.393 -0.2259  0.1343  1.4829
  186POPC    C321314   0.331   6.384   6.670 -0.4442 -0.5429  0.5905
  186POPC    HX21315   0.398   6.465   6.634 -0.5191 -0.8853 -0.3680
  186POPC    HY21316   0.281   6.404   6.767 -0.2522 -1.8888  0.9907
  186POPC   O3121317   0.246   6.395   6.550  0.1077  0.4912  0.6464
  186POPC   C3121318   0.139   6.311   6.555 -0.2159 -0.1165 -0.0487
  186POPC   O3221319   0.118   6.233   6.644 -0.3149 -0.1065 -0.4333
  186POPC   C3221320   0.052   6.348   6.444  0.0762  0.2576 -0.4292
  186POPC   H2X21321   0.003   6.447   6.456 -1.1568 -0.4556  0.7175
  186POPC   H2Y21322  -0.031   6.274   6.446  0.1724  0.1509 -0.3970
  186POPC   C2321323   0.462   6.100   6.264  0.3055 -0.5309  0.1259
  186POPC   H3R21324   0.427   6.206   6.264 -0.8826 -0.9017 -0.7066
  186POPC   H3S21325   0.376   6.030   6.269 -1.2977  1.2674 -0.7286
  186POPC   C2421326   0.557   6.069   6.148  0.3189 -0.2003  0.3671
  186POPC   H4R21327   0.588   5.964   6.163  0.4020 -0.0679  1.1942
  186POPC   H4S21328   0.646   6.132   6.173 -1.7752  2.9100  0.5994
  186POPC   C2521329   0.486   6.108   6.016 -0.2379  0.4548 -0.1014
  186POPC   H5R21330   0.461   6.214   5.994 -1.3788  0.0301 -0.9292
  186POPC   H5S21331   0.397   6.044   6.032 -0.5451  1.3440  2.1997
  186POPC   C2621332   0.560   6.058   5.891  0.4079 -0.3267 -0.1742
  186POPC   H6R21333   0.620   5.967   5.915  1.8443  0.2067 -1.6095
  186POPC   H6S21334   0.631   6.140   5.869 -1.6936  1.9959  1.2080
  186POPC   C2721335   0.467   6.027   5.772 -0.2073 -0.0443 -0.7846
  186POPC   H7R21336   0.411   6.116   5.738 -1.5019 -0.5830 -0.1178
  186POPC   H7S21337   0.403   5.945   5.811  2.4522 -0.2217  3.8741
  186POPC   C2821338   0.551   5.966   5.652 -0.3709 -0.1394  0.2445
  186POPC   H8R21339   0.474   5.924   5.583 -1.1221  1.1590  0.2539
  186POPC   H8S21340   0.606   5.876   5.688  1.2229  1.3211  1.6426
  186POPC   C2921341   0.651   6.071   5.600  0.5536  0.6623  0.1806
  186POPC   H9121342   0.748   6.061   5.650 -0.3770  0.6505  2.0644
  186POPC  C21021343   0.637   6.172   5.508 -0.9158  0.2619  0.1795
  186POPC  H10121344   0.728   6.224   5.475 -0.5908  0.8259  1.8528
  186POPC  C21121345   0.510   6.195   5.432 -0.2258 -0.7931  0.3570
  186POPC  H11R21346   0.475   6.299   5.448  0.8595 -0.7028  2.4425
  186POPC  H11S21347   0.428   6.124   5.455 -2.7420  1.5831 -0.6665
  186POPC  C21221348   0.541   6.188   5.278  0.0633  0.0901 -0.3541
  186POPC  H12R21349   0.580   6.085   5.259  1.9208  0.3959  1.5270
  186POPC  H12S21350   0.619   6.264   5.256 -0.0389  0.4044  0.3738
  186POPC  C21321351   0.414   6.217   5.194 -0.4845  0.0954  0.4053
  186POPC  H13R21352   0.414   6.328   5.192  0.6553  0.1024  0.0794
  186POPC  H13S21353   0.320   6.174   5.236 -0.4004 -0.8893 -0.3752
  186POPC  C21421354   0.439   6.168   5.049 -0.5785  0.2271  0.0835
  186POPC  H14R21355   0.353   6.208   4.990 -0.7373 -1.5416 -0.9493
  186POPC  H14S21356   0.430   6.058   5.045 -1.5493  0.3144 -0.7561
  186POPC  C21521357   0.560   6.229   4.979 -0.2171  0.5977  0.0720
  186POPC  H15R21358   0.642   6.173   5.027  0.1849  1.9589  1.0481
  186POPC  H15S21359   0.569   6.339   4.994 -0.0812  0.3292  2.3409
  186POPC  C21621360   0.561   6.188   4.837  0.2132 -0.1610  0.1497
  186POPC  H16R21361   0.478   6.242   4.788 -1.0864 -1.5790  0.7145
  186POPC  H16S21362   0.539   6.080   4.819 -0.0561 -0.2866  1.1863
  186POPC  C21721363   0.691   6.217   4.759  0.2446  0.4854 -0.1113
  186POPC  H17R21364   0.778   6.168   4.807  0.9026  0.2955 -1.4477
  186POPC  H17S21365   0.699   6.327   4.747 -0.7800  0.4007 -1.9310
  186POPC  C21821366   0.676   6.153   4.616 -0.1939  0.2531  0.6222
  186POPC  H18R21367   0.669   6.043   4.608 -0.4199  0.2772  0.4945
  186POPC  H18S21368   0.768   6.162   4.553  0.1436 -0.6163  0.9841
  186POPC  H18T21369   0.590   6.205   4.568 -0.0367 -0.7446 -0.8127
  186POPC   C3321370   0.112   6.342   6.301  0.1197 -0.2902 -0.2873
  186POPC   H3X21371   0.220   6.369   6.307 -0.2162  1.1984 -0.4613
  186POPC   H3Y21372   0.069   6.430   6.249  1.3759  0.4814 -0.0667
  186POPC   C3421373   0.092   6.201   6.244 -0.1742  1.2681 -0.0732
  186POPC   H4X21374  -0.010   6.160   6.253 -0.4511  2.2019  1.3458
  186POPC   H4Y21375   0.145   6.127   6.308 -1.2340  0.1083 -0.4796
  186POPC   C3521376   0.153   6.189   6.109 -0.2978 -0.4639 -0.0526
  186POPC   H5X21377   0.115   6.094   6.066  1.5878 -0.8451 -0.9825
  186POPC   H5Y21378   0.263   6.201   6.099 -0.4463 -0.6909 -2.9674
  186POPC   C3621379   0.101   6.299   6.017  0.5399 -0.5688  0.1458
  186POPC   H6X21380   0.148   6.397   6.042 -0.3984  0.4773 -1.9348
  186POPC   H6Y21381  -0.008   6.310   6.035  0.6889 -0.0002  0.7557
  186POPC   C3721382   0.124   6.290   5.861 -0.1871 -0.3400  0.0013
  186POPC   H7X21383   0.230   6.308   5.835  0.0749 -1.6776  0.0993
  186POPC   H7Y21384   0.062   6.369   5.811  2.2023  0.7174 -1.4814
  186POPC   C3821385   0.083   6.162   5.794 -0.1575 -0.4231  0.7055
  186POPC   H8X21386  -0.021   6.131   5.817 -1.3548  0.3926 -2.9061
  186POPC   H8Y21387   0.151   6.082   5.831  0.2929  0.1469  1.1461
  186POPC   C3921388   0.116   6.179   5.645 -0.0961  0.3302 -0.0072
  186POPC   H9X21389   0.124   6.072   5.615  0.7741 -0.1485  1.7819
  186POPC   H9Y21390   0.216   6.220   5.618  0.7525 -1.1034  0.8114
  186POPC  C31021391   0.009   6.237   5.550  0.4468 -0.7545 -0.0334
  186POPC  H10X21392   0.006   6.343   5.582  0.2192 -1.0946  1.1316
  186POPC  H10Y21393  -0.089   6.188   5.567 -0.0716  0.2915  0.0185
  186POPC  C31121394   0.053   6.222   5.398  0.7066 -0.2349 -0.5992
  186POPC  H11X21395   0.080   6.115   5.386  0.9828 -0.3706  1.0953
  186POPC  H11Y21396   0.132   6.296   5.370 -1.1198  1.8885 -0.3975
  186POPC  C31221397  -0.060   6.257   5.299 -0.5376 -0.4919  0.4195
  186POPC  H12X21398  -0.088   6.363   5.320  0.1718 -0.3750  0.7950
  186POPC  H12Y21399  -0.146   6.190   5.317 -2.8167  1.7180 -1.4758
  186POPC  C31321400  -0.006   6.235   5.154 -0.3036  0.3632  0.3993
  186POPC  H13X21401  -0.001   6.125   5.138 -0.6463  0.6841 -2.3408
  186POPC  H13Y21402   0.093   6.281   5.132 -1.2841  1.7775 -1.4163
  186POPC  C31421403  -0.103   6.295   5.052 -0.5778  0.1344  0.3492
  186POPC  H14X21404  -0.118   6.402   5.080  0.0055  0.4858 -0.6256
  186POPC  H14Y21405  -0.206   6.254   5.050  0.2236 -2.0116 -2.2598
  186POPC  C31521406  -0.070   6.268   4.906  0.6101  1.0864  0.4792
  186POPC  H15X21407  -0.034   6.164   4.903  2.1442  1.2676  5.0493
  186POPC  H15Y21408   0.014   6.337   4.885  1.1615 -0.4580 -3.0919
  186POPC  C31621409  -0.180   6.305   4.801 -0.0384  0.5006 -0.3142
  186POPC  H16X21410  -0.213   6.407   4.830  3.6606  1.8261 -0.2172
  186POPC  H16Y21411  -0.261   6.229   4.803 -1.6146  2.0648  2.5181
  186POPC  H16Z21412  -0.128   6.313   4.703  0.0404 -1.8849 -0.5175
  187POPC     N21413   2.284   6.267   1.700 -0.3679  0.5995 -0.4002
  187POPC   C1221414   2.135   6.234   1.688 -0.5236  0.4090 -0.2662
  187POPC  H12A21415   2.122   6.137   1.642  0.2180 -0.8713  2.0435
  187POPC  H12B21416   2.093   6.309   1.623 -1.4616 -0.4327 -0.6710
  187POPC   C1321417   2.345   6.272   1.558 -0.1582 -0.3889  0.1718
  187POPC  H13A21418   2.453   6.274   1.566 -0.0906 -3.2808  0.9812
  187POPC  H13B21419   2.306   6.196   1.492  1.4692 -0.4124 -0.8123
  187POPC  H13C21420   2.316   6.362   1.505  1.3263 -0.1243 -0.2298
  187POPC   C1421421   2.295   6.406   1.765 -0.2821 -0.1540 -0.2410
  187POPC  H14A21422   2.398   6.434   1.781  0.4332  0.0903 -4.2958
  187POPC  H14B21423   2.238   6.477   1.707  0.4391  0.6443  0.0019
  187POPC  H14C21424   2.252   6.398   1.864 -0.0271 -1.5962 -0.2337
  187POPC   C1521425   2.354   6.162   1.772  0.1205  0.4890 -0.1612
  187POPC  H15A21426   2.324   6.154   1.876  2.2353  2.4056  0.6814
  187POPC  H15B21427   2.457   6.191   1.769  0.3371 -0.1866 -3.8768
  187POPC  H15C21428   2.342   6.068   1.720  0.6282 -0.3789  1.2406
  187POPC   C1121429   2.043   6.224   1.815  0.0753 -0.2825 -0.5286
  187POPC  H11A21430   1.947   6.183   1.777 -0.0458 -0.1561 -0.3614
  187POPC  H11B21431   2.033   6.330   1.847  0.5837 -0.6708  0.9467
  187POPC     P21432   2.074   5.998   1.938 -0.2185 -0.0800  0.0216
  187POPC   O1321433   2.135   5.923   1.831  0.0989 -0.1576  0.7877
  187POPC   O1421434   1.927   5.980   1.958  0.3663  0.2287  0.4630
  187POPC   O1221435   2.106   6.155   1.922 -0.1361 -0.3162  0.1108
  187POPC   O1121436   2.152   5.948   2.064 -0.2416  0.0759  0.1260
  187POPC    C121437   2.118   6.019   2.184  0.1027 -0.0993 -0.6746
  187POPC    HA21438   2.029   5.972   2.231  1.5754 -1.6365  0.7517
  187POPC    HB21439   2.108   6.129   2.182  2.6195  0.2761  1.6379
  187POPC    C221440   2.228   5.991   2.287  0.0124 -0.3050  0.2302
  187POPC    HS21441   2.326   6.016   2.243  1.5417 -2.9539  1.8351
  187POPC   O2121442   2.222   5.850   2.321 -0.0651  0.4902 -0.0647
  187POPC   C2121443   2.339   5.802   2.354  0.4236  0.2887 -0.0766
  187POPC   O2221444   2.442   5.860   2.347 -0.7689 -0.0451  1.3745
  187POPC   C2221445   2.323   5.658   2.402  0.1617 -0.0051 -0.4013
  187POPC   H2R21446   2.402   5.603   2.346  1.3886  1.4196 -0.1530
  187POPC   H2S21447   2.219   5.625   2.379 -1.1900  2.7604  1.2235
  187POPC    C321448   2.207   6.064   2.417 -0.4745  0.2446 -0.5145
  187POPC    HX21449   2.195   6.170   2.386  0.1665  0.4934  0.0531
  187POPC    HY21450   2.301   6.055   2.475 -0.5764  2.1786  0.0325
  187POPC   O3121451   2.090   6.022   2.489  0.0733  0.5063 -0.0752
  187POPC   C3121452   2.066   6.081   2.603 -0.0720  0.4052 -0.7445
  187POPC   O3221453   2.137   6.156   2.663 -0.2801 -0.2634 -0.1563
  187POPC   C3221454   1.946   6.013   2.662  0.5476  0.1633 -0.2661
  187POPC   H2X21455   1.936   5.908   2.628 -0.0514 -0.2976  1.2554
  187POPC   H2Y21456   1.860   6.074   2.627 -0.0691 -0.4198  0.2191
  187POPC   C2321457   2.344   5.641   2.556 -0.2160  0.0404  0.3176
  187POPC   H3R21458   2.445   5.667   2.592 -0.5964 -0.2197  1.6232
  187POPC   H3S21459   2.330   5.534   2.579  2.3689 -0.6324 -0.8944
  187POPC   C2421460   2.231   5.712   2.637  0.2363  0.0307 -0.4882
  187POPC   H4R21461   2.127   5.702   2.598 -0.4337  0.5861  1.0627
  187POPC   H4S21462   2.259   5.820   2.637 -1.9758  0.6678 -0.8207
  187POPC   C2521463   2.228   5.653   2.778  0.0729 -0.4364 -0.3124
  187POPC   H5R21464   2.320   5.682   2.833 -1.3086  0.8832  1.4211
  187POPC   H5S21465   2.211   5.544   2.781 -2.3586 -0.1317 -0.9106
  187POPC   C2621466   2.115   5.707   2.864 -0.3163 -0.5451  0.2732
  187POPC   H6R21467   2.036   5.731   2.790 -0.4054 -0.5437  0.3692
  187POPC   H6S21468   2.159   5.792   2.921  0.1097 -1.4688  1.3741
  187POPC   C2721469   2.041   5.611   2.961 -0.2572  0.2276 -0.2417
  187POPC   H7R21470   2.028   5.508   2.922  2.9069  0.1481 -1.4119
  187POPC   H7S21471   1.938   5.651   2.972  0.2817  1.3042  1.2591
  187POPC   C2821472   2.104   5.606   3.100  0.4815 -0.6308 -1.4337
  187POPC   H8R21473   2.039   5.554   3.173  1.2409  1.7318  1.1108
  187POPC   H8S21474   2.098   5.704   3.152  1.0880 -1.1678 -0.3011
  187POPC   C2921475   2.248   5.550   3.118  0.9620  0.3052  0.1427
  187POPC   H9121476   2.330   5.618   3.089  0.9199 -0.3931 -1.7574
  187POPC  C21021477   2.276   5.427   3.168 -0.4133 -0.2085  0.1572
  187POPC  H10121478   2.382   5.406   3.192  0.5096  4.3106  1.0129
  187POPC  C21121479   2.181   5.321   3.221  0.6409  0.6696  0.0434
  187POPC  H11R21480   2.212   5.217   3.197  0.9510  1.1630 -1.8533
  187POPC  H11S21481   2.075   5.335   3.189  0.3151  0.4876  1.0081
  187POPC  C21221482   2.171   5.312   3.375 -0.1091  0.6178 -0.2150
  187POPC  H12R21483   2.273   5.289   3.411 -0.9785 -1.8609  0.8589
  187POPC  H12S21484   2.103   5.228   3.400  0.6780  0.1979  0.5413
  187POPC  C21321485   2.109   5.441   3.436  0.5727  0.0246  0.4522
  187POPC  H13R21486   2.015   5.460   3.380 -0.0333 -0.9314  1.1166
  187POPC  H13S21487   2.186   5.520   3.426  1.3287 -0.8935 -1.4790
  187POPC  C21421488   2.075   5.417   3.584  0.4864 -0.5417  0.2578
  187POPC  H14R21489   1.991   5.346   3.598  0.6783 -1.4493 -2.5582
  187POPC  H14S21490   2.064   5.519   3.626  2.8639 -0.2041  0.1945
  187POPC  C21521491   2.194   5.363   3.663  0.1671  0.3854  0.1152
  187POPC  H15R21492   2.286   5.417   3.631  1.0775 -0.7966  0.6436
  187POPC  H15S21493   2.209   5.254   3.646  1.4237  0.2569  1.7881
  187POPC  C21621494   2.155   5.369   3.811 -0.7682 -0.3507 -0.8072
  187POPC  H16R21495   2.062   5.312   3.831 -0.6307 -0.8874 -1.6232
  187POPC  H16S21496   2.129   5.474   3.837  0.0825 -0.3140 -0.0404
  187POPC  C21721497   2.262   5.313   3.904 -0.1454 -0.2912 -0.3904
  187POPC  H17R21498   2.255   5.346   4.010  3.2023 -1.5513  0.3649
  187POPC  H17S21499   2.360   5.354   3.872 -0.2691  1.5146  1.3739
  187POPC  C21821500   2.279   5.161   3.914 -0.2331  0.3459 -0.1912
  187POPC  H18R21501   2.187   5.110   3.949 -0.5436 -0.0932 -1.5858
  187POPC  H18S21502   2.356   5.129   3.988 -2.5707 -3.8458  0.7591
  187POPC  H18T21503   2.299   5.125   3.811 -0.5324 -2.1440  0.5414
  187POPC   C3321504   1.936   6.004   2.819  0.6819 -0.5144  0.4461
  187POPC   H3X21505   1.974   6.088   2.880  0.7924 -0.2256 -0.0126
  187POPC   H3Y21506   2.014   5.934   2.855 -0.3083 -2.3029 -0.7217
  187POPC   C3421507   1.800   5.962   2.872 -0.2284 -0.8503  0.2925
  187POPC   H4X21508   1.777   5.871   2.812  0.4044 -1.1280  0.4710
  187POPC   H4Y21509   1.725   6.037   2.836 -0.8191 -0.7056  1.7456
  187POPC   C3521510   1.801   5.950   3.024  0.2694  0.5039 -0.7633
  187POPC   H5X21511   1.854   6.035   3.072  2.9162 -0.4180 -1.8394
  187POPC   H5Y21512   1.869   5.865   3.042 -2.1363 -0.7588  3.9611
  187POPC   C3621513   1.661   5.921   3.070 -0.3104  0.2322 -0.9340
  187POPC   H6X21514   1.600   5.849   3.011 -0.7547  1.0506 -1.4983
  187POPC   H6Y21515   1.611   6.020   3.073  0.4910  0.6465 -0.8144
  187POPC   C3721516   1.664   5.867   3.221  0.9461  0.7631 -0.7220
  187POPC   H7X21517   1.556   5.848   3.241  1.2113  0.4241  0.4143
  187POPC   H7Y21518   1.695   5.943   3.296 -0.8329  0.0112  0.8600
  187POPC   C3821519   1.740   5.738   3.234  0.0045  0.2698 -0.8124
  187POPC   H8X21520   1.844   5.774   3.222  0.7933 -1.2621  0.8788
  187POPC   H8Y21521   1.710   5.661   3.160 -0.3356 -0.3883 -0.0123
  187POPC   C3921522   1.725   5.679   3.375  0.2268  0.1119 -0.4977
  187POPC   H9X21523   1.774   5.742   3.452 -3.0393  2.0080  0.2427
  187POPC   H9Y21524   1.780   5.582   3.374 -0.6660 -0.4329  0.4914
  187POPC  C31021525   1.579   5.655   3.413  1.0048 -0.0776 -0.0345
  187POPC  H10X21526   1.525   5.584   3.346  1.3844 -0.0568 -0.3642
  187POPC  H10Y21527   1.530   5.753   3.425 -1.1037 -1.0243 -0.4153
  187POPC  C31121528   1.563   5.607   3.558  0.2098  1.2223 -0.6834
  187POPC  H11X21529   1.569   5.693   3.628 -0.9006  1.9869 -1.4936
  187POPC  H11Y21530   1.642   5.530   3.571 -0.3464  0.7554  0.0142
  187POPC  C31221531   1.430   5.531   3.581 -0.1408 -0.0728 -0.0488
  187POPC  H12X21532   1.429   5.446   3.510 -0.1334 -0.3350  0.2633
  187POPC  H12Y21533   1.345   5.599   3.559 -1.2130  0.0615  3.8676
  187POPC  C31321534   1.404   5.491   3.726 -0.1620  0.0338  0.0690
  187POPC  H13X21535   1.399   5.581   3.790  0.4358  0.8115 -0.9347
  187POPC  H13Y21536   1.484   5.433   3.777 -1.5731 -1.1523  0.9944
  187POPC  C31421537   1.279   5.406   3.746 -0.1040 -0.6103  0.4519
  187POPC  H14X21538   1.284   5.303   3.704  0.5290 -1.3569  2.2693
  187POPC  H14Y21539   1.200   5.461   3.690  0.2858 -1.6301 -1.1781
  187POPC  C31521540   1.231   5.396   3.900 -0.4119 -0.5129  0.5280
  187POPC  H15X21541   1.129   5.354   3.889 -0.6049  0.4444 -2.1693
  187POPC  H15Y21542   1.221   5.492   3.954 -2.5651 -0.2293 -0.2997
  187POPC  C31621543   1.313   5.293   3.978 -0.2099 -0.1227 -0.8286
  187POPC  H16X21544   1.418   5.318   4.003  0.4829 -2.8228 -0.7365
  187POPC  H16Y21545   1.316   5.200   3.917  0.5831 -0.7984  0.2188
  187POPC  H16Z21546   1.255   5.263   4.068 -1.4100  2.6894 -0.5408
  188POPC     N21547   1.300   6.437   2.024 -0.9315  0.1223  0.3558
  188POPC   C1221548   1.240   6.572   2.034 -0.1561 -0.8816  0.2715
  188POPC  H12A21549   1.271   6.631   1.949  1.6929 -0.3031  1.2836
  188POPC  H12B21550   1.272   6.624   2.124 -1.1753 -0.2796  0.2953
  188POPC   C1321551   1.287   6.361   2.150  0.3518 -0.6312 -0.5795
  188POPC  H13A21552   1.354   6.390   2.229  1.3560 -0.0303 -1.6270
  188POPC  H13B21553   1.186   6.357   2.189  0.6843 -0.6640  0.2936
  188POPC  H13C21554   1.298   6.255   2.130  1.8738 -0.5053 -0.4633
  188POPC   C1421555   1.243   6.361   1.904  0.6330  0.5247  0.2072
  188POPC  H14A21556   1.283   6.262   1.891 -0.5720  0.0843 -0.2258
  188POPC  H14B21557   1.135   6.361   1.909  0.5893 -0.1097 -0.6125
  188POPC  H14C21558   1.269   6.414   1.814  1.1294 -1.4080 -0.8359
  188POPC   C1521559   1.445   6.451   2.005 -0.0922 -0.6615  0.5781
  188POPC  H15A21560   1.468   6.489   1.906  4.5371  0.2800  1.8030
  188POPC  H15B21561   1.494   6.355   1.998 -0.9503 -1.0818  0.1768
  188POPC  H15C21562   1.493   6.520   2.072 -1.1484  1.1968 -0.4891
  188POPC   C1121563   1.085   6.587   2.038  0.5790 -0.4860 -0.3488
  188POPC  H11A21564   1.046   6.561   1.937 -0.9101 -1.0251  0.3332
  188POPC  H11B21565   1.066   6.697   2.048 -0.8486 -0.6726 -0.7805
  188POPC     P21566   1.022   6.567   2.283 -0.1481  0.1956 -0.0704
  188POPC   O1321567   0.998   6.715   2.285 -1.2114  0.0321  0.4123
  188POPC   O1421568   1.138   6.517   2.362 -0.1682 -0.0229  0.3744
  188POPC   O1221569   1.023   6.511   2.140 -0.3939  0.3740  0.5875
  188POPC   O1121570   0.892   6.497   2.331  0.1831 -0.0749  0.5232
  188POPC    C121571   0.879   6.353   2.326 -0.2329 -0.2102  0.1697
  188POPC    HA21572   0.965   6.304   2.375 -1.2363 -1.6476  0.5794
  188POPC    HB21573   0.882   6.314   2.222 -1.9135 -0.1864  0.0807
  188POPC    C221574   0.744   6.314   2.380  0.5692  0.3742  0.8030
  188POPC    HS21575   0.671   6.385   2.336  0.5707 -0.9445 -1.4449
  188POPC   O2121576   0.752   6.314   2.527 -0.2443  0.0750  0.7100
  188POPC   C2121577   0.697   6.420   2.584 -0.4772 -0.0607  0.0931
  188POPC   O2221578   0.618   6.501   2.528 -0.2044 -0.1582 -0.2543
  188POPC   C2221579   0.757   6.447   2.719  0.0149 -0.2625 -0.6154
  188POPC   H2R21580   0.836   6.520   2.690  0.1126 -1.1016 -2.6126
  188POPC   H2S21581   0.818   6.361   2.753 -0.5742 -0.6479 -0.5311
  188POPC    C321582   0.702   6.171   2.353 -0.3889  0.3234  0.1578
  188POPC    HX21583   0.791   6.109   2.377 -1.4907 -1.4106 -0.0109
  188POPC    HY21584   0.683   6.163   2.244  2.1611 -0.5181 -0.3024
  188POPC   O3121585   0.594   6.141   2.435 -0.4963 -0.0198 -0.1500
  188POPC   C3121586   0.470   6.138   2.394  0.1931  0.3773  0.6000
  188POPC   O3221587   0.438   6.162   2.279 -0.2227  0.3214 -0.5035
  188POPC   C3221588   0.376   6.116   2.513 -0.1801  0.1764  0.3732
  188POPC   H2X21589   0.387   6.011   2.548 -0.0241 -0.0912 -0.4715
  188POPC   H2Y21590   0.272   6.132   2.478 -0.3175  0.5138  0.9190
  188POPC   C2321591   0.660   6.514   2.815 -0.0140 -0.4442 -0.0786
  188POPC   H3R21592   0.579   6.453   2.862 -2.2494  1.6181 -1.0546
  188POPC   H3S21593   0.607   6.602   2.774 -0.8713 -2.1357 -2.8697
  188POPC   C2421594   0.742   6.580   2.930  0.9437 -0.6444  0.6422
  188POPC   H4R21595   0.798   6.669   2.894  0.7329 -0.1866  1.4266
  188POPC   H4S21596   0.811   6.503   2.970 -1.8939 -2.3596  2.6424
  188POPC   C2521597   0.642   6.631   3.041  0.2397  0.2768  0.4798
  188POPC   H5R21598   0.563   6.556   3.063 -1.2129  0.4432 -3.2445
  188POPC   H5S21599   0.607   6.723   2.988 -0.2209 -1.0183 -1.5968
  188POPC   C2621600   0.727   6.658   3.163  0.0132 -0.0704 -0.3518
  188POPC   H6R21601   0.792   6.742   3.131 -1.3808  0.7736 -1.0307
  188POPC   H6S21602   0.788   6.565   3.173 -0.7014 -0.4658  0.4697
  188POPC   C2721603   0.660   6.697   3.294 -0.0993  0.7369 -1.1742
  188POPC   H7R21604   0.581   6.769   3.262 -1.2505  0.7088  1.3620
  188POPC   H7S21605   0.726   6.756   3.362  0.8491 -1.0842 -0.4584
  188POPC   C2821606   0.600   6.584   3.376  0.1444  0.5115  0.1264
  188POPC   H8R21607   0.678   6.513   3.411 -0.9373 -1.3018 -0.9562
  188POPC   H8S21608   0.538   6.517   3.313  1.7839  1.7165 -3.0099
  188POPC   C2921609   0.531   6.646   3.496  0.3839 -0.1544  0.5980
  188POPC   H9121610   0.551   6.754   3.506  0.8673 -0.0679 -0.9355
  188POPC  C21021611   0.466   6.587   3.598  0.1221  0.5212  1.0107
  188POPC  H10121612   0.418   6.646   3.677 -2.7064 -1.9452  1.3355
  188POPC  C21121613   0.440   6.435   3.591  0.0055 -0.1616 -0.1911
  188POPC  H11R21614   0.501   6.381   3.517 -0.4387  2.0204 -2.2787
  188POPC  H11S21615   0.334   6.410   3.569 -0.4149  0.3901  1.0823
  188POPC  C21221616   0.462   6.375   3.727  0.4275  0.5608 -0.2347
  188POPC  H12R21617   0.568   6.397   3.750  0.6818  0.8001 -1.5612
  188POPC  H12S21618   0.463   6.264   3.721  1.4636  0.4478  1.3584
  188POPC  C21321619   0.359   6.417   3.832 -0.0298  0.4385 -0.1814
  188POPC  H13R21620   0.259   6.375   3.808 -0.2282  0.7972  0.0194
  188POPC  H13S21621   0.366   6.526   3.853  2.4961  0.5900 -1.4008
  188POPC  C21421622   0.407   6.345   3.962  0.3957 -0.2222 -0.6035
  188POPC  H14R21623   0.505   6.391   3.985 -0.8611  1.6647  1.2749
  188POPC  H14S21624   0.423   6.237   3.939  0.2142 -0.6436  1.1045
  188POPC  C21521625   0.315   6.366   4.082  0.2347 -0.4208  0.5724
  188POPC  H15R21626   0.222   6.307   4.081  1.1589 -1.9650 -1.9692
  188POPC  H15S21627   0.276   6.470   4.083 -1.4229 -0.9958 -0.7981
  188POPC  C21621628   0.387   6.350   4.221 -0.0661  0.4082  0.4672
  188POPC  H16R21629   0.498   6.337   4.215 -0.1690 -0.2652 -0.0236
  188POPC  H16S21630   0.341   6.261   4.269 -0.9308 -0.4036 -1.7489
  188POPC  C21721631   0.367   6.459   4.318 -0.2718  0.5383  0.1335
  188POPC  H17R21632   0.388   6.555   4.267 -0.4567  0.3709 -0.2580
  188POPC  H17S21633   0.435   6.457   4.406 -0.1011 -0.6782 -0.0209
  188POPC  C21821634   0.225   6.483   4.368 -0.1438 -0.7071  0.3635
  188POPC  H18R21635   0.215   6.556   4.451 -0.7734 -0.2401 -0.1056
  188POPC  H18S21636   0.187   6.385   4.403  1.8662 -1.4011  0.7293
  188POPC  H18T21637   0.153   6.507   4.287 -0.3013 -2.4466 -0.0395
  188POPC   C3321638   0.410   6.206   2.635 -0.3611  0.2079 -0.2848
  188POPC   H3X21639   0.404   6.310   2.598 -1.0384 -0.1757 -1.2941
  188POPC   H3Y21640   0.516   6.203   2.668 -0.8520  0.6913  1.4129
  188POPC   C3421641   0.319   6.181   2.751  0.2004 -0.1333 -0.0441
  188POPC   H4X21642   0.331   6.076   2.787  0.9658 -0.8158 -2.1693
  188POPC   H4Y21643   0.212   6.185   2.721  0.3800  1.8807 -0.5673
  188POPC   C3521644   0.347   6.274   2.863  0.8443  0.3279  0.3372
  188POPC   H5X21645   0.352   6.378   2.822  4.9373 -0.5550 -1.9965
  188POPC   H5Y21646   0.445   6.258   2.913  0.5175 -0.6695  0.6800
  188POPC   C3621647   0.235   6.257   2.975 -0.2615 -0.7677  0.2661
  188POPC   H6X21648   0.236   6.151   3.010  1.5757 -1.2944 -1.2411
  188POPC   H6Y21649   0.135   6.282   2.933 -0.7276 -0.0992  1.6982
  188POPC   C3721650   0.264   6.345   3.094  0.1361 -0.4668  0.4868
  188POPC   H7X21651   0.254   6.450   3.061 -1.3085 -0.9366 -0.7136
  188POPC   H7Y21652   0.367   6.329   3.131  0.7138  0.2030 -0.7814
  188POPC   C3821653   0.155   6.339   3.212 -0.4157 -0.1113 -0.0247
  188POPC   H8X21654   0.169   6.244   3.267 -0.8437 -0.7772 -1.0424
  188POPC   H8Y21655   0.065   6.330   3.147  1.1725 -3.1108 -2.0988
  188POPC   C3921656   0.148   6.463   3.300  0.8395  0.2234  0.2733
  188POPC   H9X21657   0.112   6.552   3.245  1.8774 -0.4748 -1.6374
  188POPC   H9Y21658   0.250   6.483   3.340 -0.0369  3.9027  0.9560
  188POPC  C31021659   0.065   6.433   3.426  0.0736 -0.3622 -0.6933
  188POPC  H10X21660   0.100   6.340   3.477  0.2156 -0.4627 -0.9770
  188POPC  H10Y21661  -0.039   6.408   3.396 -0.2591 -0.6692  0.6313
  188POPC  C31121662   0.071   6.558   3.521  0.0389  0.1605 -0.3370
  188POPC  H11X21663   0.021   6.643   3.470 -1.3474 -1.8640 -2.5964
  188POPC  H11Y21664   0.175   6.589   3.545 -0.0441  3.3709 -3.2030
  188POPC  C31221665   0.001   6.529   3.653 -0.7936 -0.6793  0.3964
  188POPC  H12X21666   0.048   6.440   3.700  1.5348  0.6167  0.6682
  188POPC  H12Y21667  -0.104   6.502   3.629 -0.5272  0.2597 -2.2160
  188POPC  C31321668   0.015   6.652   3.738  0.0251  0.3095  0.2764
  188POPC  H13X21669  -0.037   6.737   3.689  2.6039  0.8979 -1.6687
  188POPC  H13Y21670   0.123   6.677   3.741  0.4253 -1.3809  1.2326
  188POPC  C31421671  -0.043   6.623   3.873  0.0733 -0.2306 -0.4986
  188POPC  H14X21672  -0.002   6.529   3.916  1.1371  0.9896  1.3310
  188POPC  H14Y21673  -0.150   6.599   3.856  0.1870 -0.4768 -0.8925
  188POPC  C31521674  -0.032   6.739   3.984 -0.4964 -0.1054  0.4332
  188POPC  H15X21675  -0.107   6.729   4.065 -0.2114 -0.0928  0.6994
  188POPC  H15Y21676  -0.054   6.835   3.932 -0.7044 -0.5812 -0.3848
  188POPC  C31621677   0.101   6.748   4.053  0.2514 -0.5676  0.6881
  188POPC  H16X21678   0.145   6.661   4.106 -0.0448  0.3079  2.4296
  188POPC  H16Y21679   0.081   6.823   4.132 -1.4573 -0.4470  0.1938
  188POPC  H16Z21680   0.168   6.790   3.974 -0.0097  1.0096  1.2722
  189SAPI   C1221681   3.178   5.743   6.679 -0.2535 -0.0171  1.1102
  189SAPI    H221682   3.229   5.841   6.683 -0.6249  0.4809 -2.6359
  189SAPI    O221683   3.201   5.704   6.545 -0.0529 -0.1295 -0.3046
  189SAPI   HO221684   3.232   5.783   6.499  1.0853 -0.1644  0.3650
  189SAPI   C1321685   3.230   5.652   6.785  0.8870  0.6402  0.3047
  189SAPI    H321686   3.209   5.710   6.877 -1.4890  1.6601 -0.7736
  189SAPI    O321687   3.373   5.646   6.773 -0.2208  0.0242 -0.8344
  189SAPI   HO321688   3.383   5.622   6.681 -0.5468 -0.3239 -0.7785
  189SAPI   C1421689   3.153   5.520   6.815 -0.4359  0.6477 -0.9418
  189SAPI    H421690   3.206   5.449   6.747  0.4495 -0.7452  1.1061
  189SAPI    O421691   3.172   5.459   6.944  0.8066  0.0017 -0.5078
  189SAPI   HO421692   3.208   5.371   6.932  0.4079 -0.0420 -1.4644
  189SAPI   C1521693   3.014   5.518   6.770  0.1073 -1.1283  0.5992
  189SAPI    H521694   2.956   5.550   6.860 -0.4574  1.0914 -0.4720
  189SAPI    O521695   2.974   5.387   6.733  0.4659 -0.2010  0.0937
  189SAPI   HO521696   2.950   5.335   6.810  3.3986 -1.3329  0.3781
  189SAPI   C1621697   2.964   5.620   6.665  0.1746 -0.6866 -0.0510
  189SAPI    H621698   2.992   5.586   6.563  2.9160 -1.4049  0.8679
  189SAPI    O621699   2.823   5.641   6.672 -0.1013 -0.0169  0.5743
  189SAPI   HO621700   2.804   5.715   6.614  1.4715  0.5192  0.6868
  189SAPI   C1121701   3.031   5.753   6.696 -0.0140  0.4511 -0.1478
  189SAPI    H121702   3.004   5.780   6.800  1.9446  1.2768  0.1880
  189SAPI     P21703   2.975   6.012   6.621  0.5295 -0.3276 -0.0720
  189SAPI   O1321704   2.906   6.031   6.749  0.0133 -0.2721 -0.3815
  189SAPI   O1421705   2.921   6.080   6.501 -0.3893  0.0118 -0.5708
  189SAPI   O1221706   2.982   5.852   6.602  0.2465 -0.4444  0.3471
  189SAPI   O1121707   3.129   6.054   6.639 -0.0241  0.0191 -0.3976
  189SAPI    C121708   3.182   6.172   6.591 -1.1207 -0.6642  0.2897
  189SAPI    HA21709   3.111   6.257   6.591  0.4153  0.7470 -2.2812
  189SAPI    HB21710   3.267   6.203   6.656 -0.8635  0.3481 -0.5039
  189SAPI    C221711   3.235   6.164   6.447  0.4303 -0.4223 -0.1894
  189SAPI    HS21712   3.181   6.091   6.383  0.7763 -0.1745 -0.7644
  189SAPI   O2121713   3.378   6.131   6.448 -0.4291  0.1159 -0.7720
  189SAPI   C2121714   3.407   6.000   6.452 -0.3321  0.2823  0.1086
  189SAPI   O2221715   3.324   5.913   6.439 -0.3167 -0.0155 -0.3442
  189SAPI   C2221716   3.558   5.986   6.490 -0.1229 -0.0815 -0.0203
  189SAPI   H2R21717   3.613   6.042   6.412 -1.9198 -1.0461 -2.0846
  189SAPI   H2S21718   3.577   6.044   6.582  1.1170  1.3824 -1.1636
  189SAPI    C321719   3.213   6.306   6.381  0.1725 -0.2561  0.0560
  189SAPI    HX21720   3.250   6.382   6.452 -2.3790  2.0813 -0.9196
  189SAPI    HY21721   3.104   6.326   6.373 -0.2130 -1.0885  2.4154
  189SAPI   O3121722   3.277   6.313   6.246 -0.1632 -0.8406 -0.1134
  189SAPI   C3121723   3.203   6.298   6.138 -0.0704  0.3391  0.6326
  189SAPI   O3221724   3.084   6.263   6.140  0.5404  0.0565  0.3580
  189SAPI   C3221725   3.281   6.334   6.005 -0.1270 -0.2584 -0.3275
  189SAPI   H2X21726   3.338   6.242   5.979  1.8120  0.9513 -0.4648
  189SAPI   H2Y21727   3.343   6.421   6.035 -0.7967 -0.0261  0.4060
  189SAPI   C2321728   3.602   5.832   6.482 -0.7472  0.0213  0.1203
  189SAPI   H3R21729   3.567   5.789   6.386  1.2668 -1.3211 -0.0746
  189SAPI   H3S21730   3.548   5.776   6.560  1.4659 -0.7050  1.2190
  189SAPI   C2421731   3.754   5.800   6.492 -0.1815 -0.3141  0.2401
  189SAPI   H4R21732   3.759   5.695   6.458  0.2548  0.4286 -2.1345
  189SAPI   H4S21733   3.791   5.801   6.597 -1.1037 -1.6920  0.5965
  189SAPI   C2521734   3.845   5.880   6.401  0.4637  0.1141  1.1287
  189SAPI   H5R21735   3.881   5.975   6.445  1.5683  0.3643 -0.2369
  189SAPI   C2621736   3.872   5.856   6.270  0.1214  0.1651  0.2872
  189SAPI   H6R21737   3.939   5.929   6.223 -0.2879  1.0139  0.9862
  189SAPI   C2721738   3.815   5.735   6.184 -0.1198 -0.4145 -1.0872
  189SAPI   H7R21739   3.739   5.678   6.242  2.1863 -0.6236  1.9893
  189SAPI   H7S21740   3.892   5.660   6.157 -0.9451 -0.9114 -2.1359
  189SAPI   C2821741   3.752   5.790   6.067  0.1668  0.0854  0.4208
  189SAPI   H8R21742   3.657   5.847   6.075  0.7152  1.7461 -3.0941
  189SAPI   C2921743   3.819   5.807   5.950  0.1796  0.2197 -0.4641
  189SAPI   H9R21744   3.759   5.859   5.874 -0.4752 -2.7777 -2.1525
  189SAPI  C21021745   3.949   5.747   5.911  0.1434 -0.2502 -0.1657
  189SAPI  H10R21746   4.027   5.759   5.989  0.8050 -1.1509 -0.6793
  189SAPI  H10S21747   3.995   5.805   5.828  1.4541 -2.1352 -0.8172
  189SAPI  C21121748   3.934   5.604   5.874 -0.2181  0.5814 -0.1010
  189SAPI  H11R21749   3.909   5.544   5.963  2.0075  1.9374  1.5575
  189SAPI  C21221750   3.968   5.549   5.755  0.1483 -0.0995 -0.0587
  189SAPI  H12R21751   3.940   5.444   5.738  2.0722 -0.8540  1.1047
  189SAPI  C21321752   4.040   5.617   5.640  0.2267  0.1526  0.6533
  189SAPI  H13R21753   4.108   5.548   5.586 -0.9126 -2.2129  2.0883
  189SAPI  H13S21754   4.105   5.698   5.679  3.3186 -1.1550 -1.4095
  189SAPI  C21421755   3.947   5.682   5.538 -0.0700 -0.4657  0.4119
  189SAPI  H14R21756   3.870   5.740   5.591  0.7094  0.9547  0.0202
  189SAPI  C21521757   3.943   5.674   5.402 -0.4979  0.0030 -0.0180
  189SAPI  H15R21758   3.858   5.719   5.349 -1.6971 -4.4691 -2.4374
  189SAPI  C21621759   4.048   5.597   5.317 -0.6707  0.4633 -0.1898
  189SAPI  H16R21760   4.019   5.490   5.320 -0.5366  0.3612 -1.7713
  189SAPI  H16S21761   4.147   5.607   5.367 -1.2065 -1.0050  1.2547
  189SAPI  C21721762   4.060   5.647   5.177  0.6438  0.8683 -0.2542
  189SAPI  H17R21763   4.149   5.594   5.138  0.1029  0.3840 -0.8516
  189SAPI  H17S21764   4.095   5.752   5.162  1.9283  0.7987  1.8705
  189SAPI  C21821765   3.946   5.600   5.089 -0.1280  0.0477  0.3694
  189SAPI  H18R21766   3.855   5.649   5.131 -2.2678 -0.9181 -2.7282
  189SAPI  H18S21767   3.935   5.490   5.103 -0.3901 -0.1684 -1.3062
  189SAPI  C21921768   3.975   5.636   4.943  0.6618 -0.5408 -0.4907
  189SAPI  H19R21769   4.062   5.583   4.897  0.1629  0.0388 -2.1890
  189SAPI  H19S21770   3.997   5.745   4.936  1.5904 -0.7918 -2.0597
  189SAPI  C22021771   3.849   5.614   4.856  0.1968 -0.0056 -0.2941
  189SAPI  H20R21772   3.869   5.673   4.764 -2.9190 -1.3439 -2.0000
  189SAPI  H20S21773   3.756   5.655   4.902 -0.0176 -0.2034 -0.5460
  189SAPI  H20T21774   3.839   5.505   4.836  1.0523 -0.6266  2.3473
  189SAPI   C3321775   3.182   6.365   5.893 -0.2516  0.1829  0.0621
  189SAPI   H3X21776   3.124   6.455   5.921  0.4159  1.2504 -1.7995
  189SAPI   H3Y21777   3.105   6.287   5.872 -1.9231  1.9156 -0.4951
  189SAPI   C3421778   3.267   6.406   5.772  0.7098 -0.1319 -0.0507
  189SAPI   H4X21779   3.337   6.323   5.748 -1.4138 -1.0401 -4.0680
  189SAPI   H4Y21780   3.315   6.501   5.801  0.7118 -0.5116  1.2238
  189SAPI   C3521781   3.170   6.438   5.657 -0.2892 -0.0017  0.9609
  189SAPI   H5X21782   3.093   6.511   5.690 -0.9769 -1.0617  1.7546
  189SAPI   H5Y21783   3.128   6.344   5.615 -1.7682  2.3507 -3.4497
  189SAPI   C3621784   3.234   6.504   5.528  0.0300  0.4206  0.5285
  189SAPI   H6X21785   3.295   6.594   5.551  1.9649 -0.6892  0.0479
  189SAPI   H6Y21786   3.162   6.514   5.444  0.0158 -1.6857  0.2402
  189SAPI   C3721787   3.347   6.411   5.476  0.2411  0.2573 -0.2527
  189SAPI   H7X21788   3.328   6.301   5.478 -0.4190  0.3648 -0.2462
  189SAPI   H7Y21789   3.441   6.451   5.518  1.2651 -0.6840 -1.5556
  189SAPI   C3821790   3.371   6.430   5.328 -1.4162  0.9077 -0.2723
  189SAPI   H8X21791   3.465   6.373   5.307 -1.6940  1.2009 -2.5873
  189SAPI   H8Y21792   3.392   6.536   5.305  0.8295  0.8191  1.0978
  189SAPI   C3921793   3.270   6.365   5.235 -0.3910  0.0807  0.3467
  189SAPI   H9X21794   3.176   6.424   5.237  0.4576  1.4452  0.5636
  189SAPI   H9Y21795   3.244   6.263   5.271 -2.1311  1.1992  2.4827
  189SAPI  C31021796   3.315   6.364   5.087  0.2143  0.2556  0.6704
  189SAPI  H10X21797   3.317   6.469   5.050 -2.5404 -0.5510 -2.2820
  189SAPI  H10Y21798   3.244   6.314   5.017  1.5258 -0.7541  0.0379
  189SAPI  C31121799   3.455   6.304   5.054  0.4089 -0.2578  0.2723
  189SAPI  H11X21800   3.470   6.205   5.102 -0.1474 -1.6798 -2.3103
  189SAPI  H11Y21801   3.527   6.371   5.105 -0.6283  1.6987 -0.7138
  189SAPI  C31221802   3.483   6.319   4.906 -0.4449 -0.0275  0.5503
  189SAPI  H12X21803   3.476   6.426   4.877 -2.6539 -1.0792 -3.6132
  189SAPI  H12Y21804   3.407   6.267   4.844 -0.1633  0.0344  0.1548
  189SAPI  C31321805   3.624   6.274   4.871  0.0813 -0.2125  0.6818
  189SAPI  H13X21806   3.633   6.165   4.887  1.3698 -0.2101  0.0808
  189SAPI  H13Y21807   3.684   6.335   4.941 -1.1628 -0.4541  2.0091
  189SAPI  C31421808   3.652   6.302   4.726  0.5515 -0.5813  0.1300
  189SAPI  H14X21809   3.644   6.407   4.690  0.6871 -1.0580 -1.3537
  189SAPI  H14Y21810   3.574   6.238   4.680  1.4276 -0.5884 -1.4244
  189SAPI  C31521811   3.785   6.244   4.671 -1.3475 -0.3788  0.1992
  189SAPI  H15X21812   3.873   6.281   4.728 -1.6591 -1.1617  1.2177
  189SAPI  H15Y21813   3.801   6.289   4.571  0.0776 -0.5378  0.3367
  189SAPI  C31621814   3.804   6.095   4.661  0.5117  0.0087  0.2270
  189SAPI  H16X21815   3.786   6.048   4.760 -0.6210 -0.0755 -0.0068
  189SAPI  H16Y21816   3.908   6.078   4.628  1.7684  1.5873  3.0375
  189SAPI  C31721817   3.714   6.036   4.547 -1.0670  0.2777 -0.1346
  189SAPI  H17X21818   3.727   6.106   4.462  2.5121 -0.4440 -0.3607
  189SAPI  H17Y21819   3.612   6.033   4.591  0.0467 -1.0826  2.6709
  189SAPI  C31821820   3.756   5.892   4.524 -0.2683  0.4617  0.0355
  189SAPI  H18X21821   3.684   5.838   4.460 -0.5045 -0.3134  0.9331
  189SAPI  H18Y21822   3.758   5.846   4.625  3.0528  0.6190  0.1708
  189SAPI  H18Z21823   3.861   5.885   4.486  0.6595  0.1063  2.4608
  190SAPI   C1221824   3.000   3.184   6.898 -0.7645  0.2472  0.3561
  190SAPI    H221825   3.088   3.197   6.965  0.8525 -1.7687 -1.2237
  190SAPI    O221826   2.938   3.059   6.933 -0.0373 -0.7730  0.7525
  190SAPI   HO221827   2.991   3.015   7.000  0.1301  1.5887  2.2919
  190SAPI   C1321828   2.906   3.294   6.915  0.4938  0.2379  0.4340
  190SAPI    H321829   2.960   3.388   6.893 -1.0463  1.1755  0.5389
  190SAPI    O321830   2.858   3.294   7.047  0.3174  0.6098 -0.0883
  190SAPI   HO321831   2.822   3.209   7.073 -0.3941  1.0547  0.4367
  190SAPI   C1421832   2.784   3.267   6.818 -0.3553 -0.1509  0.0748
  190SAPI    H421833   2.739   3.170   6.848  1.4362 -1.0596 -0.0288
  190SAPI    O421834   2.683   3.364   6.831 -0.0398  0.6670  0.0544
  190SAPI   HO421835   2.660   3.410   6.750  1.8867  2.3500  0.3705
  190SAPI   C1521836   2.822   3.243   6.669 -0.9691 -0.0038  0.1764
  190SAPI    H521837   2.848   3.346   6.637 -2.9891  0.4734 -0.0589
  190SAPI    O521838   2.718   3.196   6.588  0.3608 -0.2293  0.2927
  190SAPI   HO521839   2.659   3.267   6.561 -0.7584 -0.4300  2.1009
  190SAPI   C1621840   2.943   3.158   6.653 -0.6004 -0.4095 -0.0337
  190SAPI    H621841   2.926   3.052   6.683  2.0853 -0.8946  0.0732
  190SAPI    O621842   2.989   3.168   6.520 -0.9800  0.1760 -0.2246
  190SAPI   HO621843   3.038   3.089   6.496  0.2489  0.8279  0.0816
  190SAPI   C1121844   3.054   3.182   6.758 -0.1448  0.3248 -0.4511
  190SAPI    H121845   3.089   3.286   6.741  2.6343 -0.3938  0.3894
  190SAPI     P21846   3.311   3.118   6.734 -0.1232 -0.1315  0.3709
  190SAPI   O1321847   3.380   2.984   6.699  0.6350  0.3458  0.1578
  190SAPI   O1421848   3.349   3.197   6.853  0.1366 -0.0929 -0.1434
  190SAPI   O1221849   3.153   3.079   6.738  0.1862 -0.0855  0.0465
  190SAPI   O1121850   3.309   3.203   6.600  0.4701  0.0304 -0.3691
  190SAPI    C121851   3.415   3.285   6.563 -0.5781 -0.6688 -0.1363
  190SAPI    HA21852   3.391   3.393   6.573  1.2774 -0.2434 -0.0074
  190SAPI    HB21853   3.505   3.271   6.627 -0.7396 -1.7290 -0.1187
  190SAPI    C221854   3.460   3.253   6.428 -0.5295 -0.4801 -0.9036
  190SAPI    HS21855   3.552   3.312   6.405  0.2635 -1.0774  0.6066
  190SAPI   O2121856   3.347   3.284   6.348 -0.2594  0.5549  0.5170
  190SAPI   C2121857   3.352   3.369   6.251 -0.1084 -0.6409 -0.1908
  190SAPI   O2221858   3.447   3.428   6.208  0.0071 -0.6783 -0.2325
  190SAPI   C2221859   3.206   3.380   6.204 -0.1150 -0.7918 -0.3911
  190SAPI   H2R21860   3.148   3.290   6.232  0.8615 -0.9330  1.2767
  190SAPI   H2S21861   3.166   3.456   6.273 -1.1495 -1.6691  0.0001
  190SAPI    C321862   3.500   3.102   6.416 -0.0538 -0.0483 -0.1986
  190SAPI    HX21863   3.405   3.049   6.438  0.9427 -1.2925  1.4124
  190SAPI    HY21864   3.567   3.063   6.497  1.6154  0.2331 -1.3895
  190SAPI   O3121865   3.544   3.064   6.281 -0.0003  0.3908 -0.2594
  190SAPI   C3121866   3.680   3.090   6.253 -0.0849 -0.1350  0.1559
  190SAPI   O3221867   3.748   3.153   6.326 -0.2652 -0.2531  0.3765
  190SAPI   C3221868   3.717   3.038   6.113  0.6076 -0.1012  0.0439
  190SAPI   H2X21869   3.749   3.129   6.057 -0.7175 -0.5131 -1.4724
  190SAPI   H2Y21870   3.631   2.994   6.059 -1.3764  2.1962  1.1495
  190SAPI   C2321871   3.210   3.413   6.062  0.0238  0.1135 -0.8162
  190SAPI   H3R21872   3.252   3.335   5.995  0.3691  1.5246 -2.3329
  190SAPI   H3S21873   3.250   3.516   6.045 -0.2051  0.6802  1.6975
  190SAPI   C2421874   3.073   3.418   5.996 -0.0284 -0.5809 -0.2807
  190SAPI   H4R21875   3.030   3.322   6.034  1.0298 -0.0879  2.3558
  190SAPI   H4S21876   3.081   3.403   5.886 -0.1255  1.6389 -0.6287
  190SAPI   C2521877   2.978   3.527   6.053  0.1437  0.6788 -0.2935
  190SAPI   H5R21878   2.977   3.552   6.160  0.7554  1.3012 -0.4270
  190SAPI   C2621879   2.893   3.585   5.974 -0.0649  0.0784  0.1036
  190SAPI   H6R21880   2.831   3.663   6.021 -0.9596 -1.0722  0.8900
  190SAPI   C2721881   2.864   3.568   5.826  0.1137  0.4977  0.7319
  190SAPI   H7R21882   2.754   3.554   5.820 -0.0563  2.2376 -1.3136
  190SAPI   H7S21883   2.908   3.477   5.779 -2.1696  0.1506 -0.9130
  190SAPI   C2821884   2.909   3.687   5.741 -0.8572  0.6186  0.5206
  190SAPI   H8R21885   2.912   3.781   5.798 -0.6367  0.4393  0.8091
  190SAPI   C2921886   2.943   3.689   5.615 -0.5493  0.5008  0.1687
  190SAPI   H9R21887   2.985   3.783   5.577  0.4238 -0.5476 -1.4904
  190SAPI  C21021888   2.959   3.579   5.513 -0.0875 -0.2374 -0.5576
  190SAPI  H10R21889   2.941   3.610   5.408 -1.5416 -3.7677 -1.5061
  190SAPI  H10S21890   2.892   3.493   5.532 -0.2131 -0.6285 -2.5458
  190SAPI  C21121891   3.100   3.525   5.527  0.6111 -0.3773  0.1210
  190SAPI  H11R21892   3.163   3.552   5.613  1.1030 -0.4125 -0.2214
  190SAPI  C21221893   3.154   3.452   5.424  0.6152  0.0140  0.3264
  190SAPI  H12R21894   3.250   3.406   5.451  0.3076 -1.0193 -0.3101
  190SAPI  C21321895   3.089   3.389   5.305 -0.4102  0.7948  0.3735
  190SAPI  H13R21896   3.051   3.468   5.238 -1.5351  0.1001  0.1532
  190SAPI  H13S21897   2.996   3.335   5.335 -2.2765  2.6124 -1.7956
  190SAPI  C21421898   3.173   3.288   5.232 -0.7387 -0.1253 -0.4064
  190SAPI  H14R21899   3.190   3.191   5.282  1.2302  0.4404  0.1327
  190SAPI  C21521900   3.205   3.301   5.105 -0.8501  0.3632 -0.1743
  190SAPI  H15R21901   3.285   3.235   5.067  1.1818  1.4571  1.9456
  190SAPI  C21621902   3.186   3.413   5.011  0.5907  0.6041  0.0661
  190SAPI  H16R21903   3.134   3.503   5.050  0.0176  0.8824 -1.2627
  190SAPI  H16S21904   3.107   3.373   4.943 -1.2859  2.0191  1.3161
  190SAPI  C21721905   3.308   3.447   4.922  0.4503  0.3275  0.2094
  190SAPI  H17R21906   3.365   3.354   4.900 -1.3252 -0.2038 -2.8027
  190SAPI  H17S21907   3.360   3.524   4.983  2.7061  0.0163 -1.2181
  190SAPI  C21821908   3.284   3.519   4.789 -0.3039  0.4763  0.1974
  190SAPI  H18R21909   3.203   3.594   4.805  0.6751  1.0377  3.2477
  190SAPI  H18S21910   3.239   3.440   4.725 -0.2036 -0.3987  1.1848
  190SAPI  C21921911   3.410   3.571   4.720 -0.3326 -0.2081  0.8986
  190SAPI  H19R21912   3.486   3.493   4.745 -1.1038 -0.2311  3.5543
  190SAPI  H19S21913   3.446   3.669   4.757  1.6913  0.1332 -1.6774
  190SAPI  C22021914   3.400   3.587   4.568 -0.2660 -0.3271 -0.5724
  190SAPI  H20R21915   3.494   3.630   4.525  0.9367 -1.9034  0.3686
  190SAPI  H20S21916   3.315   3.653   4.538 -1.5208 -0.4048  2.5103
  190SAPI  H20T21917   3.370   3.490   4.524  2.2508 -1.6440  0.4313
  190SAPI   C3321918   3.835   2.939   6.116  0.6127 -0.2797 -0.1378
  190SAPI   H3X21919   3.847   2.876   6.207 -2.6904 -1.4464 -0.3717
  190SAPI   H3Y21920   3.930   2.997   6.113  0.1356  0.6529  1.5094
  190SAPI   C3421921   3.837   2.836   6.002 -0.2387  0.0700 -0.7654
  190SAPI   H4X21922   3.739   2.786   6.019  0.6385 -0.7946  2.4615
  190SAPI   H4Y21923   3.910   2.755   6.021  0.6472  0.8124 -0.9437
  190SAPI   C3521924   3.850   2.903   5.869 -1.2173  0.8915  0.5391
  190SAPI   H5X21925   3.942   2.964   5.874 -1.2305  1.0644 -0.9933
  190SAPI   H5Y21926   3.772   2.975   5.838 -0.0375  1.3554 -1.4891
  190SAPI   C3621927   3.885   2.812   5.751  0.0750  0.0054 -0.4516
  190SAPI   H6X21928   3.812   2.728   5.749  0.0154 -0.1165  2.4573
  190SAPI   H6Y21929   3.981   2.763   5.779 -0.0132 -0.5477 -1.0770
  190SAPI   C3721930   3.899   2.882   5.615  0.0029  1.2595  0.2501
  190SAPI   H7X21931   3.986   2.950   5.603  0.5264  0.1547 -3.5555
  190SAPI   H7Y21932   3.803   2.928   5.584 -0.0689  0.8987 -0.0758
  190SAPI   C3821933   3.937   2.780   5.506  0.1116  0.2016  0.0868
  190SAPI   H8X21934   3.873   2.693   5.531 -0.2646  0.2524 -0.6662
  190SAPI   H8Y21935   4.043   2.749   5.519 -0.0207  0.2317  1.2950
  190SAPI   C3921936   3.910   2.831   5.366 -0.5093  0.0038  1.1620
  190SAPI   H9X21937   3.983   2.914   5.360  0.3829 -0.8295  0.2540
  190SAPI   H9Y21938   3.810   2.879   5.359 -0.2126  0.5016  0.2106
  190SAPI  C31021939   3.936   2.721   5.256 -0.1136  0.1318  0.0165
  190SAPI  H10X21940   3.876   2.634   5.291 -0.0593 -0.9559 -2.3359
  190SAPI  H10Y21941   4.040   2.686   5.273 -0.0196 -0.6926 -1.9731
  190SAPI  C31121942   3.896   2.765   5.114 -0.3693 -0.4609  0.1063
  190SAPI  H11X21943   3.952   2.858   5.091 -2.7727  0.6199 -1.8888
  190SAPI  H11Y21944   3.787   2.789   5.120 -0.1606  0.3749  0.7790
  190SAPI  C31221945   3.934   2.662   5.007 -0.0662  0.0536 -0.1694
  190SAPI  H12X21946   3.861   2.578   5.011 -1.5195  1.3160  1.1834
  190SAPI  H12Y21947   4.031   2.624   5.045  0.2612  1.8389  0.9082
  190SAPI  C31321948   3.932   2.720   4.867 -0.3243  0.4433  0.0161
  190SAPI  H13X21949   4.021   2.782   4.843 -0.1383 -0.4521 -1.8288
  190SAPI  H13Y21950   3.851   2.796   4.867 -2.3398 -1.6090  0.3111
  190SAPI  C31421951   3.916   2.601   4.764 -0.3573 -0.1243  0.4006
  190SAPI  H14X21952   3.806   2.586   4.767 -0.2621 -1.3867 -1.2232
  190SAPI  H14Y21953   3.960   2.511   4.812 -1.2600 -0.4724  0.5999
  190SAPI  C31521954   3.975   2.614   4.624  0.0251  0.8882  0.1794
  190SAPI  H15X21955   3.927   2.689   4.557 -0.0704  1.4235  0.8297
  190SAPI  H15Y21956   3.973   2.516   4.572 -2.0945 -0.8642  3.2301
  190SAPI  C31621957   4.125   2.657   4.614  0.1726  1.0667 -0.4587
  190SAPI  H16X21958   4.181   2.616   4.700  0.9263 -1.1727 -1.9196
  190SAPI  H16Y21959   4.134   2.768   4.624  5.5799  0.7345  1.5632
  190SAPI  C31721960   4.193   2.602   4.483  0.7850  0.0556 -0.5607
  190SAPI  H17X21961   4.184   2.492   4.486 -1.9325  0.2151  1.2068
  190SAPI  H17Y21962   4.301   2.626   4.490  0.7815 -0.3220  1.7208
  190SAPI  C31821963   4.128   2.668   4.359  0.5326 -0.1008  0.5385
  190SAPI  H18X21964   4.028   2.621   4.350  2.4408 -4.5060 -0.0516
  190SAPI  H18Y21965   4.195   2.652   4.271  0.3116  0.3420  0.2800
  190SAPI  H18Z21966   4.115   2.778   4.375  1.0589 -0.2075  1.7424
  191SAPI   C1221967   0.217   4.016   2.095  0.1887  0.2339 -0.2168
  191SAPI    H221968   0.321   3.992   2.123  1.4270  1.0302 -3.6628
  191SAPI    O221969   0.218   4.016   1.954  0.4177 -0.2435  0.0308
  191SAPI   HO221970   0.140   4.061   1.922  1.7570  2.2784  0.0822
  191SAPI   C1321971   0.132   3.901   2.151 -0.1919 -0.2256  0.5363
  191SAPI    H321972   0.195   3.811   2.137  0.1199 -0.2221  1.8113
  191SAPI    O321973   0.011   3.889   2.078 -0.1538 -0.4720  0.5598
  191SAPI   HO321974  -0.017   3.798   2.071  0.2446 -0.5026 -1.3298
  191SAPI   C1421975   0.103   3.919   2.293  0.1958  0.1086  0.1054
  191SAPI    H421976  -0.003   3.948   2.308 -0.6868 -3.0524  0.6984
  191SAPI    O421977   0.111   3.792   2.358  0.2931  0.4291 -0.3345
  191SAPI   HO421978   0.203   3.781   2.383 -0.1400 -3.0799  0.1657
  191SAPI   C1521979   0.180   4.030   2.365 -0.0231  0.4749 -0.8498
  191SAPI    H521980   0.280   3.985   2.349 -0.3674  0.4289 -3.2798
  191SAPI    O521981   0.160   4.021   2.508 -0.0744 -0.2874  0.6305
  191SAPI   HO521982   0.240   3.986   2.548 -1.1377  0.5416  3.8289
  191SAPI   C1621983   0.174   4.162   2.306 -0.0470  0.4094  1.0056
  191SAPI    H621984   0.068   4.193   2.319  0.6056  2.6057  1.5352
  191SAPI    O621985   0.258   4.267   2.356  0.7296  0.6232 -0.0379
  191SAPI   HO621986   0.242   4.255   2.450 -1.6866 -0.3990 -0.5034
  191SAPI   C1121987   0.186   4.156   2.150  0.8409 -0.0347 -0.3084
  191SAPI    H121988   0.283   4.206   2.129  1.1997 -0.2270  0.7939
  191SAPI     P21989   0.062   4.376   2.073  0.0210  0.0754 -0.4023
  191SAPI   O1321990  -0.026   4.414   1.961 -0.3356 -0.2838 -0.1340
  191SAPI   O1421991   0.199   4.429   2.064  0.1099 -0.6058  0.3928
  191SAPI   O1221992   0.067   4.214   2.085 -0.0293  0.1220 -0.1674
  191SAPI   O1121993  -0.006   4.415   2.212  0.9516 -0.4048  0.5659
  191SAPI    C121994  -0.144   4.420   2.238  1.6519 -0.5954 -0.4008
  191SAPI    HA21995  -0.204   4.471   2.161 -1.2711  0.5837  2.4259
  191SAPI    HB21996  -0.173   4.313   2.239  1.1736 -0.4699 -0.7743
  191SAPI    C221997  -0.178   4.501   2.369  0.6187  0.5240 -0.0990
  191SAPI    HS21998  -0.286   4.483   2.384  0.6428 -0.9660 -1.4536
  191SAPI   O2121999  -0.137   4.638   2.353 -0.3773 -0.1162 -0.2434
  191SAPI   C2122000  -0.220   4.727   2.391 -0.5629  0.6790 -0.1032
  191SAPI   O2222001  -0.334   4.712   2.433 -0.2955  0.1335 -0.0663
  191SAPI   C2222002  -0.168   4.868   2.382 -0.1902 -0.4387 -0.0404
  191SAPI   H2R22003  -0.057   4.857   2.379 -0.0631  0.8375 -0.6760
  191SAPI   H2S22004  -0.208   4.906   2.286  2.4596  2.0109 -0.2966
  191SAPI    C322005  -0.119   4.434   2.492  0.3089  0.3646  0.6839
  191SAPI    HX22006  -0.008   4.436   2.490  0.2971  1.0547 -0.5969
  191SAPI    HY22007  -0.146   4.326   2.493 -0.7292  0.6099  1.2494
  191SAPI   O3122008  -0.172   4.492   2.612  0.0357 -0.0188 -0.1246
  191SAPI   C3122009  -0.109   4.466   2.722  0.0436  0.1520  0.0049
  191SAPI   O3222010  -0.000   4.413   2.737  0.4668  0.1001  0.4526
  191SAPI   C3222011  -0.208   4.504   2.836  0.0536  0.4657 -0.9527
  191SAPI   H2X22012  -0.300   4.442   2.846 -0.8362  1.8821 -0.0115
  191SAPI   H2Y22013  -0.254   4.601   2.805 -1.1025  0.0947 -0.4738
  191SAPI   C2322014  -0.206   4.960   2.505 -0.3127  0.4485 -1.2403
  191SAPI   H3R22015  -0.309   4.992   2.480 -0.9569 -0.6383 -0.0532
  191SAPI   H3S22016  -0.160   5.061   2.508 -0.7124  0.6178  1.2090
  191SAPI   C2422017  -0.207   4.901   2.651  0.0594  0.3924  0.6399
  191SAPI   H4R22018  -0.294   4.832   2.643 -0.8105  1.6363 -1.6222
  191SAPI   H4S22019  -0.247   4.976   2.722 -0.5990 -0.5982  1.3293
  191SAPI   C2522020  -0.073   4.842   2.683 -0.0714 -0.4084 -0.3051
  191SAPI   H5R22021  -0.030   4.772   2.610  1.0046 -1.7159  1.4808
  191SAPI   C2622022  -0.007   4.828   2.804  0.2500 -0.1495 -0.5732
  191SAPI   H6R22023   0.100   4.803   2.800  1.0090  2.7731 -0.5807
  191SAPI   C2722024  -0.047   4.886   2.932  0.3665  0.2885  0.6935
  191SAPI   H7R22025  -0.020   4.828   3.023  0.3358  1.7470  1.6640
  191SAPI   H7S22026  -0.157   4.900   2.936  0.3991  0.2397  2.1529
  191SAPI   C2822027   0.018   5.021   2.942  0.8251 -0.1845 -0.5032
  191SAPI   H8R22028   0.010   5.081   2.850  1.9494  2.3301  0.9166
  191SAPI   C2922029   0.078   5.074   3.043  0.1167 -0.4771  0.5319
  191SAPI   H9R22030   0.137   5.164   3.018 -1.2772  0.5189  0.7618
  191SAPI  C21022031   0.109   5.011   3.176 -0.1121 -0.4161  0.3124
  191SAPI  H10R22032   0.212   4.969   3.178  0.7647  1.5035 -1.4636
  191SAPI  H10S22033   0.035   4.932   3.201 -1.1108  1.0257  2.1626
  191SAPI  C21122034   0.081   5.101   3.289  0.4595 -0.4156 -0.2233
  191SAPI  H11R22035   0.002   5.173   3.264  1.2062  1.1310  1.6331
  191SAPI  C21222036   0.129   5.115   3.417 -0.1557  0.0441  1.3179
  191SAPI  H12R22037   0.099   5.203   3.477 -1.2467  1.8952 -1.7365
  191SAPI  C21322038   0.233   5.034   3.490  0.2262 -0.5339 -0.4421
  191SAPI  H13R22039   0.316   5.000   3.424  0.8713 -0.1386  0.1584
  191SAPI  H13S22040   0.180   4.943   3.526  0.2576  0.0045  1.0165
  191SAPI  C21422041   0.308   5.103   3.600 -0.0866 -0.8132  0.1135
  191SAPI  H14R22042   0.414   5.122   3.576 -0.0874 -1.4469 -0.4305
  191SAPI  C21522043   0.275   5.119   3.726  0.3181 -0.0114 -0.6762
  191SAPI  H15R22044   0.333   5.185   3.792 -0.9199 -1.3569  1.9069
  191SAPI  C21622045   0.148   5.089   3.789  0.8343  0.9871 -0.5944
  191SAPI  H16R22046   0.084   5.025   3.725 -0.8620 -0.0540  1.9810
  191SAPI  H16S22047   0.092   5.185   3.788  0.7962  0.9737 -0.0692
  191SAPI  C21722048   0.166   5.032   3.926  0.5948  0.7501 -0.0638
  191SAPI  H17R22049   0.253   5.074   3.981  1.2989 -0.1478 -0.4570
  191SAPI  H17S22050   0.193   4.924   3.923  0.4512  0.6679  1.0493
  191SAPI  C21822051   0.042   5.042   4.010 -0.8736 -0.1006 -0.0362
  191SAPI  H18R22052  -0.049   5.029   3.947 -0.8931 -0.1214 -0.0037
  191SAPI  H18S22053   0.043   5.146   4.049  1.2159  0.0799 -0.4910
  191SAPI  C21922054   0.032   4.943   4.126 -0.2628 -0.0953  0.0701
  191SAPI  H19R22055   0.022   4.836   4.097  0.7083 -0.4685  1.0322
  191SAPI  H19S22056  -0.053   4.956   4.197 -2.0711 -2.8271 -1.4100
  191SAPI  C22022057   0.155   4.944   4.219  0.3026  0.3144 -0.0986
  191SAPI  H20R22058   0.231   4.868   4.190  1.2565  0.4085  1.9723
  191SAPI  H20S22059   0.122   4.910   4.319 -0.7034 -1.3353 -0.9541
  191SAPI  H20T22060   0.200   5.046   4.229  1.1540 -0.2413  2.4135
  191SAPI   C3322061  -0.154   4.520   2.969  0.6444  0.3109 -0.3723
  191SAPI   H3X22062  -0.062   4.579   2.951  0.0682  0.6530 -2.4093
  191SAPI   H3Y22063  -0.103   4.429   3.007  1.3654 -0.4068 -2.8686
  191SAPI   C3422064  -0.245   4.599   3.066  0.1199 -0.5670 -0.4949
  191SAPI   H4X22065  -0.347   4.561   3.043  0.0562  0.1279 -1.4500
  191SAPI   H4Y22066  -0.233   4.704   3.033  1.7121 -1.7460 -4.2576
  191SAPI   C3522067  -0.223   4.576   3.212 -0.1701  0.1973  0.1985
  191SAPI   H5X22068  -0.224   4.470   3.245 -0.7658 -0.6336 -2.2459
  191SAPI   H5Y22069  -0.298   4.633   3.270  1.3749  1.3328  1.1456
  191SAPI   C3622070  -0.087   4.630   3.265  0.4772 -0.8813  0.1562
  191SAPI   H6X22071  -0.065   4.733   3.230 -0.3128 -0.4778  0.8010
  191SAPI   H6Y22072  -0.005   4.576   3.213  2.1026  0.2207  1.4512
  191SAPI   C3722073  -0.085   4.619   3.413 -0.6063  0.6126 -0.2226
  191SAPI   H7X22074  -0.076   4.512   3.440 -0.3005  0.9111  0.8893
  191SAPI   H7Y22075  -0.183   4.647   3.456 -0.2960  1.4984 -0.0803
  191SAPI   C3822076   0.009   4.709   3.489 -0.2938 -0.2805  0.5335
  191SAPI   H8X22077  -0.016   4.808   3.444 -1.3203 -0.9830 -0.4899
  191SAPI   H8Y22078   0.116   4.683   3.477 -0.8965 -2.7955  0.0437
  191SAPI   C3922079  -0.017   4.711   3.640  0.3722 -0.3865  0.3606
  191SAPI   H9X22080  -0.107   4.774   3.658  0.0255  0.2369 -2.9778
  191SAPI   H9Y22081   0.061   4.785   3.665  0.3018  0.0111 -0.5696
  191SAPI  C31022082   0.016   4.584   3.713 -0.4777  0.5815 -1.5717
  191SAPI  H10X22083   0.109   4.539   3.672  2.0847  1.0699  3.0154
  191SAPI  H10Y22084  -0.073   4.517   3.709 -0.4201  0.5668 -3.0673
  191SAPI  C31122085   0.052   4.603   3.868  0.4413  0.0042 -1.0352
  191SAPI  H11X22086  -0.011   4.680   3.917  0.2994 -0.0538 -1.1248
  191SAPI  H11Y22087   0.150   4.656   3.871  0.6851 -0.4139  2.3164
  191SAPI  C31222088   0.071   4.478   3.946 -0.3285  0.0000 -0.5558
  191SAPI  H12X22089   0.127   4.404   3.885  0.5968  0.3664 -0.1677
  191SAPI  H12Y22090  -0.029   4.433   3.968  0.4722 -0.6211  2.1542
  191SAPI  C31322091   0.146   4.512   4.075 -0.3011 -0.2413  0.8063
  191SAPI  H13X22092   0.106   4.602   4.124 -1.7182 -1.2103  1.4952
  191SAPI  H13Y22093   0.254   4.537   4.071 -0.3564 -0.0610 -2.0316
  191SAPI  C31422094   0.134   4.403   4.183  0.4942  0.5314 -0.3766
  191SAPI  H14X22095   0.187   4.314   4.143  2.6028 -0.3372  3.8088
  191SAPI  H14Y22096   0.031   4.362   4.195  1.0589 -0.8729 -0.2216
  191SAPI  C31522097   0.209   4.434   4.312 -0.0320  0.2975 -0.2437
  191SAPI  H15X22098   0.194   4.532   4.361  4.1105  0.6563  0.6812
  191SAPI  H15Y22099   0.318   4.442   4.291  0.6081  0.0970  2.6381
  191SAPI  C31622100   0.184   4.327   4.428  0.3017 -1.0104  0.7685
  191SAPI  H16X22101   0.203   4.228   4.381  1.3746 -1.0975  1.3436
  191SAPI  H16Y22102   0.075   4.334   4.444  0.2768 -2.4448  1.2893
  191SAPI  C31722103   0.262   4.350   4.552  0.6327  0.4863 -0.4063
  191SAPI  H17X22104   0.207   4.296   4.633  0.0923  0.1393 -0.9971
  191SAPI  H17Y22105   0.270   4.460   4.568  3.3883  0.0382  2.2061
  191SAPI  C31822106   0.405   4.305   4.547 -0.0282 -0.0703  0.3606
  191SAPI  H18X22107   0.453   4.347   4.638  0.5425  0.5136 -0.2110
  191SAPI  H18Y22108   0.445   4.342   4.451 -1.7581  0.9079 -0.0249
  191SAPI  H18Z22109   0.419   4.195   4.543 -0.8148 -0.1599 -0.3767
  192SAPI   C1222110   2.597   0.601   2.169 -0.5233  0.4438  0.2509
  192SAPI    H222111   2.701   0.585   2.205 -0.1118 -0.8455 -1.4322
  192SAPI    O222112   2.609   0.677   2.053 -0.2186 -0.4571 -0.0708
  192SAPI   HO222113   2.685   0.735   2.062 -1.3491  0.7359  4.7193
  192SAPI   C1322114   2.528   0.466   2.140 -0.1380 -0.0623 -0.0424
  192SAPI    H322115   2.522   0.413   2.238  0.1582  1.5866  0.9164
  192SAPI    O322116   2.608   0.377   2.051  0.7864  0.0124  0.7724
  192SAPI   HO322117   2.627   0.421   1.967 -0.5182  3.7036  2.2018
  192SAPI   C1422118   2.392   0.484   2.072  0.0372  0.2173 -0.1590
  192SAPI    H422119   2.402   0.539   1.976  0.3829 -0.3194 -0.4353
  192SAPI    O422120   2.334   0.352   2.043 -0.3078  0.1119  0.2373
  192SAPI   HO422121   2.379   0.280   2.089  1.1371  0.9831  0.2667
  192SAPI   C1522122   2.300   0.564   2.156  0.6078 -0.0770  0.3930
  192SAPI    H522123   2.274   0.496   2.239  2.2566 -0.0047  1.0040
  192SAPI    O522124   2.176   0.593   2.094 -0.1964 -0.6847  0.3218
  192SAPI   HO522125   2.120   0.515   2.088  0.5000 -1.0869 -2.3518
  192SAPI   C1622126   2.366   0.684   2.234  0.4483 -0.1810  0.6066
  192SAPI    H622127   2.362   0.763   2.157 -2.3644 -0.4008  0.4425
  192SAPI    O622128   2.286   0.726   2.342  0.2517  0.0430  0.0812
  192SAPI   HO622129   2.259   0.817   2.328 -0.6224 -0.2225 -0.0629
  192SAPI   C1122130   2.513   0.673   2.273  0.3248 -0.0708 -0.8006
  192SAPI    H122131   2.508   0.612   2.365  0.8310  1.4289  0.2610
  192SAPI     P22132   2.686   0.820   2.405 -0.2121 -0.6483 -0.1697
  192SAPI   O1322133   2.752   0.951   2.365  0.0873 -0.5415 -0.2686
  192SAPI   O1422134   2.778   0.707   2.397 -0.5827  0.4559  0.6608
  192SAPI   O1222135   2.558   0.802   2.305 -0.3024 -0.1441  0.2197
  192SAPI   O1122136   2.611   0.835   2.541  0.1464 -0.7791 -0.0397
  192SAPI    C122137   2.501   0.923   2.563 -0.8593 -0.4261 -0.4209
  192SAPI    HA22138   2.549   1.023   2.564 -5.6917  2.2097  0.7923
  192SAPI    HB22139   2.420   0.915   2.487 -0.5737  0.6852 -0.8564
  192SAPI    C222140   2.432   0.888   2.700 -0.0372 -0.1680 -0.3360
  192SAPI    HS22141   2.326   0.922   2.703 -1.0234 -2.9315  2.8974
  192SAPI   O2122142   2.499   0.939   2.814 -0.3837 -0.0391 -0.2877
  192SAPI   C2122143   2.508   1.077   2.818 -0.7696 -0.0258 -0.3564
  192SAPI   O2222144   2.442   1.146   2.743  0.3395 -0.0706 -0.5682
  192SAPI   C2222145   2.593   1.134   2.928  0.2119  0.6378 -0.4056
  192SAPI   H2R22146   2.612   1.056   3.005 -0.5404  0.3276 -0.5246
  192SAPI   H2S22147   2.694   1.168   2.899  0.5154  3.3195  3.0782
  192SAPI    C322148   2.429   0.737   2.728  0.3163  0.1633 -0.3912
  192SAPI    HX22149   2.533   0.710   2.757 -0.1517  0.6029  1.9487
  192SAPI    HY22150   2.403   0.686   2.633 -1.3525  0.4548 -0.1277
  192SAPI   O3122151   2.327   0.702   2.824  0.3874  0.3631 -0.1204
  192SAPI   C3122152   2.334   0.599   2.897  0.2895 -0.1249  0.1671
  192SAPI   O3222153   2.418   0.513   2.886  0.1299 -0.1401  0.1955
  192SAPI   C3222154   2.233   0.613   3.013  0.2269 -0.1965  0.0228
  192SAPI   H2X22155   2.133   0.576   2.981  0.6548 -1.6731  0.3362
  192SAPI   H2Y22156   2.224   0.723   3.026  0.3279 -0.3572  1.6172
  192SAPI   C2322157   2.545   1.264   2.999 -0.3947  0.5642 -0.1828
  192SAPI   H3R22158   2.510   1.348   2.934 -3.1340  1.2492  1.9492
  192SAPI   H3S22159   2.629   1.317   3.048  1.0998 -2.3310  0.5475
  192SAPI   C2422160   2.447   1.226   3.119 -0.2525  0.3149 -0.1752
  192SAPI   H4R22161   2.446   1.317   3.184 -1.3594 -0.4672  0.9584
  192SAPI   H4S22162   2.480   1.143   3.185 -0.9493 -0.0386 -0.2701
  192SAPI   C2522163   2.310   1.191   3.082 -0.6919 -0.1830  0.2905
  192SAPI   H5R22164   2.273   1.259   3.003 -2.5912  1.8827  2.7825
  192SAPI   C2622165   2.227   1.100   3.143 -0.5527  0.0610  0.3084
  192SAPI   H6R22166   2.122   1.087   3.113 -0.0916 -3.5514 -0.2931
  192SAPI   C2722167   2.258   1.004   3.251  0.5266 -0.4066  0.2418
  192SAPI   H7R22168   2.359   0.962   3.234  1.4436  0.5762  2.7375
  192SAPI   H7S22169   2.191   0.915   3.259  0.7769 -0.4474  2.4978
  192SAPI   C2822170   2.252   1.076   3.387  0.0145 -0.0297 -0.1045
  192SAPI   H8R22171   2.174   1.153   3.397  0.2686  0.0317  1.6659
  192SAPI   C2922172   2.318   1.050   3.500  0.0427 -0.0342 -0.6916
  192SAPI   H9R22173   2.292   1.103   3.593  0.1720 -1.4750  0.2040
  192SAPI  C21022174   2.423   0.942   3.525  0.2075 -0.2091  0.2748
  192SAPI  H10R22175   2.518   0.974   3.477 -0.3911  2.8316  0.8690
  192SAPI  H10S22176   2.395   0.843   3.485 -3.5569  1.4483 -1.7324
  192SAPI  C21122177   2.455   0.932   3.668 -0.7726  0.0955  0.4928
  192SAPI  H11R22178   2.546   0.984   3.704 -1.5921  0.6123  1.9050
  192SAPI  C21222179   2.386   0.858   3.757  0.1537 -0.3045 -0.7133
  192SAPI  H12R22180   2.405   0.868   3.864 -3.7026 -0.7434  0.1665
  192SAPI  C21322181   2.265   0.773   3.738  0.5655 -0.4994 -0.1180
  192SAPI  H13R22182   2.265   0.671   3.781  0.3361  0.5009  2.4294
  192SAPI  H13S22183   2.250   0.759   3.628  1.0400  1.7834 -0.5260
  192SAPI  C21422184   2.133   0.832   3.794 -0.5290  0.4947  0.2461
  192SAPI  H14R22185   2.078   0.897   3.725 -1.0337 -1.0309 -0.8279
  192SAPI  C21522186   2.081   0.798   3.915  0.1186 -0.2498 -0.5143
  192SAPI  H15R22187   1.987   0.843   3.951 -0.0037 -0.4249 -0.6196
  192SAPI  C21622188   2.151   0.713   4.019  0.6520  0.1694 -0.7762
  192SAPI  H16R22189   2.230   0.647   3.978 -0.3441  0.0246 -2.5675
  192SAPI  H16S22190   2.087   0.649   4.083  1.4663  0.9743  0.9191
  192SAPI  C21722191   2.219   0.809   4.116  0.2124 -0.6352  0.0070
  192SAPI  H17R22192   2.149   0.884   4.158  0.5390  0.5442 -1.4429
  192SAPI  H17S22193   2.295   0.876   4.071 -1.0568  3.2899  3.1272
  192SAPI  C21822194   2.289   0.725   4.217  0.0231 -0.5182 -0.0294
  192SAPI  H18R22195   2.351   0.795   4.276 -1.9299  2.0365 -0.8074
  192SAPI  H18S22196   2.353   0.660   4.154 -0.2060 -0.0559 -0.7417
  192SAPI  C21922197   2.201   0.642   4.320 -0.5925 -0.6060 -0.6518
  192SAPI  H19R22198   2.270   0.607   4.400  1.5193  1.9446 -1.2303
  192SAPI  H19S22199   2.166   0.549   4.269  1.7004 -0.8998 -1.8293
  192SAPI  C22022200   2.082   0.718   4.377 -0.5609 -0.6563 -0.5385
  192SAPI  H20R22201   2.123   0.803   4.436 -1.7895  0.4749 -1.2686
  192SAPI  H20S22202   2.023   0.661   4.452 -0.7177 -1.5150 -1.3053
  192SAPI  H20T22203   2.021   0.766   4.298  0.4863 -0.4405 -1.2432
  192SAPI   C3322204   2.270   0.548   3.147 -1.0140  0.7670  0.6852
  192SAPI   H3X22205   2.368   0.570   3.196 -0.1778 -1.2193 -0.0126
  192SAPI   H3Y22206   2.273   0.441   3.118 -0.4796  1.2161 -1.0554
  192SAPI   C3422207   2.163   0.571   3.241 -0.7594 -0.4265 -0.0092
  192SAPI   H4X22208   2.066   0.546   3.194 -1.1694  2.7960 -1.1152
  192SAPI   H4Y22209   2.152   0.679   3.268  0.3173  0.6116 -3.2414
  192SAPI   C3522210   2.174   0.501   3.373 -0.6041 -0.2977 -0.5714
  192SAPI   H5X22211   2.274   0.520   3.418 -0.5951  0.3042 -0.8306
  192SAPI   H5Y22212   2.158   0.395   3.347  0.3276  0.1719 -3.5107
  192SAPI   C3622213   2.066   0.542   3.473 -0.6395  0.0522 -0.1233
  192SAPI   H6X22214   1.962   0.522   3.439 -0.9787  0.8726  0.4166
  192SAPI   H6Y22215   2.074   0.652   3.481  2.3878  0.0860 -1.8706
  192SAPI   C3722216   2.091   0.480   3.606  0.1340  0.5887  0.0301
  192SAPI   H7X22217   2.184   0.515   3.654 -0.8818  1.2525  1.5838
  192SAPI   H7Y22218   2.104   0.373   3.577 -0.7978  0.7999 -1.2657
  192SAPI   C3822219   1.970   0.485   3.702  0.1307  0.6046  0.6685
  192SAPI   H8X22220   1.885   0.455   3.637  1.1656 -2.4604  0.5598
  192SAPI   H8Y22221   1.953   0.591   3.734 -1.4509  0.4504  0.4209
  192SAPI   C3922222   1.984   0.400   3.833  0.5090 -0.2828  0.3433
  192SAPI   H9X22223   2.055   0.457   3.897  1.4031  0.9906 -1.6412
  192SAPI   H9Y22224   2.029   0.303   3.802 -1.1026 -0.1309 -2.8416
  192SAPI  C31022225   1.852   0.377   3.899  0.4818  0.0965 -0.1580
  192SAPI  H10X22226   1.810   0.301   3.830  0.4652  1.1051 -1.3058
  192SAPI  H10Y22227   1.784   0.463   3.881  1.7545  0.8503 -1.6353
  192SAPI  C31122228   1.858   0.347   4.052  0.4065  0.4308  0.4621
  192SAPI  H11X22229   1.757   0.340   4.098 -0.5494  3.6144 -0.9027
  192SAPI  H11Y22230   1.919   0.429   4.096 -0.8686  1.5394  0.2171
  192SAPI  C31222231   1.917   0.207   4.074 -1.1234  0.1021 -0.0512
  192SAPI  H12X22232   2.009   0.183   4.017  0.8405 -0.6540  3.1854
  192SAPI  H12Y22233   1.845   0.135   4.029 -0.4420 -1.0896  0.7124
  192SAPI  C31322234   1.956   0.191   4.217  0.1533  0.4349 -0.1706
  192SAPI  H13X22235   1.871   0.151   4.276  0.9327 -1.6297 -0.3415
  192SAPI  H13Y22236   2.001   0.280   4.266 -0.9898  1.0358 -0.1994
  192SAPI  C31422237   2.061   0.082   4.230 -1.1363 -0.2261 -0.0983
  192SAPI  H14X22238   2.154   0.132   4.197 -0.7781 -1.5956 -1.2812
  192SAPI  H14Y22239   2.040  -0.003   4.160 -0.1396 -0.8630  0.3615
  192SAPI  C31522240   2.075   0.029   4.371  0.0014 -0.5672  0.2360
  192SAPI  H15X22241   1.993  -0.042   4.395  0.0021 -0.1792  1.4932
  192SAPI  H15Y22242   2.076   0.111   4.447  2.2821 -1.1150  0.8522
  192SAPI  C31622243   2.205  -0.049   4.393 -0.5594  0.0171  0.3552
  192SAPI  H16X22244   2.206  -0.113   4.483  0.9177 -0.0037  0.3534
  192SAPI  H16Y22245   2.287   0.026   4.394  0.4933 -1.0247 -1.4398
  192SAPI  C31722246   2.239  -0.153   4.282 -0.3866 -0.1327  0.0927
  192SAPI  H17X22247   2.262  -0.105   4.184  0.2881  0.1559  0.3882
  192SAPI  H17Y22248   2.149  -0.213   4.255 -0.3402 -0.0591 -0.2329
  192SAPI  C31822249   2.360  -0.241   4.332  0.0249 -1.3816  0.0853
  192SAPI  H18X22250   2.378  -0.333   4.273 -0.2028 -1.4559  0.1308
  192SAPI  H18Y22251   2.333  -0.279   4.433 -0.6248 -0.4699  0.2770
  192SAPI  H18Z22252   2.454  -0.184   4.344 -0.6005  0.0631 -1.4250
  193SOD    SOD22253   5.929   2.377   7.509  0.5625 -0.0229  0.5594
  194SOD    SOD22254   5.238   2.062   0.651  0.6068 -0.5777 -0.2083
  195SOD    SOD22255   1.162   0.862   0.471  0.4359  0.0459 -0.2077
  196SOD    SOD22256   3.783   5.424   2.511  0.4527 -0.1976 -0.8618
  197SOD    SOD22257   5.197   1.973   1.261  0.1502  0.4598 -0.4158
  198SOD    SOD22258   3.649   3.618   0.453  0.1518 -0.4482 -0.3900
  199SOD    SOD22259   1.154   3.066   7.059  0.0423  0.1224 -0.0712
  200SOD    SOD22260   4.730   1.105   1.937 -0.0466 -0.3112  0.3398
  201SOD    SOD22261   4.086   5.750   0.752 -0.6556 -0.0467  0.2877
  202SOD    SOD22262   3.477   4.160   7.537  0.0304 -0.2516 -0.2629
  203SOD    SOD22263   1.518   3.955   1.114 -0.2813 -0.4359 -0.0251
  204SOD    SOD22264   6.027   0.296   0.351 -0.4011 -0.3972 -0.2195
  205SOD    SOD22265   4.625   0.702   7.448 -0.0829  0.3293  0.3290
  206SOD    SOD22266   3.618   2.161   0.751 -0.6626  0.1583  0.1919
  207SOD    SOD22267   4.437   1.084   6.736 -0.4006  0.1500 -0.2661
  208SOD    SOD22268   3.725   4.081   1.460  0.0862  0.0700  0.7540
  209SOD    SOD22269   5.187   5.463   1.078 -0.2710  0.2068  0.0355
  210SOD    SOD22270   5.235   3.728   6.605  0.6697  0.1696 -0.2132
  211SOD    SOD22271   4.523   4.102   7.015  0.4253  0.0083 -0.4160
  212SOD    SOD22272   5.646   2.339   1.991  0.1164  0.6628  0.1163
  213SOD    SOD22273   6.668   4.077   2.018 -0.4506 -0.0890 -0.6958
  214SOD    SOD22274   0.355   2.864   7.110 -0.3779  0.0989  0.2809
  215SOD    SOD22275   5.916   3.271   7.005  0.0579  0.0820 -0.1636
  216SOD    SOD22276   0.351   0.983   1.050  0.2673 -0.1314 -0.1699
  217SOD    SOD22277   0.339   4.464   2.251  0.0491  0.1703  0.4638
  218SOD    SOD22278   5.073   4.105   2.406 -0.6577  0.1413  0.0642
  219SOD    SOD22279   4.282   6.374   2.198  0.2400 -0.0159 -0.1190
  220SOD    SOD22280   1.423   1.494   6.690 -0.3350 -0.3864 -0.2480
  221SOD    SOD22281   1.312   3.082   2.027 -0.1667 -0.0492 -0.0493
  222SOD    SOD22282   1.938   4.541   7.068 -0.0898 -0.4972  0.8221
  223SOD    SOD22283   4.155   1.256   7.303  0.3663  0.5417 -0.3998
  224SOD    SOD22284   0.339   6.332   2.172 -0.3945 -0.0823 -0.2231
  225SOD    SOD22285   2.525   2.034   2.547 -0.4070  0.3586  0.1382
  226SOD    SOD22286   2.579   6.738   6.430 -0.3010 -0.9378  0.0300
  227SOD    SOD22287   6.130   4.431   1.524 -0.0776  0.2327  0.2149
  228SOD    SOD22288   6.277   2.627   0.913 -0.0360 -0.2604 -0.1341
  229SOD    SOD22289   0.472   3.789   6.874  0.2919 -0.4171  0.1933
  230SOD    SOD22290   1.122   4.068   6.777 -0.0798 -0.1735  0.3213
  231SOD    SOD22291   0.102   2.194   0.622  0.3100 -0.3087  0.0364
  232SOD    SOD22292   2.534   5.270   7.053  0.0150  0.2671 -0.0722
  233SOD    SOD22293   4.303   1.730   0.271 -0.3471 -0.3830 -0.1541
  234CLA    CLA22294   6.202   3.531   0.430  0.0118  0.2591  0.0184
  235CLA    CLA22295   3.034   5.770   7.748 -0.1274  0.3529 -0.2071
  236CLA    CLA22296   6.680   6.227   8.091  0.0173  0.3051 -0.5886
  237CLA    CLA22297   0.697   3.939   0.134 -0.0183  0.1104 -0.0324
  238CLA    CLA22298   0.035   5.564   8.316  0.1296  0.1352  0.3489
  239CLA    CLA22299   2.083   5.140   0.788  0.0012 -0.1185 -0.4557
  240CLA    CLA22300   2.592   1.095   1.430  0.3875  0.0412 -0.0208
  241CLA    CLA22301   4.103   3.579   0.047  0.2353  0.5189 -0.4124
  242CLA    CLA22302   6.597   0.553   8.148 -0.1849  0.2243  0.1872
  243CLA    CLA22303   1.396   1.361   1.228 -0.1168 -0.5175 -0.0935
  244CLA    CLA22304   0.230   1.118   8.252  0.1703 -0.1046  0.1511
  245CLA    CLA22305   6.576   3.167   0.730 -0.7057 -0.1615 -0.2354
  246CLA    CLA22306   5.074   2.365   1.585 -0.0304  0.0939 -0.3399
  247CLA    CLA22307   4.973   1.980   0.240  0.1735  0.4948  0.1939
  248CLA    CLA22308   2.851   0.556   7.613  0.2740  0.1045 -0.0698
  249CLA    CLA22309   5.774   2.093   0.741  0.2333  0.3321  0.2099
  250CLA    CLA22310   1.635   0.452   1.107 -0.1840  0.0531  0.0889
  251TIP3   OH222311   4.582   1.409   8.411 -0.0377  0.3969  0.5033
  251TIP3    H122312   4.673   1.436   8.421  0.2148  1.4496 -3.0372
  251TIP3    H222313   4.585   1.313   8.409  1.2439  0.4236 -0.7522
  252TIP3   OH222314   6.229   4.309   2.719  0.2142  0.3184 -0.0082
  252TIP3    H122315   6.251   4.222   2.684  1.0753 -0.3869  2.1438
  252TIP3    H222316   6.133   4.309   2.722  0.1791 -1.6950  2.4111
  253TIP3   OH222317   6.599   2.332   8.777 -0.1762 -0.1374 -0.1312
  253TIP3    H122318   6.645   2.383   8.710  0.4555  1.0587  1.1617
  253TIP3    H222319   6.512   2.317   8.740  0.5465 -0.6243 -1.7375
  254TIP3   OH222320   3.685   1.463   0.822  0.1521  0.3333 -0.5416
  254TIP3    H122321   3.620   1.394   0.808 -0.1333  0.8270 -1.7096
  254TIP3    H222322   3.747   1.453   0.750  0.7657  0.5619 -0.0524
  255TIP3   OH222323   5.800   4.672   0.611 -0.1361  0.2464 -0.8906
  255TIP3    H122324   5.852   4.657   0.532  1.1485  0.0634 -0.0270
  255TIP3    H222325   5.714   4.635   0.590  0.0379  0.6074 -2.3620
  256TIP3   OH222326   6.434   4.126   7.965  0.1020  0.0181 -0.6097
  256TIP3    H122327   6.497   4.099   7.897  0.3141  0.9802 -0.8132
  256TIP3    H222328   6.488   4.174   8.028 -0.1094 -0.8201  0.2111
  257TIP3   OH222329   3.839   0.971   0.049  0.1423 -0.1639 -0.5269
  257TIP3    H122330   3.896   1.046   0.032  0.1386 -0.5483 -2.4823
  257TIP3    H222331   3.889   0.896   0.018 -0.7336 -0.7131 -0.6304
  258TIP3   OH222332   5.709   5.933   0.121 -0.3778  0.1536  0.5985
  258TIP3    H122333   5.760   5.989   0.063  1.6144 -1.1058  1.0552
  258TIP3    H222334   5.668   5.994   0.183 -1.7645  1.4336 -1.4593
  259TIP3   OH222335   3.095   4.577   8.774  0.0326 -0.9209  0.4775
  259TIP3    H122336   3.108   4.508   8.839 -0.7577  0.0527  1.7468
  259TIP3    H222337   3.099   4.658   8.826 -0.0476 -0.0792 -0.8000
  260TIP3   OH222338   4.761   2.313   0.896 -0.0822 -0.6154 -0.3688
  260TIP3    H122339   4.765   2.375   0.969  1.0149 -0.8704 -0.1892
  260TIP3    H222340   4.764   2.368   0.818 -0.5424 -0.3747 -0.2195
  261TIP3   OH222341   0.987   4.042   0.729 -0.0747  0.4255 -0.5077
  261TIP3    H122342   1.066   4.095   0.725 -1.1207  1.9751 -2.0660
  261TIP3    H222343   0.981   4.014   0.820  2.0936  0.4747 -0.2941
  262TIP3   OH222344   5.181   0.137   7.443 -0.2156 -0.5807  0.6792
  262TIP3    H122345   5.160   0.188   7.364  2.9433  0.3390  0.2868
  262TIP3    H222346   5.170   0.046   7.416  0.2999 -0.2574 -0.7122
  263TIP3   OH222347   6.170   1.295   0.517  0.0912  0.2584  0.5787
  263TIP3    H122348   6.155   1.389   0.530 -1.4703 -0.1033  1.6008
  263TIP3    H222349   6.120   1.253   0.586 -1.1767 -1.4399 -1.2559
  264TIP3   OH222350   0.525   0.787   1.152 -0.2731 -0.0410  0.4226
  264TIP3    H122351   0.520   0.692   1.144  0.4667 -0.0133 -0.5508
  264TIP3    H222352   0.557   0.802   1.242  3.7398 -0.9131 -0.6611
  265TIP3   OH222353   5.297   4.579   1.659  0.0905 -0.0668  0.3050
  265TIP3    H122354   5.351   4.505   1.631  2.1206  1.1169  0.9714
  265TIP3    H222355   5.264   4.553   1.745  2.2461  0.4804  1.3416
  266TIP3   OH222356   1.668   0.638   8.072 -0.0647 -0.0689 -0.3721
  266TIP3    H122357   1.725   0.570   8.035  0.1858  0.9039 -1.8225
  266TIP3    H222358   1.674   0.624   8.167  0.6739 -1.5053 -0.5983
  267TIP3   OH222359   5.274   6.555   6.985  0.2759  0.1710  0.1043
  267TIP3    H122360   5.262   6.490   6.915 -0.8325  1.1586 -0.6693
  267TIP3    H222361   5.187   6.594   6.996  0.7304  0.9345  1.1470
  268TIP3   OH222362   1.522   0.762   7.167 -0.3682 -0.7292  0.1446
  268TIP3    H122363   1.577   0.821   7.116 -0.3036 -1.6837 -0.9479
  268TIP3    H222364   1.569   0.750   7.249  0.6738 -0.9090 -0.4642
  269TIP3   OH222365   1.348   3.032   6.656 -0.1776 -0.2174  0.1591
  269TIP3    H122366   1.255   3.024   6.637 -0.6558  3.7014  0.1294
  269TIP3    H222367   1.391   3.013   6.573 -1.0633 -0.4813 -0.2469
  270TIP3   OH222368   1.458   3.080   0.979 -0.2493  0.2844  0.3826
  270TIP3    H122369   1.543   3.085   1.022 -0.3345  3.1832  0.4127
  270TIP3    H222370   1.395   3.088   1.050 -0.5439 -0.6633  0.2396
  271TIP3   OH222371   3.805   4.221   1.632 -0.1401 -0.4196 -0.2738
  271TIP3    H122372   3.783   4.308   1.599  0.6208 -0.3890 -0.7106
  271TIP3    H222373   3.897   4.227   1.658 -0.0435 -1.1273 -0.4263
  272TIP3   OH222374   1.206   3.090   1.127 -0.1669 -0.0201  0.6805
  272TIP3    H122375   1.134   3.033   1.155 -2.3401  2.1611 -0.1185
  272TIP3    H222376   1.231   3.137   1.207  2.2302 -2.5124  1.5499
  273TIP3   OH222377   1.378   5.802   8.169 -0.5532 -0.3290  0.2363
  273TIP3    H122378   1.300   5.798   8.114  1.2751  0.1160 -2.6159
  273TIP3    H222379   1.420   5.885   8.145  0.4567 -0.2137  2.2011
  274TIP3   OH222380   3.918   6.486   1.351  0.2776  0.1618  0.3703
  274TIP3    H122381   3.835   6.467   1.308  1.5245 -0.6875 -1.8512
  274TIP3    H222382   3.902   6.471   1.444 -1.7605 -1.0117 -0.1283
  275TIP3   OH222383   4.602   6.225   0.825  0.2765  0.0281  0.3250
  275TIP3    H122384   4.627   6.302   0.773 -1.2355  0.0532 -0.3833
  275TIP3    H222385   4.604   6.257   0.915 -0.9162  1.0848 -0.0025
  276TIP3   OH222386   1.493   1.377   1.673 -0.0677  0.5494  0.0093
  276TIP3    H122387   1.556   1.445   1.649  1.5654 -0.9426 -0.1538
  276TIP3    H222388   1.545   1.297   1.678 -1.7534 -0.5473  1.0920
  277TIP3   OH222389   6.300   2.454   2.198 -0.4377 -0.4355 -0.3545
  277TIP3    H122390   6.317   2.470   2.105 -1.1305 -1.1735 -0.6246
  277TIP3    H222391   6.231   2.516   2.221 -0.8125 -0.7781 -0.5414
  278TIP3   OH222392   4.008   0.401   7.150  0.5999 -0.0555  0.0886
  278TIP3    H122393   3.953   0.325   7.128  0.3630 -0.6292  2.3869
  278TIP3    H222394   4.009   0.454   7.070 -1.9065 -0.8678 -0.5768
  279TIP3   OH222395   5.957   4.577   0.379  0.6195 -0.4899  0.2230
  279TIP3    H122396   5.960   4.501   0.320  1.1860  0.5112 -1.0830
  279TIP3    H222397   5.971   4.540   0.466 -0.4204 -2.0320 -0.2202
  280TIP3   OH222398   3.877   1.646   8.633 -0.0706 -0.2468 -0.0011
  280TIP3    H122399   3.966   1.674   8.611 -0.5936  1.4425 -0.1257
  280TIP3    H222400   3.836   1.629   8.548  0.2739 -1.6009  0.0774
  281TIP3   OH222401   6.305   2.174   7.492  0.3373  0.1412  0.6538
  281TIP3    H122402   6.373   2.214   7.547  1.2526 -0.7862  0.2335
  281TIP3    H222403   6.223   2.197   7.535  0.8468  2.0366  0.6895
  282TIP3   OH222404   5.081   3.771   1.877 -0.5202 -0.2474  0.2136
  282TIP3    H122405   5.010   3.795   1.817 -0.2174  0.3801  0.0926
  282TIP3    H222406   5.117   3.690   1.840 -0.4089  0.0751 -0.4054
  283TIP3   OH222407   3.349   2.802   6.898 -0.5361 -0.4215 -0.1272
  283TIP3    H122408   3.362   2.862   6.972 -0.9236 -0.0612 -0.3465
  283TIP3    H222409   3.380   2.852   6.822  2.2530 -1.6623  0.0463
  284TIP3   OH222410   3.079   5.467   8.526  0.0520 -0.3987  0.3144
  284TIP3    H122411   3.130   5.548   8.531 -1.2346  0.3630  2.1292
  284TIP3    H222412   3.039   5.470   8.439  1.0056  0.2611 -0.1310
  285TIP3   OH222413   3.043   6.754   7.724  0.5510 -0.3105  0.5040
  285TIP3    H122414   3.116   6.794   7.770 -0.0301  1.0141  0.3283
  285TIP3    H222415   2.991   6.828   7.693  0.5796 -1.1439 -1.7220
  286TIP3   OH222416   5.892   1.380   7.737  0.1390  0.0937 -0.5136
  286TIP3    H122417   5.964   1.421   7.689 -0.8891 -0.8573 -3.0166
  286TIP3    H222418   5.818   1.382   7.677 -0.4299 -3.9021 -0.2187
  287TIP3   OH222419   3.787   0.644   1.668  0.0439 -0.1598 -0.9344
  287TIP3    H122420   3.725   0.711   1.697  1.5511  1.5611 -1.4844
  287TIP3    H222421   3.764   0.627   1.577 -0.3502 -0.4330 -0.7896
  288TIP3   OH222422   3.396   4.236   6.343 -0.0681  0.2596  0.4903
  288TIP3    H122423   3.421   4.150   6.376 -0.6330  0.0773  0.4450
  288TIP3    H222424   3.439   4.297   6.403 -0.0109 -0.0542  0.7737
  289TIP3   OH222425   2.009   0.398   0.504  0.0534  0.2247 -0.6823
  289TIP3    H122426   2.009   0.493   0.512  0.3437  0.1685  0.0813
  289TIP3    H222427   1.927   0.371   0.547  0.2214  0.0991 -0.4387
  290TIP3   OH222428   6.667   2.405   8.168 -0.2545  0.1892 -0.0709
  290TIP3    H122429   6.710   2.478   8.212  0.0709 -1.5437  2.7348
  290TIP3    H222430   6.612   2.446   8.101  2.2081  2.7606 -0.7183
  291TIP3   OH222431   0.827   0.954   6.716 -0.3123 -0.2389  0.2862
  291TIP3    H122432   0.842   0.863   6.689 -0.6008 -0.2636  0.2112
  291TIP3    H222433   0.842   0.953   6.811 -0.0969 -0.3181  0.2518
  292TIP3   OH222434   1.436   2.674   1.350 -0.2423 -0.1820 -0.0307
  292TIP3    H122435   1.432   2.661   1.256 -0.6323 -0.2596 -0.0047
  292TIP3    H222436   1.403   2.593   1.387 -1.7189  0.4689  0.1465
  293TIP3   OH222437   2.585   1.413   8.056  0.1328  0.2698 -0.3398
  293TIP3    H122438   2.518   1.357   8.018  0.9640 -0.4816 -0.7402
  293TIP3    H222439   2.624   1.359   8.126 -0.5602  1.1855  0.7796
  294TIP3   OH222440   1.950   0.615   0.994 -0.3168 -0.3717  0.1584
  294TIP3    H122441   2.030   0.665   1.013 -1.2814  0.8643  1.1504
  294TIP3    H222442   1.896   0.626   1.072 -1.6526 -0.8001 -0.6768
  295TIP3   OH222443   1.187   5.075   0.934  0.0307  0.2847  0.0498
  295TIP3    H122444   1.114   5.131   0.958 -0.1114 -0.3452  1.1686
  295TIP3    H222445   1.249   5.083   1.007  0.9162  0.5259 -0.7076
  296TIP3   OH222446   5.753   2.818   0.713 -0.0585 -0.2909 -0.2310
  296TIP3    H122447   5.764   2.745   0.775  1.2005  0.4109  0.4174
  296TIP3    H222448   5.815   2.885   0.744 -1.2251  1.0826 -0.7707
  297TIP3   OH222449   3.493   1.829   7.221  0.1158 -0.2056  0.3757
  297TIP3    H122450   3.478   1.918   7.190 -1.8621 -0.0496  1.5863
  297TIP3    H222451   3.407   1.799   7.251  0.6245 -2.7045 -0.3888
  298TIP3   OH222452   3.248   2.789   8.694 -0.0501  0.2225 -0.0663
  298TIP3    H122453   3.239   2.779   8.600  1.3495  0.1819 -0.2214
  298TIP3    H222454   3.208   2.710   8.731  0.8617 -0.5651 -0.7162
  299TIP3   OH222455   1.777   5.661   1.912  0.2165 -0.1964  0.3518
  299TIP3    H122456   1.689   5.697   1.916 -0.0343 -0.5598 -1.1238
  299TIP3    H222457   1.819   5.708   1.840  0.9664 -0.5632  0.5377
  300TIP3   OH222458   3.789   1.958   1.676  0.1834 -0.7615  0.0312
  300TIP3    H122459   3.796   1.894   1.746 -1.7373  0.3535  1.3123
  300TIP3    H222460   3.696   1.963   1.656  0.4933  0.3176 -1.3197
  301TIP3   OH222461   5.506   5.835   7.796 -0.5676  0.1528 -0.0604
  301TIP3    H122462   5.516   5.821   7.701 -0.0213 -1.2043  0.1749
  301TIP3    H222463   5.578   5.786   7.835 -0.5605  1.0179  1.0544
  302TIP3   OH222464   3.302   1.972   1.482  0.1288 -0.5659 -0.0308
  302TIP3    H122465   3.351   1.943   1.406 -0.0709  0.1882 -0.4617
  302TIP3    H222466   3.248   2.045   1.449  0.3214  0.0143  0.9092
  303TIP3   OH222467   4.726   6.243   7.520  0.0203 -0.3095 -0.1305
  303TIP3    H122468   4.737   6.325   7.568 -0.3371  0.4013 -1.2359
  303TIP3    H222469   4.657   6.197   7.567  0.6504 -0.2662  0.8620
  304TIP3   OH222470   1.519   2.932   7.940  0.5632 -0.4726 -1.0123
  304TIP3    H122471   1.459   2.911   7.869 -0.4431  1.7767 -0.9247
  304TIP3    H222472   1.585   2.989   7.901 -0.1282  0.9783 -0.1868
  305TIP3   OH222473   3.053   4.481   1.554  0.4415 -0.3674  0.4686
  305TIP3    H122474   3.106   4.559   1.570 -0.3320  0.0924  0.8066
  305TIP3    H222475   3.105   4.409   1.589  0.8806  0.0679  0.7200
  306TIP3   OH222476   0.219   4.632   8.129  0.0056 -0.2378  0.6666
  306TIP3    H122477   0.203   4.665   8.041  2.1049  0.9400  0.6580
  306TIP3    H222478   0.136   4.643   8.175 -1.1884 -1.0601 -1.1871
  307TIP3   OH222479   5.880   1.364   0.475  0.0752  0.6898 -0.3078
  307TIP3    H122480   5.867   1.453   0.506 -2.2217  0.9676 -1.8300
  307TIP3    H222481   5.872   1.309   0.553 -1.3818  1.6257  0.2348
  308TIP3   OH222482   6.113   6.590   8.527 -0.8271  0.2892  0.3153
  308TIP3    H122483   6.123   6.569   8.434  0.8189  1.9313  0.0541
  308TIP3    H222484   6.187   6.548   8.570 -2.0638 -1.2069  1.0770
  309TIP3   OH222485   0.525   5.179   0.004 -0.4240 -0.1231 -0.6294
  309TIP3    H122486   0.459   5.232  -0.041 -0.2402  0.7934  0.1287
  309TIP3    H222487   0.474   5.118   0.057 -0.7316  1.0044  0.4539
  310TIP3   OH222488   5.146   1.241   1.271  0.4619  0.0214 -0.1647
  310TIP3    H122489   5.055   1.267   1.287  0.2215  0.3709 -1.8392
  310TIP3    H222490   5.140   1.158   1.224  1.0419 -0.3056  0.3247
  311TIP3   OH222491   0.272   5.592   8.688 -0.4325  0.1391  0.7626
  311TIP3    H122492   0.353   5.635   8.663 -0.3799 -0.2066  0.3242
  311TIP3    H222493   0.209   5.663   8.699 -0.4858  0.3044 -0.4630
  312TIP3   OH222494   2.577   3.631   0.667 -0.4590 -0.8545 -0.2700
  312TIP3    H122495   2.599   3.565   0.601 -0.0465  0.4466 -1.4826
  312TIP3    H222496   2.497   3.672   0.634  0.6242  0.9051 -0.8602
  313TIP3   OH222497   2.351   1.879   0.561  0.0145  0.1544  0.3661
  313TIP3    H122498   2.332   1.849   0.650 -0.3353  1.2893  0.6870
  313TIP3    H222499   2.360   1.974   0.569  2.7870  0.0185 -0.3145
  314TIP3   OH222500   3.983   1.911   8.416 -0.0149  0.1769  0.5166
  314TIP3    H122501   4.028   1.855   8.480  1.2984  2.4601  1.7320
  314TIP3    H222502   4.025   1.890   8.332  0.0306 -1.0487  0.8241
  315TIP3   OH222503   6.456   0.838   0.464  0.7541  0.0551 -0.1707
  315TIP3    H122504   6.462   0.784   0.542  1.5907  1.2099  0.5821
  315TIP3    H222505   6.414   0.919   0.493  0.4266  0.2236 -1.0689
  316TIP3   OH222506   3.656   2.159   0.342  0.3573  0.0268 -0.1946
  316TIP3    H122507   3.607   2.161   0.259 -0.0966 -1.4048  0.0055
  316TIP3    H222508   3.713   2.082   0.334  0.7040  0.1879  0.6127
  317TIP3   OH222509   3.370   3.888   1.438  0.2233  0.7812 -0.2263
  317TIP3    H122510   3.372   3.796   1.464  0.3352  1.2136  1.4296
  317TIP3    H222511   3.307   3.928   1.498  1.1794  2.0353 -0.0424
  318TIP3   OH222512   2.173   5.729   0.750 -0.0959 -0.0581  0.2018
  318TIP3    H122513   2.126   5.793   0.697  0.7891  0.4543  0.0199
  318TIP3    H222514   2.120   5.720   0.830 -0.6458  0.2823 -0.1195
  319TIP3   OH222515   3.710   3.041   7.759 -0.1588 -0.3313  0.1063
  319TIP3    H122516   3.742   3.121   7.800 -1.7457  0.1292  0.4984
  319TIP3    H222517   3.789   2.999   7.723  0.8100  0.9249  0.7048
  320TIP3   OH222518   2.774   6.326   0.529  0.0651 -0.3414 -0.2736
  320TIP3    H122519   2.825   6.403   0.504 -0.9899 -0.0074 -1.4786
  320TIP3    H222520   2.733   6.351   0.612  2.2699 -0.8439  1.0695
  321TIP3   OH222521   6.044   2.371   0.290  0.8840  0.7769  0.5118
  321TIP3    H122522   6.100   2.296   0.310 -1.1567 -0.9506  0.0949
  321TIP3    H222523   6.043   2.375   0.194  1.1899  1.5022  0.5378
  322TIP3   OH222524   2.381   3.788   1.860 -0.2039  0.1103  0.1548
  322TIP3    H122525   2.461   3.756   1.900  0.2668  0.8971 -0.1335
  322TIP3    H222526   2.396   3.779   1.766 -0.8045 -0.5471  0.1095
  323TIP3   OH222527   3.189   0.478   0.727  0.3535  0.2869  0.5304
  323TIP3    H122528   3.189   0.483   0.631 -0.1268 -1.5549  0.3914
  323TIP3    H222529   3.220   0.564   0.756  0.5671  0.8551 -1.2733
  324TIP3   OH222530   0.367   5.802   7.439 -0.1590  0.0484 -0.0417
  324TIP3    H122531   0.454   5.800   7.400  0.6300  1.4067  1.5117
  324TIP3    H222532   0.313   5.851   7.377  0.6345  0.6719 -0.2554
  325TIP3   OH222533   6.721   5.666   1.314 -0.3722 -0.1176  0.6589
  325TIP3    H122534   6.779   5.632   1.246 -1.0028 -2.5176  1.2266
  325TIP3    H222535   6.636   5.677   1.271 -0.4711 -0.4654  0.7617
  326TIP3   OH222536   3.601   2.358   7.648 -0.4055  0.1177 -0.3806
  326TIP3    H122537   3.667   2.298   7.611  0.5998  0.9790 -0.0189
  326TIP3    H222538   3.626   2.444   7.614 -1.3120  0.4686 -0.1729
  327TIP3   OH222539   2.098   4.586   8.612 -0.0457 -0.5237  0.0208
  327TIP3    H122540   2.064   4.586   8.702  1.6129  0.9622  0.7064
  327TIP3    H222541   2.190   4.613   8.621  0.3318 -0.9430 -2.0752
  328TIP3   OH222542   5.172   5.660   1.706 -0.3395 -0.3595  0.4639
  328TIP3    H122543   5.249   5.663   1.650 -1.2052  2.1302 -0.7387
  328TIP3    H222544   5.099   5.683   1.649 -1.4471  0.9879  2.3060
  329TIP3   OH222545   2.488   5.484   7.069 -0.4684 -0.6037 -0.3809
  329TIP3    H122546   2.567   5.538   7.063 -1.0299  0.4791  1.3875
  329TIP3    H222547   2.420   5.535   7.025 -0.4139 -1.1453 -1.1289
  330TIP3   OH222548   5.902   3.365   7.771 -0.1686 -0.3228  0.0950
  330TIP3    H122549   5.929   3.332   7.857  0.4966 -0.6021 -0.2159
  330TIP3    H222550   5.876   3.287   7.722  2.0769 -0.5336 -0.8859
  331TIP3   OH222551   0.430   2.473   8.093  0.1979  0.0037 -0.3238
  331TIP3    H122552   0.387   2.390   8.115  0.9942 -0.7062 -1.3510
  331TIP3    H222553   0.511   2.472   8.144 -0.9937  1.4216  1.7512
  332TIP3   OH222554   1.945   2.388   8.874  0.2831 -0.4494  0.3942
  332TIP3    H122555   2.009   2.354   8.937 -0.2127 -1.3307  0.4311
  332TIP3    H222556   1.862   2.351   8.902  0.2058 -1.7579 -1.4155
  333TIP3   OH222557   0.898   6.217   1.920 -0.3299  0.2703  0.2256
  333TIP3    H122558   0.842   6.294   1.932  1.3681  1.4463  0.9830
  333TIP3    H222559   0.944   6.233   1.837  0.3224  0.2780  0.5813
  334TIP3   OH222560   1.528   1.368   8.174 -0.5244 -0.3624  0.7154
  334TIP3    H122561   1.621   1.391   8.177 -0.8667  1.0832  1.7665
  334TIP3    H222562   1.484   1.452   8.159 -1.6140 -1.2026 -0.9955
  335TIP3   OH222563   5.752   6.621   8.169 -0.5908 -0.4238  0.2206
  335TIP3    H122564   5.793   6.572   8.098 -0.2703 -0.3789  0.3751
  335TIP3    H222565   5.693   6.558   8.211 -1.4121 -0.2270 -0.5977
  336TIP3   OH222566   3.628   5.741   0.086 -0.0805  0.5717  0.3241
  336TIP3    H122567   3.557   5.805   0.089 -1.9122 -1.2687 -1.0014
  336TIP3    H222568   3.656   5.740  -0.006 -0.9611 -1.3355  0.0258
  337TIP3   OH222569   2.474   3.980   7.236  0.3186 -0.5424  0.4167
  337TIP3    H122570   2.440   3.994   7.148  0.2016 -0.6719  0.4396
  337TIP3    H222571   2.553   4.033   7.241 -0.5462  0.7500  0.7652
  338TIP3   OH222572   1.678   3.998   8.810 -0.1466 -0.3446 -0.2071
  338TIP3    H122573   1.608   3.982   8.747 -1.2609 -2.0648  1.3698
  338TIP3    H222574   1.729   3.917   8.811  0.7640  0.2028  0.0524
  339TIP3   OH222575   5.638   3.375   1.323 -0.1457  0.4441 -0.2462
  339TIP3    H122576   5.714   3.416   1.281 -0.7741  0.4569 -1.3927
  339TIP3    H222577   5.587   3.338   1.251 -0.6977 -0.4945  0.5958
  340TIP3   OH222578   4.592   4.691   6.835  0.1819 -0.0868 -0.0433
  340TIP3    H122579   4.596   4.613   6.780 -1.3844 -0.9542  0.9872
  340TIP3    H222580   4.542   4.755   6.785 -0.4544 -0.5498 -0.0021
  341TIP3   OH222581   5.949   6.791   8.401 -0.1470  0.1199  0.5832
  341TIP3    H122582   5.928   6.729   8.331 -3.6721  0.4441  1.2029
  341TIP3    H222583   6.004   6.741   8.461 -0.2726 -1.3815 -0.4987
  342TIP3   OH222584   0.134   2.974   7.291 -0.3499  0.2794 -0.0587
  342TIP3    H122585   0.162   3.029   7.365  1.1870 -0.6024  0.0446
  342TIP3    H222586   0.093   3.036   7.230  1.0235  1.4917  0.1947
  343TIP3   OH222587   0.776   3.332   2.299  0.1400 -0.1157 -0.1045
  343TIP3    H122588   0.830   3.398   2.255 -1.0672  1.8123  1.1298
  343TIP3    H222589   0.803   3.338   2.391  0.6357 -2.0492 -0.0792
  344TIP3   OH222590   1.894   2.171   1.371 -0.2311 -0.1576  0.1052
  344TIP3    H122591   1.811   2.213   1.346 -0.6623 -0.3483  1.1426
  344TIP3    H222592   1.928   2.225   1.441  0.5031 -0.1220 -0.2687
  345TIP3   OH222593   1.361   0.288   8.161  0.4924  0.0542  0.0654
  345TIP3    H122594   1.367   0.194   8.142 -0.0399  0.1174 -0.4321
  345TIP3    H222595   1.334   0.328   8.078  1.1275  0.7004  0.1644
  346TIP3   OH222596   0.485   2.470   7.662 -0.6824 -0.5574 -0.3383
  346TIP3    H122597   0.520   2.412   7.729 -1.3035  0.0010  0.4946
  346TIP3    H222598   0.396   2.491   7.692 -0.1478  1.5940 -0.0603
  347TIP3   OH222599   1.863   4.640   8.200  0.0321  0.0772 -0.4101
  347TIP3    H122600   1.853   4.715   8.259 -2.6266  1.6578 -2.5580
  347TIP3    H222601   1.788   4.584   8.219  0.0968 -0.2625 -1.1007
  348TIP3   OH222602   1.696   0.767   0.140 -0.1241 -0.1717 -0.2955
  348TIP3    H122603   1.614   0.719   0.123 -0.6153  1.3792 -2.6499
  348TIP3    H222604   1.668   0.858   0.152  1.1966  0.2285 -0.1578
  349TIP3   OH222605   1.855   4.427   0.880 -0.0682  0.3191  0.2989
  349TIP3    H122606   1.806   4.492   0.830 -1.1485 -1.3243 -0.8938
  349TIP3    H222607   1.838   4.449   0.972 -2.6194  0.1813 -0.0599
  350TIP3   OH222608   4.872   5.197   8.404 -0.5691  0.0919  0.0367
  350TIP3    H122609   4.832   5.183   8.319 -1.5760 -2.0709  0.8166
  350TIP3    H222610   4.966   5.184   8.389 -0.7562 -0.4434 -0.6926
  351TIP3   OH222611   1.321   3.101   2.271  0.0514 -0.5746  0.1592
  351TIP3    H122612   1.373   3.176   2.299 -0.1896 -0.9513  1.7491
  351TIP3    H222613   1.260   3.087   2.343 -0.8658 -1.4198 -0.7544
  352TIP3   OH222614   1.800   4.592   0.182 -0.3277  0.2970 -0.1921
  352TIP3    H122615   1.806   4.511   0.233  2.3439  1.3826  1.4248
  352TIP3    H222616   1.730   4.641   0.225 -0.6868 -0.3702  0.0032
  353TIP3   OH222617   5.486   2.423   8.049 -0.0764  0.3627  0.4250
  353TIP3    H122618   5.524   2.356   7.992  0.6431 -0.1008  1.4142
  353TIP3    H222619   5.411   2.381   8.090 -0.8345  0.8215 -0.4357
  354TIP3   OH222620   1.528   6.541   1.230  0.5734  0.4131 -0.5439
  354TIP3    H122621   1.492   6.619   1.188 -0.0590 -0.1262 -1.0199
  354TIP3    H222622   1.575   6.574   1.307 -0.6683  1.1573 -0.0885
  355TIP3   OH222623   0.833   2.278   8.253 -0.2494  0.1411  0.5469
  355TIP3    H122624   0.831   2.348   8.188  1.2111 -0.4523 -0.1956
  355TIP3    H222625   0.782   2.207   8.214  0.4246 -0.1273  0.1422
  356TIP3   OH222626   4.217   6.156   1.027 -0.2233  0.8496 -0.8017
  356TIP3    H122627   4.291   6.096   1.023 -1.0289 -0.1277 -2.0249
  356TIP3    H222628   4.177   6.139   1.112 -1.3327 -1.5271 -1.7035
  357TIP3   OH222629   2.028   5.785   6.614  0.3048  0.4367  0.0391
  357TIP3    H122630   1.942   5.758   6.581  0.4239  0.2030 -0.0801
  357TIP3    H222631   2.090   5.731   6.565  0.4592 -0.2351  0.9481
  358TIP3   OH222632   5.700   2.619   0.502 -0.0019 -0.4416 -0.0840
  358TIP3    H122633   5.719   2.683   0.571  2.6761 -0.6188 -0.5553
  358TIP3    H222634   5.631   2.660   0.449 -0.2130  0.8511  1.1381
  359TIP3   OH222635   1.618   0.374   0.016 -0.3375  0.6719 -0.0829
  359TIP3    H122636   1.682   0.375  -0.055 -0.1062 -1.6719 -0.0004
  359TIP3    H222637   1.560   0.448  -0.003  0.2903  0.6959 -2.1751
  360TIP3   OH222638   3.530   1.995   1.678 -0.9661 -0.1197  0.0170
  360TIP3    H122639   3.502   2.036   1.760 -1.1673  1.2470 -0.6982
  360TIP3    H222640   3.449   1.985   1.628 -0.6503  0.5449 -0.6437
  361TIP3   OH222641   2.827   2.985   0.464 -0.1260 -0.0735  0.0957
  361TIP3    H122642   2.850   2.896   0.436 -0.3950  0.2064 -1.0929
  361TIP3    H222643   2.758   3.012   0.403  0.8741  1.4400 -0.4174
  362TIP3   OH222644   0.000   2.361   7.038 -0.0154 -0.1473  0.6791
  362TIP3    H122645  -0.032   2.271   7.050  0.8467 -0.4394  0.8413
  362TIP3    H222646   0.023   2.390   7.126  2.1458 -0.7130  0.3542
  363TIP3   OH222647   1.347   5.991   1.729  0.0476  0.1356 -0.2599
  363TIP3    H122648   1.387   5.904   1.727  1.5046  0.7669 -0.1460
  363TIP3    H222649   1.264   5.979   1.775 -1.2012 -1.7189 -2.7725
  364TIP3   OH222650   3.727   5.202   1.866 -0.0218 -0.4668  0.3858
  364TIP3    H122651   3.702   5.222   1.956 -0.7958  0.2953  0.0204
  364TIP3    H222652   3.806   5.148   1.874  0.0886 -0.1629  1.5050
  365TIP3   OH222653   2.681   4.419   0.690 -0.1228 -0.3618  0.9540
  365TIP3    H122654   2.673   4.426   0.595 -0.3812 -0.7464  0.9454
  365TIP3    H222655   2.603   4.461   0.725 -0.3481 -0.7930  0.9760
  366TIP3   OH222656   5.726   5.214   8.753 -0.0248 -0.1186  0.2467
  366TIP3    H122657   5.703   5.307   8.758 -1.0465 -0.4007  3.7258
  366TIP3    H222658   5.690   5.185   8.670 -0.8511  2.3126 -0.3306
  367TIP3   OH222659   4.343   1.554   8.444 -0.1217 -0.1788  0.0917
  367TIP3    H122660   4.303   1.535   8.359  1.4363 -0.9134 -0.5267
  367TIP3    H222661   4.432   1.520   8.436 -0.0900 -0.7183  2.2077
  368TIP3   OH222662   3.819   6.120   8.131  0.3915  0.1660 -0.1360
  368TIP3    H122663   3.904   6.086   8.161  0.6500  0.2804 -0.7212
  368TIP3    H222664   3.842   6.191   8.072 -0.1034 -0.2686 -0.8611
  369TIP3   OH222665   2.164   2.696   2.636 -0.1708  0.4453  0.0026
  369TIP3    H122666   2.082   2.656   2.608  0.3589 -1.9095  1.4875
  369TIP3    H222667   2.232   2.645   2.591  0.5101  1.1499  0.2131
  370TIP3   OH222668   2.765   1.546   1.159 -0.1605 -0.6269 -0.0792
  370TIP3    H122669   2.706   1.490   1.110 -0.4135  0.4740 -1.0835
  370TIP3    H222670   2.752   1.522   1.250 -0.9368 -1.5368 -0.4217
  371TIP3   OH222671   3.492   4.774   7.645  0.4076  0.2024  0.0460
  371TIP3    H122672   3.442   4.692   7.644  1.9362 -0.7745  0.9057
  371TIP3    H222673   3.552   4.765   7.719  1.8177  1.3664 -0.9078
  372TIP3   OH222674   4.284   4.981   8.719  0.1564  0.5045 -0.8334
  372TIP3    H122675   4.293   5.045   8.790  1.6948 -1.5540  0.9881
  372TIP3    H222676   4.352   5.005   8.656  1.5158  0.0585  0.4039
  373TIP3   OH222677   5.546   2.154   8.302  0.3947  0.5366 -0.0793
  373TIP3    H122678   5.633   2.171   8.340  0.6607  1.7189 -1.1628
  373TIP3    H222679   5.563   2.138   8.210 -0.3452 -1.3690  0.0703
  374TIP3   OH222680   6.405   4.992   7.954  0.8614 -0.7268 -0.5539
  374TIP3    H122681   6.343   4.935   7.909  1.0060 -1.3181 -0.0173
  374TIP3    H222682   6.351   5.060   7.995  0.5837 -1.1350 -0.2390
  375TIP3   OH222683   5.916   1.456   2.781 -0.0228 -0.5405 -0.6823
  375TIP3    H122684   5.867   1.380   2.812  0.1521  0.4174  2.3295
  375TIP3    H222685   6.000   1.421   2.751  0.1743 -1.5506  0.9416
  376TIP3   OH222686   2.051   6.389   0.584  0.3820 -0.3914 -0.6992
  376TIP3    H122687   2.032   6.445   0.509  1.4986  0.1275 -0.6195
  376TIP3    H222688   2.086   6.309   0.544 -0.8176 -0.8877 -0.7945
  377TIP3   OH222689   4.991   3.148   6.505 -0.3788 -0.2774 -0.3024
  377TIP3    H122690   5.016   3.058   6.529  1.6285  0.1679 -0.5799
  377TIP3    H222691   4.939   3.138   6.425 -2.0555 -1.3106  0.8305
  378TIP3   OH222692   0.187   1.991   7.972 -0.3182 -0.6910  0.1802
  378TIP3    H122693   0.095   2.017   7.977  0.2342  3.5991 -4.5797
  378TIP3    H222694   0.234   2.065   8.008  1.2735 -0.7437 -1.6622
  379TIP3   OH222695   6.305   6.386   0.010 -0.1703 -0.0842  0.4206
  379TIP3    H122696   6.387   6.435   0.014 -0.3272  0.0894  1.8556
  379TIP3    H222697   6.299   6.342   0.095 -0.5303 -1.8083 -0.4460
  380TIP3   OH222698   4.394   1.812   7.931  0.3797 -0.4843  0.5261
  380TIP3    H122699   4.430   1.788   7.846  3.4547 -0.9934  1.8530
  380TIP3    H222700   4.299   1.799   7.922  0.5900 -0.4037 -2.7900
  381TIP3   OH222701   1.763   1.199   7.730  0.9573  0.0726  0.4196
  381TIP3    H122702   1.691   1.257   7.752  1.6441  1.4434 -0.8098
  381TIP3    H222703   1.780   1.151   7.811 -1.7907 -0.8563  0.5174
  382TIP3   OH222704   6.361   1.183   1.094 -0.0268  0.0039  0.1429
  382TIP3    H122705   6.284   1.128   1.104  0.1975 -0.0067  2.1859
  382TIP3    H222706   6.346   1.229   1.011 -2.1049 -0.1945  0.3376
  383TIP3   OH222707   4.226   2.908   8.645  0.4493  0.0977  0.2054
  383TIP3    H122708   4.199   2.846   8.712  0.8199 -1.7525 -1.2659
  383TIP3    H222709   4.211   2.862   8.562  1.3008  1.7589 -0.9351
  384TIP3   OH222710   6.563   1.865   8.553 -0.1260 -0.2166 -0.1777
  384TIP3    H122711   6.484   1.905   8.515 -0.4627 -0.1568  0.5572
  384TIP3    H222712   6.582   1.790   8.496 -1.0936 -0.6069 -0.0105
  385TIP3   OH222713   2.873   6.436   7.023  0.2417 -0.1814  0.0220
  385TIP3    H122714   2.880   6.445   6.928  0.3534 -0.6397 -0.0137
  385TIP3    H222715   2.962   6.451   7.055  0.8623 -2.9959 -0.1936
  386TIP3   OH222716   2.222   6.186   7.263  0.5788  0.4097 -0.0205
  386TIP3    H122717   2.309   6.188   7.304  1.4689 -0.2082 -1.7824
  386TIP3    H222718   2.228   6.116   7.198 -0.8433  1.1943 -1.0432
  387TIP3   OH222719   4.328   6.187   1.730  0.1041  0.5300 -0.5399
  387TIP3    H122720   4.415   6.204   1.694 -0.3951  1.5104 -1.3221
  387TIP3    H222721   4.305   6.101   1.696  0.4230  0.6354 -1.0406
  388TIP3   OH222722   4.283   1.382   2.117  0.1600 -0.7624 -0.4874
  388TIP3    H122723   4.330   1.459   2.149  1.6448 -1.6508 -0.4452
  388TIP3    H222724   4.292   1.386   2.022  0.8575 -1.2584 -0.4442
  389TIP3   OH222725   2.595   1.767   8.505 -0.1198 -0.1460  0.0657
  389TIP3    H122726   2.599   1.693   8.443  0.8628 -0.4511  0.4783
  389TIP3    H222727   2.658   1.830   8.471 -0.6380  0.3284 -0.0374
  390TIP3   OH222728   5.565   6.438   1.417  0.7536  0.1200  0.0343
  390TIP3    H122729   5.596   6.521   1.451  1.2188 -0.0601  0.0558
  390TIP3    H222730   5.472   6.436   1.438  0.3828  1.3206 -1.3420
  391TIP3   OH222731   5.447   6.314   8.832 -0.6225  0.2090  0.3261
  391TIP3    H122732   5.410   6.307   8.743  3.9285 -2.4626 -1.7573
  391TIP3    H222733   5.407   6.241   8.880  1.3059 -2.3971 -1.7253
  392TIP3   OH222734   1.109   6.103   7.888  0.3240 -0.2224  0.3159
  392TIP3    H122735   1.031   6.147   7.854 -0.2048 -1.1412  0.2966
  392TIP3    H222736   1.135   6.154   7.964  0.1916  0.5636 -0.1537
  393TIP3   OH222737   4.129   0.628   1.128 -0.3919  0.0877 -0.3305
  393TIP3    H122738   4.061   0.567   1.100  0.4294 -0.3496 -1.4616
  393TIP3    H222739   4.171   0.657   1.047  0.1656  1.0658  0.2783
  394TIP3   OH222740   6.361   2.124   2.999 -0.4522  0.5745  0.5233
  394TIP3    H122741   6.321   2.165   3.076 -0.9086  0.7984  0.1689
  394TIP3    H222742   6.296   2.061   2.969 -0.5332  0.9302 -0.0477
  395TIP3   OH222743   2.705   2.188   0.237  0.3473  0.0041 -0.6234
  395TIP3    H122744   2.785   2.143   0.266  0.5778  1.2379  0.7476
  395TIP3    H222745   2.699   2.167   0.144  2.8063  0.6148 -0.9856
  396TIP3   OH222746   0.391   3.406   8.147  0.2541 -0.1859  0.0624
  396TIP3    H122747   0.333   3.481   8.158 -1.0675 -0.7063 -2.6834
  396TIP3    H222748   0.393   3.390   8.053  4.5083 -0.5391  0.0237
  397TIP3   OH222749   1.085   0.615   1.379  0.7260 -0.1017  0.1927
  397TIP3    H122750   1.146   0.596   1.308  1.2106  0.3016  0.4993
  397TIP3    H222751   1.137   0.659   1.446  0.1707 -0.0322  0.5924
  398TIP3   OH222752   4.464   0.022   1.571  0.4027  0.4139 -0.3873
  398TIP3    H122753   4.385   0.033   1.518  0.2602 -2.2520 -0.8989
  398TIP3    H222754   4.471  -0.073   1.583  2.6752  0.6833  0.9783
  399TIP3   OH222755   3.679   3.947   7.864  0.0686 -0.1873 -0.0520
  399TIP3    H122756   3.766   3.963   7.900  0.3666 -1.5301 -0.1165
  399TIP3    H222757   3.618   3.986   7.927  0.7178  1.2851 -0.3007
  400TIP3   OH222758   4.685   4.932   1.389  0.1965 -0.0668  0.1555
  400TIP3    H122759   4.755   4.896   1.335  0.5639 -0.2305  0.7243
  400TIP3    H222760   4.729   4.957   1.471 -0.0919  1.4732 -0.1342
  401TIP3   OH222761   2.087   0.578   7.340 -0.3620  0.4976 -0.4388
  401TIP3    H122762   2.006   0.534   7.315 -0.0178  0.2848 -1.2269
  401TIP3    H222763   2.099   0.646   7.274  1.0383 -0.6526 -1.4250
  402TIP3   OH222764   4.625   6.492   1.400  0.4171  0.6338 -0.0870
  402TIP3    H122765   4.691   6.437   1.357 -2.6112 -2.0025 -1.7652
  402TIP3    H222766   4.600   6.555   1.334  0.7419  1.1853  0.3101
  403TIP3   OH222767   0.157   1.552   1.845  0.6703  0.4259 -0.1872
  403TIP3    H122768   0.090   1.554   1.913  1.1718  0.9833  0.3055
  403TIP3    H222769   0.146   1.467   1.802 -0.6403  0.6919 -0.4201
  404TIP3   OH222770   0.600   0.128   7.962  0.1561  0.2260  0.6995
  404TIP3    H122771   0.640   0.103   8.046  1.5721  0.0171 -0.0032
  404TIP3    H222772   0.615   0.053   7.905  0.1460  0.7788 -0.0410
  405TIP3   OH222773   5.140   5.183   0.665 -0.1850 -0.3173  0.0766
  405TIP3    H122774   5.166   5.271   0.692 -0.7813  0.6259 -2.2169
  405TIP3    H222775   5.219   5.145   0.627 -0.5456  0.2930 -1.3783
  406TIP3   OH222776   5.539   1.687   7.629  0.2285  0.8687 -0.0570
  406TIP3    H122777   5.516   1.658   7.541 -0.0779  0.6555  0.0921
  406TIP3    H222778   5.540   1.606   7.681  3.0690  0.5612 -0.4149
  407TIP3   OH222779   1.769   5.556   6.899  0.3655 -0.3601  0.4670
  407TIP3    H122780   1.737   5.471   6.867 -0.4256  0.1815 -0.2436
  407TIP3    H222781   1.863   5.555   6.881 -0.0451 -0.0310 -2.1375
  408TIP3   OH222782   6.329   5.076   0.134  0.5511  0.1632  0.0678
  408TIP3    H122783   6.376   4.993   0.125  1.7293  0.5812  1.8934
  408TIP3    H222784   6.299   5.096   0.045  0.7891 -1.8790 -0.5283
  409TIP3   OH222785   6.090   1.739   0.079 -0.5500 -0.7748  0.4517
  409TIP3    H122786   6.029   1.694   0.137 -0.2389 -1.1248  0.5175
  409TIP3    H222787   6.061   1.830   0.079 -0.8292 -0.8610  0.7932
  410TIP3   OH222788   5.224   0.097   2.071 -0.4397  0.2391 -0.2690
  410TIP3    H122789   5.245   0.006   2.052 -1.3202  0.2543 -1.4719
  410TIP3    H222790   5.299   0.147   2.037 -0.3562  0.0208 -0.4058
  411TIP3   OH222791   0.488   1.945   8.831  0.8953 -0.0292 -0.0630
  411TIP3    H122792   0.553   1.908   8.890 -0.0048  0.6200  1.3915
  411TIP3    H222793   0.417   1.881   8.828  0.7815  0.0984 -0.1571
  412TIP3   OH222794   2.391   4.459   7.506 -0.4236 -0.0245  0.5602
  412TIP3    H122795   2.382   4.404   7.428 -0.7195 -1.4771  1.5791
  412TIP3    H222796   2.378   4.548   7.474  0.7583 -0.4504 -1.2784
  413TIP3   OH222797   3.333   4.950   8.676  0.3470 -0.2684 -0.1041
  413TIP3    H122798   3.260   5.011   8.667  0.7097  0.3463  0.9866
  413TIP3    H222799   3.365   4.938   8.587  0.4217  1.3211 -0.3202
  414TIP3   OH222800   6.525   2.614   1.170  0.8679 -0.6448  0.4700
  414TIP3    H122801   6.506   2.636   1.261  1.0146 -1.9556  0.8364
  414TIP3    H222802   6.584   2.683   1.140  0.2193  0.2140  1.1276
  415TIP3   OH222803   1.414   2.070   7.207  0.5086 -0.5790  0.2332
  415TIP3    H122804   1.344   2.004   7.203 -1.3662  1.3136 -0.0660
  415TIP3    H222805   1.469   2.041   7.280 -1.2825 -1.5334  1.3000
  416TIP3   OH222806   0.272   6.720   0.456 -0.6282 -0.4757 -0.4891
  416TIP3    H122807   0.277   6.811   0.428  1.1263 -0.9357 -1.8287
  416TIP3    H222808   0.299   6.722   0.548 -1.9206  0.4814 -0.1031
  417TIP3   OH222809   6.302   1.430   8.573 -0.0859 -0.5596 -0.2469
  417TIP3    H122810   6.260   1.477   8.501  0.6464 -1.9136 -1.6179
  417TIP3    H222811   6.387   1.402   8.538  0.6047 -0.6602  1.3875
  418TIP3   OH222812   1.335   5.167   1.574 -0.5485  0.3480  0.8580
  418TIP3    H122813   1.337   5.099   1.506 -0.1750  0.3273  0.8911
  418TIP3    H222814   1.245   5.199   1.572 -1.3060 -1.5147  2.2075
  419TIP3   OH222815   6.733   5.457   7.094 -0.4327  0.2191 -0.1310
  419TIP3    H122816   6.810   5.491   7.047 -0.5752 -0.4422 -0.8565
  419TIP3    H222817   6.680   5.535   7.111 -1.1238  0.3360 -2.4487
  420TIP3   OH222818   5.635   5.894   1.239  0.6649  0.1817 -0.3674
  420TIP3    H122819   5.582   5.974   1.237  0.3786  0.0195  0.4056
  420TIP3    H222820   5.572   5.824   1.252  0.9263 -0.1744 -0.9533
  421TIP3   OH222821   5.018   0.122   6.872 -0.2355  0.0158 -0.1230
  421TIP3    H122822   4.982   0.157   6.790  0.3718  2.9054  0.7277
  421TIP3    H222823   4.970   0.169   6.940  0.8900 -0.6015  1.1205
  422TIP3   OH222824   6.578   2.084   7.380  0.2544  0.4085  0.1036
  422TIP3    H122825   6.599   2.131   7.299  0.8890 -0.3375 -0.1755
  422TIP3    H222826   6.482   2.086   7.384  0.1249 -0.8366 -1.4656
  423TIP3   OH222827   1.859   5.429   1.243  0.4824  0.4923 -0.3900
  423TIP3    H122828   1.909   5.376   1.304 -0.1894 -1.2395 -1.2667
  423TIP3    H222829   1.832   5.368   1.174 -1.1659  1.7595 -0.9554
  424TIP3   OH222830   6.298   5.349   2.213  0.3690  0.4962 -0.4264
  424TIP3    H122831   6.287   5.358   2.308 -0.2742 -0.1227 -0.4350
  424TIP3    H222832   6.309   5.439   2.182  0.1683  0.7397  0.1914
  425TIP3   OH222833   6.069   6.064   1.275  0.2408 -0.3118 -0.0650
  425TIP3    H122834   6.105   6.130   1.335  0.6151  0.5905 -1.2532
  425TIP3    H222835   6.119   5.985   1.295  0.7804  0.1308  0.4059
  426TIP3   OH222836   1.132   0.108   7.362  0.5553 -0.2512 -0.0605
  426TIP3    H122837   1.172   0.033   7.408 -0.9695 -0.2907  1.3062
  426TIP3    H222838   1.167   0.185   7.407  0.8589 -0.1976 -0.3855
  427TIP3   OH222839   2.562   6.425   1.975 -0.2616 -0.5257 -0.1426
  427TIP3    H122840   2.493   6.476   2.018  0.8649  0.3855  0.6494
  427TIP3    H222841   2.540   6.334   1.995 -0.5482 -0.1930  1.1953
  428TIP3   OH222842   3.499   0.365   0.692 -0.5087  0.1175 -0.0874
  428TIP3    H122843   3.438   0.345   0.621 -0.2629 -0.6856 -0.0832
  428TIP3    H222844   3.473   0.306   0.763 -0.3619  0.4743  0.2630
  429TIP3   OH222845   6.014   1.940   8.103 -0.0275 -0.2476  0.2638
  429TIP3    H122846   6.017   2.009   8.169  3.0316 -0.0715  0.0804
  429TIP3    H222847   6.101   1.900   8.106 -0.5589 -1.7905 -2.0687
  430TIP3   OH222848   0.142   3.170   2.057 -0.2725  0.8457  0.3568
  430TIP3    H122849   0.094   3.252   2.073  1.1582  1.5137  1.5432
  430TIP3    H222850   0.178   3.147   2.143 -0.5109 -0.9723  0.0111
  431TIP3   OH222851   6.222   1.926   7.886 -0.3040 -0.0794  0.8689
  431TIP3    H122852   6.249   1.872   7.961 -3.0728 -2.0312  0.6006
  431TIP3    H222853   6.280   1.898   7.815 -0.0895 -0.9297  1.3624
  432TIP3   OH222854   5.708   0.197   1.488 -0.6673 -0.0986 -0.5970
  432TIP3    H122855   5.654   0.245   1.551 -0.6045  0.0985 -0.6927
  432TIP3    H222856   5.662   0.206   1.405  0.1234  1.0865 -0.9270
  433TIP3   OH222857   1.224   6.186   8.509  0.0306 -0.0646  0.0473
  433TIP3    H122858   1.284   6.243   8.461 -1.0392  1.6495  0.6431
  433TIP3    H222859   1.275   6.107   8.527  1.5971  0.7132 -0.7818
  434TIP3   OH222860   2.047   2.041   8.016  0.2244 -0.2065  0.2118
  434TIP3    H122861   2.033   1.950   8.042  1.4609 -0.1625  1.1613
  434TIP3    H222862   2.070   2.085   8.098  0.3609  0.8026 -0.3604
  435TIP3   OH222863   2.988   4.977   8.400  0.2128 -0.0206 -0.0597
  435TIP3    H122864   2.996   4.983   8.496 -0.6210 -0.6146  0.0649
  435TIP3    H222865   3.077   4.968   8.369  0.4505 -0.4891  0.7194
  436TIP3   OH222866   3.739   0.767   8.666  0.1551  0.0471 -0.1500
  436TIP3    H122867   3.723   0.702   8.597  0.4808 -0.2992  0.1023
  436TIP3    H222868   3.824   0.743   8.702 -0.1416  0.0667  0.5631
  437TIP3   OH222869   1.112   4.364   7.906  0.4033  0.3285 -1.1085
  437TIP3    H122870   1.098   4.439   7.963 -3.5975  0.1578 -1.5777
  437TIP3    H222871   1.127   4.401   7.819 -1.7428  0.7056 -1.3750
  438TIP3   OH222872   1.633   2.626   1.998  0.6528 -0.0156 -0.5626
  438TIP3    H122873   1.686   2.649   2.075  0.8855  1.3809 -1.1043
  438TIP3    H222874   1.550   2.596   2.035  0.3653  1.6509  0.2596
  439TIP3   OH222875   3.096   4.236   6.978  0.3166 -0.2771  0.0292
  439TIP3    H122876   3.007   4.249   6.944 -0.0180  0.4649  1.1140
  439TIP3    H222877   3.138   4.179   6.914 -0.3866  0.7375 -1.3951
  440TIP3   OH222878   2.433   0.456   1.603  0.3669 -0.2541 -0.3407
  440TIP3    H122879   2.520   0.428   1.574  0.1459 -1.1385 -0.1607
  440TIP3    H222880   2.450   0.520   1.672  0.8775 -0.2687 -0.4524
  441TIP3   OH222881   4.072   5.606   7.529 -0.5287 -0.2292 -0.1458
  441TIP3    H122882   3.993   5.645   7.491 -0.8947  0.4636  1.2469
  441TIP3    H222883   4.140   5.673   7.518 -0.2703 -0.6020 -0.8468
  442TIP3   OH222884   1.241   0.153   8.646  0.6229  0.1175  0.2970
  442TIP3    H122885   1.150   0.177   8.631  0.6704 -0.1747 -0.4522
  442TIP3    H222886   1.240   0.105   8.729 -0.1442 -1.3020 -0.5086
  443TIP3   OH222887   1.506   5.314   0.349 -0.2874 -0.9497  0.0154
  443TIP3    H122888   1.534   5.258   0.422  0.4850 -1.1469 -0.4200
  443TIP3    H222889   1.479   5.396   0.390  0.6724 -0.8539  0.4855
  444TIP3   OH222890   6.592   1.059   0.979  0.1737  0.0292 -0.0377
  444TIP3    H122891   6.618   1.149   0.961  0.6211  0.1276  1.0614
  444TIP3    H222892   6.525   1.066   1.047 -0.1406 -0.4485 -0.2869
  445TIP3   OH222893   1.856   0.561   2.026  0.0579 -0.1204  0.5153
  445TIP3    H122894   1.790   0.507   2.068  0.6261 -0.6142  0.7876
  445TIP3    H222895   1.880   0.625   2.093 -1.5421  1.3342 -0.2205
  446TIP3   OH222896   3.986   1.344   8.373  0.3355  0.2538  0.1772
  446TIP3    H122897   3.915   1.372   8.431  0.6886  0.3213  0.5767
  446TIP3    H222898   3.996   1.415   8.310  0.3272  0.4223  0.3693
  447TIP3   OH222899   3.840   3.653   0.889 -0.1597  0.0315  0.1380
  447TIP3    H122900   3.811   3.598   0.962 -0.6603  0.6635  0.4175
  447TIP3    H222901   3.874   3.732   0.931 -0.8165  0.5640 -0.3336
  448TIP3   OH222902   2.463   4.803   7.711  0.5593  0.2909 -0.2047
  448TIP3    H122903   2.519   4.881   7.718 -0.8552  1.2721  0.7191
  448TIP3    H222904   2.468   4.763   7.797  1.6934 -0.9901 -0.8267
  449TIP3   OH222905   0.988   1.471   7.249  0.0908 -0.4030 -0.2771
  449TIP3    H122906   0.981   1.378   7.228  2.6867 -0.5235 -1.0160
  449TIP3    H222907   1.062   1.476   7.310  1.0678  1.2972 -1.4914
  450TIP3   OH222908   3.394   6.587   1.865  0.2033  0.6863  0.5318
  450TIP3    H122909   3.364   6.547   1.946  0.6680  1.2756  0.9986
  450TIP3    H222910   3.356   6.674   1.865  1.1151  1.0935  0.6644
  451TIP3   OH222911   1.409   4.612   1.241  0.0398 -0.1585  0.1967
  451TIP3    H122912   1.407   4.573   1.329  1.7417  1.0958  0.8543
  451TIP3    H222913   1.456   4.695   1.253  1.5046 -0.5753 -2.1130
  452TIP3   OH222914   6.442   4.697   2.048 -0.1180 -0.0809  0.4249
  452TIP3    H122915   6.502   4.652   1.989  0.2062  0.6234  0.2092
  452TIP3    H222916   6.357   4.658   2.030 -0.1323  0.5055 -0.9340
  453TIP3   OH222917   2.228   4.336   7.688 -0.5205 -0.1893  0.6700
  453TIP3    H122918   2.287   4.360   7.616 -1.6544  2.5207  0.5468
  453TIP3    H222919   2.287   4.318   7.761  0.5543  2.0496  0.4455
  454TIP3   OH222920   2.674   5.925   0.199 -0.2126  0.4184 -0.8451
  454TIP3    H122921   2.754   5.878   0.178 -0.2599 -1.0685  1.8062
  454TIP3    H222922   2.603   5.864   0.180 -0.4767  0.4915 -0.1486
  455TIP3   OH222923   2.796   6.524   1.579 -0.2891 -0.1622  0.5478
  455TIP3    H122924   2.710   6.491   1.552 -0.2560 -2.6133  2.9975
  455TIP3    H222925   2.778   6.571   1.661  0.7615 -1.4455  1.5511
  456TIP3   OH222926   1.067   4.592   8.065 -0.5513 -0.6011  0.0230
  456TIP3    H122927   1.112   4.596   8.150  0.3149 -1.4456 -0.3673
  456TIP3    H222928   0.977   4.569   8.087 -0.3224 -0.8842  0.7132
  457TIP3   OH222929   1.473   2.135   7.738  0.0510  0.3377  0.5006
  457TIP3    H122930   1.403   2.174   7.791 -0.0808  0.8697 -0.0498
  457TIP3    H222931   1.553   2.175   7.771  0.1346 -0.4502  1.2937
  458TIP3   OH222932   6.129   1.298   2.705 -0.3665  0.3133 -0.2798
  458TIP3    H122933   6.222   1.297   2.728 -0.7845 -0.2191  1.5354
  458TIP3    H222934   6.109   1.207   2.682 -0.6829  0.2030  0.4208
  459TIP3   OH222935   0.043   4.253   0.456 -0.2327 -0.7234  0.3652
  459TIP3    H122936   0.053   4.205   0.538  0.1020  1.6713  1.8170
  459TIP3    H222937  -0.049   4.241   0.433 -0.1706 -2.0010  0.6633
  460TIP3   OH222938   0.606   4.240   7.815  0.1454  0.1362 -0.2252
  460TIP3    H122939   0.681   4.244   7.873  0.7840  0.3518 -1.0517
  460TIP3    H222940   0.537   4.289   7.860  0.9529  1.2085 -0.1163
  461TIP3   OH222941   5.129   0.334   1.162  0.2072 -0.1132  0.2176
  461TIP3    H122942   5.210   0.380   1.139 -0.2255  0.4434 -0.2095
  461TIP3    H222943   5.073   0.401   1.201  0.2010 -0.6394  1.1379
  462TIP3   OH222944   6.209   0.290   6.873 -0.0678 -1.2459  0.1606
  462TIP3    H122945   6.166   0.246   6.800 -1.8537 -0.8903  0.9552
  462TIP3    H222946   6.263   0.222   6.913  0.9284 -1.4502 -1.4360
  463TIP3   OH222947   6.330   2.628   2.653 -0.1036  0.3338  0.1159
  463TIP3    H122948   6.413   2.669   2.680 -0.0967 -0.5330  1.5522
  463TIP3    H222949   6.356   2.558   2.594  0.1263  0.4918  0.0270
  464TIP3   OH222950   3.220   2.074   8.585 -0.1495 -0.5964 -0.0337
  464TIP3    H122951   3.208   1.981   8.603 -0.3307 -0.5290  0.1891
  464TIP3    H222952   3.230   2.079   8.489  2.8044 -1.1886  0.1484
  465TIP3   OH222953   4.046   3.146   8.157 -0.3843  0.9538 -0.4632
  465TIP3    H122954   4.091   3.137   8.241  2.0614  1.2083 -1.6406
  465TIP3    H222955   4.011   3.234   8.157 -0.3084  0.9879  0.2511
  466TIP3   OH222956   0.156   1.661   1.387  0.3922  0.0128  0.2614
  466TIP3    H122957   0.155   1.717   1.465  0.5745  1.0505 -0.4594
  466TIP3    H222958   0.192   1.717   1.318  1.4298 -1.2794 -0.2824
  467TIP3   OH222959   2.522   5.135   1.085  0.5025 -0.4009 -0.7847
  467TIP3    H122960   2.556   5.141   1.174 -0.6054 -0.7002 -0.3292
  467TIP3    H222961   2.536   5.222   1.047  0.4452 -0.1050 -0.1299
  468TIP3   OH222962   2.550   0.648   7.712  0.2570 -0.8193 -0.1709
  468TIP3    H122963   2.591   0.692   7.786  0.0456 -0.3742 -0.3159
  468TIP3    H222964   2.623   0.606   7.666  0.3402 -1.4159  0.4994
  469TIP3   OH222965   0.204   4.721   1.402 -0.0029 -0.1891  0.1928
  469TIP3    H122966   0.121   4.679   1.424  0.1812 -0.9258 -0.4643
  469TIP3    H222967   0.179   4.808   1.370 -0.3820  0.2677  1.6637
  470TIP3   OH222968   1.489   0.801   8.790 -0.6552 -0.0233  0.2819
  470TIP3    H122969   1.499   0.894   8.814 -0.6785  0.2452 -0.6985
  470TIP3    H222970   1.427   0.767   8.854  0.4889  0.2484  1.5926
  471TIP3   OH222971   2.949   3.411   7.266 -0.5375 -0.2644 -0.5272
  471TIP3    H122972   2.921   3.363   7.188 -1.0136 -0.2220 -0.3889
  471TIP3    H222973   3.006   3.480   7.233  1.2478 -1.7158 -0.6123
  472TIP3   OH222974   2.833   6.148   7.899 -0.3417  0.2275 -0.4859
  472TIP3    H122975   2.860   6.060   7.874  0.5714  1.0603 -2.7420
  472TIP3    H222976   2.912   6.187   7.938 -0.3973  0.4069 -0.5507
  473TIP3   OH222977   4.656   6.254   1.911 -0.3256  0.2802 -0.0780
  473TIP3    H122978   4.662   6.181   1.849 -1.9210 -1.4569  1.7128
  473TIP3    H222979   4.747   6.282   1.923  0.1551 -0.2411 -2.0869
  474TIP3   OH222980   3.773   0.617   8.114 -0.1551  0.1862  0.2176
  474TIP3    H122981   3.791   0.524   8.105  0.8001  0.0245  3.0754
  474TIP3    H222982   3.792   0.653   8.027  1.5250 -1.9505 -0.3795
  475TIP3   OH222983   2.861   2.626   8.793  0.0840 -0.4775 -0.3239
  475TIP3    H122984   2.780   2.678   8.787  0.1827 -0.3179 -0.2846
  475TIP3    H222985   2.878   2.600   8.702  1.6429  2.0481 -0.8436
  476TIP3   OH222986   3.322   3.592   2.320  0.1963  0.0055  0.4549
  476TIP3    H122987   3.274   3.651   2.263 -0.4767 -1.0610 -0.1147
  476TIP3    H222988   3.261   3.573   2.391  0.0451 -0.7436  0.1337
  477TIP3   OH222989   4.670   2.889   2.492  0.0389 -0.1469 -0.2678
  477TIP3    H122990   4.750   2.837   2.489  0.6629  0.8374 -2.3533
  477TIP3    H222991   4.599   2.824   2.487  0.7280 -0.9568  0.2711
  478TIP3   OH222992   4.452   3.862   0.990  0.5556 -0.3708  0.6339
  478TIP3    H122993   4.377   3.805   0.977 -0.7316  1.8066 -2.3589
  478TIP3    H222994   4.513   3.838   0.920  1.1446  0.2262  0.9340
  479TIP3   OH222995   0.423   5.183   7.974 -0.3175 -0.0897 -0.3947
  479TIP3    H122996   0.366   5.259   7.961 -0.2405  0.0449  0.0163
  479TIP3    H222997   0.363   5.109   7.986 -0.4008 -0.0202 -0.3829
  480TIP3   OH222998   0.617   3.290   8.765 -0.1363  0.6270 -0.8275
  480TIP3    H122999   0.552   3.339   8.815  2.5696  2.0794  1.5198
  480TIP3    H223000   0.657   3.355   8.707 -1.5827 -0.5461 -3.3211
  481TIP3   OH223001   2.775   6.409   7.736  0.0805 -0.0173 -0.7162
  481TIP3    H123002   2.769   6.417   7.641  0.1831  0.5796 -0.6729
  481TIP3    H223003   2.747   6.319   7.754 -1.2922  0.2989 -1.1850
  482TIP3   OH223004   5.645   4.240   8.824  0.1103  0.0702 -0.3130
  482TIP3    H123005   5.686   4.155   8.835 -1.8230 -1.8098 -4.9960
  482TIP3    H223006   5.713   4.295   8.786  0.1912 -0.9599 -1.7507
  483TIP3   OH223007   6.453   2.172   2.194  0.7329 -0.5015 -0.0577
  483TIP3    H123008   6.507   2.118   2.251  0.3429  0.3126  1.1099
  483TIP3    H223009   6.499   2.256   2.190 -0.4787  0.2358  1.0423
  484TIP3   OH223010   1.041   6.672   1.077 -1.0018 -0.1511 -0.2258
  484TIP3    H123011   1.068   6.680   0.986  1.5625  0.0742  0.4827
  484TIP3    H223012   1.110   6.621   1.119 -2.8681 -1.5631  1.3276
  485TIP3   OH223013   5.992   4.315   0.769 -0.1870 -0.0068  0.6163
  485TIP3    H123014   6.019   4.379   0.704  0.3124  0.8635  1.6594
  485TIP3    H223015   5.912   4.351   0.808  0.0922 -0.0021  1.2023
  486TIP3   OH223016   1.738   6.258   1.963  0.3513  0.1170  0.4399
  486TIP3    H123017   1.798   6.184   1.970  0.0536  0.0474  3.2775
  486TIP3    H223018   1.660   6.222   1.920  2.3998  0.3939 -4.0600
  487TIP3   OH223019   0.800   2.336   8.500 -0.0575  0.1490 -0.0776
  487TIP3    H123020   0.722   2.287   8.526  0.0724 -0.2199 -0.3744
  487TIP3    H223021   0.811   2.316   8.407 -0.0619  0.8269 -0.2318
  488TIP3   OH223022   4.498   1.790   0.377  0.2344  0.0781 -0.1749
  488TIP3    H123023   4.562   1.855   0.349  0.5644 -0.2005 -0.0807
  488TIP3    H223024   4.546   1.707   0.373 -0.0086 -0.0842  0.2611
  489TIP3   OH223025   2.411   4.724   7.440  0.4873  0.4665 -0.0824
  489TIP3    H123026   2.434   4.758   7.527 -0.6953  1.3945 -0.1118
  489TIP3    H223027   2.335   4.775   7.413  0.6468 -0.0187 -1.5487
  490TIP3   OH223028   3.376   5.049   1.412  0.4219 -0.6945 -0.3303
  490TIP3    H123029   3.280   5.058   1.413  0.2801 -1.9023 -1.1686
  490TIP3    H223030   3.407   5.125   1.460 -1.0201 -1.0921  1.3465
  491TIP3   OH223031   2.942   5.188   0.800  0.3391  0.1441 -0.1127
  491TIP3    H123032   3.004   5.143   0.741 -2.9908 -3.3852 -1.3308
  491TIP3    H223033   2.919   5.268   0.754  2.2552  0.4187 -0.6760
  492TIP3   OH223034   4.372   5.720   2.114 -0.0537  0.3478 -0.6764
  492TIP3    H123035   4.401   5.672   2.037 -0.2572  0.6998 -0.9817
  492TIP3    H223036   4.425   5.800   2.113  2.6771 -1.2614  1.6724
  493TIP3   OH223037   0.501   2.343   8.768  0.1487 -0.0250  0.3004
  493TIP3    H123038   0.416   2.379   8.791  0.2759  0.1266  0.5398
  493TIP3    H223039   0.564   2.394   8.820  0.5931  1.3314 -1.4559
  494TIP3   OH223040   2.626   3.728   8.261  0.3737  0.6639  0.3089
  494TIP3    H123041   2.599   3.697   8.174 -0.3828  1.0136  0.4148
  494TIP3    H223042   2.710   3.685   8.276 -0.2961 -0.7608  0.1402
  495TIP3   OH223043   5.793   0.836   1.195 -0.2584 -0.5917 -0.4061
  495TIP3    H123044   5.747   0.815   1.276  0.9284 -0.7694  0.2482
  495TIP3    H223045   5.872   0.882   1.224 -0.7051  0.9812 -1.5684
  496TIP3   OH223046   4.137   4.062   1.616  0.0998  0.2010 -0.3135
  496TIP3    H123047   4.139   4.019   1.701  0.7594 -1.3026 -1.0475
  496TIP3    H223048   4.206   4.128   1.620  2.0018 -1.6633 -0.5353
  497TIP3   OH223049   2.598   6.177   6.132 -0.2749  0.0552 -0.2035
  497TIP3    H123050   2.556   6.120   6.196 -1.8770  0.4227 -0.8778
  497TIP3    H223051   2.691   6.164   6.146 -0.5372  0.6810  2.7225
  498TIP3   OH223052   2.906   0.344   8.223  0.2177  0.0868 -0.0245
  498TIP3    H123053   2.939   0.272   8.276 -1.5535 -1.0983 -0.4637
  498TIP3    H223054   2.926   0.319   8.133 -0.3104  0.1923 -0.1755
  499TIP3   OH223055   1.512   1.003   8.015  0.5962  0.2345  0.0049
  499TIP3    H123056   1.601   1.033   8.032  0.4478  0.0060  1.2839
  499TIP3    H223057   1.487   0.957   8.094 -1.8729  3.1448  1.1109
  500TIP3   OH223058   2.405   1.710   0.348  0.5283 -0.2885  0.4115
  500TIP3    H123059   2.369   1.765   0.279 -0.2916 -0.8812  0.3469
  500TIP3    H223060   2.406   1.766   0.425  2.0604  0.5826 -0.2019
  501TIP3   OH223061   3.355   0.060   8.207  0.5236  0.1728  0.9348
  501TIP3    H123062   3.354  -0.015   8.147 -2.2918  1.0310 -0.2555
  501TIP3    H223063   3.355   0.020   8.294  0.5371 -1.1856  0.3372
  502TIP3   OH223064   2.686   4.744   6.822 -0.4319 -0.3804 -0.0906
  502TIP3    H123065   2.674   4.837   6.843 -1.0490  0.1836 -2.6242
  502TIP3    H223066   2.779   4.735   6.803 -0.2599 -0.4399  0.7418
  503TIP3   OH223067   3.387   4.122   0.848  0.1831  0.3867 -0.2249
  503TIP3    H123068   3.293   4.123   0.826  0.1242 -0.6199 -0.0752
  503TIP3    H223069   3.427   4.179   0.782 -0.5427  0.9255 -0.2203
  504TIP3   OH223070   0.609   6.355   8.648  0.0727  0.5908  0.2601
  504TIP3    H123071   0.581   6.394   8.731  1.5202  1.0311  0.5789
  504TIP3    H223072   0.596   6.261   8.660  2.4678  0.3693  1.9690
  505TIP3   OH223073   1.354   3.101   7.193 -0.0035  0.5890 -0.5120
  505TIP3    H123074   1.431   3.128   7.143 -0.5208  0.5576 -1.3393
  505TIP3    H223075   1.373   3.129   7.283  0.7376  1.0650 -0.8075
  506TIP3   OH223076   4.251   2.628   0.796  0.1046 -0.7354  0.4128
  506TIP3    H123077   4.162   2.643   0.828  0.1778 -0.4292  0.4817
  506TIP3    H223078   4.305   2.628   0.875  0.0666 -1.7492  0.4511
  507TIP3   OH223079   3.738   3.483   7.185 -0.0391 -0.0855  0.3437
  507TIP3    H123080   3.718   3.395   7.215 -0.2932 -0.1260  0.0614
  507TIP3    H223081   3.783   3.471   7.102 -0.3783  0.0576  0.1368
  508TIP3   OH223082   6.596   0.285   0.804  0.2619  0.0761  0.3313
  508TIP3    H123083   6.587   0.352   0.872 -0.5475  0.4491 -0.1279
  508TIP3    H223084   6.513   0.287   0.757  0.6109 -0.5453 -0.3368
  509TIP3   OH223085   4.511   4.541   1.783 -0.0262 -0.2488  0.2777
  509TIP3    H123086   4.438   4.486   1.811 -0.6274  1.0703  1.4153
  509TIP3    H223087   4.539   4.586   1.863  1.5206 -0.1267 -0.2964
  510TIP3   OH223088   3.242   0.834   1.779  0.1206 -0.0704  0.1981
  510TIP3    H123089   3.324   0.785   1.788  0.2847  0.1439 -0.0846
  510TIP3    H223090   3.270   0.924   1.761 -0.1761  0.1310  0.7188
  511TIP3   OH223091   3.546   1.039   1.247 -0.0922 -0.3194 -0.1447
  511TIP3    H123092   3.511   1.054   1.334 -3.1890  0.0123 -1.3246
  511TIP3    H223093   3.573   1.126   1.216 -1.5744  0.0356 -0.4945
  512TIP3   OH223094   1.104   4.002   6.516  0.1911 -0.2783 -0.5248
  512TIP3    H123095   1.018   4.029   6.484  0.9009  1.0688 -1.4292
  512TIP3    H223096   1.106   3.907   6.503 -0.9486 -0.2547 -0.9996
  513TIP3   OH223097   4.627   1.307   1.807 -0.8243 -0.2029  0.5303
  513TIP3    H123098   4.647   1.378   1.746 -0.0764 -0.0429  0.9460
  513TIP3    H223099   4.549   1.265   1.771  0.3030 -0.8929 -1.1877
  514TIP3   OH223100   0.974   3.471   8.733  0.0166 -1.1272 -0.4526
  514TIP3    H123101   1.037   3.495   8.665 -0.4574 -1.6780 -1.1068
  514TIP3    H223102   0.935   3.389   8.702 -1.0376 -0.7933 -0.0779
  515TIP3   OH223103   4.411   6.245   1.226  0.2250  0.1965  0.2316
  515TIP3    H123104   4.335   6.218   1.174 -0.0054 -0.2510  0.7879
  515TIP3    H223105   4.387   6.333   1.258  0.2730  0.3788 -0.2191
  516TIP3   OH223106   5.779   4.455   8.217 -0.4458 -0.6221  0.4303
  516TIP3    H123107   5.693   4.430   8.183 -0.6879  0.9086 -0.1528
  516TIP3    H223108   5.790   4.546   8.190  1.2288 -0.6925  0.7768
  517TIP3   OH223109   2.748   6.744   0.051  0.2845  0.7186 -0.1851
  517TIP3    H123110   2.663   6.777   0.020 -0.4302 -0.8172  0.0301
  517TIP3    H223111   2.730   6.713   0.140  1.1039  0.5142 -0.0830
  518TIP3   OH223112   3.297   3.285   0.363  0.1797  0.0622 -0.2420
  518TIP3    H123113   3.282   3.354   0.428  0.5152  0.5236 -0.6423
  518TIP3    H223114   3.215   3.281   0.313 -0.5136 -1.1021  0.9271
  519TIP3   OH223115   6.112   4.152   6.502  0.2753  0.0460  0.2254
  519TIP3    H123116   6.100   4.173   6.594 -0.0724  0.6339  0.0469
  519TIP3    H223117   6.207   4.157   6.488  0.2702  0.6322  0.3911
  520TIP3   OH223118   2.280   5.090   0.023 -0.2645  0.1074  0.5270
  520TIP3    H123119   2.224   5.155   0.065 -1.5348 -0.3107 -0.4719
  520TIP3    H223120   2.245   5.081  -0.065  1.8203  0.3285 -0.3740
  521TIP3   OH223121   3.249   1.158   8.651  0.0977  0.2392 -0.8138
  521TIP3    H123122   3.240   1.173   8.557 -1.6782  1.2810 -0.5324
  521TIP3    H223123   3.303   1.080   8.658 -0.6943 -0.5424 -2.7355
  522TIP3   OH223124   2.267   4.335   1.697  0.3148  0.6714 -1.0506
  522TIP3    H123125   2.191   4.389   1.717 -0.4710 -0.4874 -0.8429
  522TIP3    H223126   2.341   4.382   1.738 -0.6362  0.5720  0.9225
  523TIP3   OH223127   1.919   6.371   7.485 -0.6824  0.1587 -0.4436
  523TIP3    H123128   1.846   6.358   7.425 -0.5285  0.1774 -0.6345
  523TIP3    H223129   1.914   6.296   7.545 -1.3966  0.6325  0.1035
  524TIP3   OH223130   4.108   5.965   0.622  0.0324 -0.3601 -0.6309
  524TIP3    H123131   4.144   6.006   0.543 -0.1872 -0.6954 -0.9069
  524TIP3    H223132   4.083   6.039   0.678 -0.5209 -0.1135 -1.1965
  525TIP3   OH223133   6.652   5.690   1.689 -0.3408 -1.1424  0.1462
  525TIP3    H123134   6.601   5.680   1.609  0.5314 -0.1974 -0.5563
  525TIP3    H223135   6.599   5.650   1.757 -1.5450 -1.0822 -0.7367
  526TIP3   OH223136   5.868   3.141   7.177 -0.3826 -0.1516 -0.8036
  526TIP3    H123137   5.901   3.052   7.182  0.2772 -0.0676 -2.7250
  526TIP3    H223138   5.860   3.170   7.268  3.3963 -0.7054 -0.1529
  527TIP3   OH223139   0.560   3.244   0.369 -0.1424 -0.6765 -0.0761
  527TIP3    H123140   0.525   3.315   0.315  1.3725 -0.0485 -0.2902
  527TIP3    H223141   0.518   3.165   0.335 -1.4802  0.0476 -0.1661
  528TIP3   OH223142   5.692   6.328   2.120 -0.0114  0.5718  0.1951
  528TIP3    H123143   5.721   6.274   2.194  3.0547  0.3926 -0.9755
  528TIP3    H223144   5.628   6.274   2.074  0.2110 -0.5228  1.1267
  529TIP3   OH223145   5.863   0.497   7.438  0.3819 -0.0969  0.1179
  529TIP3    H123146   5.794   0.431   7.433  0.0677  0.2958 -1.3576
  529TIP3    H223147   5.825   0.566   7.494  0.3065 -0.6771  0.7999
  530TIP3   OH223148   2.879   6.555   0.434 -0.7029 -0.5696  0.0023
  530TIP3    H123149   2.964   6.566   0.391 -0.5268 -1.1234  0.1983
  530TIP3    H223150   2.815   6.583   0.368 -0.3894 -0.5339 -0.2914
  531TIP3   OH223151   2.650   3.707   7.252 -0.7524  0.0877 -0.6170
  531TIP3    H123152   2.641   3.802   7.240 -1.3219  0.0388 -0.6134
  531TIP3    H223153   2.621   3.692   7.342  1.2642  0.1512  0.1093
  532TIP3   OH223154   0.241   0.639   8.533 -0.3708  0.5071 -0.3578
  532TIP3    H123155   0.291   0.559   8.544  2.0078  1.6616 -1.9876
  532TIP3    H223156   0.170   0.615   8.472  0.5810 -0.2663 -1.1948
  533TIP3   OH223157   4.283   0.738   8.335  0.1666  0.0114  0.2228
  533TIP3    H123158   4.190   0.755   8.346 -0.0467 -0.1542 -1.0650
  533TIP3    H223159   4.296   0.651   8.372 -0.5482 -0.6509 -1.0007
  534TIP3   OH223160   0.675   3.652   2.278  0.0587  0.8713 -0.1743
  534TIP3    H123161   0.742   3.584   2.281  0.2914  1.1000 -0.1300
  534TIP3    H223162   0.652   3.666   2.370  0.9399  1.7582 -0.0757
  535TIP3   OH223163   2.851   5.469   7.521 -0.1006 -0.9353  0.2919
  535TIP3    H123164   2.932   5.503   7.483 -0.4835 -1.1061 -0.6926
  535TIP3    H223165   2.841   5.518   7.604  1.8551 -2.0697  1.2570
  536TIP3   OH223166   4.208   4.563   0.286  0.0752  1.1576  0.0147
  536TIP3    H123167   4.123   4.519   0.294  0.2647  0.7412 -0.2585
  536TIP3    H223168   4.270   4.492   0.268  0.3396  1.5707 -0.7129
  537TIP3   OH223169   5.296   4.427   8.265  0.2186  0.5286  0.1645
  537TIP3    H123170   5.370   4.466   8.219  0.3168 -0.1469 -0.2640
  537TIP3    H223171   5.241   4.391   8.195 -0.0318  0.1914  0.5300
  538TIP3   OH223172   0.534   1.567   7.659 -0.0209  0.5237  0.1772
  538TIP3    H123173   0.544   1.652   7.701  0.7911  0.8273 -0.5932
  538TIP3    H223174   0.622   1.544   7.628 -0.3995 -0.1557 -0.4444
  539TIP3   OH223175   6.123   2.444   8.054 -0.3416  0.5034 -0.0856
  539TIP3    H123176   6.134   2.384   7.980 -0.9577  0.7496 -0.3880
  539TIP3    H223177   6.169   2.402   8.127 -0.5656 -0.2196 -0.3560
  540TIP3   OH223178   4.242   4.838   0.361  0.8015 -0.2741  0.4328
  540TIP3    H123179   4.184   4.883   0.299  1.5119  1.2339  0.8015
  540TIP3    H223180   4.234   4.745   0.339  0.3449  0.1385 -1.3232
  541TIP3   OH223181   1.496   5.307   7.636 -0.2013  0.0557 -0.1113
  541TIP3    H123182   1.506   5.276   7.726 -1.4771  1.0699  0.4172
  541TIP3    H223183   1.561   5.376   7.627 -0.2497  0.1361  0.1361
  542TIP3   OH223184   2.329   6.703   2.067  0.2987  0.6282 -0.1566
  542TIP3    H123185   2.379   6.638   2.116  1.3714  0.7193 -1.0869
  542TIP3    H223186   2.349   6.786   2.110  0.1987  0.5486  0.0458
  543TIP3   OH223187   1.539   4.405   1.769 -0.5387  0.4185  0.4540
  543TIP3    H123188   1.588   4.467   1.824 -0.7810  2.4048 -1.3987
  543TIP3    H223189   1.546   4.321   1.814 -0.6826  1.8835  3.4384
  544TIP3   OH223190   5.189   1.998   0.438 -0.1464 -0.5598 -0.3713
  544TIP3    H123191   5.273   1.984   0.394  0.8518  2.4848  0.3853
  544TIP3    H223192   5.125   2.004   0.366  0.6834 -0.4203 -1.1078
  545TIP3   OH223193   2.813   4.615   0.843 -0.0229  0.3227 -0.2075
  545TIP3    H123194   2.748   4.547   0.825 -0.8643  1.3716 -1.3919
  545TIP3    H223195   2.875   4.608   0.771 -1.0066  1.7825 -1.2686
  546TIP3   OH223196   2.726   4.267   1.077  0.1240 -0.5079 -0.0774
  546TIP3    H123197   2.783   4.344   1.070 -0.9055  0.5623  2.2012
  546TIP3    H223198   2.642   4.302   1.106 -1.1199 -2.2693 -1.3904
  547TIP3   OH223199   1.476   1.699   7.028 -0.0931 -0.5377 -0.2864
  547TIP3    H123200   1.430   1.779   7.000 -0.2336 -0.8221 -0.8850
  547TIP3    H223201   1.497   1.715   7.120 -1.5871 -0.4851  0.0697
  548TIP3   OH223202   4.423   3.992   2.367  0.0372  0.3519 -0.7459
  548TIP3    H123203   4.503   4.020   2.411 -0.3558 -0.7214  0.7340
  548TIP3    H223204   4.450   3.918   2.313 -0.3573 -1.8317  1.8799
  549TIP3   OH223205   4.998   2.556   6.853 -0.4436 -0.4636  0.0640
  549TIP3    H123206   5.073   2.545   6.911 -1.2722 -1.4950  0.9895
  549TIP3    H223207   4.950   2.630   6.889  0.1345  0.2438 -0.5709
  550TIP3   OH223208   4.155   1.007   1.151  0.6357  0.7454  0.3295
  550TIP3    H123209   4.120   1.075   1.208  0.2125 -0.8894  2.1141
  550TIP3    H223210   4.186   0.939   1.210  3.4875  0.4734 -1.2902
  551TIP3   OH223211   6.711   0.314   8.559 -0.3088 -0.2065  0.3935
  551TIP3    H123212   6.730   0.221   8.573 -0.4733 -0.4847 -1.0529
  551TIP3    H223213   6.705   0.323   8.463 -0.5093  1.2508  0.5225
  552TIP3   OH223214   3.734   3.219   6.792 -0.0476  0.5177 -0.1718
  552TIP3    H123215   3.719   3.125   6.779 -1.1324  0.8125 -1.2102
  552TIP3    H223216   3.749   3.253   6.704 -1.5136  1.6082 -0.0392
  553TIP3   OH223217   6.351   6.264   0.262 -0.5546 -0.2682 -0.3008
  553TIP3    H123218   6.443   6.249   0.240 -0.2596  1.6983 -0.5733
  553TIP3    H223219   6.341   6.228   0.350  1.3429  2.2430  1.0830
  554TIP3   OH223220   5.900   0.148   7.519  0.3395 -0.3786 -0.6663
  554TIP3    H123221   5.895   0.224   7.576 -1.7207  0.0319 -1.3104
  554TIP3    H223222   5.984   0.157   7.474  0.6873  0.8329  0.1772
  555TIP3   OH223223   6.454   4.855   7.617  0.1581 -0.0813 -0.1469
  555TIP3    H123224   6.395   4.902   7.675 -2.1615 -1.1473 -1.4817
  555TIP3    H223225   6.407   4.775   7.594  0.6708  0.4861 -3.8486
  556TIP3   OH223226   0.914   1.563   8.628 -0.2943 -0.3198  0.6400
  556TIP3    H123227   1.001   1.568   8.668  0.7466 -0.1137 -1.4965
  556TIP3    H223228   0.898   1.651   8.593 -0.4956 -0.8486 -0.6535
  557TIP3   OH223229   4.372   2.627   8.091  0.0951  0.3994 -0.4293
  557TIP3    H123230   4.278   2.615   8.075  0.3847 -0.6638 -1.5526
  557TIP3    H223231   4.378   2.705   8.146 -1.6015 -0.8438  1.7090
  558TIP3   OH223232   4.550   0.988   1.842  0.1961  0.1089 -0.3879
  558TIP3    H123233   4.549   0.925   1.769 -0.6284  0.7532 -0.9433
  558TIP3    H223234   4.482   0.957   1.901 -1.6212  1.5541 -1.6242
  559TIP3   OH223235   4.083   0.869   6.753 -0.3497 -0.1419  0.2138
  559TIP3    H123236   4.006   0.916   6.785 -0.5168 -0.8024  0.7971
  559TIP3    H223237   4.062   0.776   6.767  0.0016 -0.4030 -0.8548
  560TIP3   OH223238   2.741   1.659   7.637 -0.0212 -0.4369  0.1109
  560TIP3    H123239   2.780   1.731   7.588  0.3091 -1.6108 -1.4130
  560TIP3    H223240   2.668   1.630   7.583  0.9810 -2.4470 -0.2519
  561TIP3   OH223241   0.737   4.504   7.455  0.0762  0.3831  0.7548
  561TIP3    H123242   0.785   4.425   7.476 -1.2924 -0.4512  0.8692
  561TIP3    H223243   0.797   4.556   7.401  0.3915 -1.5202 -0.8363
  562TIP3   OH223244   1.230   1.539   2.445 -0.3609 -0.2233  0.3875
  562TIP3    H123245   1.243   1.628   2.478  0.4177 -0.5078  0.8771
  562TIP3    H223246   1.201   1.489   2.521 -2.0252 -0.1443 -0.1500
  563TIP3   OH223247   3.101   6.181   7.610  0.0980  0.4495 -0.9717
  563TIP3    H123248   3.095   6.276   7.606  2.9592  0.6998 -1.6504
  563TIP3    H223249   3.090   6.160   7.703 -0.5547  1.4166 -0.8162
  564TIP3   OH223250   2.579   6.081   8.022 -0.0266  0.0333  0.1955
  564TIP3    H123251   2.521   6.010   7.993 -0.9720  1.2014 -0.8738
  564TIP3    H223252   2.651   6.080   7.958 -0.2951  0.3493 -0.1133
  565TIP3   OH223253   0.797   5.985   8.485  0.2786 -0.5135  0.5663
  565TIP3    H123254   0.799   5.970   8.580  0.8995 -0.3884  0.5738
  565TIP3    H223255   0.847   5.911   8.449  1.0407  0.0650  0.4181
  566TIP3   OH223256   3.282   2.787   6.554  0.0874 -0.5627 -0.2366
  566TIP3    H123257   3.318   2.868   6.590  1.1414 -0.7148 -0.9107
  566TIP3    H223258   3.218   2.816   6.489 -0.1888 -0.2859  0.1499
  567TIP3   OH223259   0.852   5.161   0.094  0.5525 -0.4002  0.3713
  567TIP3    H123260   0.774   5.167   0.149 -0.5418 -1.0192 -1.0392
  567TIP3    H223261   0.879   5.252   0.080  0.8266 -0.2373  1.8655
  568TIP3   OH223262   1.201   0.392   7.953  0.0591 -0.0064 -0.2931
  568TIP3    H123263   1.138   0.453   7.914  1.7370  2.6619  0.8979
  568TIP3    H223264   1.273   0.387   7.890 -0.9406 -2.6276 -1.4003
  569TIP3   OH223265   5.631   4.152   0.719 -0.0248  0.6194  0.0648
  569TIP3    H123266   5.590   4.222   0.668  0.0606  0.5042 -0.1622
  569TIP3    H223267   5.649   4.192   0.804  0.8825  1.1496 -0.3684
  570TIP3   OH223268   5.382   5.931   6.798 -0.1914  0.8167 -0.5434
  570TIP3    H123269   5.300   5.883   6.811  0.3481  0.0185 -0.0083
  570TIP3    H223270   5.377   5.964   6.708 -1.1047  0.7900 -0.5092
  571TIP3   OH223271   5.849   2.578   0.848 -0.9175  0.0836  0.7111
  571TIP3    H123272   5.851   2.509   0.914  0.9644 -1.7564 -1.1298
  571TIP3    H223273   5.928   2.629   0.864  1.3193 -2.2547 -1.8019
  572TIP3   OH223274   4.901   3.140   2.666 -0.0416 -0.2429 -0.0220
  572TIP3    H123275   4.942   3.098   2.590 -0.3937  0.6135 -0.7085
  572TIP3    H223276   4.970   3.143   2.732  0.1122 -1.4986 -0.0947
  573TIP3   OH223277   1.228   2.681   2.318  0.3016 -0.0120  0.2196
  573TIP3    H123278   1.143   2.724   2.329 -0.4229 -0.9661 -1.3121
  573TIP3    H223279   1.215   2.593   2.355  0.7827  0.0035  0.4295
  574TIP3   OH223280   3.411   1.519   0.478  0.0940 -0.7105 -0.3745
  574TIP3    H123281   3.331   1.533   0.428 -0.2495  1.1531  0.5864
  574TIP3    H223282   3.415   1.425   0.493 -1.3080 -0.9587 -1.3987
  575TIP3   OH223283   1.940   6.625   8.204 -0.2353  0.1981  0.8525
  575TIP3    H123284   1.933   6.565   8.279  1.7741  0.1363  1.0359
  575TIP3    H223285   1.979   6.572   8.135  3.7147  1.7087  1.6820
  576TIP3   OH223286   6.047   6.765   1.422  0.3276  0.0016 -0.0307
  576TIP3    H123287   6.002   6.703   1.478 -1.1164  1.0853  0.0606
  576TIP3    H223288   6.120   6.797   1.475 -0.0073 -0.2537  0.5927
  577TIP3   OH223289   3.214   3.314   8.446  0.2047  0.0164 -0.2751
  577TIP3    H123290   3.300   3.306   8.487  0.5270  1.4324 -0.6171
  577TIP3    H223291   3.227   3.374   8.373 -1.2238  0.8903  0.1408
  578TIP3   OH223292   2.613   3.350   7.396 -0.5123  0.2896  0.5612
  578TIP3    H123293   2.560   3.426   7.422 -0.0965  0.7862  0.0029
  578TIP3    H223294   2.620   3.358   7.301 -0.9573 -0.7919  0.4296
  579TIP3   OH223295   2.840   0.214   0.017 -0.3886  0.1719 -0.9946
  579TIP3    H123296   2.827   0.206  -0.078  3.5937 -1.5340 -1.5680
  579TIP3    H223297   2.818   0.127   0.051 -2.4020  0.9491 -0.1478
  580TIP3   OH223298   0.761   6.761   1.907 -0.5357 -0.0710  0.1979
  580TIP3    H123299   0.777   6.824   1.837 -1.0825 -0.9678 -0.7498
  580TIP3    H223300   0.791   6.806   1.986  2.2911  0.1002 -0.8503
  581TIP3   OH223301   0.598   6.123   0.931  0.7792  0.1374  0.3422
  581TIP3    H123302   0.598   6.125   0.836  1.4210  0.6875  0.3431
  581TIP3    H223303   0.618   6.213   0.957 -0.3927  0.2213  1.0154
  582TIP3   OH223304   2.270   4.308   0.438  0.3639  0.0428  0.2168
  582TIP3    H123305   2.255   4.377   0.374 -1.2366 -0.0365  0.4585
  582TIP3    H223306   2.254   4.227   0.389  1.8889 -0.1683  0.0238
  583TIP3   OH223307   1.669   3.747   8.449  0.5314 -0.3201  0.3887
  583TIP3    H123308   1.663   3.831   8.405  1.0084  0.1521  1.2014
  583TIP3    H223309   1.696   3.686   8.381 -2.3724 -0.3750 -0.8329
  584TIP3   OH223310   0.550   4.123   2.004  0.5890  0.8105 -0.1267
  584TIP3    H123311   0.470   4.151   1.958  1.2517 -0.2114 -2.0153
  584TIP3    H223312   0.609   4.097   1.934  1.2448 -2.0405  1.3670
  585TIP3   OH223313   1.779   3.518   7.037 -0.3592 -0.4424  0.1875
  585TIP3    H123314   1.784   3.485   6.948  0.7438  0.1115  0.0273
  585TIP3    H223315   1.749   3.609   7.028 -3.6061 -1.3437  0.6367
  586TIP3   OH223316   1.398   0.362   7.218  0.3063 -0.5555  0.1780
  586TIP3    H123317   1.369   0.453   7.224  0.0282 -0.4951 -1.5091
  586TIP3    H223318   1.481   0.360   7.265 -0.0268  0.3967  0.8468
  587TIP3   OH223319   4.638   3.661   0.888 -0.0903 -0.2795 -0.9705
  587TIP3    H123320   4.706   3.593   0.889  0.8535  0.6139  1.3555
  587TIP3    H223321   4.674   3.730   0.832  0.5471 -0.1759 -0.4393
  588TIP3   OH223322   4.620   3.037   0.255 -0.2249  0.5414  0.5434
  588TIP3    H123323   4.540   2.998   0.291 -0.9569  0.0710 -1.4255
  588TIP3    H223324   4.589   3.090   0.181  1.3620 -0.8816 -1.2337
  589TIP3   OH223325   3.290   1.966   6.903 -0.5596 -0.3791 -0.3306
  589TIP3    H123326   3.372   1.931   6.938 -0.2973 -0.0085 -0.5687
  589TIP3    H223327   3.237   1.984   6.981 -0.2329 -0.1748 -0.1515
  590TIP3   OH223328   3.130   4.308   0.106  0.2229 -0.3068 -0.2446
  590TIP3    H123329   3.053   4.324   0.161 -0.3405 -2.6573 -0.2273
  590TIP3    H223330   3.202   4.299   0.168  0.5325  1.7000 -0.2483
  591TIP3   OH223331   3.152   6.643   0.705 -0.5526  0.2515 -0.0495
  591TIP3    H123332   3.138   6.568   0.648 -0.3217 -0.1238  0.3719
  591TIP3    H223333   3.211   6.700   0.656 -0.1558 -0.1848 -0.0844
  592TIP3   OH223334   5.316   1.451   7.214  0.0571 -0.2919 -0.1947
  592TIP3    H123335   5.329   1.358   7.200 -0.4004 -0.1791 -1.4433
  592TIP3    H223336   5.231   1.470   7.174 -0.6943  0.3420  1.5669
  593TIP3   OH223337   6.102   2.396   7.373  0.0490 -0.5289  0.1589
  593TIP3    H123338   6.109   2.363   7.283 -0.8870  1.1690 -0.5870
  593TIP3    H223339   6.159   2.473   7.375 -0.2398 -0.3265  0.9037
  594TIP3   OH223340   5.688   2.577   8.090 -0.1275 -0.2464  0.0955
  594TIP3    H123341   5.612   2.519   8.087  0.1935 -0.7166 -3.3411
  594TIP3    H223342   5.651   2.666   8.087 -0.5796 -0.4569 -0.9463
  595TIP3   OH223343   0.454   2.973   0.531  0.3655  0.5781  0.2475
  595TIP3    H123344   0.379   3.024   0.562  0.8808  0.4985  1.6748
  595TIP3    H223345   0.529   3.009   0.578  1.0262 -0.2353 -0.1546
  596TIP3   OH223346   1.411   5.305   1.280  0.6439 -0.4061  0.0514
  596TIP3    H123347   1.440   5.380   1.332  0.8431 -0.4044 -0.0600
  596TIP3    H223348   1.449   5.321   1.193  0.2460 -0.3643 -0.1172
  597TIP3   OH223349   1.699   4.964   8.843 -0.7147  0.0483 -0.3413
  597TIP3    H123350   1.763   4.978   8.912 -0.5212  0.7959 -0.6617
  597TIP3    H223351   1.746   4.915   8.776 -1.3819 -2.2696  0.7632
  598TIP3   OH223352   3.327   0.848   0.175  0.3151 -0.0341  0.0927
  598TIP3    H123353   3.264   0.903   0.129 -0.0581  0.7864  1.5134
  598TIP3    H223354   3.383   0.812   0.106 -1.8617 -1.0376 -1.2450
  599TIP3   OH223355   5.520   3.079   1.503  0.2304  0.6152 -0.3977
  599TIP3    H123356   5.460   3.092   1.430 -2.5483 -0.7395  1.4846
  599TIP3    H223357   5.550   2.988   1.493  1.5478  1.0864 -0.9717
  600TIP3   OH223358   1.750   4.286   8.688  0.8526 -0.1647 -0.4154
  600TIP3    H123359   1.694   4.213   8.661 -0.5900  0.4269  0.8489
  600TIP3    H223360   1.754   4.280   8.783  2.2406  0.3571 -0.4108
  601TIP3   OH223361   2.353   2.984   2.569 -0.0306  0.4139 -0.2101
  601TIP3    H123362   2.358   3.033   2.651  1.5624  2.3484 -1.3644
  601TIP3    H223363   2.419   2.915   2.578 -2.5665 -1.9623  1.5845
  602TIP3   OH223364   3.742   3.090   8.351 -0.3798  0.4991  0.1784
  602TIP3    H123365   3.745   3.038   8.271 -3.5846  0.2180  0.1102
  602TIP3    H223366   3.788   3.036   8.416  0.4703 -0.2104 -0.9613
  603TIP3   OH223367   4.812   5.973   0.000  0.6088  0.0812  0.1705
  603TIP3    H123368   4.897   5.951  -0.038  1.5080  1.1225  1.4717
  603TIP3    H223369   4.834   6.012   0.085 -1.2228 -0.7446  1.0733
  604TIP3   OH223370   5.586   3.858   8.272 -0.4244 -0.3762  0.3023
  604TIP3    H123371   5.676   3.838   8.299  0.1445  1.1781 -0.3328
  604TIP3    H223372   5.566   3.941   8.314 -0.2292  1.1120 -2.3145
  605TIP3   OH223373   4.452   1.702   1.732 -0.7389  0.8357  0.1258
  605TIP3    H123374   4.377   1.748   1.770 -1.7808 -1.8169  1.6043
  605TIP3    H223375   4.527   1.732   1.783 -1.1802  1.6617  0.3112
  606TIP3   OH223376   3.129   6.512   1.730  0.1357  0.0509 -0.0616
  606TIP3    H123377   3.220   6.543   1.735 -0.4933  2.2464 -0.9607
  606TIP3    H223378   3.077   6.590   1.747 -1.6614 -1.5965  2.7791
  607TIP3   OH223379   4.869   0.374   0.986 -0.2330 -0.3266 -0.6020
  607TIP3    H123380   4.781   0.387   1.021 -0.9327  0.4437 -2.5373
  607TIP3    H223381   4.856   0.325   0.905  0.8618  1.5494 -1.9976
  608TIP3   OH223382   5.386   5.763   1.294  0.0565 -0.2619  0.6496
  608TIP3    H123383   5.422   5.709   1.364  0.8451 -0.3372  0.1981
  608TIP3    H223384   5.321   5.818   1.337  0.4414 -0.3989  1.4236
  609TIP3   OH223385   2.331   0.163   1.554  0.7318  0.3330 -0.3426
  609TIP3    H123386   2.336   0.239   1.496 -0.8941  1.4954  0.9151
  609TIP3    H223387   2.377   0.191   1.633 -0.4913  0.3401  0.4063
  610TIP3   OH223388   6.403   1.862   7.686  0.6990  0.1665 -0.3960
  610TIP3    H123389   6.432   1.855   7.595  1.2093  0.1314 -0.2322
  610TIP3    H223390   6.443   1.943   7.718  2.9747 -1.2882  0.6728
  611TIP3   OH223391   2.274   1.439   8.236  0.3183 -0.6534 -0.4404
  611TIP3    H123392   2.336   1.414   8.303 -1.0185  0.6296  1.3908
  611TIP3    H223393   2.221   1.361   8.222 -0.0912 -0.6452  0.8766
  612TIP3   OH223394   0.848   1.007   0.086 -0.3049 -0.1289  0.2357
  612TIP3    H123395   0.924   1.061   0.065  1.3479 -1.0092  3.3474
  612TIP3    H223396   0.846   0.940   0.018  0.4273  1.0742 -1.0280
  613TIP3   OH223397   5.907   6.189   0.580 -0.2791 -0.4115 -0.2324
  613TIP3    H123398   5.969   6.262   0.577  0.8420 -1.2534  1.2157
  613TIP3    H223399   5.952   6.118   0.535 -0.2983 -0.9467  0.5834
  614TIP3   OH223400   6.523   3.901   7.811  0.1911  0.9262 -0.5007
  614TIP3    H123401   6.614   3.892   7.840 -0.6981  0.5783  2.5130
  614TIP3    H223402   6.471   3.861   7.881 -2.2523 -0.8327 -3.0980
  615TIP3   OH223403   1.516   5.683   6.903 -0.0669  0.7359  0.2423
  615TIP3    H123404   1.600   5.641   6.921 -1.2950 -1.7541  0.6909
  615TIP3    H223405   1.538   5.760   6.850  2.5994  1.1691  1.7659
  616TIP3   OH223406   1.903   2.151   2.166  0.1440  0.0130 -0.0527
  616TIP3    H123407   1.843   2.118   2.098 -1.6284 -0.8661  1.8309
  616TIP3    H223408   1.848   2.207   2.221  1.2992 -0.0342  1.1871
  617TIP3   OH223409   5.348   4.097   7.292 -0.0281 -0.1623  0.3215
  617TIP3    H123410   5.372   4.040   7.219  0.9570  0.5377  0.0737
  617TIP3    H223411   5.316   4.038   7.360 -0.9624 -0.8336 -0.6579
  618TIP3   OH223412   0.608   3.962   7.752 -0.3470 -0.5685  0.1065
  618TIP3    H123413   0.572   3.968   7.664 -3.0479 -0.8006  1.0809
  618TIP3    H223414   0.617   4.053   7.781 -0.7060 -0.5130  0.0471
  619TIP3   OH223415   0.250   1.827   8.693 -0.1745 -0.2458 -0.6062
  619TIP3    H123416   0.278   1.803   8.605 -0.2282  0.0168 -0.6950
  619TIP3    H223417   0.213   1.915   8.684 -0.0187 -0.1460 -0.2894
  620TIP3   OH223418   1.809   4.481   8.496 -0.5187 -0.7215  0.8887
  620TIP3    H123419   1.770   4.415   8.554 -0.8494  0.2058  1.7544
  620TIP3    H223420   1.895   4.499   8.535 -0.5879 -0.3671  0.8820
  621TIP3   OH223421   0.667   6.736   7.787  0.2040 -0.0761  0.2617
  621TIP3    H123422   0.708   6.651   7.804 -0.8502 -0.3332  1.7068
  621TIP3    H223423   0.687   6.754   7.696  1.7972 -1.1267  0.3614
  622TIP3   OH223424   1.428   3.260   6.764  0.1574 -1.0554 -0.4918
  622TIP3    H123425   1.469   3.308   6.692  1.8746 -2.0896 -0.2683
  622TIP3    H223426   1.415   3.171   6.729  1.8912 -1.8413  0.6931
  623TIP3   OH223427   2.362   6.092   8.263 -0.3518 -0.1031  0.8555
  623TIP3    H123428   2.448   6.106   8.225 -1.1823  0.4863 -0.9316
  623TIP3    H223429   2.345   6.169   8.317 -1.1428  1.5540 -1.6033
  624TIP3   OH223430   2.915   5.078   1.081  0.2997  0.2406  0.1965
  624TIP3    H123431   2.939   5.122   1.000 -0.9523  0.4781 -0.0602
  624TIP3    H223432   2.840   5.024   1.058 -1.0096  1.4146  1.4915
  625TIP3   OH223433   4.216   1.437   7.150 -0.8022  0.3435 -0.1523
  625TIP3    H123434   4.252   1.449   7.062 -2.0073  3.0347 -0.3517
  625TIP3    H223435   4.288   1.459   7.209 -0.2316 -0.6904 -0.4404
  626TIP3   OH223436   4.055   0.287   6.838 -0.1350  0.1280  0.3195
  626TIP3    H123437   4.094   0.292   6.751  0.3157  2.0566  0.5835
  626TIP3    H223438   3.972   0.242   6.824  0.5964 -0.9353 -0.8317
  627TIP3   OH223439   3.498   6.521   7.152 -0.0428 -0.9218  0.3318
  627TIP3    H123440   3.505   6.451   7.217 -2.5647 -0.6955  0.9673
  627TIP3    H223441   3.483   6.600   7.204  3.0058  0.2569 -0.3569
  628TIP3   OH223442   5.993   4.827   2.587 -0.6212 -0.2724  0.3832
  628TIP3    H123443   5.911   4.806   2.634 -1.7010  0.5652 -1.0448
  628TIP3    H223444   6.020   4.911   2.624  0.2655 -1.0718  1.6567
  629TIP3   OH223445   6.499   1.297   7.986  0.1414  0.4516 -0.6161
  629TIP3    H123446   6.591   1.319   8.000  0.4342 -0.3876 -1.1530
  629TIP3    H223447   6.460   1.377   7.952  0.6610  0.8320 -0.3270
  630TIP3   OH223448   0.400   3.848   0.719 -0.3672  0.4457 -0.5043
  630TIP3    H123449   0.330   3.818   0.661  0.2382  0.6811 -1.3736
  630TIP3    H223450   0.437   3.768   0.755 -0.9613  0.3122 -0.1764
  631TIP3   OH223451   4.069   0.267   7.751 -0.2698  0.1734  0.5931
  631TIP3    H123452   4.126   0.197   7.784 -1.6021 -0.4275  1.7050
  631TIP3    H223453   3.994   0.221   7.713 -1.2789  0.9618  1.5579
  632TIP3   OH223454   2.325   5.208   1.392 -0.3204 -0.2928  0.6173
  632TIP3    H123455   2.301   5.262   1.317  0.4205  0.8182  1.1460
  632TIP3    H223456   2.241   5.181   1.429 -0.7618 -2.9965 -1.9946
  633TIP3   OH223457   2.630   2.881   7.540 -0.0826  0.0768 -0.2915
  633TIP3    H123458   2.578   2.840   7.470 -0.9340 -0.0560  0.3959
  633TIP3    H223459   2.565   2.907   7.605  0.5949  1.2178 -0.0540
  634TIP3   OH223460   0.731   2.943   2.155  0.5765 -0.3742  0.2212
  634TIP3    H123461   0.680   2.952   2.235  1.0507 -1.0602  0.6071
  634TIP3    H223462   0.777   3.026   2.145  0.2437 -0.1604  0.4667
  635TIP3   OH223463   3.878   4.316   8.781 -0.4333  0.1422  0.4560
  635TIP3    H123464   3.955   4.373   8.777 -0.1882 -0.2410 -1.0743
  635TIP3    H223465   3.833   4.331   8.698 -0.6401 -1.4946  0.2309
  636TIP3   OH223466   3.954   4.366   6.958  0.7366 -0.8739 -0.1014
  636TIP3    H123467   3.919   4.416   7.032  2.7901 -0.8064  0.9127
  636TIP3    H223468   3.951   4.275   6.986 -1.6226 -1.2670 -1.3611
  637TIP3   OH223469   5.434   1.921   7.737  0.4700  0.4077 -0.3843
  637TIP3    H123470   5.524   1.956   7.735  0.3114  0.9792  1.0904
  637TIP3    H223471   5.445   1.829   7.760  0.7733 -0.0370 -2.1973
  638TIP3   OH223472   0.563   6.352   2.091  0.6463 -0.1540 -0.1063
  638TIP3    H123473   0.589   6.260   2.082  1.5732  0.0130  0.6567
  638TIP3    H223474   0.646   6.400   2.085  0.1825  0.6284 -0.3623
  639TIP3   OH223475   5.288   4.860   0.165 -0.5567 -0.7030  0.7840
  639TIP3    H123476   5.265   4.789   0.105  0.2987 -1.1825  1.0119
  639TIP3    H223477   5.380   4.845   0.186 -0.2797  0.6474  0.6124
  640TIP3   OH223478   0.836   5.057   2.085  0.1390 -0.2802 -0.2136
  640TIP3    H123479   0.908   5.002   2.054  0.9009 -0.6361  2.0266
  640TIP3    H223480   0.787   5.001   2.144 -0.5095  0.7199  0.2145
  641TIP3   OH223481   6.296   5.408   8.059  0.2557  0.1616 -0.4166
  641TIP3    H123482   6.288   5.313   8.045  0.1423  0.1892 -0.5392
  641TIP3    H223483   6.298   5.445   7.970  0.5941  0.2496 -0.3744
  642TIP3   OH223484   2.405   0.542   8.376  0.1757  0.4664 -0.2285
  642TIP3    H123485   2.320   0.549   8.331 -0.8821  1.0578  1.7493
  642TIP3    H223486   2.416   0.449   8.391  0.2482  0.3155 -1.1253
  643TIP3   OH223487   2.391   3.902   0.774  0.1293 -0.8021 -0.1847
  643TIP3    H123488   2.409   3.899   0.868 -0.4699  1.1961  0.0380
  643TIP3    H223489   2.411   3.992   0.749 -0.8262 -0.9902 -1.7379
  644TIP3   OH223490   0.796   2.054   2.966  0.5902 -0.0384 -0.8932
  644TIP3    H123491   0.793   2.110   2.889 -0.3543  1.1464 -0.0265
  644TIP3    H223492   0.705   2.032   2.984  0.7417  0.1710  0.2117
  645TIP3   OH223493   2.011   2.745   0.598  0.6233  0.2591  0.2404
  645TIP3    H123494   2.027   2.651   0.591 -1.1128 -0.0045 -1.1388
  645TIP3    H223495   2.061   2.783   0.525  3.2610  0.7866  2.1725
  646TIP3   OH223496   1.987   4.937   0.155 -0.7517  0.2888  0.4214
  646TIP3    H123497   2.074   4.917   0.192  0.0361  1.3608 -0.7788
  646TIP3    H223498   1.926   4.894   0.215  0.6872 -3.6255 -0.6115
  647TIP3   OH223499   1.793   5.479   0.869  0.3382 -0.5193 -0.0201
  647TIP3    H123500   1.885   5.458   0.880  0.1705 -1.3476 -0.0674
  647TIP3    H223501   1.773   5.540   0.939  0.9951 -0.0762 -0.2117
  648TIP3   OH223502   3.694   5.092   0.382  0.3572  0.3048 -0.5598
  648TIP3    H123503   3.756   5.020   0.376  1.5439  1.3509 -1.2786
  648TIP3    H223504   3.686   5.109   0.476  1.6223  0.5352 -0.4814
  649TIP3   OH223505   1.019   2.748   7.107  0.3025  0.1689  0.4738
  649TIP3    H123506   0.947   2.715   7.161  0.7833 -1.0501  0.4032
  649TIP3    H223507   0.988   2.833   7.075 -1.5847 -0.8088 -0.4742
  650TIP3   OH223508   6.428   3.363   8.332 -0.4631 -0.2326 -0.2365
  650TIP3    H123509   6.523   3.365   8.329 -0.4524 -0.8545 -0.4652
  650TIP3    H223510   6.406   3.376   8.424 -0.2106  1.1974 -0.3430
  651TIP3   OH223511   5.043   1.463   8.199 -0.2934  0.5650  0.2157
  651TIP3    H123512   5.098   1.436   8.272  2.0215  0.1856 -1.5293
  651TIP3    H223513   4.981   1.526   8.237 -0.0023 -0.5108  2.6640
  652TIP3   OH223514   0.652   3.010   8.756 -0.0814  0.0640  0.0281
  652TIP3    H123515   0.630   3.101   8.735 -0.0906 -0.1673 -1.0171
  652TIP3    H223516   0.734   3.016   8.804 -0.3185  0.6550  0.3764
  653TIP3   OH223517   1.588   4.839   2.187  0.1376  0.2811  0.0547
  653TIP3    H123518   1.537   4.920   2.183  0.3262  0.3705 -2.8061
  653TIP3    H223519   1.672   4.865   2.226 -0.6112  0.9224  1.2935
  654TIP3   OH223520   5.398   0.888   8.344 -0.2552  0.5106  0.8072
  654TIP3    H123521   5.375   0.928   8.428  0.0372 -2.7371  2.5650
  654TIP3    H223522   5.491   0.867   8.353 -0.3499 -0.3514 -0.1061
  655TIP3   OH223523   0.403   6.748   1.093 -0.0882  0.5070 -0.1768
  655TIP3    H123524   0.424   6.667   1.139  0.4065  0.6652 -0.1137
  655TIP3    H223525   0.472   6.756   1.027 -0.2729  0.7511 -0.3408
  656TIP3   OH223526   1.178   4.789   7.535 -0.2074  1.0934  0.5091
  656TIP3    H123527   1.177   4.878   7.499  0.5569  0.6201 -0.7292
  656TIP3    H223528   1.259   4.751   7.502 -1.7513 -0.9430 -1.1728
  657TIP3   OH223529   0.399   1.545   1.398 -0.0488 -0.0120 -0.0250
  657TIP3    H123530   0.307   1.568   1.410  0.0972 -0.0518  1.2594
  657TIP3    H223531   0.423   1.498   1.478  0.9452 -0.4736 -0.5806
  658TIP3   OH223532   6.294   0.276   1.593 -0.2935 -0.2389 -0.0022
  658TIP3    H123533   6.258   0.348   1.643  1.6226 -0.2487  1.5203
  658TIP3    H223534   6.294   0.201   1.653 -0.2143 -0.9258 -0.8225
  659TIP3   OH223535   1.003   3.053   7.598 -0.6445 -0.4311  0.7327
  659TIP3    H123536   1.022   3.133   7.549  0.2562 -1.6570 -1.0294
  659TIP3    H223537   0.919   3.023   7.564  0.5738 -1.9774 -1.1757
  660TIP3   OH223538   0.284   2.871   0.758 -0.7027 -0.6892 -0.0557
  660TIP3    H123539   0.251   2.852   0.846 -1.8526 -0.7940 -0.4909
  660TIP3    H223540   0.241   2.805   0.702  0.7688 -1.2558 -0.5623
  661TIP3   OH223541   1.171   0.241   7.121  0.2971  0.1666  0.0498
  661TIP3    H123542   1.153   0.189   7.199 -0.4068  0.0490 -0.1819
  661TIP3    H223543   1.243   0.299   7.146 -0.7008  0.9653  1.1734
  662TIP3   OH223544   2.716   0.133   7.498  0.2959 -0.3400  0.5598
  662TIP3    H123545   2.709   0.191   7.423  1.7512 -0.9307 -0.0642
  662TIP3    H223546   2.651   0.064   7.482 -0.5106  0.3858  0.6582
  663TIP3   OH223547   5.334   6.082   0.766  0.1406  1.0538  0.6191
  663TIP3    H123548   5.389   6.068   0.688  1.1511  1.3040  1.2710
  663TIP3    H223549   5.326   6.177   0.772 -1.9392  1.0063 -0.5208
  664TIP3   OH223550   3.266   6.529   6.697 -0.1976  0.4177  0.5048
  664TIP3    H123551   3.347   6.568   6.663  1.1903 -2.9928 -0.5370
  664TIP3    H223552   3.199   6.556   6.634  0.4141  1.9426  0.4606
  665TIP3   OH223553   5.189   5.936   1.459 -0.1513  0.1623  0.2745
  665TIP3    H123554   5.096   5.959   1.450  0.1445  1.1439 -0.4450
  665TIP3    H223555   5.211   5.961   1.548 -0.7096 -0.5699  0.6244
  666TIP3   OH223556   1.638   5.859   0.536 -0.3899 -0.5416 -0.4354
  666TIP3    H123557   1.547   5.871   0.562 -0.3725 -1.6448  0.1965
  666TIP3    H223558   1.669   5.786   0.590  0.6291 -0.7075 -1.2091
  667TIP3   OH223559   4.685   1.788   7.721  0.3263  0.3902  0.0003
  667TIP3    H123560   4.736   1.726   7.774  0.8865 -0.0575 -1.0220
  667TIP3    H223561   4.702   1.873   7.761  1.4308  0.1722  0.0359
  668TIP3   OH223562   3.522   0.930   0.729 -0.6308 -0.3010  0.2771
  668TIP3    H123563   3.573   0.996   0.774 -0.6527  0.3929 -0.6864
  668TIP3    H223564   3.580   0.854   0.725 -0.9507 -0.7127  2.2414
  669TIP3   OH223565   4.001   6.289   7.671 -0.4425  0.2331  0.0452
  669TIP3    H123566   4.034   6.202   7.648  0.2928  0.7649 -1.0162
  669TIP3    H223567   3.922   6.299   7.618 -0.9228 -0.0664  0.7052
  670TIP3   OH223568   1.507   5.370   2.373 -0.5369 -0.1289  0.2018
  670TIP3    H123569   1.496   5.365   2.278  1.8402 -1.4594 -0.0908
  670TIP3    H223570   1.523   5.463   2.390  0.0556 -0.0056 -0.8827
  671TIP3   OH223571   3.441   2.724   0.384  0.1589 -0.2604  0.3462
  671TIP3    H123572   3.406   2.636   0.370 -0.2939  0.1495 -1.3549
  671TIP3    H223573   3.381   2.782   0.337  1.5157  0.7474 -0.2114
  672TIP3   OH223574   1.984   3.398   0.852  0.2264 -0.6255 -0.0974
  672TIP3    H123575   1.977   3.488   0.886 -2.2507 -0.9763  0.4835
  672TIP3    H223576   1.927   3.346   0.909  1.2461 -2.5235 -0.7120
  673TIP3   OH223577   1.332   6.381   8.294 -0.4473 -0.4037 -0.1740
  673TIP3    H123578   1.334   6.351   8.203  0.8852 -0.2433 -0.2079
  673TIP3    H223579   1.403   6.444   8.300 -0.6841 -0.2299  0.9299
  674TIP3   OH223580   2.240   6.298   0.116  0.2033 -1.2262 -0.5635
  674TIP3    H123581   2.255   6.389   0.093 -0.4033 -0.6236  1.2157
  674TIP3    H223582   2.326   6.263   0.138  0.1414 -0.1295  1.7596
  675TIP3   OH223583   1.694   2.259   0.787  0.5024 -0.0524  0.7500
  675TIP3    H123584   1.662   2.216   0.866 -0.3518  1.0060  0.9887
  675TIP3    H223585   1.693   2.352   0.807  1.4852  0.1560 -0.0764
  676TIP3   OH223586   4.157   1.744   2.111 -0.0531  0.8493 -0.0338
  676TIP3    H123587   4.180   1.815   2.052 -0.8991  0.0127 -1.4421
  676TIP3    H223588   4.234   1.687   2.111  1.2998  2.5106  2.4156
  677TIP3   OH223589   5.963   1.063   7.529  0.3997 -0.5245 -0.8409
  677TIP3    H123590   5.971   0.976   7.488  0.4307 -0.5391 -0.8043
  677TIP3    H223591   5.968   1.046   7.623 -2.2178 -0.7794 -0.6808
  678TIP3   OH223592   1.234   2.215   2.160 -0.3874  0.0396  1.2052
  678TIP3    H123593   1.265   2.275   2.093 -0.8463  0.1867  1.1224
  678TIP3    H223594   1.233   2.267   2.241 -1.8366  0.4828  0.9331
  679TIP3   OH223595   6.054   5.448   7.485  0.1857  0.2161  0.3828
  679TIP3    H123596   6.104   5.368   7.469  0.4475  0.5764 -0.7435
  679TIP3    H223597   6.007   5.464   7.402 -1.1562  0.3363  1.1330
  680TIP3   OH223598   0.278   5.719   0.129 -0.3744  0.5475 -0.1766
  680TIP3    H123599   0.298   5.625   0.128 -0.7597  0.4635 -1.6520
  680TIP3    H223600   0.280   5.742   0.222 -0.5966 -0.9899  0.2463
  681TIP3   OH223601   0.295   3.427   1.454 -0.4617 -0.1207  0.2822
  681TIP3    H123602   0.366   3.485   1.426 -1.1428  0.5554 -0.0984
  681TIP3    H223603   0.300   3.426   1.549 -0.4191  0.5321  0.2875
  682TIP3   OH223604   0.141   4.857   2.223 -0.0862  0.0598 -0.3104
  682TIP3    H123605   0.144   4.949   2.248  0.6996  0.2230 -0.9878
  682TIP3    H223606   0.143   4.857   2.128  1.4172 -0.7018 -0.3020
  683TIP3   OH223607   6.228   3.547   8.220 -0.2822 -0.5923 -0.2039
  683TIP3    H123608   6.309   3.521   8.264 -0.0154 -0.2270 -0.4723
  683TIP3    H223609   6.179   3.595   8.287  0.5815  0.8776 -0.5746
  684TIP3   OH223610   6.555   4.901   0.163 -0.6899 -0.0839 -0.3778
  684TIP3    H123611   6.554   4.811   0.129  1.5940  0.4570 -2.1714
  684TIP3    H223612   6.598   4.952   0.095  0.9983  1.7950  1.9128
  685TIP3   OH223613   0.089   0.559   2.018 -0.4782  0.2898 -0.5147
  685TIP3    H123614   0.075   0.547   1.924  0.0015 -2.4691 -0.3175
  685TIP3    H223615   0.006   0.531   2.058 -1.2061  2.7848 -0.0914
  686TIP3   OH223616   6.649   5.710   7.815  0.4006  0.4224  0.6687
  686TIP3    H123617   6.680   5.748   7.733  0.1078  0.0478  0.3805
  686TIP3    H223618   6.618   5.784   7.867 -1.3887  0.4868 -0.4050
  687TIP3   OH223619   4.310   5.402   0.594  0.5735 -0.6019  0.0195
  687TIP3    H123620   4.247   5.338   0.626 -1.6845 -0.0378 -2.8698
  687TIP3    H223621   4.332   5.373   0.506  0.1137  2.0624 -1.0866
  688TIP3   OH223622   3.990   4.235   8.313 -0.0232 -0.1626 -0.0360
  688TIP3    H123623   3.965   4.182   8.389  0.1454  1.0312  0.8760
  688TIP3    H223624   4.005   4.171   8.244 -0.0466 -1.2992  0.9680
  689TIP3   OH223625   5.298   2.721   8.472  0.2357 -0.0465 -0.2237
  689TIP3    H123626   5.266   2.748   8.386  2.3572  2.3552 -0.3832
  689TIP3    H223627   5.390   2.749   8.474  0.4890 -0.7195  2.5400
  690TIP3   OH223628   4.384   2.750   1.772  0.1128  0.1647 -0.4274
  690TIP3    H123629   4.317   2.682   1.768 -0.5926  0.7611  0.6460
  690TIP3    H223630   4.354   2.809   1.841  0.4437  1.8378 -1.6330
  691TIP3   OH223631   4.332   0.045   7.476 -0.4044 -0.4334  0.3035
  691TIP3    H123632   4.348   0.036   7.382 -0.1936  0.6206  0.2264
  691TIP3    H223633   4.387  -0.022   7.517  0.1715 -0.3171 -0.2768
  692TIP3   OH223634   2.942   3.296   1.679 -0.1764  0.0886  0.7247
  692TIP3    H123635   2.967   3.281   1.771  2.7229  1.2070  0.2247
  692TIP3    H223636   2.899   3.381   1.679 -0.0915  0.1324  1.0226
  693TIP3   OH223637   1.220   1.131   1.910  0.2091 -0.2288 -0.3165
  693TIP3    H123638   1.291   1.093   1.859  1.0451  0.2804  0.4428
  693TIP3    H223639   1.224   1.085   1.994 -0.3524 -0.1792 -0.2577
  694TIP3   OH223640   5.906   0.726   0.735 -0.0604  0.2020  0.2211
  694TIP3    H123641   5.983   0.764   0.694  0.0791 -1.3327 -1.0621
  694TIP3    H223642   5.937   0.692   0.819  0.8985 -1.1097 -0.6223
  695TIP3   OH223643   2.138   2.505   1.237 -0.5557  0.2181  0.2345
  695TIP3    H123644   2.072   2.440   1.264 -1.9159  1.6510  0.5051
  695TIP3    H223645   2.147   2.562   1.313 -0.3211  1.0832 -0.4348
  696TIP3   OH223646   3.463   2.035   0.865  0.0625 -0.0658  0.0862
  696TIP3    H123647   3.447   1.974   0.937 -1.7529 -0.9901 -1.0539
  696TIP3    H223648   3.377   2.056   0.831  0.7816  1.6136 -0.8417
  697TIP3   OH223649   1.850   0.081   0.966 -0.0172  0.7336 -0.3597
  697TIP3    H123650   1.844   0.069   1.060 -1.4868 -0.8747 -0.5945
  697TIP3    H223651   1.861   0.175   0.953  1.7150  0.8289  1.4328
  698TIP3   OH223652   4.577   1.978   0.172  0.4530  0.0455  0.0050
  698TIP3    H123653   4.515   2.035   0.218  0.8238  0.6011 -0.1721
  698TIP3    H223654   4.656   2.031   0.163 -0.1469  0.6127 -2.8178
  699TIP3   OH223655   6.132   1.845   0.378 -0.6337  0.3175  0.6110
  699TIP3    H123656   6.072   1.893   0.435 -1.3979  0.6420 -0.4431
  699TIP3    H223657   6.078   1.778   0.337 -0.3332  0.7445 -0.5137
  700TIP3   OH223658   4.445   0.889   0.350 -0.7406 -0.4133  0.0112
  700TIP3    H123659   4.367   0.924   0.306 -0.1462 -0.6382 -1.2611
  700TIP3    H223660   4.506   0.962   0.352 -0.0238 -0.9331 -1.3840
  701TIP3   OH223661   4.438   5.771   8.651 -0.2886 -0.0735  0.6641
  701TIP3    H123662   4.425   5.774   8.746  0.5298 -1.9250  0.8905
  701TIP3    H223663   4.501   5.700   8.638 -1.4102 -0.7784 -1.3633
  702TIP3   OH223664   4.389   0.361   1.607 -0.0016 -0.3536  0.0361
  702TIP3    H123665   4.411   0.374   1.699  0.4505  0.0465 -0.1231
  702TIP3    H223666   4.419   0.272   1.587  0.8932 -0.0469 -0.0060
  703TIP3   OH223667   2.233   5.983   7.084 -0.2284 -0.4578  0.5821
  703TIP3    H123668   2.194   5.904   7.121 -1.7023  0.4591  1.0840
  703TIP3    H223669   2.282   5.953   7.007 -0.7919 -1.8384  0.7496
  704TIP3   OH223670   5.968   4.455   2.267 -0.5977 -0.5954 -0.2099
  704TIP3    H123671   5.979   4.548   2.289  0.2164 -0.6041 -0.5619
  704TIP3    H223672   6.013   4.445   2.183 -1.3242 -1.1513 -0.5448
  705TIP3   OH223673   3.357   6.591   8.157 -0.1335  0.2360  0.1197
  705TIP3    H123674   3.331   6.570   8.247  0.3896  2.1018  0.7477
  705TIP3    H223675   3.310   6.527   8.103 -2.9266  0.9917  1.4732
  706TIP3   OH223676   0.677   4.944   1.528 -0.3355  0.2515 -0.3052
  706TIP3    H123677   0.588   4.960   1.498 -0.2631 -0.6364 -1.0303
  706TIP3    H223678   0.671   4.864   1.581 -0.0498  0.4587  0.0487
  707TIP3   OH223679   6.077   4.602   8.300 -0.7842  0.4178 -0.0599
  707TIP3    H123680   6.012   4.631   8.236 -1.1111  0.5770  0.3433
  707TIP3    H223681   6.077   4.506   8.292  0.7219  0.4864 -1.8107
  708TIP3   OH223682   2.242   3.522   6.618  0.3896 -0.1020 -0.1166
  708TIP3    H123683   2.182   3.549   6.549  1.9797  0.7108 -1.2463
  708TIP3    H223684   2.233   3.427   6.623  0.5712 -0.2282 -1.7762
  709TIP3   OH223685   6.283   3.095   0.062 -0.2993  0.4805 -0.0032
  709TIP3    H123686   6.307   3.005   0.085 -1.0338  0.3363  0.2356
  709TIP3    H223687   6.294   3.143   0.144 -2.7143  0.0090  0.6642
  710TIP3   OH223688   5.673   6.184   8.101 -0.7250  0.7218 -0.2828
  710TIP3    H123689   5.729   6.250   8.061 -0.6245  1.5280  1.1291
  710TIP3    H223690   5.709   6.101   8.070  1.2228  1.2110  0.4994
  711TIP3   OH223691   3.454   3.793   8.263 -0.1489  0.2559 -0.9235
  711TIP3    H123692   3.440   3.700   8.281  0.3434  0.4062  0.3952
  711TIP3    H223693   3.546   3.799   8.238 -0.0091  0.4545 -0.3825
  712TIP3   OH223694   2.217   2.605   8.864  0.2087 -0.1279 -0.0292
  712TIP3    H123695   2.273   2.568   8.933  0.9831 -0.7154 -0.9494
  712TIP3    H223696   2.148   2.651   8.912 -0.6592 -2.5123  1.2072
  713TIP3   OH223697   0.887   4.642   0.938 -0.1856 -0.1737 -0.7089
  713TIP3    H123698   0.815   4.607   0.990  0.6766  0.4846  0.9860
  713TIP3    H223699   0.946   4.568   0.925 -0.0027 -0.1573 -0.0109
  714TIP3   OH223700   1.818   5.844   8.012  0.1008 -0.3787 -0.6439
  714TIP3    H123701   1.809   5.799   7.928 -1.2039  1.0425 -1.3084
  714TIP3    H223702   1.765   5.792   8.073 -1.1537  0.0430 -1.3362
  715TIP3   OH223703   3.713   5.528   2.033 -0.0874 -0.2807 -0.2739
  715TIP3    H123704   3.629   5.572   2.046  0.5130  0.9833 -0.5200
  715TIP3    H223705   3.698   5.438   2.063 -1.7470 -0.2989 -1.0665
  716TIP3   OH223706   3.180   1.217   8.061  0.7694  0.4628  0.2063
  716TIP3    H123707   3.269   1.213   8.027  0.3759 -2.7442 -0.8560
  716TIP3    H223708   3.164   1.130   8.097 -1.4462  1.4212  1.7728
  717TIP3   OH223709   1.994   3.516   7.825 -0.0883  0.1844  0.4572
  717TIP3    H123710   1.977   3.425   7.800  0.7718 -0.1458  1.0428
  717TIP3    H223711   1.934   3.533   7.898  1.3698 -0.6893  1.9221
  718TIP3   OH223712   3.599   5.175   0.641  0.2469  0.0562 -0.0078
  718TIP3    H123713   3.573   5.152   0.730 -0.5191 -1.0731 -0.4881
  718TIP3    H223714   3.682   5.221   0.651  0.4469 -0.5219  1.2518
  719TIP3   OH223715   5.752   6.397   8.531  0.1784 -0.0607  0.1953
  719TIP3    H123716   5.826   6.417   8.588 -0.9106 -2.4361  2.7042
  719TIP3    H223717   5.691   6.470   8.544 -0.2603 -0.7540  2.6400
  720TIP3   OH223718   6.570   0.502   0.969  0.5315 -0.6888  0.5381
  720TIP3    H123719   6.590   0.502   1.062 -1.1887 -0.7722  0.9403
  720TIP3    H223720   6.610   0.582   0.935 -0.7042  0.5126  1.8011
  721TIP3   OH223721   2.497   1.673   8.784 -0.3933 -0.0585  0.6253
  721TIP3    H123722   2.549   1.719   8.849  2.5872 -1.2299 -0.7457
  721TIP3    H223723   2.522   1.712   8.701 -0.5619 -1.6623 -0.2249
  722TIP3   OH223724   6.271   5.806   8.460 -0.3989  0.3852 -0.0760
  722TIP3    H123725   6.275   5.718   8.422 -0.0391 -0.3604  1.5946
  722TIP3    H223726   6.178   5.820   8.477 -0.6570  1.0392 -1.8632
  723TIP3   OH223727   5.591   6.137   0.288  0.0277 -0.2812 -0.2966
  723TIP3    H123728   5.606   6.169   0.377  1.4338  2.0648 -1.2776
  723TIP3    H223729   5.511   6.085   0.294 -0.2563  0.3407  2.2120
  724TIP3   OH223730   2.827   4.031   1.624 -0.3440  0.3192 -0.1963
  724TIP3    H123731   2.880   4.083   1.564 -0.0284  4.0555  2.9614
  724TIP3    H223732   2.740   4.030   1.585  0.2318  1.0144 -1.5587
  725TIP3   OH223733   5.105   0.883   1.901 -0.0724  0.2885  0.2334
  725TIP3    H123734   5.160   0.951   1.861 -1.2625  1.8165  1.0736
  725TIP3    H223735   5.121   0.805   1.848  0.5827  1.4744 -1.4151
  726TIP3   OH223736   5.000   2.987   8.843 -0.7090  0.5054 -0.5554
  726TIP3    H123737   4.914   2.947   8.853  0.2678 -1.5006  0.3556
  726TIP3    H223738   5.037   2.987   8.931  0.0088  1.9514 -0.8146
  727TIP3   OH223739   4.076   1.346   8.714 -0.1084 -0.6168  0.0526
  727TIP3    H123740   4.003   1.285   8.709 -0.1800 -0.5256 -0.0161
  727TIP3    H223741   4.037   1.429   8.738 -0.0845 -0.4669 -0.4169
  728TIP3   OH223742   0.676   1.670   8.796 -0.2103  0.2922 -1.1390
  728TIP3    H123743   0.587   1.636   8.786 -0.6712  0.3771  1.8105
  728TIP3    H223744   0.674   1.719   8.878  2.5988  0.1679 -0.8999
  729TIP3   OH223745   0.793   5.608   1.486  0.6041 -0.7716 -0.2688
  729TIP3    H123746   0.723   5.594   1.550  1.2727 -1.3137  0.3557
  729TIP3    H223747   0.868   5.634   1.539  0.4867  1.3663 -1.0568
  730TIP3   OH223748   0.335   3.249   0.966 -0.3897 -0.1827  0.4120
  730TIP3    H123749   0.268   3.297   1.015  1.0531  0.2072  2.1466
  730TIP3    H223750   0.334   3.161   1.003 -0.3211 -0.3358  0.0567
  731TIP3   OH223751   2.935   3.473   0.445 -0.1830 -0.3763  0.2802
  731TIP3    H123752   2.971   3.558   0.418  0.1415 -1.0719 -1.6903
  731TIP3    H223753   2.949   3.417   0.368 -1.3230 -1.9277  1.1685
  732TIP3   OH223754   5.263   2.279   8.380  0.1818 -0.1001 -1.0787
  732TIP3    H123755   5.349   2.244   8.402 -0.0494 -0.5741 -0.9172
  732TIP3    H223756   5.272   2.311   8.290  0.8257  0.8450 -0.6968
  733TIP3   OH223757   2.453   2.996   0.262  0.0234 -0.2384 -0.0221
  733TIP3    H123758   2.367   3.033   0.240  0.1466  0.6333  0.9078
  733TIP3    H223759   2.438   2.945   0.341  0.0015 -1.6658 -0.9056
  734TIP3   OH223760   0.520   0.347   2.182 -0.5425 -0.3627 -0.3200
  734TIP3    H123761   0.612   0.362   2.160 -1.0152  0.2231 -2.0308
  734TIP3    H223762   0.486   0.294   2.111 -1.5317 -0.6105  0.3141
  735TIP3   OH223763   2.229   2.497   6.792 -0.5663 -0.5842 -0.1988
  735TIP3    H123764   2.224   2.541   6.707  1.0682  0.5783  0.2649
  735TIP3    H223765   2.252   2.407   6.770 -0.1528 -0.2956 -0.9943
  736TIP3   OH223766   5.210   2.445   7.062 -0.0679  0.3859 -0.9492
  736TIP3    H123767   5.264   2.380   7.016 -2.5124 -1.9672 -0.6735
  736TIP3    H223768   5.231   2.433   7.154 -0.5892 -0.0929 -0.8909
  737TIP3   OH223769   4.325   3.823   7.302  0.7330  0.1131 -0.4008
  737TIP3    H123770   4.273   3.804   7.380  0.5596 -1.7290 -0.9212
  737TIP3    H223771   4.358   3.738   7.273  0.5389  0.6888 -2.5200
  738TIP3   OH223772   6.580   4.031   2.224 -0.1863  0.6469 -0.5500
  738TIP3    H123773   6.530   3.950   2.218 -0.5530  0.9316 -1.3742
  738TIP3    H223774   6.580   4.052   2.318 -1.7141  0.7099 -0.5366
  739TIP3   OH223775   2.599   5.604   6.371 -0.4120  0.2369  0.0919
  739TIP3    H123776   2.688   5.640   6.378  0.5179 -1.3675 -2.0170
  739TIP3    H223777   2.574   5.583   6.461  1.3494  0.7442  0.7397
  740TIP3   OH223778   4.286   1.295   8.556  0.5707  0.1628 -0.1089
  740TIP3    H123779   4.210   1.292   8.614  0.9067 -1.4350  0.3010
  740TIP3    H223780   4.298   1.388   8.537 -1.3774  0.4682 -0.0703
  741TIP3   OH223781   5.550   5.778   7.531  0.3433 -0.1146 -0.4701
  741TIP3    H123782   5.635   5.734   7.525  1.0756  0.9762  1.0805
  741TIP3    H223783   5.564   5.863   7.488  0.2231  0.2869  0.2580
  742TIP3   OH223784   3.440   5.358   7.652  0.3471 -0.4053 -0.0811
  742TIP3    H123785   3.390   5.280   7.630  0.6563 -0.4110 -0.8233
  742TIP3    H223786   3.471   5.343   7.741 -0.5129 -0.6379  0.1841
  743TIP3   OH223787   0.016   3.263   0.913 -0.3690 -0.3201  0.6882
  743TIP3    H123788  -0.071   3.271   0.874 -0.7463  1.0929  1.7146
  743TIP3    H223789   0.066   3.335   0.873  0.2558 -0.9634  0.3012
  744TIP3   OH223790   0.883   4.142   7.339  0.3375 -0.1330 -0.0652
  744TIP3    H123791   0.868   4.080   7.411 -0.6326 -1.5964 -1.4538
  744TIP3    H223792   0.923   4.218   7.381  0.6719 -1.3009  1.8730
  745TIP3   OH223793   4.141   4.791   1.149  0.4915 -0.1152  0.4329
  745TIP3    H123794   4.230   4.762   1.171  0.5015 -0.9851 -0.7068
  745TIP3    H223795   4.154   4.864   1.089  0.4495 -1.1104 -0.8153
  746TIP3   OH223796   4.702   1.464   8.153  0.1964  0.3296 -0.4084
  746TIP3    H123797   4.761   1.390   8.166  0.8463  0.6710 -1.2780
  746TIP3    H223798   4.738   1.534   8.207 -1.3220 -0.3934  1.7139
  747TIP3   OH223799   0.295   5.391   1.618 -0.5544  0.1820  0.4039
  747TIP3    H123800   0.202   5.373   1.608 -0.7291  0.1340  1.9030
  747TIP3    H223801   0.331   5.311   1.656  0.3815 -0.3182 -1.4118
  748TIP3   OH223802   6.132   0.002   8.072 -0.7673  0.5238 -0.5814
  748TIP3    H123803   6.057   0.061   8.071  0.3857  2.0635 -0.9448
  748TIP3    H223804   6.169   0.008   7.983  0.5273  0.8384 -0.0495
  749TIP3   OH223805   2.613   4.256   7.142 -0.3846  0.0883 -0.2927
  749TIP3    H123806   2.642   4.257   7.051  0.1503 -0.6017 -0.1358
  749TIP3    H223807   2.629   4.345   7.173 -0.4398  0.2914 -0.8251
  750TIP3   OH223808   2.652   3.631   0.985 -0.2792  0.1240  0.4147
  750TIP3    H123809   2.629   3.665   1.072  0.1002 -0.4706  0.7492
  750TIP3    H223810   2.644   3.707   0.927 -3.9971 -0.1590  0.2974
  751TIP3   OH223811   5.359   6.406   7.571 -0.7038  0.6283  0.1530
  751TIP3    H123812   5.400   6.491   7.556  1.6362 -0.0053  2.2483
  751TIP3    H223813   5.386   6.353   7.497 -2.0068  1.5973 -1.0607
  752TIP3   OH223814   0.025   4.959   1.836 -0.1982 -0.1968 -0.7000
  752TIP3    H123815  -0.066   4.949   1.808 -0.0522 -0.1759 -1.1861
  752TIP3    H223816   0.028   5.046   1.875 -0.1939  0.1482 -1.4534
  753TIP3   OH223817   1.414   0.915   7.535  0.0266  0.1708  0.5717
  753TIP3    H123818   1.410   1.010   7.547  0.4468  0.2460  0.1586
  753TIP3    H223819   1.450   0.881   7.617  1.7565  0.5602  0.0243
  754TIP3   OH223820   4.302   0.664   7.692 -0.3829  0.1434 -0.3821
  754TIP3    H123821   4.266   0.595   7.748 -0.0591 -0.1093 -0.4872
  754TIP3    H223822   4.263   0.745   7.726  0.3794  0.0824  0.6723
  755TIP3   OH223823   6.028   1.572   7.171 -0.1464 -0.2969  0.7962
  755TIP3    H123824   6.080   1.507   7.219 -0.2653 -0.0981  1.1963
  755TIP3    H223825   5.981   1.620   7.239 -0.9940 -0.5874  0.4344
  756TIP3   OH223826   5.637   5.916   6.723  0.1585 -0.0609  0.3919
  756TIP3    H123827   5.709   5.948   6.777  0.0671  0.1132  0.4077
  756TIP3    H223828   5.561   5.914   6.782 -0.1394  0.9249  0.0552
  757TIP3   OH223829   5.807   4.951   0.985 -0.2005  0.1889 -0.1049
  757TIP3    H123830   5.862   4.994   0.920  1.4518 -2.1900 -0.4340
  757TIP3    H223831   5.824   4.998   1.066 -2.2917  3.2109 -1.2460
  758TIP3   OH223832   0.258   1.988   0.334  0.1364 -0.5672 -0.2769
  758TIP3    H123833   0.199   1.929   0.288 -0.5860 -0.2377  0.2039
  758TIP3    H223834   0.239   2.075   0.298 -0.3475 -0.3251  0.5355
  759TIP3   OH223835   3.582   4.412   8.049  0.0646  0.1123 -0.7426
  759TIP3    H123836   3.531   4.386   8.125  1.1309  1.3757  0.4596
  759TIP3    H223837   3.660   4.453   8.085  1.4144 -0.7510 -2.5283
  760TIP3   OH223838   3.052   3.896   1.392 -0.0410  0.5111  0.0553
  760TIP3    H123839   3.076   3.912   1.301 -0.5906  0.1549 -0.1526
  760TIP3    H223840   2.957   3.887   1.391  0.1330 -2.0675  0.2313
  761TIP3   OH223841   0.980   5.170   1.143  0.4170 -0.1151  0.4416
  761TIP3    H123842   0.915   5.225   1.187  1.9242  1.4395  0.8320
  761TIP3    H223843   0.953   5.080   1.164 -1.4678  0.4872  0.7452
  762TIP3   OH223844   4.070   5.011   0.248 -1.0554  0.8436  0.2622
  762TIP3    H123845   4.111   5.056   0.322 -0.5600  0.1517  0.4235
  762TIP3    H223846   4.084   5.069   0.173 -0.3968  0.9470  0.4599
  763TIP3   OH223847   0.758   0.160   1.292 -0.4120  0.2177  0.7275
  763TIP3    H123848   0.748   0.249   1.326  1.4682  0.3862  0.9512
  763TIP3    H223849   0.713   0.104   1.356 -2.0945  1.0191  0.2914
  764TIP3   OH223850   0.116   5.027   1.311  0.0329 -0.1050 -0.3004
  764TIP3    H123851   0.137   5.021   1.404  0.0788 -3.2991 -0.4139
  764TIP3    H223852   0.129   5.119   1.289  2.5125  0.2802  2.2723
  765TIP3   OH223853   1.769   2.002   6.811  0.1830 -0.2225 -0.4797
  765TIP3    H123854   1.755   2.075   6.749  2.2134 -0.2941 -1.0993
  765TIP3    H223855   1.750   1.924   6.759  0.8761 -0.2434 -0.7030
  766TIP3   OH223856   2.111   2.991   0.121 -0.3607 -0.5528  0.0280
  766TIP3    H123857   2.062   2.911   0.139 -1.2855 -0.1871 -0.7385
  766TIP3    H223858   2.126   2.990   0.026  1.3108 -0.7403  0.2654
  767TIP3   OH223859   0.254   2.668   6.748  0.2981 -0.5436 -0.3219
  767TIP3    H123860   0.161   2.680   6.766  0.5137  0.7488  0.0007
  767TIP3    H223861   0.276   2.738   6.687  0.9364 -1.2152 -0.8809
  768TIP3   OH223862   4.678   0.918   1.494  1.0744 -0.1890  0.2835
  768TIP3    H123863   4.725   0.917   1.577  0.8476  3.4748  0.5973
  768TIP3    H223864   4.585   0.917   1.520  0.9970 -0.1927  0.0064
  769TIP3   OH223865   3.363   1.408   0.781  0.1198 -0.1557 -0.0623
  769TIP3    H123866   3.371   1.348   0.706 -1.8784 -0.4556 -0.0842
  769TIP3    H223867   3.365   1.351   0.858  1.3032  0.0733  0.0945
  770TIP3   OH223868   1.292   0.813   1.967 -0.8471 -0.5374 -0.0831
  770TIP3    H123869   1.231   0.817   1.893 -0.8073  3.9519 -0.1743
  770TIP3    H223870   1.238   0.824   2.044 -0.5064 -0.7391  0.1883
  771TIP3   OH223871   0.343   4.374   7.625 -0.7812 -0.3308  0.0756
  771TIP3    H123872   0.359   4.315   7.698  1.3738  1.7241  1.3963
  771TIP3    H223873   0.258   4.346   7.589 -0.1091 -3.8129  0.8976
  772TIP3   OH223874   4.072   0.671   1.846 -0.0088 -0.2847  0.1583
  772TIP3    H123875   4.052   0.676   1.753  0.8821 -0.2096 -0.0376
  772TIP3    H223876   4.107   0.757   1.868  1.3883 -0.8074  0.1528
  773TIP3   OH223877   1.843   4.867   0.403 -0.2924  0.1024 -0.3197
  773TIP3    H123878   1.902   4.879   0.477 -1.4779 -0.4434  0.7441
  773TIP3    H223879   1.756   4.876   0.440 -0.9191 -0.4685 -1.5956
  774TIP3   OH223880   3.297   6.323   0.364  0.1404  0.6603  0.0177
  774TIP3    H123881   3.234   6.271   0.314  1.1305 -0.7439  0.1816
  774TIP3    H223882   3.302   6.279   0.450  0.5505  1.3769  0.3684
  775TIP3   OH223883   6.266   5.429   0.170 -0.3734  0.3147  0.1148
  775TIP3    H123884   6.320   5.404   0.095 -1.3447  0.2616 -0.5754
  775TIP3    H223885   6.244   5.521   0.156 -2.3901 -0.2668 -0.8438
  776TIP3   OH223886   3.012   4.182   1.495 -0.4801 -0.3110  0.2108
  776TIP3    H123887   3.021   4.142   1.408  2.0335 -0.0284  0.2677
  776TIP3    H223888   2.993   4.274   1.477  0.3692 -0.1818 -0.0778
  777TIP3   OH223889   4.005   0.335   2.290 -0.5591  0.1414  0.7323
  777TIP3    H123890   4.075   0.309   2.349 -0.1218  1.9663  1.0636
  777TIP3    H223891   4.043   0.404   2.236 -0.3871 -2.5004 -2.8957
  778TIP3   OH223892   3.961   0.262   0.763  0.0003  0.1745 -0.0109
  778TIP3    H123893   3.890   0.294   0.708  0.6651  0.9271 -0.4519
  778TIP3    H223894   4.021   0.336   0.771 -0.2251  0.2076  2.0088
  779TIP3   OH223895   0.541   5.581   0.969  0.2239 -0.2392  0.0436
  779TIP3    H123896   0.605   5.545   1.030 -0.2974  0.0175  0.7525
  779TIP3    H223897   0.568   5.671   0.955 -0.6439  0.2222  1.2676
  780TIP3   OH223898   2.421   5.515   8.171  0.1593 -0.1983  0.2618
  780TIP3    H123899   2.385   5.601   8.195  1.6792  0.9904 -1.4201
  780TIP3    H223900   2.346   5.457   8.171 -0.5800  0.4557  3.9634
  781TIP3   OH223901   4.910   0.850   8.425 -0.2007 -0.0492  0.7305
  781TIP3    H123902   4.961   0.779   8.387  0.6062  0.6573  0.4743
  781TIP3    H223903   4.876   0.815   8.507 -1.1396 -1.2643 -0.1438
  782TIP3   OH223904   1.064   3.570   1.164 -0.2412 -0.2444 -0.1257
  782TIP3    H123905   1.012   3.646   1.137  0.7712  0.3092 -0.5649
  782TIP3    H223906   1.003   3.496   1.157 -0.5264  0.1362 -2.2415
  783TIP3   OH223907   5.781   5.028   0.494 -0.2510 -0.2122  0.3522
  783TIP3    H123908   5.708   4.975   0.526  0.2013 -1.1647 -0.1257
  783TIP3    H223909   5.795   4.997   0.404  0.1020  0.6523  0.0951
  784TIP3   OH223910   1.357   6.652   2.411 -0.6981 -0.1566 -0.2156
  784TIP3    H123911   1.288   6.599   2.372 -0.0143  0.0385 -1.7310
  784TIP3    H223912   1.312   6.702   2.480 -1.6465 -1.5235  0.2127
  785TIP3   OH223913   1.714   5.831   7.507  0.1251 -0.0479  0.2168
  785TIP3    H123914   1.706   5.850   7.413  0.4658  0.6703  0.3227
  785TIP3    H223915   1.635   5.781   7.528 -0.2018  0.2185 -0.3519
  786TIP3   OH223916   4.916   0.012   7.647 -1.0045  0.5274 -0.1526
  786TIP3    H123917   5.004   0.006   7.609 -0.9653  0.2816 -0.0247
  786TIP3    H223918   4.932   0.045   7.736 -1.1465  1.7703 -0.5614
  787TIP3   OH223919   2.681   5.508   1.573  0.1951  0.2050 -0.5127
  787TIP3    H123920   2.646   5.597   1.581 -0.2775 -0.0071 -0.1365
  787TIP3    H223921   2.662   5.483   1.483  0.3695  0.5013 -0.6327
  788TIP3   OH223922   5.493   2.467   1.904 -0.0714 -0.0665 -0.2101
  788TIP3    H123923   5.440   2.501   1.832 -0.1265 -1.7086 -1.0007
  788TIP3    H223924   5.442   2.486   1.983 -0.9335  0.0563 -0.7791
  789TIP3   OH223925   0.945   6.629   0.643 -0.0586  0.6304 -0.0316
  789TIP3    H123926   0.866   6.583   0.672  0.6642 -1.4653 -1.1374
  789TIP3    H223927   0.931   6.720   0.668 -1.7047 -0.1148  2.0811
  790TIP3   OH223928   4.289   5.852   7.630  0.1531  0.1391  0.0611
  790TIP3    H123929   4.321   5.769   7.594  1.8984  0.8465 -0.0991
  790TIP3    H223930   4.331   5.919   7.577 -2.0873  1.1674 -0.5250
  791TIP3   OH223931   5.428   6.720   8.846  0.2302 -0.3414  0.1544
  791TIP3    H123932   5.344   6.676   8.830 -0.9980  1.9622 -0.1456
  791TIP3    H223933   5.486   6.650   8.877 -0.7540 -2.7298 -2.8481
  792TIP3   OH223934   3.821   5.192   8.735  0.3367 -0.1508 -0.2961
  792TIP3    H123935   3.802   5.280   8.768  0.5003 -0.1677 -0.1557
  792TIP3    H223936   3.830   5.138   8.814  1.6835 -0.0011 -0.3181
  793TIP3   OH223937   5.304   2.526   2.118 -0.4654 -0.0526 -0.3463
  793TIP3    H123938   5.293   2.528   2.214  1.0991 -2.2494 -0.0662
  793TIP3    H223939   5.222   2.564   2.085 -1.6468 -0.4999  1.8224
  794TIP3   OH223940   3.736   1.853   8.739 -0.2191  0.1841  0.0864
  794TIP3    H123941   3.668   1.793   8.769 -0.0706 -0.7952 -1.4598
  794TIP3    H223942   3.789   1.802   8.677  0.5667  1.5855 -0.4526
  795TIP3   OH223943   3.644   0.831   1.829 -0.8991 -0.0747 -0.5872
  795TIP3    H123944   3.587   0.843   1.904 -1.8388 -1.2858 -1.0666
  795TIP3    H223945   3.667   0.919   1.801  0.7117  0.4397  1.9903
  796TIP3   OH223946   1.345   3.390   0.689 -0.4230  0.3888 -0.2003
  796TIP3    H123947   1.309   3.343   0.765  0.0143 -2.1431 -1.4551
  796TIP3    H223948   1.275   3.390   0.625  0.5138 -1.2459 -1.2886
  797TIP3   OH223949   6.229   0.682   0.213 -0.2465  0.3648 -0.1734
  797TIP3    H123950   6.288   0.665   0.139  1.9654  1.0272  1.3173
  797TIP3    H223951   6.235   0.776   0.227 -1.8658  0.4715 -0.0969
  798TIP3   OH223952   6.274   1.256   1.576 -0.1130  0.2280 -0.3190
  798TIP3    H123953   6.353   1.299   1.544 -0.2684  1.3105  0.6766
  798TIP3    H223954   6.291   1.163   1.564  0.5878  0.5056 -1.7435
  799TIP3   OH223955   4.477   5.148   7.391 -0.3604 -0.6172 -0.0172
  799TIP3    H123956   4.512   5.073   7.439  1.3172  0.3545  0.3744
  799TIP3    H223957   4.494   5.128   7.299  1.5990 -0.0301  0.1845
  800TIP3   OH223958   5.669   4.376   0.490 -0.0187 -0.0865  0.2066
  800TIP3    H123959   5.605   4.306   0.478 -1.2410  1.1436 -0.8316
  800TIP3    H223960   5.682   4.411   0.402 -0.3011  1.7114  0.8456
  801TIP3   OH223961   1.063   2.973   2.011  0.1402  0.4111 -0.3518
  801TIP3    H123962   1.032   2.921   2.085  0.8026  0.4321 -0.0476
  801TIP3    H223963   1.015   3.055   2.018 -0.7193 -0.0481 -0.6831
  802TIP3   OH223964   6.411   0.141   6.977  0.2897  0.3328 -0.0049
  802TIP3    H123965   6.455   0.068   6.935 -1.0299 -1.4823  1.5661
  802TIP3    H223966   6.476   0.211   6.979  1.9461 -1.1151 -0.7138
  803TIP3   OH223967   3.877   2.809   6.475 -0.5515 -0.5589 -0.0558
  803TIP3    H123968   3.787   2.778   6.483 -0.7968  0.6221  2.5642
  803TIP3    H223969   3.919   2.783   6.556  1.6725 -1.4947 -1.4138
  804TIP3   OH223970   1.033   2.527   2.011  0.0881  0.1206 -0.2891
  804TIP3    H123971   1.000   2.472   2.082 -1.5975 -2.1726 -2.6496
  804TIP3    H223972   0.987   2.610   2.022 -2.9188 -1.3551 -0.6022
  805TIP3   OH223973   2.450   3.914   1.038  0.4198 -0.7280  0.1573
  805TIP3    H123974   2.543   3.935   1.047 -0.2009  1.2364  3.1790
  805TIP3    H223975   2.435   3.843   1.101  0.0265 -1.8525 -1.1442
  806TIP3   OH223976   3.163   5.684   0.422  0.0699  1.0120 -0.5010
  806TIP3    H123977   3.230   5.743   0.457 -1.2357  1.4918  1.3252
  806TIP3    H223978   3.170   5.605   0.475 -0.6359  0.9841 -0.4330
  807TIP3   OH223979   0.409   4.878   0.415 -0.1449  0.0223  0.5602
  807TIP3    H123980   0.469   4.950   0.395 -0.7068  0.4506  0.4070
  807TIP3    H223981   0.455   4.825   0.480  0.6789 -0.0178 -0.0411
  808TIP3   OH223982   1.535   3.524   0.961 -0.4695  0.2593  0.0552
  808TIP3    H123983   1.532   3.562   0.873 -0.8804 -0.0648 -0.0734
  808TIP3    H223984   1.628   3.506   0.976 -0.2998  1.0682  0.0154
  809TIP3   OH223985   5.860   2.831   1.207 -0.3991 -0.1564 -0.6122
  809TIP3    H123986   5.837   2.920   1.179  0.2667  0.9556  2.0723
  809TIP3    H223987   5.943   2.840   1.252 -0.5896 -2.0454  0.2308
  810TIP3   OH223988   2.737   1.499   8.627  0.0916  0.3352  0.0379
  810TIP3    H123989   2.647   1.503   8.659  0.3306  1.2387  0.6475
  810TIP3    H223990   2.775   1.425   8.673 -0.0405  0.6188  0.6152
  811TIP3   OH223991   4.876   5.733   1.529 -0.0179 -0.1975 -0.3446
  811TIP3    H123992   4.829   5.814   1.544  1.9590  1.0524 -0.5093
  811TIP3    H223993   4.904   5.737   1.438  1.4358 -0.2796  0.0640
  812TIP3   OH223994   6.123   3.856   0.079 -0.2110  0.2838  0.3427
  812TIP3    H123995   6.202   3.807   0.057 -1.7508 -2.0055 -0.5401
  812TIP3    H223996   6.147   3.908   0.156  1.3974 -2.4757  1.8607
  813TIP3   OH223997   2.826   3.175   1.168  0.3944 -0.0992 -0.7052
  813TIP3    H123998   2.774   3.150   1.092 -0.4572  0.4899 -0.3376
  813TIP3    H223999   2.824   3.270   1.169 -1.8413 -0.0338  1.4559
  814TIP3   OH224000   3.343   3.784   7.857 -0.4432 -0.5870  0.2991
  814TIP3    H124001   3.315   3.848   7.923 -0.0149 -0.3353  0.2405
  814TIP3    H224002   3.397   3.722   7.906 -0.4001 -0.5879  0.2502
  815TIP3   OH224003   6.660   4.400   0.284 -0.2887  0.1918 -0.2630
  815TIP3    H124004   6.681   4.321   0.234  0.6779  0.4321 -0.2499
  815TIP3    H224005   6.732   4.460   0.265 -0.4935  0.6985  0.5395
  816TIP3   OH224006   4.476   0.692   7.983  0.0912  0.0724 -0.0760
  816TIP3    H124007   4.394   0.741   7.992  0.2235  0.5797 -1.4229
  816TIP3    H224008   4.448   0.603   7.961 -0.1199  0.3286 -0.9081
  817TIP3   OH224009   0.159   5.377   8.526  0.2078 -0.0960 -0.7155
  817TIP3    H124010   0.199   5.448   8.575 -0.5282 -0.2175  0.0890
  817TIP3    H224011   0.102   5.421   8.462 -0.0018  0.0426 -0.4330
  818TIP3   OH224012   6.663   1.692   7.211  0.0455  0.6343  0.7212
  818TIP3    H124013   6.641   1.765   7.152 -0.8194 -0.3755 -0.2444
  818TIP3    H224014   6.671   1.616   7.153  0.3031 -0.1697  1.7879
  819TIP3   OH224015   4.452   4.341   8.821  0.0709  0.1179 -0.2736
  819TIP3    H124016   4.501   4.263   8.797  0.7627  1.0229 -1.9398
  819TIP3    H224017   4.417   4.374   8.739 -1.4483  0.7718  0.5908
  820TIP3   OH224018   5.507   5.138   0.353  0.2240  0.2317  0.3067
  820TIP3    H124019   5.561   5.177   0.285  0.0789 -1.0497 -0.5883
  820TIP3    H224020   5.565   5.077   0.399  0.0792  0.4034  0.7259
  821TIP3   OH224021   2.456   2.745   8.497  0.2518  0.2258 -0.4837
  821TIP3    H124022   2.395   2.817   8.485  0.3155  0.6177  1.3014
  821TIP3    H224023   2.402   2.666   8.489 -0.6075  0.5726  1.3879
  822TIP3   OH224024   0.551   1.799   7.799 -0.9795  0.1442  0.2252
  822TIP3    H124025   0.618   1.857   7.835  0.4092  0.3662 -2.4859
  822TIP3    H224026   0.469   1.847   7.811 -0.1364  1.6802  0.0226
  823TIP3   OH224027   6.490   0.488   1.473 -0.1316  0.7195 -0.4367
  823TIP3    H124028   6.474   0.400   1.508  3.0203  0.9009  1.8392
  823TIP3    H224029   6.551   0.475   1.401 -0.7265  0.9555 -0.9899
  824TIP3   OH224030   5.966   0.767   1.824 -0.1880  0.1568  0.1562
  824TIP3    H124031   5.995   0.828   1.756  0.8774  1.6080  1.8294
  824TIP3    H224032   5.877   0.743   1.798  0.9349 -1.2298 -2.9663
  825TIP3   OH224033   2.580   0.166   8.129 -0.3376 -0.3149 -0.4321
  825TIP3    H124034   2.546   0.117   8.053 -0.4721 -0.1495 -0.4785
  825TIP3    H224035   2.634   0.234   8.090 -0.9649  0.2041 -0.4114
  826TIP3   OH224036   4.449   4.470   7.905  0.2501  0.5520 -0.7375
  826TIP3    H124037   4.535   4.473   7.863 -1.1288  1.0599 -3.7751
  826TIP3    H224038   4.456   4.400   7.970  2.7775  0.2234 -1.2612
  827TIP3   OH224039   1.897   4.391   6.878 -0.7400 -0.1754 -0.1012
  827TIP3    H124040   1.960   4.319   6.885 -0.3253  0.3506  2.3666
  827TIP3    H224041   1.933   4.447   6.808  1.9939  0.4475  1.6345
  828TIP3   OH224042   2.593   3.579   8.603  0.3485 -0.4920 -0.2702
  828TIP3    H124043   2.675   3.592   8.556  0.7324  0.0645  0.5479
  828TIP3    H224044   2.597   3.488   8.633  0.3188 -0.6995 -0.8722
  829TIP3   OH224045   4.807   3.913   6.314 -0.3469  0.1270  0.0110
  829TIP3    H124046   4.795   3.820   6.331  1.1111 -0.2424 -0.8062
  829TIP3    H224047   4.724   3.953   6.340 -1.1338 -1.4391  0.0305
  830TIP3   OH224048   6.718   0.113   0.958  0.3502 -0.0277  0.2329
  830TIP3    H124049   6.677   0.027   0.957  1.1399 -0.4489  1.3893
  830TIP3    H224050   6.660   0.168   0.906 -1.1328 -0.8253  0.9868
  831TIP3   OH224051   4.424   4.552   0.505 -0.3975 -0.0531 -0.7109
  831TIP3    H124052   4.374   4.481   0.545 -1.9198 -0.0024 -2.4065
  831TIP3    H224053   4.389   4.560   0.416  1.1385  1.4740 -1.2439
  832TIP3   OH224054   4.470   1.640   8.137  0.3211 -0.0086  0.0918
  832TIP3    H124055   4.463   1.687   8.054 -1.0125 -0.7978 -0.2766
  832TIP3    H224056   4.554   1.594   8.131  0.3802  0.1852 -0.6944
  833TIP3   OH224057   0.039   2.474   0.088 -0.0419 -0.5071  0.1798
  833TIP3    H124058  -0.020   2.402   0.112 -1.0728  0.1746 -0.2743
  833TIP3    H224059  -0.004   2.553   0.120 -0.2059  0.1742 -1.5891
  834TIP3   OH224060   4.937   4.157   8.204  0.0338  0.0784 -0.3447
  834TIP3    H124061   4.999   4.196   8.266 -0.3434 -0.1360  0.1755
  834TIP3    H224062   4.936   4.064   8.225 -0.7284  0.1302 -0.1053
  835TIP3   OH224063   3.120   4.603   0.917  0.4838  0.2578  0.2765
  835TIP3    H124064   3.069   4.663   0.862 -0.2032 -0.6018 -0.0624
  835TIP3    H224065   3.199   4.652   0.940  0.1227  1.1428 -0.3101
  836TIP3   OH224066   6.037   2.086   0.003 -0.3034 -0.3799  0.0026
  836TIP3    H124067   5.999   2.105   0.088 -0.4614  2.0607 -0.5288
  836TIP3    H224068   6.132   2.090   0.017 -0.3292 -0.0311  0.0731
  837TIP3   OH224069   5.871   3.841   0.158 -0.0870  0.1524  0.1984
  837TIP3    H124070   5.851   3.783   0.231  0.1240  0.1098  0.2234
  837TIP3    H224071   5.963   3.824   0.138 -0.0706  0.3553  0.0957
  838TIP3   OH224072   1.141   4.011   7.333 -0.4100 -0.9149 -0.1449
  838TIP3    H124073   1.168   3.978   7.419  2.0625  0.0059 -0.5024
  838TIP3    H224074   1.051   4.043   7.347  0.3922  0.4569  2.4705
  839TIP3   OH224075   4.039   4.030   7.401 -0.0942  0.2882 -0.2587
  839TIP3    H124076   4.104   4.035   7.331  1.1636 -0.8376  0.7836
  839TIP3    H224077   3.958   4.002   7.357  0.4836  0.3441 -1.3724
  840TIP3   OH224078   3.868   0.364   1.633  0.3319  0.1421 -0.0681
  840TIP3    H124079   3.838   0.453   1.651 -0.7474 -0.2804  0.2759
  840TIP3    H224080   3.879   0.362   1.538  0.3337  0.6335 -0.0824
  841TIP3   OH224081   4.059   5.166   6.426  0.3915 -0.7519 -0.0428
  841TIP3    H124082   3.999   5.203   6.361  0.1831 -3.9725 -1.9041
  841TIP3    H224083   4.002   5.141   6.499  0.1924  0.2232  0.1560
  842TIP3   OH224084   2.530   6.373   8.803 -0.5000  0.1271  0.0527
  842TIP3    H124085   2.528   6.396   8.710 -0.5070  0.7246  0.1969
  842TIP3    H224086   2.563   6.283   8.805 -1.5150 -0.2780 -0.6028
  843TIP3   OH224087   3.157   5.066   7.123 -0.3183  0.1520  0.0609
  843TIP3    H124088   3.083   5.021   7.083 -0.3620  1.0152 -0.8853
  843TIP3    H224089   3.196   5.116   7.051 -0.7017  2.1776  1.1750
  844TIP3   OH224090   0.933   5.854   6.609  0.8862  0.4435  0.2359
  844TIP3    H124091   0.906   5.946   6.607 -3.0164 -0.4659  1.7715
  844TIP3    H224092   0.955   5.838   6.701 -2.5611 -0.9561  0.9857
  845TIP3   OH224093   1.707   6.086   2.404  0.1100  0.4129  0.0829
  845TIP3    H124094   1.758   6.159   2.371 -0.3813  2.0541  2.6243
  845TIP3    H224095   1.617   6.119   2.405 -0.1812 -0.3668  0.8412
  846TIP3   OH224096   4.018   1.064   8.378 -0.1077 -0.6614 -0.2332
  846TIP3    H124097   4.111   1.086   8.374 -0.1254  1.7925  5.0736
  846TIP3    H224098   3.973   1.147   8.359 -1.0609 -1.0409  0.2924
  847TIP3   OH224099   1.560   0.172   7.092  0.3985  0.4398 -0.0513
  847TIP3    H124100   1.472   0.191   7.123 -0.1180 -2.2882  0.4311
  847TIP3    H224101   1.551   0.162   6.997  0.1195 -0.1239  0.0325
  848TIP3   OH224102   4.847   2.803   6.901  0.1346 -0.3846 -0.2509
  848TIP3    H124103   4.776   2.849   6.855  0.0188 -0.1039  0.1904
  848TIP3    H224104   4.856   2.851   6.984 -0.4192 -1.5315  0.5085
  849TIP3   OH224105   0.514   4.452   8.240  0.5636  0.4864  0.3106
  849TIP3    H124106   0.549   4.539   8.261  0.1566  0.6176  0.4759
  849TIP3    H224107   0.450   4.436   8.310 -0.9379  0.9937 -0.9086
  850TIP3   OH224108   5.056   1.031   7.504 -0.2708 -0.4624  0.4332
  850TIP3    H124109   5.035   1.124   7.494 -2.7635 -0.9173  0.8233
  850TIP3    H224110   5.053   1.016   7.599  0.5182 -0.8695  0.3988
  851TIP3   OH224111   0.460   0.676   7.254  0.0960  0.2953  0.3109
  851TIP3    H124112   0.471   0.593   7.207  0.4371  0.4026  0.1916
  851TIP3    H224113   0.389   0.661   7.316  0.2384 -0.1247  0.3724
  852TIP3   OH224114   1.907   5.572   0.455 -0.2936  0.4337  0.4130
  852TIP3    H124115   1.833   5.530   0.499  0.5896  1.0072  2.5528
  852TIP3    H224116   1.974   5.581   0.523  0.5620  2.8526 -0.6419
  853TIP3   OH224117   3.767   4.607   8.540 -0.3974  0.1693  0.3309
  853TIP3    H124118   3.790   4.515   8.550  0.7110  0.4208  0.1549
  853TIP3    H224119   3.688   4.617   8.593  0.7524 -0.3580  2.2441
  854TIP3   OH224120   2.961   3.585   0.014 -0.5076  0.3375 -1.2213
  854TIP3    H124121   3.027   3.654   0.018 -0.9653  0.7276  0.6090
  854TIP3    H224122   2.879   3.631  -0.005 -0.4921  0.0380 -2.0351
  855TIP3   OH224123   0.332   3.707   8.683 -0.1566 -0.3715 -0.0737
  855TIP3    H124124   0.398   3.776   8.675  0.3507 -0.8991 -0.5628
  855TIP3    H224125   0.298   3.716   8.772  1.4873 -0.8865  0.6375
  856TIP3   OH224126   4.761   3.903   8.769 -0.1955  0.0848  0.4001
  856TIP3    H124127   4.800   3.837   8.826 -1.7038 -0.7163  0.5376
  856TIP3    H224128   4.725   3.853   8.696  0.8323  1.0075 -0.7939
  857TIP3   OH224129   5.401   6.520   7.886  0.0884 -0.2367 -0.2273
  857TIP3    H124130   5.355   6.596   7.923  1.4792  0.2965  0.5133
  857TIP3    H224131   5.481   6.557   7.847  0.9921 -1.3370  0.4973
  858TIP3   OH224132   0.884   5.626   8.193  0.0624  0.7755 -0.5407
  858TIP3    H124133   0.856   5.543   8.231 -0.6460  0.2038 -2.2221
  858TIP3    H224134   0.839   5.631   8.109  0.4561  2.6545 -0.6905
  859TIP3   OH224135   4.912   5.872   7.907  0.0464 -0.2615  0.1132
  859TIP3    H124136   4.988   5.835   7.953  0.2344 -0.1099 -0.0763
  859TIP3    H224137   4.837   5.840   7.957  0.2900  1.0866  1.4296
  860TIP3   OH224138   0.334   0.211   2.046 -0.5912  0.2024  0.5980
  860TIP3    H124139   0.294   0.246   1.967 -0.5036 -0.2882  0.3312
  860TIP3    H224140   0.297   0.123   2.055 -0.5507  0.2309  1.0632
  861TIP3   OH224141   3.124   0.489   8.340  0.3935  0.0883 -0.0000
  861TIP3    H124142   3.052   0.448   8.292  0.5542 -1.3583  0.9011
  861TIP3    H224143   3.159   0.418   8.395  1.3735  1.2051  0.8816
  862TIP3   OH224144   2.066   6.130   8.727  0.2822 -0.1023 -0.0118
  862TIP3    H124145   1.978   6.119   8.764 -0.5212  1.1624 -1.4619
  862TIP3    H224146   2.118   6.163   8.801 -0.5921 -0.2611  0.7017
  863TIP3   OH224147   5.274   5.840   0.859  0.0424  0.0350  0.1747
  863TIP3    H124148   5.337   5.782   0.817 -1.4911 -0.7386 -1.1983
  863TIP3    H224149   5.284   5.924   0.814  0.3885  0.0415  0.2655
  864TIP3   OH224150   0.607   2.485   8.330 -0.2273 -0.5674 -0.9924
  864TIP3    H124151   0.652   2.448   8.407  0.0225 -1.3007 -1.4834
  864TIP3    H224152   0.674   2.538   8.287  0.4417 -2.2798 -2.1541
  865TIP3   OH224153   3.594   2.822   7.925  0.1737  0.0139  0.3731
  865TIP3    H124154   3.674   2.846   7.972  1.4688 -1.2118 -1.1201
  865TIP3    H224155   3.622   2.810   7.834 -1.3667 -2.0365  0.1133
  866TIP3   OH224156   0.858   1.176   7.213 -0.1052 -0.1385 -0.4453
  866TIP3    H124157   0.792   1.141   7.154 -1.9642  1.5487  0.5523
  866TIP3    H224158   0.818   1.170   7.300  0.5670  1.9673  0.0507
  867TIP3   OH224159   2.003   3.861   0.232  0.0975  0.2032 -0.2657
  867TIP3    H124160   1.984   3.827   0.145 -0.1744  0.6841 -0.3955
  867TIP3    H224161   2.094   3.837   0.248 -0.1399 -0.7496 -0.2784
  868TIP3   OH224162   4.636   6.519   7.737 -0.2425 -0.2608  0.1179
  868TIP3    H124163   4.587   6.437   7.734 -1.1593  0.1280  2.3959
  868TIP3    H224164   4.727   6.492   7.750 -0.4731 -0.9479  0.3637
  869TIP3   OH224165   5.701   1.897   7.901  0.7791 -0.6773  0.6272
  869TIP3    H124166   5.702   1.817   7.953 -0.9382  0.1376  2.0067
  869TIP3    H224167   5.753   1.960   7.951  1.1233 -0.5768  0.1488
  870TIP3   OH224168   1.501   0.005   7.765 -0.3509 -0.7674 -0.2429
  870TIP3    H124169   1.502  -0.090   7.750 -1.8006 -1.0542  1.2032
  870TIP3    H224170   1.409   0.030   7.759 -0.0295  0.4965 -0.2098
  871TIP3   OH224171   1.594   4.134   2.559 -0.3961  0.2441 -0.3847
  871TIP3    H124172   1.570   4.091   2.642  0.1092  0.1725 -0.2709
  871TIP3    H224173   1.513   4.138   2.510 -0.5908 -0.2162 -0.1088
  872TIP3   OH224174   0.845   2.068   0.897 -0.3466  0.2646 -0.1446
  872TIP3    H124175   0.880   2.016   0.969  2.4534  2.7648  0.5038
  872TIP3    H224176   0.904   2.051   0.824 -3.1234 -2.2090 -2.0813
  873TIP3   OH224177   4.562   4.036   6.392  0.0842 -0.1177 -0.2419
  873TIP3    H124178   4.600   4.094   6.457 -0.1644  0.3336 -0.4876
  873TIP3    H224179   4.486   4.084   6.358  0.7871  0.1065 -1.5849
  874TIP3   OH224180   1.774   6.186   0.076  0.4083 -0.5399  0.1447
  874TIP3    H124181   1.781   6.236   0.157  1.9332  0.6553 -0.6758
  874TIP3    H224182   1.827   6.108   0.091  1.7320  0.2878 -0.1087
  875TIP3   OH224183   3.468   5.029   1.149 -0.3678 -0.1870  0.2964
  875TIP3    H124184   3.528   4.960   1.122 -0.3033  0.0896 -0.2714
  875TIP3    H224185   3.468   5.024   1.245 -0.8171 -1.3626  0.2576
  876TIP3   OH224186   1.586   2.833   1.509 -0.3245 -0.1629 -0.8684
  876TIP3    H124187   1.567   2.774   1.436 -1.7400 -0.2474 -0.4598
  876TIP3    H224188   1.610   2.775   1.581 -0.4436 -0.1613 -0.8281
  877TIP3   OH224189   2.279   3.696   1.389 -0.1517 -0.2668 -0.3581
  877TIP3    H124190   2.312   3.650   1.466  1.3497  0.5624 -0.4723
  877TIP3    H224191   2.184   3.689   1.396 -0.0699  0.0244  1.7313
  878TIP3   OH224192   6.342   2.531   7.427 -0.0956  0.0317 -0.1835
  878TIP3    H124193   6.388   2.528   7.511 -0.1418  1.9979 -0.0446
  878TIP3    H224194   6.370   2.452   7.382 -0.1709 -1.1399  1.7183
  879TIP3   OH224195   4.623   2.820   7.285 -0.0428  0.0027 -0.0121
  879TIP3    H124196   4.695   2.875   7.255 -0.3910  0.4412 -0.0555
  879TIP3    H224197   4.547   2.878   7.285 -0.1946 -0.1737  1.0221
  880TIP3   OH224198   5.667   4.290   7.294  0.8622 -0.2838 -0.4313
  880TIP3    H124199   5.727   4.351   7.251  1.4396 -0.5336 -0.0042
  880TIP3    H224200   5.702   4.204   7.273 -0.2012 -0.4979 -1.3974
  881TIP3   OH224201   6.510   2.518   6.946 -0.1213 -0.2890 -0.1422
  881TIP3    H124202   6.551   2.605   6.950  1.0636 -0.8071 -0.7718
  881TIP3    H224203   6.575   2.462   6.904 -1.7862 -0.9599 -1.9908
  882TIP3   OH224204   1.774   4.111   7.577 -0.0258 -0.7858  0.4106
  882TIP3    H124205   1.779   4.134   7.669 -1.4441  0.8676  0.1175
  882TIP3    H224206   1.865   4.114   7.547  0.3995 -0.9019  1.6316
  883TIP3   OH224207   3.665   1.072   7.513 -0.4466 -0.0658  0.2912
  883TIP3    H124208   3.609   1.029   7.449 -1.6974 -0.4115  1.5629
  883TIP3    H224209   3.655   1.020   7.593  0.9928  0.4025  0.8143
  884TIP3   OH224210   4.722   3.625   0.556 -0.3853 -0.1539 -0.0934
  884TIP3    H124211   4.789   3.564   0.586 -0.5641 -0.2553  0.1022
  884TIP3    H224212   4.733   3.703   0.609 -1.3221 -0.6855  0.9319
  885TIP3   OH224213   1.753   1.101   8.446 -0.1769  0.1783 -0.3621
  885TIP3    H124214   1.796   1.089   8.530 -1.8760 -1.8605  0.3095
  885TIP3    H224215   1.685   1.166   8.461 -0.2033  0.1300 -0.2763
  886TIP3   OH224216   2.281   4.401   1.403 -0.4144  0.7220 -0.8556
  886TIP3    H124217   2.237   4.486   1.407  0.2792  1.0501  0.4076
  886TIP3    H224218   2.350   4.406   1.469  0.2905 -0.4729 -1.4585
  887TIP3   OH224219   2.964   0.228   7.299  0.2884  0.2595  0.2061
  887TIP3    H124220   2.890   0.176   7.267 -0.8135 -0.1334  3.0649
  887TIP3    H224221   2.939   0.319   7.279  0.8540 -0.0281 -2.1622
  888TIP3   OH224222   2.704   2.824   2.720  0.2161  0.1997  0.5147
  888TIP3    H124223   2.671   2.886   2.784 -0.2296 -0.1085  0.5894
  888TIP3    H224224   2.627   2.801   2.667  0.6798  0.8607 -0.4793
  889TIP3   OH224225   5.115   0.480   1.531  0.4295 -0.4849  0.5090
  889TIP3    H124226   5.093   0.535   1.456  0.7140 -0.2806  0.5761
  889TIP3    H224227   5.210   0.484   1.537  0.5536 -1.8630 -0.1568
  890TIP3   OH224228   5.395   4.290   0.594  0.3852 -0.5033  0.3315
  890TIP3    H124229   5.361   4.379   0.598 -0.7608 -0.9558  2.1984
  890TIP3    H224230   5.381   4.263   0.504 -2.0616  0.2097  0.4251
  891TIP3   OH224231   3.196   3.865   0.748 -0.0560 -0.1019 -0.4450
  891TIP3    H124232   3.209   3.935   0.683  0.9097  1.7241  1.5837
  891TIP3    H224233   3.127   3.899   0.805 -0.2309 -1.2569  0.0556
  892TIP3   OH224234   6.669   4.532   7.794 -0.3049 -0.5905 -0.0853
  892TIP3    H124235   6.634   4.621   7.802  1.4271  0.1420 -0.3147
  892TIP3    H224236   6.661   4.512   7.701 -0.1243 -0.4349 -0.1341
  893TIP3   OH224237   6.723   2.438   6.788 -0.2816  0.3748 -0.0935
  893TIP3    H124238   6.762   2.400   6.867 -1.2610  2.0455  1.2650
  893TIP3    H224239   6.756   2.528   6.786 -1.5876  0.8700 -0.6217
  894TIP3   OH224240   4.942   0.645   8.008  0.0306  0.1998 -0.1983
  894TIP3    H124241   5.035   0.629   7.990 -0.1058 -1.4954  0.4675
  894TIP3    H224242   4.899   0.629   7.924  0.2695  0.4434 -0.3711
  895TIP3   OH224243   4.439   3.379   6.935 -0.1405 -0.1677 -0.7547
  895TIP3    H124244   4.506   3.440   6.967  0.7609 -1.2646 -0.5049
  895TIP3    H224245   4.462   3.364   6.844 -0.3814 -0.1110 -0.8249
  896TIP3   OH224246   4.648   4.709   0.384 -0.0904  0.4187 -0.1424
  896TIP3    H124247   4.699   4.745   0.456  0.2108  0.7133 -0.4979
  896TIP3    H224248   4.597   4.638   0.423  1.4470 -0.6581  0.0029
  897TIP3   OH224249   0.992   5.618   6.465 -0.6483 -0.4997  0.4506
  897TIP3    H124250   0.902   5.589   6.479 -1.0128  0.9392  1.2540
  897TIP3    H224251   0.999   5.700   6.514  0.2392  0.9574 -1.9404
  898TIP3   OH224252   5.040   6.147   0.715 -0.1392 -0.0902 -0.3199
  898TIP3    H124253   5.037   6.089   0.639 -0.2680 -0.1962 -0.2348
  898TIP3    H224254   5.002   6.096   0.786  1.3758 -0.5512  0.2039
  899TIP3   OH224255   2.005   2.671   2.156  0.0944  0.0603 -0.1093
  899TIP3    H124256   1.927   2.720   2.180  0.2435  1.2612 -1.8735
  899TIP3    H224257   1.980   2.579   2.164 -0.8070  0.4101  1.3730
  900TIP3   OH224258   5.276   5.999   2.065  0.1096 -0.2054  0.3490
  900TIP3    H124259   5.211   6.002   2.136  0.2942 -0.6250  0.5427
  900TIP3    H224260   5.351   5.953   2.104  0.2714 -0.3002 -0.0724
  901TIP3   OH224261   4.794   2.036   0.559  0.3536  0.1331  0.5110
  901TIP3    H124262   4.773   1.970   0.494 -1.1686  3.3789 -2.6238
  901TIP3    H224263   4.710   2.077   0.579  1.3264  1.6138  1.7882
  902TIP3   OH224264   0.022   3.585   7.469 -0.5240 -0.0658 -0.4336
  902TIP3    H124265   0.037   3.612   7.378 -0.5220 -0.5298 -0.5715
  902TIP3    H224266  -0.072   3.572   7.474 -0.2665 -2.6554 -1.1171
  903TIP3   OH224267   5.418   4.057   1.450  0.5549  0.0840 -0.2544
  903TIP3    H124268   5.399   4.029   1.540 -0.2980  0.1210 -0.4218
  903TIP3    H224269   5.511   4.035   1.438  0.2550 -1.4977  0.0534
  904TIP3   OH224270   2.345   3.477   1.547  0.1604  0.3352 -0.1398
  904TIP3    H124271   2.256   3.449   1.524 -0.3488  0.2668  1.7491
  904TIP3    H224272   2.396   3.396   1.549  0.0643  0.2676 -0.3659
  905TIP3   OH224273   3.200   5.338   1.623  0.3320  0.4196 -0.0180
  905TIP3    H124274   3.151   5.421   1.624 -1.9197 -0.8183  0.0220
  905TIP3    H224275   3.248   5.340   1.540 -0.0074  1.6061 -0.2083
  906TIP3   OH224276   5.753   6.389   0.483  0.0062 -0.1533  0.0982
  906TIP3    H124277   5.809   6.335   0.538  0.1193 -0.2948 -0.1565
  906TIP3    H224278   5.668   6.344   0.484  0.7978 -1.8872 -2.3343
  907TIP3   OH224279   3.091   4.599   7.152  0.0215  0.0253  0.3845
  907TIP3    H124280   3.019   4.548   7.115 -1.0648  0.9773  1.1121
  907TIP3    H224281   3.129   4.645   7.076 -1.8099  1.5112  0.3086
  908TIP3   OH224282   3.546   4.815   6.807  0.0077 -0.7032 -0.0219
  908TIP3    H124283   3.479   4.883   6.797  0.6160 -0.1564 -0.4824
  908TIP3    H224284   3.629   4.860   6.791  0.4488 -1.4886 -0.0167
  909TIP3   OH224285   2.522   6.577   7.799 -0.2865  0.0433  0.9246
  909TIP3    H124286   2.472   6.537   7.728 -1.2958 -2.0312  2.7043
  909TIP3    H224287   2.610   6.539   7.792  0.3368  1.6174 -0.5422
  910TIP3   OH224288   3.988   5.077   7.522 -0.0170  0.2501 -0.0372
  910TIP3    H124289   3.929   5.138   7.566  0.4127  0.0370  0.8676
  910TIP3    H224290   3.965   5.082   7.430 -2.0481 -0.4832  0.3833
  911TIP3   OH224291   2.121   2.596   7.031 -0.3003  0.4900 -0.0265
  911TIP3    H124292   2.051   2.536   7.058  1.2223 -1.0642  0.7148
  911TIP3    H224293   2.084   2.644   6.957 -1.9597 -0.6373  0.0066
  912TIP3   OH224294   4.140   0.953   1.759 -0.1525  0.0439  0.2260
  912TIP3    H124295   4.201   0.970   1.832 -0.5313 -0.2513  0.6158
  912TIP3    H224296   4.111   1.040   1.732  1.1117  0.2557 -0.5517
  913TIP3   OH224297   0.755   0.965   0.585 -0.2810 -0.2954 -0.4581
  913TIP3    H124298   0.764   0.929   0.674  0.9276  1.0922  0.0361
  913TIP3    H224299   0.743   1.059   0.599 -0.1080 -0.0620 -1.7617
  914TIP3   OH224300   0.842   6.469   0.266 -0.2414  0.0045 -0.0163
  914TIP3    H124301   0.915   6.455   0.206  1.1790 -0.6586  1.8123
  914TIP3    H224302   0.844   6.563   0.285  0.6643 -0.1443  0.6620
  915TIP3   OH224303   5.257   3.966   1.990 -0.0309 -0.1935 -0.1506
  915TIP3    H124304   5.316   3.906   2.035 -1.2144 -0.6369  0.8438
  915TIP3    H224305   5.185   3.911   1.959 -0.7787  0.5971  0.1490
  916TIP3   OH224306   6.065   1.259   8.624  0.3768 -0.0201 -0.3079
  916TIP3    H124307   6.104   1.278   8.538  0.5993  0.8057 -0.0282
  916TIP3    H224308   6.138   1.267   8.685 -0.5333  3.5256  0.5021
  917TIP3   OH224309   4.099   0.996   8.632 -0.1150  1.0272  0.4688
  917TIP3    H124310   4.077   1.082   8.668  1.4791  2.0619 -0.9274
  917TIP3    H224311   4.071   1.000   8.541 -3.4722 -1.3249  1.2185
  918TIP3   OH224312   0.903   6.635   8.788  0.6094 -0.6984 -0.5049
  918TIP3    H124313   0.904   6.548   8.748 -2.1210 -1.3284  0.5852
  918TIP3    H224314   0.889   6.695   8.714 -0.8851 -1.5223 -0.9308
  919TIP3   OH224315   5.900   6.691   1.051  0.2781 -0.1735 -0.5161
  919TIP3    H124316   5.840   6.733   1.113  1.2461 -1.1315  1.1596
  919TIP3    H224317   5.843   6.638   0.995 -0.7247  1.5443 -1.1879
  920TIP3   OH224318   4.609   0.445   0.869 -0.0228 -0.4016 -0.1882
  920TIP3    H124319   4.591   0.422   0.960 -0.3815  0.0806 -0.1338
  920TIP3    H224320   4.613   0.361   0.823  0.3934 -0.6617  0.3085
  921TIP3   OH224321   3.393   1.675   7.719 -0.1972  0.0203  0.0713
  921TIP3    H124322   3.450   1.657   7.644 -0.5287 -0.9850  0.0449
  921TIP3    H224323   3.411   1.603   7.779  0.4379  1.0872  1.1949
  922TIP3   OH224324   4.525   3.403   1.651 -0.4933  0.0781  0.0282
  922TIP3    H124325   4.579   3.433   1.578  1.7254  3.4421  2.7568
  922TIP3    H224326   4.581   3.342   1.700  0.1957  1.9837  1.7357
  923TIP3   OH224327   6.494   4.196   8.308  0.2257 -0.5138 -0.4379
  923TIP3    H124328   6.501   4.233   8.396 -1.2729 -2.3479  0.5273
  923TIP3    H224329   6.531   4.108   8.316  2.1263  0.0453 -2.2440
  924TIP3   OH224330   3.109   6.362   2.251  0.4915  0.2805 -0.0008
  924TIP3    H124331   3.169   6.352   2.325  0.1720 -0.7056  0.1403
  924TIP3    H224332   3.034   6.410   2.288 -0.9892 -2.6771  1.1444
  925TIP3   OH224333   4.301   0.940   7.563  0.2647 -0.0347  0.3272
  925TIP3    H124334   4.382   0.902   7.531  0.9996  1.6373  0.1248
  925TIP3    H224335   4.295   0.910   7.654  1.1517 -0.1309  0.3640
  926TIP3   OH224336   4.405   2.758   7.844  0.0799 -0.5371 -0.0454
  926TIP3    H124337   4.427   2.726   7.931  0.7003  0.2130  0.0922
  926TIP3    H224338   4.314   2.787   7.850 -0.1010 -1.1404  0.1524
  927TIP3   OH224339   6.701   3.477   7.746 -0.0372  0.4457  0.2028
  927TIP3    H124340   6.758   3.505   7.674 -0.5137  2.9819  0.7117
  927TIP3    H224341   6.617   3.458   7.704 -0.3715  2.0994  0.0564
  928TIP3   OH224342   5.511   5.441   0.179  0.4456  0.7251 -0.4345
  928TIP3    H124343   5.479   5.527   0.152  0.3373  0.3871 -1.4315
  928TIP3    H224344   5.594   5.459   0.223  0.1775  1.3773 -0.1854
  929TIP3   OH224345   4.214   5.964   2.050 -0.6432  0.2414 -0.6249
  929TIP3    H124346   4.309   5.957   2.041 -0.6680  0.7024 -1.2200
  929TIP3    H224347   4.199   5.950   2.144 -0.1188 -1.2532 -0.7271
  930TIP3   OH224348   2.208   1.839   0.151 -0.2361 -0.0467 -0.4303
  930TIP3    H124349   2.174   1.895   0.221 -0.9602 -0.2938 -0.5771
  930TIP3    H224350   2.280   1.890   0.113 -0.3988  0.4617 -0.0722
  931TIP3   OH224351   3.365   4.916   7.917  0.6961 -0.2624 -0.2354
  931TIP3    H124352   3.369   4.820   7.915  0.1249 -0.2995  0.1264
  931TIP3    H224353   3.275   4.936   7.890  0.8596  0.1811 -0.4577
  932TIP3   OH224354   0.875   4.291   2.000 -0.5750 -0.1449 -0.1381
  932TIP3    H124355   0.852   4.384   1.998 -0.3632 -0.0478  1.2550
  932TIP3    H224356   0.862   4.261   1.910 -0.2850  1.3157 -0.6889
  933TIP3   OH224357   2.018   2.281   1.580  0.1105 -0.1217 -0.1060
  933TIP3    H124358   2.002   2.331   1.660 -1.1480 -0.0559 -0.3901
  933TIP3    H224359   2.110   2.256   1.586 -0.2905 -1.2566  2.0001
  934TIP3   OH224360   0.801   0.661   1.470 -0.5097 -0.2500 -0.5125
  934TIP3    H124361   0.727   0.655   1.410 -1.2196  0.6792  0.2382
  934TIP3    H224362   0.878   0.654   1.414 -1.1581  0.0880 -1.4689
  935TIP3   OH224363   1.539   4.871   1.257 -0.0330 -0.5555  0.8375
  935TIP3    H124364   1.534   4.868   1.353  0.8212 -1.2338  0.8770
  935TIP3    H224365   1.455   4.908   1.230 -1.6234 -3.2393  1.7015
  936TIP3   OH224366   0.776   2.157   7.749  0.0314 -0.2137 -0.0366
  936TIP3    H124367   0.774   2.099   7.826  1.7476 -0.2730 -0.0134
  936TIP3    H224368   0.818   2.104   7.681 -0.9235  0.0579 -0.8630
  937TIP3   OH224369   5.499   5.181   1.150  0.0503  0.0696 -0.9434
  937TIP3    H124370   5.506   5.172   1.054  1.0361  1.6427 -1.0617
  937TIP3    H224371   5.583   5.220   1.176 -0.0945 -0.5820  0.6176
  938TIP3   OH224372   0.644   2.885   8.404 -0.6049 -0.5944 -0.2703
  938TIP3    H124373   0.551   2.865   8.399 -1.0010  0.7718  0.9453
  938TIP3    H224374   0.649   2.979   8.391  0.4515 -0.4341  1.0582
  939TIP3   OH224375   5.716   0.384   8.618  0.5469  0.4453 -0.0491
  939TIP3    H124376   5.710   0.357   8.710  1.9018  0.4428  0.0491
  939TIP3    H224377   5.705   0.303   8.568 -0.3092  0.4619  0.0822
  940TIP3   OH224378   2.215   3.453   7.296 -0.1672 -0.4275 -0.3554
  940TIP3    H124379   2.296   3.502   7.282  2.0324 -1.6140  5.3428
  940TIP3    H224380   2.159   3.513   7.346 -1.2572 -0.8867 -0.9836
  941TIP3   OH224381   2.857   4.627   8.647  0.3905  0.2331  0.3122
  941TIP3    H124382   2.831   4.699   8.704  1.0504  0.1027  0.7897
  941TIP3    H224383   2.949   4.610   8.670  0.6721  0.1840 -0.7840
  942TIP3   OH224384   0.386   3.673   1.071  0.1891  0.3422 -0.0589
  942TIP3    H124385   0.291   3.662   1.057  0.4932 -1.4226 -1.0551
  942TIP3    H224386   0.423   3.669   0.983  1.2232  0.7861  0.3465
  943TIP3   OH224387   3.042   2.166   1.819 -0.2083 -0.3996  0.6108
  943TIP3    H124388   3.114   2.219   1.852  1.3585 -0.5641 -2.2020
  943TIP3    H224389   3.084   2.086   1.786 -1.7341 -0.8142 -0.4531
  944TIP3   OH224390   2.894   1.402   8.190  0.7051  0.0332 -0.3181
  944TIP3    H124391   2.862   1.342   8.122  0.5242 -1.1322  0.7654
  944TIP3    H224392   2.919   1.345   8.262 -0.8056  1.3257  1.2996
  945TIP3   OH224393   6.731   6.552   7.881  0.3439  0.5937  0.7109
  945TIP3    H124394   6.778   6.476   7.846  0.3792  1.6133 -1.6828
  945TIP3    H224395   6.761   6.560   7.971  1.6166 -1.2262  0.5057
  946TIP3   OH224396   0.804   0.894   8.691 -0.1640  0.0815  0.0898
  946TIP3    H124397   0.825   0.987   8.685  0.5168 -0.0077  0.9511
  946TIP3    H224398   0.740   0.879   8.621 -1.8303  1.6191  1.2148
  947TIP3   OH224399   6.466   4.842   8.693 -0.3615 -0.5251 -0.4556
  947TIP3    H124400   6.380   4.808   8.664 -0.4162  0.2293 -1.2249
  947TIP3    H224401   6.492   4.783   8.763 -1.9668 -0.2010  0.4765
  948TIP3   OH224402   6.299   1.064   0.500  0.1339  0.6403 -0.1972
  948TIP3    H124403   6.230   1.130   0.501  0.1476  0.6895 -1.4208
  948TIP3    H224404   6.335   1.068   0.411  1.1438  0.0321  0.1670
  949TIP3   OH224405   4.818   5.228   2.118  0.5009 -0.3099 -0.0906
  949TIP3    H124406   4.797   5.310   2.162  0.5672 -0.0718 -0.4986
  949TIP3    H224407   4.863   5.255   2.037 -1.5744 -0.6449 -1.4250
  950TIP3   OH224408   5.906   5.389   6.610 -0.2496  0.1371 -0.4631
  950TIP3    H124409   5.847   5.321   6.577 -0.3110 -0.4176  0.7185
  950TIP3    H224410   5.994   5.353   6.597 -0.2514  0.1581 -0.5316
  951TIP3   OH224411   5.136   6.654   7.378  1.0891 -0.4551  0.3823
  951TIP3    H124412   5.137   6.604   7.459  0.8746 -0.9725  0.0729
  951TIP3    H224413   5.106   6.591   7.312  1.2820 -0.0464 -0.0974
  952TIP3   OH224414   0.458   4.081   0.321  0.2154  0.2354 -0.5718
  952TIP3    H124415   0.539   4.044   0.286  1.9174  1.6879  1.5025
  952TIP3    H224416   0.473   4.085   0.416 -3.0799 -1.1613  0.1471
  953TIP3   OH224417   3.405   4.261   8.233 -0.3996 -0.9821 -0.4080
  953TIP3    H124418   3.318   4.301   8.232 -0.6493 -1.4999 -0.1455
  953TIP3    H224419   3.393   4.180   8.282  0.1211 -1.3072 -0.8031
  954TIP3   OH224420   2.782   6.120   6.958  0.1819 -0.3333 -0.3009
  954TIP3    H124421   2.818   6.208   6.964 -0.2458 -0.0650 -1.3939
  954TIP3    H224422   2.819   6.084   6.878 -0.3411 -0.8175 -0.3353
  955TIP3   OH224423   4.306   3.289   0.139  1.0304  0.2936  0.1793
  955TIP3    H124424   4.259   3.329   0.065 -0.0417 -1.2892 -0.0159
  955TIP3    H224425   4.394   3.271   0.103  1.2735  1.6651  0.0248
  956TIP3   OH224426   0.279   5.863   8.758  0.0566  0.5592 -0.4358
  956TIP3    H124427   0.223   5.936   8.732 -1.9432 -0.3492  1.0496
  956TIP3    H224428   0.268   5.857   8.853  1.7749 -0.4296 -0.2606
  957TIP3   OH224429   5.523   5.329   1.444 -0.2977 -0.9379  0.2956
  957TIP3    H124430   5.601   5.296   1.400 -0.5552 -2.3713  0.8390
  957TIP3    H224431   5.507   5.265   1.514 -0.9293  0.2966  1.3187
  958TIP3   OH224432   0.062   1.706   8.846 -0.2620 -0.5651 -0.2466
  958TIP3    H124433   0.007   1.665   8.780 -0.8640 -0.8489  0.4200
  958TIP3    H224434   0.122   1.762   8.796 -0.1659 -1.3872 -1.0880
  959TIP3   OH224435   2.492   0.816   1.341 -0.1726 -0.6759 -0.2339
  959TIP3    H124436   2.525   0.903   1.362 -0.5907 -0.7393  0.7172
  959TIP3    H224437   2.415   0.804   1.397  0.3420 -1.9677  0.2394
  960TIP3   OH224438   6.557   5.584   8.446 -0.7737  0.5703 -0.0674
  960TIP3    H124439   6.558   5.515   8.513 -1.8404  0.7251  0.1297
  960TIP3    H224440   6.643   5.578   8.404 -1.2350 -1.5990 -0.8071
  961TIP3   OH224441   2.202   3.375   8.707  0.3151 -0.1570  0.0702
  961TIP3    H124442   2.202   3.469   8.725  1.2399  0.0813 -1.0486
  961TIP3    H224443   2.279   3.342   8.752 -1.3405 -0.8912  2.6170
  962TIP3   OH224444   2.659   3.325   8.649 -0.4952  0.3743 -0.3216
  962TIP3    H124445   2.733   3.356   8.598 -0.2288  0.4878  0.1277
  962TIP3    H224446   2.698   3.269   8.716 -0.7419  0.9499  0.3194
  963TIP3   OH224447   5.151   0.409   0.873  0.3877 -0.0241 -0.4871
  963TIP3    H124448   5.062   0.397   0.907  1.1636 -1.9473  1.0742
  963TIP3    H224449   5.192   0.469   0.936  0.7110 -0.5568 -0.1883
  964TIP3   OH224450   2.376   6.640   7.003 -0.0701  0.5044 -1.2143
  964TIP3    H124451   2.335   6.631   6.917  1.2532  0.8054 -1.9089
  964TIP3    H224452   2.470   6.630   6.985  0.2420  0.8148  0.1687
  965TIP3   OH224453   3.156   1.668   8.242 -0.2266  0.4845 -1.0903
  965TIP3    H124454   3.078   1.666   8.187 -0.5728 -0.1754 -0.5965
  965TIP3    H224455   3.180   1.576   8.253  1.6162  0.7330 -2.6002
  966TIP3   OH224456   0.370   1.066   7.063 -0.4149 -0.3656  0.2885
  966TIP3    H124457   0.331   1.096   6.981 -0.2361  0.7520  0.5908
  966TIP3    H224458   0.455   1.031   7.038 -0.5983 -0.5503 -0.0772
  967TIP3   OH224459   1.038   6.456   1.381  0.1022  0.0003  0.4782
  967TIP3    H124460   1.084   6.504   1.449 -1.7262  0.3764  1.5058
  967TIP3    H224461   1.094   6.464   1.303  1.4200  0.9697  1.4916
  968TIP3   OH224462   5.586   4.854   0.607 -0.3502 -0.2693 -0.5846
  968TIP3    H124463   5.563   4.773   0.562  0.7435 -0.1962 -1.3112
  968TIP3    H224464   5.679   4.844   0.628  0.0820  1.2213 -1.6436
  969TIP3   OH224465   1.741   5.320   0.217 -0.1927 -0.3357 -0.6214
  969TIP3    H124466   1.782   5.283   0.296 -1.6083  0.3629  0.4859
  969TIP3    H224467   1.647   5.318   0.235 -0.4218  2.7822 -0.9117
  970TIP3   OH224468   1.535   0.491   7.611  0.0167  0.0576 -0.5026
  970TIP3    H124469   1.463   0.551   7.592 -0.1082 -0.2336 -0.9819
  970TIP3    H224470   1.609   0.547   7.632 -0.7426  0.3736  1.6055
  971TIP3   OH224471   4.972   5.478   0.833  0.5430  0.1828 -0.5104
  971TIP3    H124472   4.931   5.564   0.842  0.4554 -0.0263  1.7314
  971TIP3    H224473   5.056   5.495   0.790  0.9623  1.5453  0.7747
  972TIP3   OH224474   0.659   5.677   0.239  0.0784  0.1708  0.1066
  972TIP3    H124475   0.581   5.636   0.203  0.9486 -2.5033  1.0165
  972TIP3    H224476   0.730   5.650   0.180  0.6301  0.6820  0.5247
  973TIP3   OH224477   3.577   3.796   0.587  0.4337  0.1043 -0.4185
  973TIP3    H124478   3.575   3.885   0.553 -1.2192 -0.0962 -0.9329
  973TIP3    H224479   3.524   3.800   0.667  0.4156 -0.3976 -0.4037
  974TIP3   OH224480   4.700   2.983   2.780 -0.7870  0.2746 -0.4325
  974TIP3    H124481   4.667   2.934   2.705  1.6606 -1.2322 -0.6281
  974TIP3    H224482   4.766   3.042   2.744 -0.8815  0.8770  0.3407
  975TIP3   OH224483   0.547   6.329   1.357  0.4126  0.2140  0.3915
  975TIP3    H124484   0.587   6.407   1.397 -3.1102  0.9674  3.0122
  975TIP3    H224485   0.506   6.362   1.277 -1.4785  1.3232  1.7331
  976TIP3   OH224486   3.750   5.488   1.379 -0.2452 -0.3198  0.0638
  976TIP3    H124487   3.757   5.419   1.445 -0.2652 -1.2751 -0.9130
  976TIP3    H224488   3.840   5.517   1.366 -0.3722  0.8244  1.4615
  977TIP3   OH224489   2.549   3.602   7.493  0.5911 -0.2521  0.1116
  977TIP3    H124490   2.468   3.649   7.474 -0.1337 -1.4385  0.1612
  977TIP3    H224491   2.560   3.610   7.587  0.1366 -0.6859  0.2056
  978TIP3   OH224492   3.708   4.114   7.572 -0.4146 -0.3434 -0.1385
  978TIP3    H124493   3.750   4.195   7.543 -0.3317 -0.1812  0.4132
  978TIP3    H224494   3.755   4.089   7.651 -0.9936 -0.4571  0.1806
  979TIP3   OH224495   2.974   4.099   0.927  0.7416 -0.1623 -0.4207
  979TIP3    H124496   3.030   4.169   0.892 -1.0452  0.9948 -1.1179
  979TIP3    H224497   2.885   4.135   0.922 -0.1946 -2.3164 -0.3607
  980TIP3   OH224498   2.227   5.414   1.221  0.7746 -0.1220  0.0592
  980TIP3    H124499   2.138   5.391   1.193  1.6389 -3.3157 -0.4676
  980TIP3    H224500   2.256   5.478   1.157 -1.1605  1.0951  0.3132
  981TIP3   OH224501   3.951   1.797   1.013  0.0935 -0.0629  0.3352
  981TIP3    H124502   3.949   1.702   1.017 -0.3586 -0.1009 -0.6474
  981TIP3    H224503   3.921   1.825   1.099 -1.6752 -0.8083 -0.0072
  982TIP3   OH224504   1.182   4.831   8.193  0.0607  0.1766  0.2801
  982TIP3    H124505   1.199   4.743   8.224 -1.9813 -0.1719  0.5806
  982TIP3    H224506   1.264   4.860   8.154  0.3092 -2.5463 -1.4724
  983TIP3   OH224507   5.837   5.623   0.666  0.4552 -0.9717 -0.3665
  983TIP3    H124508   5.917   5.674   0.680 -0.4124  0.2077  0.4961
  983TIP3    H224509   5.792   5.670   0.595 -0.2614 -0.6113  0.3089
  984TIP3   OH224510   0.823   1.402   8.846  0.5213 -0.0786  0.0303
  984TIP3    H124511   0.907   1.428   8.883  0.1998 -1.1899  1.6797
  984TIP3    H224512   0.792   1.479   8.799  1.6135  0.9797  0.9696
  985TIP3   OH224513   3.456   0.238   0.926 -0.2360  0.0747  0.1416
  985TIP3    H124514   3.364   0.266   0.922 -0.6473 -1.2353  0.0255
  985TIP3    H224515   3.476   0.237   1.019 -0.8721 -1.2149  0.2922
  986TIP3   OH224516   1.491   3.054   6.401 -0.3311 -0.6409  0.4376
  986TIP3    H124517   1.516   3.140   6.368  1.0179 -0.6930  1.2161
  986TIP3    H224518   1.551   2.994   6.355 -1.9003 -1.3125 -0.8341
  987TIP3   OH224519   6.627   3.418   1.120 -0.7156  0.3526  0.0013
  987TIP3    H124520   6.686   3.445   1.190 -1.5838  0.7932  0.5932
  987TIP3    H224521   6.667   3.451   1.040  0.2419 -0.0680  0.3019
  988TIP3   OH224522   5.524   0.796   7.839 -0.5883 -0.0017 -0.0215
  988TIP3    H124523   5.466   0.871   7.850 -1.4722 -0.5567 -0.7890
  988TIP3    H224524   5.504   0.762   7.752  0.3358 -0.6801  0.0162
  989TIP3   OH224525   3.939   3.984   0.963 -0.5791  0.1224 -0.5850
  989TIP3    H124526   3.997   3.916   0.996 -1.2041 -0.1095  0.0543
  989TIP3    H224527   3.950   4.057   1.024 -0.9181  0.1005 -0.4999
  990TIP3   OH224528   6.355   3.120   1.244 -0.0657 -0.0739 -0.1215
  990TIP3    H124529   6.313   3.205   1.232 -2.3828 -1.2766 -1.2499
  990TIP3    H224530   6.384   3.096   1.156 -3.0138 -2.0766 -0.7072
  991TIP3   OH224531   2.683   4.452   7.562 -0.0970  0.5138  0.0228
  991TIP3    H124532   2.594   4.423   7.582  0.4012 -2.8494 -1.8822
  991TIP3    H224533   2.677   4.494   7.477  0.1291  0.2373 -0.1325
  992TIP3   OH224534   1.466   1.616   8.071  0.4409 -0.3010 -0.4288
  992TIP3    H124535   1.456   1.685   8.006  0.7754 -0.0779 -0.2417
  992TIP3    H224536   1.435   1.655   8.153  2.3681  0.2571  0.0712
  993TIP3   OH224537   0.921   5.740   0.447 -0.1376  0.0757 -0.1305
  993TIP3    H124538   0.880   5.824   0.427 -0.4679 -0.1726 -0.5024
  993TIP3    H224539   0.858   5.674   0.418  0.3074 -0.3055 -0.2489
  994TIP3   OH224540   3.421   1.606   0.175 -0.1045  0.6614 -0.1696
  994TIP3    H124541   3.448   1.674   0.237 -0.1934  1.9373 -1.4501
  994TIP3    H224542   3.348   1.562   0.217  0.0346  1.2893  0.7554
  995TIP3   OH224543   6.434   6.585   8.325  0.2246  0.0543  0.0582
  995TIP3    H124544   6.465   6.595   8.235 -1.2773 -1.3807 -0.6631
  995TIP3    H224545   6.339   6.589   8.319  0.0339  4.3286  2.2024
  996TIP3   OH224546   3.735   4.298   0.415 -0.0585  0.3347  0.0117
  996TIP3    H124547   3.805   4.347   0.457 -1.1318  1.7031  0.2965
  996TIP3    H224548   3.771   4.273   0.330  1.2360 -0.1911  0.6942
  997TIP3   OH224549   2.789   0.923   8.652  0.2164  0.0879  0.5336
  997TIP3    H124550   2.731   0.974   8.596  0.3643 -0.9749 -0.6187
  997TIP3    H224551   2.793   0.836   8.612 -0.0892 -0.8872  2.4973
  998TIP3   OH224552   4.759   3.774   1.339 -0.2990  0.0032 -0.1522
  998TIP3    H124553   4.672   3.771   1.299 -0.9473  2.2899  0.9234
  998TIP3    H224554   4.820   3.763   1.265 -1.4908  0.3996 -1.2320
  999TIP3   OH224555   3.961   2.262   7.858 -0.0167  0.4203  0.3809
  999TIP3    H124556   3.923   2.216   7.933  0.5739  0.1314  0.5143
  999TIP3    H224557   4.040   2.213   7.838 -0.1416  0.5295 -0.4046
 1000TIP3   OH224558   4.062   4.774   7.153 -0.2346 -0.2867 -0.0947
 1000TIP3    H124559   3.985   4.771   7.096  1.3379  0.2368 -2.4022
 1000TIP3    H224560   4.089   4.866   7.151  1.6336 -0.8128 -1.0997
 1001TIP3   OH224561   0.630   3.296   6.907 -0.0436 -0.1690 -0.3080
 1001TIP3    H124562   0.707   3.334   6.864  0.6079  0.8264  1.6028
 1001TIP3    H224563   0.559   3.357   6.886 -0.3890 -1.1355 -2.1478
 1002TIP3   OH224564   0.790   1.040   1.117 -0.2780 -0.1222  0.0233
 1002TIP3    H124565   0.754   0.958   1.151  1.6757 -1.3170 -0.6298
 1002TIP3    H224566   0.880   1.019   1.092 -0.2540  1.7653 -1.8543
 1003TIP3   OH224567   4.450   3.460   0.914  0.0386 -0.5740 -0.6782
 1003TIP3    H124568   4.468   3.405   0.838  1.0673  0.3011 -1.0947
 1003TIP3    H224569   4.519   3.526   0.913 -0.2133 -0.2514  0.7431
 1004TIP3   OH224570   2.212   0.639   1.083  0.7135  0.0261  0.5185
 1004TIP3    H124571   2.216   0.560   1.138 -0.2367  0.4722  1.2677
 1004TIP3    H224572   2.299   0.647   1.046  0.6027 -1.8634 -0.2797
 1005TIP3   OH224573   2.926   4.359   8.433  0.0833  0.4421  0.2989
 1005TIP3    H124574   2.966   4.444   8.415  1.8191 -0.1445  1.1018
 1005TIP3    H224575   2.835   4.369   8.408  0.1801  2.6305  0.6313
 1006TIP3   OH224576   4.666   1.594   0.825 -0.1055  0.2377 -0.3518
 1006TIP3    H124577   4.632   1.666   0.879  1.5145  0.8973 -0.1432
 1006TIP3    H224578   4.623   1.605   0.740  0.6690  1.9650 -0.5640
 1007TIP3   OH224579   6.375   1.335   0.843  0.2427 -0.7280 -0.6534
 1007TIP3    H124580   6.426   1.298   0.771 -0.7643 -1.3292 -1.0799
 1007TIP3    H224581   6.333   1.413   0.805 -2.1039 -2.2731 -1.4641
 1008TIP3   OH224582   1.676   6.245   7.497  0.2206  0.5516  0.1037
 1008TIP3    H124583   1.599   6.286   7.536  1.1085  2.2013  0.2273
 1008TIP3    H224584   1.655   6.152   7.493 -1.4889  0.8802  0.7691
 1009TIP3   OH224585   4.089   5.209   0.053 -0.5249  0.4076  0.9406
 1009TIP3    H124586   4.007   5.254   0.072  0.0991  1.8228  0.4142
 1009TIP3    H224587   4.122   5.253  -0.025 -0.3190 -1.5863 -0.1460
 1010TIP3   OH224588   5.071   5.267   1.097 -0.2296  0.4257 -0.1228
 1010TIP3    H124589   5.102   5.205   1.163  2.2644  1.0361 -0.6166
 1010TIP3    H224590   4.977   5.247   1.088  0.3289 -2.9061  0.0972
 1011TIP3   OH224591   1.033   2.183   7.216  0.5970 -0.9700  0.0254
 1011TIP3    H124592   0.985   2.136   7.149  0.2805 -1.3388  0.5030
 1011TIP3    H224593   1.112   2.131   7.230  0.3229 -1.2820  0.4403
 1012TIP3   OH224594   2.842   3.426   1.079  0.3329  0.1971  0.4659
 1012TIP3    H124595   2.775   3.489   1.052 -0.4085 -0.6194  0.3308
 1012TIP3    H224596   2.922   3.455   1.036 -0.7112 -0.8978 -2.5021
 1013TIP3   OH224597   6.209   1.540   0.657  0.5443  0.1755 -0.1353
 1013TIP3    H124598   6.278   1.592   0.617  0.1254 -1.0439 -2.6645
 1013TIP3    H224599   6.166   1.600   0.718  1.7421  1.9523 -0.9470
 1014TIP3   OH224600   5.306   2.657   0.854 -0.3031 -0.0064 -0.6767
 1014TIP3    H124601   5.295   2.661   0.949 -0.2160  0.0584 -0.6689
 1014TIP3    H224602   5.232   2.604   0.823  0.5109 -1.3371 -0.4231
 1015TIP3   OH224603   2.097   5.277   7.838 -0.0381 -0.2245 -0.2665
 1015TIP3    H124604   2.163   5.208   7.833 -0.3545 -0.5785  0.3302
 1015TIP3    H224605   2.014   5.231   7.840 -0.2124  0.0797  1.6107
 1016TIP3   OH224606   5.716   5.221   7.195  0.3944 -0.5408  0.5338
 1016TIP3    H124607   5.701   5.215   7.101  1.4539  0.8202  0.2484
 1016TIP3    H224608   5.811   5.208   7.204  0.4870  0.5552  1.2784
 1017TIP3   OH224609   0.935   3.996   8.229 -0.2635  0.1925  0.6598
 1017TIP3    H124610   1.013   4.050   8.215  0.1035 -0.3968  0.3905
 1017TIP3    H224611   0.862   4.050   8.199 -0.1267  1.2986  2.2042
 1018TIP3   OH224612   4.539   0.909   6.632  0.0573  0.3791  0.0225
 1018TIP3    H124613   4.629   0.889   6.605 -0.1208  1.3969 -1.4688
 1018TIP3    H224614   4.485   0.864   6.567 -0.4488  1.1530 -0.1074
 1019TIP3   OH224615   1.339   6.148   2.761  0.4417 -0.0870 -0.7369
 1019TIP3    H124616   1.331   6.218   2.696 -0.2798  1.7219  1.1864
 1019TIP3    H224617   1.255   6.102   2.759 -0.0461  0.7651 -0.2401
 1020TIP3   OH224618   6.412   2.621   1.651  0.0843  0.4851 -0.7153
 1020TIP3    H124619   6.374   2.705   1.676  1.0455  0.2392  1.8256
 1020TIP3    H224620   6.507   2.636   1.652  0.2798 -0.6795  0.0543
 1021TIP3   OH224621   4.030   1.995   0.609  0.1831  0.3943  0.7896
 1021TIP3    H124622   3.988   1.976   0.693  1.9979 -2.2710  1.2131
 1021TIP3    H224623   4.096   1.927   0.599 -1.1748 -0.6228 -3.7115
 1022TIP3   OH224624   6.342   0.708   1.798  0.4921  0.3939 -0.2363
 1022TIP3    H124625   6.333   0.613   1.804  0.1990  0.4524  0.2146
 1022TIP3    H224626   6.258   0.738   1.763  0.2885  0.5655  0.3914
 1023TIP3   OH224627   5.309   6.068   7.835  0.2403  0.2553 -0.1561
 1023TIP3    H124628   5.387   6.114   7.806 -0.4704  2.3329  0.9952
 1023TIP3    H224629   5.256   6.057   7.756  0.9157  0.4284 -0.6351
 1024TIP3   OH224630   1.697   2.756   8.069  0.2256  0.4175 -0.3883
 1024TIP3    H124631   1.767   2.778   8.008  0.1392  2.4812  0.1890
 1024TIP3    H224632   1.619   2.798   8.033 -0.3079 -0.2101  0.0003
 1025TIP3   OH224633   5.751   3.958   0.476  0.1195  0.1311  0.0798
 1025TIP3    H124634   5.826   4.009   0.506 -2.3585  4.0336  0.2814
 1025TIP3    H224635   5.706   4.015   0.414 -1.0526 -3.2962 -2.5257
 1026TIP3   OH224636   2.542   5.492   1.917  0.0061 -0.6142 -0.1292
 1026TIP3    H124637   2.507   5.570   1.874  1.3089 -0.1492 -0.3931
 1026TIP3    H224638   2.560   5.432   1.845 -0.1073 -0.8016 -0.0032
 1027TIP3   OH224639   2.172   0.175   6.285  0.3412 -0.2611 -0.3283
 1027TIP3    H124640   2.110   0.104   6.266 -0.8985  1.1806 -1.9946
 1027TIP3    H224641   2.118   0.249   6.310  1.5645  0.3917  0.4862
 1028TIP3   OH224642   4.977   3.508   7.843  0.1065 -0.1440 -0.4185
 1028TIP3    H124643   4.969   3.576   7.910  0.3502  0.3675 -0.9063
 1028TIP3    H224644   4.992   3.556   7.762  4.4637 -0.7975 -0.2306
 1029TIP3   OH224645   0.081   5.564   1.807  0.3091 -0.0539 -0.0859
 1029TIP3    H124646   0.078   5.641   1.865 -0.6191 -0.8240  0.9324
 1029TIP3    H224647   0.014   5.581   1.741 -1.0191 -0.6588  1.0586
 1030TIP3   OH224648   6.188   5.504   2.451  0.3679  0.3290 -0.5429
 1030TIP3    H124649   6.182   5.556   2.532 -0.0898  0.7686 -0.8509
 1030TIP3    H224650   6.104   5.460   2.444  1.4162 -2.0832  0.7539
 1031TIP3   OH224651   4.324   2.463   7.218  0.3556  0.0872  0.4017
 1031TIP3    H124652   4.313   2.396   7.286  3.1384  0.3835  1.2725
 1031TIP3    H224653   4.282   2.426   7.141  0.1146 -1.8023  1.3843
 1032TIP3   OH224654   0.466   3.023   2.079  0.2590  0.2190  0.3902
 1032TIP3    H124655   0.554   3.059   2.072  0.1542  0.4159  0.0507
 1032TIP3    H224656   0.408   3.096   2.058  0.0217  0.0352  0.3956
 1033TIP3   OH224657   5.254   0.984   8.125  0.3799  0.1455  0.2377
 1033TIP3    H124658   5.176   1.020   8.167  1.1508  0.0948  1.7526
 1033TIP3    H224659   5.311   0.956   8.197  1.7640  0.0791 -0.8288
 1034TIP3   OH224660   3.415   1.340   8.811 -0.4177  0.3756  0.1226
 1034TIP3    H124661   3.362   1.404   8.860 -0.6472  0.1448  0.1777
 1034TIP3    H224662   3.351   1.275   8.780  0.0907 -1.0844  1.9939
 1035TIP3   OH224663   1.403   2.665   8.306 -0.6195 -0.3581  0.2117
 1035TIP3    H124664   1.349   2.716   8.367  0.8540  0.4402  0.9167
 1035TIP3    H224665   1.493   2.683   8.334  0.1719  0.5403 -2.6011
 1036TIP3   OH224666   4.740   3.746   1.595 -0.3088 -0.0402 -0.3559
 1036TIP3    H124667   4.668   3.692   1.628 -1.3441  2.2123  1.3238
 1036TIP3    H224668   4.743   3.727   1.501 -2.0039 -1.4169 -0.1721
 1037TIP3   OH224669   4.975   2.751   7.812  0.1772  0.2639  0.7096
 1037TIP3    H124670   4.884   2.781   7.820  0.1121 -0.0559  1.1663
 1037TIP3    H224671   5.015   2.773   7.896  0.4200  0.0492  0.6505
 1038TIP3   OH224672   4.640   5.625   0.660 -0.4295 -0.3820  0.9625
 1038TIP3    H124673   4.577   5.631   0.588 -0.6701 -0.4293  1.1701
 1038TIP3    H224674   4.720   5.592   0.618 -0.4990 -0.1940  0.6755
 1039TIP3   OH224675   4.799   0.843   7.479 -0.0033  0.1696 -0.2670
 1039TIP3    H124676   4.844   0.797   7.549  0.7043  2.1305  0.6439
 1039TIP3    H224677   4.860   0.912   7.452 -0.6983  0.1248 -2.0863
 1040TIP3   OH224678   2.497   1.825   2.068  0.2031 -0.2045  0.2234
 1040TIP3    H124679   2.402   1.825   2.059  0.3403 -0.0765 -1.4482
 1040TIP3    H224680   2.519   1.734   2.089 -0.0486 -1.0762 -2.8379
 1041TIP3   OH224681   5.942   2.403   2.787 -0.3228 -0.0562 -0.1643
 1041TIP3    H124682   5.847   2.413   2.788 -0.4228 -0.6083 -1.8630
 1041TIP3    H224683   5.976   2.492   2.777 -0.7270  0.0155 -0.9690
 1042TIP3   OH224684   1.731   4.040   0.202 -0.3745 -0.4786 -0.4920
 1042TIP3    H124685   1.782   3.969   0.242  0.3434 -0.3862 -1.2158
 1042TIP3    H224686   1.717   4.011   0.111  0.3303  0.5035 -0.9259
 1043TIP3   OH224687   0.117   5.998   8.135 -0.0604  0.0571  0.6453
 1043TIP3    H124688   0.071   5.944   8.199 -0.6017 -0.3653 -0.0775
 1043TIP3    H224689   0.053   6.064   8.109 -0.6857 -1.1683 -1.1507
 1044TIP3   OH224690   3.481   4.002   8.432 -0.3332 -0.5225  0.4063
 1044TIP3    H124691   3.402   4.014   8.485 -0.2833 -2.3597  0.9551
 1044TIP3    H224692   3.460   3.930   8.373  0.0555  0.6782 -1.2783
 1045TIP3   OH224693   0.706   4.895   8.446  0.0847 -0.2062  0.4104
 1045TIP3    H124694   0.784   4.881   8.501 -0.5077 -0.7483  1.1353
 1045TIP3    H224695   0.688   4.988   8.455  1.3315  0.1731 -0.7123
 1046TIP3   OH224696   4.768   5.619   0.243  0.1478 -0.1944  0.1937
 1046TIP3    H124697   4.791   5.587   0.330  0.1569  0.3642  0.3946
 1046TIP3    H224698   4.673   5.613   0.239 -0.0722  1.8937  1.0813
 1047TIP3   OH224699   4.811   2.983   8.426 -0.4511 -0.2551 -0.1050
 1047TIP3    H124700   4.833   3.038   8.502  0.4497  0.0210 -0.5543
 1047TIP3    H224701   4.716   2.992   8.417 -0.2320  2.1404 -0.8276
 1048TIP3   OH224702   2.787   0.175   1.232 -0.2297  0.4633  0.1102
 1048TIP3    H124703   2.789   0.085   1.199  1.3328  0.5986 -0.2559
 1048TIP3    H224704   2.700   0.207   1.211 -0.6083 -0.7804 -0.2740
 1049TIP3   OH224705   5.780   4.878   6.499  0.6587 -0.0848 -0.0917
 1049TIP3    H124706   5.857   4.860   6.553 -0.6025  0.5122  2.0417
 1049TIP3    H224707   5.728   4.797   6.503  1.4871 -0.7913 -2.2173
 1050TIP3   OH224708   5.093   4.781   7.698  0.7200  0.9931  0.2878
 1050TIP3    H124709   5.058   4.808   7.613  1.6113  0.5485 -0.2383
 1050TIP3    H224710   5.152   4.852   7.724  1.2075  0.6790  0.0554
 1051TIP3   OH224711   1.476   3.533   7.609  0.0048 -0.6397 -0.0394
 1051TIP3    H124712   1.539   3.468   7.643 -0.1445 -1.2226 -0.8346
 1051TIP3    H224713   1.518   3.617   7.626  1.6748 -1.0426 -1.7543
 1052TIP3   OH224714   6.325   4.207   0.122 -0.0585  0.4227  0.5860
 1052TIP3    H124715   6.335   4.185   0.029 -1.3039 -0.9091  0.7282
 1052TIP3    H224716   6.358   4.297   0.129 -0.0023  0.5722 -1.1598
 1053TIP3   OH224717   1.219   2.896   7.977 -0.3638 -0.1701  0.0971
 1053TIP3    H124718   1.224   2.988   8.005 -0.2168 -0.4561  1.0520
 1053TIP3    H224719   1.266   2.894   7.893 -0.6135  0.6786 -0.0706
 1054TIP3   OH224720   5.717   0.284   0.590  1.0423  0.4406 -0.0119
 1054TIP3    H124721   5.744   0.193   0.598  0.3663  0.2076 -0.2633
 1054TIP3    H224722   5.793   0.329   0.553  1.0454 -0.2210 -0.8392
 1055TIP3   OH224723   3.059   6.197   8.687  0.1034  0.3485 -0.2921
 1055TIP3    H124724   2.996   6.194   8.759 -0.5496 -1.3330 -0.8784
 1055TIP3    H224725   3.093   6.107   8.681  2.2184  1.0875 -0.3079
 1056TIP3   OH224726   6.356   4.910   1.458  0.4836 -0.2826  0.2657
 1056TIP3    H124727   6.364   4.958   1.376  1.5915  0.9345  1.0400
 1056TIP3    H224728   6.431   4.851   1.459  0.0804 -0.8078  0.0990
 1057TIP3   OH224729   2.463   5.594   6.615  0.1694 -0.4512 -0.0528
 1057TIP3    H124730   2.387   5.555   6.657  0.9862 -2.6743 -0.4896
 1057TIP3    H224731   2.535   5.534   6.634  1.9201  1.6904  0.5538
 1058TIP3   OH224732   6.143   4.202   1.594  0.1651  0.9760 -0.6196
 1058TIP3    H124733   6.100   4.123   1.560 -3.1884  1.5761  1.6904
 1058TIP3    H224734   6.224   4.170   1.634 -1.6383 -1.6077  1.2962
 1059TIP3   OH224735   5.875   1.429   8.000  0.1154  0.9543 -0.3495
 1059TIP3    H124736   5.885   1.347   8.050 -0.6277  1.2212  0.2626
 1059TIP3    H224737   5.888   1.403   7.909  0.5889  0.2847 -0.1034
 1060TIP3   OH224738   5.113   4.245   7.285  0.7079  0.2824 -0.1046
 1060TIP3    H124739   5.051   4.175   7.303  0.3904 -0.0454 -2.2945
 1060TIP3    H224740   5.198   4.201   7.276  0.8951  0.4655  0.6826
 1061TIP3   OH224741   0.553   1.230   8.399 -0.7642 -0.4058  0.2728
 1061TIP3    H124742   0.480   1.242   8.460 -0.5979  3.2579 -0.0045
 1061TIP3    H224743   0.631   1.228   8.455 -0.8052  0.1889  0.3601
 1062TIP3   OH224744   1.837   0.795   2.276 -0.1667 -0.5371 -0.0990
 1062TIP3    H124745   1.872   0.852   2.345  1.2967 -3.0920  1.4267
 1062TIP3    H224746   1.743   0.792   2.294 -0.2397  1.0686 -0.0218
 1063TIP3   OH224747   5.010   4.611   8.701 -0.3042 -0.1821  0.4624
 1063TIP3    H124748   4.951   4.632   8.774 -2.8087 -1.3684 -1.0833
 1063TIP3    H224749   5.017   4.692   8.651  1.2733  0.5856  1.8098
 1064TIP3   OH224750   0.274   4.388   0.132 -0.6609  0.1977 -1.0699
 1064TIP3    H124751   0.236   4.419   0.215 -1.3801 -0.6227 -1.0678
 1064TIP3    H224752   0.261   4.459   0.071 -1.5484  0.2200 -0.8676
 1065TIP3   OH224753   4.125   2.180   8.296 -0.3250 -0.4227 -0.1675
 1065TIP3    H124754   4.206   2.131   8.312  0.1893 -0.0665 -1.5374
 1065TIP3    H224755   4.103   2.219   8.381 -0.2979 -2.3153  0.7540
 1066TIP3   OH224756   1.077   6.231   7.227 -0.3879 -0.3016  0.0203
 1066TIP3    H124757   1.115   6.143   7.224 -2.2114 -1.1040 -1.7484
 1066TIP3    H224758   1.137   6.285   7.176  0.2030 -0.7439  0.2358
 1067TIP3   OH224759   0.054   1.105   2.883  0.1410  0.2927  0.0170
 1067TIP3    H124760   0.014   1.070   2.803  0.7345 -0.6711  0.1213
 1067TIP3    H224761   0.079   1.194   2.860 -1.3506  0.6593 -0.2822
 1068TIP3   OH224762   1.161   0.499   0.883 -0.5278  0.2440 -0.2420
 1068TIP3    H124763   1.174   0.478   0.791 -0.1154  2.9439 -0.8916
 1068TIP3    H224764   1.085   0.446   0.909 -0.6059 -0.6362 -2.0975
 1069TIP3   OH224765   0.924   6.112   0.893  0.7635  0.2450  0.0016
 1069TIP3    H124766   1.016   6.128   0.915  1.2946  1.5569 -2.6892
 1069TIP3    H224767   0.884   6.084   0.975  3.5487 -0.3885  1.2667
 1070TIP3   OH224768   2.752   3.967   7.205 -0.2547 -0.3970  0.4384
 1070TIP3    H124769   2.788   4.050   7.237 -0.9203  0.5531 -1.1855
 1070TIP3    H224770   2.768   3.906   7.277  1.1268  0.8855  1.2971
 1071TIP3   OH224771   1.725   6.701   1.950  0.3603  0.0561  0.1830
 1071TIP3    H124772   1.768   6.786   1.942  0.3743 -0.0206 -0.6652
 1071TIP3    H224773   1.785   6.648   2.001  1.9733 -0.4863 -2.1214
 1072TIP3   OH224774   1.073   5.743   1.058  0.4613 -0.8250 -0.4932
 1072TIP3    H124775   1.042   5.652   1.054  0.0699 -0.6642 -1.4776
 1072TIP3    H224776   1.036   5.784   0.980 -0.5095  0.5421  0.6215
 1073TIP3   OH224777   5.294   2.537   1.751  0.1120  0.1865  0.5571
 1073TIP3    H124778   5.229   2.607   1.760  0.0099  0.2364 -0.4533
 1073TIP3    H224779   5.246   2.465   1.710  0.9468  0.6480 -1.3473
 1074TIP3   OH224780   2.704   5.718   0.674 -0.1538 -0.2196  0.1468
 1074TIP3    H124781   2.777   5.717   0.613 -0.2016 -0.7229  0.0949
 1074TIP3    H224782   2.686   5.811   0.688  1.2423 -0.0539  1.0536
 1075TIP3   OH224783   6.053   4.668   1.507 -0.3131 -0.3477  0.3201
 1075TIP3    H124784   6.067   4.681   1.413 -0.5106  0.4797  0.3922
 1075TIP3    H224785   6.070   4.755   1.545 -0.1956 -0.6864  1.0505
 1076TIP3   OH224786   2.990   6.337   1.591 -0.7852  0.1093  0.2974
 1076TIP3    H124787   2.938   6.396   1.536 -0.0789  1.3440  0.9144
 1076TIP3    H224788   3.037   6.395   1.652  0.3280 -1.0477  0.5971
 1077TIP3   OH224789   5.344   0.171   8.739  0.3803  1.0416 -0.1653
 1077TIP3    H124790   5.385   0.085   8.749  0.1198  1.0901  1.5854
 1077TIP3    H224791   5.385   0.226   8.805 -1.2089  1.5755  0.4375
 1078TIP3   OH224792   5.600   1.096   1.414  0.7938  0.2034 -0.4960
 1078TIP3    H124793   5.540   1.093   1.340  0.6373 -0.0853 -0.3606
 1078TIP3    H224794   5.616   1.189   1.429  0.3265  0.2844 -0.4925
 1079TIP3   OH224795   3.192   3.619   1.336 -0.0141 -0.2309  0.7021
 1079TIP3    H124796   3.239   3.601   1.255  2.3649  1.6966  1.5554
 1079TIP3    H224797   3.131   3.689   1.313  0.3007 -0.0347  0.4660
 1080TIP3   OH224798   3.769   5.594   2.368  0.0423  0.0617 -0.0543
 1080TIP3    H124799   3.856   5.632   2.373  1.3749 -2.8010  0.4772
 1080TIP3    H224800   3.753   5.583   2.274  0.2930  0.4608 -0.1466
 1081TIP3   OH224801   5.805   4.728   7.199  0.2083 -0.4192 -0.2959
 1081TIP3    H124802   5.860   4.782   7.143 -0.6767 -0.3451 -1.1131
 1081TIP3    H224803   5.823   4.638   7.172 -0.4674 -0.3659 -0.9453
 1082TIP3   OH224804   3.538   6.659   0.319  0.4262 -0.0429 -0.4995
 1082TIP3    H124805   3.593   6.722   0.272 -0.2532  0.2044 -0.9772
 1082TIP3    H224806   3.561   6.574   0.283  1.6430 -0.1450  0.4273
 1083TIP3   OH224807   1.970   1.742   8.784 -0.0320 -0.0874 -0.2249
 1083TIP3    H124808   2.057   1.783   8.783 -0.4576  0.8414 -1.2677
 1083TIP3    H224809   1.968   1.693   8.867  0.9776  0.9565  0.4574
 1084TIP3   OH224810   1.530   4.095   6.905  0.2416  0.1781 -0.2371
 1084TIP3    H124811   1.523   4.104   7.000 -2.6094 -2.7029  0.0116
 1084TIP3    H224812   1.624   4.089   6.888  0.8298  0.7867  2.3858
 1085TIP3   OH224813   6.744   1.814   0.824  0.1186 -0.2635  0.6469
 1085TIP3    H124814   6.813   1.747   0.827 -0.3023 -0.7522 -0.2454
 1085TIP3    H224815   6.663   1.765   0.840 -0.3796 -0.2711 -1.5890
 1086TIP3   OH224816   4.438   6.588   0.300  0.0111 -0.2084  0.0395
 1086TIP3    H124817   4.501   6.542   0.244 -0.4055 -1.1386  0.3208
 1086TIP3    H224818   4.370   6.618   0.239  1.2740  1.8317 -0.4424
 1087TIP3   OH224819   4.645   0.323   1.165 -0.3979 -0.3604 -0.6054
 1087TIP3    H124820   4.652   0.236   1.205  0.5915  0.1153  0.2833
 1087TIP3    H224821   4.551   0.337   1.154 -0.6782 -0.7212  1.0846
 1088TIP3   OH224822   1.042   1.307   0.394  0.2380 -0.0384  0.6843
 1088TIP3    H124823   1.036   1.217   0.427  0.9868 -0.5748 -0.5626
 1088TIP3    H224824   1.086   1.298   0.309  0.5790  1.5463  0.6724
 1089TIP3   OH224825   0.617   5.573   2.003 -0.3003  0.3087  0.1686
 1089TIP3    H124826   0.599   5.620   2.084  0.8043  1.4407 -0.2118
 1089TIP3    H224827   0.536   5.580   1.953 -0.7885  0.1275  0.9097
 1090TIP3   OH224828   0.286   4.381   1.050 -0.4594  0.3299 -0.3708
 1090TIP3    H124829   0.322   4.431   1.124 -1.7417  3.8170 -1.8610
 1090TIP3    H224830   0.357   4.379   0.986 -0.7922  1.4972 -0.8057
 1091TIP3   OH224831   6.085   5.375   2.036  0.4241 -0.5731  0.1897
 1091TIP3    H124832   6.140   5.452   2.044  0.7404 -0.8118  0.3586
 1091TIP3    H224833   6.111   5.319   2.109 -0.2707 -0.5526  0.4629
 1092TIP3   OH224834   5.412   1.085   1.217 -0.0330 -0.1916  0.1496
 1092TIP3    H124835   5.460   1.007   1.188 -0.4320 -0.9220  1.3978
 1092TIP3    H224836   5.327   1.079   1.173 -0.3370 -0.8588  0.8277
 1093TIP3   OH224837   6.759   2.093   0.769  0.1789  0.5684  0.0911
 1093TIP3    H124838   6.695   2.140   0.824  0.7088 -0.4596  1.6580
 1093TIP3    H224839   6.749   2.001   0.795 -0.6201 -0.2177 -2.6807
 1094TIP3   OH224840   1.471   0.535   2.691 -0.4236 -0.3428  0.0203
 1094TIP3    H124841   1.546   0.595   2.682  0.7277 -1.6351  0.6277
 1094TIP3    H224842   1.401   0.590   2.725  0.9596  0.4404  1.7674
 1095TIP3   OH224843   6.730   1.176   2.633  0.0199 -0.2727 -0.0924
 1095TIP3    H124844   6.792   1.172   2.560  0.0095 -1.2727 -0.0549
 1095TIP3    H224845   6.703   1.268   2.636  0.9173  0.0230 -0.5949
 1096TIP3   OH224846   5.895   4.187   0.531 -0.1112  0.3795  0.2832
 1096TIP3    H124847   5.919   4.218   0.444 -2.0969 -1.1514 -0.8925
 1096TIP3    H224848   5.824   4.245   0.559 -0.4753 -0.0326  0.2253
 1097TIP3   OH224849   5.584   4.618   8.575 -0.2516 -0.0451 -0.5063
 1097TIP3    H124850   5.533   4.562   8.633 -0.5923  2.5147  1.8369
 1097TIP3    H224851   5.520   4.650   8.511 -0.3684 -0.9996 -0.8985
 1098TIP3   OH224852   3.039   0.326   6.772  0.1066  0.7862 -0.2000
 1098TIP3    H124853   2.994   0.243   6.784 -0.0998  0.8781 -0.3320
 1098TIP3    H224854   3.131   0.307   6.792  0.0483  0.5431 -0.1661
 1099TIP3   OH224855   5.398   5.066   0.604  0.2225  0.2700 -0.1617
 1099TIP3    H124856   5.422   5.093   0.515 -0.0796  0.5272 -0.1676
 1099TIP3    H224857   5.451   4.989   0.621  2.0193  1.5496  0.3192
 1100TIP3   OH224858   3.639   4.198   0.016  0.2471 -0.2351 -0.1082
 1100TIP3    H124859   3.714   4.254  -0.001  2.4117 -3.5290 -2.8838
 1100TIP3    H224860   3.575   4.222  -0.051 -1.0281  1.9967  1.7413
 1101TIP3   OH224861   3.111   6.740   0.975 -0.5553 -0.5144 -0.3938
 1101TIP3    H124862   3.026   6.705   0.951 -0.4789 -0.0104 -1.4340
 1101TIP3    H224863   3.165   6.731   0.897  0.0026  0.2267 -0.1151
 1102TIP3   OH224864   6.311   3.438   8.564  0.5275  0.0100  0.8276
 1102TIP3    H124865   6.236   3.498   8.563  0.8038  0.3485 -0.5172
 1102TIP3    H224866   6.368   3.472   8.633 -0.0844  0.3166  1.1913
 1103TIP3   OH224867   0.405   6.100   1.542  0.0139 -0.0182 -0.4008
 1103TIP3    H124868   0.484   6.117   1.593 -0.5423  1.5262 -0.0185
 1103TIP3    H224869   0.423   6.138   1.456  0.2214 -0.9501 -0.7851
 1104TIP3   OH224870   5.502   2.366   7.448  0.4564  0.0063  0.3032
 1104TIP3    H124871   5.453   2.310   7.508  0.4602  0.0202  0.3191
 1104TIP3    H224872   5.594   2.354   7.473  0.6947 -1.8339 -1.2479
 1105TIP3   OH224873   5.304   1.094   2.531  0.0340 -0.2746  0.7878
 1105TIP3    H124874   5.382   1.092   2.587  0.1077 -0.3759  0.6819
 1105TIP3    H224875   5.294   1.186   2.507 -0.9558  0.0541  2.3055
 1106TIP3   OH224876   6.747   2.047   8.638 -0.3482  0.1851 -0.6601
 1106TIP3    H124877   6.701   1.967   8.612 -0.2692 -0.3361  0.7255
 1106TIP3    H224878   6.730   2.055   8.732  3.1278 -0.5342  0.1481
 1107TIP3   OH224879   1.495   4.029   1.359 -0.0283  0.1137 -0.3620
 1107TIP3    H124880   1.446   4.107   1.385 -0.7542 -0.1212 -1.0303
 1107TIP3    H224881   1.529   3.994   1.442  2.2495  2.3765 -0.1970
 1108TIP3   OH224882   1.775   3.612   7.336  0.3381  0.1659 -0.1969
 1108TIP3    H124883   1.727   3.684   7.377 -2.3838 -0.9327 -1.2293
 1108TIP3    H224884   1.768   3.628   7.242  1.3025 -0.5080 -0.4008
 1109TIP3   OH224885   4.488   0.190   7.062  0.1091 -0.2849  0.0512
 1109TIP3    H124886   4.395   0.177   7.048 -0.0764 -0.5159  1.3517
 1109TIP3    H224887   4.495   0.217   7.154  1.4005 -1.3088  0.2909
 1110TIP3   OH224888   5.656   0.831   0.595 -0.0549 -0.1875  0.0570
 1110TIP3    H124889   5.654   0.799   0.505  0.9973 -0.9336  0.2827
 1110TIP3    H224890   5.736   0.794   0.632 -0.2425  0.4729  1.1692
 1111TIP3   OH224891   5.014   2.826   8.357 -0.4104 -0.4102 -0.0358
 1111TIP3    H124892   4.927   2.856   8.382  0.1923 -1.3964  4.0242
 1111TIP3    H224893   5.070   2.849   8.432  2.1968 -2.3470 -1.2026
 1112TIP3   OH224894   4.570   4.103   8.691 -0.0828  0.4469 -0.3854
 1112TIP3    H124895   4.585   4.130   8.601  5.8984  2.3466  0.7174
 1112TIP3    H224896   4.626   4.026   8.702 -2.3494 -1.0764  1.2956
 1113TIP3   OH224897   0.445   3.635   7.043 -0.0629  0.3159  0.4608
 1113TIP3    H124898   0.394   3.567   6.999 -0.4864  1.6028 -1.1041
 1113TIP3    H224899   0.516   3.587   7.086 -0.5705 -1.1516 -0.2777
 1114TIP3   OH224900   0.976   3.723   2.340  0.4662  0.2784  0.2062
 1114TIP3    H124901   0.968   3.709   2.435  2.2467 -0.3937  0.2932
 1114TIP3    H224902   1.054   3.777   2.331 -0.9836  2.3162 -0.7732
 1115TIP3   OH224903   6.641   6.050   1.381  0.5315 -0.2493 -0.0321
 1115TIP3    H124904   6.609   6.140   1.390  0.7175 -0.1517 -0.3250
 1115TIP3    H224905   6.726   6.051   1.424  0.0700 -0.5597  0.9282
 1116TIP3   OH224906   4.017   5.037   8.577 -0.2350  0.6881 -0.4518
 1116TIP3    H124907   3.957   5.054   8.650  0.6593  0.7942  0.2817
 1116TIP3    H224908   4.101   5.021   8.619  0.6348  2.1826 -1.5142
 1117TIP3   OH224909   5.863   3.979   0.830 -0.3218 -0.0510 -0.2029
 1117TIP3    H124910   5.907   4.047   0.880  0.7039  0.3039 -1.5427
 1117TIP3    H224911   5.800   4.026   0.775  1.4302  0.0662 -2.2501
 1118TIP3   OH224912   0.171   2.975   1.322  0.1476 -0.6810 -0.0033
 1118TIP3    H124913   0.168   2.996   1.416 -0.9282 -1.3660  0.1395
 1118TIP3    H224914   0.109   3.035   1.282  0.1667 -0.7837 -0.1895
 1119TIP3   OH224915   1.522   0.711   2.065  0.5705 -0.2961 -0.2866
 1119TIP3    H124916   1.435   0.746   2.041  0.3788 -0.9954 -0.6452
 1119TIP3    H224917   1.583   0.766   2.016  0.3429  0.2717  0.0501
 1120TIP3   OH224918   4.861   1.276   0.224 -0.3497  0.3780  0.4199
 1120TIP3    H124919   4.881   1.368   0.242  1.6630 -0.0928  0.7668
 1120TIP3    H224920   4.840   1.275   0.130  1.7581  0.8990 -0.1056
 1121TIP3   OH224921   4.269   1.168   8.284 -0.3589  0.1923 -0.1457
 1121TIP3    H124922   4.320   1.191   8.206  0.1711 -0.3460  0.0376
 1121TIP3    H224923   4.271   1.247   8.338 -0.7011  0.5574 -0.6574
 1122TIP3   OH224924   2.835   5.478   0.868  0.3564 -0.4126 -0.2756
 1122TIP3    H124925   2.819   5.417   0.940 -1.1185 -0.8693 -0.9601
 1122TIP3    H224926   2.750   5.488   0.826  0.5951  1.9948 -0.2977
 1123TIP3   OH224927   3.277   6.483   7.932  0.2884  0.3135  0.3105
 1123TIP3    H124928   3.339   6.510   7.864  0.5229 -3.4563 -1.2002
 1123TIP3    H224929   3.192   6.477   7.887  0.3185 -1.5798  0.4171
 1124TIP3   OH224930   5.625   1.341   2.003 -0.2475 -0.3790 -0.3194
 1124TIP3    H124931   5.662   1.368   2.088 -1.0059  1.6472 -0.5729
 1124TIP3    H224932   5.595   1.252   2.018  1.4928 -0.8234  0.9262
 1125TIP3   OH224933   4.117   2.239   8.590 -0.0502  0.3964  0.9986
 1125TIP3    H124934   4.103   2.171   8.656  0.4120 -2.4227 -1.6247
 1125TIP3    H224935   4.038   2.239   8.538  0.2991  1.3128  0.4384
 1126TIP3   OH224936   3.966   0.646   0.634 -0.0389  0.0166 -0.1602
 1126TIP3    H124937   4.023   0.570   0.645  0.4477  0.4158  0.1690
 1126TIP3    H224938   3.966   0.664   0.540  1.2781  0.6737 -0.0556
 1127TIP3   OH224939   5.391   4.926   1.674 -0.2928 -0.2023  0.0619
 1127TIP3    H124940   5.446   4.876   1.613  0.5802  0.5368  0.2056
 1127TIP3    H224941   5.312   4.874   1.685  0.4632 -1.4008 -0.0175
 1128TIP3   OH224942   4.726   0.445   7.451 -0.0978 -0.0236  0.4623
 1128TIP3    H124943   4.775   0.380   7.501  0.5751  0.1230  0.0055
 1128TIP3    H224944   4.647   0.399   7.422  1.2448 -1.2681 -1.4967
 1129TIP3   OH224945   4.919   0.795   8.709  0.9861 -0.2426  0.4470
 1129TIP3    H124946   4.829   0.765   8.700  0.7135  1.0280 -1.8458
 1129TIP3    H224947   4.913   0.877   8.758  0.3215  1.7701 -2.6811
 1130TIP3   OH224948   4.743   6.763   7.441  0.1494  0.8477  0.1663
 1130TIP3    H124949   4.812   6.769   7.507  2.5769 -0.6053 -2.0165
 1130TIP3    H224950   4.696   6.846   7.448  0.1240  0.6876  3.7403
 1131TIP3   OH224951   6.446   6.746   2.429  0.2065 -0.1092 -0.5199
 1131TIP3    H124952   6.477   6.724   2.517  0.5823  0.2279 -0.5655
 1131TIP3    H224953   6.358   6.710   2.425  0.5445 -1.0038 -0.3523
 1132TIP3   OH224954   4.292   4.232   7.483 -0.3790 -0.0112  0.4027
 1132TIP3    H124955   4.201   4.258   7.467 -0.3276 -1.2657 -2.4285
 1132TIP3    H224956   4.343   4.312   7.467 -0.8448  0.2599  0.2526
 1133TIP3   OH224957   5.282   0.895   8.663  0.3674  0.6079 -0.0749
 1133TIP3    H124958   5.376   0.901   8.651  0.5090 -1.4535 -0.2905
 1133TIP3    H224959   5.259   0.807   8.634 -1.2652  0.1752  2.2299
 1134TIP3   OH224960   4.892   4.617   0.085 -0.1281 -0.7537  0.0571
 1134TIP3    H124961   4.885   4.709   0.112  0.7705 -0.7680  0.3591
 1134TIP3    H224962   4.801   4.586   0.082 -0.7038  0.8065 -2.4102
 1135TIP3   OH224963   0.763   5.619   8.641  0.3748  0.1008  0.2920
 1135TIP3    H124964   0.744   5.620   8.547  1.2506 -1.2140  0.0726
 1135TIP3    H224965   0.677   5.615   8.683  0.0093 -0.3767 -0.4887
 1136TIP3   OH224966   0.790   3.281   0.144  0.0493 -0.0722  0.8141
 1136TIP3    H124967   0.736   3.358   0.128  1.2839  0.4497 -1.2839
 1136TIP3    H224968   0.770   3.223   0.070  1.7762 -0.1669  0.3825
 1137TIP3   OH224969   5.321   1.048   0.247  0.2097 -0.3513  0.4690
 1137TIP3    H124970   5.352   1.139   0.244  1.2099 -0.6906 -0.5013
 1137TIP3    H224971   5.262   1.041   0.172  1.5443 -0.9571 -0.5524
 1138TIP3   OH224972   1.489   2.792   0.144 -0.2275  0.3912  0.0177
 1138TIP3    H124973   1.499   2.718   0.084 -1.0341  1.1047 -1.0184
 1138TIP3    H224974   1.577   2.827   0.154 -0.0748  0.2139 -0.6754
 1139TIP3   OH224975   5.253   5.688   1.074  0.2290  0.1164 -0.3148
 1139TIP3    H124976   5.268   5.733   0.991 -0.1697  1.3890  0.2645
 1139TIP3    H224977   5.306   5.737   1.137  0.2502 -0.6124  0.2432
 1140TIP3   OH224978   1.788   1.454   8.169 -0.3445 -0.0192  0.4093
 1140TIP3    H124979   1.782   1.543   8.203 -0.9054  0.1986 -0.2195
 1140TIP3    H224980   1.831   1.464   8.084 -3.1117  0.1007 -1.0995
 1141TIP3   OH224981   4.956   2.301   0.509 -0.1932 -0.8017 -0.1414
 1141TIP3    H124982   5.005   2.379   0.532 -1.7909  0.1496  0.2275
 1141TIP3    H224983   4.993   2.231   0.563  1.1895 -0.2924 -0.4072
 1142TIP3   OH224984   3.887   5.620   1.086 -0.4816 -0.5185  0.0729
 1142TIP3    H124985   3.842   5.557   1.029 -0.1437  0.5765 -1.4744
 1142TIP3    H224986   3.817   5.663   1.134 -0.7580 -1.6397  0.7028
 1143TIP3   OH224987   6.375   6.005   0.063 -0.0168 -0.1056  0.1464
 1143TIP3    H124988   6.468   6.008   0.042  0.5564  1.1060  2.5456
 1143TIP3    H224989   6.357   6.087   0.110 -2.1785 -0.5186  0.1684
 1144TIP3   OH224990   3.356   5.925   7.991 -0.1417 -0.4184 -0.0559
 1144TIP3    H124991   3.448   5.949   8.004 -0.5497  0.0578  2.4326
 1144TIP3    H224992   3.354   5.884   7.904  2.6519 -1.6761  0.3725
 1145TIP3   OH224993   5.319   1.248   1.495 -0.2978 -0.4483 -0.4926
 1145TIP3    H124994   5.262   1.218   1.425 -0.3063  0.5711 -0.9379
 1145TIP3    H224995   5.362   1.326   1.460  1.9485 -1.5940 -0.4631
 1146TIP3   OH224996   5.706   5.530   1.713 -0.2342 -0.4464  0.1528
 1146TIP3    H124997   5.739   5.580   1.639 -0.2410 -0.8941 -0.1583
 1146TIP3    H224998   5.782   5.518   1.770 -0.2258 -0.1144  0.2121
 1147TIP3   OH224999   2.824   3.523   7.962 -0.4645  0.4322 -0.3668
 1147TIP3    H125000   2.812   3.460   7.890 -1.1446  0.8311 -0.6155
 1147TIP3    H225001   2.895   3.580   7.932 -1.0989  0.9326 -0.9890
 1148TIP3   OH225002   2.477   4.876   1.010  0.7173 -0.0792  0.6201
 1148TIP3    H125003   2.382   4.862   1.007  0.7539 -0.2593  0.2685
 1148TIP3    H225004   2.487   4.959   1.057  0.3518  0.2670  0.0983
 1149TIP3   OH225005   0.239   4.147   6.510  0.0204 -0.8414 -0.0008
 1149TIP3    H125006   0.165   4.206   6.500  0.4559 -0.4305 -0.8947
 1149TIP3    H225007   0.305   4.199   6.556  0.5021 -0.5284 -1.0243
 1150TIP3   OH225008   1.473   4.769   7.707 -0.4253  0.1984 -0.0049
 1150TIP3    H125009   1.474   4.677   7.683 -0.9631 -0.2118  1.4631
 1150TIP3    H225010   1.397   4.778   7.765  0.1808  1.3564  0.6422
 1151TIP3   OH225011   1.373   0.023   8.056 -0.6495  0.3480  0.6012
 1151TIP3    H125012   1.330   0.025   7.971  1.4886 -0.3498 -0.5638
 1151TIP3    H225013   1.373  -0.069   8.081  2.0491 -0.0617 -0.5342
 1152TIP3   OH225014   4.134   3.240   7.663  0.4385  0.2158 -0.2202
 1152TIP3    H125015   4.044   3.248   7.633  0.8739  1.3557 -1.3441
 1152TIP3    H225016   4.157   3.149   7.647 -0.2166  0.1512 -0.8216
 1153TIP3   OH225017   3.123   2.164   1.386 -0.2628  0.3085 -0.1041
 1153TIP3    H125018   3.155   2.254   1.392 -0.2702  0.2917  0.2437
 1153TIP3    H225019   3.074   2.161   1.304 -1.3949  0.9975  0.5237
 1154TIP3   OH225020   2.866   5.185   8.278 -0.4495 -0.2604 -0.0441
 1154TIP3    H125021   2.780   5.154   8.249 -0.3867 -1.4316  0.9698
 1154TIP3    H225022   2.905   5.110   8.323  1.2309  0.1549 -0.7222
 1155TIP3   OH225023   4.453   6.621   7.578 -0.3385  0.0840  0.0935
 1155TIP3    H125024   4.520   6.591   7.639 -2.5744 -1.7532  1.8604
 1155TIP3    H225025   4.377   6.566   7.598 -1.4799 -0.0371 -3.8542
 1156TIP3   OH225026   5.814   1.311   7.480  0.2159  0.2834  0.5028
 1156TIP3    H125027   5.736   1.267   7.448  0.7768  0.2760 -0.8952
 1156TIP3    H225028   5.879   1.241   7.489  0.7443  0.6205 -0.5612
 1157TIP3   OH225029   4.955   4.023   2.609 -0.4584  0.3207  0.1021
 1157TIP3    H125030   4.942   4.074   2.689  1.3526  3.0116 -1.1724
 1157TIP3    H225031   4.952   3.932   2.638 -1.8190  1.1381  2.8685
 1158TIP3   OH225032   2.178   1.258   7.444  0.3093 -0.2729 -0.3694
 1158TIP3    H125033   2.219   1.226   7.525  2.4006  0.4325 -1.1075
 1158TIP3    H225034   2.250   1.290   7.391 -1.3115  2.1647 -1.2657
 1159TIP3   OH225035   5.293   1.902   8.762 -0.6554 -0.3993  0.4205
 1159TIP3    H125036   5.329   1.981   8.802 -0.9492 -0.6930  1.2768
 1159TIP3    H225037   5.367   1.864   8.714  0.1068 -0.8172  1.8759
 1160TIP3   OH225038   3.163   6.169   7.892 -0.2048 -0.1614  0.0697
 1160TIP3    H125039   3.195   6.255   7.919  0.7295  0.4812 -2.7511
 1160TIP3    H225040   3.238   6.128   7.849 -1.0361 -1.8440  0.1543
 1161TIP3   OH225041   0.149   1.502   0.161 -0.6915  0.3976  0.6063
 1161TIP3    H125042   0.121   1.578   0.110 -1.8113 -0.4298 -0.0477
 1161TIP3    H225043   0.130   1.525   0.252 -3.0760  0.0993  0.2457
 1162TIP3   OH225044   2.371   1.018   8.667 -0.7181 -0.6674  0.1695
 1162TIP3    H125045   2.388   0.966   8.746 -0.4473  0.0267  0.5796
 1162TIP3    H225046   2.446   0.999   8.610 -0.4110 -0.4294  0.4841
 1163TIP3   OH225047   4.955   6.201   7.099 -0.2865 -0.0935  0.3624
 1163TIP3    H125048   4.886   6.228   7.038  0.9158  0.1957 -0.9199
 1163TIP3    H225049   4.925   6.117   7.133 -0.5817 -0.6970 -1.3130
 1164TIP3   OH225050   1.824   1.898   0.666  0.4215  0.1478 -0.0400
 1164TIP3    H125051   1.838   1.866   0.755 -1.4548 -1.8857 -0.3860
 1164TIP3    H225052   1.904   1.875   0.619  1.8609  2.1609  1.2807
 1165TIP3   OH225053   2.372   2.242   6.824  0.4569  0.6313 -0.2018
 1165TIP3    H125054   2.407   2.156   6.797  0.3872  1.3292 -2.7745
 1165TIP3    H225055   2.449   2.298   6.831  0.5347  0.3261  1.7986
 1166TIP3   OH225056   6.284   4.554   2.524  0.1470 -0.1422 -0.0769
 1166TIP3    H125057   6.337   4.631   2.504 -1.3063  0.8194 -0.4132
 1166TIP3    H225058   6.333   4.507   2.591 -0.0310  2.3256  1.8925
 1167TIP3   OH225059   5.806   1.951   7.373  0.5260  0.5533  0.4193
 1167TIP3    H125060   5.792   1.914   7.460 -0.7288  0.5672  0.2297
 1167TIP3    H225061   5.720   1.951   7.332  1.1500  0.2568 -0.9471
 1168TIP3   OH225062   4.378   3.004   0.059  0.3071 -0.6411  0.1316
 1168TIP3    H125063   4.286   3.010   0.083 -0.2075 -0.4522 -1.7408
 1168TIP3    H225064   4.382   3.037  -0.030  2.4411  0.7947  0.6780
 1169TIP3   OH225065   3.687   1.988   8.381  0.3249 -0.1911  0.3707
 1169TIP3    H125066   3.625   1.981   8.454  1.0138 -2.3149  0.8193
 1169TIP3    H225067   3.772   1.970   8.421  1.2887  2.4745 -0.2685
 1170TIP3   OH225068   0.310   3.965   7.216 -0.0979  0.2894 -0.2598
 1170TIP3    H125069   0.301   4.023   7.140  0.6868  0.7165 -0.0378
 1170TIP3    H225070   0.222   3.932   7.232 -0.3050  0.3454 -1.2394
 1171TIP3   OH225071   2.122   4.440   1.083 -0.4512  0.0642  0.3157
 1171TIP3    H125072   2.161   4.395   1.158  0.0823  0.8968  0.5499
 1171TIP3    H225073   2.040   4.475   1.116 -0.6841 -0.3966  0.2374
 1172TIP3   OH225074   3.875   5.864   0.752  0.3116 -0.7150 -0.2495
 1172TIP3    H125075   3.790   5.822   0.745  0.2561 -0.7291  0.4908
 1172TIP3    H225076   3.855   5.954   0.780  0.5349 -0.6984 -0.1407
 1173TIP3   OH225077   3.352   6.601   7.693  0.6986 -0.2227  0.0004
 1173TIP3    H125078   3.338   6.688   7.732  2.2658  0.5330 -1.0255
 1173TIP3    H225079   3.447   6.594   7.684  0.4861 -0.3186 -3.6657
 1174TIP3   OH225080   2.845   6.125   0.323 -0.3757  0.3212  0.6216
 1174TIP3    H125081   2.797   6.144   0.404 -1.2652  1.5531 -0.1479
 1174TIP3    H225082   2.783   6.075   0.270 -0.9873  2.1527 -0.4846
 1175TIP3   OH225083   1.081   2.011   7.873  0.2260 -0.3090 -0.1972
 1175TIP3    H125084   1.120   2.090   7.835  0.1497 -1.0384 -1.8818
 1175TIP3    H225085   1.038   1.967   7.799  3.0048 -3.6023 -0.1239
 1176TIP3   OH225086   0.745   1.992   7.415 -0.0114  0.1920  0.0661
 1176TIP3    H125087   0.744   1.981   7.320  0.8833  0.1073  0.0522
 1176TIP3    H225088   0.769   1.907   7.450 -1.0298  0.0364  0.4201
 1177TIP3   OH225089   2.892   3.829   0.835 -0.1654  0.0597 -0.1839
 1177TIP3    H125090   2.846   3.858   0.756  0.7060  2.4206  0.0876
 1177TIP3    H225091   2.872   3.896   0.900  2.2964  0.3127  0.4031
 1178TIP3   OH225092   5.361   3.075   1.273 -0.3015 -0.5724  0.0650
 1178TIP3    H125093   5.295   3.121   1.326 -0.5171 -1.4453  0.5835
 1178TIP3    H225094   5.310   3.017   1.217  0.0251 -1.3368  0.5511
 1179TIP3   OH225095   3.999   4.750   1.522 -0.3190  0.0549  0.1380
 1179TIP3    H125096   4.085   4.751   1.563 -0.9156  1.0385  1.4730
 1179TIP3    H225097   3.940   4.723   1.593 -1.2613  0.7494 -0.3563
 1180TIP3   OH225098   1.171   0.520   8.227 -0.2715 -0.4373  0.9477
 1180TIP3    H125099   1.086   0.479   8.211  0.5333 -1.8941  0.1460
 1180TIP3    H225100   1.232   0.472   8.170  1.0550  0.7236  1.3138
 1181TIP3   OH225101   4.547   1.355   0.545  0.0556  0.0185  0.0779
 1181TIP3    H125102   4.514   1.320   0.628 -1.2161 -1.9205 -1.1605
 1181TIP3    H225103   4.630   1.397   0.568 -0.2266 -0.5233  2.3030
 1182TIP3   OH225104   5.577   3.140   7.181  0.5414 -0.0607 -0.0468
 1182TIP3    H125105   5.555   3.183   7.098  1.9426 -0.3944 -0.6332
 1182TIP3    H225106   5.672   3.126   7.175  0.3286 -2.0488  0.6901
 1183TIP3   OH225107   6.613   4.155   7.733 -0.4746  0.0608  0.3750
 1183TIP3    H125108   6.563   4.074   7.724  1.0163 -0.7341 -1.7274
 1183TIP3    H225109   6.560   4.221   7.688 -0.2108 -0.5206 -0.8401
 1184TIP3   OH225110   6.223   4.582   7.266 -0.1903 -0.4069  0.3705
 1184TIP3    H125111   6.287   4.515   7.241 -0.6096 -0.3962 -0.7952
 1184TIP3    H225112   6.138   4.543   7.248 -0.4229  0.8059 -1.4059
 1185TIP3   OH225113   3.989   4.441   0.744  0.5435  0.8695  0.0094
 1185TIP3    H125114   4.070   4.486   0.721 -0.0610  1.1384 -1.7479
 1185TIP3    H225115   4.018   4.361   0.789  1.7781  0.9709 -0.5631
 1186TIP3   OH225116   4.865   3.555   7.350  0.0134  0.0739  0.1555
 1186TIP3    H125117   4.816   3.489   7.400 -0.5717 -0.9030 -1.6099
 1186TIP3    H225118   4.930   3.504   7.301 -0.4313  0.7746 -1.2257
 1187TIP3   OH225119   4.334   5.477   6.913 -0.6973  0.6484  0.0750
 1187TIP3    H125120   4.375   5.497   6.828  0.0726  0.4067  0.3844
 1187TIP3    H225121   4.332   5.562   6.958 -3.0983  1.2494 -0.9919
 1188TIP3   OH225122   2.540   4.907   7.043  0.4356 -0.4108  0.1654
 1188TIP3    H125123   2.582   4.993   7.037  1.3562 -0.8326  0.3765
 1188TIP3    H225124   2.477   4.906   6.971  1.9178 -0.3536 -1.1909
 1189TIP3   OH225125   1.886   5.086   7.804 -0.3236  0.0548  0.6299
 1189TIP3    H125126   1.816   5.097   7.868 -1.8776  0.9744 -1.1188
 1189TIP3    H225127   1.841   5.087   7.719  1.7861  0.3322 -0.5511
 1190TIP3   OH225128   3.917   4.949   1.802 -0.4309  0.1593 -0.3576
 1190TIP3    H125129   3.884   4.959   1.891  0.0533 -0.0261 -0.1551
 1190TIP3    H225130   3.924   4.854   1.790  0.4985  0.2012 -0.2162
 1191TIP3   OH225131   0.749   0.170   7.355  0.5337 -0.2837 -0.5969
 1191TIP3    H125132   0.701   0.247   7.387  1.2173 -0.3075  0.5159
 1191TIP3    H225133   0.709   0.151   7.270 -2.4573 -1.2327  0.9209
 1192TIP3   OH225134   0.643   2.673   6.738 -0.2146 -0.4213 -0.5135
 1192TIP3    H125135   0.675   2.699   6.824 -0.3502  0.0448 -0.5997
 1192TIP3    H225136   0.599   2.589   6.753 -0.4704 -0.2148 -0.0784
 1193TIP3   OH225137   4.865   6.390   2.070  0.1461  0.2273 -0.3403
 1193TIP3    H125138   4.872   6.363   2.161 -2.7062  0.0765 -0.0674
 1193TIP3    H225139   4.884   6.484   2.071 -0.8915  0.4490  0.6317
 1194TIP3   OH225140   0.019   4.097   1.349  0.2327 -0.3179 -0.1223
 1194TIP3    H125141   0.069   4.059   1.421 -0.9799 -1.3336  0.2134
 1194TIP3    H225142  -0.033   4.024   1.315 -1.5730  0.8494  0.0207
 1195TIP3   OH225143   4.974   5.983   7.674  0.3037  0.4324 -0.2769
 1195TIP3    H125144   4.978   6.075   7.697  0.6697  0.5595 -0.8369
 1195TIP3    H225145   4.934   5.941   7.750 -1.0394  1.2119 -0.5281
 1196TIP3   OH225146   2.751   5.888   8.250 -0.4805 -0.4503  0.3801
 1196TIP3    H125147   2.800   5.884   8.332  2.7142 -1.7738 -1.4222
 1196TIP3    H225148   2.770   5.975   8.215  2.2685 -1.5411 -1.1293
 1197TIP3   OH225149   6.368   6.712   1.170  0.0560 -0.1778 -0.4625
 1197TIP3    H125150   6.281   6.674   1.155 -0.5860  1.3400 -0.8322
 1197TIP3    H225151   6.351   6.805   1.183  1.8025  0.5828 -2.8764
 1198TIP3   OH225152   1.241   4.135   0.867  0.5592  0.6955 -0.1441
 1198TIP3    H125153   1.252   4.141   0.962 -0.2761  0.1426  0.0008
 1198TIP3    H225154   1.270   4.219   0.833  3.1808  0.0708  0.3595
 1199TIP3   OH225155   2.233   3.158   1.057 -0.5826  0.2183 -0.2430
 1199TIP3    H125156   2.284   3.113   0.989 -1.3421 -0.3988 -0.4115
 1199TIP3    H225157   2.261   3.249   1.050  1.4761 -0.3063  0.5560
 1200TIP3   OH225158   3.319   3.062   8.197 -0.0614  0.1117 -0.3175
 1200TIP3    H125159   3.228   3.074   8.221 -0.6311  2.3619 -3.0601
 1200TIP3    H225160   3.369   3.104   8.267 -1.1131 -0.4489  0.8069
 1201TIP3   OH225161   1.501   6.113   1.925 -0.0172 -0.8516 -0.3136
 1201TIP3    H125162   1.420   6.109   1.874  0.4030  0.6054 -1.1508
 1201TIP3    H225163   1.476   6.083   2.013 -1.4255 -0.5474 -0.5951
 1202TIP3   OH225164   3.816   0.044   1.642  0.0913  0.0588  0.1081
 1202TIP3    H125165   3.769  -0.016   1.585  0.5107 -0.5292  0.3635
 1202TIP3    H225166   3.751   0.073   1.706 -0.2089  0.1847 -0.2540
 1203TIP3   OH225167   1.506   3.381   0.390 -0.1211  0.1299 -0.8378
 1203TIP3    H125168   1.520   3.365   0.483 -2.0605  0.1227 -0.4936
 1203TIP3    H225169   1.431   3.441   0.388  0.2032  0.5206 -2.3901
 1204TIP3   OH225170   3.614   5.993   7.968 -0.0054  0.0890 -0.9702
 1204TIP3    H125171   3.657   5.917   7.930 -0.8158  0.1827 -2.1374
 1204TIP3    H225172   3.682   6.035   8.021  0.1176 -2.1283  0.7882
 1205TIP3   OH225173   3.555   5.450   2.559 -0.0245 -0.0407  0.0702
 1205TIP3    H125174   3.501   5.400   2.498 -0.1904 -0.1418  0.3021
 1205TIP3    H225175   3.498   5.519   2.592 -0.2132 -0.5385  0.8120
 1206TIP3   OH225176   4.586   3.755   8.603  0.0946 -0.6854 -0.5726
 1206TIP3    H125177   4.501   3.794   8.622  0.1103 -1.2596  0.8195
 1206TIP3    H225178   4.594   3.758   8.508 -0.8279  0.7161 -0.6256
 1207TIP3   OH225179   2.934   3.999   2.030  0.2804 -0.0651 -0.7207
 1207TIP3    H125180   2.871   4.019   2.099  1.9300  1.4165  0.4592
 1207TIP3    H225181   2.935   4.077   1.974  0.0114 -0.6767 -1.6027
 1208TIP3   OH225182   1.009   4.393   7.059 -0.0522  0.1238  0.6415
 1208TIP3    H125183   1.018   4.479   7.099 -0.6094  0.6575 -0.3405
 1208TIP3    H225184   1.097   4.370   7.031 -0.0857  0.8917 -0.1103
 1209TIP3   OH225185   0.446   1.151   0.307  0.4267  0.4385 -0.1624
 1209TIP3    H125186   0.410   1.203   0.380  0.1045  0.5847 -0.4221
 1209TIP3    H225187   0.392   1.176   0.232  0.2109 -0.3368 -0.2741
 1210TIP3   OH225188   2.095   5.248   0.512 -0.4579 -0.0092 -0.0398
 1210TIP3    H125189   2.137   5.334   0.513  0.8098 -0.6063 -0.3648
 1210TIP3    H225190   2.117   5.209   0.596  2.2618 -1.5139 -1.3356
 1211TIP3   OH225191   0.128   6.335   1.018 -0.0465  0.0075 -0.6658
 1211TIP3    H125192   0.180   6.416   1.017 -0.4030  0.2455 -0.3605
 1211TIP3    H225193   0.192   6.265   1.007  0.4982  0.2201  0.9123
 1212TIP3   OH225194   3.377   6.111   8.206  0.1284  0.6341  0.1574
 1212TIP3    H125195   3.347   6.042   8.147  1.1772 -0.3550  0.7384
 1212TIP3    H225196   3.366   6.073   8.294  0.7657  1.1848  0.4803
 1213TIP3   OH225197   1.726   4.906   7.203 -0.1194  0.2934  0.0671
 1213TIP3    H125198   1.720   4.898   7.299 -2.2569 -0.2157 -0.0747
 1213TIP3    H225199   1.650   4.958   7.179  1.2394  1.7642 -1.2558
 1214TIP3   OH225200   1.539   3.325   7.914  0.0394 -0.3405 -0.2347
 1214TIP3    H125201   1.589   3.263   7.861  0.6589 -0.4811  0.4874
 1214TIP3    H225202   1.539   3.287   8.002 -0.9742 -0.1223 -0.1205
 1215TIP3   OH225203   5.374   0.704   0.664  0.6445 -0.3917  0.1295
 1215TIP3    H125204   5.430   0.630   0.642 -1.3695 -1.6908 -0.9041
 1215TIP3    H225205   5.365   0.753   0.582 -0.4500 -0.7248  0.0355
 1216TIP3   OH225206   1.283   2.767   7.182  0.0672 -0.7979 -1.3789
 1216TIP3    H125207   1.190   2.748   7.192 -0.4921  1.9451 -0.4937
 1216TIP3    H225208   1.288   2.825   7.107  1.0857 -0.9782 -1.4613
 1217TIP3   OH225209   1.049   5.717   1.774 -0.1782 -0.4050 -0.1967
 1217TIP3    H125210   1.011   5.804   1.766  1.0737  0.0603 -1.5873
 1217TIP3    H225211   1.107   5.709   1.698 -0.2882 -2.4633 -0.1316
 1218TIP3   OH225212   0.163   2.357   7.833 -0.4074 -0.8644 -0.3938
 1218TIP3    H125213   0.167   2.326   7.743  0.6907 -3.1600  0.3760
 1218TIP3    H225214   0.186   2.450   7.827 -1.8733 -0.5597 -2.6008
 1219TIP3   OH225215   2.430   0.945   1.055 -1.4240  0.4590  0.2995
 1219TIP3    H125216   2.399   0.902   1.135  0.2976 -0.4094  0.5362
 1219TIP3    H225217   2.379   1.026   1.051 -0.8792  1.0158  2.8208
 1220TIP3   OH225218   5.417   2.945   7.770  0.3668 -0.3663 -1.1677
 1220TIP3    H125219   5.379   2.951   7.683 -0.8130 -1.2492 -0.7491
 1220TIP3    H225220   5.376   2.867   7.809  0.0471  0.6092  0.5479
 1221TIP3   OH225221   0.094   6.228   0.264 -0.1359  0.0989  0.7294
 1221TIP3    H125222   0.108   6.302   0.323 -0.5168 -0.3196  1.3593
 1221TIP3    H225223   0.144   6.156   0.304  0.0941 -0.0358  0.2140
 1222TIP3   OH225224   1.669   1.160   1.659 -0.0432 -0.6917  0.0524
 1222TIP3    H125225   1.751   1.110   1.664  0.3578 -0.0807 -0.2757
 1222TIP3    H225226   1.605   1.097   1.627 -0.1066 -1.6369  1.8788
 1223TIP3   OH225227   5.134   6.260   0.018  0.3045 -0.2851  0.6133
 1223TIP3    H125228   5.178   6.312   0.085  1.0415  0.9550 -0.7679
 1223TIP3    H225229   5.083   6.323  -0.032  1.2178 -0.8404 -1.1021
 1224TIP3   OH225230   4.905   3.833   8.237  0.2915 -0.5152 -0.1387
 1224TIP3    H125231   4.914   3.745   8.202  2.5644 -0.8569  1.1141
 1224TIP3    H225232   4.990   3.853   8.277 -0.3774  1.9576  0.2837
 1225TIP3   OH225233   6.405   4.316   1.736  0.0545 -0.1167 -0.0745
 1225TIP3    H125234   6.317   4.353   1.743 -0.3239 -1.0028  0.0107
 1225TIP3    H225235   6.393   4.222   1.751  0.8312 -0.4323 -1.2612
 1226TIP3   OH225236   2.916   2.114   8.663  0.7179  0.0561 -0.7455
 1226TIP3    H125237   2.903   2.020   8.673  1.5266  0.0128  0.0745
 1226TIP3    H225238   2.879   2.135   8.578  0.1091 -0.9224 -0.7317
 1227TIP3   OH225239   1.651   0.904   0.624  0.2007  0.0613 -0.2826
 1227TIP3    H125240   1.720   0.838   0.623 -0.6504 -0.8587 -1.1201
 1227TIP3    H225241   1.697   0.987   0.619  1.3122 -0.4384  0.9205
 1228TIP3   OH225242   5.704   1.088   0.970  0.3428  0.1974  0.0288
 1228TIP3    H125243   5.642   1.049   0.908  0.9296 -1.1428  0.2413
 1228TIP3    H225244   5.680   1.050   1.054  1.2550 -0.1177  0.1581
 1229TIP3   OH225245   4.286   0.382   7.225  0.0391 -0.2505 -0.4819
 1229TIP3    H125246   4.247   0.468   7.209 -1.0491 -0.2861  1.6077
 1229TIP3    H225247   4.243   0.324   7.163  0.6498  0.6505 -1.7834
 1230TIP3   OH225248   1.258   0.693   1.044 -0.0413  0.0046 -0.2173
 1230TIP3    H125249   1.222   0.645   0.970  0.6707  0.3950 -0.8283
 1230TIP3    H225250   1.299   0.627   1.099  0.7835 -0.1207 -0.9652
 1231TIP3   OH225251   3.537   0.542   8.515 -0.5367 -0.8454  0.1524
 1231TIP3    H125252   3.442   0.528   8.515 -0.6538 -0.2023  1.1210
 1231TIP3    H225253   3.569   0.494   8.439 -1.7792 -0.1671 -0.8463
 1232TIP3   OH225254   2.911   0.868   8.247  0.7528  0.1083  0.6871
 1232TIP3    H125255   2.890   0.815   8.324 -0.2772  0.7181  0.8308
 1232TIP3    H225256   2.883   0.814   8.173  0.8546 -0.0641  0.7718
 1233TIP3   OH225257   4.702   3.137   2.418  0.1007  0.3827  0.5842
 1233TIP3    H125258   4.680   3.047   2.443  0.3773 -0.3127 -1.4942
 1233TIP3    H225259   4.719   3.181   2.501 -0.3395 -1.3987  1.6777
 1234TIP3   OH225260   0.278   2.060   0.593 -0.3603  0.2554  0.4732
 1234TIP3    H125261   0.351   2.122   0.591  0.4734 -0.7125 -0.4087
 1234TIP3    H225262   0.274   2.025   0.503  0.8118 -2.7773  1.4830
 1235TIP3   OH225263   4.621   4.433   0.712 -0.1560  0.6584  0.8724
 1235TIP3    H125264   4.648   4.509   0.763 -1.6713  1.9803 -0.2288
 1235TIP3    H225265   4.567   4.468   0.642  1.0966 -1.1842 -1.1686
 1236TIP3   OH225266   1.781   0.619   7.602  0.3298 -0.2809  0.2713
 1236TIP3    H125267   1.833   0.539   7.604  1.0011  0.1170 -0.7845
 1236TIP3    H225268   1.845   0.690   7.605 -0.0185  0.2237 -2.2240
 1237TIP3   OH225269   3.875   6.242   1.012 -0.4322  0.4307 -0.2380
 1237TIP3    H125270   3.835   6.199   1.087 -0.2819 -0.4335 -0.6459
 1237TIP3    H225271   3.833   6.202   0.936  2.5943 -2.0672 -0.7976
 1238TIP3   OH225272   6.292   1.763   2.085 -0.5403 -0.0049 -0.7429
 1238TIP3    H125273   6.350   1.754   2.009 -0.5285 -0.4421 -0.6846
 1238TIP3    H225274   6.253   1.676   2.095 -0.8857  0.1769 -0.5256
 1239TIP3   OH225275   3.139   4.318   0.928  0.7212 -0.3505  0.0566
 1239TIP3    H125276   3.164   4.410   0.936  1.1794 -0.5130  0.5206
 1239TIP3    H225277   3.186   4.274   0.998 -0.8547 -0.6717  0.9547
 1240TIP3   OH225278   1.703   3.067   1.460  0.2139  0.2348 -0.2740
 1240TIP3    H125279   1.646   2.992   1.478 -0.0236  0.0302 -1.7347
 1240TIP3    H225280   1.730   3.098   1.546 -2.0639  0.2963  0.5022
 1241TIP3   OH225281   1.523   5.808   1.922 -0.0454 -0.0045 -0.7470
 1241TIP3    H125282   1.480   5.875   1.975  0.7028  1.6340 -2.1056
 1241TIP3    H225283   1.456   5.741   1.909  0.0858 -1.0689  3.1334
 1242TIP3   OH225284   6.047   0.267   8.348 -0.1743 -0.1513 -0.0170
 1242TIP3    H125285   6.109   0.291   8.416 -0.2578 -0.3260  0.1240
 1242TIP3    H225286   6.025   0.175   8.367  2.3435 -1.3483 -2.1834
 1243TIP3   OH225287   4.851   3.494   0.874 -0.3902 -0.0498 -0.0162
 1243TIP3    H125288   4.928   3.502   0.818 -0.5718 -0.6184 -0.3582
 1243TIP3    H225289   4.826   3.402   0.867 -1.6674  0.3299 -0.6521
 1244TIP3   OH225290   1.659   1.216   1.207 -0.5224 -0.1503  0.3594
 1244TIP3    H125291   1.564   1.224   1.220 -0.7213  1.9329 -1.5257
 1244TIP3    H225292   1.694   1.300   1.237  0.3485  0.1411 -1.3245
 1245TIP3   OH225293   6.770   3.621   2.040 -0.6891 -0.3240 -0.0891
 1245TIP3    H125294   6.681   3.609   2.073 -0.0158 -0.3518  1.8606
 1245TIP3    H225295   6.815   3.540   2.064 -0.4317 -0.9167 -2.3020
 1246TIP3   OH225296   1.271   1.870   8.110 -0.3633 -0.5187  0.0598
 1246TIP3    H125297   1.301   1.853   8.199 -1.3587 -2.0076  0.1421
 1246TIP3    H225298   1.266   1.965   8.104  1.3580 -0.3249  1.0198
 1247TIP3   OH225299   6.056   2.750   0.980  0.4006  0.1104  0.5356
 1247TIP3    H125300   6.014   2.823   0.935 -1.7403 -0.6215  1.2249
 1247TIP3    H225301   6.040   2.768   1.073  2.6210  0.3411  0.9353
 1248TIP3   OH225302   3.353   5.079   8.156 -0.9129  0.1693 -0.3224
 1248TIP3    H125303   3.380   5.171   8.158 -2.3040  0.5938  0.8646
 1248TIP3    H225304   3.374   5.049   8.068 -0.0781  1.5160 -0.5997
 1249TIP3   OH225305   6.124   5.121   1.846  0.0213  0.1448 -0.1294
 1249TIP3    H125306   6.104   5.193   1.906  0.1089  0.5641 -0.5950
 1249TIP3    H225307   6.155   5.051   1.903  0.5975  0.7126  0.2766
 1250TIP3   OH225308   1.947   0.106   1.261 -0.4555  0.1918  0.1012
 1250TIP3    H125309   1.921   0.195   1.237 -1.4784 -0.3360 -0.8438
 1250TIP3    H225310   1.999   0.117   1.340  0.9718  1.7979 -0.9979
 1251TIP3   OH225311   1.472   4.125   0.281 -0.8577  0.2538 -0.4938
 1251TIP3    H125312   1.423   4.083   0.352 -1.4581  0.3288 -0.8569
 1251TIP3    H225313   1.559   4.086   0.285 -1.0825 -0.2174 -0.1282
 1252TIP3   OH225314   5.067   0.344   7.862 -0.1563  0.1536  0.5520
 1252TIP3    H125315   5.129   0.308   7.799 -0.8963 -0.8169  0.3434
 1252TIP3    H225316   5.117   0.409   7.912  0.5907  0.5333 -0.6532
 1253TIP3   OH225317   0.293   2.590   7.851  0.7715  0.2859  0.3218
 1253TIP3    H125318   0.331   2.570   7.936 -1.3099  1.8338  1.7222
 1253TIP3    H225319   0.320   2.680   7.833 -1.3109  1.0980  0.9263
 1254TIP3   OH225320   6.311   2.049   8.467  0.1913  0.6515 -0.0081
 1254TIP3    H125321   6.291   2.128   8.517  2.8899  1.5085 -0.1338
 1254TIP3    H225322   6.251   1.983   8.501 -0.8476  2.2480  1.4302
 1255TIP3   OH225323   5.641   2.099   0.043 -0.1746 -0.0435 -0.2702
 1255TIP3    H125324   5.548   2.124   0.045 -0.6955 -1.7886 -0.1404
 1255TIP3    H225325   5.669   2.105   0.134  0.0556  1.1387 -0.4033
 1256TIP3   OH225326   4.925   6.172   8.521  0.2089  0.1904 -0.1038
 1256TIP3    H125327   4.965   6.208   8.442  0.9458 -1.6021 -0.5934
 1256TIP3    H225328   4.996   6.171   8.585  0.2879 -0.6733 -0.1996
 1257TIP3   OH225329   6.433   5.742   0.299  0.2894  0.0803  0.0672
 1257TIP3    H125330   6.396   5.666   0.345 -0.2196 -0.2695 -0.8985
 1257TIP3    H225331   6.359   5.779   0.251  1.1616 -0.6151 -1.8911
 1258TIP3   OH225332   2.799   6.684   0.929  0.2134 -0.5404  0.1758
 1258TIP3    H125333   2.771   6.692   1.020  0.0642 -0.0541  0.0893
 1258TIP3    H225334   2.743   6.615   0.893 -1.4858  0.9646 -0.2172
 1259TIP3   OH225335   1.123   1.562   0.276 -0.1881  0.6160 -0.2848
 1259TIP3    H125336   1.072   1.518   0.344 -0.5458  0.0398 -0.9059
 1259TIP3    H225337   1.129   1.653   0.305  0.4406  0.2054  0.9525
 1260TIP3   OH225338   5.829   6.091   1.863  0.0571 -0.4908 -0.2400
 1260TIP3    H125339   5.734   6.100   1.850  0.0798 -2.5059 -2.5923
 1260TIP3    H225340   5.837   6.045   1.946 -0.9306  0.7228  0.5717
 1261TIP3   OH225341   1.227   1.864   1.248  0.1668 -0.3656  0.5058
 1261TIP3    H125342   1.183   1.779   1.253 -1.6975  0.5444  0.4613
 1261TIP3    H225343   1.297   1.852   1.183  0.8652 -2.2153  1.5336
 1262TIP3   OH225344   1.356   2.068   8.616 -0.9142  0.3223  0.0603
 1262TIP3    H125345   1.413   2.033   8.548  1.6359  1.8628  1.2704
 1262TIP3    H225346   1.372   2.012   8.692 -0.4413  1.1945  0.6165
 1263TIP3   OH225347   1.659   2.670   1.725  0.0139  0.3721 -0.2700
 1263TIP3    H125348   1.645   2.579   1.698  2.2585  0.0755 -0.6278
 1263TIP3    H225349   1.657   2.668   1.820  0.1751 -0.0646 -0.2760
 1264TIP3   OH225350   4.768   4.817   0.631 -0.3865 -0.2544 -0.8128
 1264TIP3    H125351   4.846   4.839   0.579  0.0971 -0.1324 -0.0544
 1264TIP3    H225352   4.742   4.900   0.671 -0.7929 -0.3377 -0.9013
 1265TIP3   OH225353   6.482   5.978   7.576  0.3047  0.2690 -0.5114
 1265TIP3    H125354   6.561   5.945   7.534  1.0712  2.3854 -0.8666
 1265TIP3    H225355   6.450   6.045   7.516  0.0916  1.7246  1.1513
 1266TIP3   OH225356   5.947   0.842   0.365  0.1788 -0.1583 -0.1958
 1266TIP3    H125357   6.011   0.845   0.436 -1.0949  1.9072  0.9797
 1266TIP3    H225358   5.950   0.929   0.326 -0.3825 -0.7226 -1.5698
 1267TIP3   OH225359   3.586   5.281   7.913  0.4806 -0.0603  0.3691
 1267TIP3    H125360   3.598   5.188   7.895  1.2654  0.2431 -0.7660
 1267TIP3    H225361   3.576   5.286   8.008  2.2295 -1.1340  0.6458
 1268TIP3   OH225362   3.843   4.958   7.325 -0.1125 -0.3563 -0.0332
 1268TIP3    H125363   3.762   4.955   7.376  1.0204 -0.8490  1.8505
 1268TIP3    H225364   3.868   4.866   7.317  0.8555 -0.1354  0.4177
 1269TIP3   OH225365   2.920   4.459   1.065 -0.3675 -0.3497 -0.2551
 1269TIP3    H125366   3.009   4.433   1.040 -0.7564 -1.4538 -0.5843
 1269TIP3    H225367   2.893   4.520   0.997 -0.4755 -1.3428 -1.1399
 1270TIP3   OH225368   5.630   0.482   7.263  0.3322  0.3063 -0.3416
 1270TIP3    H125369   5.703   0.534   7.230  0.4033  0.0383 -0.6181
 1270TIP3    H225370   5.554   0.541   7.260  0.6640  0.7870  0.5622
 1271TIP3   OH225371   3.204   0.106   7.343  0.7242  0.6440  0.4699
 1271TIP3    H125372   3.177   0.028   7.391 -0.0535 -0.5207 -1.7348
 1271TIP3    H225373   3.127   0.163   7.346  1.4622  1.6429  2.5243
 1272TIP3   OH225374   1.182   4.847   8.546 -1.0111  0.3662  0.4807
 1272TIP3    H125375   1.235   4.815   8.620  0.0441  0.1313 -0.3443
 1272TIP3    H225376   1.240   4.837   8.470 -2.5893 -0.7948 -0.6202
 1273TIP3   OH225377   1.972   4.179   8.542  0.1937  0.2453  1.3147
 1273TIP3    H125378   1.928   4.185   8.626 -0.7461 -1.2150  0.9647
 1273TIP3    H225379   2.064   4.163   8.563  0.0600  0.4357  2.0552
 1274TIP3   OH225380   0.959   0.447   8.767 -0.0167 -0.0547 -0.5085
 1274TIP3    H125381   1.019   0.466   8.696 -0.6310 -1.1613 -1.3575
 1274TIP3    H225382   0.895   0.518   8.764  0.3779  0.3070 -0.5631
 1275TIP3   OH225383   6.030   2.166   8.265 -0.2476  0.2169  0.1290
 1275TIP3    H125384   6.086   2.242   8.257 -1.5308  1.0208 -1.9043
 1275TIP3    H225385   5.950   2.199   8.305 -0.4470 -0.2688  0.1436
 1276TIP3   OH225386   0.440   6.757   7.370 -0.3416  0.0981  0.3188
 1276TIP3    H125387   0.368   6.802   7.326 -0.1648  0.1037  0.0352
 1276TIP3    H225388   0.426   6.665   7.352  0.9536  0.2241 -1.6418
 1277TIP3   OH225389   1.793   6.470   1.748 -0.2886  0.1622 -0.0935
 1277TIP3    H125390   1.793   6.380   1.782 -1.2992  0.2730  0.2380
 1277TIP3    H225391   1.764   6.523   1.821 -0.3172  0.6862 -0.4801
 1278TIP3   OH225392   0.316   1.704   7.402 -0.2981 -0.6636  0.7009
 1278TIP3    H125393   0.352   1.649   7.332 -0.7512  0.2247 -0.2512
 1278TIP3    H225394   0.382   1.701   7.471  0.3828 -1.1705  0.0408
 1279TIP3   OH225395   6.367   5.772   8.064 -0.1056 -0.2981 -0.7862
 1279TIP3    H125396   6.383   5.702   8.127  1.7000 -0.0537 -0.9359
 1279TIP3    H225397   6.344   5.726   7.983  0.1515 -0.6907 -0.6402
 1280TIP3   OH225398   1.058   1.103   0.973 -0.1607  0.4894 -0.3152
 1280TIP3    H125399   1.070   1.010   0.994  0.4177  0.2084 -1.7480
 1280TIP3    H225400   1.081   1.109   0.881  0.7007  2.2375 -0.0164
 1281TIP3   OH225401   3.645   5.683   7.243  0.2683  0.3478  0.2685
 1281TIP3    H125402   3.663   5.591   7.265  1.1064  0.0994 -1.2972
 1281TIP3    H225403   3.566   5.680   7.190 -0.5710  0.7152  1.4690
 1282TIP3   OH225404   4.950   1.075   6.359  0.3859 -0.6836 -0.0108
 1282TIP3    H125405   4.916   0.985   6.359 -0.6074 -0.3471 -1.5065
 1282TIP3    H225406   5.038   1.067   6.395  1.0806 -2.6201 -1.8766
 1283TIP3   OH225407   1.750   1.502   1.333 -0.4854 -0.2376 -0.7079
 1283TIP3    H125408   1.776   1.550   1.412  1.3801  0.1911 -1.5211
 1283TIP3    H225409   1.659   1.527   1.318 -0.4439  0.7474  0.5272
 1284TIP3   OH225410   1.906   3.062   1.903  0.4202  0.0842  0.3574
 1284TIP3    H125411   1.853   3.128   1.858  0.9731  0.6523  0.5417
 1284TIP3    H225412   1.925   2.997   1.835  0.3589  0.4036  0.0323
 1285TIP3   OH225413   3.660   6.023   8.310  1.0087 -0.1092  0.3062
 1285TIP3    H125414   3.727   5.993   8.372  0.5132 -1.1901  0.3332
 1285TIP3    H225415   3.709   6.072   8.244  1.7579 -0.4129  0.6242
 1286TIP3   OH225416   0.382   3.336   2.111 -0.3257 -0.0739  0.2236
 1286TIP3    H125417   0.372   3.406   2.176 -2.0954 -1.3348  1.4085
 1286TIP3    H225418   0.301   3.285   2.118  0.0469 -1.1078 -1.9939
 1287TIP3   OH225419   1.369   5.678   1.225  0.2724  0.5486 -0.1581
 1287TIP3    H125420   1.459   5.656   1.250  0.4066  1.2494 -0.0232
 1287TIP3    H225421   1.378   5.746   1.159 -0.1712  1.1277  0.3622
 1288TIP3   OH225422   5.695   4.927   8.792  0.1525 -0.1421  0.0170
 1288TIP3    H125423   5.707   5.022   8.780 -0.2813 -0.2186 -1.1561
 1288TIP3    H225424   5.781   4.896   8.819  0.5602  0.4605 -0.5332
 1289TIP3   OH225425   0.893   1.551   0.707 -0.2355  0.1762  0.0666
 1289TIP3    H125426   0.819   1.570   0.765 -1.5137  0.1783 -1.4946
 1289TIP3    H225427   0.858   1.487   0.644  1.2426 -0.1962 -0.4038
 1290TIP3   OH225428   5.689   4.714   1.239 -0.3725 -0.1747 -0.1480
 1290TIP3    H125429   5.711   4.801   1.270 -0.5857 -1.2676  3.4491
 1290TIP3    H225430   5.773   4.669   1.230 -0.3642 -0.1305 -0.2998
 1291TIP3   OH225431   2.793   4.792   8.413 -0.1920  0.0092 -0.6118
 1291TIP3    H125432   2.864   4.851   8.435 -1.5505  1.0597  1.2887
 1291TIP3    H225433   2.799   4.721   8.477 -1.1154  0.3788 -0.0852
 1292TIP3   OH225434   3.108   4.820   0.703  0.2977 -0.5935  0.8717
 1292TIP3    H125435   3.080   4.911   0.708 -0.0778 -0.6365 -0.1640
 1292TIP3    H225436   3.188   4.822   0.650  0.0634 -0.8966  0.4917
 1293TIP3   OH225437   1.227   3.675   1.357 -0.6123 -0.5080 -0.3298
 1293TIP3    H125438   1.221   3.762   1.317  1.2275  0.2084  0.8521
 1293TIP3    H225439   1.189   3.617   1.291 -1.3007  1.0822 -1.4289
 1294TIP3   OH225440   3.416   0.599   7.483 -0.1637 -0.1462 -0.0707
 1294TIP3    H125441   3.326   0.632   7.487 -0.3970 -0.8289  1.7031
 1294TIP3    H225442   3.406   0.504   7.477  0.4872 -0.1073 -2.9733
 1295TIP3   OH225443   3.905   3.492   6.945 -0.4379 -0.3963 -0.2211
 1295TIP3    H125444   3.917   3.498   6.850  0.0180  0.4761 -0.1161
 1295TIP3    H225445   3.990   3.462   6.978 -0.8216 -1.4598 -0.1411
 1296TIP3   OH225446   1.642   3.561   7.952  0.1951 -0.5704 -0.7112
 1296TIP3    H125447   1.566   3.620   7.959  0.0056 -0.7813 -0.9697
 1296TIP3    H225448   1.605   3.479   7.920  0.6382 -0.4471 -1.5881
 1297TIP3   OH225449   3.983   1.205   1.853  0.6227  0.0649 -0.2926
 1297TIP3    H125450   3.988   1.243   1.941 -1.8508  0.6806 -0.3640
 1297TIP3    H225451   4.003   1.278   1.795  1.9416 -0.2672 -0.2858
 1298TIP3   OH225452   5.213   3.800   0.223  0.5449 -0.5243  0.4182
 1298TIP3    H125453   5.135   3.775   0.173  0.9476  0.2752 -0.6520
 1298TIP3    H225454   5.286   3.777   0.167  0.9932  0.9311  0.3732
 1299TIP3   OH225455   4.169   6.429   1.281  0.1204  0.0238 -0.0273
 1299TIP3    H125456   4.084   6.447   1.322 -0.4324  1.2280 -1.6008
 1299TIP3    H225457   4.204   6.515   1.260  1.7028 -0.4630  0.4716
 1300TIP3   OH225458   0.197   4.224   8.088 -0.4084 -0.9352  0.4027
 1300TIP3    H125459   0.135   4.223   8.015  0.3527 -1.9367 -0.2724
 1300TIP3    H225460   0.150   4.266   8.160 -0.9309  0.7842 -0.8780
 1301TIP3   OH225461   0.498   6.617   8.743 -0.2281  0.4931  0.1771
 1301TIP3    H125462   0.545   6.561   8.805 -0.5948  0.3058  0.2938
 1301TIP3    H225463   0.413   6.632   8.785 -0.0516  1.3256  0.2514
 1302TIP3   OH225464   5.951   5.465   7.226  0.1720 -0.0073  0.1548
 1302TIP3    H125465   5.857   5.474   7.239  0.0502  0.2083 -0.7687
 1302TIP3    H225466   5.959   5.414   7.145  0.8549 -2.5786  1.7381
 1303TIP3   OH225467   2.583   5.136   8.654  0.0760  0.3603  0.2971
 1303TIP3    H125468   2.635   5.212   8.630 -0.4943  0.8402  0.5571
 1303TIP3    H225469   2.580   5.137   8.749 -2.1888  1.5945  0.2676
 1304TIP3   OH225470   2.474   6.698   1.841 -0.2127 -0.3383  0.2307
 1304TIP3    H125471   2.412   6.701   1.914 -1.3950  1.4785 -0.7455
 1304TIP3    H225472   2.490   6.790   1.819  1.7421 -0.7960 -0.4892
 1305TIP3   OH225473   2.422   6.574   1.215  0.2290  0.5637 -0.0526
 1305TIP3    H125474   2.386   6.619   1.292  1.3215 -1.2648  1.6167
 1305TIP3    H225475   2.345   6.536   1.172 -0.1727 -1.6487  2.3783
 1306TIP3   OH225476   0.911   1.252   1.263 -0.1757  0.3104  0.1203
 1306TIP3    H125477   0.963   1.174   1.243  0.0253 -0.0646  1.9482
 1306TIP3    H225478   0.903   1.297   1.179  1.9313 -0.3168 -0.4895
 1307TIP3   OH225479   5.866   2.001   0.267  0.9446 -0.2881  0.1310
 1307TIP3    H125480   5.788   2.055   0.274  2.4503  1.8463  1.4817
 1307TIP3    H225481   5.886   1.975   0.357  2.1605 -0.2322 -0.0998
 1308TIP3   OH225482   4.832   2.950   7.171 -0.4570  0.0747  0.0825
 1308TIP3    H125483   4.900   2.960   7.238 -2.5649 -0.1526  2.4216
 1308TIP3    H225484   4.788   3.034   7.169  0.7024  0.7079 -2.4867
 1309TIP3   OH225485   5.967   5.482   1.803  0.1922 -0.4300 -0.0856
 1309TIP3    H125486   6.010   5.434   1.873 -0.7270 -2.1221 -0.6248
 1309TIP3    H225487   6.000   5.572   1.811 -0.6509 -0.2836  3.1584
 1310TIP3   OH225488   2.835   3.845   1.820 -0.2071  0.2841 -0.0608
 1310TIP3    H125489   2.877   3.904   1.882 -0.2904  0.0102  0.2566
 1310TIP3    H225490   2.806   3.902   1.748 -1.1534  0.7773  0.6944
 1311TIP3   OH225491   4.905   3.651   6.730 -0.1596 -0.1812 -0.3546
 1311TIP3    H125492   4.943   3.573   6.688  0.1390  0.9424 -2.2720
 1311TIP3    H225493   4.980   3.696   6.769  0.0319  0.3544 -1.3159
 1312TIP3   OH225494   1.211   1.541   1.987  0.6360 -0.5227 -0.7939
 1312TIP3    H125495   1.141   1.604   1.971  0.1319 -0.7898  0.2782
 1312TIP3    H225496   1.289   1.581   1.949  0.0160  0.0276 -1.5081
 1313TIP3   OH225497   0.057   2.005   8.287  0.0684  0.2753  0.2489
 1313TIP3    H125498   0.063   2.033   8.196  0.1622 -1.8121 -0.4350
 1313TIP3    H225499   0.054   1.910   8.283 -3.4251  0.1480  2.2583
 1314TIP3   OH225500   6.271   5.790   7.574 -0.2009 -0.0647  0.4187
 1314TIP3    H125501   6.214   5.866   7.565 -0.5936 -0.5563 -2.4266
 1314TIP3    H225502   6.359   5.824   7.562 -0.4226 -0.0709 -1.5573
 1315TIP3   OH225503   4.498   0.078   0.745 -0.1974 -0.0062  0.0485
 1315TIP3    H125504   4.448   0.071   0.664  2.2521  2.7525 -1.9415
 1315TIP3    H225505   4.439   0.123   0.806 -0.8381  1.5480 -1.6126
 1316TIP3   OH225506   0.512   1.050   2.231 -0.5322  0.2738  0.0879
 1316TIP3    H125507   0.587   1.080   2.282 -0.0249 -1.0326  0.1472
 1316TIP3    H225508   0.532   1.075   2.141 -0.1661  0.2164  0.1514
 1317TIP3   OH225509   5.543   0.927   8.665  0.3703  0.3166  0.4881
 1317TIP3    H125510   5.614   0.975   8.623  0.1779  0.3951  0.2536
 1317TIP3    H225511   5.516   0.983   8.738 -0.4958  1.0214 -0.3523
 1318TIP3   OH225512   0.321   1.789   8.142 -0.0233  0.2194 -0.2639
 1318TIP3    H125513   0.367   1.715   8.102 -0.7909 -0.5397  0.2136
 1318TIP3    H225514   0.293   1.843   8.067 -2.5848 -1.8512 -0.9830
 1319TIP3   OH225515   0.607   0.810   8.502 -0.4234 -0.5222  0.9423
 1319TIP3    H125516   0.531   0.803   8.559 -1.1990  2.9748  0.5966
 1319TIP3    H225517   0.575   0.854   8.424  1.6672 -0.2288  0.1790
 1320TIP3   OH225518   5.897   4.402   1.496 -0.2170  0.1232 -0.1361
 1320TIP3    H125519   5.838   4.332   1.522  0.7561 -0.6374  0.1181
 1320TIP3    H225520   5.883   4.471   1.560  0.2719 -0.6786  0.8656
 1321TIP3   OH225521   3.580   2.487   8.271  0.2234 -0.4659 -0.2470
 1321TIP3    H125522   3.541   2.536   8.344  0.1127  0.4910 -0.9281
 1321TIP3    H225523   3.524   2.409   8.262 -1.9784  1.1476 -1.5810
 1322TIP3   OH225524   1.141   1.540   8.084  0.5320  0.1956 -0.1349
 1322TIP3    H125525   1.236   1.530   8.075  0.5184 -1.2569  1.0376
 1322TIP3    H225526   1.129   1.575   8.172 -0.0038  1.0751 -0.5430
 1323TIP3   OH225527   3.942   3.495   8.381 -0.0047  0.1667  1.0387
 1323TIP3    H125528   3.863   3.475   8.433 -0.7802  2.4332  0.8592
 1323TIP3    H225529   3.940   3.590   8.372  1.6411  0.0699 -0.8001
 1324TIP3   OH225530   2.598   1.147   7.144 -0.1660 -0.1158 -0.4911
 1324TIP3    H125531   2.543   1.170   7.069  0.9391  0.3951 -1.1717
 1324TIP3    H225532   2.686   1.139   7.108  0.1903 -1.0814  0.5503
 1325TIP3   OH225533   6.260   5.115   0.834 -0.0907 -0.0040 -0.2989
 1325TIP3    H125534   6.261   5.159   0.749  0.3461  0.3919 -0.0975
 1325TIP3    H225535   6.227   5.027   0.816 -2.2972  0.8161 -0.4957
 1326TIP3   OH225536   1.432   1.605   1.820 -0.2516  0.6516 -0.1973
 1326TIP3    H125537   1.450   1.686   1.772  1.3906 -0.3726 -1.3939
 1326TIP3    H225538   1.425   1.538   1.752  1.4508 -0.7291  0.9158
 1327TIP3   OH225539   0.824   5.501   1.107 -0.1691  0.2701 -0.6216
 1327TIP3    H125540   0.801   5.436   1.173 -0.4550 -0.1380 -1.1142
 1327TIP3    H225541   0.785   5.583   1.139 -0.9890 -0.0889 -0.6668
 1328TIP3   OH225542   3.699   0.058   0.235  0.0987  0.2288  0.2120
 1328TIP3    H125543   3.641   0.134   0.226 -0.8287 -0.3372  1.2612
 1328TIP3    H225544   3.781   0.086   0.193 -1.5524  0.2518 -3.4185
 1329TIP3   OH225545   1.447   6.524   7.310  0.9003  0.4812 -0.1944
 1329TIP3    H125546   1.403   6.553   7.391  1.5420  0.5368  0.1436
 1329TIP3    H225547   1.432   6.595   7.248  2.7407  1.7591  0.7287
 1330TIP3   OH225548   4.735   0.890   0.757 -0.1327  0.0518 -0.2854
 1330TIP3    H125549   4.729   0.958   0.824 -0.6656 -0.8710  0.6164
 1330TIP3    H225550   4.753   0.939   0.676 -0.5002  1.2640  0.3374
 1331TIP3   OH225551   6.281   1.969   1.507 -0.3112  0.3593 -0.6926
 1331TIP3    H125552   6.314   1.907   1.572  0.2995 -0.1519 -1.4771
 1331TIP3    H225553   6.267   2.049   1.556 -0.6276 -0.2460  0.2380
 1332TIP3   OH225554   4.238   3.837   7.582  0.0557  0.1503 -0.3595
 1332TIP3    H125555   4.233   3.931   7.598 -1.3071  0.1493 -0.6664
 1332TIP3    H225556   4.172   3.799   7.640  0.3144 -0.5884 -0.5312
 1333TIP3   OH225557   3.361   0.755   6.973  0.3419  0.1774  0.1417
 1333TIP3    H125558   3.339   0.809   6.896  2.4521  0.4804 -0.3088
 1333TIP3    H225559   3.361   0.817   7.046  1.8849  0.6528 -0.2317
 1334TIP3   OH225560   2.649   3.998   7.919  0.9144  0.0879 -0.1280
 1334TIP3    H125561   2.720   3.943   7.886 -1.3343 -1.6823 -2.3968
 1334TIP3    H225562   2.618   4.046   7.842 -0.5214  0.6011  0.7309
 1335TIP3   OH225563   1.199   3.171   8.116 -0.1751  0.1592  0.3075
 1335TIP3    H125564   1.210   3.241   8.180  1.2253 -0.4279  0.7616
 1335TIP3    H225565   1.110   3.139   8.130 -0.4527  1.1341  0.8272
 1336TIP3   OH225566   4.480   3.856   0.547  0.1134  0.0311 -0.8347
 1336TIP3    H125567   4.559   3.895   0.509 -0.1005  0.3280 -0.9775
 1336TIP3    H225568   4.454   3.917   0.616  0.9631 -0.9030  0.3598
 1337TIP3   OH225569   2.955   3.533   1.417  0.6273 -0.4682 -0.1746
 1337TIP3    H125570   2.933   3.555   1.508 -1.0948  0.9984 -0.8908
 1337TIP3    H225571   3.047   3.556   1.409  0.3160  1.2310  0.7061
 1338TIP3   OH225572   4.807   0.261   1.455  0.5488  0.1211 -0.5623
 1338TIP3    H125573   4.831   0.190   1.396  0.3609  0.0913 -0.6021
 1338TIP3    H225574   4.790   0.335   1.398  0.7349  0.1956 -0.5213
 1339TIP3   OH225575   4.444   6.541   1.627  0.4743  1.0688  0.3813
 1339TIP3    H125576   4.508   6.507   1.564 -0.8664 -0.7970 -0.0594
 1339TIP3    H225577   4.482   6.522   1.713 -0.0766 -1.3469  0.1419
 1340TIP3   OH225578   0.867   4.758   2.400 -0.1192  0.4707 -0.1475
 1340TIP3    H125579   0.916   4.833   2.366  0.7884  1.0478  2.2346
 1340TIP3    H225580   0.923   4.683   2.381  0.0143  0.6820 -0.5948
 1341TIP3   OH225581   4.275   0.038   0.198  0.5216 -0.5709  0.4670
 1341TIP3    H125582   4.202   0.073   0.250  1.6290  0.5194  1.3633
 1341TIP3    H225583   4.248   0.051   0.108  0.4227  1.7555  0.7624
 1342TIP3   OH225584   1.131   1.833   7.525 -0.7945 -0.2129  0.1295
 1342TIP3    H125585   1.102   1.888   7.452 -0.4254 -0.9132 -0.5621
 1342TIP3    H225586   1.226   1.844   7.526 -0.8307  0.0348  0.7024
 1343TIP3   OH225587   0.804   0.667   8.835 -0.0081 -0.2595 -0.0542
 1343TIP3    H125588   0.801   0.749   8.787 -1.5719 -1.3753 -1.9660
 1343TIP3    H225589   0.715   0.655   8.868  0.4432 -0.7344  1.0397
 1344TIP3   OH225590   6.321   0.206   1.322  0.2762 -0.5912  0.1059
 1344TIP3    H125591   6.295   0.249   1.404 -1.0196  0.8976 -1.0375
 1344TIP3    H225592   6.416   0.196   1.331  0.5521  1.8517  0.7870
 1345TIP3   OH225593   4.999   6.435   7.546 -0.9041  0.0136  0.4899
 1345TIP3    H125594   5.048   6.363   7.505 -0.8855  0.2511  0.0899
 1345TIP3    H225595   4.944   6.470   7.476 -0.2723  0.9556  0.4520
 1346TIP3   OH225596   2.919   2.739   8.310 -0.4239 -0.1405 -0.0081
 1346TIP3    H125597   2.917   2.809   8.375 -1.5527  1.7621 -1.9260
 1346TIP3    H225598   2.835   2.748   8.263 -0.1855 -2.1912 -0.9505
 1347TIP3   OH225599   1.040   1.548   2.729 -0.5222  0.4158 -0.3765
 1347TIP3    H125600   1.078   1.607   2.793 -2.6420 -1.3782  2.7886
 1347TIP3    H225601   0.970   1.599   2.688 -0.0384  1.1633 -0.2894
 1348TIP3   OH225602   3.656   1.590   7.229 -0.3180 -0.3820 -0.1598
 1348TIP3    H125603   3.719   1.594   7.301  1.5419  1.3459 -1.7562
 1348TIP3    H225604   3.605   1.670   7.237  1.4699  1.0625 -1.9708
 1349TIP3   OH225605   3.539   6.411   0.201  0.0887 -0.2700 -0.0708
 1349TIP3    H125606   3.453   6.397   0.241  0.4144 -1.8917  0.1463
 1349TIP3    H225607   3.599   6.360   0.255  0.6295 -2.1317 -2.2642
 1350TIP3   OH225608   4.035   1.849   1.573  0.0937 -0.1406 -0.8405
 1350TIP3    H125609   4.065   1.758   1.577 -1.1052 -0.5268  1.1302
 1350TIP3    H225610   3.940   1.842   1.559 -0.1260  0.7531  0.0422
 1351TIP3   OH225611   2.120   2.143   2.355 -0.5179 -0.2114  0.7353
 1351TIP3    H125612   2.045   2.106   2.309 -0.3799  1.1021 -0.6478
 1351TIP3    H225613   2.088   2.225   2.392  0.3324  0.6467 -0.3579
 1352TIP3   OH225614   0.610   1.246   1.307  0.3240  0.1091  0.1130
 1352TIP3    H125615   0.678   1.204   1.254 -1.4887 -1.0078 -1.4697
 1352TIP3    H225616   0.622   1.339   1.292  1.4842 -0.0642 -0.1441
 1353TIP3   OH225617   6.231   4.852   7.796  0.1710 -0.0415  0.6695
 1353TIP3    H125618   6.177   4.868   7.873 -1.2802 -0.0779 -0.2970
 1353TIP3    H225619   6.215   4.760   7.773  0.5037 -0.0042  0.2600
 1354TIP3   OH225620   6.062   6.677   1.878 -0.3990 -0.9667 -0.0675
 1354TIP3    H125621   6.024   6.699   1.962 -2.2442  0.1213 -1.1220
 1354TIP3    H225622   5.987   6.668   1.819  0.8347  2.5146 -2.5561
 1355TIP3   OH225623   0.629   3.173   8.407 -0.7541  0.0703 -0.7500
 1355TIP3    H125624   0.550   3.227   8.408 -0.3947  0.6079 -0.6816
 1355TIP3    H225625   0.680   3.204   8.482 -0.1160  0.2878 -1.2672
 1356TIP3   OH225626   6.663   4.327   1.612  0.2547  0.5566 -0.8750
 1356TIP3    H125627   6.645   4.233   1.617 -0.6557  0.6995 -1.1904
 1356TIP3    H225628   6.581   4.367   1.641  0.2140  1.2646 -1.9559
 1357TIP3   OH225629   4.300   0.854   0.088  0.2633 -0.1007 -0.1848
 1357TIP3    H125630   4.305   0.768   0.130  0.8165  0.2280  0.4575
 1357TIP3    H225631   4.308   0.836  -0.005  0.7260 -0.7247 -0.0377
 1358TIP3   OH225632   0.686   3.773   6.501 -0.1354  0.8010  0.5593
 1358TIP3    H125633   0.671   3.854   6.549 -0.1911  0.5891  0.9004
 1358TIP3    H225634   0.613   3.768   6.439 -1.4578 -0.1595  2.1138
 1359TIP3   OH225635   6.668   4.445   8.761 -0.3471 -0.4423  0.5820
 1359TIP3    H125636   6.732   4.507   8.727 -1.8730  1.7756  1.5640
 1359TIP3    H225637   6.713   4.400   8.832  0.6879 -0.2520  0.0600
 1360TIP3   OH225638   1.311   0.696   0.413  0.0479 -0.2536  0.1416
 1360TIP3    H125639   1.270   0.614   0.387  0.7327 -0.9570  1.1748
 1360TIP3    H225640   1.386   0.669   0.466  0.6562  1.0310 -0.0317
 1361TIP3   OH225641   4.378   0.276   2.182 -0.1255 -0.3499 -0.0580
 1361TIP3    H125642   4.428   0.354   2.156 -0.9408 -0.1277 -1.0046
 1361TIP3    H225643   4.297   0.310   2.219 -0.5370 -0.7397 -0.5819
 1362TIP3   OH225644   4.294   6.641   0.774  0.0964 -0.0605 -0.2548
 1362TIP3    H125645   4.237   6.711   0.806 -0.5576 -1.4443  1.8292
 1362TIP3    H225646   4.267   6.564   0.823  0.2469 -2.0254 -3.0187
 1363TIP3   OH225647   4.135   6.580   7.835  0.0208  0.4875 -0.3040
 1363TIP3    H125648   4.043   6.597   7.854  0.0336  0.9051 -0.6082
 1363TIP3    H225649   4.170   6.542   7.915 -1.1566 -2.6144 -1.0866
 1364TIP3   OH225650   5.791   1.267   8.678  0.3591 -0.6877  0.5966
 1364TIP3    H125651   5.750   1.312   8.604 -2.0520 -1.0643  1.6058
 1364TIP3    H225652   5.885   1.273   8.661 -0.0407  1.0798 -1.3981
 1365TIP3   OH225653   2.758   6.530   8.264  0.0961  0.0146 -0.6335
 1365TIP3    H125654   2.805   6.484   8.194  0.2888 -2.3495  0.9586
 1365TIP3    H225655   2.681   6.476   8.281  0.9795 -0.5208  2.1611
 1366TIP3   OH225656   3.450   5.985   0.700 -0.1198 -0.6340 -0.1169
 1366TIP3    H125657   3.483   6.045   0.766 -1.1615 -1.5056  1.2567
 1366TIP3    H225658   3.522   5.924   0.684  0.2306 -0.2525  0.0041
 1367TIP3   OH225659   5.307   1.537   0.986  1.1202 -0.1481 -0.7343
 1367TIP3    H125660   5.327   1.449   1.017 -0.8125 -0.7456 -1.0964
 1367TIP3    H225661   5.251   1.575   1.053  0.2901  0.0616 -1.5328
 1368TIP3   OH225662   0.871   2.520   6.685 -0.1216 -0.2459 -0.4414
 1368TIP3    H125663   0.866   2.430   6.652  0.5983 -0.4507 -0.0286
 1368TIP3    H225664   0.781   2.543   6.706 -0.1108 -1.6076  1.3557
 1369TIP3   OH225665   0.465   0.441   8.647  0.3154  0.4466  0.2919
 1369TIP3    H125666   0.428   0.374   8.589  0.2638 -1.1230  2.0557
 1369TIP3    H225667   0.560   0.434   8.635  0.2980  0.3279  0.2253
 1370TIP3   OH225668   4.558   5.577   8.232  0.3314  0.0600 -0.1379
 1370TIP3    H125669   4.631   5.546   8.178 -1.5902 -1.5193 -1.9942
 1370TIP3    H225670   4.592   5.656   8.275  3.3964 -1.0715 -0.1959
 1371TIP3   OH225671   3.242   1.472   7.186  0.0627  0.0148 -0.1356
 1371TIP3    H125672   3.209   1.551   7.143  2.0048  0.8113 -0.2963
 1371TIP3    H225673   3.165   1.418   7.200 -0.9456  0.6638 -2.6491
 1372TIP3   OH225674   3.033   6.631   1.432  0.5740 -0.0067  0.1777
 1372TIP3    H125675   2.995   6.597   1.513 -0.4355 -0.8223 -0.6012
 1372TIP3    H225676   3.024   6.726   1.439 -1.6664 -0.1610  0.0342
 1373TIP3   OH225677   3.536   0.844   7.324 -0.0147  0.2660  0.1103
 1373TIP3    H125678   3.467   0.893   7.280 -1.1945 -1.0257  0.4549
 1373TIP3    H225679   3.495   0.761   7.349  1.4931 -0.2959  0.8708
 1374TIP3   OH225680   5.846   5.240   0.809  0.0367  0.0805  0.4423
 1374TIP3    H125681   5.907   5.278   0.872  0.2740 -0.0707  0.3035
 1374TIP3    H225682   5.889   5.160   0.778  0.2734  0.5428 -0.4765
 1375TIP3   OH225683   6.134   0.646   2.066  0.0838 -0.4148  0.9256
 1375TIP3    H125684   6.086   0.717   2.110  0.1991  0.5164 -0.3903
 1375TIP3    H225685   6.138   0.673   1.974 -0.9637 -2.7235  0.1101
 1376TIP3   OH225686   3.320   3.536   1.971  0.1697  0.3665 -0.2196
 1376TIP3    H125687   3.382   3.488   2.026  0.3275 -0.9415 -1.4980
 1376TIP3    H225688   3.235   3.497   1.992 -0.0670  1.2507  0.5473
 1377TIP3   OH225689   1.222   0.841   6.941 -0.3252  0.3477  0.6991
 1377TIP3    H125690   1.147   0.875   6.989 -0.5848  1.2113 -0.2886
 1377TIP3    H225691   1.273   0.919   6.919  1.5308 -0.3062  2.3990
 1378TIP3   OH225692   4.167   2.100   7.254 -0.1616  0.2639 -0.7969
 1378TIP3    H125693   4.250   2.093   7.302 -1.2350 -2.6838  0.8829
 1378TIP3    H225694   4.122   2.173   7.296  0.8593  0.7892 -0.5681
 1379TIP3   OH225695   3.574   0.165   8.637  0.1429  0.5069 -0.9641
 1379TIP3    H125696   3.552   0.075   8.613  0.3063 -0.8831  3.3324
 1379TIP3    H225697   3.666   0.162   8.663 -0.2612  1.4748  0.7567
 1380TIP3   OH225698   4.742   1.024   7.103  0.3976  0.6202 -0.1370
 1380TIP3    H125699   4.663   0.972   7.117  0.0423  1.5311  1.3623
 1380TIP3    H225700   4.814   0.962   7.119 -0.0217  0.5462  1.6591
 1381TIP3   OH225701   1.733   6.142   8.672 -0.1637 -0.0526  0.0722
 1381TIP3    H125702   1.650   6.183   8.648  0.0206 -0.0880 -0.6416
 1381TIP3    H225703   1.751   6.175   8.760  0.0248  1.4936 -0.5195
 1382TIP3   OH225704   0.638   4.795   0.140 -0.1519 -0.0276 -0.3002
 1382TIP3    H125705   0.677   4.880   0.159 -1.6744  0.9464 -1.2518
 1382TIP3    H225706   0.623   4.755   0.225 -3.4519  2.6017  0.5475
 1383TIP3   OH225707   6.341   1.776   0.543 -1.1097 -0.1695  0.2649
 1383TIP3    H125708   6.402   1.849   0.533  0.8889 -1.8835 -1.1873
 1383TIP3    H225709   6.273   1.792   0.477 -0.3856  0.1350 -0.4282
 1384TIP3   OH225710   4.146   0.287   8.474  0.4343 -0.3274 -0.7090
 1384TIP3    H125711   4.081   0.219   8.456  0.2121 -0.5466  0.7389
 1384TIP3    H225712   4.095   0.357   8.515  0.9309 -0.0159 -0.6193
 1385TIP3   OH225713   0.581   4.678   6.743  0.0103 -0.6436  0.3021
 1385TIP3    H125714   0.665   4.651   6.779 -0.8907 -0.4480  2.7412
 1385TIP3    H225715   0.599   4.763   6.703  1.5462 -1.9160 -1.9085
 1386TIP3   OH225716   6.416   2.478   7.686 -0.3271  0.0505  0.0986
 1386TIP3    H125717   6.405   2.516   7.773  0.6496 -1.9771  1.1968
 1386TIP3    H225718   6.494   2.423   7.695 -1.7806 -2.3794 -1.2507
 1387TIP3   OH225719   3.394   4.918   7.193 -0.1509  0.0629 -0.6905
 1387TIP3    H125720   3.315   4.972   7.191  0.7276  1.3718 -1.4937
 1387TIP3    H225721   3.405   4.896   7.285 -0.8578  0.7707 -0.4192
 1388TIP3   OH225722   5.409   3.247   0.325  0.0117  0.0028  0.1123
 1388TIP3    H125723   5.332   3.210   0.368  0.6587 -1.8740 -0.2749
 1388TIP3    H225724   5.469   3.174   0.315  0.5432  0.7038 -2.5243
 1389TIP3   OH225725   1.762   6.738   2.648 -0.5665 -0.4390 -0.4806
 1389TIP3    H125726   1.705   6.745   2.571  0.3928 -0.4368 -1.2177
 1389TIP3    H225727   1.799   6.826   2.658 -0.0397 -0.6488 -0.5487
 1390TIP3   OH225728   6.168   5.862   0.679 -0.1940 -0.6492  0.0389
 1390TIP3    H125729   6.200   5.952   0.691  0.8933 -0.5583 -2.6701
 1390TIP3    H225730   6.226   5.808   0.733 -0.2237  0.1968  0.9331
 1391TIP3   OH225731   0.924   3.029   0.997  0.6042 -0.4569  0.7011
 1391TIP3    H125732   0.838   3.034   1.039  0.4807  1.9383  0.2902
 1391TIP3    H225733   0.985   3.011   1.070 -0.1155 -1.3285  1.1125
 1392TIP3   OH225734   2.057   4.208   7.464  0.6115 -0.1934 -0.4620
 1392TIP3    H125735   2.074   4.179   7.553 -0.0716  0.1036 -0.2263
 1392TIP3    H225736   2.024   4.130   7.419 -0.3165 -0.0398 -0.0847
 1393TIP3   OH225737   2.322   3.724   7.493 -0.0331  0.1049 -0.2915
 1393TIP3    H125738   2.269   3.750   7.569  0.3717 -0.3319  0.1575
 1393TIP3    H225739   2.302   3.788   7.426 -0.5116  0.4201  0.1425
 1394TIP3   OH225740   0.056   0.952   0.414  0.0614  0.1943 -0.8679
 1394TIP3    H125741   0.002   1.029   0.395  1.6952  1.1264 -2.0381
 1394TIP3    H225742   0.029   0.887   0.349  0.3283  0.6407 -1.4286
 1395TIP3   OH225743   2.519   2.358   7.215 -0.1524 -0.0914 -0.2321
 1395TIP3    H125744   2.563   2.325   7.137  0.3407  1.4665 -0.6534
 1395TIP3    H225745   2.426   2.342   7.199  0.1092 -1.9894 -0.0253
 1396TIP3   OH225746   3.316   2.468   8.159 -0.0410 -0.0886  0.1007
 1396TIP3    H125747   3.339   2.507   8.243 -0.6634 -2.1280  1.2988
 1396TIP3    H225748   3.223   2.490   8.146 -0.0653 -0.1498  0.1724
 1397TIP3   OH225749   5.683   3.058   8.399  0.1434 -0.3876  0.0230
 1397TIP3    H125750   5.678   3.121   8.328  0.8850  0.4960  0.7397
 1397TIP3    H225751   5.680   3.111   8.479  0.7560 -1.2532  0.6416
 1398TIP3   OH225752   6.749   5.305   1.845 -0.1053  0.0124 -0.2727
 1398TIP3    H125753   6.786   5.394   1.845 -0.6400  0.2570 -1.9130
 1398TIP3    H225754   6.814   5.253   1.892 -0.3376  1.4606  1.7927
 1399TIP3   OH225755   5.202   5.484   0.665  0.0442 -0.4302  0.5831
 1399TIP3    H125756   5.184   5.505   0.573  2.5497  1.3481  0.4155
 1399TIP3    H225757   5.287   5.522   0.682  0.7987 -2.8919  2.9963
 1400TIP3   OH225758   1.491   2.015   8.364  0.6781  0.3542 -0.3988
 1400TIP3    H125759   1.454   2.080   8.304  0.2157 -1.9102 -2.7343
 1400TIP3    H225760   1.571   1.985   8.321  0.4921 -1.1282  0.2375
 1401TIP3   OH225761   4.087   1.548   7.908 -0.0706  0.4244  0.2283
 1401TIP3    H125762   4.127   1.461   7.915 -0.9175 -0.1267 -1.2323
 1401TIP3    H225763   3.997   1.531   7.882 -0.0742  1.7356 -0.7435
 1402TIP3   OH225764   3.757   3.797   1.155 -0.0540 -0.0940  0.1612
 1402TIP3    H125765   3.693   3.830   1.217  0.3340 -0.3301  0.6937
 1402TIP3    H225766   3.803   3.875   1.124 -1.5939  0.2629 -1.3907
 1403TIP3   OH225767   1.518   0.348   0.832  0.4132 -0.1156  0.2670
 1403TIP3    H125768   1.553   0.409   0.896 -1.0518  0.7328  0.2991
 1403TIP3    H225769   1.462   0.289   0.883 -2.9345  2.1941 -0.4419
 1404TIP3   OH225770   5.985   6.155   8.121 -0.3291  0.3358 -0.1639
 1404TIP3    H125771   5.960   6.151   8.214  2.4438 -0.1713  0.6693
 1404TIP3    H225772   5.938   6.082   8.081  1.1250 -1.7569  1.6765
 1405TIP3   OH225773   6.423   1.970   1.780  0.0745  0.2380  0.5631
 1405TIP3    H125774   6.508   2.008   1.757  0.5710 -1.1657 -0.0616
 1405TIP3    H225775   6.389   2.027   1.849  1.6123  0.7243  0.9660
 1406TIP3   OH225776   0.042   4.656   1.053 -0.2638  0.3204  0.0251
 1406TIP3    H125777  -0.015   4.728   1.081 -0.8030 -0.1157  0.0809
 1406TIP3    H225778  -0.004   4.577   1.082  0.5408 -0.0344  0.3714
 1407TIP3   OH225779   1.740   3.904   6.830  0.4573 -0.2590  0.0245
 1407TIP3    H125780   1.826   3.905   6.789  0.2604  1.1800 -0.4135
 1407TIP3    H225781   1.688   3.844   6.776  0.3332  1.2560 -1.6150
 1408TIP3   OH225782   0.961   3.741   0.196 -0.3916  0.3128 -0.0513
 1408TIP3    H125783   0.903   3.804   0.155 -0.4143 -1.0277 -2.2686
 1408TIP3    H225784   1.038   3.792   0.222 -0.7889  1.4056 -0.9615
 1409TIP3   OH225785   1.964   0.968   0.141  0.2256  0.2238 -0.1348
 1409TIP3    H125786   1.910   1.028   0.090 -0.1416 -1.6916 -2.1844
 1409TIP3    H225787   1.984   0.896   0.081  4.5631  0.4477  0.6851
 1410TIP3   OH225788   6.620   2.800   2.665  0.2287 -0.3992 -0.3890
 1410TIP3    H125789   6.658   2.827   2.749  0.1635  0.7000 -0.6942
 1410TIP3    H225790   6.549   2.863   2.650  0.3765 -0.4531 -1.3715
 1411TIP3   OH225791   0.283   1.064   3.002  0.2808  0.1070  0.0490
 1411TIP3    H125792   0.196   1.101   2.986  0.9581  1.0457 -1.8034
 1411TIP3    H225793   0.324   1.060   2.915  2.0092 -0.5100  0.8395
 1412TIP3   OH225794   0.453   0.554   6.585 -0.2182  0.5291  0.9029
 1412TIP3    H125795   0.546   0.555   6.603  0.4266  0.5947 -1.9171
 1412TIP3    H225796   0.428   0.462   6.589  0.1323  0.4387  1.0042
 1413TIP3   OH225797   2.507   4.739   7.997  0.1453 -0.1896  0.1605
 1413TIP3    H125798   2.564   4.663   7.988  0.1737 -0.0077 -1.3583
 1413TIP3    H225799   2.420   4.702   8.015  0.3913 -0.5196  0.6934
 1414TIP3   OH225800   6.404   3.482   1.240  0.0327  0.1446  0.1930
 1414TIP3    H125801   6.488   3.457   1.202 -0.0359 -0.9147  0.7124
 1414TIP3    H225802   6.339   3.448   1.178 -0.0317  0.6371 -0.0179
 1415TIP3   OH225803   4.866   1.313   7.145 -0.0691  0.0586  0.3650
 1415TIP3    H125804   4.929   1.371   7.188  0.0045  0.8865 -0.8329
 1415TIP3    H225805   4.914   1.232   7.130  0.9864  0.9306 -1.2072
 1416TIP3   OH225806   0.099   1.583   1.049 -0.7352  0.0509 -0.0616
 1416TIP3    H125807   0.123   1.663   1.097 -0.6304 -0.5516  0.9315
 1416TIP3    H225808   0.006   1.592   1.032 -0.5683  0.7308 -0.6368
 1417TIP3   OH225809   3.805   0.355   8.055  0.3627  0.3325 -0.2232
 1417TIP3    H125810   3.878   0.292   8.053  1.5552  1.6582 -0.9533
 1417TIP3    H225811   3.727   0.301   8.058  1.3706 -1.1645  0.3293
 1418TIP3   OH225812   2.401   0.394   7.985  0.0489  0.0983 -0.1119
 1418TIP3    H125813   2.313   0.361   8.001  0.4007 -0.7030  0.2362
 1418TIP3    H225814   2.433   0.343   7.911  0.7812 -0.7178  0.7498
 1419TIP3   OH225815   3.302   0.028   1.164  0.1180 -0.0332  0.2526
 1419TIP3    H125816   3.244   0.090   1.208 -0.4412  1.3447 -2.2331
 1419TIP3    H225817   3.245  -0.017   1.101  0.8086 -2.1324  1.0605
 1420TIP3   OH225818   6.256   1.893   1.234  0.1647 -0.1301  0.1901
 1420TIP3    H125819   6.237   1.966   1.292  0.4581 -0.2377  0.4282
 1420TIP3    H225820   6.171   1.867   1.198  0.2649  1.5117 -1.3428
 1421TIP3   OH225821   4.938   1.350   6.795  0.0601  0.0464  0.2909
 1421TIP3    H125822   4.925   1.256   6.779 -0.6314 -0.4577  3.2191
 1421TIP3    H225823   4.880   1.393   6.733 -0.3854 -1.5121 -0.4258
 1422TIP3   OH225824   1.557   2.805   7.173  0.0679  0.7569 -0.0894
 1422TIP3    H125825   1.564   2.799   7.078  1.0406  0.2525  0.0003
 1422TIP3    H225826   1.470   2.770   7.194  0.2101  0.0075 -0.7175
 1423TIP3   OH225827   3.455   6.305   2.136 -0.0538 -0.4876  0.5275
 1423TIP3    H125828   3.447   6.230   2.195 -0.0950 -0.7547  0.1839
 1423TIP3    H225829   3.387   6.291   2.070  0.1129 -0.2886  0.3105
 1424TIP3   OH225830   0.726   4.514   2.227 -0.0880  0.2268  0.2035
 1424TIP3    H125831   0.744   4.501   2.320  2.3677  0.5450 -0.1615
 1424TIP3    H225832   0.810   4.541   2.190 -1.1429  0.6910 -2.0141
 1425TIP3   OH225833   4.620   0.633   0.338  0.3076  0.1130  0.1509
 1425TIP3    H125834   4.574   0.717   0.337 -1.6840 -0.9078  0.8709
 1425TIP3    H225835   4.645   0.618   0.246  1.0688  1.6517  0.0789
 1426TIP3   OH225836   5.659   4.190   1.651  0.2305 -0.1301 -0.3735
 1426TIP3    H125837   5.566   4.207   1.667  0.2293  0.0998 -0.6179
 1426TIP3    H225838   5.661   4.140   1.570  0.2270 -1.4430  0.3929
 1427TIP3   OH225839   0.927   1.133   2.134 -0.1416 -0.1117 -0.2459
 1427TIP3    H125840   1.012   1.102   2.163 -0.2398 -0.1074  0.0441
 1427TIP3    H225841   0.868   1.117   2.208 -0.2202  0.6543 -0.1329
 1428TIP3   OH225842   0.789   2.865   1.613 -0.3550  0.6828 -0.4142
 1428TIP3    H125843   0.728   2.887   1.683  0.1062 -0.2130  0.2909
 1428TIP3    H225844   0.860   2.818   1.657 -0.0375  0.1333 -1.4830
 1429TIP3   OH225845   2.966   2.194   6.745  0.5200 -0.1046 -0.2044
 1429TIP3    H125846   2.902   2.260   6.715  1.6554  0.3782 -1.7154
 1429TIP3    H225847   2.915   2.135   6.801 -1.2159  0.3464 -1.2182
 1430TIP3   OH225848   3.175   0.570   6.770  0.3342  0.4569 -0.0866
 1430TIP3    H125849   3.124   0.490   6.757  1.2954 -0.1420 -0.2540
 1430TIP3    H225850   3.115   0.641   6.749 -0.5530 -0.2190  0.1236
 1431TIP3   OH225851   0.883   2.609   8.735 -0.3676  0.4879 -0.5256
 1431TIP3    H125852   0.854   2.665   8.807  0.7262  0.2641  0.1067
 1431TIP3    H225853   0.802   2.570   8.701 -1.1960  2.6591 -1.1926
 1432TIP3   OH225854   5.434   1.776   1.877  0.4377  0.1424  0.3211
 1432TIP3    H125855   5.491   1.799   1.950  0.4782 -0.1604  0.3864
 1432TIP3    H225856   5.493   1.766   1.803  0.4672 -0.1428  0.3824
 1433TIP3   OH225857   2.698   4.326   1.440 -0.3525  0.0446  0.1912
 1433TIP3    H125858   2.752   4.398   1.407  0.9214 -0.2921  1.4173
 1433TIP3    H225859   2.662   4.360   1.522  3.4685 -1.8907  2.9583
 1434TIP3   OH225860   5.630   3.611   7.848  0.7972 -0.5059  0.6621
 1434TIP3    H125861   5.604   3.696   7.884 -0.5563  0.4103 -2.2059
 1434TIP3    H225862   5.723   3.621   7.826  1.2367 -0.5793  2.3347
 1435TIP3   OH225863   0.544   5.123   0.801  0.4132  0.1170 -0.2519
 1435TIP3    H125864   0.541   5.210   0.762  1.8405  0.9787  1.4298
 1435TIP3    H225865   0.452   5.101   0.817 -0.3286 -0.5062 -4.3044
 1436TIP3   OH225866   4.272   6.158   0.457 -0.6008 -0.1788  0.6078
 1436TIP3    H125867   4.202   6.134   0.396  1.3267 -0.3917 -1.6719
 1436TIP3    H225868   4.308   6.240   0.421  1.1137 -0.7474  0.9334
 1437TIP3   OH225869   2.648   1.965   1.760  0.1158  0.1644  0.2164
 1437TIP3    H125870   2.651   2.043   1.705 -0.0303  1.9825  2.6300
 1437TIP3    H225871   2.555   1.946   1.771  0.1372  0.0209  0.1632
 1438TIP3   OH225872   1.086   1.072   7.773  0.9384  0.7030 -0.0207
 1438TIP3    H125873   1.144   1.060   7.849  1.3521 -0.9476 -0.5505
 1438TIP3    H225874   1.022   1.001   7.781  1.3069  0.1798 -1.4677
 1439TIP3   OH225875   0.613   1.213   0.040 -0.2869 -0.6199  0.2302
 1439TIP3    H125876   0.694   1.259   0.018  0.1751 -1.8955 -0.9315
 1439TIP3    H225877   0.554   1.281   0.070  1.2914  0.3074  1.3771
 1440TIP3   OH225878   1.524   0.394   8.331 -0.1567  0.0544 -0.1722
 1440TIP3    H125879   1.446   0.358   8.289  0.0788 -1.7432  0.8062
 1440TIP3    H225880   1.590   0.325   8.323  0.7468  0.7833  0.6710
 1441TIP3   OH225881   4.905   6.509   8.313 -0.6433 -0.2839 -0.5855
 1441TIP3    H125882   4.911   6.437   8.250 -1.5308  1.7008 -3.1309
 1441TIP3    H225883   4.995   6.524   8.341 -0.4314 -2.2466 -0.0806
 1442TIP3   OH225884   4.968   3.585   1.427  0.7388  0.1344 -0.4789
 1442TIP3    H125885   5.037   3.626   1.375  0.3825  2.0826  0.5145
 1442TIP3    H225886   4.890   3.638   1.410 -0.2988 -1.4184 -0.7753
 1443TIP3   OH225887   3.231   5.815   8.229 -0.4148 -0.0329  0.1540
 1443TIP3    H125888   3.294   5.790   8.162 -0.6947 -0.3130 -0.0116
 1443TIP3    H225889   3.152   5.838   8.179 -0.4363  0.3363  0.3555
 1444TIP3   OH225890   5.362   5.555   1.878  0.4799  0.1856  0.4481
 1444TIP3    H125891   5.293   5.581   1.817  0.5952  1.2407  0.7373
 1444TIP3    H225892   5.352   5.615   1.952  0.8272 -0.5705  1.1219
 1445TIP3   OH225893   2.637   4.004   8.222  0.4772 -0.0606  0.1181
 1445TIP3    H125894   2.647   4.001   8.126 -0.4285  1.4701 -0.0528
 1445TIP3    H225895   2.604   3.917   8.244 -4.3686  0.9465 -1.7037
 1446TIP3   OH225896   4.249   2.703   8.452 -0.9273  0.3008 -0.4707
 1446TIP3    H125897   4.208   2.707   8.366  0.5407 -0.8998 -1.2711
 1446TIP3    H225898   4.253   2.609   8.472 -0.4003  0.5108  0.4736
 1447TIP3   OH225899   3.181   5.949   8.680 -0.2275  0.2425  0.0487
 1447TIP3    H125900   3.259   5.948   8.734 -0.9486  0.3364  1.1154
 1447TIP3    H225901   3.125   5.881   8.716  0.6626 -2.2127 -2.7761
 1448TIP3   OH225902   6.060   0.806   7.456 -0.3677  0.2785  0.0975
 1448TIP3    H125903   5.997   0.769   7.519  0.7737 -3.1072 -0.5195
 1448TIP3    H225904   6.146   0.788   7.495  0.3222 -0.4381 -1.6409
 1449TIP3   OH225905   3.192   1.025   0.026 -0.2246  0.4578  0.2583
 1449TIP3    H125906   3.229   1.088  -0.036  3.8103 -2.4767 -0.7186
 1449TIP3    H225907   3.129   0.975  -0.025  1.5155 -0.5487 -0.9936
 1450TIP3   OH225908   4.222   4.024   1.362 -0.4322  0.7916  0.0675
 1450TIP3    H125909   4.310   3.990   1.374 -0.5860 -0.0387 -0.9942
 1450TIP3    H225910   4.198   4.059   1.448  0.0274 -1.1191  1.0343
 1451TIP3   OH225911   4.474   0.076   8.681  0.1649 -0.3158 -0.2584
 1451TIP3    H125912   4.567   0.055   8.665 -0.0040 -1.1927 -0.1408
 1451TIP3    H225913   4.442   0.108   8.597  1.0066  1.7444  0.1346
 1452TIP3   OH225914   5.998   2.203   2.961 -0.0545  0.2346 -0.1772
 1452TIP3    H125915   5.943   2.131   2.931  0.4950  0.3773 -1.5980
 1452TIP3    H225916   5.969   2.279   2.910  0.9918  0.4573 -0.4811
 1453TIP3   OH225917   3.051   1.199   7.225  0.7828 -0.1572 -0.0418
 1453TIP3    H125918   3.109   1.172   7.297  1.1025 -0.8428 -0.5379
 1453TIP3    H225919   2.989   1.127   7.217  1.5163 -0.6845 -1.2558
 1454TIP3   OH225920   2.602   1.565   7.209  0.0142  0.4223  0.3142
 1454TIP3    H125921   2.512   1.533   7.197 -0.2095  1.8190 -2.6967
 1454TIP3    H225922   2.657   1.493   7.177  0.0807 -0.7034  2.7883
 1455TIP3   OH225923   5.928   5.410   7.720 -0.5837  0.3380 -0.1313
 1455TIP3    H125924   5.994   5.443   7.659 -0.3253 -0.2302 -0.1597
 1455TIP3    H225925   5.868   5.359   7.665 -0.8265  0.5268 -0.0428
 1456TIP3   OH225926   0.454   2.279   0.558 -0.0374  0.5222  0.2954
 1456TIP3    H125927   0.545   2.285   0.529 -0.7149  0.7269 -2.0673
 1456TIP3    H225928   0.435   2.364   0.597  0.8671  0.3458  1.1477
 1457TIP3   OH225929   1.760   4.374   7.258 -0.1187 -0.1966 -0.4111
 1457TIP3    H125930   1.734   4.462   7.284 -0.0944 -0.0456 -0.8951
 1457TIP3    H225931   1.823   4.347   7.325  0.3428  0.3906 -0.6118
 1458TIP3   OH225932   2.488   1.910   2.344 -0.3488 -0.3243 -0.0002
 1458TIP3    H125933   2.495   1.904   2.249 -1.3842  1.3242 -0.2348
 1458TIP3    H225934   2.436   1.834   2.370  1.4811 -1.8123 -0.4892
 1459TIP3   OH225935   3.167   3.849   6.535 -0.4174  0.3505  0.0470
 1459TIP3    H125936   3.257   3.830   6.560 -0.6949 -0.9058  0.2055
 1459TIP3    H225937   3.149   3.935   6.572 -0.0252 -0.4043  2.1524
 1460TIP3   OH225938   0.152   3.735   0.586 -0.4192 -0.4043  0.8401
 1460TIP3    H125939   0.069   3.779   0.568  0.1011  0.6829  0.9887
 1460TIP3    H225940   0.154   3.662   0.525 -1.0450  0.1320  0.1523
 1461TIP3   OH225941   1.568   0.177   1.247  0.1791  0.3857  0.1579
 1461TIP3    H125942   1.505   0.186   1.319 -0.6200  0.6005 -0.5545
 1461TIP3    H225943   1.611   0.263   1.243 -0.1760  0.5559  0.0065
 1462TIP3   OH225944   6.653   1.162   1.600  0.0300 -0.0857 -0.4925
 1462TIP3    H125945   6.659   1.086   1.657  0.2145  0.1610 -0.1780
 1462TIP3    H225946   6.683   1.131   1.515  2.0056  0.1163  0.0880
 1463TIP3   OH225947   3.453   3.598   0.321 -0.1659  0.1523  0.4330
 1463TIP3    H125948   3.366   3.587   0.359 -0.3900 -3.8344 -0.7814
 1463TIP3    H225949   3.437   3.610   0.228  0.5207 -1.3954  0.0816
 1464TIP3   OH225950   1.165   3.453   8.535 -0.5361  0.6116 -0.1093
 1464TIP3    H125951   1.254   3.447   8.569 -1.1579  1.4029  1.7937
 1464TIP3    H225952   1.156   3.378   8.476  1.5972  0.9430 -0.9253
 1465TIP3   OH225953   0.485   4.741   2.533 -0.1548  0.0601  0.4520
 1465TIP3    H125954   0.418   4.731   2.601 -1.4976  1.1363 -0.6574
 1465TIP3    H225955   0.567   4.749   2.582 -1.1243  1.2555  1.9875
 1466TIP3   OH225956   2.032   2.354   7.333  0.0862 -0.2477 -0.4971
 1466TIP3    H125957   1.978   2.364   7.411  1.5900  2.0584  0.3691
 1466TIP3    H225958   1.996   2.418   7.271  1.7845  1.4632  0.1622
 1467TIP3   OH225959   1.053   4.614   2.255  0.1936  0.4429 -0.3339
 1467TIP3    H125960   1.095   4.697   2.277 -0.5870  1.2304 -1.6465
 1467TIP3    H225961   1.125   4.551   2.252  1.0416  1.3983 -0.8592
 1468TIP3   OH225962   1.756   2.087   0.462  0.0211  0.1973 -0.3387
 1468TIP3    H125963   1.786   2.034   0.536 -0.0212 -0.5387 -0.8409
 1468TIP3    H225964   1.692   2.147   0.499 -0.9150 -0.9857  0.0132
 1469TIP3   OH225965   3.110   6.092   2.187  0.5260 -0.1407 -0.2768
 1469TIP3    H125966   3.189   6.049   2.220 -1.0188 -1.2438  2.3088
 1469TIP3    H225967   3.118   6.183   2.218  0.3278 -0.5129  0.9296
 1470TIP3   OH225968   3.985   0.003   0.668 -0.0408  0.1725 -0.3856
 1470TIP3    H125969   3.952   0.087   0.700  0.8070  0.5130 -0.3763
 1470TIP3    H225970   3.930  -0.017   0.592 -0.5219  0.5234 -0.1390
 1471TIP3   OH225971   3.928   0.016   7.600 -0.1364 -0.4304 -0.8831
 1471TIP3    H125972   3.928  -0.078   7.585  2.4399 -0.4006 -1.5098
 1471TIP3    H225973   3.982   0.052   7.530  1.2939  1.1782  0.9490
 1472TIP3   OH225974   0.019   2.971   0.805 -0.6383 -0.5942 -0.3318
 1472TIP3    H125975  -0.017   3.052   0.841  1.3334  0.5815 -0.8545
 1472TIP3    H225976   0.004   2.979   0.710  2.3887  0.7753 -0.7989
 1473TIP3   OH225977   2.652   0.115   2.147  0.8489  0.0185 -0.6450
 1473TIP3    H125978   2.662   0.208   2.129 -0.0350  0.0330 -1.0997
 1473TIP3    H225979   2.569   0.108   2.195  0.7455 -0.5623 -0.8967
 1474TIP3   OH225980   1.003   6.619   7.700 -0.0497 -0.0711 -0.2125
 1474TIP3    H125981   0.951   6.563   7.757 -0.1716  1.2130  0.9945
 1474TIP3    H225982   1.075   6.563   7.670 -0.5361 -1.0474  0.4194
 1475TIP3   OH225983   2.998   2.704   1.678  0.1203  0.2238 -0.0030
 1475TIP3    H125984   3.078   2.715   1.626  0.1249  1.5824  0.2620
 1475TIP3    H225985   2.942   2.649   1.623  0.7939  0.1886 -0.6787
 1476TIP3   OH225986   3.958   3.967   7.924 -0.0856 -0.0351 -0.1482
 1476TIP3    H125987   3.980   3.895   7.865  1.2778  0.6563 -0.5306
 1476TIP3    H225988   3.971   4.046   7.872 -2.7951  0.5249 -0.1388
 1477TIP3   OH225989   1.690   1.245   1.929 -0.2886 -0.2474 -0.4840
 1477TIP3    H125990   1.604   1.238   1.969 -0.2227  0.7991 -0.1425
 1477TIP3    H225991   1.677   1.221   1.837 -1.2202  1.2530 -0.7705
 1478TIP3   OH225992   3.513   2.981   7.333 -0.5564 -0.2406  0.2673
 1478TIP3    H125993   3.491   3.075   7.333 -1.5544 -0.4262 -1.7879
 1478TIP3    H225994   3.461   2.945   7.405 -3.7297  0.1294 -1.6018
 1479TIP3   OH225995   4.395   0.435   1.900  0.2770 -0.0092  0.0513
 1479TIP3    H125996   4.442   0.434   1.984  1.7332 -1.1678 -0.7242
 1479TIP3    H225997   4.304   0.418   1.924  0.5343  0.4243  1.4643
 1480TIP3   OH225998   0.698   1.166   6.993 -0.0552  0.9071 -0.1896
 1480TIP3    H125999   0.650   1.090   6.959 -0.1536  0.9015 -0.0376
 1480TIP3    H226000   0.791   1.142   6.983 -0.0525  1.3648 -1.5044
 1481TIP3   OH226001   6.093   1.662   7.892 -0.2313  0.0192  0.0601
 1481TIP3    H126002   6.077   1.756   7.903  0.0753  0.2687 -1.3421
 1481TIP3    H226003   6.025   1.620   7.944 -0.3583  1.0197  0.7399
 1482TIP3   OH226004   0.275   0.942   1.929  0.4560 -0.0306  0.2583
 1482TIP3    H126005   0.189   0.929   1.889 -0.1209 -1.3250  1.7741
 1482TIP3    H226006   0.255   0.967   2.020  1.6889  1.1449  0.2348
 1483TIP3   OH226007   3.246   1.127   8.351  0.3070 -0.5446 -0.5333
 1483TIP3    H126008   3.209   1.073   8.282 -1.7557  1.0922 -0.8205
 1483TIP3    H226009   3.173   1.182   8.380  1.7662  0.6219  1.1605
 1484TIP3   OH226010   5.080   0.300   7.257 -0.1388 -0.2536 -0.5352
 1484TIP3    H126011   5.146   0.355   7.214  0.4384  0.3425  1.0400
 1484TIP3    H226012   5.008   0.295   7.194  0.8127  0.2803 -1.7050
 1485TIP3   OH226013   0.096   5.810   0.440 -0.1632  0.1509 -0.1370
 1485TIP3    H126014   0.004   5.818   0.419  0.2947  0.0807 -2.4267
 1485TIP3    H226015   0.138   5.885   0.398  1.2372 -1.7632 -2.4597
 1486TIP3   OH226016   5.752   5.159   1.533  0.4528 -0.0128 -0.1952
 1486TIP3    H126017   5.840   5.197   1.535  1.4140 -1.9827 -1.7189
 1486TIP3    H226018   5.739   5.125   1.622  1.3121  0.1741  0.0161
 1487TIP3   OH226019   5.614   2.866   7.448 -0.0127 -0.0171  0.1612
 1487TIP3    H126020   5.671   2.857   7.524 -0.4553  0.6046  0.5819
 1487TIP3    H226021   5.528   2.887   7.484 -0.7912 -2.0258 -0.4051
 1488TIP3   OH226022   3.674   3.632   8.156 -0.5130 -0.3432  0.5511
 1488TIP3    H126023   3.649   3.563   8.217 -0.2133 -0.8262  0.1355
 1488TIP3    H226024   3.770   3.628   8.154 -0.5654 -1.4163 -1.1760
 1489TIP3   OH226025   5.552   1.627   1.092  0.2760  0.4461 -0.2199
 1489TIP3    H126026   5.472   1.593   1.053  1.2499  0.5090 -2.4110
 1489TIP3    H226027   5.619   1.561   1.071  1.0563  0.9939  0.4803
 1490TIP3   OH226028   3.492   1.414   7.115  0.1072  0.6791  0.3879
 1490TIP3    H126029   3.544   1.483   7.156 -0.9051  0.8631  1.4172
 1490TIP3    H226030   3.401   1.438   7.134 -0.2823 -0.6754  0.3582
 1491TIP3   OH226031   5.895   1.654   8.602  0.0407  0.3357  0.6938
 1491TIP3    H126032   5.990   1.649   8.613 -0.0218 -1.8196  0.6860
 1491TIP3    H226033   5.883   1.689   8.513  0.8205  0.7036  0.7245
 1492TIP3   OH226034   5.550   4.132   0.362 -0.0389  0.5227 -0.0315
 1492TIP3    H126035   5.505   4.194   0.305  0.4679 -0.9999 -2.2192
 1492TIP3    H226036   5.494   4.055   0.362  0.3990  0.2031  0.8593
 1493TIP3   OH226037   4.170   5.220   2.452 -0.0369 -0.0035  0.2469
 1493TIP3    H126038   4.143   5.131   2.429  1.4419 -0.8424  1.5838
 1493TIP3    H226039   4.233   5.244   2.384 -1.2527  0.4970 -0.7450
 1494TIP3   OH226040   5.470   6.732   6.913  0.0547 -0.8924 -0.1559
 1494TIP3    H126041   5.425   6.773   6.839  1.4559 -1.4079 -1.3370
 1494TIP3    H226042   5.409   6.664   6.942 -1.3244  0.5199  0.4117
 1495TIP3   OH226043   5.068   1.451   7.006 -0.3712 -0.2490 -0.0420
 1495TIP3    H126044   5.035   1.401   6.931 -1.6805 -0.6810  0.7995
 1495TIP3    H226045   5.066   1.542   6.977 -2.5356 -0.2359  0.0359
 1496TIP3   OH226046   2.471   6.074   7.332  0.3281  0.3283 -0.2653
 1496TIP3    H126047   2.545   6.080   7.393  1.1075  1.6277 -1.2873
 1496TIP3    H226048   2.510   6.041   7.251 -0.4110  0.0854 -0.5283
 1497TIP3   OH226049   3.290   0.270   8.817  0.3959  0.2256  0.5428
 1497TIP3    H126050   3.358   0.216   8.776  0.0139  0.2485 -0.1379
 1497TIP3    H226051   3.208   0.227   8.793  0.2077 -0.5668  2.4762
 1498TIP3   OH226052   4.468   5.684   0.420 -0.0063 -0.3036  0.1955
 1498TIP3    H126053   4.392   5.737   0.398 -0.2176 -0.0889  1.3811
 1498TIP3    H226054   4.471   5.617   0.351 -0.8150  0.1373 -0.2839
 1499TIP3   OH226055   4.755   4.859   7.769 -0.1202  0.0384 -0.0329
 1499TIP3    H126056   4.783   4.903   7.689  0.1869  0.6297  0.3972
 1499TIP3    H226057   4.728   4.930   7.827 -0.0726 -0.3721  0.4918
 1500TIP3   OH226058   4.682   4.247   0.254 -1.2778 -0.2121  0.0074
 1500TIP3    H126059   4.616   4.304   0.293  0.0424  0.5555  1.2280
 1500TIP3    H226060   4.749   4.308   0.221 -0.0671 -1.0111  0.9065
 1501TIP3   OH226061   5.860   3.547   1.241  0.0659 -0.5848  0.3364
 1501TIP3    H126062   5.818   3.633   1.234 -0.1695 -0.6554  0.8595
 1501TIP3    H226063   5.953   3.567   1.252  0.1446 -0.4221 -0.4831
 1502TIP3   OH226064   4.777   0.521   7.809  0.1504 -0.4772 -0.2231
 1502TIP3    H126065   4.808   0.475   7.731  0.9585  0.3644 -0.4195
 1502TIP3    H226066   4.690   0.553   7.785 -0.0975 -1.2344 -0.3526
 1503TIP3   OH226067   3.792   1.966   7.530 -0.4282  1.0408  0.2415
 1503TIP3    H126068   3.697   1.953   7.525 -0.3288 -0.4105  1.5019
 1503TIP3    H226069   3.802   2.061   7.536 -2.0591  1.1686  3.2440
 1504TIP3   OH226070   0.501   4.331   2.171  0.0638 -0.3937  0.6350
 1504TIP3    H126071   0.526   4.271   2.101 -1.9189 -1.6891  0.9901
 1504TIP3    H226072   0.578   4.388   2.181  1.8462 -2.5423 -0.0208
 1505TIP3   OH226073   0.891   2.302   0.231 -0.4303 -0.3258  0.1475
 1505TIP3    H126074   0.945   2.366   0.278  1.4662 -1.1811 -0.7406
 1505TIP3    H226075   0.852   2.351   0.159 -0.8697  0.3119  0.8089
 1506TIP3   OH226076   4.747   4.194   0.661  0.4227 -0.4121  0.0136
 1506TIP3    H126077   4.715   4.284   0.673 -0.2688 -0.8115  1.3994
 1506TIP3    H226078   4.840   4.205   0.643  0.4039  0.5779  0.4082
 1507TIP3   OH226079   3.431   3.294   7.071 -0.1172  0.7474 -0.6751
 1507TIP3    H126080   3.492   3.350   7.023 -1.0456  0.6285 -2.0275
 1507TIP3    H226081   3.387   3.242   7.003  1.0071 -1.9857  0.5108
 1508TIP3   OH226082   1.674   4.002   0.735 -0.2225  0.2681  0.7438
 1508TIP3    H126083   1.595   3.974   0.781  0.0433 -0.0161  1.0327
 1508TIP3    H226084   1.666   3.962   0.648 -0.6493  0.6756  0.5959
 1509TIP3   OH226085   0.579   0.055   0.629  0.1136  0.2321 -0.3454
 1509TIP3    H126086   0.560   0.146   0.605  2.4879  0.3417 -2.2106
 1509TIP3    H226087   0.661   0.035   0.584  0.5500 -2.3316  1.3611
 1510TIP3   OH226088   0.231   2.384   8.766  0.3421 -0.2610  0.6015
 1510TIP3    H126089   0.157   2.392   8.827 -0.2488  1.1634 -0.2582
 1510TIP3    H226090   0.233   2.467   8.719  1.1943 -1.0644 -0.8761
 1511TIP3   OH226091   5.175   6.688   7.765 -0.4615 -0.0059  0.2154
 1511TIP3    H126092   5.182   6.765   7.821  1.7579 -0.0818  0.1387
 1511TIP3    H226093   5.253   6.691   7.710 -0.6412 -1.9671 -0.2449
 1512TIP3   OH226094   5.435   3.423   8.544  0.4769 -1.0384 -1.0728
 1512TIP3    H126095   5.346   3.454   8.555  1.5829  2.6411 -1.0381
 1512TIP3    H226096   5.434   3.332   8.574 -2.4102  0.0535  2.8370
 1513TIP3   OH226097   3.434   4.351   1.194 -0.0083 -0.1786  0.7339
 1513TIP3    H126098   3.437   4.373   1.100  0.6731  1.1122  1.0339
 1513TIP3    H226099   3.366   4.285   1.200  0.3365 -0.7273 -0.7618
 1514TIP3   OH226100   1.625   6.463   0.030  0.3400  0.2027 -0.1966
 1514TIP3    H126101   1.549   6.518   0.051 -0.9468 -1.3861 -0.5135
 1514TIP3    H226102   1.691   6.489   0.094 -0.2759  1.9784 -0.2195
 1515TIP3   OH226103   3.265   2.943   0.784 -0.8029 -0.2319  0.0031
 1515TIP3    H126104   3.272   3.034   0.752  1.9735 -0.0558  0.9127
 1515TIP3    H226105   3.177   2.916   0.756 -1.2455  2.2846 -1.4313
 1516TIP3   OH226106   6.667   6.098   8.417 -0.1185 -0.4223  0.5763
 1516TIP3    H126107   6.668   6.003   8.421 -0.3219 -0.4610 -0.1720
 1516TIP3    H226108   6.644   6.118   8.326 -1.0882  0.3336  0.9721
 1517TIP3   OH226109   1.596   5.225   1.513 -0.2990  0.2798  0.2334
 1517TIP3    H126110   1.504   5.216   1.488 -0.0037 -1.6043 -0.3590
 1517TIP3    H226111   1.636   5.276   1.442 -0.5849 -0.2773 -0.3379
 1518TIP3   OH226112   5.382   6.359   2.025 -0.6400  0.3784 -0.2935
 1518TIP3    H126113   5.318   6.358   2.097 -2.8649  0.1820 -2.1766
 1518TIP3    H226114   5.372   6.445   1.985 -0.7084 -0.1377 -1.4233
 1519TIP3   OH226115   1.645   5.874   0.129  0.5237 -0.0411 -0.4858
 1519TIP3    H126116   1.574   5.934   0.150  0.6482  0.2315 -0.8435
 1519TIP3    H226117   1.665   5.830   0.212  1.1165  1.1428  0.0245
 1520TIP3   OH226118   3.684   3.301   8.766  0.4979 -0.1860  0.4528
 1520TIP3    H126119   3.594   3.306   8.795  0.2607 -0.4421 -0.2119
 1520TIP3    H226120   3.734   3.280   8.845  0.1465  1.2193  1.0874
 1521TIP3   OH226121   4.350   3.723   0.221 -0.0709  0.8402 -0.0079
 1521TIP3    H126122   4.415   3.739   0.153 -0.3785  0.7484 -0.3281
 1521TIP3    H226123   4.279   3.676   0.176  0.8797 -1.6431  0.9204
 1522TIP3   OH226124   1.801   0.186   0.097  0.0453  0.4614 -0.7320
 1522TIP3    H126125   1.711   0.219   0.089 -0.1383  0.8292  1.7888
 1522TIP3    H226126   1.853   0.265   0.111  0.5413  0.1489 -0.8139
 1523TIP3   OH226127   5.635   4.785   2.707  0.0564 -0.1663 -0.3694
 1523TIP3    H126128   5.705   4.723   2.728 -0.3467 -0.7912 -0.8441
 1523TIP3    H226129   5.569   4.732   2.662 -0.1871  0.6538 -0.9968
 1524TIP3   OH226130   1.161   4.063   8.430 -0.0295 -0.5881 -0.6299
 1524TIP3    H126131   1.193   4.034   8.516  0.8472 -1.2929 -1.1815
 1524TIP3    H226132   1.072   4.028   8.425  0.4944 -1.9801 -0.6754
 1525TIP3   OH226133   2.285   5.217   8.243 -0.6596  0.2174  0.4813
 1525TIP3    H126134   2.229   5.271   8.188  1.3333  1.4993 -0.4002
 1525TIP3    H226135   2.311   5.143   8.188 -0.6844  0.1403  0.5699
 1526TIP3   OH226136   2.224   6.616   0.596  0.1742 -0.3495 -0.6173
 1526TIP3    H126137   2.195   6.677   0.664  0.7292 -0.5072 -0.2317
 1526TIP3    H226138   2.143   6.586   0.554 -0.3000 -1.4907  1.0364
 1527TIP3   OH226139   0.007   4.981   8.092 -0.0784 -0.4726  0.0532
 1527TIP3    H126140  -0.028   4.894   8.113 -0.3049 -0.5338 -0.5472
 1527TIP3    H226141   0.019   5.024   8.177 -1.8134 -0.3849  0.2923
 1528TIP3   OH226142   1.708   3.890   7.359  0.4985 -0.1633  0.1337
 1528TIP3    H126143   1.792   3.913   7.398  0.3450  1.0021 -0.1852
 1528TIP3    H226144   1.660   3.972   7.353  0.5613 -0.2247 -2.6014
 1529TIP3   OH226145   3.131   6.589   0.013 -0.5706 -0.1536 -0.4763
 1529TIP3    H126146   3.068   6.592  -0.060 -0.8549 -0.1254 -0.2320
 1529TIP3    H226147   3.152   6.496   0.021  0.5087 -0.0153 -1.4771
 1530TIP3   OH226148   6.505   3.472   1.857  0.4555  0.3440  0.2910
 1530TIP3    H126149   6.501   3.487   1.951  1.5256  1.2446  0.2149
 1530TIP3    H226150   6.445   3.537   1.820 -1.0938 -0.9549  0.3966
 1531TIP3   OH226151   0.916   3.512   0.395 -0.6546 -0.3274 -0.7816
 1531TIP3    H126152   0.893   3.445   0.330 -0.7923 -0.2013 -0.8614
 1531TIP3    H226153   0.887   3.594   0.357  2.4030  0.2517 -2.2138
 1532TIP3   OH226154   0.803   0.789   1.725  0.2204 -0.1882  0.1851
 1532TIP3    H126155   0.794   0.768   1.632 -0.8589 -0.7048  0.3962
 1532TIP3    H226156   0.723   0.837   1.746  0.3613 -0.2638  0.9008
 1533TIP3   OH226157   0.739   2.810   0.384 -0.2602  0.4381  0.2463
 1533TIP3    H126158   0.819   2.825   0.434  1.4581  0.8355 -2.4117
 1533TIP3    H226159   0.717   2.896   0.347 -1.1035  0.0496 -0.1836
 1534TIP3   OH226160   0.541   2.935   6.666 -0.6074 -0.5363 -0.5562
 1534TIP3    H126161   0.463   2.911   6.618 -0.8527  0.1863 -0.5357
 1534TIP3    H226162   0.592   2.854   6.672 -0.2573 -0.5030 -2.5833
 1535TIP3   OH226163   2.418   1.258   0.783  0.2381 -0.2992  0.1745
 1535TIP3    H126164   2.360   1.322   0.742  0.5986  1.7066  2.5327
 1535TIP3    H226165   2.361   1.205   0.838  0.1015 -1.2391 -0.8522
 1536TIP3   OH226166   4.539   6.030   1.374  0.1959 -0.2130 -0.0570
 1536TIP3    H126167   4.520   6.088   1.300 -3.3881 -0.9248  0.1150
 1536TIP3    H226168   4.498   5.947   1.351 -1.0784 -0.4460  2.6554
 1537TIP3   OH226169   0.869   3.173   2.098  0.0621 -0.6249 -0.1831
 1537TIP3    H126170   0.875   3.212   2.186  2.3026 -0.4174 -0.3595
 1537TIP3    H226171   0.798   3.221   2.055  2.1765  2.8731 -0.1429
 1538TIP3   OH226172   1.548   3.709   6.782 -0.2899 -0.1442  0.1926
 1538TIP3    H126173   1.526   3.726   6.691 -1.7618 -0.5521  0.4401
 1538TIP3    H226174   1.578   3.618   6.783 -1.2812 -0.4882  0.2461
 1539TIP3   OH226175   3.210   6.193   1.960 -0.5693 -0.2719 -0.0108
 1539TIP3    H126176   3.185   6.146   2.040 -1.2026  2.7290  1.7034
 1539TIP3    H226177   3.129   6.233   1.929 -0.1534 -0.6771 -1.7069
 1540TIP3   OH226178   0.758   1.911   1.870  0.0161  0.1476  0.2366
 1540TIP3    H126179   0.738   1.820   1.846 -0.9718  0.6044 -0.7567
 1540TIP3    H226180   0.741   1.914   1.964 -0.4649 -0.5784  0.1907
 1541TIP3   OH226181   6.392   2.494   0.137  0.2191 -0.0954  0.6887
 1541TIP3    H126182   6.344   2.418   0.102 -0.6852  0.0586  1.5264
 1541TIP3    H226183   6.464   2.508   0.076 -0.8299 -0.3234 -0.6470
 1542TIP3   OH226184   1.990   6.666   1.712 -0.3347  0.2038  0.1490
 1542TIP3    H126185   1.984   6.677   1.807  0.0753 -0.8186  0.3134
 1542TIP3    H226186   1.917   6.607   1.691 -1.1923  1.4220 -0.3685
 1543TIP3   OH226187   2.696   5.822   1.740 -0.2287 -0.2049 -0.2653
 1543TIP3    H126188   2.641   5.823   1.661  0.7086 -1.1689 -0.9716
 1543TIP3    H226189   2.755   5.896   1.729  1.7375 -1.8581 -1.9161
 1544TIP3   OH226190   3.848   3.811   6.182 -0.5165  0.7430  0.6519
 1544TIP3    H126191   3.769   3.824   6.235  0.4264  0.5335  2.1395
 1544TIP3    H226192   3.844   3.718   6.157 -1.0199  0.8688  0.2374
 1545TIP3   OH226193   4.025   2.792   0.471  0.1353 -0.4563 -0.1718
 1545TIP3    H126194   4.090   2.729   0.440  0.2038 -0.3399 -0.2654
 1545TIP3    H226195   3.944   2.765   0.428  0.6122  0.8339 -1.9606
 1546TIP3   OH226196   1.886   6.058   7.872 -0.3238 -0.0589 -0.2584
 1546TIP3    H126197   1.977   6.074   7.894 -0.5672  0.6733  0.2976
 1546TIP3    H226198   1.857   5.990   7.933  0.7584 -2.9462 -2.7273
 1547TIP3   OH226199   0.427   0.741   7.572 -0.1174  0.1278  0.2355
 1547TIP3    H126200   0.345   0.718   7.528 -0.1854  0.6921  0.0543
 1547TIP3    H226201   0.451   0.663   7.622 -0.8006 -0.0175  0.3435
 1548TIP3   OH226202   5.634   5.984   2.656 -0.1066 -0.4312  0.4210
 1548TIP3    H126203   5.691   5.909   2.674 -0.7241 -0.7189  1.2917
 1548TIP3    H226204   5.591   6.001   2.740  0.6672  1.4674  0.4966
 1549TIP3   OH226205   1.297   5.473   1.516 -0.1872  0.0550  0.0394
 1549TIP3    H126206   1.294   5.567   1.499  0.0401 -0.2565 -1.9717
 1549TIP3    H226207   1.261   5.433   1.436 -1.8351 -1.5365  1.4878
 1550TIP3   OH226208   2.734   5.131   1.289  0.4121 -0.0982  0.2153
 1550TIP3    H126209   2.742   5.038   1.308  2.5923 -0.4658 -1.9794
 1550TIP3    H226210   2.791   5.145   1.213 -1.4862  2.6468 -0.8494
 1551TIP3   OH226211   0.735   4.665   7.931  0.1579  0.0416 -0.0967
 1551TIP3    H126212   0.761   4.694   7.844 -1.9207 -0.6379 -1.0166
 1551TIP3    H226213   0.705   4.745   7.975  2.2132  0.5745  0.4533
 1552TIP3   OH226214   6.116   3.834   7.090 -0.6249  0.5194 -0.5458
 1552TIP3    H126215   6.061   3.846   7.013 -0.9718  3.4951  0.0440
 1552TIP3    H226216   6.196   3.882   7.070  0.3716 -0.8665 -0.0302
 1553TIP3   OH226217   0.573   0.932   6.873  0.4045  0.6519  0.2364
 1553TIP3    H126218   0.568   0.909   6.780 -0.5988  1.9905 -0.0699
 1553TIP3    H226219   0.612   0.855   6.915 -2.0222 -1.2866 -0.8366
 1554TIP3   OH226220   5.297   0.534   0.370  0.3933 -0.1175 -0.0706
 1554TIP3    H126221   5.245   0.546   0.450 -1.2038 -2.1217 -0.7095
 1554TIP3    H226222   5.347   0.454   0.385 -0.1186 -0.6639 -1.1489
 1555TIP3   OH226223   6.564   0.350   7.501  0.6786  0.1356  0.0758
 1555TIP3    H126224   6.636   0.401   7.538  1.0719 -0.3141 -0.0637
 1555TIP3    H226225   6.581   0.349   7.407 -0.0649  0.8814 -0.0823
 1556TIP3   OH226226   0.661   3.518   7.183  0.9313 -0.2270  0.4594
 1556TIP3    H126227   0.721   3.587   7.155  1.3299  0.3684  2.5789
 1556TIP3    H226228   0.708   3.437   7.162  1.1794  0.1712 -0.5736
 1557TIP3   OH226229   4.273   5.259   7.946 -0.3808 -0.3293  0.5610
 1557TIP3    H126230   4.202   5.323   7.954 -1.2321 -1.4118  2.2008
 1557TIP3    H226231   4.311   5.277   7.860 -1.6987  1.2341  0.2447
 1558TIP3   OH226232   4.976   5.190   2.362  0.6688  0.4320  0.3265
 1558TIP3    H126233   5.060   5.169   2.319  0.4678  1.2462 -0.5240
 1558TIP3    H226234   4.918   5.213   2.289  0.2009  1.5055  1.0197
 1559TIP3   OH226235   3.504   6.641   6.678 -0.3413  0.1157 -0.2969
 1559TIP3    H126236   3.587   6.604   6.648  0.3436  0.4677  1.0618
 1559TIP3    H226237   3.519   6.735   6.683 -1.0680  0.2654 -0.7461
 1560TIP3   OH226238   5.705   6.290   0.096  0.2801  0.2480 -0.1130
 1560TIP3    H126239   5.683   6.223   0.161 -1.3425  0.4909 -0.3710
 1560TIP3    H226240   5.626   6.298   0.042  0.9950  1.2705 -1.0523
 1561TIP3   OH226241   2.478   0.277   7.729  0.1189 -0.3897  0.0602
 1561TIP3    H126242   2.425   0.214   7.777 -0.2466 -0.2355 -0.1403
 1561TIP3    H226243   2.542   0.224   7.681 -1.6706 -0.8083 -1.9931
 1562TIP3   OH226244   1.242   2.491   1.156  0.2619  0.0023  0.0039
 1562TIP3    H126245   1.250   2.586   1.147 -0.7024  0.0936  0.0649
 1562TIP3    H226246   1.296   2.456   1.085  1.6737  0.5566  0.7446
 1563TIP3   OH226247   1.222   3.516   2.195 -0.3601  0.2901  0.1154
 1563TIP3    H126248   1.265   3.601   2.188  0.7038 -0.3124 -1.2668
 1563TIP3    H226249   1.251   3.481   2.279  0.2136  0.7564  0.1179
 1564TIP3   OH226250   3.566   1.237   0.172 -0.2428 -0.5863 -0.0972
 1564TIP3    H126251   3.602   1.304   0.114 -0.3884 -0.6140 -0.2194
 1564TIP3    H226252   3.559   1.159   0.117 -1.2535 -0.3693 -0.2966
 1565TIP3   OH226253   3.448   1.500   8.556  0.3352  0.6146  0.0858
 1565TIP3    H126254   3.464   1.432   8.622  0.2994  0.6268  0.1069
 1565TIP3    H226255   3.460   1.456   8.472 -4.3447 -0.7275 -0.1464
 1566TIP3   OH226256   6.108   6.252   1.105  0.6564  0.8560 -0.2126
 1566TIP3    H126257   6.066   6.309   1.169 -0.4992 -0.2011  0.0137
 1566TIP3    H226258   6.112   6.166   1.148 -0.3896  0.0542 -1.6204
 1567TIP3   OH226259   0.068   1.950   1.749  0.1575  0.1645  0.4779
 1567TIP3    H126260   0.107   1.876   1.703 -1.5165  0.2244 -1.1298
 1567TIP3    H226261   0.132   2.020   1.741  1.5180 -0.8871  1.5384
 1568TIP3   OH226262   1.236   5.455   8.368  0.0627  0.6124 -0.2885
 1568TIP3    H126263   1.303   5.520   8.387  1.2677 -0.3961 -0.8781
 1568TIP3    H226264   1.212   5.470   8.276 -2.6652  2.7876  0.6715
 1569TIP3   OH226265   6.448   5.389   8.835  0.2560 -0.0140 -0.0248
 1569TIP3    H126266   6.526   5.358   8.881  1.4724  0.7195 -1.5093
 1569TIP3    H226267   6.466   5.372   8.742 -0.9499  0.9958 -0.4771
 1570TIP3   OH226268   2.816   6.165   8.274  0.3062  0.6014  0.4064
 1570TIP3    H126269   2.845   6.206   8.356  0.6944  1.4511 -0.1323
 1570TIP3    H226270   2.869   6.208   8.207 -2.2240  2.2667 -0.6611
 1571TIP3   OH226271   4.737   1.920   8.151 -0.2465  0.0599 -0.6034
 1571TIP3    H126272   4.687   1.854   8.199 -1.4200  2.5107  1.7787
 1571TIP3    H226273   4.813   1.938   8.206 -0.4555  1.3537 -0.7098
 1572TIP3   OH226274   6.659   5.804   8.209  0.4519 -0.3607 -0.1567
 1572TIP3    H126275   6.569   5.778   8.230  0.1517  2.0285  1.9244
 1572TIP3    H226276   6.714   5.735   8.247 -0.3920 -2.0918 -1.8391
 1573TIP3   OH226277   3.940   3.555   8.034 -0.2096  0.1290 -0.1383
 1573TIP3    H126278   4.012   3.614   8.056 -0.0868  0.3498 -1.0913
 1573TIP3    H226279   3.950   3.538   7.940 -2.0625  1.1065 -0.5596
 1574TIP3   OH226280   0.606   2.223   0.271 -0.4409  0.5521 -0.1685
 1574TIP3    H126281   0.700   2.233   0.254 -0.6485  0.2972 -1.5598
 1574TIP3    H226282   0.566   2.219   0.185 -1.5560 -1.1394  0.3845
 1575TIP3   OH226283   1.892   4.927   0.926 -0.5184  0.2919 -0.5215
 1575TIP3    H126284   1.829   4.999   0.927 -0.4951  0.3262 -1.1270
 1575TIP3    H226285   1.961   4.956   0.867 -0.2989 -0.0529 -0.4399
 1576TIP3   OH226286   5.220   3.426   1.826  0.6845  0.0211  0.2551
 1576TIP3    H126287   5.242   3.336   1.802  1.7740  0.0770  0.9633
 1576TIP3    H226288   5.303   3.474   1.818 -0.1282  1.2565 -1.3178
 1577TIP3   OH226289   4.912   2.965   7.535  0.0341 -0.1484 -0.4430
 1577TIP3    H126290   4.825   2.928   7.545  0.8937 -2.0159  0.6776
 1577TIP3    H226291   4.963   2.897   7.492  0.9569  0.8994 -1.0698
 1578TIP3   OH226292   0.254   3.083   2.303  0.1442  0.4028  0.9973
 1578TIP3    H126293   0.236   3.142   2.376 -2.7133  0.1228  0.6221
 1578TIP3    H226294   0.245   2.995   2.340 -1.3491  0.2587  0.3584
 1579TIP3   OH226295   0.891   0.786   8.073 -0.0906 -0.5392  0.3531
 1579TIP3    H126296   0.860   0.707   8.119  0.8156 -1.2517 -0.2342
 1579TIP3    H226297   0.832   0.855   8.104 -1.1322 -1.5035  0.6189
 1580TIP3   OH226298   0.407   5.493   7.336  0.1622 -0.5060 -0.0869
 1580TIP3    H126299   0.378   5.499   7.427  0.0640 -0.2314 -0.1378
 1580TIP3    H226300   0.334   5.453   7.290 -0.5182  1.0469 -0.3952
 1581TIP3   OH226301   1.176   1.365   2.248  0.3773 -0.5372  0.2119
 1581TIP3    H126302   1.171   1.430   2.317  1.3723 -0.8172  0.5597
 1581TIP3    H226303   1.200   1.415   2.170  1.3144 -0.5069  0.5145
 1582TIP3   OH226304   5.040   5.681   8.072  0.3572 -0.7302  0.4397
 1582TIP3    H126305   4.986   5.637   8.138 -1.1590  0.2755 -0.0777
 1582TIP3    H226306   5.099   5.613   8.041 -0.2555 -1.7486  1.3981
 1583TIP3   OH226307   3.991   0.764   8.794  0.4691 -0.0801  0.9352
 1583TIP3    H126308   4.060   0.698   8.786 -0.3243 -0.7583 -0.5257
 1583TIP3    H226309   4.036   0.847   8.779  1.2820 -0.3477  1.7768
 1584TIP3   OH226310   2.259   1.460   0.498  0.3903  0.0995  0.6110
 1584TIP3    H126311   2.218   1.469   0.584 -1.4124 -0.1569 -0.1788
 1584TIP3    H226312   2.285   1.550   0.475  0.9981  0.1480  1.4695
 1585TIP3   OH226313   2.010   0.754   8.857  0.2199 -0.5809  0.2844
 1585TIP3    H126314   2.062   0.778   8.780 -0.0422 -1.6771 -0.2571
 1585TIP3    H226315   1.935   0.706   8.821 -0.6239  0.0504  1.1290
 1586TIP3   OH226316   5.830   5.537   1.396  0.1841  0.3254 -0.3388
 1586TIP3    H126317   5.860   5.476   1.464  0.3769 -0.1803 -0.8690
 1586TIP3    H226318   5.909   5.583   1.368  0.3688 -0.4999 -1.2326
 1587TIP3   OH226319   1.270   5.383   0.592  0.3239 -0.0255  0.2344
 1587TIP3    H126320   1.216   5.448   0.637  2.3244  0.9312  1.3570
 1587TIP3    H226321   1.272   5.413   0.501 -1.2231 -0.2457  0.0985
 1588TIP3   OH226322   4.003   6.268   8.437  0.3099  0.0466  0.0959
 1588TIP3    H126323   4.037   6.216   8.364  1.5913 -1.3796  1.6200
 1588TIP3    H226324   4.078   6.318   8.468 -0.0356  0.0979  0.8768
 1589TIP3   OH226325   2.946   5.346   8.740 -0.4424  0.1354  0.2352
 1589TIP3    H126326   2.964   5.404   8.814 -0.8036  1.3916 -0.6410
 1589TIP3    H226327   2.970   5.397   8.663  0.9124 -1.5142 -0.5085
 1590TIP3   OH226328   2.428   6.488   7.541 -0.1790 -0.1437  0.4090
 1590TIP3    H126329   2.346   6.481   7.491  0.1828  0.7256 -0.3318
 1590TIP3    H226330   2.484   6.544   7.488  0.6118 -0.0590  1.3013
 1591TIP3   OH226331   4.217   5.730   7.296 -0.8447 -0.1428  0.2963
 1591TIP3    H126332   4.230   5.715   7.202 -0.0869  0.2998  0.3231
 1591TIP3    H226333   4.280   5.798   7.318 -0.9943 -0.2713  1.1402
 1592TIP3   OH226334   2.936   2.035   0.290  0.6011  0.0454 -0.0440
 1592TIP3    H126335   3.008   1.973   0.299  0.4319 -0.1207  0.1871
 1592TIP3    H226336   2.857   1.981   0.300  0.4365  0.1583 -0.7010
 1593TIP3   OH226337   6.546   0.297   7.235  0.2880  0.0670 -0.3961
 1593TIP3    H126338   6.487   0.222   7.235 -2.0856  1.8097 -0.9589
 1593TIP3    H226339   6.585   0.297   7.147 -0.1888 -0.1711 -0.6123
 1594TIP3   OH226340   0.895   3.922   0.955  0.2414 -1.2586 -0.4620
 1594TIP3    H126341   0.857   3.839   0.983  0.7566 -2.3130 -2.6524
 1594TIP3    H226342   0.843   3.988   1.000  1.6984 -2.6523  3.8165
 1595TIP3   OH226343   2.713   6.459   1.132 -0.1138 -0.0583 -0.0077
 1595TIP3    H126344   2.621   6.436   1.146 -0.2548  0.6865  0.3264
 1595TIP3    H226345   2.735   6.517   1.205  1.0156 -1.2751  0.6601
 1596TIP3   OH226346   3.464   4.384   6.119  0.2936  0.0816  0.4418
 1596TIP3    H126347   3.440   4.344   6.203 -0.3318  1.1877  0.8108
 1596TIP3    H226348   3.558   4.398   6.125  0.4636 -1.0018  0.4433
 1597TIP3   OH226349   6.316   0.775   7.582  0.3389  0.3637  0.4452
 1597TIP3    H126350   6.356   0.765   7.668  0.1369  0.3833  0.5418
 1597TIP3    H226351   6.329   0.691   7.539 -0.8120 -0.1239  1.0213
 1598TIP3   OH226352   2.414   4.912   6.762 -0.2743  0.3260 -0.1891
 1598TIP3    H126353   2.354   4.838   6.762  0.8662 -0.6474  1.2702
 1598TIP3    H226354   2.395   4.958   6.680 -0.3723 -2.1075 -1.6440
 1599TIP3   OH226355   3.690   0.408   0.402  0.0322  0.4288  0.2069
 1599TIP3    H126356   3.627   0.465   0.357  0.1338 -1.2569 -2.2702
 1599TIP3    H226357   3.770   0.460   0.406  0.2275  0.4692 -2.3184
 1600TIP3   OH226358   4.171   3.708   8.052  0.4313 -0.0688 -0.6688
 1600TIP3    H126359   4.212   3.634   8.007 -0.8457 -0.7573 -0.7671
 1600TIP3    H226360   4.236   3.778   8.047  2.6416 -1.8022  1.3906
 1601TIP3   OH226361   1.558   4.737   0.213 -0.7126 -0.2993 -0.0385
 1601TIP3    H126362   1.600   4.817   0.247  0.1674 -1.0341  0.6535
 1601TIP3    H226363   1.565   4.746   0.118 -0.4089  0.3502  0.0365
 1602TIP3   OH226364   5.053   4.827   8.515 -0.2312  0.1945  0.0844
 1602TIP3    H126365   5.116   4.869   8.457  1.2525 -0.9509  0.7877
 1602TIP3    H226366   4.999   4.772   8.458  0.5404 -0.1337 -0.3349
 1603TIP3   OH226367   4.075   0.844   7.075 -0.2562  0.2888  0.6667
 1603TIP3    H126368   3.991   0.876   7.107 -1.5579  1.1641 -3.0713
 1603TIP3    H226369   4.121   0.922   7.045  0.2006 -0.4923 -0.7983
 1604TIP3   OH226370   6.491   0.877   2.965 -0.4755 -0.7535 -0.1956
 1604TIP3    H126371   6.519   0.883   2.874 -1.4115  0.0612 -0.4359
 1604TIP3    H226372   6.572   0.887   3.016 -0.1204  0.0563 -0.9073
 1605TIP3   OH226373   6.423   0.622   2.419  0.3858  0.4540 -0.3664
 1605TIP3    H126374   6.493   0.683   2.441  1.7781 -0.9514 -0.7629
 1605TIP3    H226375   6.395   0.586   2.503 -0.2605  1.4022 -0.1571
 1606TIP3   OH226376   5.097   0.935   2.347  0.4223  0.3945 -0.7468
 1606TIP3    H126377   5.049   0.878   2.407  2.2167 -0.4557 -0.0599
 1606TIP3    H226378   5.099   1.020   2.391  0.9249  0.0158 -0.0173
 1607TIP3   OH226379   3.600   6.168   1.630 -0.4339  0.3691  0.0499
 1607TIP3    H126380   3.547   6.113   1.687  0.0163  0.7880  0.9060
 1607TIP3    H226381   3.587   6.257   1.663  1.7572  0.3600  1.1423
 1608TIP3   OH226382   0.706   2.750   1.377  0.2720 -0.1685 -0.0042
 1608TIP3    H126383   0.781   2.693   1.357  1.3721  1.5617 -1.0557
 1608TIP3    H226384   0.728   2.789   1.461 -0.2883 -0.9304  0.5139
 1609TIP3   OH226385   6.168   0.993   7.942  0.0650 -0.3668 -0.0913
 1609TIP3    H126386   6.205   0.948   8.017  2.0228  2.8517  1.0740
 1609TIP3    H226387   6.243   1.016   7.887 -0.8068  1.1778 -0.7274
 1610TIP3   OH226388   6.226   3.716   0.705 -0.9637  0.3070 -0.3805
 1610TIP3    H126389   6.259   3.783   0.645  1.5986 -0.2265  0.3025
 1610TIP3    H226390   6.202   3.643   0.648 -1.3399  0.8693 -0.9536
 1611TIP3   OH226391   3.982   0.452   0.966  0.2022 -0.0264  0.6600
 1611TIP3    H126392   3.975   0.357   0.973 -0.8331 -0.0162 -0.0951
 1611TIP3    H226393   3.898   0.481   0.931  1.4233  0.8679 -1.8593
 1612TIP3   OH226394   0.399   2.624   0.949 -0.5721  0.0362  0.8944
 1612TIP3    H126395   0.309   2.632   0.981 -0.0246 -0.2492  2.6684
 1612TIP3    H226396   0.450   2.678   1.009  0.3265  1.0873 -0.7635
 1613TIP3   OH226397   1.239   2.449   0.052 -0.4319  0.4325 -0.6379
 1613TIP3    H126398   1.204   2.382   0.111 -1.3424  0.2956 -1.3109
 1613TIP3    H226399   1.284   2.400  -0.017 -2.1160  0.3978 -1.7897
 1614TIP3   OH226400   1.503   1.259   8.425 -0.0490  0.4931  0.3451
 1614TIP3    H126401   1.463   1.180   8.388  4.3126 -2.1462  0.5544
 1614TIP3    H226402   1.525   1.312   8.349 -0.0921 -0.0891 -0.0863
 1615TIP3   OH226403   6.741   3.284   6.900 -0.5124 -0.5376 -0.6835
 1615TIP3    H126404   6.649   3.297   6.922 -1.2318 -0.6496 -3.3268
 1615TIP3    H226405   6.756   3.191   6.918 -1.4430 -0.9412 -1.8795
 1616TIP3   OH226406   3.358   5.868   0.445 -0.3044  0.0115  0.4127
 1616TIP3    H126407   3.352   5.902   0.534 -0.6438  0.4229  0.2378
 1616TIP3    H226408   3.452   5.858   0.429 -0.2633 -0.7894  1.0808
 1617TIP3   OH226409   0.744   4.206   0.429 -0.4006 -0.0591  0.0527
 1617TIP3    H126410   0.725   4.285   0.481 -2.3982 -0.4300 -0.0504
 1617TIP3    H226411   0.702   4.135   0.477 -0.3210 -0.7674 -0.8972
 1618TIP3   OH226412   4.252   5.817   0.293 -0.1096 -0.0468 -0.0313
 1618TIP3    H126413   4.305   5.872   0.237 -1.4684 -0.7536 -2.1129
 1618TIP3    H226414   4.167   5.811   0.249 -0.9747 -1.3466  1.6666
 1619TIP3   OH226415   2.765   4.512   7.240  0.6813 -0.1532  0.3260
 1619TIP3    H126416   2.821   4.528   7.164  0.9815  0.3088  0.6418
 1619TIP3    H226417   2.697   4.579   7.233  0.5577 -0.2782  0.3236
 1620TIP3   OH226418   5.315   4.360   0.893 -0.7335  0.0354 -0.5638
 1620TIP3    H126419   5.353   4.358   0.805 -2.6299 -0.1433 -1.4246
 1620TIP3    H226420   5.264   4.279   0.899 -1.6986  0.6759  0.1834
 1621TIP3   OH226421   6.624   2.583   2.451 -0.2148 -0.0557  0.0006
 1621TIP3    H126422   6.602   2.619   2.536  0.6234 -1.1582  0.7110
 1621TIP3    H226423   6.718   2.600   2.441 -0.5912  1.4799 -1.4341
 1622TIP3   OH226424   2.457   5.073   0.779 -0.7170  0.4452  0.2848
 1622TIP3    H126425   2.373   5.106   0.811 -1.4194 -0.5037 -0.5059
 1622TIP3    H226426   2.493   5.024   0.854 -1.6281 -0.4751  0.1417
 1623TIP3   OH226427   3.602   4.701   0.408 -0.3889 -0.0705 -0.0345
 1623TIP3    H126428   3.689   4.695   0.370 -0.1522 -2.3931  0.7212
 1623TIP3    H226429   3.617   4.705   0.503 -1.0741  0.7792  0.0497
 1624TIP3   OH226430   1.849   4.361   1.825  0.1936  0.2700  0.4054
 1624TIP3    H126431   1.908   4.317   1.765 -0.6091 -0.4881  0.1567
 1624TIP3    H226432   1.799   4.291   1.867 -0.5509  0.8856  0.5832
 1625TIP3   OH226433   2.476   3.166   7.605 -0.0996 -0.2243 -0.0702
 1625TIP3    H126434   2.526   3.125   7.676 -0.6678 -2.0667 -0.6772
 1625TIP3    H226435   2.543   3.202   7.547  0.3700  2.2532  1.8471
 1626TIP3   OH226436   3.068   6.746   8.214  0.3867  0.6975 -0.5005
 1626TIP3    H126437   3.072   6.713   8.125 -0.2851 -0.1734 -0.2192
 1626TIP3    H226438   3.142   6.807   8.221 -0.1625  1.5847 -1.9623
 1627TIP3   OH226439   1.489   3.678   0.723 -0.6041  0.0068 -0.0949
 1627TIP3    H126440   1.397   3.674   0.697 -0.5289 -0.9972 -0.2343
 1627TIP3    H226441   1.532   3.724   0.652 -1.3185  2.4080  0.9350
 1628TIP3   OH226442   2.526   5.758   1.526 -0.1754  0.0897  0.3386
 1628TIP3    H126443   2.502   5.684   1.470 -0.9578  0.9953 -0.5726
 1628TIP3    H226444   2.576   5.816   1.468 -0.8041  0.9370  0.6282
 1629TIP3   OH226445   0.729   2.515   0.790  0.0773 -0.2479  0.1940
 1629TIP3    H126446   0.689   2.593   0.751  0.5175 -0.2840 -0.3521
 1629TIP3    H226447   0.765   2.467   0.715 -0.5269 -1.1773  0.4846
 1630TIP3   OH226448   5.677   0.770   0.307  0.2501  0.0824  0.4407
 1630TIP3    H126449   5.771   0.778   0.324  0.3650 -0.7859  0.2496
 1630TIP3    H226450   5.652   0.855   0.271  1.0171  0.2224  0.2172
 1631TIP3   OH226451   4.690   2.036   7.847  0.4799  0.7220  0.2809
 1631TIP3    H126452   4.625   2.100   7.817  0.8558  0.1552 -1.8509
 1631TIP3    H226453   4.691   2.047   7.942 -0.6051  2.7816  0.1196
 1632TIP3   OH226454   4.870   5.824   1.199  1.1057  0.0875  0.1778
 1632TIP3    H126455   4.862   5.918   1.218  0.3018  0.3108 -1.1834
 1632TIP3    H226456   4.922   5.820   1.119 -1.1958 -0.4398 -1.3854
 1633TIP3   OH226457   4.236   6.202   7.417 -0.2309 -0.1114 -0.1096
 1633TIP3    H126458   4.246   6.231   7.326  2.5673 -0.9772 -0.1843
 1633TIP3    H226459   4.274   6.114   7.418 -1.0354 -0.4668  1.7406
 1634TIP3   OH226460   1.097   2.778   7.655  0.4122  0.0456  0.3003
 1634TIP3    H126461   1.148   2.810   7.581 -0.6395 -1.0501 -0.9626
 1634TIP3    H226462   1.048   2.854   7.686  0.1922  0.3241 -0.7151
 1635TIP3   OH226463   6.040   1.473   0.998 -0.2326  0.1432 -0.4289
 1635TIP3    H126464   6.101   1.516   0.937 -1.9529  0.0215 -2.3348
 1635TIP3    H226465   6.071   1.499   1.085  0.4301  2.9808 -1.4145
 1636TIP3   OH226466   4.214   3.782   0.812  0.4214 -0.1235  0.5633
 1636TIP3    H126467   4.179   3.737   0.735 -1.9343  1.8960  0.3141
 1636TIP3    H226468   4.257   3.860   0.777  3.5047 -1.4338  1.0633
 1637TIP3   OH226469   6.129   0.264   7.200  0.4117  0.1309 -0.2534
 1637TIP3    H126470   6.042   0.234   7.172  0.5036 -0.3206 -0.0742
 1637TIP3    H226471   6.135   0.354   7.169  0.1374 -0.0467 -0.8400
 1638TIP3   OH226472   1.667   6.423   6.287 -0.0864 -1.2402  0.7331
 1638TIP3    H126473   1.663   6.388   6.376  1.4160 -2.2851  0.4379
 1638TIP3    H226474   1.761   6.433   6.269 -0.4082  0.6470 -0.1185
 1639TIP3   OH226475   6.103   2.244   8.638 -0.3015  0.4154  0.7899
 1639TIP3    H126476   6.085   2.179   8.706 -1.6045 -0.2424 -0.1403
 1639TIP3    H226477   6.027   2.240   8.580  0.1399  1.9395  0.0448
 1640TIP3   OH226478   0.690   4.308   8.433 -0.2414  0.5843  0.1723
 1640TIP3    H126479   0.668   4.338   8.345  0.7800 -1.0144 -0.6804
 1640TIP3    H226480   0.605   4.297   8.476 -0.7642  1.2318 -0.6591
 1641TIP3   OH226481   1.560   3.828   7.688 -0.2855  0.7748 -0.8227
 1641TIP3    H126482   1.648   3.820   7.724 -0.2366  0.5954 -0.9821
 1641TIP3    H226483   1.545   3.923   7.681 -0.3526  0.8115 -0.1979
 1642TIP3   OH226484   0.900   1.615   1.440 -0.0849  0.4518 -0.0395
 1642TIP3    H126485   0.849   1.539   1.468  0.3754  0.7721  1.8169
 1642TIP3    H226486   0.946   1.586   1.362 -2.1069 -0.2352 -1.0622
 1643TIP3   OH226487   0.942   0.021   8.567 -0.0311 -0.2018 -1.0365
 1643TIP3    H126488   0.946  -0.019   8.480 -0.3369 -2.1690 -0.2014
 1643TIP3    H226489   0.856   0.064   8.570  0.0702  0.0682 -1.7634
 1644TIP3   OH226490   3.269   1.239   0.215  0.2214 -0.2564 -0.0044
 1644TIP3    H126491   3.244   1.160   0.168  1.2580 -1.6396  1.6246
 1644TIP3    H226492   3.358   1.222   0.246 -0.0095  0.9784  1.5197
 1645TIP3   OH226493   1.557   1.023   2.414 -0.4840 -0.0546 -0.9192
 1645TIP3    H126494   1.563   0.973   2.496  0.9435 -0.5805 -1.3232
 1645TIP3    H226495   1.465   1.049   2.410 -0.7621 -0.6810  0.4626
 1646TIP3   OH226496   5.418   5.412   7.257  0.2140 -0.4376 -0.1466
 1646TIP3    H126497   5.341   5.393   7.311 -0.0386 -2.3047 -1.0824
 1646TIP3    H226498   5.384   5.458   7.181 -0.1385 -1.9673 -0.9478
 1647TIP3   OH226499   4.410   0.467   1.053 -0.4414  0.4954  0.4326
 1647TIP3    H126500   4.378   0.540   0.999  1.0969  1.9382  1.3709
 1647TIP3    H226501   4.394   0.495   1.143 -2.2791 -1.5524  0.8119
 1648TIP3   OH226502   3.047   4.288   7.234 -0.0125  0.3866 -0.4991
 1648TIP3    H126503   3.090   4.261   7.153 -0.1544  1.3792 -0.9059
 1648TIP3    H226504   3.086   4.372   7.256  0.1152  0.0703  0.5346
 1649TIP3   OH226505   2.018   2.866   1.759  0.2153  0.5502 -0.6872
 1649TIP3    H126506   2.053   2.797   1.815 -0.0879 -0.1720 -1.3598
 1649TIP3    H226507   2.093   2.894   1.706  0.3865  0.8916 -0.2718
 1650TIP3   OH226508   0.255   0.986   2.218 -0.2326  0.4161  0.6913
 1650TIP3    H126509   0.347   1.013   2.227 -0.4447  0.9543  1.3222
 1650TIP3    H226510   0.210   1.032   2.289 -1.5092  2.5863 -1.3881
 1651TIP3   OH226511   1.869   5.194   7.369  0.5943 -0.6580 -0.3978
 1651TIP3    H126512   1.793   5.234   7.326  0.7268  0.4288  0.3319
 1651TIP3    H226513   1.944   5.227   7.319  0.7030  0.0351  0.1985
 1652TIP3   OH226514   3.868   4.233   1.304  0.3433 -0.2700 -0.0308
 1652TIP3    H126515   3.863   4.327   1.288 -1.5147 -0.2460  0.4332
 1652TIP3    H226516   3.960   4.211   1.293  0.6417  1.4107 -1.1893
 1653TIP3   OH226517   3.184   4.117   0.626  0.7783 -0.5442 -0.4047
 1653TIP3    H126518   3.096   4.152   0.631 -0.0490 -2.3726 -1.3220
 1653TIP3    H226519   3.231   4.178   0.569 -0.4355 -0.5503 -1.4570
 1654TIP3   OH226520   6.786   3.930   0.999  0.3407  0.1001 -0.2410
 1654TIP3    H126521   6.875   3.958   0.976 -0.2898  0.3689 -2.5843
 1654TIP3    H226522   6.752   3.890   0.919 -1.2678 -1.0567  0.9528
 1655TIP3   OH226523   6.746   2.220   1.168 -0.3981 -0.0616 -0.1922
 1655TIP3    H126524   6.694   2.144   1.141 -0.3425 -0.2868  0.3194
 1655TIP3    H226525   6.826   2.182   1.205  0.0235  0.2759 -0.7469
 1656TIP3   OH226526   1.947   2.462   8.348 -0.0372  0.0700  0.4240
 1656TIP3    H126527   1.890   2.388   8.366 -3.4841  2.5169  0.7294
 1656TIP3    H226528   1.971   2.495   8.435 -0.2215  0.4627  0.3280
 1657TIP3   OH226529   5.838   2.473   8.284  0.3059  0.3748 -0.2507
 1657TIP3    H126530   5.798   2.518   8.210  0.2411  0.6313 -0.0637
 1657TIP3    H226531   5.876   2.543   8.337 -1.4563  0.4271  1.0432
 1658TIP3   OH226532   6.095   2.639   2.761 -0.1114 -0.4906 -0.7008
 1658TIP3    H126533   6.164   2.615   2.699  0.1332 -0.7055 -0.3424
 1658TIP3    H226534   6.139   2.643   2.846  0.0262  1.8466 -0.7997
 1659TIP3   OH226535   1.608   1.678   2.575 -0.7353  0.0723  0.2780
 1659TIP3    H126536   1.535   1.687   2.636 -0.9676 -2.4901  0.4994
 1659TIP3    H226537   1.673   1.740   2.607 -1.5230  0.0419  2.1126
 1660TIP3   OH226538   2.310   1.536   1.010  0.4530  0.9156  0.4187
 1660TIP3    H126539   2.229   1.550   1.060  0.5630 -0.9538  1.1733
 1660TIP3    H226540   2.361   1.475   1.063  1.4425  0.4121 -1.0684
 1661TIP3   OH226541   1.049   2.131   1.862  0.0502 -0.3888  0.1731
 1661TIP3    H126542   1.098   2.171   1.790  0.9303 -1.0251  0.4057
 1661TIP3    H226543   1.037   2.040   1.836  1.8539 -1.0820  1.5237
 1662TIP3   OH226544   2.726   5.417   1.308  0.1234  0.0784  0.5094
 1662TIP3    H126545   2.821   5.421   1.320  0.2008 -0.2794  0.0175
 1662TIP3    H226546   2.707   5.324   1.298 -0.1122  0.2492 -0.6862
 1663TIP3   OH226547   6.665   5.960   7.942  0.1210 -0.2986  0.1387
 1663TIP3    H126548   6.655   5.914   8.026 -0.3243  0.1237  0.3226
 1663TIP3    H226549   6.687   6.050   7.966 -0.1922 -0.1307 -0.1908
 1664TIP3   OH226550   6.247   1.831   2.358 -0.0536  0.2751  0.6684
 1664TIP3    H126551   6.333   1.855   2.393  0.3523  0.8632 -0.6781
 1664TIP3    H226552   6.264   1.803   2.268 -1.4617  2.0161 -0.1926
 1665TIP3   OH226553   2.682   3.528   1.385  0.2418  0.3044 -0.3050
 1665TIP3    H126554   2.771   3.505   1.414  0.4597  0.8419 -0.5400
 1665TIP3    H226555   2.647   3.446   1.350 -0.7969 -0.9988  3.2676
 1666TIP3   OH226556   5.615   2.600   7.733 -0.2796 -0.1963 -0.3927
 1666TIP3    H126557   5.607   2.576   7.826 -1.4830  1.8191  0.0771
 1666TIP3    H226558   5.525   2.610   7.703  0.1248  0.1697 -1.5151
 1667TIP3   OH226559   6.683   2.426   1.376  0.9037 -0.0914 -0.1868
 1667TIP3    H126560   6.685   2.508   1.326 -1.8032  0.3152  0.2419
 1667TIP3    H226561   6.670   2.358   1.309 -2.3880  0.4205 -0.2060
 1668TIP3   OH226562   4.075   6.156   1.319 -0.2317 -0.1462  0.2334
 1668TIP3    H126563   4.105   6.246   1.331  0.1109 -0.1651 -0.4427
 1668TIP3    H226564   3.979   6.163   1.322 -0.2305  0.3596 -0.5545
 1669TIP3   OH226565   6.547   5.609   7.298  0.5403  0.0295  1.2744
 1669TIP3    H126566   6.464   5.645   7.329 -0.9723 -0.5285 -1.7629
 1669TIP3    H226567   6.540   5.515   7.317  0.0153 -0.1667  0.1853
 1670TIP3   OH226568   3.256   1.308   1.207 -0.0837 -0.2803 -0.3697
 1670TIP3    H126569   3.258   1.334   1.299 -1.1749 -0.9682 -0.1380
 1670TIP3    H226570   3.182   1.357   1.170 -1.7602 -2.4539 -0.0762
 1671TIP3   OH226571   0.407   1.420   0.102 -0.2439 -0.5948  0.2801
 1671TIP3    H126572   0.315   1.419   0.128 -0.3167 -0.2807  0.0375
 1671TIP3    H226573   0.408   1.466   0.019 -0.0291 -1.6931 -0.3524
 1672TIP3   OH226574   4.466   6.463   6.834 -0.8134 -0.1370  0.7408
 1672TIP3    H126575   4.500   6.432   6.918  0.6455  0.0485  0.2524
 1672TIP3    H226576   4.372   6.448   6.839 -0.4342 -2.7558  1.3173
 1673TIP3   OH226577   2.639   6.155   8.596 -0.7540 -0.0414 -0.0736
 1673TIP3    H126578   2.705   6.143   8.663 -1.4311  1.8474  1.0100
 1673TIP3    H226579   2.582   6.078   8.603 -0.2015 -0.3720  0.7865
 1674TIP3   OH226580   3.335   3.353   2.186  0.4452 -0.4277  0.8948
 1674TIP3    H126581   3.427   3.336   2.204  0.7957 -0.9576 -1.1747
 1674TIP3    H226582   3.313   3.429   2.241  2.7588  1.2088 -0.2847
 1675TIP3   OH226583   6.316   4.823   0.796  0.0761  0.4166  0.1279
 1675TIP3    H126584   6.329   4.728   0.793 -0.0025  0.3794 -4.0565
 1675TIP3    H226585   6.401   4.859   0.822  0.6512 -0.7214 -0.1423
 1676TIP3   OH226586   3.731   3.448   0.304 -0.5620  0.7340 -0.3466
 1676TIP3    H126587   3.764   3.497   0.229 -0.2898  2.3704  0.7953
 1676TIP3    H226588   3.758   3.358   0.288  3.4602  1.7192 -0.1030
 1677TIP3   OH226589   5.924   4.991   0.712 -0.1078 -0.1196  0.4144
 1677TIP3    H126590   5.986   4.921   0.694 -0.3537 -0.3330  0.3962
 1677TIP3    H226591   5.898   5.023   0.625 -1.2625 -1.1214  0.3536
 1678TIP3   OH226592   0.258   3.644   7.271 -0.0942  0.0848  0.7308
 1678TIP3    H126593   0.198   3.668   7.200  0.0802  1.0336  0.8923
 1678TIP3    H226594   0.343   3.636   7.228 -0.3879 -1.7298  0.4152
 1679TIP3   OH226595   3.742   4.334   8.551  0.1592  0.1713 -1.0417
 1679TIP3    H126596   3.751   4.243   8.522 -1.3432 -0.6193  0.8001
 1679TIP3    H226597   3.649   4.354   8.538  0.1545  0.9028  0.0409
 1680TIP3   OH226598   0.315   0.498   7.925 -0.1682  0.0943 -0.2748
 1680TIP3    H126599   0.278   0.587   7.930  0.0975  0.2624 -1.0654
 1680TIP3    H226600   0.319   0.469   8.016 -1.2616  0.4736 -0.0838
 1681TIP3   OH226601   0.153   0.034   1.470 -0.3495 -0.1317  0.2196
 1681TIP3    H126602   0.216   0.097   1.434 -1.1406  0.2318 -0.5707
 1681TIP3    H226603   0.205  -0.045   1.486  0.5849  0.5905  0.8849
 1682TIP3   OH226604   5.994   0.893   7.160  0.1170  0.5128 -0.1812
 1682TIP3    H126605   6.045   0.958   7.208 -0.3685  1.5953 -1.0900
 1682TIP3    H226606   5.985   0.820   7.221  0.5393  1.3565  0.9258
 1683TIP3   OH226607   0.551   2.212   8.540 -0.0981 -0.5082 -0.3450
 1683TIP3    H126608   0.471   2.173   8.503 -0.0301 -0.9388 -0.0478
 1683TIP3    H226609   0.526   2.238   8.628  0.3744 -1.6426  0.1444
 1684TIP3   OH226610   6.743   4.204   8.533  0.0616 -0.0581  0.2106
 1684TIP3    H126611   6.807   4.202   8.604  0.6249  2.2503 -0.1589
 1684TIP3    H226612   6.664   4.239   8.574 -0.0404 -0.0501  0.0085
 1685TIP3   OH226613   1.308   6.700   7.477  0.1167 -0.0926 -0.0529
 1685TIP3    H126614   1.362   6.651   7.538  1.1675  0.9249 -0.1397
 1685TIP3    H226615   1.357   6.780   7.459 -1.2658  0.7125 -0.4036
 1686TIP3   OH226616   3.835   6.322   7.443  0.0227 -0.0030 -0.4921
 1686TIP3    H126617   3.862   6.387   7.378 -0.1143 -0.2327 -0.7790
 1686TIP3    H226618   3.739   6.325   7.442  0.0051  1.2624  0.9739
 1687TIP3   OH226619   5.074   4.006   0.364  0.0884  0.8956  0.2762
 1687TIP3    H126620   4.988   4.015   0.323  0.0834  1.7943  0.4789
 1687TIP3    H226621   5.113   3.929   0.321 -0.8661  0.3967  0.2873
 1688TIP3   OH226622   3.866   5.788   7.021 -0.0526 -0.7250  0.4245
 1688TIP3    H126623   3.819   5.726   6.966  0.4207  1.2473 -2.4063
 1688TIP3    H226624   3.808   5.804   7.095 -2.0511 -1.3896 -0.9309
 1689TIP3   OH226625   0.212   4.785   0.871 -0.2344  0.3960 -0.1814
 1689TIP3    H126626   0.179   4.746   0.952  0.2161 -0.7514 -0.5326
 1689TIP3    H226627   0.249   4.712   0.822  0.5166  1.2452 -0.9290
 1690TIP3   OH226628   3.270   4.508   7.335 -0.7724  0.4422  0.3300
 1690TIP3    H126629   3.195   4.550   7.293  0.9631  3.5736 -0.0058
 1690TIP3    H226630   3.324   4.477   7.263 -0.7479  0.1285  0.4843
 1691TIP3   OH226631   2.283   0.938   7.392 -0.0357 -0.7131  0.1808
 1691TIP3    H126632   2.337   0.860   7.406  1.3214  0.0403 -0.6469
 1691TIP3    H226633   2.295   0.990   7.471  0.4398 -0.5723  0.0227
 1692TIP3   OH226634   2.769   0.678   0.990 -0.1484 -0.4033 -0.0256
 1692TIP3    H126635   2.802   0.591   0.968  0.3006 -0.3151  0.2906
 1692TIP3    H226636   2.802   0.695   1.078 -0.8215 -0.2024  0.1944
 1693TIP3   OH226637   2.255   2.585   6.502 -0.3968  0.2614  0.1818
 1693TIP3    H126638   2.199   2.656   6.473 -0.0542 -0.2306 -1.8058
 1693TIP3    H226639   2.329   2.586   6.442  0.9195 -0.1631  1.7123
 1694TIP3   OH226640   4.937   3.498   1.698  0.0529 -0.6405 -0.1185
 1694TIP3    H126641   5.019   3.451   1.715 -0.1733 -0.9297  0.1821
 1694TIP3    H226642   4.955   3.549   1.619  1.1401  0.7610  0.9767
 1695TIP3   OH226643   5.036   1.076   8.289  0.2645 -0.0415 -1.0365
 1695TIP3    H126644   5.034   1.139   8.362  1.6970 -0.5257 -0.5614
 1695TIP3    H226645   5.014   0.992   8.330  2.9852 -0.6776 -0.7304
 1696TIP3   OH226646   0.517   3.633   0.413 -0.7945  0.4044 -0.4509
 1696TIP3    H126647   0.510   3.602   0.503 -0.9568  1.3790 -0.1163
 1696TIP3    H226648   0.477   3.563   0.360  0.3551 -0.7108  0.1039
 1697TIP3   OH226649   2.094   3.293   0.415 -0.6428 -0.1850 -0.1448
 1697TIP3    H126650   2.128   3.230   0.478 -0.4388 -0.9176 -0.9761
 1697TIP3    H226651   2.014   3.252   0.381 -0.7409  0.1963 -0.3825
 1698TIP3   OH226652   5.303   2.614   7.714 -0.5979  0.7438  0.4009
 1698TIP3    H126653   5.318   2.520   7.727  0.3468  0.8348  0.0134
 1698TIP3    H226654   5.238   2.617   7.644  1.3720  0.3681 -1.5749
 1699TIP3   OH226655   4.955   3.919   7.098  0.1302  0.2467  0.1683
 1699TIP3    H126656   4.945   3.961   7.184  1.5084 -0.8118  0.9008
 1699TIP3    H226657   5.037   3.954   7.064  2.1953 -2.8409  1.5119
 1700TIP3   OH226658   5.489   1.597   7.355 -0.2716  0.1244  0.1125
 1700TIP3    H126659   5.425   1.533   7.325 -0.7983  0.9733 -0.6065
 1700TIP3    H226660   5.567   1.578   7.303 -0.6838  0.5794 -0.6867
 1701TIP3   OH226661   2.919   1.204   6.726  0.5258 -0.3432 -0.2484
 1701TIP3    H126662   2.830   1.237   6.739 -0.3751 -1.9999 -1.7207
 1701TIP3    H226663   2.912   1.110   6.742  2.1775 -0.3960  0.2962
 1702TIP3   OH226664   2.075   1.178   8.499 -0.0700 -0.2847 -0.3652
 1702TIP3    H126665   2.125   1.165   8.419 -0.4507  0.1368 -0.6725
 1702TIP3    H226666   2.041   1.267   8.492  0.5228  0.0363  0.6114
 1703TIP3   OH226667   5.476   3.433   8.261 -0.5554 -0.1671  0.0814
 1703TIP3    H126668   5.481   3.426   8.356 -0.5757  1.3641  0.2234
 1703TIP3    H226669   5.439   3.520   8.245  0.2334 -0.0569 -1.3332
 1704TIP3   OH226670   5.825   1.061   0.617 -0.4645  0.2522  0.3574
 1704TIP3    H126671   5.807   1.032   0.528 -2.0137  2.4461 -0.1449
 1704TIP3    H226672   5.755   1.024   0.669  1.0311 -1.9255  0.9588
 1705TIP3   OH226673   1.700   0.418   8.630  0.1501  0.1151  0.4540
 1705TIP3    H126674   1.775   0.358   8.622 -0.4000 -0.8855  2.3487
 1705TIP3    H226675   1.739   0.500   8.659  0.6967  0.1533 -0.3382
 1706TIP3   OH226676   4.819   6.029   1.347  0.4098  0.3747 -0.8540
 1706TIP3    H126677   4.874   6.056   1.421 -2.2143  0.6905  1.1228
 1706TIP3    H226678   4.731   6.053   1.373 -0.8115 -0.8025 -3.5472
 1707TIP3   OH226679   6.446   1.112   8.309  0.0838 -0.9778  0.3966
 1707TIP3    H126680   6.476   1.195   8.346 -1.0258 -0.7788  0.8531
 1707TIP3    H226681   6.527   1.067   8.284  0.7333 -0.1156  0.9019
 1708TIP3   OH226682   0.420   6.394   7.897 -0.3927 -0.7453  0.2430
 1708TIP3    H126683   0.476   6.353   7.962 -0.1489 -1.1572 -0.2176
 1708TIP3    H226684   0.376   6.321   7.854  1.2631 -0.6905 -1.7098
 1709TIP3   OH226685   5.286   0.902   0.835  0.3233  0.0081  1.0467
 1709TIP3    H126686   5.358   0.961   0.814 -0.7272  0.7601 -0.7085
 1709TIP3    H226687   5.309   0.820   0.791 -0.0872  0.3985  0.0767
 1710TIP3   OH226688   5.177   2.793   6.959 -0.0112  0.2198 -0.1627
 1710TIP3    H126689   5.191   2.734   6.885 -0.2176 -0.4448  0.3160
 1710TIP3    H226690   5.239   2.865   6.945  1.0720 -0.6917 -0.1483
 1711TIP3   OH226691   5.089   0.693   7.341  0.3169  0.3071 -0.4769
 1711TIP3    H126692   5.075   0.624   7.405  0.5403  0.9610  0.2994
 1711TIP3    H226693   5.157   0.748   7.380 -1.4852  2.3002  0.0397
 1712TIP3   OH226694   3.129   3.736   1.819 -0.5057  0.5401 -0.5985
 1712TIP3    H126695   3.051   3.756   1.870 -0.2433  0.3567 -0.1186
 1712TIP3    H226696   3.175   3.670   1.870 -0.0226  0.6663 -0.8616
 1713TIP3   OH226697   3.919   1.171   0.224 -0.6838  0.4927  0.2766
 1713TIP3    H126698   3.944   1.171   0.317 -0.9770 -0.5469  0.3635
 1713TIP3    H226699   3.873   1.088   0.211  0.7411 -0.1224 -1.1679
 1714TIP3   OH226700   1.159   3.376   2.567  0.3008 -0.2353 -0.2764
 1714TIP3    H126701   1.204   3.334   2.641  0.3604 -1.1183 -0.8010
 1714TIP3    H226702   1.229   3.404   2.509  0.2521  0.4471 -0.0189
 1715TIP3   OH226703   5.425   2.630   0.219 -0.2985  0.1191  0.5459
 1715TIP3    H126704   5.405   2.724   0.226  1.5393  0.5309  0.8204
 1715TIP3    H226705   5.477   2.623   0.139 -0.7704 -0.7586  0.3022
 1716TIP3   OH226706   0.421   4.785   7.611  0.0313 -0.4491  0.0329
 1716TIP3    H126707   0.351   4.846   7.634 -0.1737 -0.9244  0.7230
 1716TIP3    H226708   0.436   4.735   7.691  0.7841 -0.7275 -0.2718
 1717TIP3   OH226709   5.945   6.468   8.016  0.1931 -0.0018  0.7963
 1717TIP3    H126710   5.990   6.509   7.942  1.2280 -1.0572  0.8101
 1717TIP3    H226711   6.014   6.421   8.063 -0.8596 -1.4624  0.9744
 1718TIP3   OH226712   3.279   6.719   6.905  0.0749 -0.0982  0.9926
 1718TIP3    H126713   3.368   6.754   6.906 -0.7500  2.1601  0.4582
 1718TIP3    H226714   3.284   6.641   6.850  1.5231  0.5484  0.1751
 1719TIP3   OH226715   1.261   2.308   0.311 -0.2291  0.4791  0.0262
 1719TIP3    H126716   1.215   2.234   0.271  0.5639 -0.2189  0.3693
 1719TIP3    H226717   1.341   2.269   0.346  1.7402  2.0208 -2.4907
 1720TIP3   OH226718   5.324   2.482   8.574  0.0027 -0.1918 -0.1873
 1720TIP3    H126719   5.308   2.414   8.508  2.6619  0.8633 -2.0758
 1720TIP3    H226720   5.316   2.564   8.526  0.6168  0.6831  1.1547
 1721TIP3   OH226721   0.128   1.151   8.737 -0.8648  0.5893  0.4969
 1721TIP3    H126722   0.183   1.108   8.803 -1.7100  1.0300  1.5124
 1721TIP3    H226723   0.084   1.222   8.785 -0.6931  1.5968 -0.7823
 1722TIP3   OH226724   6.589   2.374   0.434  0.2437  0.3850 -0.2378
 1722TIP3    H126725   6.633   2.371   0.518 -0.4147 -1.2415  0.0869
 1722TIP3    H226726   6.498   2.395   0.455 -0.4386 -2.2807 -0.2651
 1723TIP3   OH226727   6.306   4.912   1.151 -0.1834 -0.0993  0.4860
 1723TIP3    H126728   6.351   4.890   1.069  0.6764 -0.8128  1.1262
 1723TIP3    H226729   6.333   5.003   1.168 -1.1186  0.3796 -0.4849
 1724TIP3   OH226730   5.190   6.475   2.201 -0.3717 -0.3852 -0.3551
 1724TIP3    H126731   5.240   6.465   2.282  0.5398 -0.5274 -0.9232
 1724TIP3    H226732   5.099   6.470   2.229 -0.0998 -3.0080  0.3929
 1725TIP3   OH226733   2.055   3.235   0.030 -0.1440 -0.1961 -0.4723
 1725TIP3    H126734   2.125   3.285  -0.010  1.3480 -2.2927 -0.6760
 1725TIP3    H226735   2.100   3.169   0.083 -1.9986 -0.4634  0.8873
 1726TIP3   OH226736   5.946   5.554   7.965  0.2132  0.1781 -0.8556
 1726TIP3    H126737   5.927   5.520   7.878  2.6797  2.2313 -2.3282
 1726TIP3    H226738   5.861   5.585   7.998 -0.6960 -0.2240 -2.6928
 1727TIP3   OH226739   3.127   0.921   1.032  0.0563  0.1457 -0.2735
 1727TIP3    H126740   3.036   0.904   1.055  1.0324 -2.4386  2.2948
 1727TIP3    H226741   3.162   0.972   1.105  1.1496 -0.7265 -0.1507
 1728TIP3   OH226742   1.555   5.886   2.669  0.3319  0.5743  0.2205
 1728TIP3    H126743   1.623   5.945   2.701  0.8235  0.2756 -0.2489
 1728TIP3    H226744   1.473   5.934   2.683  0.6174  0.8708  0.9418
 1729TIP3   OH226745   5.203   6.367   7.787  0.1541 -0.7299  0.0532
 1729TIP3    H126746   5.224   6.377   7.694 -0.1309 -0.2833  0.0338
 1729TIP3    H226747   5.267   6.421   7.832  1.7229 -2.6547  0.2858
 1730TIP3   OH226748   0.074   6.201   6.890  0.3437 -0.0669  0.1353
 1730TIP3    H126749   0.033   6.279   6.852  0.1843 -0.0694  0.3024
 1730TIP3    H226750   0.103   6.150   6.814  1.0931  0.4923  0.0255
 1731TIP3   OH226751   1.143   0.325   0.050 -0.5903 -0.7898 -0.4831
 1731TIP3    H126752   1.057   0.357   0.020 -0.2485  0.1614 -0.4719
 1731TIP3    H226753   1.137   0.230   0.040 -0.7052 -0.5916 -3.0750
 1732TIP3   OH226754   3.745   4.786   0.058  0.2295 -0.0249 -0.3915
 1732TIP3    H126755   3.817   4.724   0.050  0.8902  0.7021 -0.1666
 1732TIP3    H226756   3.666   4.733   0.043  0.8280 -0.7363 -1.0847
 1733TIP3   OH226757   1.753   5.690   8.385  0.5456 -0.1071  0.0538
 1733TIP3    H126758   1.727   5.615   8.439 -2.0329  0.6843  0.0334
 1733TIP3    H226759   1.712   5.765   8.426  0.0954  0.7933 -1.9187
 1734TIP3   OH226760   4.511   5.552   0.188  0.1695  0.1787 -0.0738
 1734TIP3    H126761   4.453   5.580   0.118 -0.3371  1.6962  0.8931
 1734TIP3    H226762   4.559   5.479   0.152 -1.5609 -0.4236 -1.2925
 1735TIP3   OH226763   3.481   3.537   7.659  0.6344  0.3316  0.1556
 1735TIP3    H126764   3.448   3.459   7.615  2.1575  0.5375 -1.4871
 1735TIP3    H226765   3.414   3.559   7.723 -0.2455 -1.7977  0.0449
 1736TIP3   OH226766   1.235   4.779   7.127 -0.0509  0.0562  0.4411
 1736TIP3    H126767   1.258   4.870   7.107 -0.7219  0.1916  0.2835
 1736TIP3    H226768   1.154   4.764   7.079 -2.2795  0.6667  3.7417
 1737TIP3   OH226769   1.857   6.088   7.304  0.0402 -0.3133 -1.1020
 1737TIP3    H126770   1.768   6.052   7.305  0.2543 -0.8467 -0.6236
 1737TIP3    H226771   1.867   6.129   7.390 -0.4998  1.6620 -1.9439
 1738TIP3   OH226772   4.642   0.468   2.379 -0.5788  0.0329  1.3607
 1738TIP3    H126773   4.669   0.382   2.412  1.2233  0.6022  1.4796
 1738TIP3    H226774   4.584   0.503   2.446 -0.3217 -0.5731  1.9095
 1739TIP3   OH226775   6.500   0.520   0.616  0.7298  0.5702  0.3484
 1739TIP3    H126776   6.452   0.589   0.661  1.0587  0.7392  0.4458
 1739TIP3    H226777   6.450   0.440   0.634 -1.4677  1.1944 -2.4216
 1740TIP3   OH226778   2.424   5.501   1.399 -0.3065 -0.1337  0.4566
 1740TIP3    H126779   2.352   5.465   1.349  1.1581 -2.4212 -0.1552
 1740TIP3    H226780   2.438   5.439   1.470  2.0510 -0.6455 -0.3744
 1741TIP3   OH226781   5.486   3.911   0.675 -0.0189  0.1511  0.5099
 1741TIP3    H126782   5.560   3.972   0.679 -0.9206  1.3684 -0.5954
 1741TIP3    H226783   5.448   3.925   0.588 -1.5187 -0.4622  1.0350
 1742TIP3   OH226784   0.214   6.134   0.815  0.7113 -0.0771 -0.5380
 1742TIP3    H126785   0.277   6.107   0.748 -0.5710 -0.6694 -1.5526
 1742TIP3    H226786   0.266   6.144   0.894  2.0234 -0.9065 -1.2559
 1743TIP3   OH226787   1.128   5.773   1.339  0.0340  0.0603  0.3588
 1743TIP3    H126788   1.220   5.757   1.321  0.1183  0.2412  0.6312
 1743TIP3    H226789   1.083   5.752   1.256  0.4995  1.7001 -0.3549
 1744TIP3   OH226790   6.411   3.991   0.694  0.6098 -0.5462  0.0038
 1744TIP3    H126791   6.383   3.925   0.631 -0.8727  0.0373  0.0239
 1744TIP3    H226792   6.335   4.047   0.706  1.6959  0.9223  0.3260
 1745TIP3   OH226793   1.657   0.408   0.320 -0.0875 -0.2071  0.2715
 1745TIP3    H126794   1.621   0.327   0.355  0.3407 -0.7323 -0.4691
 1745TIP3    H226795   1.647   0.400   0.225  2.5135 -0.6738 -0.0292
 1746TIP3   OH226796   4.579   6.139   1.624 -0.5270  0.3709  0.0452
 1746TIP3    H126797   4.558   6.112   1.534 -0.4398 -0.0893  0.1628
 1746TIP3    H226798   4.644   6.209   1.612 -2.2600  1.9824 -0.3256
 1747TIP3   OH226799   5.301   6.430   0.179  0.4725 -0.1012 -0.0131
 1747TIP3    H126800   5.324   6.499   0.241 -0.3068  0.1669 -0.0131
 1747TIP3    H226801   5.372   6.431   0.115  0.0732  1.2798 -0.4822
 1748TIP3   OH226802   3.401   4.406   1.946  0.0700 -0.2090 -0.1192
 1748TIP3    H126803   3.487   4.398   1.988 -0.1569  0.7983  0.5467
 1748TIP3    H226804   3.417   4.377   1.856  1.6300  2.0274 -0.6369
 1749TIP3   OH226805   4.415   2.575   7.476  0.0455  0.0030  0.1621
 1749TIP3    H126806   4.409   2.597   7.383 -0.6722 -0.6796  0.0309
 1749TIP3    H226807   4.486   2.629   7.510 -0.2375  0.8720 -0.6008
 1750TIP3   OH226808   5.689   2.001   1.347  0.3932 -0.2528  0.9085
 1750TIP3    H126809   5.689   2.035   1.258  0.6918 -2.3560  0.0472
 1750TIP3    H226810   5.777   2.020   1.380 -0.0969  1.6184  1.2491
 1751TIP3   OH226811   4.512   3.777   2.250  0.3653 -0.9691  0.0852
 1751TIP3    H126812   4.583   3.715   2.236  0.5186 -0.7119 -0.2729
 1751TIP3    H226813   4.457   3.769   2.172  0.5214 -0.4735 -0.0745
 1752TIP3   OH226814   0.474   3.863   6.321  0.0912  0.2610  0.2984
 1752TIP3    H126815   0.379   3.871   6.327  0.2095  0.6860  2.0761
 1752TIP3    H226816   0.498   3.923   6.250 -0.9609  0.1390 -0.1763
 1753TIP3   OH226817   5.610   2.511   1.435  0.2475 -0.6792 -0.2344
 1753TIP3    H126818   5.634   2.594   1.476 -1.1883  0.7738 -2.0723
 1753TIP3    H226819   5.625   2.445   1.502  0.8125  1.1489  1.5480
 1754TIP3   OH226820   1.085   2.360   6.840 -0.2839  0.4681 -0.0292
 1754TIP3    H126821   1.057   2.295   6.775 -0.9051 -0.0966  0.7855
 1754TIP3    H226822   1.084   2.443   6.793 -1.0495  0.1186 -0.6527
 1755TIP3   OH226823   0.673   6.744   0.310  0.3574  1.1939  0.4577
 1755TIP3    H126824   0.714   6.830   0.321  0.5009  1.0294  1.2884
 1755TIP3    H226825   0.611   6.756   0.239  0.6826  1.8747  0.2759
 1756TIP3   OH226826   3.549   4.715   8.175  0.4530 -0.0559 -0.1681
 1756TIP3    H126827   3.626   4.670   8.210  0.3467  0.5980  0.9678
 1756TIP3    H226828   3.503   4.747   8.253 -1.1007 -0.6247 -0.8177
 1757TIP3   OH226829   3.378   6.425   8.667 -0.5140  0.1731 -0.0949
 1757TIP3    H126830   3.456   6.453   8.716 -0.3871 -0.5529  0.1384
 1757TIP3    H226831   3.327   6.375   8.731  0.1059 -1.6099 -0.9187
 1758TIP3   OH226832   0.348   3.184   1.838  0.1950 -0.5454  0.2667
 1758TIP3    H126833   0.281   3.182   1.907  2.3881  0.0281  2.5892
 1758TIP3    H226834   0.321   3.256   1.781 -0.8657  0.0760  1.4724
 1759TIP3   OH226835   5.575   0.181   0.926 -0.6037  0.4475  0.1523
 1759TIP3    H126836   5.481   0.183   0.942 -0.2551  0.0265  2.7486
 1759TIP3    H226837   5.590   0.095   0.885 -1.4430  1.0150 -1.4245
 1760TIP3   OH226838   0.074   6.772   8.540  0.2094 -1.0997 -0.1029
 1760TIP3    H126839   0.130   6.827   8.595  0.3417  0.0637 -1.3344
 1760TIP3    H226840   0.001   6.749   8.596 -0.1946  0.9296  0.2847
 1761TIP3   OH226841   4.240   6.431   8.462  0.2358 -0.6958  0.3260
 1761TIP3    H126842   4.270   6.363   8.402  0.5722  1.6041 -2.3591
 1761TIP3    H226843   4.295   6.507   8.442 -2.7362  1.6057  0.1415
 1762TIP3   OH226844   6.149   1.614   8.715 -0.2927 -0.1549 -0.7156
 1762TIP3    H126845   6.151   1.658   8.800  0.2011 -2.0575  0.3167
 1762TIP3    H226846   6.234   1.570   8.708 -1.6340 -2.9450 -0.5332
 1763TIP3   OH226847   6.533   6.739   6.832  0.1273  0.5786  0.0919
 1763TIP3    H126848   6.508   6.798   6.760  0.9757  0.7660 -0.0644
 1763TIP3    H226849   6.629   6.738   6.829  0.1435 -0.0683  0.6992
 1764TIP3   OH226850   3.775   3.254   1.567 -0.5132 -0.6996 -0.3979
 1764TIP3    H126851   3.684   3.265   1.539 -0.7461 -1.0760  0.1823
 1764TIP3    H226852   3.769   3.239   1.662  0.2694  0.7992 -0.0891
 1765TIP3   OH226853   6.122   3.128   6.960  0.1241  0.4285 -0.0119
 1765TIP3    H126854   6.162   3.171   6.885  1.5869  2.0673  1.6101
 1765TIP3    H226855   6.091   3.044   6.926  3.6554 -0.3577 -1.7785
 1766TIP3   OH226856   2.157   2.161   7.637 -0.1416  0.4027 -0.2123
 1766TIP3    H126857   2.078   2.176   7.689  1.0793  1.5279  1.3986
 1766TIP3    H226858   2.142   2.076   7.595 -1.5780 -0.1091  1.2267
 1767TIP3   OH226859   4.249   5.953   1.422  0.1132  0.0668 -0.6832
 1767TIP3    H126860   4.227   5.889   1.354  0.8613  0.2349 -1.1005
 1767TIP3    H226861   4.189   6.026   1.407 -1.1544 -0.7484  0.1650
 1768TIP3   OH226862   4.270   1.890   8.718  0.0030  0.3671 -0.5230
 1768TIP3    H126863   4.325   1.965   8.696  1.5079 -0.5744 -0.0733
 1768TIP3    H226864   4.240   1.907   8.808  0.9057  0.1190 -0.1682
 1769TIP3   OH226865   3.374   0.765   7.929  0.5331  0.1832  0.2295
 1769TIP3    H126866   3.432   0.699   7.894 -2.4465 -1.9558 -1.0731
 1769TIP3    H226867   3.310   0.716   7.981 -2.0605  1.9016 -1.1390
 1770TIP3   OH226868   2.143   3.123   8.478  0.1165  0.6790 -0.0849
 1770TIP3    H126869   2.135   3.210   8.440  0.6580  0.4905 -0.6302
 1770TIP3    H226870   2.126   3.063   8.406  0.9117  0.3229  0.0169
 1771TIP3   OH226871   1.327   3.413   1.106  0.8116 -0.1808  0.2775
 1771TIP3    H126872   1.260   3.480   1.120  0.8393 -0.3685  1.3852
 1771TIP3    H226873   1.390   3.454   1.047  1.3286  1.1417  1.6787
 1772TIP3   OH226874   4.878   0.237   7.080 -0.4094  0.2601 -0.3088
 1772TIP3    H126875   4.857   0.151   7.114 -0.5305  1.5028  3.1331
 1772TIP3    H226876   4.792   0.276   7.060 -0.4040 -0.0809 -1.0173
 1773TIP3   OH226877   3.126   1.492   8.553 -0.1802  0.1616 -0.7910
 1773TIP3    H126878   3.057   1.558   8.561  1.7436  2.7846 -3.5446
 1773TIP3    H226879   3.204   1.534   8.588  0.6229 -1.7629 -0.1093
 1774TIP3   OH226880   4.383   1.446   7.686 -0.4266 -0.0323  0.4715
 1774TIP3    H126881   4.320   1.374   7.679 -0.0674 -0.5306  2.0327
 1774TIP3    H226882   4.430   1.429   7.768  2.0297  0.1073 -0.8353
 1775TIP3   OH226883   2.295   2.205   8.453 -0.0173  0.2466 -0.1219
 1775TIP3    H126884   2.262   2.232   8.538 -1.6494 -1.2506 -0.2369
 1775TIP3    H226885   2.388   2.188   8.468 -0.3890 -0.5340  1.5114
 1776TIP3   OH226886   4.252   2.850   0.641  0.3343 -0.3519 -0.1887
 1776TIP3    H126887   4.242   2.767   0.687 -0.1107  0.1839  0.6938
 1776TIP3    H226888   4.173   2.858   0.588 -0.0995 -0.0265  0.4934
 1777TIP3   OH226889   2.377   5.895   7.499 -0.0639  0.5908 -0.4858
 1777TIP3    H126890   2.457   5.853   7.529 -1.0107 -0.4604  0.6805
 1777TIP3    H226891   2.402   5.986   7.482  0.8460  0.9172  2.2075
 1778TIP3   OH226892   4.590   3.285   2.214  0.2245 -0.0652 -0.0329
 1778TIP3    H126893   4.626   3.225   2.278  0.0291 -0.3169 -0.1546
 1778TIP3    H226894   4.495   3.282   2.229  0.1052 -0.7424 -0.8561
 1779TIP3   OH226895   4.795   1.062   0.553  0.4269  0.0337 -0.2224
 1779TIP3    H126896   4.873   1.087   0.503 -0.0612  1.3921 -0.3243
 1779TIP3    H226897   4.725   1.059   0.489  0.3878 -1.2721 -0.1426
 1780TIP3   OH226898   5.535   4.744   7.188  0.0852 -0.2442  0.1934
 1780TIP3    H126899   5.631   4.752   7.190  0.1682 -1.1692  1.5125
 1780TIP3    H226900   5.504   4.835   7.181  1.0543  0.1061  0.2257
 1781TIP3   OH226901   3.603   0.420   8.741  0.1292 -0.2107 -0.0311
 1781TIP3    H126902   3.599   0.333   8.702 -0.6291 -0.4952  0.6526
 1781TIP3    H226903   3.595   0.480   8.667 -1.0123 -0.7383 -0.3582
 1782TIP3   OH226904   4.741   0.262   7.950  0.2333  0.1861  0.6197
 1782TIP3    H126905   4.753   0.331   7.884 -0.5574  0.6764  0.9697
 1782TIP3    H226906   4.677   0.202   7.911  0.6751 -0.1808  0.4507
 1783TIP3   OH226907   0.050   0.610   0.090 -0.3518  0.1512 -0.3687
 1783TIP3    H126908   0.036   0.671   0.018 -0.4991  0.8898  0.2711
 1783TIP3    H226909  -0.036   0.599   0.130 -0.1945  0.0732 -0.0475
 1784TIP3   OH226910   4.885   0.171   6.643  0.2066 -0.5655 -0.5293
 1784TIP3    H126911   4.897   0.235   6.573  0.7599 -0.1530 -0.0671
 1784TIP3    H226912   4.914   0.089   6.605 -1.1582 -0.6950 -1.3581
 1785TIP3   OH226913   2.730   1.978   0.014 -0.2730 -0.3476  0.0048
 1785TIP3    H126914   2.693   1.901   0.057 -0.2909 -0.0680  0.5087
 1785TIP3    H226915   2.805   1.944  -0.035 -0.1875 -0.6661  0.3459
 1786TIP3   OH226916   6.424   2.153   7.129  0.2322  0.0113 -0.1913
 1786TIP3    H126917   6.426   2.237   7.174 -3.1760  0.5543 -0.7380
 1786TIP3    H226918   6.384   2.093   7.193  2.0870 -1.1151 -0.0118
 1787TIP3   OH226919   3.185   1.767   8.841  0.3548  0.3845 -0.0311
 1787TIP3    H126920   3.191   1.672   8.831 -1.8358  0.3894 -2.3558
 1787TIP3    H226921   3.264   1.800   8.798  0.6915 -0.3566  0.0029
 1788TIP3   OH226922   6.361   0.247   7.663  0.2542 -0.1081 -0.3935
 1788TIP3    H126923   6.429   0.302   7.623  0.6264 -0.9653 -0.9689
 1788TIP3    H226924   6.306   0.220   7.589 -1.6711  1.8126  0.2431
 1789TIP3   OH226925   3.493   4.911   0.233 -0.1952  0.5079 -0.5346
 1789TIP3    H126926   3.550   4.982   0.261  1.8281 -0.1998 -2.5065
 1789TIP3    H226927   3.513   4.839   0.292  0.5312  0.4692 -0.8118
 1790TIP3   OH226928   5.742   4.036   7.241 -0.5112 -0.1475  0.2354
 1790TIP3    H126929   5.783   3.951   7.229 -0.6882 -0.0705 -0.9880
 1790TIP3    H226930   5.671   4.038   7.177  0.4513  1.5245 -0.8461
 1791TIP3   OH226931   4.507   1.525   0.330 -0.4654 -0.1520 -0.4596
 1791TIP3    H126932   4.491   1.462   0.260  0.4526 -0.3517 -0.4978
 1791TIP3    H226933   4.513   1.472   0.409  0.4344 -0.1324 -0.5103
 1792TIP3   OH226934   5.460   1.522   6.987  0.2611  0.2201  0.4127
 1792TIP3    H126935   5.445   1.435   6.949  0.5724  0.7005 -0.8760
 1792TIP3    H226936   5.405   1.524   7.065 -0.7376 -0.6764 -0.2387
 1793TIP3   OH226937   0.360   0.571   1.994 -0.0556  0.0860  0.5173
 1793TIP3    H126938   0.287   0.626   1.966  0.7692  1.3774  0.8143
 1793TIP3    H226939   0.319   0.488   2.020 -1.4765  0.9476  1.1602
 1794TIP3   OH226940   2.179   4.106   7.178  0.0125  0.2192 -0.9716
 1794TIP3    H126941   2.087   4.106   7.152 -0.0750 -0.7963 -0.6853
 1794TIP3    H226942   2.226   4.081   7.098  0.0346  0.5627 -1.0699
 1795TIP3   OH226943   0.244   6.355   8.704 -0.0513  0.3829  0.3065
 1795TIP3    H126944   0.285   6.275   8.670 -1.2103 -0.0030 -0.2693
 1795TIP3    H226945   0.173   6.373   8.641 -0.7348  1.0244  1.2411
 1796TIP3   OH226946   1.202   4.287   6.756 -0.0050 -0.0668  0.4041
 1796TIP3    H126947   1.292   4.262   6.738 -0.1110  1.0692 -2.0789
 1796TIP3    H226948   1.203   4.383   6.755 -0.9645 -0.0056  2.0469
 1797TIP3   OH226949   1.654   0.750   8.587 -0.2825  0.8046  0.3695
 1797TIP3    H126950   1.707   0.821   8.624 -0.1895  1.0269 -0.1869
 1797TIP3    H226951   1.589   0.732   8.655  0.0244  1.0570  0.7383
 1798TIP3   OH226952   5.600   1.766   6.744  0.1993  0.0359 -0.3107
 1798TIP3    H126953   5.635   1.677   6.749 -0.5880 -0.3259 -0.9596
 1798TIP3    H226954   5.507   1.756   6.766  0.8556  1.3204  4.0086
 1799TIP3   OH226955   2.251   4.093   0.210  0.5128  0.0018 -0.2646
 1799TIP3    H126956   2.240   4.066   0.119 -0.9912  0.3189 -0.1971
 1799TIP3    H226957   2.286   4.015   0.253 -1.9675 -1.3197 -0.4553
 1800TIP3   OH226958   2.103   4.227   0.872 -0.1462  0.2607 -0.0200
 1800TIP3    H126959   2.113   4.265   0.785 -2.5429 -0.4954 -0.6719
 1800TIP3    H226960   2.058   4.295   0.922 -0.0650  0.1395  0.2191
 1801TIP3   OH226961   6.564   3.198   0.297 -0.3287 -0.0475  0.7045
 1801TIP3    H126962   6.487   3.185   0.352 -0.1934 -2.2587  0.4521
 1801TIP3    H226963   6.585   3.111   0.264  0.8083  0.8927 -1.2370
 1802TIP3   OH226964   1.591   0.213   1.877 -0.2414 -0.1652 -0.1168
 1802TIP3    H126965   1.681   0.200   1.905 -0.2222  0.7776  0.2971
 1802TIP3    H226966   1.568   0.301   1.909 -1.0883 -0.1338 -0.7707
 1803TIP3   OH226967   0.609   6.692   0.919 -0.1886  0.0014 -0.5330
 1803TIP3    H126968   0.635   6.670   0.830 -2.5146 -1.6896 -0.8914
 1803TIP3    H226969   0.681   6.745   0.953  0.5677  1.1200 -3.5651
 1804TIP3   OH226970   3.210   1.095   7.433  0.0825  0.5269 -0.1090
 1804TIP3    H126971   3.253   1.010   7.441 -1.8472 -0.4364  0.8006
 1804TIP3    H226972   3.243   1.145   7.507  0.1066  0.0332  0.2193
 1805TIP3   OH226973   4.499   3.293   8.185 -0.2895 -0.0330  0.1738
 1805TIP3    H126974   4.574   3.326   8.135 -1.3126  1.5810 -0.3493
 1805TIP3    H226975   4.443   3.251   8.119 -0.6562  0.2675  0.2912
 1806TIP3   OH226976   4.817   6.043   1.818  0.2447 -0.4953 -0.7137
 1806TIP3    H126977   4.894   6.069   1.868 -0.1490 -0.0696 -0.3186
 1806TIP3    H226978   4.781   5.968   1.866 -1.2189  1.0760  0.7679
 1807TIP3   OH226979   0.468   6.488   1.155 -0.9204 -0.1815 -0.1184
 1807TIP3    H126980   0.550   6.516   1.114 -1.6683  1.0399 -0.8474
 1807TIP3    H226981   0.423   6.436   1.088 -0.5146 -1.3226  0.4725
 1808TIP3   OH226982   4.725   0.810   8.199  0.2860 -0.4455 -0.0023
 1808TIP3    H126983   4.782   0.835   8.272  1.4201 -0.3965 -0.8680
 1808TIP3    H226984   4.636   0.819   8.234  0.7796  0.1939  1.1691
 1809TIP3   OH226985   0.799   0.364   1.504 -0.8693 -0.3569 -0.6833
 1809TIP3    H126986   0.821   0.447   1.463  1.8670  0.1307  1.4652
 1809TIP3    H226987   0.763   0.388   1.590  1.6532 -1.2324  0.7442
 1810TIP3   OH226988   0.032   3.447   1.315  0.1819  0.4830 -0.2543
 1810TIP3    H126989   0.009   3.499   1.392 -0.4480 -1.0767  0.6578
 1810TIP3    H226990   0.101   3.389   1.345  0.6077  0.5031 -1.1556
 1811TIP3   OH226991   5.410   0.042   7.278  0.0409 -0.0027 -0.1493
 1811TIP3    H126992   5.341   0.056   7.213 -0.9856 -0.1285  0.8754
 1811TIP3    H226993   5.416  -0.053   7.286 -0.7622  0.0229  0.8739
 1812TIP3   OH226994   5.833   5.868   6.507 -0.3800 -0.4783  0.5641
 1812TIP3    H126995   5.786   5.875   6.591 -0.0217  1.0550  0.6737
 1812TIP3    H226996   5.823   5.777   6.482 -3.7037 -0.2166  0.4132
 1813TIP3   OH226997   0.867   1.463   8.045  0.0222 -0.5088  0.1554
 1813TIP3    H126998   0.944   1.519   8.046 -0.1787 -0.2248  0.0979
 1813TIP3    H226999   0.899   1.378   8.017  0.0237  0.0673 -1.7464
 1814TIP3   OH227000   4.787   6.593   8.044  0.5637 -0.1323 -0.4902
 1814TIP3    H127001   4.813   6.567   7.956 -1.5441 -0.4756 -1.0579
 1814TIP3    H227002   4.830   6.530   8.102  3.6175  1.2690 -1.0092
 1815TIP3   OH227003   2.295   3.420   1.049 -0.2536  0.2714 -0.2051
 1815TIP3    H127004   2.320   3.406   1.141  1.2698  3.3999 -0.0036
 1815TIP3    H227005   2.224   3.483   1.053 -1.2278 -0.7294 -1.1849
 1816TIP3   OH227006   6.469   6.484   8.052 -0.2569  0.1615  0.0774
 1816TIP3    H127007   6.398   6.423   8.074  2.1422 -2.3584  1.4307
 1816TIP3    H227008   6.536   6.430   8.012  1.9548  1.9317  1.1487
 1817TIP3   OH227009   4.577   3.332   0.084  0.6668 -0.7236 -0.4603
 1817TIP3    H127010   4.593   3.426   0.094 -0.5271 -0.4982 -0.5045
 1817TIP3    H227011   4.663   3.295   0.065  1.8697 -0.1474  3.0782
 1818TIP3   OH227012   6.563   2.255   6.666  0.1474 -0.5593  0.2311
 1818TIP3    H127013   6.619   2.330   6.684  0.1825 -0.8735  1.4916
 1818TIP3    H227014   6.605   2.181   6.710 -0.8400 -0.9561  0.5449
 1819TIP3   OH227015   4.470   1.126   0.700 -0.3692 -0.0082  0.3466
 1819TIP3    H127016   4.533   1.059   0.673 -1.5439 -0.3514 -1.7303
 1819TIP3    H227017   4.494   1.146   0.791  2.1036 -0.7898 -0.0743
 1820TIP3   OH227018   0.284   0.125   1.253 -0.2686  0.4745 -0.6082
 1820TIP3    H127019   0.216   0.141   1.187  0.0057 -0.3994 -1.1179
 1820TIP3    H227020   0.340   0.058   1.214 -1.9805 -2.6537  1.8302
 1821TIP3   OH227021   4.129   5.574   0.289  0.2869 -0.4832 -0.0276
 1821TIP3    H127022   4.186   5.611   0.357 -2.3438  0.3294  1.9078
 1821TIP3    H227023   4.104   5.488   0.323 -0.8525 -0.1738 -0.0392
 1822TIP3   OH227024   4.166   3.189   1.425 -0.2461  1.0657 -0.1701
 1822TIP3    H127025   4.159   3.248   1.349  1.0800 -0.4690 -1.5501
 1822TIP3    H227026   4.136   3.104   1.392  2.4236 -0.1663  0.3258
 1823TIP3   OH227027   4.104   4.441   7.455 -0.3605  0.1279 -0.5068
 1823TIP3    H127028   4.128   4.527   7.490  1.1023 -0.9973  1.4646
 1823TIP3    H227029   4.025   4.417   7.504  0.9624 -0.8974  1.2318
 1824TIP3   OH227030   2.043   4.300   8.862 -0.2246  0.4654 -0.3766
 1824TIP3    H127031   2.025   4.271   8.951  0.6569  1.3969  0.1121
 1824TIP3    H227032   1.956   4.319   8.825 -0.5305  1.1935  0.6760
 1825TIP3   OH227033   1.262   2.866   7.440  0.1699  0.6015 -0.8231
 1825TIP3    H127034   1.267   2.891   7.347  0.9757  1.9799 -0.4363
 1825TIP3    H227035   1.332   2.801   7.450 -0.6222 -0.3717 -1.3980
 1826TIP3   OH227036   2.876   3.960   8.313  0.3444 -0.8685 -0.6556
 1826TIP3    H127037   2.866   3.960   8.408  1.3671 -0.7940 -0.5310
 1826TIP3    H227038   2.797   4.003   8.280  0.1116 -0.6494  0.1750
 1827TIP3   OH227039   5.093   1.449   8.836 -0.4050  0.1550  0.0784
 1827TIP3    H127040   5.098   1.500   8.917  0.4900  0.8656 -0.4098
 1827TIP3    H227041   5.014   1.481   8.792 -1.8643 -1.4099  1.4181
 1828TIP3   OH227042   6.000   4.154   0.981  0.3840 -0.0848 -0.5514
 1828TIP3    H127043   6.003   4.211   0.904  1.5491  0.8024  0.1148
 1828TIP3    H227044   6.074   4.183   1.035  0.8369 -2.0509 -0.0455
 1829TIP3   OH227045   2.926   4.992   1.780 -0.4178 -0.5003 -0.2491
 1829TIP3    H127046   2.991   4.985   1.850 -0.4882 -1.2732 -0.2555
 1829TIP3    H227047   2.850   5.033   1.821  0.0732  0.4332 -0.2464
 1830TIP3   OH227048   0.377   5.336   1.049 -0.1016  0.3616  0.0697
 1830TIP3    H127049   0.342   5.264   1.101 -2.0642  1.3342  0.1589
 1830TIP3    H227050   0.441   5.295   0.991 -0.0435 -1.1924  1.1920
 1831TIP3   OH227051   0.654   5.850   0.617 -0.2645 -0.4357  0.2748
 1831TIP3    H127052   0.596   5.847   0.541  1.9258 -3.4402 -1.5376
 1831TIP3    H227053   0.716   5.921   0.596 -0.3590 -0.4839 -0.1893
 1832TIP3   OH227054   5.269   3.029   2.039  0.4939 -0.1301 -0.2318
 1832TIP3    H127055   5.198   2.997   2.094  1.3178 -1.0754  0.3044
 1832TIP3    H227056   5.241   3.117   2.013 -0.8579 -0.4708 -0.0279
 1833TIP3   OH227057   4.127   1.732   8.563 -0.3701  0.2211 -0.6846
 1833TIP3    H127058   4.182   1.796   8.608  0.1256  0.6499 -1.8837
 1833TIP3    H227059   4.186   1.660   8.542 -0.5291  0.1602 -0.9215
 1834TIP3   OH227060   0.370   1.980   0.981  0.3804  0.1458 -0.0326
 1834TIP3    H127061   0.388   2.074   0.980 -0.6325  0.3614  0.3254
 1834TIP3    H227062   0.318   1.965   0.903 -1.4187  0.3348  1.0608
 1835TIP3   OH227063   1.724   5.341   2.078  0.2789 -0.4206  0.1072
 1835TIP3    H127064   1.631   5.356   2.096  1.0361  1.6021  2.9183
 1835TIP3    H227065   1.750   5.274   2.141  0.8451 -0.6890 -0.3977
 1836TIP3   OH227066   6.555   4.759   0.642 -0.2185  0.0673  0.1321
 1836TIP3    H127067   6.582   4.804   0.722 -1.5335 -0.6141  0.9907
 1836TIP3    H227068   6.560   4.826   0.574  1.8988  0.4001  0.5579
 1837TIP3   OH227069   4.589   0.690   7.679 -0.2808 -0.5420  0.6823
 1837TIP3    H127070   4.512   0.655   7.724 -1.9247  1.7873 -0.1053
 1837TIP3    H227071   4.590   0.783   7.702  1.3161 -0.1708 -0.6850
 1838TIP3   OH227072   5.067   1.652   8.549  0.0035 -0.0103  0.0989
 1838TIP3    H127073   5.040   1.635   8.639 -0.8181 -0.4664 -0.2291
 1838TIP3    H227074   5.070   1.748   8.542 -2.0602  0.0770  0.0009
 1839TIP3   OH227075   3.864   0.666   7.853  0.2666 -0.4574 -0.6305
 1839TIP3    H127076   3.815   0.746   7.874 -0.1688 -0.7372 -0.5832
 1839TIP3    H227077   3.806   0.616   7.797  0.0192 -1.3415  0.3888
 1840TIP3   OH227078   4.249   5.027   1.826  0.8773 -0.0681 -0.3755
 1840TIP3    H127079   4.263   5.014   1.919  0.1372 -0.5737 -0.3263
 1840TIP3    H227080   4.226   5.120   1.817  2.0612  0.2620 -0.2107
 1841TIP3   OH227081   1.434   5.323   2.087 -0.5261 -0.4428  0.5185
 1841TIP3    H127082   1.424   5.276   2.004 -0.5687 -0.3180  0.4534
 1841TIP3    H227083   1.372   5.395   2.082 -1.3172 -1.0636  1.1158
 1842TIP3   OH227084   2.275   2.882   7.068 -0.4853 -0.2853  0.4201
 1842TIP3    H127085   2.307   2.966   7.101 -1.6042  0.9907 -1.4949
 1842TIP3    H227086   2.268   2.826   7.145  2.8579  0.4573  1.4130
 1843TIP3   OH227087   6.305   6.080   0.459 -0.2540 -0.1923  0.3750
 1843TIP3    H127088   6.381   6.032   0.489 -0.2631  0.1178  0.9072
 1843TIP3    H227089   6.254   6.097   0.538 -1.2893 -1.0896 -0.0696
 1844TIP3   OH227090   3.949   0.105   1.408  0.5615 -0.3079  0.1345
 1844TIP3    H127091   3.881   0.160   1.370 -0.9521 -2.6177 -0.7288
 1844TIP3    H227092   3.923   0.094   1.500 -0.2556 -1.1621 -0.1869
 1845TIP3   OH227093   6.567   5.789   0.717  0.1504  0.6099  0.6594
 1845TIP3    H127094   6.562   5.876   0.677  1.5403 -0.1772 -1.3558
 1845TIP3    H227095   6.653   5.787   0.758 -0.1605  0.4032  1.3162
 1846TIP3   OH227096   1.231   2.206   1.605 -0.0950  0.1732 -0.5430
 1846TIP3    H127097   1.211   2.240   1.518 -0.6057  1.8366  0.1916
 1846TIP3    H227098   1.230   2.283   1.662  0.0380 -0.9056  0.9754
 1847TIP3   OH227099   0.302   1.222   8.524  0.0681 -0.2672 -0.2996
 1847TIP3    H127100   0.244   1.191   8.593 -0.3352 -0.4126 -0.6938
 1847TIP3    H227101   0.276   1.171   8.447 -0.2203  0.6460 -0.8187
 1848TIP3   OH227102   5.321   4.145   7.708 -0.4153  0.7700  0.2335
 1848TIP3    H127103   5.396   4.093   7.677 -2.2937 -1.5879 -0.6392
 1848TIP3    H227104   5.324   4.225   7.656  0.3129 -0.2149 -1.3049
 1849TIP3   OH227105   1.723   3.014   0.009 -0.1050 -0.3643 -0.8091
 1849TIP3    H127106   1.805   2.998   0.057 -0.4106 -1.4717 -0.6322
 1849TIP3    H227107   1.682   3.087   0.056  0.2296 -0.5626 -0.1958
 1850TIP3   OH227108   4.638   1.504   2.005  0.0465  0.3343  0.1790
 1850TIP3    H127109   4.628   1.421   1.958  0.8844  0.4250 -0.1781
 1850TIP3    H227110   4.637   1.571   1.937 -1.5781  0.7082  0.5518
 1851TIP3   OH227111   6.700   6.319   1.470 -0.1077 -0.0548  0.0733
 1851TIP3    H127112   6.762   6.376   1.425  0.6244  1.5124  2.8289
 1851TIP3    H227113   6.749   6.237   1.484  0.0372 -0.1504 -0.9314
 1852TIP3   OH227114   4.008   1.675   1.832  0.2611 -0.0117 -0.5042
 1852TIP3    H127115   4.098   1.704   1.817 -0.2684  1.8741 -0.3452
 1852TIP3    H227116   4.005   1.650   1.924  0.1402  2.0827  0.1153
 1853TIP3   OH227117   2.363   4.046   6.945  0.1505 -0.2579 -0.3055
 1853TIP3    H127118   2.301   4.061   6.873 -0.2690  0.5063  0.2030
 1853TIP3    H227119   2.442   4.091   6.917  0.2229 -0.5664 -0.6048
 1854TIP3   OH227120   3.851   4.357   7.574  0.6747  0.3089 -0.1254
 1854TIP3    H127121   3.772   4.411   7.566 -1.1326 -2.3091 -1.5448
 1854TIP3    H227122   3.859   4.339   7.667 -0.9747 -0.1157 -0.0423
 1855TIP3   OH227123   0.273   6.670   0.005  1.0065  0.1125 -0.1068
 1855TIP3    H127124   0.188   6.632  -0.011  1.0486  0.1736 -0.4942
 1855TIP3    H227125   0.269   6.756  -0.037  0.2255  1.4074  2.4062
 1856TIP3   OH227126   0.240   4.011   0.895 -0.2820  0.9398 -0.4428
 1856TIP3    H127127   0.281   3.944   0.839  0.4381 -1.5674  2.8066
 1856TIP3    H227128   0.314   4.062   0.929 -0.4219  0.4504  0.5987
 1857TIP3   OH227129   4.226   4.541   7.182 -0.0897  0.3729 -0.2918
 1857TIP3    H127130   4.155   4.605   7.186  0.2872  0.8128 -0.5549
 1857TIP3    H227131   4.202   4.474   7.246 -1.1922  0.0534 -1.0094
 1858TIP3   OH227132   2.892   1.188   8.657  0.1139 -0.3423  0.3189
 1858TIP3    H127133   2.931   1.234   8.731  2.4799 -0.8990 -0.5033
 1858TIP3    H227134   2.856   1.108   8.695 -1.6487  0.8392  1.3216
 1859TIP3   OH227135   0.348   1.886   1.397  0.1880 -0.5634 -0.5783
 1859TIP3    H127136   0.426   1.941   1.409 -0.1289 -0.1566 -0.3707
 1859TIP3    H227137   0.374   1.801   1.430  0.7726 -0.6170 -1.1446
 1860TIP3   OH227138   1.000   4.809   1.710 -0.0636  0.3071 -1.0165
 1860TIP3    H127139   1.034   4.876   1.650  0.8796  0.7476 -0.0463
 1860TIP3    H227140   0.974   4.736   1.654  0.5561  0.7977 -1.9674
 1861TIP3   OH227141   1.924   6.068   1.420 -0.1248 -0.1955  0.0225
 1861TIP3    H127142   1.841   6.024   1.436  0.6366 -1.6965  0.0342
 1861TIP3    H227143   1.985   5.997   1.399  1.1556  0.8658  0.0288
 1862TIP3   OH227144   4.410   1.349   0.131  0.6638  0.4636  0.0730
 1862TIP3    H127145   4.453   1.271   0.096  0.4898  1.0463 -1.5270
 1862TIP3    H227146   4.316   1.329   0.124  0.5926 -0.3069  2.3893
 1863TIP3   OH227147   5.136   4.315   6.490 -0.2829  0.0130  0.6279
 1863TIP3    H127148   5.157   4.338   6.400 -0.3908 -2.3989 -0.0852
 1863TIP3    H227149   5.081   4.237   6.483 -1.2134  0.3825  2.7709
 1864TIP3   OH227150   1.799   4.301   0.637 -0.0870  0.4104 -0.3237
 1864TIP3    H127151   1.826   4.334   0.722 -0.8804 -0.2570  0.2122
 1864TIP3    H227152   1.789   4.206   0.650 -0.6003  0.3515 -1.0479
 1865TIP3   OH227153   2.051   1.528   7.489 -0.3923  0.0899  0.1027
 1865TIP3    H127154   2.102   1.540   7.410 -1.5888 -0.3899 -0.7798
 1865TIP3    H227155   2.036   1.433   7.494 -1.2324  0.2216  0.2915
 1866TIP3   OH227156   1.401   0.384   8.601  0.1888  0.6710  0.2650
 1866TIP3    H127157   1.336   0.314   8.594 -1.0591  1.9554 -2.0814
 1866TIP3    H227158   1.477   0.350   8.555 -0.6925  1.0902 -1.5831
 1867TIP3   OH227159   0.685   5.951   1.582 -0.4523 -0.1567  0.2479
 1867TIP3    H127160   0.776   5.923   1.581 -0.6146 -0.7324 -1.3818
 1867TIP3    H227161   0.675   5.996   1.666  0.8691 -1.5558  1.2179
 1868TIP3   OH227162   1.247   3.559   7.461 -0.4388  0.4185 -0.5908
 1868TIP3    H127163   1.203   3.637   7.496  0.3946  1.0898 -0.9773
 1868TIP3    H227164   1.306   3.532   7.531 -0.1779  0.5984 -0.7382
 1869TIP3   OH227165   3.949   4.607   0.064  0.1329  0.0758 -0.7401
 1869TIP3    H127166   4.009   4.532   0.061  0.4985  0.3800 -1.0461
 1869TIP3    H227167   4.001   4.680   0.032  0.7272  1.1045  2.1946
 1870TIP3   OH227168   4.369   6.620   8.630 -0.0792 -0.9838  0.3835
 1870TIP3    H127169   4.401   6.687   8.691 -3.1606 -0.4088  1.5089
 1870TIP3    H227170   4.417   6.638   8.549  1.6916  0.3632  1.6483
 1871TIP3   OH227171   5.432   1.660   1.436  0.4603 -0.2912 -0.2389
 1871TIP3    H127172   5.500   1.637   1.498  0.4436  0.8705  0.2441
 1871TIP3    H227173   5.466   1.633   1.351  1.5589  0.3428 -0.0148
 1872TIP3   OH227174   5.472   4.302   0.144  0.4443 -0.4155 -0.1260
 1872TIP3    H127175   5.483   4.397   0.148  0.3303 -0.3073 -1.8046
 1872TIP3    H227176   5.540   4.272   0.084  0.7699 -1.4703  0.7397
 1873TIP3   OH227177   6.106   0.351   8.849 -0.2562 -0.2941  0.1797
 1873TIP3    H127178   6.153   0.431   8.828  0.0601 -0.6843 -0.6241
 1873TIP3    H227179   6.151   0.316   8.926  2.0498 -1.6791 -1.6856
 1874TIP3   OH227180   2.337   2.119   2.148 -0.4370 -0.6299  0.2317
 1874TIP3    H127181   2.367   2.097   2.236  0.3166 -0.4122  0.0339
 1874TIP3    H227182   2.243   2.099   2.149 -0.4601 -0.4947  1.1215
 1875TIP3   OH227183   0.852   3.978   7.582  0.9706  0.5191  0.3303
 1875TIP3    H127184   0.915   4.012   7.646  0.3232  1.5407  0.4401
 1875TIP3    H227185   0.768   3.980   7.627 -0.0663  4.1038 -1.3756
 1876TIP3   OH227186   2.866   3.990   8.600 -0.0399 -0.5190 -0.4356
 1876TIP3    H127187   2.814   3.958   8.674  1.5501  0.0777  0.9936
 1876TIP3    H227188   2.875   4.084   8.616  2.3899 -0.7669  0.0003
 1877TIP3   OH227189   4.901   5.384   7.174 -0.2487 -0.1661 -0.3168
 1877TIP3    H127190   4.981   5.354   7.130 -0.0775 -1.4838  0.8119
 1877TIP3    H227191   4.850   5.304   7.187 -1.0083  0.4218  0.4254
 1878TIP3   OH227192   4.407   0.179   7.978  0.3460 -0.5172 -0.3512
 1878TIP3    H127193   4.322   0.184   8.021  1.1314 -1.7415  1.4979
 1878TIP3    H227194   4.410   0.093   7.938  1.2149 -1.0997  0.8742
 1879TIP3   OH227195   2.344   3.854   0.310 -0.0831 -0.3108  0.0056
 1879TIP3    H127196   2.330   3.812   0.395 -2.6952 -0.6886 -0.4995
 1879TIP3    H227197   2.347   3.781   0.248  1.4574 -0.0185 -0.2881
 1880TIP3   OH227198   1.644   6.242   0.397 -0.5460  0.0418 -0.3243
 1880TIP3    H127199   1.664   6.201   0.481  0.0031 -1.3173 -1.0946
 1880TIP3    H227200   1.722   6.295   0.377  0.0033 -0.8902 -0.7095
 1881TIP3   OH227201   5.968   5.584   8.790  0.1164  0.4599  0.2560
 1881TIP3    H127202   5.960   5.638   8.711  1.1514  1.2918  0.6902
 1881TIP3    H227203   6.062   5.584   8.809 -0.0163 -0.4747  0.9892
 1882TIP3   OH227204   2.478   0.995   0.699 -0.0024  0.2949 -0.5168
 1882TIP3    H127205   2.433   1.073   0.731 -2.2533 -0.2316 -2.0959
 1882TIP3    H227206   2.561   1.026   0.665 -0.0130  1.6738  0.6423
 1883TIP3   OH227207   0.664   6.073   8.229 -0.5878 -0.2507  0.0835
 1883TIP3    H127208   0.642   6.040   8.316 -0.6025 -1.3178 -0.3064
 1883TIP3    H227209   0.616   6.154   8.221  1.0298  0.9850  1.8791
 1884TIP3   OH227210   0.910   5.877   7.190  0.2764 -0.4478 -0.2752
 1884TIP3    H127211   0.826   5.897   7.232  1.2219  1.6266  0.7429
 1884TIP3    H227212   0.887   5.860   7.098 -1.1358  1.3419 -0.3090
 1885TIP3   OH227213   3.601   5.213   0.166  0.3804 -0.1341  0.0328
 1885TIP3    H127214   3.644   5.151   0.226 -0.6403  0.6581  1.6713
 1885TIP3    H227215   3.672   5.247   0.111  1.4297 -0.6323  1.0295
 1886TIP3   OH227216   4.947   3.646   1.118  0.0457 -0.1419 -0.4893
 1886TIP3    H127217   5.037   3.631   1.088  0.0339  0.7833 -1.0046
 1886TIP3    H227218   4.892   3.618   1.045 -0.0151  1.0592 -0.9273
 1887TIP3   OH227219   0.025   1.361   7.358  0.1408  0.0664 -0.1705
 1887TIP3    H127220   0.073   1.386   7.437 -0.6115  2.4874 -0.4154
 1887TIP3    H227221  -0.066   1.348   7.388  0.3087 -1.5508 -0.2398
 1888TIP3   OH227222   1.740   5.197   0.761  0.0541  0.2757  0.0478
 1888TIP3    H127223   1.755   5.235   0.848 -0.0839  0.3740  0.0290
 1888TIP3    H227224   1.827   5.199   0.719  0.2246 -0.2596  0.3742
 1889TIP3   OH227225   0.825   0.914   0.852 -0.2112 -0.3727  0.0705
 1889TIP3    H127226   0.865   0.995   0.820  1.4167 -1.8604 -1.8806
 1889TIP3    H227227   0.894   0.872   0.903 -0.2603 -1.5539 -0.8096
 1890TIP3   OH227228   4.415   2.199   7.358 -0.0672  0.3524  0.5921
 1890TIP3    H127229   4.436   2.130   7.295  1.3025  1.6430 -0.4463
 1890TIP3    H227230   4.487   2.199   7.420  0.9433  1.9563 -0.4717
 1891TIP3   OH227231   3.386   5.740   1.526 -0.5727 -0.0531  0.0019
 1891TIP3    H127232   3.321   5.757   1.595 -0.9753  0.7883 -0.5651
 1891TIP3    H227233   3.365   5.804   1.458  1.8676  1.3622  0.4714
 1892TIP3   OH227234   4.821   2.436   2.208 -0.1104 -0.2560 -0.2818
 1892TIP3    H127235   4.895   2.478   2.252  0.3042 -0.7631 -0.4846
 1892TIP3    H227236   4.754   2.504   2.203 -0.3345 -0.2919  1.5308
 1893TIP3   OH227237   0.965   2.198   7.521 -0.3669  0.8046  0.0296
 1893TIP3    H127238   0.927   2.143   7.453 -0.6981  0.7520  0.2567
 1893TIP3    H227239   0.927   2.284   7.508  2.0119  1.6842 -1.9068
 1894TIP3   OH227240   1.570   3.720   1.165 -0.2627 -0.0812 -0.0196
 1894TIP3    H127241   1.537   3.672   1.241 -1.7010 -0.5540 -0.9114
 1894TIP3    H227242   1.552   3.663   1.090 -0.2849  1.0293 -0.8888
 1895TIP3   OH227243   4.413   4.341   0.235  0.0047  0.4230 -0.3684
 1895TIP3    H127244   4.394   4.343   0.141 -0.1968  0.0902 -0.3367
 1895TIP3    H227245   4.392   4.252   0.262  0.2534  0.4606 -0.0445
 1896TIP3   OH227246   6.153   6.531   0.276 -0.2254 -0.6665 -0.4228
 1896TIP3    H127247   6.083   6.581   0.234 -0.1766 -1.4027 -1.4244
 1896TIP3    H227248   6.230   6.549   0.222 -0.6603 -3.4978 -2.2100
 1897TIP3   OH227249   1.969   3.936   7.471  0.4342 -0.7425 -0.6555
 1897TIP3    H127250   2.061   3.914   7.458  1.3199  1.3054  1.4331
 1897TIP3    H227251   1.944   3.890   7.550 -0.7418 -2.1777 -1.8016
 1898TIP3   OH227252   6.390   4.466   0.926  0.1176 -0.4141 -0.5272
 1898TIP3    H127253   6.364   4.375   0.941 -0.0704 -0.8824 -3.1715
 1898TIP3    H227254   6.315   4.518   0.954 -0.7051 -1.2480 -1.1191
 1899TIP3   OH227255   5.533   4.537   7.882 -0.1793  0.3030  0.8201
 1899TIP3    H127256   5.582   4.492   7.814 -0.6274  0.2256  0.5405
 1899TIP3    H227257   5.444   4.544   7.847 -0.0139  1.8235  0.6519
 1900TIP3   OH227258   1.300   2.300   7.851 -0.1455 -0.1122  0.4560
 1900TIP3    H127259   1.229   2.330   7.908  0.6332  2.0773  0.3734
 1900TIP3    H227260   1.336   2.381   7.813  1.4795 -1.2688 -0.5946
 1901TIP3   OH227261   5.735   1.489   7.267 -0.1315 -0.1844 -0.1881
 1901TIP3    H127262   5.802   1.480   7.335  0.6657 -0.7403 -1.0261
 1901TIP3    H227263   5.675   1.416   7.283 -0.3117  0.0663  0.3048
 1902TIP3   OH227264   3.221   0.439   7.223  0.0252  0.4173  0.1245
 1902TIP3    H127265   3.130   0.466   7.206  0.0462  0.7189  0.4643
 1902TIP3    H227266   3.221   0.414   7.315 -0.0390 -0.9860 -0.2406
 1903TIP3   OH227267   2.446   5.308   6.838 -0.2957  0.9252  0.4503
 1903TIP3    H127268   2.498   5.367   6.784  0.8892  1.3952  2.0257
 1903TIP3    H227269   2.355   5.331   6.818  0.1240  2.8303  0.4817
 1904TIP3   OH227270   5.444   4.175   8.345 -0.0383 -0.7448  0.1023
 1904TIP3    H127271   5.539   4.169   8.343 -0.0809 -1.9583  0.5726
 1904TIP3    H227272   5.423   4.258   8.302  1.1598 -1.0963 -1.2092
 1905TIP3   OH227273   6.527   2.263   0.895  0.6168 -0.3516  0.6617
 1905TIP3    H127274   6.491   2.203   0.960  2.6007 -0.6702  1.5343
 1905TIP3    H227275   6.490   2.348   0.918 -0.5017 -0.8503  0.7710
 1906TIP3   OH227276   4.662   3.414   0.334  0.0824 -0.0021  0.1916
 1906TIP3    H127277   4.610   3.458   0.402  0.2883 -0.7945  0.8875
 1906TIP3    H227278   4.599   3.395   0.264 -0.3567 -0.0711  0.6001
 1907TIP3   OH227279   2.882   0.717   1.767 -0.0513  0.2542 -0.1065
 1907TIP3    H127280   2.939   0.736   1.842  0.1754 -3.3045  0.7804
 1907TIP3    H227281   2.798   0.757   1.790  0.1988 -0.2261  1.7646
 1908TIP3   OH227282   0.011   5.728   8.572 -0.0038  0.2008  0.1931
 1908TIP3    H127283   0.015   5.689   8.485 -2.1322 -0.3569  0.2813
 1908TIP3    H227284  -0.050   5.801   8.562  0.0049  0.3398  1.1260
 1909TIP3   OH227285   4.686   1.067   1.275  0.3590  0.2360  0.4426
 1909TIP3    H127286   4.690   1.003   1.346 -0.1425 -0.4769 -0.1531
 1909TIP3    H227287   4.600   1.108   1.284 -1.0373 -1.9949 -1.5030
 1910TIP3   OH227288   3.178   1.527   2.255 -0.4844 -0.0394 -1.0862
 1910TIP3    H127289   3.091   1.510   2.218 -0.4691  0.8260 -1.5270
 1910TIP3    H227290   3.194   1.451   2.312  0.0730 -2.1167 -3.8075
 1911TIP3   OH227291   3.194   4.796   6.980 -0.1708 -0.0425 -0.5212
 1911TIP3    H127292   3.250   4.851   6.924 -1.1457  1.7146  0.1279
 1911TIP3    H227293   3.209   4.830   7.068 -1.7563  0.0350 -0.2540
 1912TIP3   OH227294   6.339   0.995   1.690  0.0519 -0.0852  0.1636
 1912TIP3    H127295   6.414   1.010   1.748 -0.5452 -1.4580  1.3571
 1912TIP3    H227296   6.370   0.930   1.627  0.6520  1.2921 -1.0167
 1913TIP3   OH227297   6.738   6.453   6.810 -0.0891  0.0875 -0.0680
 1913TIP3    H127298   6.655   6.465   6.764 -0.8558  1.0103  1.4910
 1913TIP3    H227299   6.764   6.541   6.837  2.1281  0.0119 -1.6772
 1914TIP3   OH227300   1.449   2.673   7.506 -0.3425 -0.5599 -1.3508
 1914TIP3    H127301   1.462   2.583   7.534 -1.2199 -0.2920  0.0236
 1914TIP3    H227302   1.537   2.709   7.496  0.0102 -1.0746 -0.1785
 1915TIP3   OH227303   2.384   4.096   1.821  0.2890  0.9005  0.5182
 1915TIP3    H127304   2.353   4.005   1.820  0.2729  0.9096 -0.8699
 1915TIP3    H227305   2.328   4.142   1.759  0.5244  1.7970  0.9480
 1916TIP3   OH227306   1.590   1.483   6.870  0.3283  0.0537  0.2882
 1916TIP3    H127307   1.680   1.477   6.902 -0.9575 -0.6700  4.3730
 1916TIP3    H227308   1.548   1.546   6.929 -2.6066 -2.2002  0.8764
 1917TIP3   OH227309   5.762   1.382   1.078  0.0507 -0.1265  0.6060
 1917TIP3    H127310   5.853   1.375   1.051 -0.1454 -3.7379  0.3840
 1917TIP3    H227311   5.715   1.319   1.023 -2.6883  1.7963  0.5104
 1918TIP3   OH227312   4.181   3.544   0.983  0.3741 -0.0554  0.3946
 1918TIP3    H127313   4.263   3.520   0.940  0.1455 -2.3655  1.1309
 1918TIP3    H227314   4.140   3.607   0.924  2.7441  1.3218  0.1190
 1919TIP3   OH227315   6.613   3.878   1.408  0.0480  0.4231 -0.2903
 1919TIP3    H127316   6.662   3.798   1.426 -0.7544  0.2070  1.1284
 1919TIP3    H227317   6.574   3.864   1.322  0.5507 -0.3867 -0.3941
 1920TIP3   OH227318   5.159   3.545   0.052  0.1096 -0.0575  0.5901
 1920TIP3    H127319   5.235   3.562   0.107 -0.0913  0.5936  0.6719
 1920TIP3    H227320   5.160   3.450   0.038 -0.1802 -0.3300  2.1971
 1921TIP3   OH227321   5.914   3.639   6.470 -0.5339 -0.0151 -0.1778
 1921TIP3    H127322   5.887   3.715   6.419 -0.1976  0.2044 -0.0373
 1921TIP3    H227323   5.925   3.673   6.559 -0.0406 -0.1468 -0.1839
 1922TIP3   OH227324   6.205   6.761   0.438  0.1067 -0.8636 -0.0183
 1922TIP3    H127325   6.275   6.714   0.393 -0.6906 -1.9015 -0.2321
 1922TIP3    H227326   6.125   6.718   0.408 -0.5728 -0.1875  0.7774
 1923TIP3   OH227327   4.092   3.665   0.526 -0.4532  0.2063  0.4013
 1923TIP3    H127328   4.104   3.745   0.476  0.9430 -0.8137 -1.0013
 1923TIP3    H227329   4.162   3.607   0.496 -1.7336 -1.7471  0.9647
 1924TIP3   OH227330   1.811   5.209   0.465 -0.1705 -0.0791 -0.2457
 1924TIP3    H127331   1.905   5.195   0.471 -0.2526 -1.2412 -1.1984
 1924TIP3    H227332   1.773   5.123   0.487 -0.9702  0.1427 -0.7224
 1925TIP3   OH227333   2.827   4.215   1.847  0.3065 -0.3607 -0.8888
 1925TIP3    H127334   2.828   4.152   1.775 -0.5440 -2.1365  0.5713
 1925TIP3    H227335   2.735   4.238   1.858  0.0500 -1.9801  1.0886
 1926TIP3   OH227336   1.372   5.768   0.587  0.2729 -0.2478 -0.0540
 1926TIP3    H127337   1.422   5.729   0.515  1.0144 -1.4010  1.0543
 1926TIP3    H227338   1.310   5.700   0.614 -0.1314  0.2418  0.2799
 1927TIP3   OH227339   1.809   6.735   8.828  0.0473  0.1750  0.2588
 1927TIP3    H127340   1.828   6.828   8.838 -0.2906  0.5729 -2.1332
 1927TIP3    H227341   1.714   6.730   8.818 -0.2066 -0.7272  2.5327
 1928TIP3   OH227342   4.704   0.743   6.874  0.6762 -0.7617 -0.3007
 1928TIP3    H127343   4.649   0.678   6.831 -0.3712  0.4253 -0.8434
 1928TIP3    H227344   4.772   0.763   6.810  0.7108 -0.9679 -0.3283
 1929TIP3   OH227345   5.880   1.639   2.013 -0.2245 -0.0978 -0.5402
 1929TIP3    H127346   5.908   1.651   2.104  0.1936  1.8982 -0.9045
 1929TIP3    H227347   5.953   1.592   1.972 -0.5809 -1.3711  0.2088
 1930TIP3   OH227348   0.611   3.832   1.557  0.0874  0.2367  0.4731
 1930TIP3    H127349   0.572   3.859   1.473 -0.9655  1.6034  1.3448
 1930TIP3    H227350   0.593   3.738   1.562 -1.9261  0.5493  0.1839
 1931TIP3   OH227351   5.582   6.063   7.518  0.1900  0.2328  0.0833
 1931TIP3    H127352   5.563   6.099   7.605  1.9545 -0.2873  0.7363
 1931TIP3    H227353   5.549   6.129   7.457  1.4357  1.9864  1.2070
 1932TIP3   OH227354   2.497   4.638   0.816 -0.2404  0.7261 -0.2301
 1932TIP3    H127355   2.499   4.711   0.878 -0.6102  0.1953  0.4145
 1932TIP3    H227356   2.443   4.572   0.858  1.0690 -0.4050 -0.2680
 1933TIP3   OH227357   5.871   3.775   1.013  0.0156 -0.6551 -0.0289
 1933TIP3    H127358   5.854   3.860   0.973 -1.1561 -1.1003 -0.5157
 1933TIP3    H227359   5.836   3.782   1.101  2.1431  0.1558  0.8266
 1934TIP3   OH227360   4.637   6.289   1.088  0.5830  0.2628  0.2577
 1934TIP3    H127361   4.561   6.279   1.145  0.2469 -2.2099 -0.5043
 1934TIP3    H227362   4.712   6.297   1.148 -0.0850  1.1357  1.0071
 1935TIP3   OH227363   3.980   0.459   8.616 -0.4684 -0.1377 -0.0988
 1935TIP3    H127364   3.915   0.390   8.631 -1.0039  0.3693 -0.0476
 1935TIP3    H227365   3.944   0.511   8.544 -0.0974  0.1217 -0.0986
 1936TIP3   OH227366   1.269   6.587   1.686 -0.3613  0.3189  0.7203
 1936TIP3    H127367   1.291   6.546   1.603 -0.0590 -0.6719  1.2723
 1936TIP3    H227368   1.288   6.680   1.673  0.0402  0.1177 -0.1942
 1937TIP3   OH227369   0.438   3.629   1.880  0.3667 -0.3632  0.2524
 1937TIP3    H127370   0.523   3.595   1.853 -0.4200 -2.4252  0.2260
 1937TIP3    H227371   0.450   3.653   1.972  1.3969  0.9878 -0.1943
 1938TIP3   OH227372   2.165   5.532   0.064 -0.2428  0.0856  0.6351
 1938TIP3    H127373   2.097   5.467   0.042 -0.7888  0.6788  0.5506
 1938TIP3    H227374   2.216   5.541  -0.016 -2.0468  2.0290 -0.4077
 1939TIP3   OH227375   1.251   5.710   7.078  0.2212 -0.0057 -0.3027
 1939TIP3    H127376   1.295   5.684   7.159  2.1155  0.0139 -1.2839
 1939TIP3    H227377   1.318   5.702   7.010 -0.6405  2.2157 -1.5240
 1940TIP3   OH227378   1.330   4.728   8.741  0.1044 -0.3797  0.0567
 1940TIP3    H127379   1.284   4.708   8.822 -0.4737 -0.1542 -0.2142
 1940TIP3    H227380   1.382   4.806   8.761  0.8482 -0.9728  0.5362
 1941TIP3   OH227381   4.946   2.378   1.885  0.0435  0.5736 -0.6093
 1941TIP3    H127382   4.983   2.376   1.797  0.2703 -1.0645 -0.5119
 1941TIP3    H227383   4.852   2.364   1.872  0.2327 -0.9402 -0.5574
 1942TIP3   OH227384   3.829   4.952   0.992  0.3836 -0.7758  0.6952
 1942TIP3    H127385   3.909   4.900   0.984  0.3959 -0.5581 -1.1352
 1942TIP3    H227386   3.770   4.898   1.043  0.9460 -1.9025  0.1788
 1943TIP3   OH227387   4.913   2.861   2.948 -0.6529 -0.4774 -0.0232
 1943TIP3    H127388   4.848   2.900   2.889 -0.6812 -0.8101 -0.2132
 1943TIP3    H227389   4.860   2.813   3.012 -0.5848 -1.5058 -0.7026
 1944TIP3   OH227390   5.311   0.192   0.911  0.8893 -0.4859  0.0215
 1944TIP3    H127391   5.254   0.245   0.855  1.7166 -0.8375 -1.1960
 1944TIP3    H227392   5.260   0.177   0.990 -0.2041  0.2804 -0.5146
 1945TIP3   OH227393   6.337   6.090   7.375 -0.0753  0.2729  0.2316
 1945TIP3    H127394   6.243   6.081   7.362  0.1802 -2.0633 -0.4215
 1945TIP3    H227395   6.374   6.090   7.287  0.5881  0.5894  0.5008
 1946TIP3   OH227396   5.730   4.111   8.305  0.0473 -0.4745 -0.0800
 1946TIP3    H127397   5.804   4.051   8.304 -0.4737 -1.1250 -1.2877
 1946TIP3    H227398   5.753   4.179   8.242 -0.0241 -0.2374  0.1506
 1947TIP3   OH227399   2.104   2.685   8.179 -0.1232 -0.1471 -0.2328
 1947TIP3    H127400   2.056   2.614   8.221 -1.5036  0.6787 -0.3748
 1947TIP3    H227401   2.138   2.647   8.098  0.1555 -0.9623  0.2565
 1948TIP3   OH227402   2.854   5.571   1.833 -0.2307  0.2767  0.0514
 1948TIP3    H127403   2.833   5.482   1.862 -1.2171  0.3115 -0.5067
 1948TIP3    H227404   2.772   5.604   1.796  0.2858  1.2007 -0.2955
 1949TIP3   OH227405   3.997   5.953   1.637 -0.3348 -0.3435  0.1647
 1949TIP3    H127406   4.087   5.920   1.637  0.1838  0.9701 -0.8499
 1949TIP3    H227407   3.943   5.876   1.621  0.8755 -0.7047 -2.8944
 1950TIP3   OH227408   4.238   5.602   2.322  0.0715 -0.4210 -0.2927
 1950TIP3    H127409   4.162   5.647   2.360 -0.2272 -2.3875  1.6672
 1950TIP3    H227410   4.261   5.654   2.245 -1.5983  1.7470  0.5649
 1951TIP3   OH227411   4.377   0.565   0.115  0.4721  0.2279 -0.5908
 1951TIP3    H127412   4.304   0.522   0.070  1.8262 -1.3327 -1.4293
 1951TIP3    H227413   4.363   0.544   0.208 -0.0420 -0.1941 -0.7560
 1952TIP3   OH227414   0.016   6.591   8.848 -0.9290 -0.1844  0.2622
 1952TIP3    H127415  -0.038   6.598   8.770 -0.5021  1.2653  0.0645
 1952TIP3    H227416  -0.046   6.584   8.920 -1.3533  0.0573 -0.0779
 1953TIP3   OH227417   2.915   3.733   7.413 -0.2243 -0.2261 -0.6730
 1953TIP3    H127418   2.875   3.723   7.499 -1.0271  1.2813 -0.8191
 1953TIP3    H227419   2.922   3.644   7.378  1.0371 -0.9693  1.3104
 1954TIP3   OH227420   2.156   0.146   7.192  0.2567  0.0340 -0.5888
 1954TIP3    H127421   2.222   0.108   7.250  0.4648  1.6058  0.2349
 1954TIP3    H227422   2.113   0.070   7.152  0.8718 -1.0610  0.7586
 1955TIP3   OH227423   5.468   3.120   7.988  0.2009 -0.4794  0.2203
 1955TIP3    H127424   5.389   3.161   8.022 -0.1694 -1.8917  1.1627
 1955TIP3    H227425   5.443   3.083   7.904  0.6438  1.4898 -0.8293
 1956TIP3   OH227426   5.043   0.962   6.988 -0.4286 -0.0078  0.1370
 1956TIP3    H127427   5.038   1.022   7.062 -2.0481  3.0233 -2.1698
 1956TIP3    H227428   5.136   0.961   6.964  0.0754 -0.8467  1.9522
 1957TIP3   OH227429   0.571   0.824   1.417 -0.0166  0.5162 -0.0818
 1957TIP3    H127430   0.514   0.823   1.494  0.8242 -1.2150  0.5724
 1957TIP3    H227431   0.637   0.891   1.436 -1.0645  1.6349 -0.2904
 1958TIP3   OH227432   1.433   4.881   1.771 -0.6725 -0.3798  0.5672
 1958TIP3    H127433   1.421   4.832   1.853  1.4280  1.2960  1.9963
 1958TIP3    H227434   1.439   4.973   1.800  1.8505  0.1064 -1.2344
 1959TIP3   OH227435   3.764   4.567   8.261  0.0403 -0.8638  0.6995
 1959TIP3    H127436   3.855   4.571   8.232 -0.2928  0.0225 -0.3122
 1959TIP3    H227437   3.768   4.577   8.356  0.8870  1.4434  0.4749
 1960TIP3   OH227438   6.755   5.755   7.214  0.1322  0.5304 -0.8136
 1960TIP3    H127439   6.743   5.796   7.129 -1.1459  0.8978 -0.4784
 1960TIP3    H227440   6.670   5.717   7.236 -0.7415  3.5485  1.8539
 1961TIP3   OH227441   4.105   0.166   1.978  0.0680 -0.0961 -0.1864
 1961TIP3    H127442   4.102   0.261   1.967  0.6304  0.0623  0.9048
 1961TIP3    H227443   4.189   0.149   2.022  0.7258 -1.2562 -1.7797
 1962TIP3   OH227444   5.630   1.824   0.748  0.4704  0.5144  0.4753
 1962TIP3    H127445   5.686   1.897   0.775  0.4029  1.0716 -0.8280
 1962TIP3    H227446   5.564   1.864   0.691  0.8371 -0.6469 -0.8244
 1963TIP3   OH227447   6.007   1.334   8.244  0.3641  0.0696  0.3460
 1963TIP3    H127448   6.094   1.321   8.206 -0.1947  0.2442 -1.0752
 1963TIP3    H227449   5.950   1.278   8.191 -0.5306  0.7008  0.6177
 1964TIP3   OH227450   0.431   2.286   1.215  0.0144 -0.1205  0.3380
 1964TIP3    H127451   0.507   2.344   1.213 -1.4522  1.9056 -0.0849
 1964TIP3    H227452   0.389   2.298   1.130 -1.3695 -0.3317  0.9603
 1965TIP3   OH227453   2.063   6.698   7.067  0.1105 -0.1487 -0.4294
 1965TIP3    H127454   1.978   6.654   7.067  0.5702 -1.0916  0.4850
 1965TIP3    H227455   2.126   6.628   7.079  0.8684  0.7551  1.1687
 1966TIP3   OH227456   6.496   2.015   1.018  0.5661 -0.1441 -0.2604
 1966TIP3    H127457   6.511   1.998   1.111  0.6364 -0.8462 -0.3959
 1966TIP3    H227458   6.437   1.946   0.990  0.0816  0.4005 -0.6096
 1967TIP3   OH227459   5.042   1.995   1.853  0.3442  0.2233  1.1537
 1967TIP3    H127460   5.075   1.909   1.878 -3.3066 -1.2539  1.5116
 1967TIP3    H227461   5.021   1.987   1.760  0.0498  0.7288  1.1717
 1968TIP3   OH227462   3.709   3.879   1.891  0.6856  0.0727  0.2681
 1968TIP3    H127463   3.685   3.898   1.800  2.0186 -3.0941 -0.9076
 1968TIP3    H227464   3.796   3.918   1.901  0.6942  0.1123  0.0499
 1969TIP3   OH227465   6.609   5.219   1.084 -0.4397  0.2458  0.6227
 1969TIP3    H127466   6.690   5.169   1.094  1.0368  2.5223  0.7542
 1969TIP3    H227467   6.582   5.203   0.993 -0.0405 -0.7536  0.6626
 1970TIP3   OH227468   3.126   1.065   0.561 -0.4382  0.2993 -0.3528
 1970TIP3    H127469   3.127   0.969   0.554 -1.1604  0.1601  1.0407
 1970TIP3    H227470   3.033   1.087   0.567 -0.2410  1.0357  0.0077
 1971TIP3   OH227471   0.580   5.861   7.257  0.0716 -0.5679 -0.2766
 1971TIP3    H127472   0.593   5.925   7.188  0.3507 -0.2456  0.0728
 1971TIP3    H227473   0.637   5.890   7.329 -0.0814 -0.9923  0.0248
 1972TIP3   OH227474   2.727   0.397   7.856 -0.0701  0.5431 -0.0785
 1972TIP3    H127475   2.644   0.436   7.831  0.2614  2.5000  1.6027
 1972TIP3    H227476   2.792   0.442   7.803  0.1605  1.0880  0.6517
 1973TIP3   OH227477   0.339   3.423   6.908 -0.0660 -0.4675 -0.2926
 1973TIP3    H127478   0.340   3.360   6.836  0.9111 -1.4722  0.5665
 1973TIP3    H227479   0.283   3.382   6.975  0.2660 -0.2490  0.1232
 1974TIP3   OH227480   0.685   4.235   0.122  0.3557  0.4621  0.1650
 1974TIP3    H127481   0.695   4.241   0.217  0.4517 -1.0407  0.2825
 1974TIP3    H227482   0.698   4.142   0.103 -2.8699  0.1213 -0.9596
 1975TIP3   OH227483   1.570   3.237   1.798  0.1361  0.3196  0.5218
 1975TIP3    H127484   1.523   3.320   1.801 -0.3054  0.1505 -1.0682
 1975TIP3    H227485   1.507   3.174   1.764  1.6834  0.3104 -2.7236
 1976TIP3   OH227486   2.083   5.640   1.436 -0.7828 -0.4205 -0.1867
 1976TIP3    H127487   2.048   5.563   1.391  0.7689 -0.5530 -1.2314
 1976TIP3    H227488   2.102   5.702   1.366  1.6949 -0.6238  0.2367
 1977TIP3   OH227489   3.855   4.516   1.379  0.0762 -0.1367 -0.0092
 1977TIP3    H127490   3.834   4.506   1.472  0.9051 -2.3135  0.0168
 1977TIP3    H227491   3.946   4.545   1.378 -0.3625  1.2940 -0.1636
 1978TIP3   OH227492   0.258   3.099   7.513 -0.5482 -0.4171  0.2080
 1978TIP3    H127493   0.313   3.053   7.576 -0.5242  1.5017  1.6997
 1978TIP3    H227494   0.217   3.169   7.564 -1.0603  0.8172 -1.7850
 1979TIP3   OH227495   0.759   3.417   1.155  0.4826 -0.4080 -0.4265
 1979TIP3    H127496   0.680   3.424   1.210  1.2479 -0.8714  0.7581
 1979TIP3    H227497   0.728   3.375   1.075 -0.0592 -2.8596  0.9613
 1980TIP3   OH227498   4.342   6.596   2.181 -0.6002  0.1910 -0.6217
 1980TIP3    H127499   4.308   6.620   2.267 -0.5105  0.8837 -0.7749
 1980TIP3    H227500   4.374   6.678   2.144  1.9930 -0.5159 -0.1478
 1981TIP3   OH227501   5.622   6.480   6.904  0.8231  0.0825 -0.5679
 1981TIP3    H127502   5.587   6.567   6.885  1.5105  0.3133 -0.8027
 1981TIP3    H227503   5.709   6.497   6.940  0.4198 -0.4465  0.7132
 1982TIP3   OH227504   3.206   2.385   1.918  0.0280 -0.1182  0.3314
 1982TIP3    H127505   3.159   2.354   1.995  0.5903 -0.4146  0.5620
 1982TIP3    H227506   3.180   2.477   1.909 -2.4901 -0.8588 -0.9795
 1983TIP3   OH227507   3.119   1.839   0.645 -0.5264  0.5612  0.0086
 1983TIP3    H127508   3.039   1.800   0.679 -0.1323  1.1589  1.7004
 1983TIP3    H227509   3.189   1.782   0.677  0.0251  2.3330  2.1690
 1984TIP3   OH227510   1.808   6.601   7.076 -0.2934 -0.3297  0.5838
 1984TIP3    H127511   1.780   6.625   6.987 -0.1871 -0.5881  0.4793
 1984TIP3    H227512   1.735   6.550   7.111 -1.7794  2.4874  1.8568
 1985TIP3   OH227513   6.721   2.446   8.567  0.3315  0.1309  0.3760
 1985TIP3    H127514   6.814   2.421   8.567  0.3775  0.2994  0.5071
 1985TIP3    H227515   6.683   2.398   8.493  0.9819  1.7078 -1.0509
 1986TIP3   OH227516   4.390   5.704   7.084  0.5235 -0.7831  0.0084
 1986TIP3    H127517   4.431   5.638   7.139  0.5521 -0.5988  0.2109
 1986TIP3    H227518   4.462   5.761   7.056  0.8158 -1.9280 -1.7350
 1987TIP3   OH227519   6.115   6.612   1.214 -1.1787 -0.2574  0.8704
 1987TIP3    H127520   6.090   6.675   1.281 -0.1013  1.0389  0.0940
 1987TIP3    H227521   6.061   6.635   1.138 -1.4424 -0.8684  0.8675
 1988TIP3   OH227522   4.636   5.764   0.013 -0.1308 -0.2768  0.2784
 1988TIP3    H127523   4.700   5.834   0.003 -2.6729  2.0653 -0.7395
 1988TIP3    H227524   4.671   5.709   0.084  1.5328  2.5282  1.8013
 1989TIP3   OH227525   3.168   5.336   0.924 -0.4588 -0.1075 -0.2010
 1989TIP3    H127526   3.258   5.305   0.931 -0.5291  0.0581  2.0882
 1989TIP3    H227527   3.115   5.263   0.957 -0.7876  1.4011  2.9279
 1990TIP3   OH227528   2.846   5.029   7.979  0.3008 -0.0527  0.2039
 1990TIP3    H127529   2.809   5.107   7.937  0.4155 -1.0111 -1.8448
 1990TIP3    H227530   2.787   5.010   8.052  0.6779  2.3099  1.2019
 1991TIP3   OH227531   5.565   0.468   0.735  0.1954  0.1872 -0.0843
 1991TIP3    H127532   5.614   0.458   0.817 -0.6693 -0.6862  0.3423
 1991TIP3    H227533   5.587   0.390   0.684  0.7482  0.7398 -0.7114
 1992TIP3   OH227534   4.347   2.341   1.225  0.4748  0.0981 -0.1261
 1992TIP3    H127535   4.302   2.343   1.140  0.0869 -0.4302  0.0575
 1992TIP3    H227536   4.348   2.432   1.254  0.9483  0.3376 -0.8682
 1993TIP3   OH227537   0.404   0.168   1.628  0.0291  0.0116  0.1988
 1993TIP3    H127538   0.443   0.111   1.695  0.4937  0.9054  0.7088
 1993TIP3    H227539   0.355   0.233   1.679  0.1376  0.5189 -0.3407
 1994TIP3   OH227540   2.330   5.789   0.079 -0.0746 -0.4733 -0.0486
 1994TIP3    H127541   2.249   5.747   0.051 -0.4253 -0.7755  1.3717
 1994TIP3    H227542   2.386   5.716   0.107  0.7747 -0.2819 -1.1694
 1995TIP3   OH227543   3.645   6.754   7.457  0.1462  0.0219 -0.0039
 1995TIP3    H127544   3.708   6.826   7.451  1.1078 -0.6722  1.2289
 1995TIP3    H227545   3.579   6.774   7.390  0.4603  1.9648  0.1993
 1996TIP3   OH227546   4.140   1.811   8.200 -0.6732 -0.2286  0.2630
 1996TIP3    H127547   4.232   1.836   8.199 -1.0168  1.0752 -0.0316
 1996TIP3    H227548   4.110   1.828   8.111 -1.6609  1.1580  0.8448
 1997TIP3   OH227549   4.545   2.174   0.575  0.4451 -0.2905 -0.2927
 1997TIP3    H127550   4.483   2.102   0.590 -1.0097  0.8687 -0.5191
 1997TIP3    H227551   4.535   2.230   0.652  1.8659 -0.5037  0.0789
 1998TIP3   OH227552   2.379   5.373   7.473  0.5047 -0.2506 -0.2660
 1998TIP3    H127553   2.307   5.365   7.536  1.1706 -2.0271  0.3301
 1998TIP3    H227554   2.395   5.468   7.468 -1.5173  0.1500 -0.0536
 1999TIP3   OH227555   4.282   3.699   8.695  0.0381  0.0995  0.2964
 1999TIP3    H127556   4.317   3.629   8.640 -0.8462  1.2023 -1.7863
 1999TIP3    H227557   4.239   3.654   8.768 -0.8471 -1.5523 -1.1753
 2000TIP3   OH227558   0.398   6.443   0.896 -0.7384 -0.3316  0.3675
 2000TIP3    H127559   0.428   6.358   0.863  0.1459  0.2500 -0.3700
 2000TIP3    H227560   0.433   6.507   0.834  0.4057  0.7474  2.0227
 2001TIP3   OH227561   4.666   2.640   8.350  0.3872  0.1528 -0.7162
 2001TIP3    H127562   4.614   2.696   8.407  0.9759  1.1441 -1.1194
 2001TIP3    H227563   4.738   2.610   8.405 -0.6837 -1.3903 -0.0974
 2002TIP3   OH227564   3.764   1.427   8.487  0.2870  0.6348  0.0452
 2002TIP3    H127565   3.715   1.345   8.498  0.0756  0.7983  0.3655
 2002TIP3    H227566   3.696   1.492   8.469  0.6445  0.2120 -3.6865
 2003TIP3   OH227567   1.827   5.500   7.981 -0.1681  0.5594  0.1766
 2003TIP3    H127568   1.914   5.536   7.964 -0.5948  0.3888 -3.0714
 2003TIP3    H227569   1.776   5.574   8.013  0.8754  0.9122  1.0862
 2004TIP3   OH227570   3.301   2.508   0.203 -0.3228 -0.4676  0.2788
 2004TIP3    H127571   3.311   2.413   0.207 -0.2987 -0.4718  0.0827
 2004TIP3    H227572   3.275   2.532   0.292  1.1618 -0.4877  0.7563
 2005TIP3   OH227573   3.991   3.993   2.214  0.5433 -0.2876 -0.2978
 2005TIP3    H127574   3.945   3.913   2.189 -1.2713 -0.3847  2.7576
 2005TIP3    H227575   3.926   4.062   2.205  1.4363  0.4953 -0.8686
 2006TIP3   OH227576   0.606   6.546   1.563 -0.4360  0.0008  0.3622
 2006TIP3    H127577   0.581   6.523   1.653  0.7260  0.7902  0.9060
 2006TIP3    H227578   0.702   6.546   1.564 -0.3776 -1.2971 -1.2284
 2007TIP3   OH227579   5.902   1.074   8.450 -0.0188 -0.3383 -0.1811
 2007TIP3    H127580   5.912   0.997   8.506 -0.6409 -0.1943  0.1368
 2007TIP3    H227581   5.982   1.077   8.399  0.6814 -0.3206  0.8891
 2008TIP3   OH227582   2.351   3.075   0.537  0.5534 -0.2142  0.2429
 2008TIP3    H127583   2.423   3.014   0.525  0.5938 -0.1414  0.1110
 2008TIP3    H227584   2.393   3.161   0.541  0.5267 -0.2225  0.7560
 2009TIP3   OH227585   4.853   4.594   8.246  0.0173 -0.5179 -0.3130
 2009TIP3    H127586   4.897   4.525   8.197 -1.4050 -1.8176  0.1730
 2009TIP3    H227587   4.772   4.554   8.277  0.3144  0.6107  2.1299
 2010TIP3   OH227588   3.569   5.892   6.857  0.1063 -0.0785 -0.3778
 2010TIP3    H127589   3.514   5.884   6.934  1.5924  0.5718  0.8068
 2010TIP3    H227590   3.582   5.802   6.828 -2.1111 -0.2167 -1.1430
 2011TIP3   OH227591   0.812   6.509   7.541  0.1377 -0.0561  0.3707
 2011TIP3    H127592   0.859   6.552   7.613  0.2465 -0.0156  0.2763
 2011TIP3    H227593   0.733   6.561   7.530 -0.4416 -0.7201  1.2161
 2012TIP3   OH227594   5.594   0.443   6.572 -0.3379 -0.2525 -0.3628
 2012TIP3    H127595   5.582   0.522   6.623  0.3959 -0.9861  0.9882
 2012TIP3    H227596   5.522   0.444   6.509 -0.4089  1.4071 -0.2947
 2013TIP3   OH227597   5.727   0.697   1.687  0.2661 -0.6602 -0.5760
 2013TIP3    H127598   5.689   0.633   1.747 -0.8194 -0.5734 -1.1391
 2013TIP3    H227599   5.659   0.764   1.677  1.4034  0.6721  0.0804
 2014TIP3   OH227600   3.545   3.328   8.118 -0.2994  0.3491  0.6264
 2014TIP3    H127601   3.534   3.241   8.155  0.7976  0.3811  1.0757
 2014TIP3    H227602   3.628   3.323   8.069 -1.3340  0.5108 -1.2655
 2015TIP3   OH227603   5.470   0.127   8.005 -0.1138  0.3744 -0.4305
 2015TIP3    H127604   5.380   0.116   7.974 -0.1683  0.9161 -0.4899
 2015TIP3    H227605   5.484   0.055   8.066 -1.0975  1.1212  0.7144
 2016TIP3   OH227606   4.398   3.279   7.206 -0.2363 -0.6796 -0.5391
 2016TIP3    H127607   4.409   3.291   7.111 -0.3760 -0.1062 -0.4890
 2016TIP3    H227608   4.320   3.331   7.227 -0.5495 -1.2719 -0.1996
 2017TIP3   OH227609   3.287   3.630   1.046  0.2969  0.0768  0.2568
 2017TIP3    H127610   3.375   3.666   1.037 -0.3540  1.2616 -2.4823
 2017TIP3    H227611   3.295   3.540   1.013  0.6179 -0.0509  0.6797
 2018TIP3   OH227612   4.842   1.620   8.332  0.3005  0.1441  0.0408
 2018TIP3    H127613   4.765   1.671   8.355  0.0550 -0.9252  1.8185
 2018TIP3    H227614   4.908   1.646   8.397  0.8306 -0.2874 -0.3125
 2019TIP3   OH227615   0.838   4.550   8.212 -0.2610  0.7304 -0.1466
 2019TIP3    H127616   0.872   4.574   8.298 -0.6228  1.3537 -0.1710
 2019TIP3    H227617   0.758   4.602   8.202 -0.7609 -0.0737 -0.4480
 2020TIP3   OH227618   6.215   4.307   7.643  0.2997  0.1569  0.1726
 2020TIP3    H127619   6.237   4.213   7.644  0.0892  0.1095  1.2852
 2020TIP3    H227620   6.131   4.311   7.597  0.4145 -0.1752 -0.0711
 2021TIP3   OH227621   4.118   0.745   6.467  0.3104  0.1223 -0.1669
 2021TIP3    H127622   4.076   0.780   6.546 -0.8129  0.3126 -0.8201
 2021TIP3    H227623   4.212   0.745   6.487  0.0061 -0.3610  1.3650
 2022TIP3   OH227624   5.702   3.321   0.444  0.5113  0.8253  0.7891
 2022TIP3    H127625   5.713   3.385   0.374 -2.1812  0.5129 -0.0545
 2022TIP3    H227626   5.771   3.256   0.429  1.6292  2.1347  0.0635
 2023TIP3   OH227627   6.248   4.842   2.289 -0.4882 -0.2289 -0.5107
 2023TIP3    H127628   6.182   4.774   2.302  0.2963 -0.8654  0.2682
 2023TIP3    H227629   6.327   4.807   2.328  0.0541  0.9623 -0.4776
 2024TIP3   OH227630   5.813   5.258   7.959 -0.4940  0.0754 -0.3881
 2024TIP3    H127631   5.760   5.328   7.996  1.1213  1.2283 -0.1490
 2024TIP3    H227632   5.841   5.290   7.874  1.9282  0.6684  0.5510
 2025TIP3   OH227633   0.621   0.913   7.276  0.7654 -0.2532 -0.3680
 2025TIP3    H127634   0.573   0.983   7.320  2.2727 -0.5806  1.9090
 2025TIP3    H227635   0.557   0.843   7.266  0.2134  0.0881  0.6937
 2026TIP3   OH227636   0.709   4.926   0.814  1.3852  0.5831  0.3442
 2026TIP3    H127637   0.651   4.875   0.758  2.7276 -0.2557 -0.3127
 2026TIP3    H227638   0.676   5.016   0.806 -0.5215 -0.0310  0.9121
 2027TIP3   OH227639   4.895   6.304   1.208  0.3779  0.0305  0.1990
 2027TIP3    H127640   4.975   6.262   1.173  0.3348 -0.3841  0.5873
 2027TIP3    H227641   4.889   6.386   1.160 -0.0511 -0.8213 -1.2893
 2028TIP3   OH227642   5.018   1.231   1.672 -0.1995  0.1135 -0.7579
 2028TIP3    H127643   5.076   1.268   1.739 -0.2172 -1.6091  0.2682
 2028TIP3    H227644   5.077   1.210   1.599  0.2991 -0.4876 -0.2020
 2029TIP3   OH227645   3.696   3.213   7.198 -0.7994 -0.6464  0.0887
 2029TIP3    H127646   3.736   3.127   7.211  0.1032 -0.1405  0.7622
 2029TIP3    H227647   3.673   3.215   7.105  1.8719 -0.5107 -0.6386
 2030TIP3   OH227648   5.106   6.267   8.337  0.3537  0.1245  0.2298
 2030TIP3    H127649   5.100   6.268   8.242 -2.1191 -1.6089  0.2773
 2030TIP3    H227650   5.170   6.198   8.356  0.9981  0.6058 -0.1601
 2031TIP3   OH227651   2.478   0.363   8.767  0.0425 -0.3473  0.6129
 2031TIP3    H127652   2.448   0.365   8.676  0.2063  1.5200  0.5509
 2031TIP3    H227653   2.409   0.408   8.816  0.4165 -0.4462  1.2424
 2032TIP3   OH227654   6.782   2.877   2.200 -0.0410 -0.0390 -0.0421
 2032TIP3    H127655   6.778   2.926   2.283  1.4397 -0.5945  0.3821
 2032TIP3    H227656   6.847   2.809   2.216 -1.8901 -2.0425 -0.6965
 2033TIP3   OH227657   4.388   2.191   6.904 -0.1196 -0.2369  0.3026
 2033TIP3    H127658   4.430   2.106   6.918 -1.5743 -1.6855 -2.9380
 2033TIP3    H227659   4.446   2.237   6.843 -0.2912  0.2984  0.5383
 2034TIP3   OH227660   4.570   5.863   7.736 -0.0603 -0.3655  0.5744
 2034TIP3    H127661   4.562   5.928   7.667 -1.2524 -0.3064  0.7515
 2034TIP3    H227662   4.488   5.814   7.733  0.0707 -0.6809  1.6313
 2035TIP3   OH227663   5.027   4.213   0.595  0.0785 -0.1208 -0.3811
 2035TIP3    H127664   5.075   4.283   0.550 -1.5649  1.6012  0.4147
 2035TIP3    H227665   5.012   4.147   0.527  3.2420 -0.6463 -0.7196
 2036TIP3   OH227666   2.748   2.296   8.053 -0.1078 -0.1334 -0.5319
 2036TIP3    H127667   2.820   2.266   7.998  0.8525 -0.2466  0.7243
 2036TIP3    H227668   2.673   2.244   8.024  1.1370 -2.7026  0.4815
 2037TIP3   OH227669   4.108   1.510   1.126  0.3569 -0.0610  0.2836
 2037TIP3    H127670   4.125   1.423   1.163  1.0994 -0.6565 -1.3767
 2037TIP3    H227671   4.040   1.496   1.060  0.2432  0.6846  0.2302
 2038TIP3   OH227672   6.732   0.114   7.575 -0.6588  0.0986 -0.0431
 2038TIP3    H127673   6.688   0.061   7.641 -1.1794  0.4066 -0.1345
 2038TIP3    H227674   6.673   0.188   7.561  0.5326  1.2475  0.8265
 2039TIP3   OH227675   1.234   1.594   0.952 -0.0639  0.0430  0.0550
 2039TIP3    H127676   1.185   1.610   0.872 -0.7608  2.6309  0.8925
 2039TIP3    H227677   1.296   1.525   0.930 -3.2502 -2.5694 -1.3844
 2040TIP3   OH227678   0.121   5.739   7.882 -0.3415 -0.0501  0.3204
 2040TIP3    H127679   0.029   5.729   7.856 -0.3185  0.5134  0.0022
 2040TIP3    H227680   0.167   5.669   7.835 -0.2412  1.1803 -1.5228
 2041TIP3   OH227681   0.530   6.059   8.612 -0.2029  1.1391  0.1575
 2041TIP3    H127682   0.438   6.040   8.628 -0.0035  0.0685  0.0613
 2041TIP3    H227683   0.557   5.996   8.546  1.4326 -0.7778  2.5086
 2042TIP3   OH227684   1.095   0.137   0.457  0.7657  0.2037  0.0046
 2042TIP3    H127685   1.163   0.100   0.514 -0.2731 -0.0191  1.1322
 2042TIP3    H227686   1.116   0.103   0.370  1.1980 -1.1377  0.6075
 2043TIP3   OH227687   4.877   5.241   0.746  0.0450 -0.2888  0.1699
 2043TIP3    H127688   4.902   5.315   0.801  1.1694 -2.6342  3.0351
 2043TIP3    H227689   4.960   5.204   0.716 -0.3803 -1.8682  0.8936
 2044TIP3   OH227690   5.134   4.804   1.639 -0.3632  0.3172 -0.3412
 2044TIP3    H127691   5.188   4.725   1.638  0.7938  1.0646  0.1668
 2044TIP3    H227692   5.132   4.833   1.548  0.9689  0.8237 -0.2303
 2045TIP3   OH227693   4.825   1.214   8.175  0.1430 -0.0882 -0.4363
 2045TIP3    H127694   4.901   1.157   8.185 -0.3212 -0.6145  0.1759
 2045TIP3    H227695   4.783   1.185   8.094 -0.4300 -1.0427  0.1821
 2046TIP3   OH227696   2.807   1.557   0.394 -0.1032  0.2249  0.5596
 2046TIP3    H127697   2.717   1.526   0.392 -0.2978  0.4056  2.9504
 2046TIP3    H227698   2.854   1.490   0.444  1.4631 -0.6055 -1.8893
 2047TIP3   OH227699   5.267   4.774   8.182  0.2015  0.2741 -0.0078
 2047TIP3    H127700   5.295   4.848   8.129 -0.6197  0.6188  0.0144
 2047TIP3    H227701   5.239   4.708   8.118 -1.0822  0.8070 -0.0307
 2048TIP3   OH227702   3.580   2.972   1.496  0.1143 -0.0452 -0.6465
 2048TIP3    H127703   3.604   3.060   1.466  0.4539  0.3729  0.7713
 2048TIP3    H227704   3.579   2.979   1.592 -1.1422 -1.2548 -0.5468
 2049TIP3   OH227705   6.355   2.946   8.597 -0.2786 -0.3377 -0.7926
 2049TIP3    H127706   6.280   3.003   8.583  0.9621  1.7845  0.6324
 2049TIP3    H227707   6.430   2.995   8.564  0.7304 -1.5627 -0.4223
 2050TIP3   OH227708   5.955   3.225   7.997 -0.0692 -0.2208  0.4717
 2050TIP3    H127709   5.906   3.199   8.076  1.0382 -0.5026  1.0915
 2050TIP3    H227710   5.982   3.142   7.957 -0.8302 -0.0831 -0.3501
 2051TIP3   OH227711   0.952   6.690   8.318  0.1317 -0.1502  0.5002
 2051TIP3    H127712   0.862   6.662   8.306  0.4461 -0.5455 -1.4009
 2051TIP3    H227713   1.002   6.609   8.325  0.4216  0.0422  0.6832
 2052TIP3   OH227714   4.647   5.658   7.507  0.3369  0.4965  0.1098
 2052TIP3    H127715   4.731   5.703   7.519  0.0860  0.9156  0.3260
 2052TIP3    H227716   4.671   5.569   7.483  0.8465  0.5967  0.2264
 2053TIP3   OH227717   6.595   0.574   8.680 -0.6453  0.4583  0.0564
 2053TIP3    H127718   6.632   0.495   8.641 -1.5229 -0.7590  1.5244
 2053TIP3    H227719   6.670   0.627   8.706  0.0145 -0.6371  0.4321
 2054TIP3   OH227720   2.743   4.826   8.862  0.2089  0.0730 -0.2219
 2054TIP3    H127721   2.757   4.917   8.833 -1.0869 -0.1917 -1.8270
 2054TIP3    H227722   2.686   4.834   8.938 -1.5057  0.5846 -1.4903
 2055TIP3   OH227723   0.610   5.516   8.372  0.0723 -0.8497 -0.2226
 2055TIP3    H127724   0.550   5.487   8.303 -0.0046 -0.3796 -0.3520
 2055TIP3    H227725   0.643   5.434   8.410 -0.4582 -1.1136 -0.3172
 2056TIP3   OH227726   6.270   0.336   8.516 -0.5152 -0.1412 -0.7287
 2056TIP3    H127727   6.340   0.294   8.566 -1.0233 -2.7023 -2.0227
 2056TIP3    H227728   6.316   0.387   8.449  0.1026  0.4702  0.1300
 2057TIP3   OH227729   3.033   3.662   6.386 -0.0354 -0.5374  0.2341
 2057TIP3    H127730   3.060   3.750   6.411 -2.3871  0.0593  0.9588
 2057TIP3    H227731   3.102   3.604   6.419  0.8941  0.9115  0.9139
 2058TIP3   OH227732   5.373   5.384   0.962  0.1628 -0.0727  0.1980
 2058TIP3    H127733   5.439   5.450   0.981  0.3695  0.2872 -1.5698
 2058TIP3    H227734   5.417   5.321   0.905 -0.7735 -0.2386 -0.3789
 2059TIP3   OH227735   2.011   1.265   7.857  0.1384 -0.2973 -0.4316
 2059TIP3    H127736   1.940   1.223   7.907  1.2992 -0.3815  1.2331
 2059TIP3    H227737   2.033   1.201   7.790 -0.4664 -0.8556 -0.1202
 2060TIP3   OH227738   1.891   6.019   7.601  0.0188 -0.0329  0.1763
 2060TIP3    H127739   1.893   6.034   7.696  1.6850  1.1518  0.0006
 2060TIP3    H227740   1.830   5.946   7.590 -2.5274  1.6413  1.8726
 2061TIP3   OH227741   6.601   4.207   0.716  0.2560 -0.0322  0.3739
 2061TIP3    H127742   6.559   4.254   0.644  0.3211 -0.2131  0.2151
 2061TIP3    H227743   6.544   4.132   0.732  0.7203 -0.5009 -0.1155
 2062TIP3   OH227744   1.215   5.934   1.977 -0.4081 -0.2468  0.0976
 2062TIP3    H127745   1.172   5.995   2.037 -1.5080 -0.3993 -0.5052
 2062TIP3    H227746   1.235   5.858   2.032  1.5529  0.8512  1.0031
 2063TIP3   OH227747   5.890   0.828   8.542 -0.2150 -0.2125 -0.0037
 2063TIP3    H127748   5.919   0.793   8.458  1.8803 -2.1616  1.4077
 2063TIP3    H227749   5.821   0.768   8.570 -1.3735  0.8146 -0.5732
 2064TIP3   OH227750   1.270   2.920   0.889 -0.6431  0.4330  0.1982
 2064TIP3    H127751   1.217   2.964   0.823 -0.1668  0.4641 -0.1624
 2064TIP3    H227752   1.348   2.975   0.898 -1.0652  0.8820  1.3812
 2065TIP3   OH227753   3.964   5.946   8.807 -0.0027  0.1916  0.0914
 2065TIP3    H127754   4.036   5.983   8.756 -0.5684 -1.1070 -1.7511
 2065TIP3    H227755   4.006   5.898   8.878  0.7764  3.4269  2.0137
 2066TIP3   OH227756   1.797   1.658   0.104  0.7483 -0.2103  0.3813
 2066TIP3    H127757   1.716   1.708   0.098  0.6697  0.2444  3.6476
 2066TIP3    H227758   1.772   1.577   0.149  1.5126 -1.7683 -1.8116
 2067TIP3   OH227759   4.183   5.189   0.745 -0.3370 -0.7274  0.3164
 2067TIP3    H127760   4.261   5.154   0.789  0.1399  0.6635  0.6365
 2067TIP3    H227761   4.115   5.186   0.812 -0.7830 -2.5635 -0.1560
 2068TIP3   OH227762   2.875   6.326   8.507  0.0724  0.4067 -0.3109
 2068TIP3    H127763   2.916   6.281   8.581 -0.7935 -0.2992 -0.2400
 2068TIP3    H227764   2.799   6.370   8.546 -0.2769  0.1933 -0.7421
 2069TIP3   OH227765   3.475   0.941   8.125 -0.8065  0.0922 -0.4208
 2069TIP3    H127766   3.440   0.907   8.042  0.5807  0.9048 -1.3649
 2069TIP3    H227767   3.405   0.922   8.188 -1.4899 -1.4665 -1.5428
 2070TIP3   OH227768   2.864   2.972   8.442 -0.1745 -0.0473 -0.5303
 2070TIP3    H127769   2.920   3.021   8.502  0.8421 -1.0756 -0.6014
 2070TIP3    H227770   2.782   2.960   8.490  0.1934  0.1986  0.1744
 2071TIP3   OH227771   5.485   4.429   7.616  0.6057  0.4611  0.8332
 2071TIP3    H127772   5.560   4.371   7.632 -0.1920 -1.1400 -0.9732
 2071TIP3    H227773   5.488   4.448   7.523 -1.9764 -0.7620  0.4188
 2072TIP3   OH227774   1.771   0.720   1.219  0.5866  0.0504 -0.3827
 2072TIP3    H127775   1.707   0.668   1.170  1.1782 -0.8409 -0.2423
 2072TIP3    H227776   1.774   0.679   1.305  0.0992  1.1525  0.1805
 2073TIP3   OH227777   5.716   6.607   2.190 -0.1955  0.3127  0.0917
 2073TIP3    H127778   5.699   6.513   2.191  1.0532 -0.0299 -2.6666
 2073TIP3    H227779   5.678   6.639   2.272 -3.5461 -2.0627 -0.3279
 2074TIP3   OH227780   2.665   5.148   7.658 -0.2406 -0.4102 -0.3167
 2074TIP3    H127781   2.594   5.207   7.632  0.0173  0.2615  0.4408
 2074TIP3    H227782   2.702   5.189   7.736 -0.9538 -2.3129  1.0807
 2075TIP3   OH227783   3.514   5.482   1.787  0.2897  0.2054  0.0374
 2075TIP3    H127784   3.601   5.499   1.822  1.0299 -1.0680 -1.0966
 2075TIP3    H227785   3.520   5.506   1.695 -0.9150  1.2061  0.1966
 2076TIP3   OH227786   3.034   3.340   0.223 -0.1536  0.1413  0.2286
 2076TIP3    H127787   2.989   3.258   0.201  1.1178 -1.5605  3.3035
 2076TIP3    H227788   3.085   3.360   0.145 -0.7144 -1.8421 -0.7395
 2077TIP3   OH227789   5.291   6.145   8.669 -0.0380  0.2800  0.3230
 2077TIP3    H127790   5.341   6.087   8.725 -0.2257 -0.7138 -0.5002
 2077TIP3    H227791   5.201   6.113   8.674  0.0866 -0.4355 -1.2328
 2078TIP3   OH227792   2.286   1.472   1.556  0.2547  0.2330 -0.0958
 2078TIP3    H127793   2.253   1.384   1.536  1.7876  0.0286 -1.9902
 2078TIP3    H227794   2.207   1.525   1.569 -0.7906 -0.7860 -1.8864
 2079TIP3   OH227795   6.362   2.835   0.985  0.0302 -0.2672  0.0659
 2079TIP3    H127796   6.433   2.828   1.049 -0.0652 -1.6019  0.0529
 2079TIP3    H227797   6.396   2.895   0.918  0.4149  0.5591  0.9685
 2080TIP3   OH227798   1.735   0.046   0.645  0.3316 -0.0699 -0.0850
 2080TIP3    H127799   1.646   0.037   0.680  0.1448 -1.5341 -0.8953
 2080TIP3    H227800   1.736  -0.008   0.567  1.4701  1.2324 -1.0178
 2081TIP3   OH227801   1.145   5.400   7.231  0.1825  0.1688 -0.2858
 2081TIP3    H127802   1.215   5.445   7.279 -0.4770 -0.2331  1.0985
 2081TIP3    H227803   1.077   5.466   7.222 -0.1331 -0.0763  0.3024
 2082TIP3   OH227804   3.842   4.061   6.750  0.6812 -0.2610  0.4736
 2082TIP3    H127805   3.918   4.102   6.710  0.2638  0.5238  0.4648
 2082TIP3    H227806   3.767   4.111   6.717 -0.1262 -2.7299 -1.7648
 2083TIP3   OH227807   6.460   0.180   8.340 -0.0501 -0.2122 -0.2839
 2083TIP3    H127808   6.541   0.228   8.326 -1.5990  2.2608 -1.6425
 2083TIP3    H227809   6.437   0.145   8.254 -0.6784 -0.3845 -0.0569
 2084TIP3   OH227810   4.497   5.045   6.799  0.0752 -0.6828 -0.6178
 2084TIP3    H127811   4.578   5.083   6.833 -0.0600  0.2405 -1.3052
 2084TIP3    H227812   4.428   5.105   6.828 -0.2503 -0.8978 -0.9373
 2085TIP3   OH227813   4.868   2.967   1.818 -0.2364 -0.7764 -0.0621
 2085TIP3    H127814   4.858   2.872   1.808  2.4145 -1.3314  1.5046
 2085TIP3    H227815   4.818   2.989   1.896 -0.0321 -1.0573  0.1467
 2086TIP3   OH227816   1.181   0.775   8.032 -0.0031 -0.3923 -0.3654
 2086TIP3    H127817   1.247   0.714   8.066  0.2206  0.5488  0.9756
 2086TIP3    H227818   1.098   0.730   8.044  0.2118 -0.6854  0.0510
 2087TIP3   OH227819   2.737   5.844   7.783  0.0903  0.2111  0.0909
 2087TIP3    H127820   2.748   5.825   7.876 -1.1433 -1.4110 -0.0423
 2087TIP3    H227821   2.824   5.831   7.745  0.5424  0.6176  0.9672
 2088TIP3   OH227822   3.128   1.685   7.069  0.0396  0.5453 -0.0826
 2088TIP3    H127823   3.140   1.777   7.092  0.4356  0.8936 -1.5634
 2088TIP3    H227824   3.148   1.681   6.975 -2.1069 -0.6332 -0.5593
 2089TIP3   OH227825   1.832   0.221   8.277  0.1553 -0.1473 -0.8096
 2089TIP3    H127826   1.924   0.198   8.262  1.1277  2.1502  0.8803
 2089TIP3    H227827   1.798   0.151   8.333  1.5085 -0.0687  0.1693
 2090TIP3   OH227828   3.662   6.413   1.270 -0.3200  0.3121  0.5419
 2090TIP3    H127829   3.598   6.436   1.203 -1.1488 -3.1104 -0.0053
 2090TIP3    H227830   3.611   6.368   1.337  1.2148 -0.6968  1.0815
 2091TIP3   OH227831   6.015   5.930   6.948  0.0697 -0.1951  0.5612
 2091TIP3    H127832   6.058   5.934   6.863 -1.2356  1.8183 -0.0734
 2091TIP3    H227833   5.968   5.847   6.948  1.9142 -1.2860  0.2957
 2092TIP3   OH227834   6.629   5.683   6.611 -0.4548  0.2202 -0.0816
 2092TIP3    H127835   6.695   5.615   6.600  0.8907  1.6048 -0.7960
 2092TIP3    H227836   6.667   5.744   6.675 -1.4294  0.5810  0.1807
 2093TIP3   OH227837   4.887   5.579   8.293  0.0087 -0.2098  0.0079
 2093TIP3    H127838   4.815   5.518   8.275 -1.5900  1.1924  1.3202
 2093TIP3    H227839   4.897   5.576   8.389  0.4875  0.9218  0.0065
 2094TIP3   OH227840   3.569   0.039   1.207 -0.3500  0.4585 -0.5367
 2094TIP3    H127841   3.566   0.004   1.118 -0.3224 -2.0360  0.3802
 2094TIP3    H227842   3.478   0.052   1.231 -0.5103 -1.1943 -0.1214
 2095TIP3   OH227843   3.258   4.893   8.317  0.0873  0.5785  0.2343
 2095TIP3    H127844   3.332   4.883   8.377  0.0090  1.8989  0.5868
 2095TIP3    H227845   3.286   4.962   8.257 -0.2210 -0.0618 -0.6551
 2096TIP3   OH227846   3.024   0.851   8.789 -0.2648  0.3355  1.2303
 2096TIP3    H127847   2.939   0.880   8.756 -0.0382 -0.5509 -0.2388
 2096TIP3    H227848   3.004   0.775   8.844 -0.3397 -0.6988 -0.1913
 2097TIP3   OH227849   3.507   4.708   7.055 -0.0873  0.7604 -0.0357
 2097TIP3    H127850   3.467   4.781   7.102 -0.4948  0.8396 -0.5007
 2097TIP3    H227851   3.520   4.741   6.966  0.4056  0.5129 -0.0607
 2098TIP3   OH227852   3.738   3.739   7.033 -0.2497 -0.1173  0.0082
 2098TIP3    H127853   3.765   3.677   7.101 -2.6290  0.3379  1.4976
 2098TIP3    H227854   3.817   3.754   6.981  0.9059 -2.7803  0.8467
 2099TIP3   OH227855   3.650   0.367   7.742 -0.0993  0.1995 -0.0061
 2099TIP3    H127856   3.580   0.418   7.782  1.0411  1.2034  0.7701
 2099TIP3    H227857   3.668   0.413   7.660 -1.2698 -0.8782 -0.9189
 2100TIP3   OH227858   6.048   1.701   2.829  0.7958 -0.4252 -0.5948
 2100TIP3    H127859   6.071   1.738   2.744 -2.2609 -0.6210 -1.6096
 2100TIP3    H227860   6.004   1.618   2.808 -0.5004 -0.2145  1.1260
 2101TIP3   OH227861   4.203   0.578   8.762  0.5717  0.9617 -0.1983
 2101TIP3    H127862   4.130   0.518   8.747  0.8827  0.8523 -1.4245
 2101TIP3    H227863   4.259   0.566   8.685  2.2845  0.4913  1.0819
 2102TIP3   OH227864   2.333   3.723   0.572  0.4559  0.7753  0.3982
 2102TIP3    H127865   2.358   3.791   0.634 -0.5079  3.2560 -1.7254
 2102TIP3    H227866   2.260   3.677   0.613  0.4562  1.7016  1.4690
 2103TIP3   OH227867   4.121   2.697   8.817 -0.1763  0.3547 -0.7900
 2103TIP3    H127868   4.102   2.742   8.900  0.9463  1.3438 -1.0527
 2103TIP3    H227869   4.071   2.615   8.823 -2.1878  1.5666 -0.2615
 2104TIP3   OH227870   5.168   3.840   7.379 -0.0550  0.2983  0.3430
 2104TIP3    H127871   5.098   3.874   7.435  0.4330  0.3762  0.9166
 2104TIP3    H227872   5.177   3.748   7.405 -1.5878 -0.4046 -1.4231
 2105TIP3   OH227873   4.972   5.399   0.105 -0.3315 -0.2969 -0.2581
 2105TIP3    H127874   4.980   5.363   0.017  0.3914 -1.6933  0.3599
 2105TIP3    H227875   5.057   5.441   0.122 -0.4872  0.0135 -0.2322
 2106TIP3   OH227876   0.579   1.079   0.938  0.1987 -0.3170 -0.8365
 2106TIP3    H127877   0.615   1.135   0.868 -0.6566  0.9163 -0.3409
 2106TIP3    H227878   0.655   1.042   0.982  0.9162  1.9732 -0.0050
 2107TIP3   OH227879   5.854   6.177   8.385  0.2038 -0.2576  0.1134
 2107TIP3    H127880   5.810   6.250   8.429 -1.9455 -1.4481  0.0978
 2107TIP3    H227881   5.785   6.111   8.374  1.2114 -0.9943 -2.8489
 2108TIP3   OH227882   3.296   6.620   2.637  0.0204 -0.0116 -0.0056
 2108TIP3    H127883   3.294   6.643   2.545 -1.6884  0.2697  0.0705
 2108TIP3    H227884   3.234   6.679   2.679  0.2708 -0.5682  1.2230
 2109TIP3   OH227885   5.379   3.301   7.625 -0.4081 -0.3129  0.0667
 2109TIP3    H127886   5.294   3.305   7.669 -0.6516  0.2954 -0.4512
 2109TIP3    H227887   5.443   3.316   7.695 -0.7527 -0.1005  0.3407
 2110TIP3   OH227888   4.221   6.567   8.171  0.3429  0.2620  0.2035
 2110TIP3    H127889   4.277   6.626   8.220 -0.4181  0.4881  0.8034
 2110TIP3    H227890   4.261   6.481   8.183  0.7949  0.4785  0.2780
 2111TIP3   OH227891   1.642   5.676   8.132  0.3195  0.1245 -0.4564
 2111TIP3    H127892   1.549   5.699   8.142  0.4541  0.1704  0.9033
 2111TIP3    H227893   1.672   5.662   8.222  1.8636  1.0076 -0.8116
 2112TIP3   OH227894   4.214   5.619   8.535  0.1580  0.1385 -0.5820
 2112TIP3    H127895   4.269   5.692   8.565  0.6869 -0.5211  0.1058
 2112TIP3    H227896   4.274   5.565   8.482  0.1377 -0.5027  0.0395
 2113TIP3   OH227897   2.357   5.014   8.052 -0.5414 -0.1875  0.3633
 2113TIP3    H127898   2.406   4.933   8.040 -0.2165 -0.1232  1.2232
 2113TIP3    H227899   2.336   5.042   7.963 -1.1371 -1.4951  0.0624
 2114TIP3   OH227900   1.486   5.229   8.509 -0.3515 -0.1862  0.1053
 2114TIP3    H127901   1.478   5.264   8.598 -0.1865  0.2932 -0.0673
 2114TIP3    H227902   1.421   5.158   8.506 -1.0591  0.4315  0.2955
 2115TIP3   OH227903   1.451   4.069   7.318  0.1825  0.0627  0.1998
 2115TIP3    H127904   1.442   4.082   7.412  2.0776 -2.3601  0.8054
 2115TIP3    H227905   1.363   4.047   7.288 -0.2173 -0.3860  1.6451
 2116TIP3   OH227906   0.134   4.499   0.403  0.0882 -1.2778 -0.5045
 2116TIP3    H127907   0.104   4.551   0.478  1.0045  0.0963 -1.0553
 2116TIP3    H227908   0.083   4.418   0.408  0.0627 -1.1780  1.5430
 2117TIP3   OH227909   3.447   5.293   1.059  0.6599 -0.2029  0.7514
 2117TIP3    H127910   3.408   5.226   1.115  3.0644 -1.9134  0.5342
 2117TIP3    H227911   3.514   5.334   1.114  1.0885  0.0953  0.0215
 2118TIP3   OH227912   2.575   2.695   7.785  0.2893 -0.1219  0.4683
 2118TIP3    H127913   2.597   2.633   7.715  2.2382  1.3355 -0.2893
 2118TIP3    H227914   2.535   2.768   7.739  0.5410  0.3647  1.0204
 2119TIP3   OH227915   4.786   1.806   0.399 -0.4561 -0.0490  0.2910
 2119TIP3    H127916   4.839   1.728   0.416  0.2660  0.3250 -0.1863
 2119TIP3    H227917   4.839   1.859   0.339 -1.4014  0.3087 -0.2552
 2120TIP3   OH227918   3.254   0.285   8.510 -0.3683 -0.1029  0.0960
 2120TIP3    H127919   3.310   0.217   8.472 -0.6652 -0.8396  0.9252
 2120TIP3    H227920   3.208   0.240   8.582  2.9083  1.9897  3.9232
 2121TIP3   OH227921   3.577   6.531   7.882  0.2420  0.2511 -0.2560
 2121TIP3    H127922   3.532   6.601   7.929  0.0785  0.6306 -0.9618
 2121TIP3    H227923   3.563   6.453   7.935  0.5437  0.7763  0.6140
 2122TIP3   OH227924   5.061   3.372   2.064 -0.0604  0.1555  0.2769
 2122TIP3    H127925   5.042   3.291   2.017  0.5427 -1.4811  2.6238
 2122TIP3    H227926   5.069   3.438   1.996 -1.4018 -1.5672 -1.7003
 2123TIP3   OH227927   5.914   1.826   6.966  0.4275  0.2500 -0.1635
 2123TIP3    H127928   5.870   1.893   6.913 -0.1733  0.9986  1.2150
 2123TIP3    H227929   5.847   1.759   6.981  1.1458 -0.9074 -1.8808
 2124TIP3   OH227930   3.275   1.857   7.444  0.5813  0.3943 -0.6273
 2124TIP3    H127931   3.218   1.849   7.520  1.0352 -2.3666 -0.4968
 2124TIP3    H227932   3.229   1.920   7.387 -0.7734  0.9608  0.9913
 2125TIP3   OH227933   0.218   3.678   7.966 -0.5486 -0.1458 -0.4647
 2125TIP3    H127934   0.232   3.684   8.061 -2.2998  0.5753 -0.2263
 2125TIP3    H227935   0.282   3.739   7.929 -0.7561  0.5690  0.3356
 2126TIP3   OH227936   3.227   5.818   2.315 -0.2549 -0.0288  0.0962
 2126TIP3    H127937   3.275   5.737   2.298  0.3725  0.4558 -0.5179
 2126TIP3    H227938   3.293   5.878   2.350 -0.1434  0.9479 -1.6313
 2127TIP3   OH227939   2.473   0.198   1.816 -0.2739 -0.0753  0.1819
 2127TIP3    H127940   2.436   0.228   1.899  0.1918  0.7926  0.0889
 2127TIP3    H227941   2.554   0.248   1.806 -0.1499 -0.4192 -0.6308
 2128TIP3   OH227942   1.451   0.750   1.420 -0.1869 -0.3667 -0.5954
 2128TIP3    H127943   1.395   0.812   1.373  2.1028  1.8401 -0.6559
 2128TIP3    H227944   1.429   0.665   1.383 -3.6781  0.2566 -0.3529
 2129TIP3   OH227945   3.299   1.771   2.181 -0.4754  0.0665  0.0975
 2129TIP3    H127946   3.365   1.782   2.113 -3.1036  0.9473 -2.5584
 2129TIP3    H227947   3.298   1.677   2.199 -0.5677 -0.3987 -2.1041
 2130TIP3   OH227948   6.369   5.583   8.262 -0.1801  0.2240  0.1200
 2130TIP3    H127949   6.452   5.556   8.303 -0.1924 -0.4765 -0.2988
 2130TIP3    H227950   6.352   5.516   8.196 -2.8268 -1.6453  2.4524
 2131TIP3   OH227951   2.770   3.357   0.615  0.1418  0.3582 -0.2960
 2131TIP3    H127952   2.766   3.406   0.697  1.1831 -1.9135  1.2231
 2131TIP3    H227953   2.845   3.395   0.569  0.7047  0.4830  0.6788
 2132TIP3   OH227954   6.332   1.641   1.375 -0.6025 -0.1092 -0.3721
 2132TIP3    H127955   6.336   1.737   1.372 -0.8963 -0.1129 -1.1928
 2132TIP3    H227956   6.423   1.613   1.380 -0.4945  0.2033 -0.5634
 2133TIP3   OH227957   0.800   0.674   1.084 -0.6345 -0.2911  0.6049
 2133TIP3    H127958   0.724   0.684   1.028  0.4440 -1.1694 -1.1005
 2133TIP3    H227959   0.779   0.599   1.141 -0.6912 -1.1565 -0.5240
 2134TIP3   OH227960   2.360   2.665   0.695  0.2883  0.5584  0.0348
 2134TIP3    H127961   2.362   2.675   0.600  2.0399 -0.3468 -0.0660
 2134TIP3    H227962   2.296   2.596   0.710  1.8880 -1.2110 -0.7612
 2135TIP3   OH227963   4.469   1.133   8.865 -0.3253  0.1306  0.1404
 2135TIP3    H127964   4.432   1.047   8.886 -1.4916  0.7358  0.6694
 2135TIP3    H227965   4.509   1.122   8.779 -0.5422 -0.9058  0.1594
 2136TIP3   OH227966   3.639   5.970   1.442  0.4299 -0.0707  0.1241
 2136TIP3    H127967   3.548   5.941   1.434  0.5891 -0.1403 -1.8763
 2136TIP3    H227968   3.637   6.036   1.512 -1.3335  0.6292 -0.5297
 2137TIP3   OH227969   6.222   1.530   1.604 -0.3908 -0.5857 -0.0297
 2137TIP3    H127970   6.241   1.573   1.520  1.9120 -0.2115  0.6143
 2137TIP3    H227971   6.244   1.438   1.589 -1.3375 -0.7954 -0.2103
 2138TIP3   OH227972   4.898   2.631   1.382 -0.2740  0.4364 -0.1026
 2138TIP3    H127973   4.905   2.713   1.333  2.3338  0.1572 -0.3354
 2138TIP3    H227974   4.947   2.646   1.462 -0.7468 -0.5472  0.3919
 2139TIP3   OH227975   3.026   1.091   6.409  0.1670  0.0578  0.2461
 2139TIP3    H127976   3.106   1.067   6.455 -1.0042 -0.0449  2.3682
 2139TIP3    H227977   3.033   1.186   6.397  1.3832 -0.1880 -1.2532
 2140TIP3   OH227978   1.828   1.433   6.983  0.3314  0.5774  0.2450
 2140TIP3    H127979   1.853   1.446   7.075  0.7503  2.0884 -0.0683
 2140TIP3    H227980   1.906   1.454   6.933 -0.0529  0.2798 -0.4907
 2141TIP3   OH227981   3.956   5.899   7.861 -1.1082  0.1932 -0.3752
 2141TIP3    H127982   3.910   5.938   7.936 -1.1571  1.1021 -0.8628
 2141TIP3    H227983   3.887   5.854   7.812 -1.1115 -0.2265  0.0103
 2142TIP3   OH227984   0.680   0.394   0.052 -0.2775 -0.5981 -0.1610
 2142TIP3    H127985   0.593   0.397   0.012  0.5536  0.1902 -2.0228
 2142TIP3    H227986   0.736   0.445  -0.008  0.6894  2.4689  3.0216
 2143TIP3   OH227987   2.153   6.335   0.856 -0.0864  0.2993  0.2560
 2143TIP3    H127988   2.105   6.253   0.868  1.3133 -0.4830  0.6634
 2143TIP3    H227989   2.159   6.345   0.761 -0.0320 -0.1966  0.2072
 2144TIP3   OH227990   2.676   4.939   8.219  0.1440 -0.3763 -0.2727
 2144TIP3    H127991   2.733   4.882   8.271 -0.7525  0.1152  1.2965
 2144TIP3    H227992   2.608   4.881   8.186 -2.9873  0.1440  4.4193
 2145TIP3   OH227993   3.488   6.145   7.042  0.1187  0.5299 -0.4714
 2145TIP3    H127994   3.441   6.141   6.959  1.7010 -0.3340 -1.3781
 2145TIP3    H227995   3.579   6.128   7.019  0.6934  0.8461  1.3775
 2146TIP3   OH227996   4.206   0.388   0.271  0.0111 -0.3451 -0.0686
 2146TIP3    H127997   4.296   0.375   0.300  0.1963 -0.6082 -0.7364
 2146TIP3    H227998   4.155   0.321   0.318 -0.3684  1.6378  2.6004
 2147TIP3   OH227999   3.482   2.872   8.416 -0.5662  0.4137  0.4988
 2147TIP3    H128000   3.546   2.865   8.345 -0.2471  3.5641  0.3412
 2147TIP3    H228001   3.400   2.844   8.377  0.2822 -1.8393  0.1543
 2148TIP3   OH228002   3.518   2.103   0.106  0.2473  0.1971 -0.1595
 2148TIP3    H128003   3.442   2.161   0.109 -1.0391 -1.3695 -0.6931
 2148TIP3    H228004   3.551   2.111   0.016 -1.2595 -1.3990 -0.9368
 2149TIP3   OH228005   4.019   3.323   2.187  0.5829  0.0968  0.0926
 2149TIP3    H128006   3.958   3.323   2.113 -1.8682 -2.6724  1.8703
 2149TIP3    H228007   4.032   3.416   2.206 -0.2643  0.8585 -2.5245
 2150TIP3   OH228008   4.812   4.981   1.632  0.1447 -0.0657  0.1618
 2150TIP3    H128009   4.758   5.052   1.668  0.0913  0.6344 -1.2176
 2150TIP3    H228010   4.900   5.017   1.627 -0.1658  0.5246 -2.0246
 2151TIP3   OH228011   3.005   6.644   8.448 -0.6187 -0.1382  0.4123
 2151TIP3    H128012   3.018   6.683   8.362 -0.4420 -0.0945  0.4573
 2151TIP3    H228013   2.912   6.624   8.452 -0.4573 -1.0723 -0.1819
 2152TIP3   OH228014   1.053   5.462   2.129  0.8052 -0.2465  0.3617
 2152TIP3    H128015   1.145   5.476   2.150  0.5712 -0.7650  1.8827
 2152TIP3    H228016   1.021   5.549   2.104  2.4255 -0.5874 -3.6259
 2153TIP3   OH228017   2.512   1.238   1.680 -0.0984 -0.1243  0.0252
 2153TIP3    H128018   2.527   1.176   1.608 -0.3669  0.3980 -0.4916
 2153TIP3    H228019   2.518   1.324   1.638 -2.1344  0.1648  0.2521
 2154TIP3   OH228020   1.754   1.946   0.222  0.1619  0.2265 -0.5377
 2154TIP3    H128021   1.759   1.986   0.308 -1.1958 -0.1186 -0.2692
 2154TIP3    H228022   1.823   1.879   0.222 -0.4922 -0.4839  0.6876
 2155TIP3   OH228023   1.354   4.270   1.380  1.0982  0.5755 -0.5830
 2155TIP3    H128024   1.413   4.316   1.440  2.4729 -0.2932 -1.2077
 2155TIP3    H228025   1.284   4.238   1.436  1.2144  1.6022  0.1988
 2156TIP3   OH228026   3.990   2.791   0.836 -0.1843 -0.3695  0.5389
 2156TIP3    H128027   4.003   2.886   0.834  0.3419 -0.4371 -1.3555
 2156TIP3    H228028   3.931   2.774   0.762 -1.3256 -1.4058  1.6374
 2157TIP3   OH228029   2.894   4.490   6.993  0.7634 -0.2472  0.0552
 2157TIP3    H128030   2.880   4.556   6.925  1.4558 -1.0504 -0.9023
 2157TIP3    H228031   2.872   4.407   6.951 -0.3628 -0.6318  1.3217
 2158TIP3   OH228032   2.499   4.525   8.769 -0.2248 -0.3318  0.2278
 2158TIP3    H128033   2.574   4.536   8.827 -0.6739  1.4608  0.5312
 2158TIP3    H228034   2.436   4.475   8.820  0.0079 -0.1418  0.7072
 2159TIP3   OH228035   1.782   2.579   0.180  0.3327 -0.5979  0.3018
 2159TIP3    H128036   1.773   2.507   0.242  0.2876 -0.6247  0.2640
 2159TIP3    H228037   1.719   2.559   0.111 -0.3220 -0.0646  0.7258
 2160TIP3   OH228038   2.640   0.359   6.736 -0.2367  0.2461  0.4003
 2160TIP3    H128039   2.565   0.344   6.794 -1.0261  0.5354 -0.5166
 2160TIP3    H228040   2.705   0.404   6.791 -1.3705  1.4503  0.8048
 2161TIP3   OH228041   0.631   2.917   7.084  0.3044  0.0255  0.0233
 2161TIP3    H128042   0.652   2.948   6.997  0.2532 -0.0291 -0.0087
 2161TIP3    H228043   0.670   2.829   7.088 -0.3375 -0.2800 -0.2128
 2162TIP3   OH228044   4.924   4.889   0.164  0.0213 -0.7845 -0.2345
 2162TIP3    H128045   4.931   4.973   0.209 -1.1870 -0.3392 -0.8056
 2162TIP3    H228046   4.919   4.913   0.071  0.4171 -1.5398 -0.4543
 2163TIP3   OH228047   6.117   2.946   1.181 -0.5088  0.3842 -0.3233
 2163TIP3    H128048   6.155   2.921   1.097 -0.1590  2.2960 -0.7804
 2163TIP3    H228049   6.191   2.949   1.241 -0.4829  0.6825 -0.3680
 2164TIP3   OH228050   0.993   1.773   8.027 -0.2240 -0.4124  0.5269
 2164TIP3    H128051   1.053   1.842   7.999  0.6177 -1.5179 -0.5158
 2164TIP3    H228052   1.040   1.692   8.007 -1.8294 -1.3052  0.2182
 2165TIP3   OH228053   3.698   5.849   7.450 -0.4607 -0.7345  0.3197
 2165TIP3    H128054   3.732   5.775   7.401 -1.1776 -1.3174  0.6711
 2165TIP3    H228055   3.610   5.864   7.413  0.4928  1.4089 -1.3054
 2166TIP3   OH228056   1.565   0.793   2.579 -0.1152  0.5042 -0.6302
 2166TIP3    H128057   1.541   0.757   2.494 -1.5248 -0.6810  0.2476
 2166TIP3    H228058   1.660   0.778   2.585  0.0945  1.0362 -2.1637
 2167TIP3   OH228059   4.859   5.763   0.850  0.1063  0.1100 -0.1537
 2167TIP3    H128060   4.905   5.828   0.903 -0.4709 -1.2223  2.1253
 2167TIP3    H228061   4.788   5.813   0.808  0.3802  1.1674  0.5901
 2168TIP3   OH228062   5.842   3.210   1.795  0.0480 -0.6488 -0.3974
 2168TIP3    H128063   5.768   3.213   1.855 -0.1733  2.0918 -0.6880
 2168TIP3    H228064   5.803   3.219   1.708  0.6905  0.5431 -0.5788
 2169TIP3   OH228065   3.766   0.997   0.547 -0.0962  0.2072 -0.1400
 2169TIP3    H128066   3.761   0.933   0.618  0.1205  1.4925  1.0716
 2169TIP3    H228067   3.859   0.998   0.522 -0.0213  0.3460  0.1372
 2170TIP3   OH228068   2.175   5.634   8.011  0.4488 -0.6271  0.1705
 2170TIP3    H128069   2.176   5.720   8.052 -0.0427 -0.5403  0.0133
 2170TIP3    H228070   2.242   5.639   7.943 -0.5786  0.1306 -0.8153
 2171TIP3   OH228071   4.551   6.596   7.299 -0.0490  0.0846  0.5722
 2171TIP3    H128072   4.619   6.608   7.365 -1.0077  1.1683  1.4119
 2171TIP3    H228073   4.471   6.583   7.350 -0.5628 -0.7166 -0.3941
 2172TIP3   OH228074   3.480   2.418   1.924 -1.1393 -0.2696 -0.0743
 2172TIP3    H128075   3.393   2.402   1.889 -1.4750  1.3111 -0.0619
 2172TIP3    H228076   3.465   2.463   2.007 -0.3136 -1.4985  0.7737
 2173TIP3   OH228077   1.421   6.023   2.172  0.4244 -0.0221  0.2672
 2173TIP3    H128078   1.364   5.947   2.180  0.1718  0.2403  1.1392
 2173TIP3    H228079   1.409   6.071   2.254 -2.8861  3.3805 -1.8719
 2174TIP3   OH228080   2.465   1.428   1.225 -0.1904  0.0430  0.0450
 2174TIP3    H128081   2.461   1.446   1.318  1.2651 -0.6307  0.2788
 2174TIP3    H228082   2.525   1.353   1.218  3.0528  2.5164 -1.6573
 2175TIP3   OH228083   0.424   4.256   6.766 -0.3806 -0.0076  0.1033
 2175TIP3    H128084   0.512   4.267   6.730  0.5881  0.1296  2.3346
 2175TIP3    H228085   0.386   4.343   6.763 -0.0689  0.1281 -0.0046
 2176TIP3   OH228086   5.082   5.321   8.721  0.2902  0.2506 -0.3640
 2176TIP3    H128087   5.075   5.339   8.627  0.1994 -0.0682 -0.4189
 2176TIP3    H228088   5.076   5.226   8.728 -0.2512  0.3108  0.0156
 2177TIP3   OH228089   6.509   6.340   2.083 -0.6493  0.5089  0.0190
 2177TIP3    H128090   6.548   6.414   2.129 -0.1360 -0.3521  1.0100
 2177TIP3    H228091   6.584   6.289   2.051 -0.9058 -0.8070  1.3710
 2178TIP3   OH228092   4.377   2.929   0.869  0.2070  0.3145  0.1832
 2178TIP3    H128093   4.471   2.919   0.852  0.4249 -1.5860  2.1274
 2178TIP3    H228094   4.335   2.908   0.785  1.4519  0.7356 -0.5843
 2179TIP3   OH228095   4.334   5.381   0.307 -0.2674  0.0093  0.1963
 2179TIP3    H128096   4.330   5.302   0.253  1.4233  0.3393 -0.4851
 2179TIP3    H228097   4.402   5.435   0.265  0.3855  0.7334  2.0742
 2180TIP3   OH228098   0.607   2.023   1.334  0.0547  0.2489 -0.0785
 2180TIP3    H128099   0.601   2.115   1.361 -0.8677  0.4173 -0.8043
 2180TIP3    H228100   0.642   2.027   1.244 -0.3246 -0.0783 -0.2433
 2181TIP3   OH228101   1.127   4.977   1.404 -0.1320  0.0148  0.2360
 2181TIP3    H128102   1.045   4.987   1.356 -0.1574  0.6698  0.4068
 2181TIP3    H228103   1.141   4.882   1.409 -1.5990 -0.1710  1.4373
 2182TIP3   OH228104   0.842   2.488   8.079  0.2546  0.7708  0.1019
 2182TIP3    H128105   0.793   2.490   7.997  0.2399  0.7630  0.1102
 2182TIP3    H228106   0.818   2.570   8.123 -2.8516 -0.9323  1.9256
 2183TIP3   OH228107   0.490   0.288   1.375  0.0081 -0.6933 -0.3757
 2183TIP3    H128108   0.417   0.244   1.333 -0.2354 -0.9257  0.2757
 2183TIP3    H228109   0.496   0.247   1.462  0.2099  0.0873 -0.0138
 2184TIP3   OH228110   3.029   0.934   0.302  0.1930 -0.0494 -0.1709
 2184TIP3    H128111   3.089   0.901   0.369 -0.8282 -0.1458  0.7139
 2184TIP3    H228112   2.944   0.899   0.326 -0.4597  1.1233 -0.6899
 2185TIP3   OH228113   0.123   4.496   0.817  0.4261  0.2154 -0.2887
 2185TIP3    H128114   0.035   4.463   0.835  1.2117 -2.2978 -0.6915
 2185TIP3    H228115   0.172   4.478   0.898  0.6517  1.4364 -0.1274
 2186TIP3   OH228116   5.126   0.667   0.021  0.1066 -0.3432 -0.3733
 2186TIP3    H128117   5.073   0.730  -0.029 -1.9156 -2.7413 -1.4989
 2186TIP3    H228118   5.208   0.661  -0.028  0.4295  1.4286 -0.1478
 2187TIP3   OH228119   5.577   6.766   2.370  0.1581  0.3850  0.3622
 2187TIP3    H128120   5.527   6.832   2.324 -0.1016  1.4947  2.1388
 2187TIP3    H228121   5.661   6.808   2.389 -0.3867  0.6452  2.4151
 2188TIP3   OH228122   4.060   2.817   8.237 -0.6076  0.9635  0.6919
 2188TIP3    H128123   4.049   2.725   8.214 -2.9395  1.3055  0.2394
 2188TIP3    H228124   4.124   2.850   8.174  0.2252 -0.3129  0.8336
 2189TIP3   OH228125   6.452   1.104   1.922  0.4785  0.0516 -0.0815
 2189TIP3    H128126   6.523   1.164   1.943  0.9704 -0.3318 -0.6133
 2189TIP3    H228127   6.379   1.160   1.899  0.9953  0.4519 -0.7736
 2190TIP3   OH228128   4.540   2.202   8.728  0.4326  0.0631  0.0228
 2190TIP3    H128129   4.570   2.288   8.700  0.4883  0.0394  0.0089
 2190TIP3    H228130   4.505   2.217   8.816  2.4274 -0.2762  0.9413
 2191TIP3   OH228131   5.037   0.581   1.284 -0.0341 -0.3330  0.0951
 2191TIP3    H128132   4.952   0.539   1.274  1.0152 -2.3631 -0.8391
 2191TIP3    H228133   5.043   0.642   1.211  0.2251 -1.9330 -1.2949
 2192TIP3   OH228134   2.508   6.219   0.543  0.2452 -0.5995 -0.7262
 2192TIP3    H128135   2.584   6.249   0.493  0.6004 -0.3456 -0.0584
 2192TIP3    H228136   2.473   6.146   0.493  0.2135  0.0427 -1.6572
 2193TIP3   OH228137   5.614   4.381   2.596  0.0067 -0.1051  0.4807
 2193TIP3    H128138   5.581   4.460   2.553  2.6416  0.6798 -0.3546
 2193TIP3    H228139   5.702   4.370   2.559 -0.0371 -3.0943  1.0704
 2194TIP3   OH228140   3.508   4.852   8.456  0.3408 -0.2651 -0.5279
 2194TIP3    H128141   3.501   4.789   8.529 -0.2823  2.6073  2.1084
 2194TIP3    H228142   3.601   4.871   8.449  0.3825 -0.4011 -0.3505
 2195TIP3   OH228143   5.770   6.131   6.878 -0.3587 -0.2106 -0.0644
 2195TIP3    H128144   5.805   6.148   6.966 -1.4356 -1.5889  0.6914
 2195TIP3    H228145   5.702   6.198   6.865  1.3540  1.4459 -0.8569
 2196TIP3   OH228146   5.805   4.569   1.695  0.1440  0.3725  0.7573
 2196TIP3    H128147   5.801   4.505   1.766  2.0144 -1.0389 -0.2994
 2196TIP3    H228148   5.871   4.633   1.724 -0.3799  0.7889  1.0334
 2197TIP3   OH228149   1.263   0.866   7.317 -0.1166  0.0882 -1.4174
 2197TIP3    H128150   1.308   0.887   7.399 -3.9701 -1.6282  1.4403
 2197TIP3    H228151   1.319   0.800   7.276  1.1170 -0.3221  0.7444
 2198TIP3   OH228152   6.253   4.205   0.751 -0.2593  0.2470 -0.2408
 2198TIP3    H128153   6.271   4.202   0.845  0.1845 -1.9438 -0.3396
 2198TIP3    H228154   6.157   4.212   0.746 -0.1855  2.3089  0.3177
 2199TIP3   OH228155   1.784   3.298   7.189 -0.0968  0.3456  0.5628
 2199TIP3    H128156   1.808   3.385   7.157  1.0851 -0.9329 -2.3498
 2199TIP3    H228157   1.866   3.261   7.220 -0.4833  0.0266  1.2195
 2200TIP3   OH228158   0.524   0.865   1.861 -0.2538  0.0852 -0.0198
 2200TIP3    H128159   0.563   0.782   1.889  0.5404  0.6362  0.5666
 2200TIP3    H228160   0.434   0.861   1.894 -1.0779 -1.6110 -2.2219
 2201TIP3   OH228161   2.749   5.565   7.782  0.4688 -0.0889 -0.0302
 2201TIP3    H128162   2.822   5.599   7.833  0.4500  0.9780 -0.6850
 2201TIP3    H228163   2.697   5.643   7.759  0.2533 -0.5771 -1.3089
 2202TIP3   OH228164   1.347   2.851   2.102 -0.0534  0.7439 -0.2174
 2202TIP3    H128165   1.433   2.853   2.142 -0.0781 -0.1489 -0.0824
 2202TIP3    H228166   1.289   2.817   2.170  0.0716 -1.7212 -1.2312
 2203TIP3   OH228167   0.797   2.023   7.133 -0.6138 -0.6718 -0.0011
 2203TIP3    H128168   0.829   1.991   7.048  0.5391  0.7054 -0.1412
 2203TIP3    H228169   0.726   2.083   7.111  0.1480  0.2274 -0.0672
 2204TIP3   OH228170   6.146   5.248   7.855  0.4071  0.1083 -0.1741
 2204TIP3    H128171   6.080   5.308   7.820  0.1836 -0.5263 -0.8805
 2204TIP3    H228172   6.228   5.277   7.814  0.3664  0.1691 -0.2120
 2205TIP3   OH228173   2.172   1.202   2.091  0.0833 -0.1500 -0.7693
 2205TIP3    H128174   2.205   1.157   2.169 -0.2427  0.8267 -0.0429
 2205TIP3    H228175   2.088   1.162   2.073 -0.5383  0.6130  0.3052
 2206TIP3   OH228176   2.399   4.377   8.206 -0.0401  0.4721  0.1884
 2206TIP3    H128177   2.326   4.399   8.264 -0.5640  0.9611 -0.6354
 2206TIP3    H228178   2.362   4.316   8.142  0.3895  0.3590  0.0425
 2207TIP3   OH228179   1.503   5.034   0.832 -0.5740  0.5438 -0.6155
 2207TIP3    H128180   1.551   5.032   0.914 -0.3489  1.5143 -0.7179
 2207TIP3    H228181   1.475   5.125   0.822  1.6311  1.0991 -2.8715
 2208TIP3   OH228182   6.775   1.087   7.179  0.8284  0.0396  0.1080
 2208TIP3    H128183   6.807   1.017   7.236  2.2482  0.8167  0.3266
 2208TIP3    H228184   6.681   1.093   7.198  1.0654 -0.4647  1.5486
 2209TIP3   OH228185   2.735   4.927   2.400 -0.9319 -0.2615 -0.3011
 2209TIP3    H128186   2.829   4.924   2.422 -0.8876  0.2959 -0.3992
 2209TIP3    H228187   2.733   4.925   2.305 -1.0224 -0.2335 -0.2992
 2210TIP3   OH228188   3.455   2.070   1.940  0.7292 -0.5793 -0.1341
 2210TIP3    H128189   3.486   1.991   1.984  1.5606 -0.4202 -0.4193
 2210TIP3    H228190   3.385   2.103   1.996 -0.6644 -2.3217 -0.7405
 2211TIP3   OH228191   1.884   0.499   8.327  0.0904 -0.2672 -0.4670
 2211TIP3    H128192   1.848   0.411   8.331  0.9580 -0.5764  1.6523
 2211TIP3    H228193   1.808   0.557   8.334 -0.2663 -0.8970  1.4675
 2212TIP3   OH228194   4.425   1.628   2.163  0.3847  0.2319 -0.2859
 2212TIP3    H128195   4.506   1.594   2.125  0.9323  2.8636 -1.7505
 2212TIP3    H228196   4.455   1.691   2.229 -0.5767 -1.9025  2.3705
 2213TIP3   OH228197   5.417   6.278   8.048 -0.6011  0.2672 -0.3086
 2213TIP3    H128198   5.423   6.352   7.987 -1.4934  0.3116 -0.3596
 2213TIP3    H228199   5.504   6.239   8.048  0.0361  1.6335  0.1167
 2214TIP3   OH228200   4.372   0.132   8.434  0.0982 -0.0579 -0.1305
 2214TIP3    H128201   4.316   0.205   8.460  2.3662  0.5724  3.7689
 2214TIP3    H228202   4.434   0.170   8.372  1.2481  1.4785  1.8490
 2215TIP3   OH228203   1.137   5.054   7.501  0.1346  0.1266  0.0441
 2215TIP3    H128204   1.135   5.105   7.582  1.2461  0.0935  0.1001
 2215TIP3    H228205   1.075   5.100   7.443 -1.2541 -0.2919  1.1430
 2216TIP3   OH228206   6.506   1.066   8.689  1.0146  0.0591  0.1261
 2216TIP3    H128207   6.496   1.123   8.613  3.7890 -0.2729 -0.5983
 2216TIP3    H228208   6.439   0.999   8.677  0.5552  0.7393 -1.3535
 2217TIP3   OH228209   4.711   0.206   2.434  0.3257  0.2517  0.2385
 2217TIP3    H128210   4.729   0.159   2.352 -3.7043 -1.1575 -0.0513
 2217TIP3    H228211   4.766   0.162   2.499 -0.4226 -2.3911 -0.7778
 2218TIP3   OH228212   1.740   0.908   8.225  0.1906 -0.1273  0.2648
 2218TIP3    H128213   1.692   0.825   8.228 -0.0956 -0.0721 -1.5365
 2218TIP3    H228214   1.702   0.961   8.295 -3.7909  0.5929 -2.1104
 2219TIP3   OH228215   0.350   6.136   1.056 -0.0029  0.1968  0.0464
 2219TIP3    H128216   0.440   6.124   1.027 -0.3665  0.2990 -1.2041
 2219TIP3    H228217   0.321   6.047   1.080  0.6850  0.2933  1.3289
 2220TIP3   OH228218   1.693   5.046   1.954 -0.3174  0.4829 -0.1492
 2220TIP3    H128219   1.698   5.074   2.046  0.7362  0.7999 -0.2788
 2220TIP3    H228220   1.658   5.122   1.908  1.1461  1.1190 -0.2868
 2221TIP3   OH228221   6.709   1.016   8.205  0.4056 -0.2004 -0.3646
 2221TIP3    H128222   6.804   1.022   8.209  0.3561  0.1758  2.1913
 2221TIP3    H228223   6.688   0.936   8.255 -0.6953  1.9348  2.9525
 2222TIP3   OH228224   6.069   5.424   0.555 -0.8560 -0.3168  0.2670
 2222TIP3    H128225   6.077   5.513   0.521  1.3108 -1.1462 -1.6204
 2222TIP3    H228226   5.989   5.390   0.514 -1.1014  0.4102  0.1357
 2223TIP3   OH228227   3.090   2.555   1.120 -0.4683  0.0633  0.1103
 2223TIP3    H128228   3.026   2.498   1.164 -0.5256  0.1273  0.1091
 2223TIP3    H228229   3.037   2.609   1.062 -0.3496 -0.3393 -0.3823
 2224TIP3   OH228230   4.002   4.322   1.782  0.1923 -0.7727  0.2640
 2224TIP3    H128231   4.044   4.402   1.749 -1.4609 -0.0527 -0.2051
 2224TIP3    H228232   4.040   4.310   1.869  0.2494  0.7176  0.4867
 2225TIP3   OH228233   5.709   4.666   2.420  0.1825 -0.3778 -0.3521
 2225TIP3    H128234   5.680   4.726   2.351  0.0930  1.7164  1.3738
 2225TIP3    H228235   5.786   4.623   2.384  1.1552  1.8895 -1.2003
 2226TIP3   OH228236   6.613   3.456   8.004 -0.4175 -0.0116 -0.2290
 2226TIP3    H128237   6.640   3.495   7.921  2.2361  1.4232  1.1444
 2226TIP3    H228238   6.522   3.431   7.992  0.2595 -1.2089 -4.0022
 2227TIP3   OH228239   5.070   6.692   8.633  0.2259 -0.7652  0.2374
 2227TIP3    H128240   5.049   6.756   8.565  0.1836 -0.4234  0.5637
 2227TIP3    H228241   5.073   6.744   8.714 -1.6148 -1.4654  0.7900
 2228TIP3   OH228242   3.426   1.931   7.899 -0.4942 -0.1058 -0.3032
 2228TIP3    H128243   3.443   1.883   7.980  0.7654 -0.1542 -0.5763
 2228TIP3    H228244   3.390   1.866   7.839  1.5518 -0.8552 -0.7934
 2229TIP3   OH228245   6.615   0.524   0.369 -0.2772  0.4607 -0.2348
 2229TIP3    H128246   6.577   0.496   0.452 -0.7930 -0.5763 -0.8076
 2229TIP3    H228247   6.617   0.619   0.374 -1.0422  0.4379  0.6438
 2230TIP3   OH228248   1.453   6.591   0.215  0.1777  0.2981 -0.0264
 2230TIP3    H128249   1.364   6.623   0.205 -0.4615 -1.6276 -1.0790
 2230TIP3    H228250   1.443   6.498   0.239  1.8997  0.2891  0.8588
 2231TIP3   OH228251   4.438   1.193   1.313 -0.1769  0.7116  0.0216
 2231TIP3    H128252   4.391   1.150   1.384 -0.4159 -2.0779 -1.6935
 2231TIP3    H228253   4.371   1.244   1.267 -0.7041 -0.0778 -0.0973
 2232TIP3   OH228254   3.137   4.078   8.351  0.0472  0.5534 -0.5111
 2232TIP3    H128255   3.046   4.058   8.330 -0.8644  3.2783  0.3934
 2232TIP3    H228256   3.144   4.172   8.337  2.7656  0.4058 -0.5691
 2233TIP3   OH228257   5.768   5.150   6.571 -0.1034  0.1489  0.2928
 2233TIP3    H128258   5.771   5.135   6.666  1.3548 -1.0441  0.0882
 2233TIP3    H228259   5.750   5.063   6.534 -1.6409  0.7700 -0.5085
 2234TIP3   OH228260   3.546   6.355   7.666  0.0952  0.0981  0.2067
 2234TIP3    H128261   3.555   6.419   7.738  1.0991  0.6223 -0.3501
 2234TIP3    H228262   3.513   6.276   7.708  2.2013 -0.1371  1.5801
 2235TIP3   OH228263   1.867   6.494   0.889 -0.3857 -0.3860 -0.3021
 2235TIP3    H128264   1.932   6.545   0.842  0.0706  0.1615  0.8858
 2235TIP3    H228265   1.786   6.544   0.879 -0.2516 -0.1808 -0.3650
 2236TIP3   OH228266   3.122   5.978   1.077 -0.0122 -0.3112  0.2308
 2236TIP3    H128267   3.113   6.011   0.987  0.3707 -0.1292  0.2569
 2236TIP3    H228268   3.034   5.983   1.113 -0.4330 -1.5634 -0.5312
 2237TIP3   OH228269   6.388   6.699   0.180 -0.4808 -0.3698  0.1617
 2237TIP3    H128270   6.478   6.667   0.168 -0.2622 -0.4754  1.8966
 2237TIP3    H228271   6.370   6.747   0.099  1.0555 -0.5147 -0.3132
 2238TIP3   OH228272   1.257   3.747   1.680 -0.7572  0.2082  0.3804
 2238TIP3    H128273   1.348   3.778   1.674 -1.1043  1.5473  1.4651
 2238TIP3    H228274   1.206   3.812   1.631 -1.1029 -0.8218 -0.6768
 2239TIP3   OH228275   6.022   5.739   7.194  0.1647  0.3256 -0.2636
 2239TIP3    H128276   6.000   5.771   7.106 -1.9389  0.5097  0.2802
 2239TIP3    H228277   5.978   5.655   7.201  1.5017 -0.3769  0.1470
 2240TIP3   OH228278   4.008   3.518   7.463 -0.2580  0.8820  0.2961
 2240TIP3    H128279   3.974   3.449   7.520  0.0639 -0.0218 -0.5540
 2240TIP3    H228280   3.940   3.584   7.460 -1.5476 -0.4110 -0.5693
 2241TIP3   OH228281   5.577   3.869   7.379 -0.3080  0.3509 -0.3237
 2241TIP3    H128282   5.633   3.939   7.345 -0.2566  0.3093 -0.3247
 2241TIP3    H228283   5.599   3.793   7.325  0.3235  0.0870  0.2989
 2242TIP3   OH228284   3.677   5.741   1.228  0.2569 -0.1533 -0.1817
 2242TIP3    H128285   3.678   5.665   1.286 -3.6482 -0.4173 -0.2134
 2242TIP3    H228286   3.699   5.815   1.285  0.8682 -0.9081  0.5850
 2243TIP3   OH228287   3.530   3.318   1.502  0.2161  0.0168  0.5221
 2243TIP3    H128288   3.522   3.405   1.541 -1.1116  0.6071 -0.9329
 2243TIP3    H228289   3.442   3.299   1.469  0.8457 -1.2406 -0.5113
 2244TIP3   OH228290   5.113   2.047   7.962  0.1269  0.2517  0.4207
 2244TIP3    H128291   5.161   1.998   7.895  0.0383  0.0892  0.4768
 2244TIP3    H228292   5.052   2.102   7.913 -1.9348 -1.8783  0.4154
 2245TIP3   OH228293   6.264   3.990   0.288  0.1605  0.3626 -0.3596
 2245TIP3    H128294   6.246   4.040   0.368 -0.0487  0.9006 -0.7375
 2245TIP3    H228295   6.300   4.055   0.227  1.0291 -0.1914 -0.4616
 2246TIP3   OH228296   5.973   6.689   0.142 -0.3109  0.6257  0.4128
 2246TIP3    H128297   5.984   6.680   0.047  1.3761 -0.3723  0.6554
 2246TIP3    H228298   5.923   6.611   0.167 -0.1244  0.5093  0.4267
 2247TIP3   OH228299   0.503   2.787   7.886  0.0723 -0.1162  0.0680
 2247TIP3    H128300   0.583   2.828   7.851  1.1713 -0.6239  1.8604
 2247TIP3    H228301   0.502   2.812   7.978 -1.8924 -0.1065  0.0791
 2248TIP3   OH228302   0.789   1.472   7.573 -0.1362 -0.3131 -0.1768
 2248TIP3    H128303   0.767   1.441   7.485 -0.7851 -0.8346  0.1643
 2248TIP3    H228304   0.818   1.394   7.620 -0.0103 -0.0769  0.1431
 2249TIP3   OH228305   6.411   6.059   7.839 -0.0011  0.4436  0.4711
 2249TIP3    H128306   6.434   6.068   7.747 -1.1800 -0.9455  0.0091
 2249TIP3    H228307   6.495   6.058   7.885  0.7893 -1.5716 -0.8713
 2250TIP3   OH228308   6.607   6.596   8.642  0.1135 -0.3167 -0.0558
 2250TIP3    H128309   6.626   6.519   8.588 -0.9925 -2.1811  2.0636
 2250TIP3    H228310   6.545   6.646   8.589  1.1827 -0.6269 -1.6707
 2251TIP3   OH228311   4.346   1.292   7.418  0.3500 -0.3973  0.0003
 2251TIP3    H128312   4.409   1.361   7.395 -2.0149  1.9144 -0.0099
 2251TIP3    H228313   4.393   1.237   7.481  2.2748  1.3524  0.2042
 2252TIP3   OH228314   6.751   5.837   7.586 -0.2286 -0.4339 -0.2106
 2252TIP3    H128315   6.789   5.908   7.533 -2.4216 -0.5672 -2.0806
 2252TIP3    H228316   6.757   5.760   7.531 -1.1803 -0.9291  0.3522
 2253TIP3   OH228317   6.522   2.933   0.254 -0.1321  0.2408 -1.1356
 2253TIP3    H128318   6.442   2.923   0.305 -0.4892  1.1876 -1.4777
 2253TIP3    H228319   6.494   2.925   0.163  0.1530  0.5848 -1.2587
 2254TIP3   OH228320   0.737   3.454   0.851  0.5578  0.2119  0.0063
 2254TIP3    H128321   0.745   3.453   0.756  0.3879 -1.0400 -0.0061
 2254TIP3    H228322   0.821   3.420   0.883 -0.1239 -1.3639  0.2208
 2255TIP3   OH228323   0.191   4.960   1.594 -0.0046  0.1936 -0.9650
 2255TIP3    H128324   0.271   5.000   1.627 -0.3520  1.0956 -1.1938
 2255TIP3    H228325   0.140   4.940   1.672  0.0796  0.3898 -0.8604
 2256TIP3   OH228326   3.609   3.449   6.891 -0.4652  0.0126 -0.0241
 2256TIP3    H128327   3.647   3.370   6.852  0.0145  1.2325 -2.2019
 2256TIP3    H228328   3.684   3.494   6.931 -0.5123 -0.0241  0.1049
 2257TIP3   OH228329   3.111   2.746   7.908 -0.6704  0.7833  0.5131
 2257TIP3    H128330   3.125   2.719   7.818 -3.9170  0.0925  0.0973
 2257TIP3    H228331   3.186   2.802   7.928  1.6413 -1.2967 -1.5902
 2258TIP3   OH228332   2.372   0.145   8.309  0.2569  0.1983  0.2186
 2258TIP3    H128333   2.317   0.079   8.265  1.8479 -1.0769  0.0434
 2258TIP3    H228334   2.433   0.173   8.241  1.9603 -0.8985  1.2261
 2259TIP3   OH228335   1.029   5.707   2.041 -0.0537  0.1674  0.1767
 2259TIP3    H128336   1.049   5.740   1.954 -1.3718  1.0637  0.1723
 2259TIP3    H228337   0.990   5.782   2.087  0.3030 -0.3796  1.4228
 2260TIP3   OH228338   0.628   0.397   7.440  0.2765 -0.2232  0.3530
 2260TIP3    H128339   0.667   0.480   7.466  0.1660 -0.0691  0.0261
 2260TIP3    H228340   0.537   0.403   7.470  0.9470 -1.3647  2.9100
 2261TIP3   OH228341   6.589   0.709   1.196  0.3346 -0.0272  0.8487
 2261TIP3    H128342   6.506   0.740   1.162  0.2039 -0.2685  0.9444
 2261TIP3    H228343   6.583   0.614   1.192  1.9816 -0.1501 -2.5991
 2262TIP3   OH228344   3.509   0.514   8.005  0.5288  0.0399  0.0673
 2262TIP3    H128345   3.538   0.535   8.094 -0.7791 -0.0639  0.5418
 2262TIP3    H228346   3.501   0.418   8.005  0.7949  0.0180 -0.2467
 2263TIP3   OH228347   2.947   2.225   8.253  0.1037  0.4085  0.3038
 2263TIP3    H128348   3.010   2.169   8.208  1.2129  1.8226 -0.0046
 2263TIP3    H228349   2.875   2.236   8.191 -1.6934 -3.0971  1.5149
 2264TIP3   OH228350   4.378   5.936   1.099  0.2098  0.0295  0.8794
 2264TIP3    H128351   4.352   5.870   1.163  0.4345 -0.0118  0.9262
 2264TIP3    H228352   4.469   5.916   1.078  0.2142  0.1960  0.7350
 2265TIP3   OH228353   0.224   3.855   6.895  0.1997 -0.1220  0.0412
 2265TIP3    H128354   0.155   3.833   6.957 -1.2422  0.3904 -1.3364
 2265TIP3    H228355   0.179   3.869   6.812  2.2102 -2.3506 -1.5759
 2266TIP3   OH228356   4.136   2.797   7.852  0.3424  0.0654 -0.3203
 2266TIP3    H128357   4.072   2.867   7.862  0.0967  0.0219 -1.5246
 2266TIP3    H228358   4.093   2.731   7.798  0.4775 -1.1586  0.9957
 2267TIP3   OH228359   0.340   5.290   6.913 -0.2264  0.1410 -0.2096
 2267TIP3    H128360   0.281   5.362   6.938  0.9090  0.2060  2.6953
 2267TIP3    H228361   0.285   5.212   6.916 -0.5149  0.3656  1.1536
 2268TIP3   OH228362   3.226   2.244   0.210  0.1702 -0.0729 -0.4693
 2268TIP3    H128363   3.169   2.248   0.287  0.0200 -0.2029 -0.5722
 2268TIP3    H228364   3.167   2.221   0.138  0.2475  0.4217 -0.6932
 2269TIP3   OH228365   5.326   1.559   8.524  0.3959 -0.4877  0.0831
 2269TIP3    H128366   5.245   1.601   8.553  1.4549  2.7080 -1.1238
 2269TIP3    H228367   5.302   1.515   8.442 -0.2393 -0.0304  0.0124
 2270TIP3   OH228368   5.129   1.440   7.907  0.0244  0.1170  0.6569
 2270TIP3    H128369   5.224   1.442   7.898 -0.0646  3.4470 -1.1496
 2270TIP3    H228370   5.113   1.440   8.001  1.8186  0.5395  0.9904
 2271TIP3   OH228371   5.771   1.370   2.230  0.0220 -0.1540 -0.2982
 2271TIP3    H128372   5.774   1.293   2.286  0.2321  0.2767  0.2821
 2271TIP3    H228373   5.862   1.389   2.209 -0.0657 -0.4699 -1.0143
 2272TIP3   OH228374   4.177   0.251   8.088  0.0802  0.3507  0.3527
 2272TIP3    H128375   4.158   0.333   8.134 -0.2290 -0.3791  1.5749
 2272TIP3    H228376   4.099   0.197   8.101  1.0158 -0.8423  1.2024
 2273TIP3   OH228377   4.224   5.982   8.750  0.2186 -0.4626 -0.5692
 2273TIP3    H128378   4.273   6.006   8.672  1.7196 -0.5075  0.3285
 2273TIP3    H228379   4.290   5.954   8.813 -0.9311 -0.1968  0.8165
 2274TIP3   OH228380   0.897   6.209   7.756 -0.0822  1.1736  0.1542
 2274TIP3    H128381   0.901   6.222   7.662  2.0050  1.2037  0.2131
 2274TIP3    H228382   0.869   6.118   7.767 -0.8490  1.3233 -0.4655
 2275TIP3   OH228383   2.675   2.879   7.995 -0.4372  0.1561  0.1649
 2275TIP3    H128384   2.655   2.804   7.939 -0.2234  1.2377 -1.3988
 2275TIP3    H228385   2.621   2.864   8.073  0.0478 -1.9183  0.1771
 2276TIP3   OH228386   2.051   5.315   8.401  0.0532 -0.2527 -0.5104
 2276TIP3    H128387   1.973   5.260   8.407 -0.4725  0.4527 -0.7963
 2276TIP3    H228388   2.081   5.305   8.311  0.5548 -0.8603 -0.2860
 2277TIP3   OH228389   2.689   2.519   1.301  0.0708 -0.0593  0.6436
 2277TIP3    H128390   2.604   2.476   1.296  0.6147 -1.2286  1.2983
 2277TIP3    H228391   2.668   2.611   1.321 -1.0092 -0.4466  1.3723
 2278TIP3   OH228392   2.354   4.704   8.632 -0.3815 -0.0647  0.2656
 2278TIP3    H128393   2.397   4.776   8.585  0.6047 -1.1724 -0.6100
 2278TIP3    H228394   2.426   4.659   8.677 -0.8146 -1.1201 -0.0761
 2279TIP3   OH228395   1.912   6.412   8.372 -0.0665  0.1559  0.0989
 2279TIP3    H128396   1.953   6.326   8.381 -1.8277 -0.6886  0.3382
 2279TIP3    H228397   1.881   6.433   8.460 -2.2837 -0.3572 -0.5143
 2280TIP3   OH228398   2.800   3.801   1.368  0.8374  0.0056  0.4280
 2280TIP3    H128399   2.705   3.791   1.363  0.5736  2.2157  0.0025
 2280TIP3    H228400   2.835   3.726   1.321 -0.7174 -0.4960  0.0148
 2281TIP3   OH228401   2.406   6.016   8.787  1.0753 -0.4382 -0.7222
 2281TIP3    H128402   2.375   5.988   8.701  1.7379 -0.2062 -1.0458
 2281TIP3    H228403   2.397   5.939   8.843  2.6775 -1.2768 -1.5436
 2282TIP3   OH228404   1.129   6.174   8.758 -0.7649  0.1772 -0.0042
 2282TIP3    H128405   1.201   6.138   8.810 -1.4867  1.3444  1.9287
 2282TIP3    H228406   1.170   6.203   8.677  0.2058 -2.9004 -0.7670
 2283TIP3   OH228407   3.265   2.133   8.298 -0.6327  0.3086  0.1093
 2283TIP3    H128408   3.343   2.158   8.248  1.3474 -1.3404  2.1411
 2283TIP3    H228409   3.215   2.079   8.238 -0.2745  1.4214 -1.2612
 2284TIP3   OH228410   5.113   6.780   8.201  0.8748  0.0560 -0.1247
 2284TIP3    H128411   5.058   6.858   8.193  2.3257  0.9903 -1.6957
 2284TIP3    H228412   5.066   6.713   8.151  1.1395  0.8661 -1.5201
 2285TIP3   OH228413   0.969   0.805   7.409  0.2197  0.2934  0.0068
 2285TIP3    H128414   1.059   0.835   7.414  0.4678 -0.2875 -0.6686
 2285TIP3    H228415   0.919   0.868   7.460  0.8660  1.2081 -0.4616
 2286TIP3   OH228416   5.008   2.203   8.437  0.0392  0.0791 -0.0453
 2286TIP3    H128417   4.990   2.143   8.365 -1.6142 -0.5100  0.8051
 2286TIP3    H228418   5.101   2.224   8.429  0.5228 -2.1226 -0.7356
 2287TIP3   OH228419   5.021   1.698   7.922 -0.7846 -0.4185 -0.1173
 2287TIP3    H128420   4.972   1.696   7.840 -0.8182  1.1976 -0.1770
 2287TIP3    H228421   5.069   1.615   7.924 -0.1149 -0.1445 -2.2032
 2288TIP3   OH228422   4.142   4.420   0.034 -0.1519 -0.3335 -0.1261
 2288TIP3    H128423   4.111   4.329   0.041  1.5669 -0.8858  1.0208
 2288TIP3    H228424   4.226   4.413  -0.011  0.2726  0.6084  0.4950
 2289TIP3   OH228425   2.521   5.734   8.032 -0.2714  0.9532  0.1887
 2289TIP3    H128426   2.615   5.748   8.037 -0.2785  1.2372 -0.4503
 2289TIP3    H228427   2.509   5.641   8.052  0.0485  1.1404  1.2945
 2290TIP3   OH228428   4.803   0.282   7.656 -0.1693 -0.4342 -0.1885
 2290TIP3    H128429   4.721   0.254   7.698  0.0757 -0.0580  0.5547
 2290TIP3    H228430   4.856   0.202   7.651 -0.1158 -0.4424  0.4255
 2291TIP3   OH228431   3.227   4.807   1.171 -0.3029  0.0755  0.1836
 2291TIP3    H128432   3.210   4.890   1.216  0.8032  0.0511  0.6850
 2291TIP3    H228433   3.212   4.740   1.237 -1.0133 -0.1159 -0.1684
 2292TIP3   OH228434   4.893   0.805   6.345  0.3907 -0.8505 -0.0331
 2292TIP3    H128435   4.886   0.741   6.274  0.0792 -0.3941 -0.4280
 2292TIP3    H228436   4.986   0.809   6.365  0.6009 -0.3159 -1.0575
 2293TIP3   OH228437   0.281   0.133   7.908  0.3810  0.3727 -0.2206
 2293TIP3    H128438   0.275   0.055   7.852  0.9333 -0.1942  0.4779
 2293TIP3    H228439   0.373   0.135   7.935 -0.0908 -0.0280  1.5564
 2294TIP3   OH228440   0.177   4.689   1.682 -0.5703  0.5666  0.3504
 2294TIP3    H128441   0.176   4.752   1.609 -0.3230  0.1152 -0.0446
 2294TIP3    H228442   0.262   4.703   1.724 -0.5399  0.5338  0.2992
 2295TIP3   OH228443   2.310   3.607   0.177 -0.8322  0.1370 -0.4627
 2295TIP3    H128444   2.359   3.539   0.223 -1.1267  1.6915  2.3596
 2295TIP3    H228445   2.353   3.612   0.091  1.7008 -0.9531  0.6174
 2296TIP3   OH228446   0.107   3.934   7.570  0.1512 -0.6715  0.0535
 2296TIP3    H128447   0.057   4.008   7.536 -0.6953 -1.3814 -0.2760
 2296TIP3    H228448   0.058   3.906   7.648  0.5291 -0.8171  0.2411
 2297TIP3   OH228449   0.087   0.325   0.736  0.1868 -0.6524 -0.2775
 2297TIP3    H128450   0.083   0.399   0.674  2.5127  0.6230  0.9576
 2297TIP3    H228451  -0.004   0.311   0.762 -0.9082 -1.1243 -3.7250
 2298TIP3   OH228452   0.648   6.400   0.040  0.4258 -0.0907  0.2740
 2298TIP3    H128453   0.742   6.417   0.051  0.0099  1.6614  1.5653
 2298TIP3    H228454   0.625   6.343   0.113  0.0394  1.5353  1.4712
 2299TIP3   OH228455   0.536   1.133   1.781 -0.3019 -1.0469  0.0263
 2299TIP3    H128456   0.616   1.167   1.821 -0.1408 -1.2133 -0.1579
 2299TIP3    H228457   0.531   1.042   1.810 -1.0620 -0.7068  1.0354
 2300TIP3   OH228458   5.012   0.100   8.467  0.0685 -0.2230 -0.4560
 2300TIP3    H128459   5.013   0.196   8.460  3.3547  0.0562  1.3409
 2300TIP3    H228460   5.065   0.071   8.393 -0.2532 -0.5639 -0.5482
 2301TIP3   OH228461   2.695   0.243   7.040 -0.2305  0.0779 -0.0559
 2301TIP3    H128462   2.737   0.327   7.022 -0.3588  0.2762  0.5228
 2301TIP3    H228463   2.752   0.178   6.999  0.5266  0.3618  0.5222
 2302TIP3   OH228464   2.047   5.905   0.560 -0.3154  0.4790  0.1421
 2302TIP3    H128465   2.057   5.891   0.466 -0.1430 -0.6812  0.3143
 2302TIP3    H228466   2.105   5.979   0.580  0.5793 -0.0340 -0.4711
 2303TIP3   OH228467   5.681   3.539   0.939  0.1556  0.0598 -0.5814
 2303TIP3    H128468   5.705   3.495   0.858  0.3177 -0.3359 -0.3197
 2303TIP3    H228469   5.764   3.567   0.978  0.0971  0.0035 -0.4137
 2304TIP3   OH228470   6.549   5.195   0.795  0.0488  0.3742  0.2507
 2304TIP3    H128471   6.547   5.289   0.778 -0.9999  0.0825 -1.4484
 2304TIP3    H228472   6.473   5.160   0.748 -0.8885 -1.0701  2.6690
 2305TIP3   OH228473   1.004   0.192   7.961  0.0258  0.0795  0.1165
 2305TIP3    H128474   1.073   0.258   7.948 -0.5952  0.4132 -1.8602
 2305TIP3    H228475   0.931   0.223   7.907 -0.8322 -1.4542  0.3430
 2306TIP3   OH228476   1.597   1.771   7.264  0.2223  0.4026  0.5354
 2306TIP3    H128477   1.634   1.845   7.216 -2.3498  2.3507  1.3398
 2306TIP3    H228478   1.548   1.811   7.335 -0.0852 -2.2004  1.8915
 2307TIP3   OH228479   3.163   4.368   8.252  0.3376 -0.7994 -0.2001
 2307TIP3    H128480   3.136   4.448   8.297  0.8023 -0.5600 -0.3404
 2307TIP3    H228481   3.090   4.348   8.193  0.2897 -0.3830 -0.2845
 2308TIP3   OH228482   3.721   1.377   8.797 -0.1217 -0.1662  0.2771
 2308TIP3    H128483   3.629   1.380   8.771 -0.3739 -1.1207  0.9900
 2308TIP3    H228484   3.752   1.467   8.788 -0.6724 -0.1265 -1.5099
 2309TIP3   OH228485   5.367   1.539   1.689  0.0965  0.1546 -0.1322
 2309TIP3    H128486   5.390   1.605   1.756 -0.3243 -0.4713  0.6458
 2309TIP3    H228487   5.322   1.589   1.621  0.5131  0.8020  0.0563
 2310TIP3   OH228488   3.545   6.435   1.692 -0.5563  0.5121 -0.5644
 2310TIP3    H128489   3.590   6.510   1.653  0.4418  0.6730  0.8312
 2310TIP3    H228490   3.503   6.470   1.771  2.4645 -0.8887  1.8469
 2311TIP3   OH228491   0.093   3.082   0.281  0.5948 -0.3744  0.0189
 2311TIP3    H128492   0.092   2.987   0.274 -0.4807 -0.5348  1.6470
 2311TIP3    H228493   0.186   3.105   0.288  0.9095 -1.2088 -1.1297
 2312TIP3   OH228494   3.566   3.626   1.480  0.0226 -0.5300  0.1967
 2312TIP3    H128495   3.659   3.602   1.484  0.2477 -0.0287 -1.2662
 2312TIP3    H228496   3.547   3.628   1.386 -0.3078  3.5889  0.1688
 2313TIP3   OH228497   3.903   1.663   0.372  0.6631 -0.1278 -0.0216
 2313TIP3    H128498   3.831   1.625   0.321  0.6827 -0.3353  0.1032
 2313TIP3    H228499   3.862   1.687   0.455 -0.3761  3.9884 -1.4878
 2314TIP3   OH228500   2.554   5.239   7.282  0.2044  0.0101  0.0291
 2314TIP3    H128501   2.512   5.299   7.344  0.7343 -0.0758  0.4817
 2314TIP3    H228502   2.647   5.246   7.301  0.4706  0.6736 -1.3914
 2315TIP3   OH228503   6.469   2.146   1.361 -0.0529 -0.4128 -0.2572
 2315TIP3    H128504   6.547   2.114   1.406  0.5693  0.8703 -0.3821
 2315TIP3    H228505   6.407   2.074   1.367  0.8878 -1.1896  0.4779
 2316TIP3   OH228506   3.517   0.609   0.298  1.0668 -0.1276 -0.4576
 2316TIP3    H128507   3.533   0.622   0.205  0.0256 -1.1324 -0.8086
 2316TIP3    H228508   3.421   0.606   0.306  1.1468 -0.5574  0.5612
 2317TIP3   OH228509   5.238   1.793   0.147 -0.7038  0.2438  0.1529
 2317TIP3    H128510   5.250   1.810   0.053 -0.7037  0.0625  0.1185
 2317TIP3    H228511   5.165   1.849   0.173  0.4711  1.6819  0.4552
 2318TIP3   OH228512   6.483   1.107   7.191  0.0490  0.0757  0.3753
 2318TIP3    H128513   6.441   1.033   7.235  0.5486  0.1263  0.9557
 2318TIP3    H228514   6.411   1.155   7.152 -0.3598 -0.2858  0.6615
 2319TIP3   OH228515   3.614   5.012   7.979 -0.1807  0.7783 -0.3680
 2319TIP3    H128516   3.618   5.016   8.074  0.2880  0.9295 -0.3905
 2319TIP3    H228517   3.531   4.969   7.960 -1.5828  3.0740  0.0777
 2320TIP3   OH228518   3.941   1.520   0.922 -0.6227 -0.0732  0.4567
 2320TIP3    H128519   3.994   1.463   0.866  0.1322  0.3339  0.7547
 2320TIP3    H228520   3.862   1.536   0.870 -0.0442  0.0909 -0.3983
 2321TIP3   OH228521   3.875   0.229   8.650  0.2203 -0.0568  0.0729
 2321TIP3    H128522   3.920   0.176   8.717 -0.1337 -2.1657 -1.2556
 2321TIP3    H228523   3.881   0.176   8.570 -2.4826  0.7092 -0.7369
 2322TIP3   OH228524   5.385   3.687   8.215 -0.3097  0.1188 -0.1634
 2322TIP3    H128525   5.470   3.727   8.230 -0.7469  0.1585  2.6348
 2322TIP3    H228526   5.322   3.759   8.224 -0.7835 -0.2991 -0.0672
 2323TIP3   OH228527   1.082   5.738   6.849 -0.0703 -0.0201  0.3129
 2323TIP3    H128528   0.999   5.761   6.890  0.5974 -0.0174  1.6939
 2323TIP3    H228529   1.143   5.729   6.921  0.4117 -3.3283 -0.3470
 2324TIP3   OH228530   1.265   5.756   1.571  0.1127 -0.3921 -0.6603
 2324TIP3    H128531   1.210   5.776   1.495 -1.8168 -1.2817  0.4099
 2324TIP3    H228532   1.355   5.764   1.539 -0.6268 -0.8992 -3.0553
 2325TIP3   OH228533   4.276   6.322   7.140  0.5702 -0.8385 -0.2068
 2325TIP3    H128534   4.234   6.371   7.069  0.5742  0.9810  0.9891
 2325TIP3    H228535   4.299   6.237   7.100  1.4327  0.4336 -2.6400
 2326TIP3   OH228536   0.991   3.870   0.496  0.0773 -0.5801 -0.1729
 2326TIP3    H128537   0.985   3.925   0.574 -0.6865  2.9360 -2.4747
 2326TIP3    H228538   0.901   3.846   0.476 -0.0996  0.8936 -1.3800
 2327TIP3   OH228539   0.072   0.801   0.664  0.2302 -0.2519 -0.4222
 2327TIP3    H128540   0.064   0.750   0.584  0.2863  0.3085 -0.7943
 2327TIP3    H228541   0.078   0.892   0.634 -1.0549  0.0918  0.2577
 2328TIP3   OH228542   3.053   0.201   8.683 -0.1721  0.2417  0.2066
 2328TIP3    H128543   3.030   0.288   8.650  0.3134  0.5341  0.6189
 2328TIP3    H228544   2.978   0.146   8.660 -1.0083  1.0233  0.9431
 2329TIP3   OH228545   5.456   4.413   8.709  0.0660  0.5739 -0.1727
 2329TIP3    H128546   5.510   4.347   8.754 -0.8774 -0.9102 -1.1192
 2329TIP3    H228547   5.391   4.362   8.661 -1.5673  2.2575  0.1221
 2330TIP3   OH228548   1.163   4.590   8.321 -0.1436  0.1838  0.4731
 2330TIP3    H128549   1.075   4.619   8.345  0.9222  3.2713  1.1400
 2330TIP3    H228550   1.184   4.522   8.385 -1.7393 -0.1067  0.7425
 2331TIP3   OH228551   5.331   2.668   1.420 -0.3979  0.6026 -0.1398
 2331TIP3    H128552   5.365   2.643   1.506 -2.1840  1.9295  1.0232
 2331TIP3    H228553   5.375   2.609   1.358  3.3190  1.6413  1.2562
 2332TIP3   OH228554   2.512   4.794   2.056 -0.0619 -0.3308  0.5520
 2332TIP3    H128555   2.450   4.745   2.109 -0.4749 -1.9338 -1.2990
 2332TIP3    H228556   2.514   4.881   2.096 -2.1383 -0.7516  1.7282
 2333TIP3   OH228557   0.366   0.406   8.223 -0.3871 -0.4005  0.2203
 2333TIP3    H128558   0.451   0.366   8.203 -0.4286  0.0990 -1.0191
 2333TIP3    H228559   0.382   0.500   8.222 -1.0058 -0.2952 -0.2329
 2334TIP3   OH228560   0.547   6.111   0.373 -0.3024 -0.0919  0.1727
 2334TIP3    H128561   0.609   6.041   0.350  0.1780  0.3984 -0.0370
 2334TIP3    H228562   0.484   6.110   0.301 -0.9722 -1.0763  0.7473
 2335TIP3   OH228563   0.990   4.838   0.772 -0.1125  0.1909 -0.1914
 2335TIP3    H128564   0.910   4.891   0.766 -0.7208 -0.7762 -0.9973
 2335TIP3    H228565   0.965   4.764   0.827  1.5482  2.0950  3.4147
 2336TIP3   OH228566   2.977   0.101   1.452  0.2271  0.2931  0.3899
 2336TIP3    H128567   2.940   0.152   1.380  0.7471  0.4977  0.2616
 2336TIP3    H228568   3.011   0.167   1.513 -0.2040  0.1205  0.8195
 2337TIP3   OH228569   1.245   3.314   2.016 -0.3805 -0.9232 -0.1506
 2337TIP3    H128570   1.248   3.365   1.936  1.2361 -1.2240 -0.3196
 2337TIP3    H228571   1.241   3.379   2.086  0.4782 -0.5698 -0.4105
 2338TIP3   OH228572   2.673   3.078   7.152 -0.2134  0.5773  0.4004
 2338TIP3    H128573   2.582   3.051   7.159 -0.4065  1.3423  1.0190
 2338TIP3    H228574   2.719   3.000   7.122 -1.4486  0.9036 -2.6625
 2339TIP3   OH228575   6.360   0.588   8.843  0.6454  0.1824  0.4788
 2339TIP3    H128576   6.396   0.585   8.754  0.3248 -1.3167  0.3737
 2339TIP3    H228577   6.420   0.536   8.895  0.2212  0.1229  0.9136
 2340TIP3   OH228578   6.057   0.212   6.301  0.1801 -0.0666  0.1441
 2340TIP3    H128579   5.978   0.249   6.262  0.3973  1.1661  0.8245
 2340TIP3    H228580   6.038   0.119   6.312 -1.8284  0.4724  1.8632
 2341TIP3   OH228581   6.610   6.208   0.131  0.1356 -0.3900 -0.7541
 2341TIP3    H128582   6.693   6.193   0.176  0.5616  0.4407 -1.2311
 2341TIP3    H228583   6.622   6.169   0.044 -0.9948 -2.7793  0.0743
 2342TIP3   OH228584   0.102   6.228   2.179 -0.0623  0.2224 -0.0681
 2342TIP3    H128585   0.069   6.211   2.091 -1.4044  1.1715  0.2227
 2342TIP3    H228586   0.046   6.176   2.236  0.8129 -0.4045  0.2405
 2343TIP3   OH228587   3.617   1.763   1.493 -0.1506  0.5611  0.1786
 2343TIP3    H128588   3.686   1.718   1.540 -0.4964 -0.0718  0.0926
 2343TIP3    H228589   3.583   1.827   1.555  2.0714  2.5706 -0.5179
 2344TIP3   OH228590   5.374   3.923   1.696  0.4255 -0.2948  0.1003
 2344TIP3    H128591   5.429   3.938   1.773  0.1134  0.9356  0.0940
 2344TIP3    H228592   5.286   3.907   1.731  0.6095 -1.5300  0.0693
 2345TIP3   OH228593   5.077   1.138   7.185  0.2879 -0.0391  0.1130
 2345TIP3    H128594   5.083   1.103   7.274 -0.4677  0.2132  0.2714
 2345TIP3    H228595   5.168   1.156   7.160  0.7072 -1.9403  0.0789
 2346TIP3   OH228596   0.833   0.581   0.642 -0.1355  0.0511 -0.5599
 2346TIP3    H128597   0.792   0.512   0.589 -0.1845  0.1437 -0.6439
 2346TIP3    H228598   0.764   0.609   0.702  0.0990 -0.4620 -0.0479
 2347TIP3   OH228599   6.243   6.724   7.486 -0.2703  0.1014  0.2862
 2347TIP3    H128600   6.261   6.803   7.435  1.0911  0.6048  1.4845
 2347TIP3    H228601   6.150   6.729   7.506 -0.4121  0.8763 -0.5189
 2348TIP3   OH228602   6.727   2.072   1.507  0.2197 -0.0144 -0.3047
 2348TIP3    H128603   6.725   2.150   1.562 -2.3769 -0.0867 -0.2123
 2348TIP3    H228604   6.818   2.066   1.478  0.9621  1.7917  1.4335
 2349TIP3   OH228605   6.377   0.341   2.259 -0.1155 -0.1688 -0.0755
 2349TIP3    H128606   6.439   0.382   2.319  0.2960  2.3450 -2.0783
 2349TIP3    H228607   6.292   0.376   2.284 -0.2870 -0.9374  0.4670
 2350TIP3   OH228608   2.317   6.696   1.449  0.0316 -0.2342 -0.4557
 2350TIP3    H128609   2.233   6.659   1.477 -0.0189  0.3628  0.2035
 2350TIP3    H228610   2.305   6.791   1.455  0.7311 -0.1402 -0.4204
 2351TIP3   OH228611   5.820   6.622   0.633  0.4203 -0.6155  0.1828
 2351TIP3    H128612   5.735   6.656   0.605 -0.6169 -1.8669  1.6414
 2351TIP3    H228613   5.835   6.546   0.576  0.5469 -0.4080 -0.0599
 2352TIP3   OH228614   2.896   1.940   6.989  0.0297  0.0716 -0.3103
 2352TIP3    H128615   2.856   1.968   6.906 -2.2171 -0.6596  0.4748
 2352TIP3    H228616   2.864   1.851   7.002  2.8020 -0.9899 -0.1030
 2353TIP3   OH228617   2.909   1.672   8.509  0.1557  0.4663 -0.1230
 2353TIP3    H128618   2.866   1.598   8.552  1.2402 -0.5233 -0.6724
 2353TIP3    H228619   2.862   1.683   8.427 -0.1734  0.5590  0.0768
 2354TIP3   OH228620   6.410   1.569   8.247 -0.6311 -0.5998 -0.2516
 2354TIP3    H128621   6.327   1.544   8.286 -1.2770  0.7956 -0.6457
 2354TIP3    H228622   6.391   1.578   8.154 -0.0286 -0.3659 -0.3570
 2355TIP3   OH228623   2.766   2.113   8.399  0.0867  0.2184  0.8724
 2355TIP3    H128624   2.688   2.104   8.344 -0.0977  1.4068  0.8985
 2355TIP3    H228625   2.817   2.182   8.356 -0.7820  2.2723  2.9411
 2356TIP3   OH228626   4.132   4.424   1.471 -0.0370 -0.3293  0.0217
 2356TIP3    H128627   4.119   4.392   1.560  1.5781 -1.5678 -0.1293
 2356TIP3    H228628   4.215   4.384   1.443  0.5224  1.6335 -1.3252
 2357TIP3   OH228629   2.570   4.727   1.749  0.4117  0.6615  0.0289
 2357TIP3    H128630   2.556   4.755   1.839  1.3436 -0.9813  0.7332
 2357TIP3    H228631   2.658   4.759   1.728  0.9114 -0.4306  0.3526
 2358TIP3   OH228632   1.967   0.345   6.350  0.2347 -0.2870 -0.1224
 2358TIP3    H128633   1.881   0.310   6.372 -0.4897  0.4502 -1.6340
 2358TIP3    H228634   1.950   0.410   6.283  1.9539  0.1076 -0.2248
 2359TIP3   OH228635   1.813   5.772   1.550 -0.0955  0.7910 -0.3700
 2359TIP3    H128636   1.803   5.848   1.607  0.5478  0.6839 -0.1123
 2359TIP3    H228637   1.886   5.723   1.587 -1.6260 -0.9192  0.5353
 2360TIP3   OH228638   4.425   2.712   8.871 -0.0151  0.5260 -0.7421
 2360TIP3    H128639   4.441   2.805   8.886  1.0964  0.5616 -1.9078
 2360TIP3    H228640   4.330   2.704   8.869 -0.1344  1.5728 -0.2983
 2361TIP3   OH228641   1.165   4.550   7.691 -0.1728  0.8581  0.2579
 2361TIP3    H128642   1.259   4.534   7.687  0.0020  1.2989  1.8881
 2361TIP3    H228643   1.154   4.636   7.649  0.2395  1.1141  0.6721
 2362TIP3   OH228644   4.350   2.005   8.374  0.1153  0.8488  0.1804
 2362TIP3    H128645   4.420   2.004   8.440 -0.3839 -0.6064  0.7285
 2362TIP3    H228646   4.396   2.020   8.291  1.3300 -1.4649  0.3385
 2363TIP3   OH228647   3.378   1.062   1.770 -0.5363  0.3867  0.3270
 2363TIP3    H128648   3.317   1.125   1.810  0.2833  2.5500 -1.6023
 2363TIP3    H228649   3.448   1.052   1.835  0.1633  2.8772  0.0847
 2364TIP3   OH228650   0.142   0.990   7.962  0.3236  0.1041 -0.1745
 2364TIP3    H128651   0.182   1.028   8.040  0.1161 -0.8886  0.4317
 2364TIP3    H228652   0.090   0.916   7.995  0.9725 -0.9151 -1.3317
 2365TIP3   OH228653   5.584   1.444   7.772 -0.2545 -0.1774  0.2406
 2365TIP3    H128654   5.519   1.454   7.842  1.5067 -0.3762  2.0093
 2365TIP3    H228655   5.628   1.362   7.792  0.9310  0.2408 -0.5382
 2366TIP3   OH228656   5.786   5.302   7.498 -0.8741  0.0302  0.6622
 2366TIP3    H128657   5.762   5.303   7.405  1.2156 -1.0777  0.0588
 2366TIP3    H228658   5.828   5.218   7.511 -0.8963  0.2749  2.5792
 2367TIP3   OH228659   3.229   6.277   7.153  0.1840 -0.5866  0.0439
 2367TIP3    H128660   3.171   6.287   7.078  0.0196  2.5706  0.4447
 2367TIP3    H228661   3.308   6.237   7.117 -0.4225 -0.4184 -1.5351
 2368TIP3   OH228662   2.108   6.382   8.619 -0.2079  0.1435 -0.0289
 2368TIP3    H128663   2.075   6.297   8.649  0.7674 -0.5573 -0.8909
 2368TIP3    H228664   2.029   6.433   8.599 -0.8013 -0.5926  0.3827
 2369TIP3   OH228665   2.276   3.999   7.416  0.2134 -0.6877 -0.5814
 2369TIP3    H128666   2.250   4.071   7.359  0.4833 -0.6806 -0.6954
 2369TIP3    H228667   2.362   3.972   7.383  0.7057 -0.2113  0.2789
 2370TIP3   OH228668   3.012   6.760   1.767 -0.3717  0.0525  0.7198
 2370TIP3    H128669   3.050   6.845   1.744 -0.5684  0.1287  0.6683
 2370TIP3    H228670   2.953   6.779   1.840  0.9055 -0.3386  1.8806
 2371TIP3   OH228671   3.966   1.563   2.110  0.3188  0.3512 -0.4102
 2371TIP3    H128672   3.884   1.610   2.124  0.3392  0.4810 -0.7150
 2371TIP3    H228673   4.032   1.632   2.101  0.5097  0.2424  0.1216
 2372TIP3   OH228674   2.264   0.675   7.700 -0.5819 -0.4056 -0.4024
 2372TIP3    H128675   2.357   0.656   7.717 -1.3017 -2.9341  1.3201
 2372TIP3    H228676   2.223   0.589   7.694 -2.8068  0.6454 -1.4673
 2373TIP3   OH228677   6.759   2.616   8.302  0.3475  0.3669 -0.4815
 2373TIP3    H128678   6.778   2.639   8.393 -1.6374  0.4488 -0.0423
 2373TIP3    H228679   6.761   2.700   8.256 -0.1442  0.5424 -0.1984
 2374TIP3   OH228680   1.366   6.676   6.828  0.0036  0.1090  0.9022
 2374TIP3    H128681   1.287   6.623   6.840  0.1906 -0.0309  1.5577
 2374TIP3    H228682   1.335   6.758   6.791 -0.4329 -0.0018  1.0205
 2375TIP3   OH228683   0.930   3.777   1.864  0.2063  0.1450  0.3286
 2375TIP3    H128684   0.928   3.857   1.917  1.5426  1.7999 -1.9205
 2375TIP3    H228685   1.011   3.733   1.890  0.6786  0.7691 -0.0568
 2376TIP3   OH228686   4.023   3.939   8.193  0.2100  0.2843  0.4936
 2376TIP3    H128687   4.092   3.981   8.143  1.4311 -2.9401 -0.8294
 2376TIP3    H228688   3.966   3.900   8.126  0.5835 -2.1800  1.4913
 2377TIP3   OH228689   6.052   2.695   2.289 -0.0432 -0.4493 -0.3578
 2377TIP3    H128690   6.123   2.735   2.338  0.4813 -0.7219 -0.8758
 2377TIP3    H228691   5.993   2.767   2.269 -2.2410 -0.8105  3.7918
 2378TIP3   OH228692   1.232   5.237   7.694 -0.3533  0.0115  0.0432
 2378TIP3    H128693   1.224   5.283   7.778  0.1739 -0.0927  0.1533
 2378TIP3    H228694   1.253   5.306   7.631  2.4192 -0.2529  0.5271
 2379TIP3   OH228695   4.489   3.761   8.095 -0.2706 -0.1080 -0.1926
 2379TIP3    H128696   4.548   3.717   8.034  0.7036  0.4581  0.3272
 2379TIP3    H228697   4.447   3.829   8.042 -0.1731 -0.2561 -0.4646
 2380TIP3   OH228698   0.065   5.211   0.647 -0.0992 -0.2005  0.1959
 2380TIP3    H128699  -0.015   5.199   0.596 -0.4230 -2.1077  1.0873
 2380TIP3    H228700   0.065   5.139   0.710  1.5492  0.6493  1.2460
 2381TIP3   OH228701   5.903   4.941   6.991 -0.0488  0.0659  0.5912
 2381TIP3    H128702   5.965   5.014   7.004 -1.1458  0.9100  1.3030
 2381TIP3    H228703   5.847   4.970   6.919  0.0212 -0.4456  0.3289
 2382TIP3   OH228704   3.999   2.451   6.778  0.5602 -0.8647  0.4759
 2382TIP3    H128705   4.001   2.356   6.764  0.7061 -0.6994 -0.7941
 2382TIP3    H228706   3.926   2.466   6.837 -0.1336 -1.6738 -0.1652
 2383TIP3   OH228707   6.373   1.710   1.061 -0.0975 -0.1158  0.6002
 2383TIP3    H128708   6.333   1.789   1.097 -0.1208  0.6154 -0.9493
 2383TIP3    H228709   6.372   1.648   1.133 -4.1011 -0.1877  0.7109
 2384TIP3   OH228710   4.010   2.758   7.244 -0.0389 -0.3984 -0.1617
 2384TIP3    H128711   4.030   2.851   7.254  0.6179 -0.4615 -0.8428
 2384TIP3    H228712   3.934   2.756   7.186 -0.5903 -0.2579  0.5436
 2385TIP3   OH228713   2.857   3.321   8.853 -0.1911  0.3342  0.0769
 2385TIP3    H128714   2.916   3.248   8.831 -1.4869 -0.6710 -0.1957
 2385TIP3    H228715   2.915   3.396   8.864  1.0978 -0.5118 -0.6544
 2386TIP3   OH228716   5.005   5.139   1.384  0.3324 -0.4125 -0.5336
 2386TIP3    H128717   4.978   5.223   1.421 -1.4588 -1.1774 -0.0262
 2386TIP3    H228718   5.067   5.104   1.448  0.3832  0.0944 -0.2967
 2387TIP3   OH228719   5.864   1.665   3.048 -0.0962  0.2198 -0.0306
 2387TIP3    H128720   5.950   1.690   3.014  0.5725  0.2252  1.5898
 2387TIP3    H228721   5.806   1.737   3.023  0.3066  0.1634 -1.2295
 2388TIP3   OH228722   4.758   6.683   0.220 -0.4117 -0.1593 -0.3854
 2388TIP3    H128723   4.835   6.642   0.260 -0.0068  0.1326 -0.8532
 2388TIP3    H228724   4.700   6.609   0.200 -0.9576 -0.2645  1.3884
 2389TIP3   OH228725   1.386   2.816   8.602 -0.5541 -0.3821 -0.3543
 2389TIP3    H128726   1.328   2.882   8.562  0.8502  0.9082 -0.3698
 2389TIP3    H228727   1.390   2.840   8.694  1.0504  0.4570 -0.6031
 2390TIP3   OH228728   5.178   3.449   0.862 -0.2831 -0.5751 -0.5433
 2390TIP3    H128729   5.207   3.486   0.779  0.3823 -0.7132 -0.3809
 2390TIP3    H228730   5.176   3.523   0.923 -0.9877 -0.4327 -0.7320
 2391TIP3   OH228731   2.190   1.925   8.724 -0.2838 -0.3629 -0.0583
 2391TIP3    H128732   2.125   1.995   8.719  2.8924  2.7663 -1.0134
 2391TIP3    H228733   2.229   1.935   8.811 -0.6760 -1.9562  0.3476
 2392TIP3   OH228734   3.439   5.628   2.300  0.8397 -0.0188  0.0507
 2392TIP3    H128735   3.438   5.545   2.349  2.3527 -1.2537 -1.8418
 2392TIP3    H228736   3.522   5.669   2.323 -0.2643  1.4604  1.6192
 2393TIP3   OH228737   1.556   4.429   6.947 -0.6599 -0.5009 -0.1141
 2393TIP3    H128738   1.550   4.519   6.917 -0.9186 -0.5484 -0.2075
 2393TIP3    H228739   1.646   4.403   6.928  0.2194  0.5502  2.2421
 2394TIP3   OH228740   2.058   3.561   0.325 -0.2723  0.2681  0.0211
 2394TIP3    H128741   2.049   3.466   0.321  0.6971  0.1287  0.6734
 2394TIP3    H228742   2.095   3.586   0.240 -1.6952  0.2309 -0.6338
 2395TIP3   OH228743   4.197   2.262   1.458 -0.1259  0.5035 -0.0009
 2395TIP3    H128744   4.215   2.354   1.475 -0.1563  0.6307 -0.6352
 2395TIP3    H228745   4.235   2.246   1.371 -1.6567  0.3790 -0.6760
 2396TIP3   OH228746   2.988   5.973   7.505 -0.1061  0.0289 -0.1576
 2396TIP3    H128747   3.004   5.904   7.569 -1.1878 -0.4547 -0.3778
 2396TIP3    H228748   3.026   6.052   7.544 -0.2696 -0.3668  0.8293
 2397TIP3   OH228749   5.792   3.122   2.128  0.2640 -0.0313  0.3483
 2397TIP3    H128750   5.788   3.167   2.212  1.1608 -2.0899  1.5639
 2397TIP3    H228751   5.728   3.168   2.073  0.3203  1.9415  1.8359
 2398TIP3   OH228752   4.401   3.949   7.931 -0.6288 -0.2303 -0.3351
 2398TIP3    H128753   4.402   4.022   7.992 -1.8083  0.3994 -1.0262
 2398TIP3    H228754   4.384   3.990   7.846 -2.1119 -1.3648 -0.6196
 2399TIP3   OH228755   3.889   2.687   8.007  0.4706  0.0710  0.0874
 2399TIP3    H128756   3.856   2.640   7.930  1.6102 -0.9373  0.1868
 2399TIP3    H228757   3.977   2.653   8.020  0.2602  0.1196  1.9245
 2400TIP3   OH228758   2.168   2.986   8.741  0.1456 -0.4087  0.2349
 2400TIP3    H128759   2.144   2.895   8.723 -2.2611 -0.2236  2.1057
 2400TIP3    H228760   2.160   3.030   8.656  2.7644 -2.1084 -1.0317
 2401TIP3   OH228761   0.118   0.880   7.303 -0.0594 -0.5922  1.0355
 2401TIP3    H128762   0.205   0.862   7.339  0.7449 -0.2000 -0.5997
 2401TIP3    H228763   0.091   0.798   7.263  1.3815  0.2250 -1.9492
 2402TIP3   OH228764   5.080   2.080   1.437  0.3816 -0.1520 -0.1852
 2402TIP3    H128765   5.030   2.020   1.492  0.7130  0.2114  0.5244
 2402TIP3    H228766   5.092   2.158   1.491  0.4579  0.3333 -0.8805
 2403TIP3   OH228767   1.324   4.503   1.604 -0.2110  0.0708 -0.3612
 2403TIP3    H128768   1.408   4.479   1.644  0.0702 -0.6550 -1.3596
 2403TIP3    H228769   1.258   4.461   1.659  0.0542  0.6282  0.4208
 2404TIP3   OH228770   3.779   0.660   1.139  0.1218 -0.1372  0.3415
 2404TIP3    H128771   3.717   0.722   1.101 -1.5281 -0.9791  1.5387
 2404TIP3    H228772   3.776   0.585   1.078 -0.9463 -0.6360  0.9687
 2405TIP3   OH228773   2.320   4.103   7.937 -0.9290  0.0011 -0.1997
 2405TIP3    H128774   2.363   4.185   7.914 -2.0044  1.1726  1.7552
 2405TIP3    H228775   2.391   4.039   7.942  0.2423  1.3287  0.5225
 2406TIP3   OH228776   3.232   0.084   7.859 -0.1789 -0.9302 -0.3752
 2406TIP3    H128777   3.326   0.073   7.875  0.0922 -0.8361 -1.7876
 2406TIP3    H228778   3.223   0.173   7.825 -1.3660  0.6518  3.5783
 2407TIP3   OH228779   3.608   6.739   1.471  0.2638 -0.0614  0.8398
 2407TIP3    H128780   3.554   6.659   1.465  2.1694 -1.4110  0.7254
 2407TIP3    H228781   3.599   6.780   1.385 -0.9306 -0.0080  0.9764
 2408TIP3   OH228782   2.368   5.632   1.766  0.0453  0.0228 -0.0271
 2408TIP3    H128783   2.300   5.584   1.719 -1.5901  1.4075  0.8050
 2408TIP3    H228784   2.422   5.671   1.697 -0.3251 -0.6719 -0.7174
 2409TIP3   OH228785   2.895   4.299   8.682 -0.8002 -0.0527  0.6217
 2409TIP3    H128786   2.887   4.386   8.720  0.3181  0.3289  0.0136
 2409TIP3    H228787   2.889   4.313   8.587 -1.0725 -0.6989  0.5348
 2410TIP3   OH228788   4.690   6.732   8.251 -0.1282 -0.2903  0.4107
 2410TIP3    H128789   4.769   6.718   8.304  1.6857  1.6530 -1.5949
 2410TIP3    H228790   4.710   6.691   8.167 -2.5212 -2.3692  0.7365
 2411TIP3   OH228791   2.208   2.441   2.330  0.0320 -0.0783 -0.3264
 2411TIP3    H128792   2.124   2.420   2.371  0.3656 -1.0992 -0.1419
 2411TIP3    H228793   2.257   2.487   2.398 -0.6005  1.0849 -0.6386
 2412TIP3   OH228794   6.041   2.404   7.714  0.0903 -0.0283 -0.2101
 2412TIP3    H128795   6.115   2.356   7.751 -0.0171 -0.2815 -0.3164
 2412TIP3    H228796   5.980   2.414   7.787 -0.3644 -1.0142 -0.4456
 2413TIP3   OH228797   4.640   0.077   1.271  0.0558  0.1001 -0.4068
 2413TIP3    H128798   4.672   0.045   1.355  1.4515  0.0206 -0.9310
 2413TIP3    H228799   4.585   0.007   1.237  0.6283 -0.4683 -0.1832
 2414TIP3   OH228800   4.519   6.089   2.474 -0.2513  0.6721 -0.6589
 2414TIP3    H128801   4.470   6.140   2.538 -0.5846  0.1317 -0.4768
 2414TIP3    H228802   4.609   6.121   2.481 -0.0425 -0.1887  0.9020
 2415TIP3   OH228803   4.720   2.550   6.781 -0.1920  0.1435  0.2342
 2415TIP3    H128804   4.745   2.625   6.835 -0.5432  3.4266 -3.6469
 2415TIP3    H228805   4.803   2.506   6.762  0.3890  1.0634  0.5657
 2416TIP3   OH228806   0.233   3.592   0.065 -0.5134  0.1593  0.1422
 2416TIP3    H128807   0.271   3.672   0.102 -1.8333  1.0220 -0.2811
 2416TIP3    H228808   0.155   3.575   0.118  1.3200 -2.6440  2.1996
 2417TIP3   OH228809   5.212   0.078   7.113 -0.3471 -0.2017 -0.2799
 2417TIP3    H128810   5.169  -0.007   7.114 -0.0271 -0.4993  3.7153
 2417TIP3    H228811   5.142   0.140   7.095 -0.6482 -1.1804 -2.8840
 2418TIP3   OH228812   5.798   2.224   8.398 -0.4714  0.3500 -0.1459
 2418TIP3    H128813   5.802   2.310   8.355 -1.0263  0.1267 -0.6559
 2418TIP3    H228814   5.799   2.244   8.491  2.0594  0.7973 -0.2040
 2419TIP3   OH228815   2.118   4.396   0.645 -0.1988 -0.5013  0.1887
 2419TIP3    H128816   2.093   4.482   0.611  0.2334 -0.5603 -0.2925
 2419TIP3    H228817   2.177   4.360   0.578  1.2229 -0.3393  1.2997
 2420TIP3   OH228818   1.308   0.066   1.924  0.5773  0.8723  0.0433
 2420TIP3    H128819   1.342   0.056   1.835  0.1203  0.4203 -0.0829
 2420TIP3    H228820   1.386   0.066   1.980  0.7614 -1.6933 -0.0927
 2421TIP3   OH228821   1.956   4.584   2.540  0.1926 -0.0203  0.0938
 2421TIP3    H128822   2.005   4.584   2.458 -0.5399 -1.0738 -0.3570
 2421TIP3    H228823   2.024   4.578   2.608  0.7860  0.5651 -0.4283
 2422TIP3   OH228824   4.030   6.658   0.186  0.5346  0.1482  0.7219
 2422TIP3    H128825   4.012   6.679   0.278  1.3232  0.7996  0.7311
 2422TIP3    H228826   4.062   6.568   0.188  2.4050  0.7771  1.3316
 2423TIP3   OH228827   4.169   5.295   1.841  0.2040  0.2567  0.7836
 2423TIP3    H128828   4.108   5.255   1.780  1.9903 -1.3189 -0.0835
 2423TIP3    H228829   4.120   5.307   1.922 -0.7698 -2.6226  0.6970
 2424TIP3   OH228830   3.862   4.285   8.079 -0.3447  0.2391  0.0629
 2424TIP3    H128831   3.795   4.223   8.111 -0.9412  0.7686 -0.1380
 2424TIP3    H228832   3.893   4.328   8.159  0.8148 -1.0195  0.3301
 2425TIP3   OH228833   2.351   5.139   7.129  0.6679  0.3627  0.3161
 2425TIP3    H128834   2.359   5.046   7.150  2.7342  0.6320  0.8799
 2425TIP3    H228835   2.308   5.177   7.206 -1.1143 -0.2203 -0.3251
 2426TIP3   OH228836   0.252   5.372   7.156 -0.9794  0.1467 -0.0515
 2426TIP3    H128837   0.211   5.429   7.091 -0.3541 -0.8422 -1.3500
 2426TIP3    H228838   0.182   5.313   7.184 -0.7753 -0.7689 -1.3875
 2427TIP3   OH228839   2.106   3.181   0.756  0.4986 -0.2136 -0.4834
 2427TIP3    H128840   2.120   3.272   0.781  0.8012 -1.2299  3.8365
 2427TIP3    H228841   2.191   3.139   0.767 -0.4686 -1.7486  1.8268
 2428TIP3   OH228842   0.422   2.767   7.305  0.3387  0.3937 -0.4465
 2428TIP3    H128843   0.417   2.833   7.374 -0.6100  0.3624 -0.4769
 2428TIP3    H228844   0.444   2.686   7.350 -2.3808 -0.0956  0.1694
 2429TIP3   OH228845   2.942   0.246   7.628  0.7027  0.3358 -0.2153
 2429TIP3    H128846   2.872   0.200   7.581  0.7439 -0.2029  0.2335
 2429TIP3    H228847   2.925   0.338   7.613  0.8131  0.1779 -1.4333
 2430TIP3   OH228848   4.299   2.648   1.107 -0.6726 -0.5830 -0.1854
 2430TIP3    H128849   4.218   2.606   1.136 -0.9175  0.3500  0.5684
 2430TIP3    H228850   4.286   2.741   1.128  0.3961 -0.3456 -0.5127
 2431TIP3   OH228851   0.377   0.164   0.322 -0.3277  0.1564 -0.1383
 2431TIP3    H128852   0.411   0.164   0.232 -0.5839  1.2160 -0.2417
 2431TIP3    H228853   0.367   0.256   0.345 -0.2665 -0.1020  0.9911
 2432TIP3   OH228854   6.434   2.799   7.974  0.0823  0.4310  0.0389
 2432TIP3    H128855   6.501   2.863   7.948  0.1337  0.9017  1.2331
 2432TIP3    H228856   6.430   2.807   8.070  1.5215 -2.7248  0.5090
 2433TIP3   OH228857   2.423   0.774   0.551  0.0954 -0.2832  0.3442
 2433TIP3    H128858   2.431   0.855   0.601  0.6440  0.4540 -0.8834
 2433TIP3    H228859   2.508   0.733   0.559  0.6839  0.5714 -1.1507
 2434TIP3   OH228860   3.960   3.124   6.514  0.4565 -0.1944 -0.0978
 2434TIP3    H128861   3.951   3.032   6.540  1.4176 -0.7333 -1.5013
 2434TIP3    H228862   3.903   3.132   6.437  0.1168  0.4937  0.2170
 2435TIP3   OH228863   1.188   3.052   0.330  0.2426 -0.2564 -0.1736
 2435TIP3    H128864   1.176   2.959   0.351  1.5983  0.0830  2.6033
 2435TIP3    H228865   1.268   3.076   0.376 -1.5404  2.9162  1.5841
 2436TIP3   OH228866   3.474   3.268   1.818  0.1205 -0.0235  0.3300
 2436TIP3    H128867   3.478   3.352   1.772 -1.1327 -0.4247 -0.5641
 2436TIP3    H228868   3.564   3.235   1.815  0.6528  1.3152  0.7894
 2437TIP3   OH228869   5.861   2.901   0.024 -0.1804  0.0178  0.3499
 2437TIP3    H128870   5.909   2.975   0.060  0.2487 -0.2209  0.2792
 2437TIP3    H228871   5.844   2.844   0.100 -1.2676  0.5864  0.5585
 2438TIP3   OH228872   5.127   3.272   7.793 -0.6126 -0.1111  0.3636
 2438TIP3    H128873   5.086   3.224   7.865 -1.9929  1.3913  0.6633
 2438TIP3    H228874   5.084   3.358   7.795 -0.1466  0.2242 -1.7937
 2439TIP3   OH228875   2.938   0.450   0.863  0.0853  0.0244 -0.0627
 2439TIP3    H128876   2.878   0.383   0.830  0.2166  0.0424 -0.3405
 2439TIP3    H228877   3.003   0.461   0.793  1.2849 -1.0603  0.8423
 2440TIP3   OH228878   2.507   2.977   1.401  0.0763 -0.5663  0.2644
 2440TIP3    H128879   2.585   3.021   1.437 -0.3388  0.3577  0.0771
 2440TIP3    H228880   2.515   2.989   1.307 -0.4499 -0.1783  0.2646
 2441TIP3   OH228881   5.064   3.178   8.339  0.1815  0.4414 -0.3282
 2441TIP3    H128882   5.004   3.201   8.409 -0.8255  2.0089 -1.6346
 2441TIP3    H228883   5.080   3.084   8.351 -0.3628  0.5660  1.6504
 2442TIP3   OH228884   5.738   1.649   8.047  0.4172  0.3167  0.3187
 2442TIP3    H128885   5.692   1.623   8.127 -0.8367  0.7368 -0.2250
 2442TIP3    H228886   5.802   1.580   8.032  0.1326 -0.1649  1.2627
 2443TIP3   OH228887   6.193   1.852   8.597 -0.3655 -0.2101 -0.2123
 2443TIP3    H128888   6.213   1.766   8.634 -0.5478  0.2425  0.9657
 2443TIP3    H228889   6.103   1.869   8.624 -1.6719 -1.1760 -3.4299
 2444TIP3   OH228890   2.483   1.167   8.233 -0.3423  0.3485 -0.0369
 2444TIP3    H128891   2.479   1.239   8.296 -2.1031 -0.4682  0.8599
 2444TIP3    H228892   2.450   1.091   8.282  1.4777 -1.1060 -0.9399
 2445TIP3   OH228893   5.343   2.974   6.889 -0.3720  0.2648 -0.6969
 2445TIP3    H128894   5.325   3.063   6.859  1.2110  1.5924  1.9525
 2445TIP3    H228895   5.421   2.948   6.840  0.3219  1.1394 -0.0815
 2446TIP3   OH228896   4.565   4.816   0.089 -0.0911  0.3021 -0.4682
 2446TIP3    H128897   4.562   4.804   0.184  0.5550  0.1094 -0.4644
 2446TIP3    H228898   4.600   4.733   0.056  0.2462  0.5797 -0.8193
 2447TIP3   OH228899   5.901   4.549   1.232 -0.7930 -0.0227  0.3772
 2447TIP3    H128900   5.899   4.481   1.299  0.7781 -1.5334 -1.0240
 2447TIP3    H228901   5.993   4.572   1.223 -1.3802  3.4741  1.8499
 2448TIP3   OH228902   6.065   0.553   8.388  0.4669  0.4390 -0.1686
 2448TIP3    H128903   6.097   0.476   8.340 -0.0123  0.9530 -1.3494
 2448TIP3    H228904   6.056   0.522   8.478 -0.7835 -1.2185 -0.8074
 2449TIP3   OH228905   5.516   4.650   0.450  0.3670 -0.0237  0.0278
 2449TIP3    H128906   5.430   4.623   0.483  1.1965 -0.7203  1.7053
 2449TIP3    H228907   5.516   4.621   0.358 -1.1714 -0.0235 -0.0020
 2450TIP3   OH228908   4.700   3.199   7.105  0.4622 -0.3377  0.0089
 2450TIP3    H128909   4.640   3.200   7.031 -1.3500 -2.2731  1.3541
 2450TIP3    H228910   4.658   3.253   7.172  0.2424 -1.5735  0.9074
 2451TIP3   OH228911   4.490   3.968   1.217 -0.3429  0.1553 -0.2797
 2451TIP3    H128912   4.527   4.056   1.226  1.1420 -0.3371 -1.2250
 2451TIP3    H228913   4.489   3.952   1.123 -1.2881 -0.5840 -0.1619
 2452TIP3   OH228914   2.255   4.717   0.129 -0.0579  0.1024  0.0738
 2452TIP3    H128915   2.290   4.737   0.043 -1.7622 -0.5749 -0.8165
 2452TIP3    H228916   2.252   4.802   0.174 -1.8379  0.9964 -1.5885
 2453TIP3   OH228917   4.629   1.785   7.410  0.0302  0.2625 -0.1793
 2453TIP3    H128918   4.596   1.767   7.497 -1.2580  2.5924 -0.1216
 2453TIP3    H228919   4.629   1.699   7.366  0.0589 -0.8295  1.8391
 2454TIP3   OH228920   0.225   4.115   0.177  0.5716 -0.0878 -0.0327
 2454TIP3    H128921   0.301   4.098   0.233  0.8416 -0.1748 -0.4170
 2454TIP3    H228922   0.229   4.209   0.158  0.5774 -0.0889 -0.0375
 2455TIP3   OH228923   0.480   3.543   0.829 -0.4130 -0.1210 -0.2881
 2455TIP3    H128924   0.573   3.526   0.840 -0.7287 -1.5367  0.3684
 2455TIP3    H228925   0.458   3.500   0.746 -0.4647  0.3617 -0.5315
 2456TIP3   OH228926   0.424   4.979   1.408 -0.5378  0.3860  0.1343
 2456TIP3    H128927   0.363   4.907   1.423 -2.0770  1.6903  0.3816
 2456TIP3    H228928   0.419   4.996   1.314  0.3656 -0.2638 -0.0455
 2457TIP3   OH228929   2.895   1.719   0.778  0.1170 -0.1009 -0.1874
 2457TIP3    H128930   2.819   1.767   0.744 -0.0384 -0.9720 -1.1253
 2457TIP3    H228931   2.862   1.630   0.790  0.7538 -0.2768  0.2746
 2458TIP3   OH228932   5.518   3.978   7.623  0.2158  0.7887 -0.2807
 2458TIP3    H128933   5.539   3.952   7.533  1.2844 -2.5515  0.7844
 2458TIP3    H228934   5.581   3.931   7.677 -2.4701 -0.0293  2.4049
 2459TIP3   OH228935   2.079   2.829   0.356  0.1258  0.5029 -0.2385
 2459TIP3    H128936   2.140   2.880   0.303 -0.0487 -0.6955 -1.6680
 2459TIP3    H228937   1.996   2.877   0.352 -0.0953  0.0336 -1.7426
 2460TIP3   OH228938   5.033   6.204   1.968 -0.6692  0.5926 -0.2098
 2460TIP3    H128939   5.005   6.276   2.024 -0.5618  0.0795  0.5187
 2460TIP3    H228940   5.101   6.158   2.019 -1.3156 -0.5076 -0.3033
 2461TIP3   OH228941   5.680   2.881   1.423  0.0519 -0.5393 -0.2536
 2461TIP3    H128942   5.772   2.854   1.423  0.4706  0.7650 -1.2962
 2461TIP3    H228943   5.655   2.884   1.331  0.0528  2.4115 -0.2814
 2462TIP3   OH228944   3.652   5.939   1.817 -0.2764 -0.6607  0.0445
 2462TIP3    H128945   3.691   5.949   1.730  0.9498 -1.3843  0.4919
 2462TIP3    H228946   3.558   5.951   1.802 -0.0708 -0.5970 -1.3485
 2463TIP3   OH228947   6.787   1.311   0.543 -0.6116  0.2337  0.9911
 2463TIP3    H128948   6.816   1.373   0.610  0.1708  1.6832 -0.6165
 2463TIP3    H228949   6.743   1.365   0.478 -0.4829 -0.9875 -0.1559
 2464TIP3   OH228950   1.882   4.503   1.448  0.1323 -0.3470 -0.2292
 2464TIP3    H128951   1.911   4.417   1.417  0.9439  0.1299 -0.8351
 2464TIP3    H228952   1.960   4.542   1.487  0.0624  0.5544 -0.9628
 2465TIP3   OH228953   4.216   2.116   0.025  0.3789  0.2586 -0.5270
 2465TIP3    H128954   4.152   2.184   0.003 -1.8239 -1.0545  1.3282
 2465TIP3    H228955   4.298   2.163   0.035 -0.7217  2.3921 -0.9332
 2466TIP3   OH228956   4.483   0.938   8.311 -0.3245 -0.0496  0.3780
 2466TIP3    H128957   4.414   1.004   8.317 -0.3874 -0.1624  1.0003
 2466TIP3    H228958   4.440   0.856   8.334 -0.0017 -0.1295  0.7160
 2467TIP3   OH228959   0.659   0.711   0.830  0.1863  0.1353  0.0844
 2467TIP3    H128960   0.717   0.786   0.821 -0.0755  0.1790 -1.5291
 2467TIP3    H228961   0.575   0.749   0.855  0.3100  0.2829  0.2784
 2468TIP3   OH228962   2.286   5.706   7.327 -0.3230 -0.6779  0.2240
 2468TIP3    H128963   2.374   5.673   7.310  0.4172  0.7372  1.1448
 2468TIP3    H228964   2.298   5.773   7.393 -2.0318 -0.0313 -0.0794
 2469TIP3   OH228965   4.355   1.632   0.068  0.8602  0.0785 -0.4722
 2469TIP3    H128966   4.354   1.537   0.069  0.4609  0.0277 -2.3090
 2469TIP3    H228967   4.439   1.655   0.028  0.2385  0.4290 -1.6258
 2470TIP3   OH228968   5.811   4.324   2.435 -0.4777  0.3824  0.0808
 2470TIP3    H128969   5.874   4.371   2.381 -1.6942 -0.5145 -2.2387
 2470TIP3    H228970   5.835   4.232   2.428  0.4670  0.3364  2.6922
 2471TIP3   OH228971   0.223   4.983   7.701  0.9309 -0.0728  0.6040
 2471TIP3    H128972   0.138   4.940   7.687  0.2637  0.9986  1.2867
 2471TIP3    H228973   0.204   5.057   7.758  2.2220  0.5823  0.2263
 2472TIP3   OH228974   1.665   5.325   6.820 -0.1623 -0.1491 -0.7206
 2472TIP3    H128975   1.632   5.270   6.891  0.8883 -0.5333 -0.5205
 2472TIP3    H228976   1.653   5.273   6.741  1.0758 -0.8018 -0.5004
 2473TIP3   OH228977   3.491   1.711   8.795 -0.2553 -0.4910 -0.0025
 2473TIP3    H128978   3.477   1.634   8.740 -1.4425  0.3866 -0.9664
 2473TIP3    H228979   3.468   1.682   8.883 -3.2560 -0.6105 -0.7124
 2474TIP3   OH228980   0.974   1.033   1.749  0.6198  0.1598 -0.2705
 2474TIP3    H128981   1.042   1.052   1.814  0.9459 -0.8148 -0.3216
 2474TIP3    H228982   0.983   0.940   1.730  1.3532  0.6484 -2.6632
 2475TIP3   OH228983   1.985   4.978   1.179  0.6168 -0.0482 -0.6221
 2475TIP3    H128984   1.947   4.918   1.243 -1.2759  1.0847 -0.6235
 2475TIP3    H228985   1.951   4.947   1.095 -1.5695  1.7600 -0.5052
 2476TIP3   OH228986   6.218   3.693   1.647 -0.5428 -0.3540 -0.1192
 2476TIP3    H128987   6.161   3.619   1.670  1.2254 -1.4391  0.9390
 2476TIP3    H228988   6.167   3.770   1.671 -1.4982 -1.2836  0.9883
 2477TIP3   OH228989   6.274   2.107   6.345 -0.2128  0.9294 -0.1113
 2477TIP3    H128990   6.251   2.156   6.267  1.8673  0.8305 -0.8644
 2477TIP3    H228991   6.339   2.161   6.390 -1.1959  0.8806  1.4646
 2478TIP3   OH228992   6.485   0.736   7.787  0.1424 -0.0200 -0.7904
 2478TIP3    H128993   6.443   0.748   7.873  0.6071  0.0572 -0.5681
 2478TIP3    H228994   6.517   0.645   7.789  0.7093  0.1781 -0.6258
 2479TIP3   OH228995   4.694   6.117   2.182 -0.6161 -0.1404  0.6574
 2479TIP3    H128996   4.742   6.150   2.106 -0.6034 -3.0213 -0.6851
 2479TIP3    H228997   4.759   6.112   2.251  0.7079 -2.2684 -0.6296
 2480TIP3   OH228998   5.431   5.840   7.067 -0.2443  0.4117  0.0905
 2480TIP3    H128999   5.394   5.880   6.988  0.9997 -0.4613 -0.9778
 2480TIP3    H229000   5.429   5.746   7.050 -1.0340  0.1234  1.6171
 2481TIP3   OH229001   6.502   2.555   0.916  0.1540  0.2386  0.6759
 2481TIP3    H129002   6.575   2.586   0.863 -0.5422  0.3026 -0.2836
 2481TIP3    H229003   6.532   2.563   1.007  2.2150 -1.9214  0.2826
 2482TIP3   OH229004   0.513   2.833   0.043 -0.0906  0.3711 -0.2473
 2482TIP3    H129005   0.585   2.777   0.074 -1.0659 -1.0019 -0.3729
 2482TIP3    H229006   0.551   2.883  -0.029  0.8691  0.0423  0.0098
 2483TIP3   OH229007   1.998   2.743   0.093 -0.1093  0.4866  0.5468
 2483TIP3    H129008   1.955   2.669   0.137  0.5319 -1.3306 -1.7206
 2483TIP3    H229009   1.938   2.767   0.023 -2.3455  4.9920  3.4870
 2484TIP3   OH229010   3.948   5.681   2.045 -0.1409 -0.3059 -0.6991
 2484TIP3    H129011   3.967   5.690   2.139 -1.5803  6.4801 -0.5551
 2484TIP3    H229012   3.861   5.642   2.043  0.4145 -1.7320  0.6338
 2485TIP3   OH229013   5.918   0.166   7.042 -0.1232  0.2997  0.0620
 2485TIP3    H129014   5.832   0.128   7.060  1.0846 -2.6116  0.1112
 2485TIP3    H229015   5.918   0.183   6.948 -0.3122 -0.8972 -0.1596
 2486TIP3   OH229016   6.369   2.308   0.640  0.6458  0.2054  0.5951
 2486TIP3    H129017   6.394   2.266   0.722  0.8838 -2.9633 -0.9805
 2486TIP3    H229018   6.273   2.304   0.639  0.6616 -0.1310  0.5271
 2487TIP3   OH229019   5.155   4.129   0.845 -0.6120  0.4745  0.5114
 2487TIP3    H129020   5.068   4.145   0.883 -0.9613 -2.1114  1.0009
 2487TIP3    H229021   5.141   4.138   0.751 -1.7157 -0.9128  0.5020
 2488TIP3   OH229022   6.089   2.653   0.508 -0.1905 -0.0255 -1.1394
 2488TIP3    H129023   6.175   2.662   0.467  0.1172  0.4988 -0.3876
 2488TIP3    H229024   6.064   2.562   0.491  0.4320 -0.1355 -1.5038
 2489TIP3   OH229025   0.259   5.815   8.416  0.0233 -0.0516  0.3856
 2489TIP3    H129026   0.227   5.724   8.416  0.4894 -0.2200  0.1748
 2489TIP3    H229027   0.354   5.806   8.408 -0.0790  0.4986 -2.3362
 2490TIP3   OH229028   1.313   1.098   1.126 -0.3971  0.2235  0.0374
 2490TIP3    H129029   1.348   1.175   1.172 -2.0441  0.6666  0.5998
 2490TIP3    H229030   1.231   1.128   1.087 -0.2711 -0.8328 -1.0890
 2491TIP3   OH229031   5.341   5.621   7.875 -0.0192  0.5144 -0.4135
 2491TIP3    H129032   5.250   5.638   7.848  0.1640  1.3988 -0.4967
 2491TIP3    H229033   5.390   5.696   7.842  1.0548 -0.7957 -1.8458
 2492TIP3   OH229034   5.130   4.537   1.336 -0.3664  0.1123  0.5022
 2492TIP3    H129035   5.172   4.593   1.401 -0.9124  3.6814 -1.8966
 2492TIP3    H229036   5.197   4.524   1.269 -1.3273  1.1956 -0.7367
 2493TIP3   OH229037   3.115   5.903   7.250 -0.1220 -0.0092  0.0569
 2493TIP3    H129038   3.181   5.838   7.274 -0.3164 -0.5173 -0.7774
 2493TIP3    H229039   3.102   5.955   7.330  0.6988 -0.4124  0.4567
 2494TIP3   OH229040   3.512   2.218   8.532  0.0124 -0.5319  0.2346
 2494TIP3    H129041   3.443   2.222   8.466  0.4102 -2.0572 -0.3155
 2494TIP3    H229042   3.500   2.133   8.574  1.0036 -0.4412  0.7259
 2495TIP3   OH229043   1.511   4.097   7.603  0.4937  0.4242  0.3276
 2495TIP3    H129044   1.505   4.135   7.690  0.6919 -1.0863  1.0334
 2495TIP3    H229045   1.605   4.083   7.589  0.4564  0.5798 -0.1011
 2496TIP3   OH229046   0.423   1.437   8.234  0.2669 -0.4332 -0.4973
 2496TIP3    H129047   0.485   1.369   8.263  0.0056 -0.7362 -0.6444
 2496TIP3    H229048   0.479   1.510   8.207  0.5532 -0.6085 -0.3856
 2497TIP3   OH229049   3.603   4.962   7.488  0.1375 -0.4668 -0.3088
 2497TIP3    H129050   3.618   5.047   7.530 -1.9742  0.9670 -2.1691
 2497TIP3    H229051   3.565   4.908   7.557 -0.8046  0.9438  0.3341
 2498TIP3   OH229052   4.358   0.255   0.894  0.6958 -0.7456 -0.2564
 2498TIP3    H129053   4.266   0.229   0.899 -0.0711  1.1620 -2.4219
 2498TIP3    H229054   4.361   0.340   0.939  1.4423 -0.8487 -0.0964
 2499TIP3   OH229055   4.032   2.243   0.239 -0.0417 -0.0995  0.1783
 2499TIP3    H129056   4.103   2.191   0.277 -0.7156 -0.7857  0.5117
 2499TIP3    H229057   3.995   2.187   0.171 -1.0588 -0.2477  0.8385
 2500TIP3   OH229058   3.382   1.452   2.047  0.6979  0.1160 -0.2729
 2500TIP3    H129059   3.309   1.445   1.986  0.3977  2.4208 -0.2892
 2500TIP3    H229060   3.341   1.456   2.133  0.8519  0.5079 -0.2147
 2501TIP3   OH229061   2.934   2.953   8.011 -0.0165  0.9742 -0.1042
 2501TIP3    H129062   2.841   2.932   8.002 -0.0453 -0.1841  2.1097
 2501TIP3    H229063   2.976   2.868   8.028  1.4719  1.4696 -1.0701
 2502TIP3   OH229064   3.897   2.180   8.125  0.1620 -0.0467  0.4129
 2502TIP3    H129065   3.871   2.272   8.130  3.4450  0.9791  0.7111
 2502TIP3    H229066   3.951   2.165   8.202  1.7561 -1.4826 -0.9024
 2503TIP3   OH229067   5.676   0.071   7.117 -0.2886  0.6742  0.2786
 2503TIP3    H129068   5.626   0.063   7.198 -0.7407  2.0762  0.1712
 2503TIP3    H229069   5.617   0.040   7.049  0.1282 -0.6018  0.4650
 2504TIP3   OH229070   1.829   3.204   0.579  0.4336 -0.0309 -0.0822
 2504TIP3    H129071   1.891   3.220   0.651  0.5802  0.9980 -0.4236
 2504TIP3    H229072   1.772   3.281   0.578  0.2959 -0.1322 -0.9363
 2505TIP3   OH229073   1.185   5.359   1.742 -0.2149 -0.3743 -0.0988
 2505TIP3    H129074   1.267   5.392   1.706  0.6452 -1.0460  1.1780
 2505TIP3    H229075   1.131   5.341   1.665  0.9197 -0.1579 -0.9762
 2506TIP3   OH229076   3.804   3.599   0.091 -0.0551  0.0839  0.0720
 2506TIP3    H129077   3.896   3.601   0.067 -0.0334 -1.1485  0.0017
 2506TIP3    H229078   3.757   3.612   0.009  0.0118  2.2814  0.2960
 2507TIP3   OH229079   4.290   5.538   1.509 -0.1778 -0.1587 -0.2880
 2507TIP3    H129080   4.365   5.486   1.539 -1.3210 -0.3232  2.5267
 2507TIP3    H229081   4.214   5.483   1.526 -1.0435  0.1438 -2.8000
 2508TIP3   OH229082   3.445   6.387   0.743  0.2983  0.0292  0.1746
 2508TIP3    H129083   3.487   6.438   0.674  0.2899  0.5686  0.5573
 2508TIP3    H229084   3.409   6.453   0.803  1.2998 -0.4025  1.2969
 2509TIP3   OH229085   1.357   4.147   1.114  0.3111 -0.6202  0.4487
 2509TIP3    H129086   1.358   4.243   1.105  0.9603 -0.6507  0.1167
 2509TIP3    H229087   1.345   4.132   1.208  1.1528 -0.1926  0.6416
 2510TIP3   OH229088   2.395   1.296   6.547 -0.0283 -0.6585  0.5671
 2510TIP3    H129089   2.424   1.372   6.598 -1.6476  0.6532 -0.3678
 2510TIP3    H229090   2.455   1.293   6.472  0.5550 -0.8189  1.0338
 2511TIP3   OH229091   5.694   0.756   2.114 -0.3300  0.4924  0.3678
 2511TIP3    H129092   5.706   0.847   2.141  1.2302  0.6454 -0.6851
 2511TIP3    H229093   5.674   0.761   2.020  0.4803 -0.2485  0.1368
 2512TIP3   OH229094   1.157   1.866   1.848  0.2595  0.4111 -0.0823
 2512TIP3    H129095   1.158   1.813   1.768 -0.5087  0.5418 -0.1962
 2512TIP3    H229096   1.116   1.809   1.913  0.7889  0.3429  0.1878
 2513TIP3   OH229097   1.480   4.011   8.603  0.6541 -0.0630  0.2133
 2513TIP3    H129098   1.451   3.920   8.599  3.9506 -1.2034 -3.1946
 2513TIP3    H229099   1.405   4.058   8.641 -1.9274 -3.8339  0.3643
 2514TIP3   OH229100   2.945   5.727   1.418 -0.2168 -0.1820 -0.6141
 2514TIP3    H129101   2.955   5.730   1.323  0.9515  0.6750 -0.4823
 2514TIP3    H229102   2.941   5.819   1.445 -0.3202 -0.4104  0.1886
 2515TIP3   OH229103   3.931   1.550   1.382 -0.6411  0.4700  0.8083
 2515TIP3    H129104   3.889   1.465   1.371  0.1423  0.2946 -1.3083
 2515TIP3    H229105   4.009   1.545   1.327 -1.4582  3.1257 -0.7957
 2516TIP3   OH229106   1.897   6.499   0.045 -1.1532  0.3188  0.1729
 2516TIP3    H129107   1.987   6.528   0.029 -1.1251  0.7117  0.9924
 2516TIP3    H229108   1.843   6.564   0.000 -1.0386 -0.0508 -0.5259
 2517TIP3   OH229109   1.128   3.318   0.481 -0.1926 -0.0372  0.2225
 2517TIP3    H129110   1.076   3.397   0.470 -0.7661 -0.3970  0.3078
 2517TIP3    H229111   1.113   3.268   0.401  0.8524  0.3183 -0.2201
 2518TIP3   OH229112   5.199   5.511   0.200 -1.0100 -0.3841 -0.1365
 2518TIP3    H129113   5.202   5.545   0.289 -0.6402 -0.4285 -0.1295
 2518TIP3    H229114   5.240   5.425   0.205  0.1696  0.1316 -0.5719
 2519TIP3   OH229115   0.594   2.659   1.707 -0.2295  0.8844  0.2286
 2519TIP3    H129116   0.644   2.708   1.773 -0.4153  0.2286  0.8726
 2519TIP3    H229117   0.518   2.626   1.755 -1.1524  1.6537 -0.6867
 2520TIP3   OH229118   0.822   1.819   0.624 -0.5061  0.0685  0.1588
 2520TIP3    H129119   0.861   1.732   0.614 -0.7961 -0.4478  2.7648
 2520TIP3    H229120   0.888   1.870   0.671 -1.4380  0.3775  1.1640
 2521TIP3   OH229121   3.604   6.485   8.812 -0.3577 -0.1133 -0.2017
 2521TIP3    H129122   3.579   6.468   8.903  0.4581  0.0681  0.0657
 2521TIP3    H229123   3.698   6.467   8.809 -0.3969 -0.2175 -1.0346
 2522TIP3   OH229124   0.240   6.110   8.586 -0.0264  0.1410 -0.1315
 2522TIP3    H129125   0.214   6.029   8.543 -2.0605 -0.0843  1.3766
 2522TIP3    H229126   0.180   6.176   8.553  0.9534  0.8417 -0.5722
 2523TIP3   OH229127   3.863   6.604   8.543 -0.1317 -0.0462  0.1900
 2523TIP3    H129128   3.789   6.659   8.514  0.7087  1.0449  0.0521
 2523TIP3    H229129   3.862   6.530   8.482 -2.0654 -0.8993  1.1622
 2524TIP3   OH229130   5.119   2.847   1.698 -0.0476  0.2737 -0.3190
 2524TIP3    H129131   5.048   2.783   1.703  0.8995 -1.3251 -4.0952
 2524TIP3    H229132   5.076   2.926   1.666 -0.8642  1.0731  2.4262
 2525TIP3   OH229133   1.584   2.996   0.744  0.6287  0.4191 -0.2042
 2525TIP3    H129134   1.565   3.063   0.810 -1.9444  0.5294 -0.9478
 2525TIP3    H229135   1.670   3.019   0.711  1.1728  1.4745  1.7783
 2526TIP3   OH229136   5.464   3.611   1.876  0.3053 -0.0460 -0.0293
 2526TIP3    H129137   5.437   3.702   1.867  1.2906  0.2031 -0.7007
 2526TIP3    H229138   5.536   3.613   1.939 -1.1020 -0.6794  1.6677
 2527TIP3   OH229139   2.951   4.105   1.225  0.3930  0.0916  0.0914
 2527TIP3    H129140   2.947   4.084   1.132  2.2702  1.6259 -0.3910
 2527TIP3    H229141   2.860   4.097   1.255 -0.1299 -1.2040 -1.6600
 2528TIP3   OH229142   3.048   3.110   8.216  0.3209  0.9072 -0.0103
 2528TIP3    H129143   2.971   3.093   8.270  0.3079 -0.6717 -0.4763
 2528TIP3    H229144   3.027   3.072   8.131  1.8547 -0.1900  0.0519
 2529TIP3   OH229145   2.386   1.997   1.000 -0.2586  0.0928 -0.0769
 2529TIP3    H129146   2.376   2.067   1.064  1.0077  0.2010  0.0345
 2529TIP3    H229147   2.476   2.007   0.969  0.2330 -2.0000  0.5592
 2530TIP3   OH229148   2.815   5.279   7.320 -0.7541 -0.0489  0.5555
 2530TIP3    H129149   2.864   5.311   7.244 -0.2398  0.0743  0.9357
 2530TIP3    H229150   2.820   5.349   7.384 -2.1351  0.3050  0.3068
 2531TIP3   OH229151   1.470   4.105   7.862 -0.2138  1.0123  0.0950
 2531TIP3    H129152   1.433   4.163   7.929 -0.7522  0.0432  0.6603
 2531TIP3    H229153   1.550   4.070   7.902  0.4545  1.8349 -0.4905
 2532TIP3   OH229154   5.169   0.229   0.369  0.4746 -0.2419 -0.2235
 2532TIP3    H129155   5.207   0.256   0.453 -0.1827  0.3332 -0.0941
 2532TIP3    H229156   5.092   0.285   0.359  0.6478 -0.1748 -1.3090
 2533TIP3   OH229157   0.927   5.824   0.780 -0.2959 -0.0072  0.8097
 2533TIP3    H129158   0.864   5.809   0.710 -0.5327  0.1247  0.9925
 2533TIP3    H229159   0.934   5.919   0.787 -0.9120  0.0005  1.5204
 2534TIP3   OH229160   4.006   3.028   7.900  0.1798 -0.3287 -0.1631
 2534TIP3    H129161   3.951   2.997   7.972  1.3671  0.8742  1.3016
 2534TIP3    H229162   3.977   3.118   7.885 -0.0673 -0.5717 -1.2379
 2535TIP3   OH229163   2.790   0.823   0.395 -0.0666  0.2463  0.1714
 2535TIP3    H129164   2.826   0.761   0.458  2.4294 -0.4974 -1.8051
 2535TIP3    H229165   2.750   0.767   0.327 -0.8613  0.9453  0.0453
 2536TIP3   OH229166   0.108   6.454   7.533  0.2341  0.3959 -0.5038
 2536TIP3    H129167   0.163   6.412   7.599 -1.6936 -0.1320  0.8505
 2536TIP3    H229168   0.071   6.381   7.483 -2.8709  0.3234  1.6504
 2537TIP3   OH229169   1.477   5.192   1.812 -0.2547 -0.4620 -0.3479
 2537TIP3    H129170   1.493   5.286   1.826  0.5140 -0.3498 -1.7459
 2537TIP3    H229171   1.427   5.189   1.730  1.6233 -1.3554 -1.5189
 2538TIP3   OH229172   3.306   4.848   0.501  0.4934 -0.5714  0.2850
 2538TIP3    H129173   3.374   4.886   0.557  1.5835  0.2960 -1.5533
 2538TIP3    H229174   3.307   4.901   0.422 -0.4502 -2.2399 -0.9121
 2539TIP3   OH229175   3.165   5.229   6.513 -0.5266  0.6500  0.1444
 2539TIP3    H129176   3.134   5.264   6.596  0.0847  0.1179  0.6054
 2539TIP3    H229177   3.257   5.209   6.528  0.0764  2.1634 -1.1859
 2540TIP3   OH229178   3.590   4.004   1.688  0.3985 -0.2900  0.2417
 2540TIP3    H129179   3.550   4.074   1.739  0.6294 -0.2060  0.3077
 2540TIP3    H229180   3.516   3.950   1.659  0.1081  0.7040 -0.9195
 2541TIP3   OH229181   2.476   3.325   7.051  0.4952 -0.6065 -0.3401
 2541TIP3    H129182   2.401   3.321   6.992  0.1524 -4.1004  0.0843
 2541TIP3    H229183   2.553   3.326   6.994  0.1684  0.6746 -0.7772
 2542TIP3   OH229184   5.342   2.770   7.968  0.3146  0.1181 -0.0892
 2542TIP3    H129185   5.438   2.770   7.964  0.2932  1.3508 -2.2769
 2542TIP3    H229186   5.316   2.700   7.908 -0.1424  1.2141 -1.1960
 2543TIP3   OH229187   4.595   6.105   8.784 -0.1125  0.2792 -0.7094
 2543TIP3    H129188   4.553   6.138   8.863 -2.0667 -2.9949 -0.1973
 2543TIP3    H229189   4.672   6.057   8.817 -0.0644  0.2094 -0.9241
 2544TIP3   OH229190   0.977   1.005   0.399  0.1229 -0.0598 -0.4281
 2544TIP3    H129191   0.924   1.037   0.326  0.8464 -1.7451 -1.7723
 2544TIP3    H229192   0.917   1.002   0.473 -0.3969  2.6331 -0.6491
 2545TIP3   OH229193   6.546   3.242   1.445  0.4557 -0.1893 -0.1875
 2545TIP3    H129194   6.501   3.254   1.529 -0.4433 -0.3111 -0.6386
 2545TIP3    H229195   6.485   3.190   1.392  1.5220 -1.1488 -0.5138
 2546TIP3   OH229196   1.200   4.359   8.485 -0.0236 -0.4452  0.0573
 2546TIP3    H129197   1.173   4.274   8.451 -1.2035 -0.1565  0.2211
 2546TIP3    H229198   1.169   4.360   8.575 -1.0798  0.5851 -0.2789
 2547TIP3   OH229199   5.973   0.145   5.963 -0.4939  0.4219 -0.4544
 2547TIP3    H129200   5.981   0.172   6.054 -2.5229 -1.0244  0.2233
 2547TIP3    H229201   5.984   0.050   5.965  0.8660  0.5079 -1.9479
 2548TIP3   OH229202   4.646   4.693   1.569 -0.4866 -0.4551 -0.6224
 2548TIP3    H129203   4.582   4.635   1.610  0.4146 -0.3665  0.9904
 2548TIP3    H229204   4.618   4.781   1.594  1.0306 -0.4701  1.3962
 2549TIP3   OH229205   5.004   0.763   2.542 -0.4015  0.2800 -0.7075
 2549TIP3    H129206   5.074   0.698   2.532 -1.9594 -1.6722  0.3017
 2549TIP3    H229207   4.938   0.737   2.477 -1.6943 -0.1013  0.7089
 2550TIP3   OH229208   5.205   1.023   0.524 -0.2224  0.1402  0.3748
 2550TIP3    H129209   5.131   1.067   0.482 -0.5059  0.9172  1.6617
 2550TIP3    H229210   5.217   0.943   0.472 -1.8917  0.0427  0.0843
 2551TIP3   OH229211   3.194   3.014   1.398 -0.3363  0.3968 -0.1558
 2551TIP3    H129212   3.265   3.032   1.336 -0.1632  1.0380  0.2254
 2551TIP3    H229213   3.151   3.098   1.412  1.2570  0.8788  2.5730
 2552TIP3   OH229214   6.276   2.045   2.022  1.0614  0.3224  0.1085
 2552TIP3    H129215   6.335   2.085   2.086  0.4318 -0.3875  1.1687
 2552TIP3    H229216   6.275   1.952   2.045 -0.1699  0.2587 -0.1332
 2553TIP3   OH229217   5.974   6.606   8.755 -0.1337  0.1042 -0.6515
 2553TIP3    H129218   6.008   6.518   8.768 -0.5699 -0.2326 -1.7360
 2553TIP3    H229219   6.005   6.632   8.669  1.6039  1.7823  0.4137
 2554TIP3   OH229220   1.124   6.581   8.639  0.0758 -0.2952  0.0151
 2554TIP3    H129221   1.056   6.630   8.683  0.3149 -0.1391  0.2107
 2554TIP3    H229222   1.077   6.512   8.592 -0.1347 -0.8686  1.0350
 2555TIP3   OH229223   3.517   3.735   7.481  0.4552  0.3865 -0.6750
 2555TIP3    H129224   3.533   3.674   7.553  1.4800  0.8174 -0.5152
 2555TIP3    H229225   3.423   3.752   7.484  0.3347 -0.3328 -0.0374
 2556TIP3   OH229226   4.795   5.450   2.291 -0.4053 -0.7210 -0.1819
 2556TIP3    H129227   4.728   5.518   2.299 -0.9807 -1.0091 -2.0124
 2556TIP3    H229228   4.876   5.494   2.316 -1.2054 -0.2850  1.7754
 2557TIP3   OH229229   2.874   0.996   7.273 -0.4905 -0.2880  0.2744
 2557TIP3    H129230   2.936   0.931   7.240 -0.9346 -0.1836 -0.8354
 2557TIP3    H229231   2.848   0.964   7.359 -0.1273 -1.1885  0.0600
 2558TIP3   OH229232   6.784   0.283   1.973  0.3817  0.0943  0.0673
 2558TIP3    H129233   6.719   0.349   1.998  0.7438  0.1333  0.9541
 2558TIP3    H229234   6.809   0.241   2.055 -0.9424 -2.2336 -0.6544
 2559TIP3   OH229235   6.056   5.324   1.302 -0.1792  1.0663 -0.4045
 2559TIP3    H129236   6.054   5.415   1.270 -0.5184  1.2730  0.1905
 2559TIP3    H229237   6.028   5.330   1.393 -0.1133  0.3695 -0.3328
 2560TIP3   OH229238   4.121   0.431   1.963 -0.7254 -0.4802  0.9852
 2560TIP3    H129239   4.123   0.462   2.054 -1.6477  0.9098  0.5738
 2560TIP3    H229240   4.097   0.509   1.913 -1.2432 -1.4629 -0.3433
 2561TIP3   OH229241   4.241   0.037   7.748 -0.6644 -0.5914 -0.0130
 2561TIP3    H129242   4.219  -0.052   7.774 -0.4203 -0.5439  0.3671
 2561TIP3    H229243   4.264   0.030   7.655  3.4612 -1.7203  0.8790
 2562TIP3   OH229244   4.087   6.064   0.251  0.0139  0.4265  0.1664
 2562TIP3    H129245   4.054   5.996   0.192  0.1195  1.1419 -0.7282
 2562TIP3    H229246   4.074   6.146   0.203  0.0777  1.0223  1.1541
 2563TIP3   OH229247   4.404   0.032   0.493 -0.3045  0.1693  0.1114
 2563TIP3    H129248   4.414  -0.058   0.463 -0.7797  0.2832 -0.4196
 2563TIP3    H229249   4.443   0.085   0.423 -0.2041  0.3848  0.3267
 2564TIP3   OH229250   2.799   1.745   1.632  0.5490 -0.1041 -0.0185
 2564TIP3    H129251   2.855   1.821   1.611 -1.3801  1.5113  0.3728
 2564TIP3    H229252   2.727   1.782   1.683  0.7970 -2.6041  2.4222
 2565TIP3   OH229253   1.458   6.307   7.744 -0.3373  0.2728 -0.3417
 2565TIP3    H129254   1.432   6.217   7.726  1.0314 -0.3480  0.6892
 2565TIP3    H229255   1.544   6.301   7.785 -0.4419  2.0167  0.2508
 2566TIP3   OH229256   2.989   2.653   7.230 -0.2644 -0.5099  0.5683
 2566TIP3    H129257   2.988   2.558   7.239  0.3953 -0.4358  1.6332
 2566TIP3    H229258   2.957   2.685   7.315  3.0155  0.2404  1.6886
 2567TIP3   OH229259   6.582   0.826   7.032 -0.0668  0.3564 -0.0422
 2567TIP3    H129260   6.659   0.821   7.089  1.1785 -0.6270 -1.6978
 2567TIP3    H229261   6.570   0.736   7.000 -2.3006  0.3552  0.6037
 2568TIP3   OH229262   4.721   4.840   7.278  0.5594 -0.4355  0.2113
 2568TIP3    H129263   4.688   4.847   7.367  0.8824 -0.9175  0.3765
 2568TIP3    H229264   4.709   4.927   7.240  0.4709 -0.2137  0.7421
 2569TIP3   OH229265   2.702   4.309   8.266  0.4565  0.1674 -0.0612
 2569TIP3    H129266   2.637   4.238   8.259  1.3235 -0.6943  0.3802
 2569TIP3    H229267   2.659   4.374   8.323  1.0131 -1.6976  2.7140
 2570TIP3   OH229268   5.041   6.687   7.049  0.4952  0.5663 -0.1060
 2570TIP3    H129269   5.037   6.700   6.955  0.7682  0.1225 -0.1838
 2570TIP3    H229270   4.962   6.728   7.083  0.7233  1.3141 -0.4554
 2571TIP3   OH229271   4.606   5.805   8.371  0.0693  0.0150  0.1855
 2571TIP3    H129272   4.640   5.775   8.455 -0.7505 -0.7699  0.2423
 2571TIP3    H229273   4.625   5.899   8.370 -0.2084  0.0890  1.3879
 2572TIP3   OH229274   5.455   0.736   7.288  0.4934  0.3181 -0.7814
 2572TIP3    H129275   5.386   0.784   7.334 -0.2999 -0.3948 -1.1743
 2572TIP3    H229276   5.426   0.736   7.196  1.5937  0.9599 -1.1496
 2573TIP3   OH229277   0.447   2.644   7.006  0.2574  0.4973 -0.6151
 2573TIP3    H129278   0.445   2.557   7.046 -2.8578 -0.1617 -1.8702
 2573TIP3    H229279   0.382   2.639   6.935 -1.1370  4.2477  0.1580
 2574TIP3   OH229280   0.602   5.065   0.292  0.3836 -0.1208  0.1939
 2574TIP3    H129281   0.613   5.156   0.266  0.0102  0.0759  0.7222
 2574TIP3    H229282   0.677   5.048   0.350  0.1674  0.0065  0.5128
 2575TIP3   OH229283   4.877   1.463   7.643 -0.4574  0.4269 -0.2350
 2575TIP3    H129284   4.805   1.443   7.583 -2.4042  0.5054  1.9124
 2575TIP3    H229285   4.881   1.558   7.645 -1.1442  0.4559  0.5166
 2576TIP3   OH229286   2.071   1.713   7.943  0.6842 -0.4311  0.0693
 2576TIP3    H129287   2.142   1.662   7.982  0.3671 -2.0624 -1.3621
 2576TIP3    H229288   1.992   1.662   7.961 -0.0348  0.9115  0.8596
 2577TIP3   OH229289   5.504   6.347   0.819 -0.5622 -0.5534 -1.2164
 2577TIP3    H129290   5.531   6.358   0.728  1.7482  1.9127 -0.3926
 2577TIP3    H229291   5.572   6.291   0.858 -0.3461  0.1122 -0.5999
 2578TIP3   OH229292   5.781   6.271   7.820  0.4775  0.1407 -0.0642
 2578TIP3    H129293   5.828   6.206   7.767 -0.1491 -0.2309 -0.1685
 2578TIP3    H229294   5.848   6.306   7.879  0.9132 -0.3032 -0.2851
 2579TIP3   OH229295   4.598   0.404   6.898  0.0873 -0.3185  0.2936
 2579TIP3    H129296   4.682   0.444   6.919  1.0068 -1.2545 -1.3601
 2579TIP3    H229297   4.541   0.427   6.971  1.7933  0.2734  1.4955
 2580TIP3   OH229298   1.077   1.595   1.665  0.0410  0.6136 -0.5841
 2580TIP3    H129299   1.085   1.504   1.693 -1.8784 -0.3026 -2.6859
 2580TIP3    H229300   1.032   1.590   1.581 -1.2543  3.5891 -0.1817
 2581TIP3   OH229301   0.908   4.958   7.345  1.1336 -0.0241 -0.2887
 2581TIP3    H129302   0.979   4.971   7.282  0.7439  0.9393 -0.5598
 2581TIP3    H229303   0.888   4.865   7.341  0.0416  0.2439 -2.7900
 2582TIP3   OH229304   2.054   6.173   8.331  0.1311 -0.2419 -0.4735
 2582TIP3    H129305   2.092   6.161   8.243 -2.1885  0.6085 -1.6913
 2582TIP3    H229306   2.055   6.085   8.369 -0.9438 -1.1410 -2.3425
 2583TIP3   OH229307   3.935   2.201   8.833  0.5104  0.6037 -0.5436
 2583TIP3    H129308   3.849   2.233   8.860  1.8053  1.9917  2.3652
 2583TIP3    H229309   3.939   2.112   8.867  0.4748  0.7658 -0.1149
 2584TIP3   OH229310   4.727   4.044   0.899  0.4184  0.3163 -0.3220
 2584TIP3    H129311   4.789   4.100   0.945 -0.4718  0.0458  1.3045
 2584TIP3    H229312   4.717   4.083   0.812 -0.0589  2.6066  0.7063
 2585TIP3   OH229313   1.727   0.168   7.586  0.4327 -0.4691  0.0685
 2585TIP3    H129314   1.706   0.098   7.524  1.7127 -0.6937 -0.1487
 2585TIP3    H229315   1.743   0.122   7.669  0.8624 -0.3986  0.0271
 2586TIP3   OH229316   5.622   2.137   0.333 -0.3869 -0.7232  0.2156
 2586TIP3    H129317   5.590   2.223   0.306  1.1394 -0.0073  0.5869
 2586TIP3    H229318   5.549   2.078   0.315 -1.1945  0.5164 -0.7592
 2587TIP3   OH229319   2.254   3.961   1.573  0.6835  0.3413 -0.3721
 2587TIP3    H129320   2.209   3.885   1.538 -1.5738  0.8982  1.0795
 2587TIP3    H229321   2.240   4.030   1.508  0.0914  0.2973 -0.2932
 2588TIP3   OH229322   4.919   4.385   8.065 -0.1119  0.1105  0.3087
 2588TIP3    H129323   5.012   4.385   8.042 -0.2591 -0.9628 -0.3445
 2588TIP3    H229324   4.904   4.298   8.102 -1.5185 -0.9488 -2.4793
 2589TIP3   OH229325   3.946   1.598   8.206  0.2811  0.3682  0.3439
 2589TIP3    H129326   4.036   1.578   8.180 -0.8829 -0.2453 -3.9140
 2589TIP3    H229327   3.946   1.693   8.219  1.2177  0.7031 -1.6580
 2590TIP3   OH229328   4.213   5.742   1.265 -0.2055  0.0465  0.3063
 2590TIP3    H129329   4.286   5.686   1.240  0.0055 -0.0937  1.1930
 2590TIP3    H229330   4.148   5.682   1.303  0.4808  0.4837  2.2930
 2591TIP3   OH229331   4.535   5.246   1.210 -0.4780  0.2942 -1.1474
 2591TIP3    H129332   4.492   5.200   1.282 -3.1946  1.0093 -2.2069
 2591TIP3    H229333   4.520   5.339   1.229  2.5365  0.7671 -0.4749
 2592TIP3   OH229334   2.141   5.463   7.091  0.2089 -0.5500 -0.2926
 2592TIP3    H129335   2.132   5.386   7.035 -0.0878 -0.4780 -0.3447
 2592TIP3    H229336   2.210   5.514   7.050 -1.1388  0.3339 -1.5622
 2593TIP3   OH229337   3.881   0.685   6.319  0.6626 -0.9030 -0.1104
 2593TIP3    H129338   3.977   0.686   6.326  0.7240 -0.8832 -0.9096
 2593TIP3    H229339   3.862   0.609   6.265  0.2103 -0.9922  0.1679
 2594TIP3   OH229340   3.162   0.326   1.101 -0.1153  0.4738 -0.6223
 2594TIP3    H129341   3.151   0.413   1.062  0.6682 -0.2738 -2.6313
 2594TIP3    H229342   3.153   0.266   1.027  0.9230 -1.0699  0.4660
 2595TIP3   OH229343   2.563   4.283   1.873 -0.6971 -0.1564 -0.0885
 2595TIP3    H129344   2.508   4.205   1.867 -0.8671 -0.1308  0.9294
 2595TIP3    H229345   2.535   4.326   1.954  1.6149 -0.7529  1.1121
 2596TIP3   OH229346   3.846   3.314   8.223  0.4635 -0.4313 -0.0619
 2596TIP3    H129347   3.893   3.377   8.277  0.1900  0.0353 -0.3605
 2596TIP3    H229348   3.792   3.265   8.286 -1.0085  1.1122 -0.0304
 2597TIP3   OH229349   0.948   2.944   8.511  0.2160  0.3395 -0.7331
 2597TIP3    H129350   0.882   2.928   8.578  0.3500  1.1846 -0.3797
 2597TIP3    H229351   0.931   2.879   8.443 -0.0091 -0.4465  0.0556
 2598TIP3   OH229352   2.134   5.267   7.295  0.1973 -0.4849 -0.1338
 2598TIP3    H129353   2.154   5.337   7.232 -0.1645 -0.0742  0.2040
 2598TIP3    H229354   2.138   5.310   7.380 -0.5998 -0.7367  0.0386
 2599TIP3   OH229355   2.646   6.392   7.145 -0.1431 -0.1121 -0.4923
 2599TIP3    H129356   2.601   6.332   7.084 -1.0805 -1.6162  1.5590
 2599TIP3    H229357   2.733   6.404   7.107  0.0063 -2.6524 -1.1325
 2600TIP3   OH229358   1.922   0.426   8.815  0.1159  0.6026  0.2019
 2600TIP3    H129359   1.954   0.491   8.753 -1.3374  0.6628 -0.5271
 2600TIP3    H229360   1.980   0.434   8.891  0.8893  1.6855 -0.4851
 2601TIP3   OH229361   3.676   1.543   1.085 -0.2436  0.2967  0.1480
 2601TIP3    H129362   3.719   1.523   1.001 -0.6626  0.7003 -0.1690
 2601TIP3    H229363   3.621   1.467   1.103  0.7882 -0.3465  0.6900
 2602TIP3   OH229364   6.652   4.012   0.044  0.2345 -0.1772 -0.0714
 2602TIP3    H129365   6.646   3.942   0.108  2.0161  0.3022  0.7080
 2602TIP3    H229366   6.614   3.976  -0.036 -0.5498 -1.3580  0.8023
 2603TIP3   OH229367   1.271   3.144   7.726 -0.3382 -0.6016  0.7348
 2603TIP3    H129368   1.264   3.221   7.783 -0.5215 -0.6859  0.8267
 2603TIP3    H229369   1.182   3.112   7.719 -0.4042 -0.2478 -0.0796
 2604TIP3   OH229370   0.763   5.128   8.158  0.2703  0.2629  0.4935
 2604TIP3    H129371   0.835   5.097   8.212 -0.1215  0.3472  1.0877
 2604TIP3    H229372   0.722   5.049   8.124 -0.1344  0.1517  1.2108
 2605TIP3   OH229373   1.017   0.247   0.897 -0.5578  0.0658  0.5595
 2605TIP3    H129374   0.989   0.167   0.942  0.4553 -0.1889  0.7604
 2605TIP3    H229375   0.959   0.253   0.820 -0.0728 -1.3390  0.0643
 2606TIP3   OH229376   4.561   1.780   0.970 -0.6778  0.5744 -0.7868
 2606TIP3    H129377   4.480   1.750   1.011  0.5360  0.6208  1.8519
 2606TIP3    H229378   4.555   1.875   0.973 -0.0419  0.5910  0.5492
 2607TIP3   OH229379   3.315   0.727   0.849  0.8150  0.3778  0.4707
 2607TIP3    H129380   3.399   0.740   0.806  1.1403 -0.8157  0.7042
 2607TIP3    H229381   3.319   0.781   0.927  2.3174 -1.3818  1.7000
 2608TIP3   OH229382   0.374   1.262   1.959 -0.3602 -0.1763 -0.6811
 2608TIP3    H129383   0.418   1.203   1.898 -2.0649 -0.9331 -1.2418
 2608TIP3    H229384   0.281   1.251   1.939 -0.8806  0.4960  1.2170
 2609TIP3   OH229385   6.402   4.454   0.165 -0.4303 -0.3481  0.2727
 2609TIP3    H129386   6.492   4.432   0.190  0.3932  0.0703 -2.0499
 2609TIP3    H229387   6.370   4.508   0.237  0.3525 -2.2920  2.2060
 2610TIP3   OH229388   5.696   5.490   8.754  0.0069 -0.3833  0.3841
 2610TIP3    H129389   5.787   5.512   8.776 -0.6637  1.1463  1.8452
 2610TIP3    H229390   5.643   5.551   8.806 -1.8307  0.1863 -1.9469
 2611TIP3   OH229391   2.239   2.848   2.857  0.3256  0.1700 -0.5532
 2611TIP3    H129392   2.258   2.781   2.923  3.1696  0.6882 -0.6819
 2611TIP3    H229393   2.231   2.799   2.775 -0.1744 -0.2119 -0.2830
 2612TIP3   OH229394   2.629   3.366   0.143 -0.3145  0.2716 -1.0919
 2612TIP3    H129395   2.702   3.362   0.081 -0.4783  0.1596 -1.2791
 2612TIP3    H229396   2.556   3.325   0.097 -0.7169  1.1015 -1.2196
 2613TIP3   OH229397   1.775   1.810   7.802 -0.5472  0.5031  0.2295
 2613TIP3    H129398   1.860   1.783   7.837  0.1973  3.7767  1.3491
 2613TIP3    H229399   1.712   1.779   7.866 -0.1235 -0.8963  0.0147
 2614TIP3   OH229400   5.091   2.918   0.790 -0.2389  0.1022 -0.4621
 2614TIP3    H129401   5.104   2.999   0.740  0.5396  0.7307  0.7227
 2614TIP3    H229402   5.180   2.886   0.807 -0.2584  1.5223  3.0741
 2615TIP3   OH229403   0.947   4.182   7.792  0.4294 -0.1754  0.5170
 2615TIP3    H129404   1.004   4.108   7.815  1.2232  0.6075  1.1282
 2615TIP3    H229405   0.977   4.253   7.848  0.0243  0.7711 -0.4411
 2616TIP3   OH229406   3.723   3.772   0.284  0.0339  0.2327  0.0504
 2616TIP3    H129407   3.767   3.857   0.290 -0.9349  0.9973 -2.6620
 2616TIP3    H229408   3.759   3.732   0.205 -0.0873 -1.5955  0.8679
 2617TIP3   OH229409   5.319   2.929   7.511  0.1079 -0.2624  0.0212
 2617TIP3    H129410   5.264   3.006   7.500  1.2058  0.3560 -1.7235
 2617TIP3    H229411   5.262   2.855   7.492 -0.6380  0.2045  0.4212
 2618TIP3   OH229412   6.585   6.747   7.731 -0.3654  0.3997 -0.3731
 2618TIP3    H129413   6.632   6.673   7.766  0.0945  1.3801  1.1578
 2618TIP3    H229414   6.492   6.726   7.744 -0.2237  0.3010  0.5168
 2619TIP3   OH229415   3.938   6.303   7.953  0.4603  0.3194 -0.1602
 2619TIP3    H129416   3.923   6.388   7.912  0.8290 -0.0842 -1.1678
 2619TIP3    H229417   3.978   6.250   7.884  0.4156 -0.6127  0.5119
 2620TIP3   OH229418   1.343   3.752   8.666 -0.3735  0.4613 -0.3132
 2620TIP3    H129419   1.249   3.766   8.660 -0.2742  1.3769  0.0495
 2620TIP3    H229420   1.366   3.786   8.753 -0.0330 -1.6753  0.4811
 2621TIP3   OH229421   3.708   5.011   1.372  0.2564  0.6062 -0.1797
 2621TIP3    H129422   3.642   4.946   1.350  1.3206 -0.4807 -0.2776
 2621TIP3    H229423   3.791   4.970   1.348  0.9199  2.3039 -0.9691
 2622TIP3   OH229424   6.450   2.296   6.413  0.4960  0.0119  0.4388
 2622TIP3    H129425   6.496   2.278   6.495  0.6910  0.5705  0.4571
 2622TIP3    H229426   6.512   2.346   6.360  0.9065 -1.5845 -0.6542
 2623TIP3   OH229427   4.781   3.649   2.161  0.0830 -0.2284 -0.1607
 2623TIP3    H129428   4.772   3.593   2.084 -1.2600 -0.7822  0.3673
 2623TIP3    H229429   4.816   3.732   2.127 -0.0817 -0.6090 -1.2984
 2624TIP3   OH229430   6.556   6.070   0.605  0.0546 -0.2916  0.6640
 2624TIP3    H129431   6.512   6.109   0.680 -1.9664  1.1099 -1.0974
 2624TIP3    H229432   6.645   6.104   0.609 -0.1969  0.2539  2.0677
 2625TIP3   OH229433   0.706   3.031   6.846  0.0940  0.5871  0.1142
 2625TIP3    H129434   0.687   3.124   6.840 -2.0760  0.2226  0.6958
 2625TIP3    H229435   0.668   2.993   6.766  0.1822  0.0824  0.3056
 2626TIP3   OH229436   0.198   6.449   0.650  0.5993 -0.1460 -0.1302
 2626TIP3    H129437   0.255   6.519   0.680 -0.2694  0.0420  1.1567
 2626TIP3    H229438   0.256   6.391   0.600  1.3336  1.4406 -1.1855
 2627TIP3   OH229439   0.918   3.227   8.596  0.6496 -0.0506  0.2267
 2627TIP3    H129440   0.911   3.281   8.518 -1.4444  0.5947  0.7959
 2627TIP3    H229441   0.946   3.141   8.563  2.0853  0.8084 -0.9080
 2628TIP3   OH229442   0.084   0.205   7.279  0.1657 -0.6830  0.1749
 2628TIP3    H129443   0.025   0.134   7.303  2.2995 -2.4839  0.2960
 2628TIP3    H229444   0.143   0.214   7.354  0.7220  0.3622 -0.3696
 2629TIP3   OH229445   0.970   6.787   1.507 -0.3230 -0.0444  0.2101
 2629TIP3    H129446   1.009   6.872   1.528 -1.1184  0.3949 -0.0747
 2629TIP3    H229447   0.877   6.805   1.493 -0.5297 -0.9823  0.2771
 2630TIP3   OH229448   4.149   1.278   0.118 -0.2474 -0.4069  0.6239
 2630TIP3    H129449   4.164   1.313   0.030  1.0733 -1.3002  0.4757
 2630TIP3    H229450   4.053   1.275   0.125 -0.3830 -0.2049 -0.7322
 2631TIP3   OH229451   2.758   0.444   8.464  0.3371 -0.1977  0.3788
 2631TIP3    H129452   2.689   0.378   8.472  0.3113 -0.2707 -0.3745
 2631TIP3    H229453   2.822   0.406   8.403  0.4977  0.3151  0.2138
 2632TIP3   OH229454   0.000   4.112   1.817 -0.2284 -0.0282  0.1882
 2632TIP3    H129455  -0.085   4.092   1.778 -0.6616 -0.2978  1.2342
 2632TIP3    H229456   0.050   4.155   1.747 -2.3026  3.0214  0.3742
 2633TIP3   OH229457   4.743   3.134   1.351  0.2916 -0.8063 -0.1027
 2633TIP3    H129458   4.789   3.213   1.380 -0.1085 -0.1664 -1.1417
 2633TIP3    H229459   4.792   3.105   1.274 -0.5452 -0.5862 -0.7345
 2634TIP3   OH229460   5.253   1.822   2.421 -0.4020 -0.0985 -0.2591
 2634TIP3    H129461   5.172   1.805   2.372 -2.0258 -0.2278  2.2643
 2634TIP3    H229462   5.275   1.738   2.462  0.5042  0.1613 -0.1922
 2635TIP3   OH229463   6.403   2.919   8.228 -0.4678 -0.3830 -0.0228
 2635TIP3    H129464   6.317   2.905   8.269 -0.7579  2.1183  0.3785
 2635TIP3    H229465   6.444   2.988   8.280 -0.0349  1.5349 -2.6490
 2636TIP3   OH229466   4.294   0.933   1.993 -0.0835  0.2010 -0.4075
 2636TIP3    H129467   4.313   0.999   2.060  0.2238 -1.2579  0.9943
 2636TIP3    H229468   4.274   0.854   2.042  1.7813 -1.3719 -2.0300
 2637TIP3   OH229469   5.831   4.415   8.490 -0.0840 -0.0287 -0.5345
 2637TIP3    H129470   5.791   4.502   8.492  2.0318  1.0858 -1.7971
 2637TIP3    H229471   5.796   4.375   8.411  0.8418  0.7518 -1.3754
 2638TIP3   OH229472   6.687   5.004   8.597 -0.3278 -0.2736 -0.2668
 2638TIP3    H129473   6.726   4.936   8.543  1.7938 -0.2570  1.1668
 2638TIP3    H229474   6.624   4.958   8.652  0.5304 -0.9783  0.1485
 2639TIP3   OH229475   4.607   2.417   1.116  0.1373  0.0302 -0.9655
 2639TIP3    H129476   4.551   2.368   1.056  0.3457  0.6285 -1.6679
 2639TIP3    H229477   4.553   2.489   1.147 -0.4041 -1.0008  0.6272
 2640TIP3   OH229478   3.080   2.563   0.385  0.5541 -0.2090  0.0944
 2640TIP3    H129479   3.012   2.575   0.451  0.2373  1.5118 -0.4748
 2640TIP3    H229480   3.041   2.503   0.321  0.2168 -0.5642  0.6315
 2641TIP3   OH229481   6.492   5.217   8.336 -0.1044  0.2234 -0.1233
 2641TIP3    H129482   6.584   5.189   8.334 -0.5961 -1.4212 -0.8808
 2641TIP3    H229483   6.456   5.189   8.252 -1.0265  1.9435 -0.3592
 2642TIP3   OH229484   1.654   0.635   8.346 -0.0067 -0.5494  0.1432
 2642TIP3    H129485   1.646   0.679   8.431  0.1254 -1.0649  0.4278
 2642TIP3    H229486   1.587   0.567   8.348  0.1286 -0.6901 -0.0904
 2643TIP3   OH229487   2.462   4.377   1.149  0.3697  0.3294  0.3933
 2643TIP3    H129488   2.483   4.418   1.233  1.0081 -0.8050  0.8047
 2643TIP3    H229489   2.407   4.302   1.172 -0.1686  0.5152 -0.2785
 2644TIP3   OH229490   1.245   5.566   6.377  0.1117 -0.2777 -0.2399
 2644TIP3    H129491   1.156   5.575   6.411  0.2000  0.2663 -0.1502
 2644TIP3    H229492   1.242   5.604   6.289 -0.4602 -2.9088 -1.4802
 2645TIP3   OH229493   0.822   1.696   2.662 -0.0766 -0.5231 -0.2527
 2645TIP3    H129494   0.799   1.730   2.575 -0.3734  0.0518  0.0430
 2645TIP3    H229495   0.762   1.741   2.721  1.5316  0.7453  0.5008
 2646TIP3   OH229496   1.162   6.395   7.538  0.3884 -0.4191  0.5746
 2646TIP3    H129497   1.190   6.401   7.629  0.9294 -2.1208  0.5427
 2646TIP3    H229498   1.154   6.302   7.521  0.1780 -0.1267 -1.1040
 2647TIP3   OH229499   5.322   0.023   1.410  0.1119  0.1469 -0.4279
 2647TIP3    H129500   5.228   0.008   1.419  0.1803  0.1224  0.3583
 2647TIP3    H229501   5.352  -0.044   1.349 -0.7484  1.5777 -2.5220
 2648TIP3   OH229502   5.621   0.872   2.684 -0.9341 -0.9579 -0.1564
 2648TIP3    H129503   5.707   0.905   2.660 -0.4373 -1.4151  0.9474
 2648TIP3    H229504   5.568   0.951   2.698 -0.2172 -0.6363  0.8261
 2649TIP3   OH229505   0.690   2.479   1.480 -0.5441  0.7667 -0.3952
 2649TIP3    H129506   0.700   2.485   1.385 -0.2017 -0.9676 -0.4961
 2649TIP3    H229507   0.642   2.558   1.504  0.5533  1.9302 -1.8271
 2650TIP3   OH229508   0.840   4.994   1.318  0.0744  0.0191  0.5427
 2650TIP3    H129509   0.794   4.946   1.386 -1.1850  1.7845  1.0084
 2650TIP3    H229510   0.798   4.967   1.236 -2.4212  2.0717  1.0025
 2651TIP3   OH229511   3.479   2.995   0.031 -0.2159  0.6494 -0.1281
 2651TIP3    H129512   3.477   3.003   0.127  0.0315  0.4964 -0.1067
 2651TIP3    H229513   3.560   2.946   0.014 -0.0739  0.9949 -0.4387
 2652TIP3   OH229514   1.023   3.938   1.565  0.4165  0.2161  0.1652
 2652TIP3    H129515   0.943   3.974   1.603 -0.0754 -0.2981 -0.3599
 2652TIP3    H229516   1.085   4.010   1.568 -0.2763  0.8391 -0.0530
 2653TIP3   OH229517   3.189   4.385   6.271  0.0137  0.0946  0.2364
 2653TIP3    H129518   3.186   4.375   6.176 -0.8417 -1.5802  0.4057
 2653TIP3    H229519   3.260   4.327   6.299 -0.9906 -0.8895  0.7726
 2654TIP3   OH229520   3.832   3.264   7.936  0.6629 -0.2986  0.5584
 2654TIP3    H129521   3.807   3.346   7.893  1.7962  0.3290  1.0594
 2654TIP3    H229522   3.846   3.288   8.028  2.9077 -0.6159  0.3576
 2655TIP3   OH229523   6.171   1.501   7.630 -0.0208  0.1121  0.1119
 2655TIP3    H129524   6.266   1.495   7.622  0.1322  0.4000  1.5750
 2655TIP3    H229525   6.156   1.556   7.707 -1.3545 -1.4823  1.0453
 2656TIP3   OH229526   6.636   1.566   0.946  0.5722 -0.0875 -0.3045
 2656TIP3    H129527   6.580   1.584   1.022  0.1645 -1.4727 -0.2534
 2656TIP3    H229528   6.659   1.473   0.955  0.1640 -0.3805 -2.1059
 2657TIP3   OH229529   6.346   4.183   1.306  0.2687 -0.3582 -0.2758
 2657TIP3    H129530   6.436   4.216   1.309  1.1130 -2.3432 -1.6354
 2657TIP3    H229531   6.348   4.103   1.358 -0.9482 -0.0048  0.3585
 2658TIP3   OH229532   4.936   3.332   1.355  0.0911 -0.1070 -0.4335
 2658TIP3    H129533   4.965   3.422   1.373  0.2892  0.1274 -1.8196
 2658TIP3    H229534   4.901   3.335   1.267 -0.2177 -1.3355 -0.3757
 2659TIP3   OH229535   4.349   4.637   0.897 -0.2504  0.1126  0.2903
 2659TIP3    H129536   4.297   4.717   0.892  0.8413  0.9604  1.6581
 2659TIP3    H229537   4.433   4.666   0.934  1.9526 -0.8256 -3.4070
 2660TIP3   OH229538   4.962   4.346   7.089 -0.2001 -0.3131 -0.1263
 2660TIP3    H129539   5.033   4.305   7.039 -1.3018 -1.0678 -1.1189
 2660TIP3    H229540   4.984   4.327   7.181  1.0597 -0.2066 -0.3871
 2661TIP3   OH229541   1.197   0.764   8.735 -0.6090 -0.4665 -0.2034
 2661TIP3    H129542   1.201   0.748   8.641 -0.1363 -1.6166 -0.0147
 2661TIP3    H229543   1.223   0.680   8.774  0.8953  0.4623  0.9284
 2662TIP3   OH229544   6.778   4.538   1.398 -0.2788 -0.2656 -0.2348
 2662TIP3    H129545   6.732   4.487   1.464  0.3148 -0.9363 -0.3234
 2662TIP3    H229546   6.796   4.475   1.328  0.4140  0.0763 -0.3743
 2663TIP3   OH229547   6.279   2.271   0.022 -0.1487 -0.2734 -0.4064
 2663TIP3    H129548   6.327   2.203  -0.025  0.0322 -0.7074  0.3757
 2663TIP3    H229549   6.218   2.306  -0.042  1.4144  0.5211 -1.5149
 2664TIP3   OH229550   1.951   4.468   7.467  0.1035  0.6367 -0.0718
 2664TIP3    H129551   2.005   4.389   7.468 -0.8511 -0.0307  1.3000
 2664TIP3    H229552   1.954   4.501   7.557 -2.8784 -0.2377  0.4690
 2665TIP3   OH229553   3.012   0.598   7.874 -0.2696 -0.2008 -0.4876
 2665TIP3    H129554   2.930   0.595   7.923 -0.2257 -0.2092 -0.4136
 2665TIP3    H229555   2.986   0.597   7.782 -0.5155  2.6735 -0.5304
 2666TIP3   OH229556   5.849   5.939   8.042  0.0691 -0.2652 -0.1983
 2666TIP3    H129557   5.802   5.873   8.092 -0.5362 -0.3956 -0.9279
 2666TIP3    H229558   5.848   5.907   7.952  1.1085 -0.0138 -0.3103
 2667TIP3   OH229559   5.238   0.343   2.318  0.2998 -0.1301 -0.8756
 2667TIP3    H129560   5.204   0.359   2.230  2.5252  0.9234 -1.6152
 2667TIP3    H229561   5.316   0.290   2.305  1.0214  0.5597  0.3934
 2668TIP3   OH229562   1.013   1.229   8.287  0.2265  0.3796 -0.3964
 2668TIP3    H129563   0.935   1.270   8.323 -0.4286 -0.7187 -0.5098
 2668TIP3    H229564   1.000   1.229   8.193 -1.9465 -3.9372 -0.3370
 2669TIP3   OH229565   2.255   4.718   0.615  0.1210  0.5903  0.0474
 2669TIP3    H129566   2.267   4.700   0.708 -1.4588 -1.6873 -0.1320
 2669TIP3    H229567   2.324   4.667   0.572 -0.3517  0.0959 -0.1270
 2670TIP3   OH229568   6.515   3.490   8.716 -0.3320 -0.2319  0.2859
 2670TIP3    H129569   6.498   3.518   8.806  0.6659  1.3866  0.0127
 2670TIP3    H229570   6.564   3.408   8.725 -0.2104 -0.0610  1.2298
 2671TIP3   OH229571   2.827   2.127   7.182  0.4950 -0.0807  0.5076
 2671TIP3    H129572   2.864   2.061   7.124 -2.0081 -0.0516 -1.3050
 2671TIP3    H229573   2.748   2.086   7.218 -1.0774  1.7910 -0.6056
 2672TIP3   OH229574   1.655   1.876   7.523  0.4668 -0.1252  0.2640
 2672TIP3    H129575   1.662   1.876   7.619 -1.6913  0.0204  0.4625
 2672TIP3    H229576   1.732   1.828   7.494  0.3262 -1.6341  2.1657
 2673TIP3   OH229577   4.764   6.251   6.898  0.3589 -0.5084  0.0221
 2673TIP3    H129578   4.713   6.171   6.912 -0.7987  0.4881  1.9948
 2673TIP3    H229579   4.710   6.321   6.935  2.6106  0.7855  1.1215
 2674TIP3   OH229580   0.347   4.338   1.862  0.1200  0.0479  0.0204
 2674TIP3    H129581   0.304   4.347   1.947 -0.0498 -1.7469  0.1733
 2674TIP3    H229582   0.277   4.351   1.798 -0.3384 -1.1641  0.2376
 2675TIP3   OH229583   3.002   4.356   2.185 -0.4399  0.0216  0.1774
 2675TIP3    H129584   3.047   4.396   2.260  0.1959  0.8962 -0.6462
 2675TIP3    H229585   2.912   4.388   2.191  0.2317  2.2624 -0.8884
 2676TIP3   OH229586   2.541   3.263   0.497  0.2988  0.0058  0.2885
 2676TIP3    H129587   2.514   3.353   0.475  0.9801  0.0241 -0.5549
 2676TIP3    H229588   2.622   3.275   0.548  1.1432 -0.1378 -0.9681
 2677TIP3   OH229589   3.664   3.580   8.743  0.4136  0.4469 -0.4430
 2677TIP3    H129590   3.689   3.494   8.711 -0.6101  0.2106 -0.6660
 2677TIP3    H229591   3.617   3.620   8.670  0.7448  1.1347 -0.2865
 2678TIP3   OH229592   2.703   4.091   8.842 -0.7045  0.1403 -0.0542
 2678TIP3    H129593   2.768   4.155   8.813 -0.4201 -0.1114  0.0183
 2678TIP3    H229594   2.637   4.092   8.773 -0.5025  0.2286 -0.2487
 2679TIP3   OH229595   0.314   2.875   8.371  0.1972  0.1535 -0.0628
 2679TIP3    H129596   0.250   2.945   8.380 -0.6903 -0.5720 -0.5637
 2679TIP3    H229597   0.310   2.828   8.454 -1.2527 -0.9689 -0.7295
 2680TIP3   OH229598   5.548   2.154   7.876  0.1861  0.4093  0.6801
 2680TIP3    H129599   5.489   2.096   7.924  0.1410  1.1099  1.5109
 2680TIP3    H229600   5.635   2.137   7.914  0.2464  0.5532  0.6101
 2681TIP3   OH229601   4.097   3.865   1.169 -0.1079  0.0593 -0.0809
 2681TIP3    H129602   4.062   3.794   1.223  1.2835 -0.9022 -0.3891
 2681TIP3    H229603   4.145   3.920   1.231 -0.9632  0.6083  0.1140
 2682TIP3   OH229604   6.264   5.562   8.784  0.7100  0.1800 -0.1022
 2682TIP3    H129605   6.332   5.497   8.800 -1.1264 -1.4980  1.4217
 2682TIP3    H229606   6.310   5.646   8.784  2.5681 -0.6966  2.8957
 2683TIP3   OH229607   0.481   2.066   7.963 -0.4475  0.2087  0.0385
 2683TIP3    H129608   0.509   2.009   8.035 -0.6034 -0.6653 -0.5742
 2683TIP3    H229609   0.453   2.147   8.006  0.7139  0.1993  0.8515
 2684TIP3   OH229610   5.536   5.168   0.845  0.1857  0.1442 -0.3793
 2684TIP3    H129611   5.630   5.157   0.828 -0.0402 -0.8081 -1.0938
 2684TIP3    H229612   5.496   5.167   0.758 -0.5781 -0.4112 -0.0300
 2685TIP3   OH229613   5.640   1.810   2.023  0.1528  0.1585  0.1664
 2685TIP3    H129614   5.710   1.746   2.006  0.8478  0.9565 -0.0361
 2685TIP3    H229615   5.636   1.815   2.119  0.7413  0.4923  0.1781
 2686TIP3   OH229616   2.070   4.063   7.732  0.4356 -0.0224 -0.2978
 2686TIP3    H129617   2.048   4.055   7.825  1.9140 -0.1264  0.0772
 2686TIP3    H229618   2.117   4.146   7.726  0.5206 -0.1112 -0.9027
 2687TIP3   OH229619   3.623   1.670   8.119  0.0091 -0.2963  0.2275
 2687TIP3    H129620   3.676   1.746   8.095 -0.0301 -0.2095  0.4137
 2687TIP3    H229621   3.536   1.706   8.138 -0.4778 -0.5902 -1.3323
 2688TIP3   OH229622   4.787   3.241   1.664  0.0666 -0.4190 -0.0038
 2688TIP3    H129623   4.825   3.229   1.751  0.1359  2.7039  0.4952
 2688TIP3    H229624   4.833   3.317   1.627 -1.2581 -0.5115 -2.0247
 2689TIP3   OH229625   5.090   2.360   7.850 -0.1326 -0.8381 -0.2349
 2689TIP3    H129626   5.032   2.375   7.924 -0.9702 -0.0408 -1.0306
 2689TIP3    H229627   5.041   2.301   7.793 -0.3853  0.2546 -1.1605
 2690TIP3   OH229628   4.370   5.457   0.927  0.2255  0.1307 -0.5941
 2690TIP3    H129629   4.443   5.399   0.906 -0.7504 -1.3961  0.0346
 2690TIP3    H229630   4.404   5.514   0.996 -0.0955 -2.8425  2.2401
 2691TIP3   OH229631   3.845   1.880   8.148  0.6959  0.4411 -0.5158
 2691TIP3    H129632   3.807   1.951   8.200  0.2295 -0.5586  0.5440
 2691TIP3    H229633   3.900   1.925   8.084  1.6860  1.7256  1.1343
 2692TIP3   OH229634   2.484   1.614   0.774 -0.3680 -0.0702  0.1395
 2692TIP3    H129635   2.529   1.558   0.710 -0.1503  0.2344  0.0219
 2692TIP3    H229636   2.487   1.565   0.856  1.9589  0.7611  0.6506
 2693TIP3   OH229637   1.353   1.345   0.320 -0.4489 -0.1536  0.6389
 2693TIP3    H129638   1.312   1.290   0.387 -1.3093  1.5777  1.6023
 2693TIP3    H229639   1.282   1.402   0.290  0.8300  1.8017  1.1489
 2694TIP3   OH229640   2.971   2.486   0.139  0.6426  0.4504 -0.1283
 2694TIP3    H129641   2.972   2.395   0.108 -2.6658  0.2106  0.1067
 2694TIP3    H229642   2.961   2.538   0.059  2.5455  0.6836 -0.2636
 2695TIP3   OH229643   2.686   2.534   8.188  1.0871 -0.0085  0.3721
 2695TIP3    H129644   2.720   2.471   8.124 -1.6381  0.3295 -1.5868
 2695TIP3    H229645   2.618   2.485   8.235 -0.7328  1.2122 -0.8499
 2696TIP3   OH229646   5.213   0.087   7.952  0.5020  0.3255  0.2167
 2696TIP3    H129647   5.212   0.070   8.046 -2.2438 -0.2461  0.1538
 2696TIP3    H229648   5.138   0.145   7.937  0.4660 -0.1540 -1.7165
 2697TIP3   OH229649   6.496   2.524   7.955 -0.7066  0.4633 -1.1718
 2697TIP3    H129650   6.575   2.525   7.902  0.3752 -0.7879  0.3241
 2697TIP3    H229651   6.486   2.614   7.986  1.0238  0.3454 -0.1656
 2698TIP3   OH229652   6.119   3.978   0.618  0.4433 -0.3587  0.4337
 2698TIP3    H129653   6.092   3.978   0.709  0.1192 -0.2590  0.3369
 2698TIP3    H229654   6.068   4.048   0.577  0.9586 -0.0586  0.2852
 2699TIP3   OH229655   1.504   6.542   8.099 -0.4798 -0.3872  0.0020
 2699TIP3    H129656   1.496   6.584   8.185  1.3142  0.3289 -0.1331
 2699TIP3    H229657   1.582   6.582   8.060 -0.7815 -1.2978 -1.6314
 2700TIP3   OH229658   2.011   0.914   0.757  0.0938 -0.2770  0.0904
 2700TIP3    H129659   2.068   0.988   0.738 -2.3945  1.1016 -2.7668
 2700TIP3    H229660   1.953   0.945   0.826 -0.1050 -0.0208 -0.1895
 2701TIP3   OH229661   3.080   2.632   1.933  0.1106  0.2982  0.0803
 2701TIP3    H129662   3.057   2.654   1.843 -1.6112 -0.4108  0.3194
 2701TIP3    H229663   3.068   2.714   1.981 -1.6788  0.0468  0.1294
 2702TIP3   OH229664   3.200   0.347   7.845 -0.0628 -0.1992  0.0064
 2702TIP3    H129665   3.201   0.442   7.839  0.1581 -0.2692 -1.2456
 2702TIP3    H229666   3.194   0.329   7.939  0.3362  1.0376  0.2832
 2703TIP3   OH229667   0.137   1.502   0.662 -0.2128  0.2801  0.1073
 2703TIP3    H129668   0.159   1.592   0.684 -0.4779  0.3567  0.0669
 2703TIP3    H229669   0.188   1.449   0.724  0.4371  0.4308 -0.2904
 2704TIP3   OH229670   0.441   5.437   8.182 -0.4280  0.0598  0.1891
 2704TIP3    H129671   0.406   5.525   8.166 -1.2638 -0.2404  0.3261
 2704TIP3    H229672   0.446   5.397   8.095  0.4500  0.4146  0.0653
 2705TIP3   OH229673   1.772   0.645   0.770  0.3956  0.2993  0.0530
 2705TIP3    H129674   1.832   0.650   0.844 -1.1541 -3.2885  1.8160
 2705TIP3    H229675   1.685   0.654   0.809 -0.4644 -1.8368 -1.1767
 2706TIP3   OH229676   4.026   1.416   1.678 -0.2372 -0.2345 -0.5246
 2706TIP3    H129677   4.097   1.458   1.628  1.4796 -0.3356  1.6667
 2706TIP3    H229678   3.982   1.488   1.723  1.6795 -0.4850  1.9568
 2707TIP3   OH229679   4.154   1.885   0.175 -0.1214 -0.4081 -0.1649
 2707TIP3    H129680   4.070   1.860   0.136  1.4498 -1.6188 -3.0529
 2707TIP3    H229681   4.177   1.968   0.134 -0.6560  0.8859  1.9815
 2708TIP3   OH229682   3.865   4.241   0.195  0.1292 -0.7256 -0.4410
 2708TIP3    H129683   3.934   4.249   0.130 -2.2538  2.1181 -2.9394
 2708TIP3    H229684   3.804   4.178   0.157  0.2879 -1.6189  0.7286
 2709TIP3   OH229685   1.209   3.285   0.915 -0.0825 -0.1755 -0.5683
 2709TIP3    H129686   1.190   3.205   0.964  0.8220  0.8355  1.5471
 2709TIP3    H229687   1.261   3.339   0.974 -0.2760  1.8245 -2.0742
 2710TIP3   OH229688   4.664   6.581   8.501  0.7630  0.2116  0.0073
 2710TIP3    H129689   4.749   6.542   8.477 -0.2782 -0.1043 -3.6784
 2710TIP3    H229690   4.599   6.521   8.465 -0.9902  2.3400 -0.5588
 2711TIP3   OH229691   5.290   1.088   1.866  0.5457  0.1278 -0.4432
 2711TIP3    H129692   5.257   1.172   1.898 -1.8978 -0.1126 -2.0407
 2711TIP3    H229693   5.365   1.110   1.812  0.8618  1.1179  0.3798
 2712TIP3   OH229694   5.608   1.825   1.683 -0.5696 -0.1298 -0.3002
 2712TIP3    H129695   5.633   1.817   1.591  0.3267 -0.3055 -0.0504
 2712TIP3    H229696   5.691   1.828   1.731 -1.0209  0.1405  0.4917
 2713TIP3   OH229697   6.125   0.534   7.489 -0.1293  0.7860  1.1089
 2713TIP3    H129698   6.165   0.567   7.408 -2.6716  1.4295  0.0146
 2713TIP3    H229699   6.036   0.512   7.464 -0.4340 -0.8498  3.3528
 2714TIP3   OH229700   4.997   2.554   8.300 -0.0828 -0.2509  0.0349
 2714TIP3    H129701   4.951   2.539   8.383 -0.1902  0.0915  0.0365
 2714TIP3    H229702   5.030   2.643   8.307  0.2252 -0.3529 -0.1392
 2715TIP3   OH229703   3.589   0.856   6.697  0.6019  0.3774  0.3780
 2715TIP3    H129704   3.661   0.807   6.656  1.6585  1.7303  0.5504
 2715TIP3    H229705   3.510   0.825   6.653  1.4906  0.2465 -1.1762
 2716TIP3   OH229706   2.543   3.110   1.763 -0.4045 -0.4046 -0.1334
 2716TIP3    H129707   2.472   3.059   1.802 -0.2864 -0.4289  0.0493
 2716TIP3    H229708   2.623   3.071   1.798 -0.2178 -1.5006 -1.6742
 2717TIP3   OH229709   5.682   2.002   8.661  0.3863 -0.1098 -0.2956
 2717TIP3    H129710   5.608   1.942   8.652  2.2289 -2.4665 -0.5991
 2717TIP3    H229711   5.670   2.041   8.748 -0.9554 -0.7812 -0.1499
 2718TIP3   OH229712   6.550   4.899   8.318  0.2834  0.1026  1.0544
 2718TIP3    H129713   6.465   4.868   8.287 -0.2185  1.4065  1.0783
 2718TIP3    H229714   6.584   4.826   8.370  1.6430 -2.6677 -3.1924
 2719TIP3   OH229715   1.262   4.298   7.106  0.5457  0.1510 -0.3818
 2719TIP3    H129716   1.256   4.311   7.201 -3.1593  0.0049 -0.4588
 2719TIP3    H229717   1.347   4.337   7.082  1.2406  0.9170  2.8436
 2720TIP3   OH229718   0.016   3.712   6.691  0.1604  0.1661 -0.4688
 2720TIP3    H129719   0.090   3.771   6.675  1.0220 -0.6078  0.4907
 2720TIP3    H229720   0.042   3.630   6.649  0.1363 -0.2966  0.3953
 2721TIP3   OH229721   0.741   3.847   7.968  0.3285  0.1205  0.8708
 2721TIP3    H129722   0.685   3.873   7.895 -0.1040 -0.8228  0.8515
 2721TIP3    H229723   0.829   3.873   7.942  0.0596  0.5548  0.3880
 2722TIP3   OH229724   5.896   5.855   8.704  0.8916  0.5972  0.1101
 2722TIP3    H129725   5.940   5.925   8.655  2.0002  0.1725  0.4600
 2722TIP3    H229726   5.901   5.884   8.796 -0.0449  0.7921  0.1070
 2723TIP3   OH229727   2.562   3.377   0.941  1.1740  0.2891 -0.3061
 2723TIP3    H129728   2.599   3.464   0.956 -0.9543  0.9124  1.9640
 2723TIP3    H229729   2.472   3.394   0.914  0.9864 -1.2137 -0.6861
 2724TIP3   OH229730   1.594   4.639   8.401  0.7924 -0.2334 -0.0208
 2724TIP3    H129731   1.678   4.612   8.439  1.6619  2.5367  0.3158
 2724TIP3    H229732   1.529   4.598   8.457  2.0275  2.0265  3.4958
 2725TIP3   OH229733   6.208   3.125   1.681  0.2471 -0.1431 -0.1622
 2725TIP3    H129734   6.285   3.173   1.710  0.3226 -0.0455 -0.5167
 2725TIP3    H229735   6.173   3.177   1.608  0.6715 -0.9218 -0.9430
 2726TIP3   OH229736   0.988   6.197   1.398 -0.4782  0.2490  0.1682
 2726TIP3    H129737   0.893   6.191   1.401 -0.5339  0.4205 -0.9332
 2726TIP3    H229738   1.006   6.290   1.391 -0.3259  0.1224 -1.5987
 2727TIP3   OH229739   2.702   0.381   1.762 -0.4487  0.0818 -1.1535
 2727TIP3    H129740   2.715   0.454   1.702 -0.0743  2.1183  1.1977
 2727TIP3    H229741   2.790   0.356   1.789 -0.6185 -0.5632 -1.1753
 2728TIP3   OH229742   3.442   6.544   1.122 -0.3347 -0.4318 -0.2268
 2728TIP3    H129743   3.361   6.522   1.076 -0.6345 -1.9035  0.9153
 2728TIP3    H229744   3.414   6.591   1.200 -0.0763 -0.7169  0.0418
 2729TIP3   OH229745   3.601   1.316   2.133  0.3751  0.1363  0.6211
 2729TIP3    H129746   3.537   1.245   2.120  2.1289 -1.4809  0.3359
 2729TIP3    H229747   3.558   1.394   2.098 -0.7426 -1.2324 -1.2150
 2730TIP3   OH229748   0.436   1.185   7.320  0.0907  0.4763 -0.7689
 2730TIP3    H129749   0.357   1.169   7.372  0.8937 -0.2736  0.2507
 2730TIP3    H229750   0.416   1.146   7.235 -0.6506  0.3086 -0.5296
 2731TIP3   OH229751   5.002   4.316   1.482 -0.2186 -0.4233  0.7107
 2731TIP3    H129752   5.016   4.405   1.449 -0.9832 -0.4814  0.2134
 2731TIP3    H229753   4.979   4.265   1.404  1.2035 -1.2906  0.8209
 2732TIP3   OH229754   5.677   2.960   0.475 -0.0466 -0.3936  0.0135
 2732TIP3    H129755   5.746   2.934   0.413  0.4912  0.8274  0.0674
 2732TIP3    H229756   5.693   2.906   0.553 -0.1607 -1.2774 -0.5607
 2733TIP3   OH229757   4.092   1.164   1.593  0.8932  0.0247 -0.2400
 2733TIP3    H129758   4.009   1.142   1.550  0.2961  0.6395  0.5700
 2733TIP3    H229759   4.083   1.256   1.618  2.0806  0.2881 -0.7080
 2734TIP3   OH229760   1.908   0.923   0.415 -0.2441 -0.0063 -0.0117
 2734TIP3    H129761   1.891   0.941   0.323 -0.5157  0.9108  0.2019
 2734TIP3    H229762   1.918   0.828   0.420 -0.6048 -0.1017 -0.9163
 2735TIP3   OH229763   1.272   4.796   7.893  0.3488  0.3272 -0.4479
 2735TIP3    H129764   1.235   4.883   7.908  0.4461  0.0489  1.7101
 2735TIP3    H229765   1.204   4.736   7.923  0.1310 -0.3915 -2.2688
 2736TIP3   OH229766   6.329   6.212   1.532  0.5715 -0.8210  0.2959
 2736TIP3    H129767   6.393   6.258   1.586 -0.3916 -0.5741  1.2536
 2736TIP3    H229768   6.307   6.275   1.462  1.3503 -0.9053 -0.0330
 2737TIP3   OH229769   5.051   2.635   1.996 -0.2377 -0.3406 -0.2971
 2737TIP3    H129770   5.002   2.554   2.009  0.7781 -0.9776 -0.3189
 2737TIP3    H229771   5.069   2.638   1.902 -0.6912  0.1736 -0.3762
 2738TIP3   OH229772   2.514   0.404   0.837  0.2593  0.1848  0.0485
 2738TIP3    H129773   2.561   0.328   0.872 -1.5127 -1.0800 -0.1773
 2738TIP3    H229774   2.494   0.458   0.913  2.5240  1.0645  0.0836
 2739TIP3   OH229775   3.861   4.912   2.075  0.2596  0.1651  0.3667
 2739TIP3    H129776   3.900   4.857   2.143  1.8650  1.2725  0.4096
 2739TIP3    H229777   3.822   4.985   2.122 -0.8915 -0.3474  0.2391
 2740TIP3   OH229778   1.688   5.000   8.451  0.0717 -0.2226  0.2179
 2740TIP3    H129779   1.730   4.935   8.508 -1.0938 -1.2996 -0.1178
 2740TIP3    H229780   1.594   4.986   8.462 -0.2150  1.2977 -0.0164
 2741TIP3   OH229781   1.477   0.016   1.683 -0.0796 -0.4242  0.5513
 2741TIP3    H129782   1.534  -0.053   1.650  0.6977  0.6927 -0.5344
 2741TIP3    H229783   1.537   0.080   1.722 -0.4093  1.2263 -1.4437
 2742TIP3   OH229784   5.122   6.136   1.148 -0.6917  0.0982 -0.1791
 2742TIP3    H129785   5.158   6.132   1.237 -1.0117 -0.4538 -0.0740
 2742TIP3    H229786   5.175   6.203   1.105  0.9920 -1.2174 -0.2574
 2743TIP3   OH229787   0.153   5.097   8.597  0.5410 -0.3164 -0.4228
 2743TIP3    H129788   0.176   5.185   8.565 -0.8386 -0.2990 -1.4652
 2743TIP3    H229789   0.058   5.092   8.588  0.3635 -1.2280  1.5057
 2744TIP3   OH229790   2.416   0.873   8.250  0.0436 -0.0058 -0.4096
 2744TIP3    H129791   2.360   0.900   8.178  0.6454  0.9091 -0.5561
 2744TIP3    H229792   2.453   0.790   8.222 -1.1628 -0.5766 -0.3426
 2745TIP3   OH229793   6.652   5.894   0.392 -0.6495  0.7663 -0.3141
 2745TIP3    H129794   6.571   5.862   0.352 -2.0946  1.5504  1.8341
 2745TIP3    H229795   6.630   5.981   0.425  1.4600  1.5323 -0.7502
 2746TIP3   OH229796   4.786   3.237   0.801 -0.1836  0.1793 -0.3267
 2746TIP3    H129797   4.776   3.250   0.707 -1.4925 -0.0841 -0.2362
 2746TIP3    H229798   4.723   3.169   0.824  1.3093 -1.0022  0.4714
 2747TIP3   OH229799   1.075   1.459   0.034  0.4431  0.6746 -0.0884
 2747TIP3    H129800   1.117   1.489  -0.046 -0.3974  2.1042 -0.0395
 2747TIP3    H229801   1.108   1.518   0.102  1.1925 -0.5515  0.6500
 2748TIP3   OH229802   1.086   1.208   0.139  0.4701  0.5528 -0.1847
 2748TIP3    H129803   1.052   1.289   0.101 -0.4745  0.0507 -0.4441
 2748TIP3    H229804   1.106   1.152   0.064 -0.6470 -0.1417  0.0146
 2749TIP3   OH229805   4.543   1.976   8.560 -0.0321 -0.0378 -0.0903
 2749TIP3    H129806   4.600   1.912   8.603 -0.8570 -0.1830  0.8094
 2749TIP3    H229807   4.557   2.057   8.610  2.0933  0.9356 -2.0901
 2750TIP3   OH229808   4.123   0.321   6.569  0.1768  0.3462 -0.1852
 2750TIP3    H129809   4.176   0.351   6.496 -0.7559 -0.9210 -1.4217
 2750TIP3    H229810   4.053   0.269   6.529 -1.5629  1.3200  1.4442
 2751TIP3   OH229811   3.830   1.264   1.299 -0.7534 -0.2984 -0.2938
 2751TIP3    H129812   3.742   1.292   1.275 -0.6054 -1.2267 -2.0460
 2751TIP3    H229813   3.817   1.181   1.345 -0.9835  1.1499  2.4587
 2752TIP3   OH229814   6.069   2.247   0.633  0.0452 -0.5658 -0.0121
 2752TIP3    H129815   5.984   2.282   0.608  0.7485  1.7960  0.6324
 2752TIP3    H229816   6.054   2.201   0.715 -0.5381  0.1886  0.3071
 2753TIP3   OH229817   0.318   1.353   0.816 -0.1541  0.1069 -0.1014
 2753TIP3    H129818   0.365   1.357   0.732 -1.2594 -2.2462 -0.9196
 2753TIP3    H229819   0.382   1.385   0.880  0.8976  1.5072 -1.7357
 2754TIP3   OH229820   5.243   1.285   2.196 -0.0861  0.1097 -0.1861
 2754TIP3    H129821   5.253   1.363   2.250  0.0068 -1.1759  1.7655
 2754TIP3    H229822   5.152   1.257   2.211 -0.2406  0.0583 -1.1736
 2755TIP3   OH229823   1.286   1.237   0.586  0.4205 -0.0505  0.5050
 2755TIP3    H129824   1.264   1.148   0.612 -1.2089  0.6018  1.5007
 2755TIP3    H229825   1.329   1.275   0.663 -1.2373  0.7958  1.0620
 2756TIP3   OH229826   0.575   4.492   0.096 -0.0631 -0.0108 -0.3241
 2756TIP3    H129827   0.611   4.409   0.127 -0.5528  0.7436  2.5978
 2756TIP3    H229828   0.610   4.558   0.157 -1.2768  1.6357 -1.3058
 2757TIP3   OH229829   0.528   5.492   1.253  0.4024  0.1688  0.2321
 2757TIP3    H129830   0.485   5.574   1.227 -0.3753 -0.1043  0.6382
 2757TIP3    H229831   0.497   5.427   1.189  0.2915 -0.0106  0.4697
 2758TIP3   OH229832   0.116   3.066   8.325 -0.0786  0.0148 -0.1377
 2758TIP3    H129833   0.131   3.148   8.277 -0.7218 -0.4931 -1.2429
 2758TIP3    H229834   0.122   3.091   8.417 -3.2685  1.9511 -0.3010
 2759TIP3   OH229835   5.398   4.306   1.620 -0.5226 -0.4654 -0.5581
 2759TIP3    H129836   5.356   4.259   1.692 -0.2231 -0.8280 -0.6164
 2759TIP3    H229837   5.371   4.258   1.541 -2.0490  0.7906 -0.8477
 2760TIP3   OH229838   0.296   3.849   8.464 -0.3890 -0.4308  0.3981
 2760TIP3    H129839   0.308   3.780   8.530 -0.4899  0.6939  1.6394
 2760TIP3    H229840   0.383   3.884   8.450 -0.3354 -0.8215 -0.2463
 2761TIP3   OH229841   3.105   6.000   0.562 -0.2425 -0.6094 -0.8263
 2761TIP3    H129842   3.183   6.053   0.575  0.4707 -1.6408 -0.7368
 2761TIP3    H229843   3.093   5.997   0.467  1.3417 -2.4834 -1.0375
 2762TIP3   OH229844   1.799   1.634   1.559  0.7116  0.1546  0.0896
 2762TIP3    H129845   1.764   1.578   1.629  3.1917 -0.7711  0.7016
 2762TIP3    H229846   1.893   1.640   1.578  1.0624  1.8528 -1.8481
 2763TIP3   OH229847   2.736   4.409   2.171  0.1160  0.4811 -0.1669
 2763TIP3    H129848   2.646   4.387   2.149  0.6890 -1.7163 -0.5149
 2763TIP3    H229849   2.753   4.492   2.126 -0.8868 -0.4518 -2.3491
 2764TIP3   OH229850   2.468   2.045   0.331  0.3262 -0.2156  0.9959
 2764TIP3    H129851   2.554   2.075   0.302  0.1112 -0.7320 -0.2608
 2764TIP3    H229852   2.486   1.989   0.406  1.2037 -1.1132  0.1528
 2765TIP3   OH229853   6.416   3.830   7.379  0.0913  0.6146 -0.1714
 2765TIP3    H129854   6.494   3.864   7.423  0.5393  0.7385 -1.0518
 2765TIP3    H229855   6.426   3.855   7.287  0.5926 -2.1182 -0.9487
 2766TIP3   OH229856   2.249   4.718   7.922  0.1308 -0.1401 -0.5606
 2766TIP3    H129857   2.218   4.674   7.844  0.4433 -1.3886  0.0014
 2766TIP3    H229858   2.184   4.787   7.938 -1.3066 -1.4530 -0.4985
 2767TIP3   OH229859   5.460   3.719   2.521 -0.3234  0.2288  0.4230
 2767TIP3    H129860   5.365   3.733   2.522 -0.4829 -0.5336 -1.3384
 2767TIP3    H229861   5.470   3.625   2.536  0.0925  0.1203 -0.5126
 2768TIP3   OH229862   0.741   1.042   8.142 -0.4078 -0.4033 -0.5465
 2768TIP3    H129863   0.674   1.086   8.091 -0.7181 -1.7026 -1.3026
 2768TIP3    H229864   0.694   1.005   8.217 -0.1685  0.4180  0.0233
 2769TIP3   OH229865   6.660   2.549   1.844  0.2652  0.3215  0.6261
 2769TIP3    H129866   6.637   2.565   1.936 -0.9583  0.5349  0.2982
 2769TIP3    H229867   6.671   2.637   1.807  1.8140  0.2302  0.7991
 2770TIP3   OH229868   4.316   5.383   7.626  0.1944  0.4273  0.4381
 2770TIP3    H129869   4.322   5.472   7.591  1.8016 -0.1236 -0.7589
 2770TIP3    H229870   4.327   5.326   7.551  3.8955 -0.8058  1.6993
 2771TIP3   OH229871   4.650   1.157   8.376  0.3962  0.0619 -0.1550
 2771TIP3    H129872   4.705   1.172   8.299  0.7614  0.7314  0.2289
 2771TIP3    H229873   4.620   1.066   8.366 -2.1451  1.0176 -2.7296
 2772TIP3   OH229874   4.449   2.105   1.320  0.7064 -0.6943  0.1628
 2772TIP3    H129875   4.490   2.133   1.402 -0.4993 -0.5032  0.7132
 2772TIP3    H229876   4.437   2.185   1.270  1.7825 -0.8522 -0.3872
 2773TIP3   OH229877   1.908   2.966   0.728 -0.2923  0.6056 -0.6780
 2773TIP3    H129878   1.932   2.874   0.720 -0.8889  0.1907  1.6430
 2773TIP3    H229879   1.991   3.011   0.740 -0.0979  0.1662 -0.3327
 2774TIP3   OH229880   3.579   3.252   7.461 -0.1193 -0.1977  0.2213
 2774TIP3    H129881   3.614   3.238   7.373  0.0702  1.4662  0.0043
 2774TIP3    H229882   3.506   3.312   7.449 -0.3937 -0.3314  1.1506
 2775TIP3   OH229883   3.981   6.089   7.422 -0.1173  0.1794  0.5124
 2775TIP3    H129884   4.071   6.119   7.434  0.7109 -1.1650 -1.7207
 2775TIP3    H229885   3.927   6.166   7.440  1.4401  0.9800  2.0117
 2776TIP3   OH229886   4.819   0.061   0.024 -0.3003  0.0814 -0.3691
 2776TIP3    H129887   4.783   0.021  -0.055 -2.1414  0.2695  0.3123
 2776TIP3    H229888   4.804  -0.005   0.092 -0.5283  0.6831  0.1759
 2777TIP3   OH229889   4.838   5.096   7.112  0.3628  0.0583  0.2010
 2777TIP3    H129890   4.796   5.131   7.034  0.0100  1.2744  0.9062
 2777TIP3    H229891   4.909   5.040   7.079  1.4996  2.0842 -1.0152
 2778TIP3   OH229892   3.633   6.647   0.971  0.1216 -0.3634 -0.1839
 2778TIP3    H129893   3.587   6.584   1.027  0.7269  0.4327  1.2719
 2778TIP3    H229894   3.717   6.604   0.952 -0.1670 -0.7229 -0.6933
 2779TIP3   OH229895   1.361   4.483   0.033 -0.4157  0.7109  0.1756
 2779TIP3    H129896   1.444   4.520   0.002  0.0470 -0.1826  0.3028
 2779TIP3    H229897   1.321   4.554   0.083  1.5525  0.3448  2.4547
 2780TIP3   OH229898   1.524   1.003   0.166 -0.6088  0.2134  0.0471
 2780TIP3    H129899   1.549   1.080   0.217 -1.0341 -0.0888  0.7205
 2780TIP3    H229900   1.434   0.984   0.193 -0.4706 -0.5821 -0.0294
 2781TIP3   OH229901   2.716   5.925   6.410 -0.1284  0.0513 -0.0174
 2781TIP3    H129902   2.784   5.991   6.424  0.6481 -0.5183 -0.9786
 2781TIP3    H229903   2.761   5.852   6.369 -0.7599 -1.5581  1.9668
 2782TIP3   OH229904   2.032   2.147   8.727 -0.4713  0.3436  0.5404
 2782TIP3    H129905   2.082   2.225   8.707 -1.9749  0.5113 -3.6268
 2782TIP3    H229906   1.950   2.180   8.764 -0.8308  0.7455 -0.5757
 2783TIP3   OH229907   0.679   4.928   2.284  0.4544  0.0213 -0.3752
 2783TIP3    H129908   0.720   4.857   2.332  0.5018 -0.6360 -1.3644
 2783TIP3    H229909   0.594   4.894   2.258  0.7631  0.0514 -1.4722
 2784TIP3   OH229910   6.501   6.425   1.639 -0.4408  0.4874  0.4050
 2784TIP3    H129911   6.552   6.408   1.560 -0.8609 -2.0954  0.6183
 2784TIP3    H229912   6.565   6.424   1.710 -0.5020 -0.9193  0.4673
 2785TIP3   OH229913   0.915   4.931   8.628 -0.0766 -0.0702 -0.2910
 2785TIP3    H129914   0.897   4.862   8.692 -0.9624 -0.7308 -1.2182
 2785TIP3    H229915   1.008   4.921   8.609 -0.0715 -0.6487 -0.0002
 2786TIP3   OH229916   6.228   6.135   0.707  0.2076  0.3260  0.1000
 2786TIP3    H129917   6.302   6.169   0.757 -0.2260  1.8097 -0.2048
 2786TIP3    H229918   6.152   6.180   0.743 -0.3175  0.1855 -0.7849
 2787TIP3   OH229919   5.147   4.364   0.370 -0.3916 -0.7239  0.2515
 2787TIP3    H129920   5.085   4.434   0.392  0.4949  0.3257 -0.4093
 2787TIP3    H229921   5.121   4.336   0.282  1.8291  1.9208 -1.4254
 2788TIP3   OH229922   2.421   0.834   6.512 -0.3148  0.3321  0.6432
 2788TIP3    H129923   2.474   0.765   6.473 -1.7464  0.5609 -1.9416
 2788TIP3    H229924   2.345   0.788   6.549 -0.5512  0.3893  0.2322
 2789TIP3   OH229925   4.452   4.251   7.186  0.6595 -0.4401  0.0759
 2789TIP3    H129926   4.475   4.342   7.166  0.0509 -0.0095  1.2883
 2789TIP3    H229927   4.373   4.257   7.239  0.7733 -1.6751  0.4086
 2790TIP3   OH229928   6.019   6.074   8.594  0.5141  0.4158  0.3429
 2790TIP3    H129929   5.966   6.120   8.530  0.5558  0.8830  0.6348
 2790TIP3    H229930   6.109   6.102   8.576  0.5211  0.5852  0.6294
 2791TIP3   OH229931   5.163   4.807   1.930 -0.1568  0.3550  0.3184
 2791TIP3    H129932   5.106   4.817   1.854 -0.7526 -0.5080  0.6294
 2791TIP3    H229933   5.174   4.712   1.939 -0.9361  0.3795  1.9037
 2792TIP3   OH229934   2.685   5.527   2.179  0.3344 -0.9245  0.3875
 2792TIP3    H129935   2.704   5.573   2.098 -1.7175  1.0693  0.9254
 2792TIP3    H229936   2.647   5.443   2.151  1.7974 -1.2835 -0.6333
 2793TIP3   OH229937   1.600   2.410   7.581  0.4935 -0.0569  0.2893
 2793TIP3    H129938   1.691   2.434   7.563  0.4573  0.2401  0.4924
 2793TIP3    H229939   1.583   2.446   7.668  0.6997 -1.5597  0.9861
 2794TIP3   OH229940   5.017   4.808   7.427 -0.4361 -0.0677  0.3422
 2794TIP3    H129941   4.967   4.859   7.364 -0.8615 -2.4058 -1.3331
 2794TIP3    H229942   5.043   4.729   7.380  0.3041 -1.3764  2.7308
 2795TIP3   OH229943   2.918   2.673   6.505  0.3678 -0.6356  0.1390
 2795TIP3    H129944   2.913   2.716   6.590 -3.1304  1.4113 -0.8992
 2795TIP3    H229945   2.900   2.581   6.524  2.6897 -0.8450  1.8310
 2796TIP3   OH229946   3.892   5.572   8.725 -0.2274  0.1084  0.0768
 2796TIP3    H129947   3.809   5.616   8.707  0.5025  1.3579 -0.3516
 2796TIP3    H229948   3.948   5.594   8.651 -0.2618 -2.7978 -0.9335
 2797TIP3   OH229949   1.310   1.566   6.499  0.2821  0.1178 -0.7568
 2797TIP3    H129950   1.222   1.599   6.516  0.1279 -0.0154 -1.2937
 2797TIP3    H229951   1.298   1.494   6.437  0.3782 -2.3067  1.7970
 2798TIP3   OH229952   1.940   4.206   2.466  0.2895  0.1394  0.4267
 2798TIP3    H129953   1.881   4.277   2.441 -1.2737 -1.2931 -0.1372
 2798TIP3    H229954   1.891   4.126   2.448  2.3518 -1.1442  0.0936
 2799TIP3   OH229955   2.358   4.989   0.523 -0.2736 -0.4961  0.2817
 2799TIP3    H129956   2.357   4.895   0.541  0.3276 -0.5307  0.1762
 2799TIP3    H229957   2.409   5.027   0.594 -1.0775 -0.1610  0.6885
 2800TIP3   OH229958   1.375   2.003   1.849 -0.2012 -0.4714  0.0698
 2800TIP3    H129959   1.284   1.975   1.862 -0.9538  1.3126 -0.9442
 2800TIP3    H229960   1.395   1.978   1.758 -0.3822  0.8038 -0.3530
 2801TIP3   OH229961   2.440   3.638   6.744  0.1465 -0.5755 -0.1229
 2801TIP3    H129962   2.523   3.610   6.705  0.0828  1.1475 -1.6380
 2801TIP3    H229963   2.373   3.590   6.696  0.1948 -0.8276  0.0591
 2802TIP3   OH229964   1.683   1.833   0.986  0.1279 -0.2534  0.1152
 2802TIP3    H129965   1.592   1.849   1.014  0.2505 -0.5118  0.6803
 2802TIP3    H229966   1.680   1.751   0.937  0.2450 -0.9233  1.1913
 2803TIP3   OH229967   3.605   5.751   0.728 -0.0413  0.2381 -0.2767
 2803TIP3    H129968   3.602   5.675   0.670  2.4554 -0.5790  0.5504
 2803TIP3    H229969   3.570   5.718   0.811  3.1193 -0.7920  0.7686
 2804TIP3   OH229970   3.735   0.979   8.479 -0.2173 -0.1630 -0.0432
 2804TIP3    H129971   3.722   0.941   8.392  1.6953 -2.1484  0.4244
 2804TIP3    H229972   3.737   0.903   8.538  2.6140  0.6679  1.1430
 2805TIP3   OH229973   3.313   2.609   0.684 -0.0469 -0.1610 -0.1030
 2805TIP3    H129974   3.370   2.686   0.674 -0.0613 -0.2634 -1.0065
 2805TIP3    H229975   3.339   2.550   0.614  0.2605 -1.1901  0.8520
 2806TIP3   OH229976   0.671   3.534   0.096  0.1948  0.3682 -0.5749
 2806TIP3    H129977   0.681   3.614   0.147 -0.1475  0.7427 -1.0830
 2806TIP3    H229978   0.723   3.548   0.017  2.1422 -0.8899  0.3860
 2807TIP3   OH229979   0.849   3.690   8.811  0.4225  0.5362  0.0021
 2807TIP3    H129980   0.883   3.602   8.793 -1.3573 -0.7753  2.3849
 2807TIP3    H229981   0.916   3.731   8.865  0.3788 -0.2036  0.6487
 2808TIP3   OH229982   2.155   3.953   0.620  0.2008  0.0671  0.0814
 2808TIP3    H129983   2.209   4.015   0.671  2.1112 -1.7548  0.4125
 2808TIP3    H229984   2.148   3.994   0.534 -0.7900  1.9304  0.9909
 2809TIP3   OH229985   4.654   4.258   8.192  0.3141 -0.5574 -0.0545
 2809TIP3    H129986   4.743   4.226   8.181 -0.0456 -1.3255 -0.8437
 2809TIP3    H229987   4.609   4.233   8.111 -0.6128 -0.1563  0.3184
 2810TIP3   OH229988   0.476   0.751   6.344  0.1511  0.5346 -1.2783
 2810TIP3    H129989   0.465   0.677   6.403  4.1027 -1.2879 -2.5292
 2810TIP3    H229990   0.499   0.824   6.402  0.6143 -0.3339 -0.3455
 2811TIP3   OH229991   4.972   5.887   2.103 -0.2620 -0.2819  0.5161
 2811TIP3    H129992   5.022   5.805   2.105 -0.7657 -0.5859  1.5638
 2811TIP3    H229993   5.017   5.943   2.166  0.2084  0.3355 -0.3558
 2812TIP3   OH229994   4.433   4.768   1.145  0.3057 -0.1348  0.0148
 2812TIP3    H129995   4.494   4.832   1.108  1.3611 -1.2077 -0.1839
 2812TIP3    H229996   4.487   4.715   1.204  0.0381 -2.2820 -1.5386
 2813TIP3   OH229997   3.846   3.008   8.754  0.1135 -0.1858 -0.3439
 2813TIP3    H129998   3.754   2.999   8.728 -0.1377 -0.1756  0.5372
 2813TIP3    H229999   3.894   2.957   8.688 -0.4129  0.7836 -1.4987
 2814TIP3   OH230000   1.470   3.454   6.357  0.2129 -0.0372 -0.1261
 2814TIP3    H130001   1.500   3.467   6.447  0.2470  2.2276 -0.4168
 2814TIP3    H230002   1.542   3.408   6.314  0.7988  0.1405  0.6449
 2815TIP3   OH230003   1.751   6.322   6.536  0.5520 -0.5675 -0.2797
 2815TIP3    H130004   1.711   6.239   6.562  0.2359 -0.2988  0.1000
 2815TIP3    H230005   1.843   6.301   6.521  0.4474 -1.0136 -0.3166
 2816TIP3   OH230006   2.863   3.579   1.680 -0.0206 -0.1215  0.3573
 2816TIP3    H130007   2.780   3.582   1.727 -0.5571 -0.5549 -0.5260
 2816TIP3    H230008   2.895   3.669   1.681 -0.8058  0.1647  0.1870
 2817TIP3   OH230009   1.812   6.061   0.606  0.0187 -0.6320  0.7738
 2817TIP3    H130010   1.897   6.032   0.573 -0.5406 -2.4045  0.7476
 2817TIP3    H230011   1.753   5.988   0.585 -0.8472 -0.8618  3.6271
 2818TIP3   OH230012   1.214   3.723   0.602  0.3742  0.2742  0.0340
 2818TIP3    H130013   1.193   3.751   0.691 -2.1376 -1.0954 -0.0583
 2818TIP3    H230014   1.153   3.770   0.546  1.5447  0.6837 -0.9601
 2819TIP3   OH230015   3.770   1.812   7.113 -0.1653  0.0005 -0.3542
 2819TIP3    H130016   3.780   1.719   7.133  0.2618 -0.1534 -1.2422
 2819TIP3    H230017   3.679   1.821   7.084 -0.7377  0.1918  1.3799
 2820TIP3   OH230018   2.132   0.444   8.261 -0.5384 -0.3787 -0.2725
 2820TIP3    H130019   2.164   0.390   8.333 -0.7900 -2.9048 -1.9443
 2820TIP3    H230020   2.054   0.487   8.295 -0.0507 -0.6543  1.2618
 2821TIP3   OH230021   6.680   5.932   1.144  0.2066  0.3093 -0.4624
 2821TIP3    H130022   6.660   5.967   1.231  1.8789 -2.1449  1.0421
 2821TIP3    H230023   6.636   5.846   1.143  0.9306 -0.0637 -1.6935
 2822TIP3   OH230024   3.026   3.101   8.872  0.0687  0.4698  0.2323
 2822TIP3    H130025   2.974   3.027   8.839  1.5328 -1.6123  2.2716
 2822TIP3    H230026   3.107   3.098   8.821  0.3182  0.3504  0.6296
 2823TIP3   OH230027   2.457   0.109   6.830 -0.0355 -0.5829  0.4764
 2823TIP3    H130028   2.439   0.200   6.855  1.7998  0.6589 -2.2621
 2823TIP3    H230029   2.519   0.078   6.897  0.8298  0.8724  0.4063
 2824TIP3   OH230030   2.032   6.644   1.261 -0.2123  0.2119 -0.0022
 2824TIP3    H130031   2.009   6.735   1.242 -1.9719 -0.3660 -0.9197
 2824TIP3    H230032   2.073   6.613   1.180 -0.9311 -0.1823 -0.2294
 2825TIP3   OH230033   2.191   0.654   0.423 -0.4252 -0.6049  0.0371
 2825TIP3    H130034   2.261   0.662   0.488  0.0704 -0.2568 -0.5289
 2825TIP3    H230035   2.113   0.687   0.468  0.6111  3.3079 -0.7026
 2826TIP3   OH230036   4.040   4.091   0.707  0.2809 -0.1411  0.5164
 2826TIP3    H130037   4.022   4.069   0.798 -0.3682  0.5372  0.5604
 2826TIP3    H230038   4.011   4.014   0.658 -0.4997 -0.0336  0.7897
 2827TIP3   OH230039   5.674   1.651   0.396 -0.1643  0.3185  0.0237
 2827TIP3    H130040   5.663   1.565   0.436 -0.8775  0.7690  0.8333
 2827TIP3    H230041   5.640   1.641   0.307  3.1255 -1.1972 -1.2457
 2828TIP3   OH230042   0.436   1.410   1.059  0.1640 -0.0305  0.1982
 2828TIP3    H130043   0.411   1.330   1.106  0.5028  0.5482  1.4155
 2828TIP3    H230044   0.476   1.465   1.127 -2.4805  2.2924  0.0535
 2829TIP3   OH230045   5.157   3.977   1.355 -0.0664 -0.2947 -0.3039
 2829TIP3    H130046   5.224   4.045   1.349  0.0638 -0.4479 -0.6097
 2829TIP3    H230047   5.109   3.982   1.273 -1.6698  1.0700  0.6502
 2830TIP3   OH230048   6.657   2.019   8.049  0.1603  0.8101 -0.4123
 2830TIP3    H130049   6.591   2.088   8.053  0.0812  0.7385 -0.4927
 2830TIP3    H230050   6.613   1.946   8.007 -0.0285  0.3955  0.4747
 2831TIP3   OH230051   2.032   3.775   8.803 -0.1386  0.2760  0.6107
 2831TIP3    H130052   1.947   3.737   8.780 -1.2010  3.1924 -0.8430
 2831TIP3    H230053   2.091   3.742   8.736 -1.3080  1.8983 -1.3629
 2832TIP3   OH230054   2.264   0.715   1.447  0.3950 -0.1374  0.0705
 2832TIP3    H130055   2.268   0.656   1.523 -0.2663  0.7589  0.8215
 2832TIP3    H230056   2.254   0.656   1.372 -1.3983 -0.9805  0.9035
 2833TIP3   OH230057   6.535   2.776   7.655 -1.0220  0.3772  0.3097
 2833TIP3    H130058   6.589   2.822   7.718  0.1947 -0.2363 -0.2496
 2833TIP3    H230059   6.597   2.731   7.597 -2.1212 -0.6901 -0.1117
 2834TIP3   OH230060   2.433   0.387   6.576 -0.4010  0.1512 -0.3786
 2834TIP3    H130061   2.511   0.353   6.621  1.1216  1.3346 -1.9540
 2834TIP3    H230062   2.392   0.446   6.640  0.2764 -0.1149  0.3166
 2835TIP3   OH230063   4.806   5.340   1.457 -0.0883  0.2065  0.1227
 2835TIP3    H130064   4.797   5.385   1.542  1.6603  0.6108  0.1311
 2835TIP3    H230065   4.728   5.284   1.452  0.3656 -0.8175  2.6049
 2836TIP3   OH230066   0.992   4.359   7.467  0.1815 -0.6146 -0.3487
 2836TIP3    H130067   1.017   4.424   7.533 -1.1044  0.7904 -1.1856
 2836TIP3    H230068   1.070   4.351   7.412  0.5354 -0.1909  0.0736
 2837TIP3   OH230069   1.779   2.154   8.802  0.2771  0.7675 -0.1140
 2837TIP3    H130070   1.766   2.184   8.712 -1.3130 -0.6870 -0.4303
 2837TIP3    H230071   1.791   2.060   8.795  0.2290  0.6445  1.1892
 2838TIP3   OH230072   2.759   0.764   0.665 -0.1123  0.6404  0.2579
 2838TIP3    H130073   2.706   0.808   0.732  0.5875  0.6493  0.8253
 2838TIP3    H230074   2.849   0.774   0.696  0.1871  0.2444 -0.4622
 2839TIP3   OH230075   6.013   4.518   2.589  0.3709  0.2417  0.8198
 2839TIP3    H130076   6.101   4.534   2.555 -0.7220 -0.2133 -2.7117
 2839TIP3    H230077   5.971   4.464   2.521 -2.9201  1.2514  1.8516
 2840TIP3   OH230078   6.005   2.048   7.796  0.1623  0.2819 -0.1965
 2840TIP3    H130079   5.947   2.009   7.861  0.6429 -0.2474 -0.0737
 2840TIP3    H230080   6.088   2.002   7.808  0.4182  0.5716 -0.8099
 2841TIP3   OH230081   3.619   3.581   2.210 -0.1043 -0.0482 -0.3663
 2841TIP3    H130082   3.605   3.486   2.219  0.6398 -0.4830 -2.8897
 2841TIP3    H230083   3.553   3.620   2.265  1.3631 -1.9897  3.0864
 2842TIP3   OH230084   0.163   6.079   7.114  0.0933 -0.3717  0.2748
 2842TIP3    H130085   0.224   6.149   7.088  0.9887 -1.3199 -0.2374
 2842TIP3    H230086   0.084   6.097   7.063  1.0756 -0.9578 -1.5555
 2843TIP3   OH230087   5.635   5.766   1.499 -0.5845  0.2651  0.0588
 2843TIP3    H130088   5.677   5.844   1.534 -1.1418  0.3018  0.6723
 2843TIP3    H230089   5.699   5.728   1.439  0.9711 -0.5951  2.1794
 2844TIP3   OH230090   1.012   3.903   7.897 -0.3461 -0.3581 -0.7349
 2844TIP3    H130091   1.077   3.878   7.962 -0.7434  1.0023  0.2392
 2844TIP3    H230092   1.001   3.826   7.842  0.5147 -1.3037  0.3832
 2845TIP3   OH230093   6.450   2.527   8.486 -0.0318 -0.2408  0.0217
 2845TIP3    H130094   6.399   2.607   8.502 -0.7987 -0.6802 -0.1641
 2845TIP3    H230095   6.540   2.558   8.478 -0.3571  0.6582 -0.4148
 2846TIP3   OH230096   4.911   6.514   1.395  0.2412  0.2189  0.3834
 2846TIP3    H130097   4.916   6.559   1.310  3.3223  0.8981  0.8145
 2846TIP3    H230098   4.919   6.421   1.374  1.3092  0.4061 -0.0790
 2847TIP3   OH230099   6.779   6.232   7.365  0.2714  0.3450  0.2350
 2847TIP3    H130100   6.714   6.190   7.310  0.9839  0.1495 -0.4728
 2847TIP3    H230101   6.863   6.211   7.324  0.6621  2.4883 -0.1749
 2848TIP3   OH230102   1.862   1.954   8.430 -0.5572 -0.4600  0.2165
 2848TIP3    H130103   1.829   1.977   8.517  0.6728  0.8272  0.3594
 2848TIP3    H230104   1.956   1.947   8.440 -0.5143 -1.6792 -0.7327
 2849TIP3   OH230105   3.406   4.491   1.542 -0.5118 -0.4352 -0.8937
 2849TIP3    H130106   3.360   4.509   1.459 -1.7059 -0.4898 -0.2615
 2849TIP3    H230107   3.433   4.578   1.573  0.6399 -0.4794 -1.7134
 2850TIP3   OH230108   1.411   1.956   6.942 -0.1230  0.1655  0.4734
 2850TIP3    H130109   1.431   2.042   6.978  0.1375 -0.5393  2.0682
 2850TIP3    H230110   1.318   1.961   6.918  0.0328  1.0603  0.0104
 2851TIP3   OH230111   1.999   5.791   8.680  0.2352 -0.5392  0.4865
 2851TIP3    H130112   2.079   5.797   8.629  0.6460 -1.1518  1.0456
 2851TIP3    H230113   1.962   5.706   8.658 -0.0535 -0.4278  0.5333
 2852TIP3   OH230114   3.273   2.583   6.752 -0.1778 -0.0490  0.0497
 2852TIP3    H130115   3.268   2.632   6.670  1.3495  0.0247 -0.0388
 2852TIP3    H230116   3.327   2.637   6.809 -1.7225  0.1860  1.3463
 2853TIP3   OH230117   4.523   3.086   1.664 -0.3240  0.3758 -0.3024
 2853TIP3    H130118   4.598   3.138   1.633 -0.2679  0.6262  0.2484
 2853TIP3    H230119   4.553   2.995   1.659 -0.2611  0.4210 -0.8383
 2854TIP3   OH230120   2.452   1.809   1.495  0.1455 -0.3103  0.4537
 2854TIP3    H130121   2.445   1.904   1.503 -1.3603 -0.4786  1.6720
 2854TIP3    H230122   2.429   1.790   1.404 -0.7439  0.4108  0.5188
 2855TIP3   OH230123   5.850   4.251   1.230  0.4981  0.5778  0.3516
 2855TIP3    H130124   5.924   4.309   1.215 -0.4527  1.2345 -2.3981
 2855TIP3    H230125   5.856   4.185   1.161 -0.1572 -0.8262  1.5665
 2856TIP3   OH230126   0.514   0.021   8.369  0.7411 -0.1641 -0.0806
 2856TIP3    H130127   0.543   0.101   8.326 -1.5311  0.6968 -0.1399
 2856TIP3    H230128   0.419   0.030   8.375  0.4083 -2.8716 -0.0972
 2857TIP3   OH230129   4.247   0.794   1.300  0.2841  0.1873 -0.0514
 2857TIP3    H130130   4.208   0.717   1.259 -2.9405  0.4280  2.1898
 2857TIP3    H230131   4.277   0.762   1.386  1.6043  0.8597 -0.2383
 2858TIP3   OH230132   6.117   0.400   2.387  0.3977 -0.0318 -0.1470
 2858TIP3    H130133   6.067   0.338   2.441  0.3139  0.5693  0.4794
 2858TIP3    H230134   6.157   0.459   2.450 -1.0529  1.7248 -0.7786
 2859TIP3   OH230135   1.804   1.385   0.185  0.7439 -0.2928 -0.1837
 2859TIP3    H130136   1.750   1.341   0.251 -0.2931  3.2786  1.5582
 2859TIP3    H230137   1.892   1.385   0.221  0.0166  2.5547  1.9456
 2860TIP3   OH230138   4.799   5.429   7.485  0.3345  0.3129 -0.3862
 2860TIP3    H130139   4.798   5.428   7.389 -1.2576 -4.2303 -0.5631
 2860TIP3    H230140   4.891   5.426   7.508  0.7529  1.7469 -1.7086
 2861TIP3   OH230141   4.758   2.033   7.432 -0.0882  0.4305  0.1061
 2861TIP3    H130142   4.708   2.073   7.503 -0.3724 -0.7450  0.6009
 2861TIP3    H230143   4.716   1.948   7.418  0.4506  0.3187 -0.9474
 2862TIP3   OH230144   5.728   3.399   7.072  0.0822 -0.0633 -0.0620
 2862TIP3    H130145   5.689   3.453   7.141  0.2944  0.2726 -0.2011
 2862TIP3    H230146   5.655   3.379   7.013 -0.3917 -1.4439  0.9276
 2863TIP3   OH230147   3.399   2.990   7.076  0.3394  0.4876  0.0721
 2863TIP3    H130148   3.440   3.072   7.048  1.2980 -0.0028 -0.0275
 2863TIP3    H230149   3.444   2.968   7.157  1.7443 -1.0933 -1.0665
 2864TIP3   OH230150   3.331   2.313   6.761  0.0973  0.0284 -0.6459
 2864TIP3    H130151   3.420   2.296   6.729 -0.2019 -0.8673 -1.0415
 2864TIP3    H230152   3.315   2.405   6.740  0.7349  0.0549 -1.0518
 2865TIP3   OH230153   5.938   3.159   0.402  0.2309  0.1778  0.1513
 2865TIP3    H130154   5.965   3.068   0.412  0.7611  0.2365 -0.6462
 2865TIP3    H230155   5.955   3.179   0.310  1.7491  1.5775  0.6788
 2866TIP3   OH230156   5.085   3.605   6.485 -0.0298 -0.5460  0.1970
 2866TIP3    H130157   5.004   3.620   6.437 -1.4814  1.8500  3.1197
 2866TIP3    H230158   5.105   3.512   6.470 -3.1712 -1.1659 -0.8057
 2867TIP3   OH230159   2.822   3.842   2.300 -0.0985  0.0182 -0.5531
 2867TIP3    H130160   2.800   3.935   2.296  0.3700  0.2068  0.6319
 2867TIP3    H230161   2.760   3.805   2.364  0.3081 -0.2892 -0.3272
 2868TIP3   OH230162   2.651   0.132   0.423  0.0679  0.6882 -0.0537
 2868TIP3    H130163   2.717   0.183   0.469  0.1680  0.4176  0.1074
 2868TIP3    H230164   2.603   0.087   0.492  0.2132  0.2875 -0.2067
 2869TIP3   OH230165   4.500   4.915   1.713 -0.2618 -0.3599 -0.3766
 2869TIP3    H130166   4.582   4.960   1.736 -0.0723  0.1698 -1.9969
 2869TIP3    H230167   4.433   4.959   1.765  0.0149  1.4264 -1.4648
 2870TIP3   OH230168   2.003   1.868   0.874 -0.1339 -0.0699  0.0411
 2870TIP3    H130169   2.097   1.856   0.859  0.2427 -0.2774  2.3234
 2870TIP3    H230170   1.996   1.954   0.916 -0.5623 -1.3723  2.8091
 2871TIP3   OH230171   1.514   2.768   0.865 -0.3615  0.1270  0.7306
 2871TIP3    H130172   1.550   2.853   0.840  0.7592 -0.7327 -0.6897
 2871TIP3    H230173   1.423   2.770   0.835 -0.2844  0.7399  0.5368
 2872TIP3   OH230174   4.835   3.618   8.068  0.1112 -0.1838 -0.0881
 2872TIP3    H130175   4.767   3.652   8.009  0.6585  0.8128 -0.1725
 2872TIP3    H230176   4.788   3.562   8.130 -0.8307  0.7081  0.0285
 2873TIP3   OH230177   4.670   5.993   0.690  0.0829  0.0874 -0.2444
 2873TIP3    H130178   4.589   5.943   0.684  0.3968 -0.3901 -0.6200
 2873TIP3    H230179   4.649   6.066   0.749 -1.2860  1.2943 -2.1160
 2874TIP3   OH230180   5.761   6.484   0.936  0.3135 -0.0077  0.4321
 2874TIP3    H130181   5.735   6.471   1.028  0.8633  1.6093  0.8385
 2874TIP3    H230182   5.753   6.397   0.897 -0.6874 -0.5755  1.8151
 2875TIP3   OH230183   6.110   4.101   8.657  0.1928  0.8821  0.2541
 2875TIP3    H130184   6.150   4.174   8.610  3.0231  0.4531  1.7526
 2875TIP3    H230185   6.182   4.063   8.709 -2.1155 -0.2462  2.9147
 2876TIP3   OH230186   4.591   0.943   7.755 -0.1991 -0.4941  0.3526
 2876TIP3    H130187   4.599   1.036   7.736 -1.9750 -0.3520  0.1312
 2876TIP3    H230188   4.574   0.938   7.849  1.7241 -0.7436  0.7175
 2877TIP3   OH230189   5.686   5.716   8.211  0.3412 -0.1771  0.0961
 2877TIP3    H130190   5.706   5.715   8.305 -0.4823 -5.4851  0.4971
 2877TIP3    H230191   5.591   5.704   8.207  0.6581 -3.2033 -1.1920
 2878TIP3   OH230192   5.435   6.178   6.905  0.2966 -0.4413 -0.3301
 2878TIP3    H130193   5.412   6.095   6.865 -1.1578 -0.3268  0.1999
 2878TIP3    H230194   5.398   6.244   6.847 -0.1495 -0.2258  0.1924
 2879TIP3   OH230195   6.299   0.040   1.734 -0.5306  0.3119  0.1450
 2879TIP3    H130196   6.318   0.029   1.827  2.7284 -0.2292 -0.4776
 2879TIP3    H230197   6.275  -0.048   1.704 -1.9922  0.5664  0.5133
 2880TIP3   OH230198   5.262   5.914   1.776 -0.4497  0.0448 -0.1134
 2880TIP3    H130199   5.216   5.831   1.781 -0.8354  0.2215 -0.6290
 2880TIP3    H230200   5.273   5.942   1.867 -0.4300 -0.5056  0.0512
 2881TIP3   OH230201   0.671   5.684   6.993  0.2682 -0.5827  0.0406
 2881TIP3    H130202   0.630   5.679   7.080  0.4712 -2.0040  0.0776
 2881TIP3    H230203   0.660   5.596   6.957  1.2336 -0.3297 -0.9008
 2882TIP3   OH230204   0.171   4.818   7.110  0.3088  0.0180  0.3678
 2882TIP3    H130205   0.084   4.779   7.118  0.1385  0.5809  1.4055
 2882TIP3    H230206   0.231   4.746   7.128  0.0436 -0.1781  0.4701
 2883TIP3   OH230207   1.709   2.906   6.308  0.2641  0.1293  0.5861
 2883TIP3    H130208   1.742   2.833   6.361  0.4978 -1.1927 -1.2789
 2883TIP3    H230209   1.788   2.947   6.272  0.0814  0.3662  0.4532
 2884TIP3   OH230210   2.377   6.511   8.032 -0.1349 -0.6398  0.2256
 2884TIP3    H130211   2.386   6.527   7.938 -0.8548 -1.9977 -0.1074
 2884TIP3    H230212   2.460   6.469   8.057  1.1218  2.0050  0.7826
 2885TIP3   OH230213   4.176   2.112   7.774  0.3796  0.0282 -0.5281
 2885TIP3    H130214   4.128   2.047   7.722  1.3686 -1.8628  0.8191
 2885TIP3    H230215   4.197   2.181   7.711  2.6723 -2.7121 -3.0968
 2886TIP3   OH230216   6.392   1.029   6.163 -0.5022 -0.2874  0.5034
 2886TIP3    H130217   6.414   1.000   6.252 -0.8045  2.2135  1.4771
 2886TIP3    H230218   6.303   0.999   6.149 -0.3928 -0.8523  0.9597
 2887TIP3   OH230219   5.005   4.959   7.947  0.3976  0.5430  0.3246
 2887TIP3    H130220   5.015   4.928   8.037  0.9719  0.6524  0.2991
 2887TIP3    H230221   4.996   4.879   7.895 -0.0451  0.4820  0.4853
 2888TIP3   OH230222   6.238   0.267   1.073 -0.4368  0.6240  0.1920
 2888TIP3    H130223   6.263   0.222   1.154 -0.0994  0.9609  0.2730
 2888TIP3    H230224   6.165   0.214   1.039 -1.9156  1.5628  1.7362
 2889TIP3   OH230225   3.059   1.547   1.972  0.0940 -0.3143  0.0760
 2889TIP3    H130226   3.016   1.487   1.912  2.2620 -2.4079  0.4602
 2889TIP3    H230227   3.016   1.531   2.056 -1.3157  0.8778 -0.3815
 2890TIP3   OH230228   4.499   1.995   1.628  0.1437 -0.3779  0.3451
 2890TIP3    H130229   4.531   2.077   1.590 -0.0747 -0.2990  0.3326
 2890TIP3    H230230   4.569   1.967   1.687 -0.0765  0.1727  0.8756
 2891TIP3   OH230231   3.474   4.893   0.713  0.1862  0.1929 -0.2393
 2891TIP3    H130232   3.523   4.823   0.755  1.1950 -0.0831 -1.7913
 2891TIP3    H230233   3.533   4.968   0.712 -0.0820  0.4076 -0.5036
 2892TIP3   OH230234   3.507   6.705   2.155  0.1059 -0.2796 -0.1948
 2892TIP3    H130235   3.516   6.796   2.181 -0.0297 -0.4180  0.3525
 2892TIP3    H230236   3.413   6.693   2.141  0.2200 -0.0965 -1.1776
 2893TIP3   OH230237   3.196   2.424   1.361 -0.5835  0.0716 -0.0885
 2893TIP3    H130238   3.258   2.443   1.432  0.8131  0.4341 -1.3629
 2893TIP3    H230239   3.173   2.510   1.326 -0.0368 -0.1769 -1.0783
 2894TIP3   OH230240   4.098   5.762   0.985  0.2372  0.2546  0.6497
 2894TIP3    H130241   4.162   5.789   1.051 -0.6407  0.1482  1.5522
 2894TIP3    H230242   4.024   5.727   1.035 -0.8703  1.0948 -0.3490
 2895TIP3   OH230243   0.121   5.274   0.966  0.2497 -0.2538  0.0161
 2895TIP3    H130244   0.210   5.295   0.936 -0.3073 -0.5397 -2.0333
 2895TIP3    H230245   0.126   5.278   1.061  2.5462 -0.6188 -0.0238
 2896TIP3   OH230246   4.889   4.620   1.233  0.4086  0.3782 -0.5599
 2896TIP3    H130247   4.969   4.584   1.271  1.1167  1.0056 -1.4332
 2896TIP3    H230248   4.908   4.713   1.220 -1.4622  1.1902  1.8447
 2897TIP3   OH230249   2.913   4.267   7.672 -0.7276  0.1758  0.0427
 2897TIP3    H130250   2.979   4.210   7.633 -0.2747  2.2840 -2.6004
 2897TIP3    H230251   2.859   4.295   7.598 -1.2945  2.6471  1.2909
 2898TIP3   OH230252   0.109   1.219   1.856 -0.4164 -0.0198  0.1940
 2898TIP3    H130253   0.072   1.250   1.774 -1.3888 -0.1429  0.5611
 2898TIP3    H230254   0.067   1.134   1.870  0.7452 -0.6102  0.1613
 2899TIP3   OH230255   2.002   5.564   7.561 -0.1250  0.1854 -0.0691
 2899TIP3    H130256   2.047   5.623   7.622 -0.6670  0.1346  0.3876
 2899TIP3    H230257   1.997   5.614   7.480  2.4859 -0.5179 -0.7688
 2900TIP3   OH230258   3.808   5.498   1.781  0.1983 -0.7019  0.1077
 2900TIP3    H130259   3.786   5.550   1.859  1.0891  1.3399 -0.9305
 2900TIP3    H230260   3.840   5.415   1.816  0.0731 -0.0420  1.9092
 2901TIP3   OH230261   2.961   6.321   0.997  0.0560  0.2593  0.2616
 2901TIP3    H130262   2.866   6.322   1.008 -0.0527  1.2937 -0.6080
 2901TIP3    H230263   2.975   6.281   0.911  0.1508  3.2171 -1.2419
 2902TIP3   OH230264   5.423   0.166   1.618  0.1768 -0.0704 -0.4039
 2902TIP3    H130265   5.355   0.129   1.674  0.5454 -0.4025 -0.1719
 2902TIP3    H230266   5.408   0.126   1.533  1.5541 -2.0456  0.2175
 2903TIP3   OH230267   1.213   3.988   7.593 -0.3317 -0.3076  0.4183
 2903TIP3    H130268   1.208   3.903   7.638 -0.6373 -0.6099 -0.1631
 2903TIP3    H230269   1.296   4.025   7.620  0.7317 -1.6636 -0.7909
 2904TIP3   OH230270   4.662   4.685   8.025  0.3494  0.1101 -0.3012
 2904TIP3    H130271   4.671   4.726   8.112  0.2520  1.6973 -1.0021
 2904TIP3    H230272   4.737   4.626   8.019 -0.5999 -1.4257  1.5467
 2905TIP3   OH230273   4.420   3.004   7.258  0.7537  0.3509 -0.6914
 2905TIP3    H130274   4.424   3.092   7.222  2.0371 -0.3231 -2.3029
 2905TIP3    H230275   4.329   2.995   7.288 -0.0980  1.3699 -2.7756
 2906TIP3   OH230276   4.889   4.829   0.976 -0.4366  0.5297  0.7512
 2906TIP3    H130277   4.938   4.911   0.976 -0.2404  0.4548 -0.9585
 2906TIP3    H230278   4.947   4.766   1.016  1.5435  0.1407 -2.3645
 2907TIP3   OH230279   2.132   5.328   7.569  0.8004  0.6997  0.2645
 2907TIP3    H130280   2.114   5.292   7.655 -1.1429  1.6558  0.3070
 2907TIP3    H230281   2.080   5.408   7.564 -0.5037 -0.1710 -2.3715
 2908TIP3   OH230282   5.745   4.362   7.666  0.3919  0.3890  0.4393
 2908TIP3    H130283   5.789   4.429   7.613  1.1048  0.0711  0.6078
 2908TIP3    H230284   5.813   4.296   7.682  0.1742  0.4353  1.6774
 2909TIP3   OH230285   4.122   5.866   6.988  0.1317 -0.1687  0.2832
 2909TIP3    H130286   4.032   5.852   7.017  0.1231  0.4531  0.5722
 2909TIP3    H230287   4.118   5.859   6.893  0.0083 -1.3940  0.3728
 2910TIP3   OH230288   4.362   1.583   1.053  0.7331  0.0496  0.0847
 2910TIP3    H130289   4.275   1.576   1.092  0.5336  1.5677 -0.0179
 2910TIP3    H230290   4.419   1.611   1.125  0.9926 -0.2425 -0.0064
 2911TIP3   OH230291   0.967   1.926   1.200  0.2387  0.4246  0.2767
 2911TIP3    H130292   1.061   1.945   1.205  0.7871 -2.1287  1.0845
 2911TIP3    H230293   0.939   1.920   1.291 -0.4029 -0.1381  0.0503
 2912TIP3   OH230294   5.254   3.436   1.268 -0.1026 -0.4653 -0.5481
 2912TIP3    H130295   5.188   3.380   1.228  0.0055 -1.0137  0.0273
 2912TIP3    H230296   5.333   3.420   1.216  0.0232 -1.1303 -0.1625
 2913TIP3   OH230297   4.242   1.831   0.483 -0.0597 -0.1374  0.8414
 2913TIP3    H130298   4.178   1.764   0.508 -0.9619  1.5647  3.4394
 2913TIP3    H230299   4.324   1.802   0.522 -0.4869  0.3041  2.1082
 2914TIP3   OH230300   6.673   5.062   7.859 -0.2769  0.2121  0.1565
 2914TIP3    H130301   6.716   5.035   7.941 -0.0439  1.1436  0.3477
 2914TIP3    H230302   6.588   5.097   7.887 -1.9447 -2.9718 -0.3150
 2915TIP3   OH230303   2.681   1.470   0.042 -0.0702  0.4880 -0.1363
 2915TIP3    H130304   2.618   1.538   0.067  1.5490  1.6610  0.9736
 2915TIP3    H230305   2.654   1.394   0.092 -2.1667  0.0846 -1.7045
 2916TIP3   OH230306   0.372   3.008   1.083 -0.2354 -0.0611 -0.6023
 2916TIP3    H130307   0.365   3.057   1.165 -2.2966  1.3163 -1.5350
 2916TIP3    H230308   0.309   2.936   1.093 -0.9158  0.4419 -1.1596
 2917TIP3   OH230309   4.215   1.853   0.906  0.2354 -0.1730  0.1078
 2917TIP3    H130310   4.120   1.851   0.893 -0.0921  2.1987  1.5246
 2917TIP3    H230311   4.232   1.787   0.973 -0.5449 -0.0294  0.4511
 2918TIP3   OH230312   4.452   1.100   8.562 -0.2780 -0.2956  0.3875
 2918TIP3    H130313   4.515   1.134   8.498  1.5341 -1.6135  1.3797
 2918TIP3    H230314   4.383   1.166   8.565  0.6920  0.8810 -1.2690
 2919TIP3   OH230315   3.033   0.755   0.758 -0.6316 -0.3180 -0.3486
 2919TIP3    H130316   3.017   0.835   0.809  1.5863 -0.5972  0.8850
 2919TIP3    H230317   3.122   0.730   0.779 -0.7837 -2.3733 -1.8191
 2920TIP3   OH230318   0.075   6.532   0.415 -0.0348 -0.6185 -0.3412
 2920TIP3    H130319   0.131   6.608   0.402 -1.0597 -0.0962 -1.8530
 2920TIP3    H230320   0.098   6.501   0.503  1.5363  0.4588 -0.3238
 2921TIP3   OH230321   4.626   4.561   0.010  0.0866  0.9753 -0.4788
 2921TIP3    H130322   4.631   4.545  -0.084 -1.5053  0.0203 -0.4359
 2921TIP3    H230323   4.545   4.518   0.038  0.9687  0.4546  1.4872
 2922TIP3   OH230324   2.368   4.369   6.929 -0.1205 -0.2140  0.2524
 2922TIP3    H130325   2.426   4.301   6.895  0.6266 -0.0420  1.1282
 2922TIP3    H230326   2.421   4.448   6.930 -0.1761 -0.1679  1.5705
 2923TIP3   OH230327   5.470   4.946   7.776 -0.2664 -0.1586  0.3951
 2923TIP3    H130328   5.466   4.886   7.701 -2.1389 -1.5224  1.4942
 2923TIP3    H230329   5.417   5.021   7.750  0.2978  0.0431 -0.1829
 2924TIP3   OH230330   4.178   0.883   7.800  0.0881 -0.3945 -0.4174
 2924TIP3    H130331   4.083   0.893   7.802  0.0105 -1.1416 -0.0512
 2924TIP3    H230332   4.206   0.896   7.891  0.3814  0.2138 -0.5906
 2925TIP3   OH230333   6.101   5.135   8.355  0.4553 -0.3277  0.1188
 2925TIP3    H130334   6.070   5.182   8.432  1.6937  0.4378  0.1877
 2925TIP3    H230335   6.171   5.079   8.387  0.6548 -0.3588 -0.3632
 2926TIP3   OH230336   4.311   1.390   0.820  0.1159  0.3712 -0.5350
 2926TIP3    H130337   4.297   1.305   0.861  1.7532 -0.0467 -0.7569
 2926TIP3    H230338   4.352   1.444   0.888 -1.4165  1.1837 -0.2229
 2927TIP3   OH230339   4.734   1.519   6.721 -0.6878  0.2715 -0.2927
 2927TIP3    H130340   4.746   1.604   6.679 -0.5389  0.5678  0.3453
 2927TIP3    H230341   4.642   1.497   6.704  0.0129 -0.8966 -3.1173
 2928TIP3   OH230342   2.484   2.175   7.973 -0.4548 -0.1358 -0.0058
 2928TIP3    H130343   2.400   2.219   7.983  0.4075  1.7034 -0.3938
 2928TIP3    H230344   2.472   2.116   7.899 -1.7016 -0.7058  0.6221
 2929TIP3   OH230345   0.679   4.411   0.581  0.3643  0.2807  0.1670
 2929TIP3    H130346   0.728   4.381   0.658  0.9932 -0.3327 -0.4520
 2929TIP3    H230347   0.715   4.497   0.560  1.9314 -0.5784 -0.8762
 2930TIP3   OH230348   4.862   1.283   1.279 -0.4152 -0.1749  0.1214
 2930TIP3    H130349   4.798   1.237   1.225  0.2545  0.2288 -1.0466
 2930TIP3    H230350   4.821   1.368   1.296 -0.0256  0.2514 -0.9981
 2931TIP3   OH230351   2.686   6.254   1.511  0.8107 -0.0893  0.2363
 2931TIP3    H130352   2.777   6.243   1.538  0.4227 -4.6892  0.4503
 2931TIP3    H230353   2.669   6.180   1.453 -2.4962  1.3100 -0.8313
 2932TIP3   OH230354   0.077   6.543   7.182  0.0938  0.5087 -0.7051
 2932TIP3    H130355   0.166   6.518   7.161 -0.1193 -1.8982  0.8561
 2932TIP3    H230356   0.082   6.580   7.271 -0.8526 -3.5507  1.2464
 2933TIP3   OH230357   1.770   3.738   0.870  0.4488  0.2765 -0.1526
 2933TIP3    H130358   1.720   3.817   0.847 -1.6779 -0.7879  0.5007
 2933TIP3    H230359   1.845   3.739   0.812 -1.7127  0.6381 -3.1887
 2934TIP3   OH230360   5.466   3.613   7.526  0.2185 -0.1273 -0.4983
 2934TIP3    H130361   5.399   3.596   7.592 -2.1112  0.7864 -2.4898
 2934TIP3    H230362   5.483   3.707   7.534  3.5957 -0.7370  1.9232
 2935TIP3   OH230363   6.003   5.337   0.126  0.0935 -0.6352  0.4100
 2935TIP3    H130364   5.998   5.395   0.050  1.4721 -3.4387 -2.0413
 2935TIP3    H230365   6.094   5.344   0.156  0.0036 -0.7838  0.7311
 2936TIP3   OH230366   3.869   4.240   7.812  0.6270  0.6743 -0.2338
 2936TIP3    H130367   3.889   4.246   7.905  1.7737 -1.5632 -0.2851
 2936TIP3    H230368   3.953   4.224   7.770  0.3450  2.8986 -1.8652
 2937TIP3   OH230369   0.127   2.908   8.005 -0.8956 -0.2922 -0.2255
 2937TIP3    H130370   0.129   2.976   8.073 -0.4668  1.3048 -1.7594
 2937TIP3    H230371   0.169   2.832   8.046  0.7911  1.1027  0.7917
 2938TIP3   OH230372   4.472   4.609   6.330  0.0018 -0.7652 -0.1545
 2938TIP3    H130373   4.546   4.570   6.376  1.6649  1.4222 -0.8465
 2938TIP3    H230374   4.445   4.543   6.267  1.1017 -1.7327  0.3625
 2939TIP3   OH230375   0.503   5.395   0.727 -0.0935 -0.2795  0.0987
 2939TIP3    H130376   0.531   5.464   0.788  0.4565  0.1296 -0.6083
 2939TIP3    H230377   0.408   5.403   0.724 -0.1418 -0.3786  0.9871
 2940TIP3   OH230378   2.937   6.374   8.086  0.0148  0.8692 -0.2554
 2940TIP3    H130379   3.005   6.378   8.153  0.2741 -2.2461 -0.1984
 2940TIP3    H230380   2.972   6.426   8.013  2.0435  0.1054  0.1205
 2941TIP3   OH230381   6.552   2.447   6.186 -0.2722  0.2526  0.2556
 2941TIP3    H130382   6.615   2.451   6.258 -0.2348 -1.4469  0.3585
 2941TIP3    H230383   6.488   2.515   6.206  0.1345  0.2834  1.5238
 2942TIP3   OH230384   2.616   6.350   8.085 -0.5182 -0.0265 -0.2698
 2942TIP3    H130385   2.704   6.330   8.053  1.1167  0.2011  3.4920
 2942TIP3    H230386   2.591   6.272   8.134 -0.7318  1.2423  1.7650
 2943TIP3   OH230387   3.238   6.511   2.071 -0.7199  0.0812  0.1274
 2943TIP3    H130388   3.241   6.471   2.158 -0.4433 -1.5173 -0.5844
 2943TIP3    H230389   3.145   6.517   2.051 -0.7801  0.3107  0.4677
 2944TIP3   OH230390   0.655   1.337   6.797 -0.1100  0.1006  0.2849
 2944TIP3    H130391   0.567   1.312   6.768  0.0886 -0.7372  0.3846
 2944TIP3    H230392   0.675   1.277   6.869  1.3750 -1.1518 -1.0944
 2945TIP3   OH230393   5.375   3.931   7.064  0.0842  0.3217 -0.4177
 2945TIP3    H130394   5.454   3.983   7.046  0.7324  0.0565  1.4447
 2945TIP3    H230395   5.409   3.846   7.091 -0.8610  0.0896  0.0615
 2946TIP3   OH230396   0.408   5.257   1.341 -0.6615 -0.3487 -0.1435
 2946TIP3    H130397   0.470   5.331   1.338 -1.9120  0.9088  2.1738
 2946TIP3    H230398   0.462   5.182   1.365  0.5086 -0.0945 -1.7775
 2947TIP3   OH230399   1.434   4.230   8.377  0.5283  0.5717  0.0970
 2947TIP3    H130400   1.362   4.288   8.400  1.5858  1.5246  1.1548
 2947TIP3    H230401   1.448   4.176   8.455  0.4766 -0.1393 -0.3716
 2948TIP3   OH230402   4.139   3.368   1.188 -0.2701  0.1141 -0.1612
 2948TIP3    H130403   4.172   3.430   1.123 -1.6795  0.0205 -1.0078
 2948TIP3    H230404   4.133   3.285   1.140 -1.5236  0.0932  0.0030
 2949TIP3   OH230405   2.132   0.205   8.698 -0.2663 -0.3883  0.8034
 2949TIP3    H130406   2.135   0.293   8.735 -0.4139 -0.5168  1.1229
 2949TIP3    H230407   2.133   0.147   8.773  0.5707 -0.6839  0.5646
 2950TIP3   OH230408   2.468   6.764   8.611 -0.1282 -0.4869  0.3327
 2950TIP3    H130409   2.393   6.712   8.640  0.9678 -2.0676  0.4783
 2950TIP3    H230410   2.489   6.819   8.686 -0.4360 -0.8853  0.7208
 2951TIP3   OH230411   5.980   5.339   1.568 -0.4258 -0.5850 -0.0662
 2951TIP3    H130412   6.066   5.305   1.592  0.4364  1.7026  0.3221
 2951TIP3    H230413   5.941   5.368   1.650 -0.7468  0.1437 -0.4633
 2952TIP3   OH230414   5.673   5.547   7.282  0.5878  0.7923  0.6797
 2952TIP3    H130415   5.616   5.471   7.292  2.0316 -0.3001  0.9427
 2952TIP3    H230416   5.615   5.618   7.254 -0.6533 -0.6089 -0.3996
 2953TIP3   OH230417   2.556   2.407   1.772 -0.0564 -0.1522  0.0075
 2953TIP3    H130418   2.643   2.396   1.809  0.0037 -1.6710 -0.5173
 2953TIP3    H230419   2.497   2.373   1.840 -0.0282 -1.7059 -0.6933
 2954TIP3   OH230420   0.915   4.490   1.502  0.8833  0.1951  0.3040
 2954TIP3    H130421   0.829   4.521   1.532  1.9523  2.6965  1.0553
 2954TIP3    H230422   0.900   4.462   1.412 -0.7448  0.5003  0.4426
 2955TIP3   OH230423   6.300   0.226   8.109  0.3985 -0.2908 -0.3818
 2955TIP3    H130424   6.356   0.206   8.034 -0.7339  2.5454 -2.1551
 2955TIP3    H230425   6.236   0.155   8.111  2.1323 -1.9228 -0.2467
 2956TIP3   OH230426   0.060   0.576   1.342  0.3509 -0.1551  0.2796
 2956TIP3    H130427   0.088   0.494   1.382  0.7120  0.0093  0.3662
 2956TIP3    H230428   0.136   0.634   1.350 -0.5656  0.8937  2.1508
 2957TIP3   OH230429   2.843   1.136   7.008 -0.5374  0.6263 -0.0012
 2957TIP3    H130430   2.937   1.143   7.027 -0.6304  0.6529  0.4636
 2957TIP3    H230431   2.837   1.073   6.937 -0.2993 -0.7839  1.1760
 2958TIP3   OH230432   2.632   1.177   1.125  0.6706  0.0138 -0.0553
 2958TIP3    H130433   2.668   1.115   1.061 -0.7785 -1.6158  0.6289
 2958TIP3    H230434   2.637   1.131   1.209  0.3409  1.1712  0.6279
 2959TIP3   OH230435   3.406   3.302   8.670  0.3895 -0.5923 -0.3754
 2959TIP3    H130436   3.398   3.386   8.714 -0.0986 -0.3463 -0.9164
 2959TIP3    H230437   3.343   3.245   8.715  0.7905 -0.6964  0.0535
 2960TIP3   OH230438   4.406   0.554   0.752  0.0792 -0.4151  0.1330
 2960TIP3    H130439   4.490   0.513   0.770  0.1926 -0.2778 -0.0865
 2960TIP3    H230440   4.425   0.624   0.690 -0.3054 -0.8832 -0.5398
 2961TIP3   OH230441   4.935   1.729   7.636  0.5733 -0.4572  0.1954
 2961TIP3    H130442   4.994   1.770   7.574  0.1150 -1.0479 -0.6550
 2961TIP3    H230443   4.849   1.731   7.593  0.4414 -1.8092  0.3449
 2962TIP3   OH230444   0.742   4.614   0.339  0.0833 -0.4881  0.6444
 2962TIP3    H130445   0.812   4.585   0.281 -0.2079  0.1569 -0.0405
 2962TIP3    H230446   0.786   4.673   0.401 -0.0048  0.7042 -0.3962
 2963TIP3   OH230447   1.801   4.683   7.889 -0.2051  1.0334 -0.1955
 2963TIP3    H130448   1.798   4.634   7.971  0.4872 -0.8109 -1.2151
 2963TIP3    H230449   1.724   4.739   7.891 -1.9881 -1.3154  0.3028
 2964TIP3   OH230450   3.412   1.105   2.061 -0.1234 -0.1725  0.0633
 2964TIP3    H130451   3.411   1.011   2.075  0.9557 -0.0671  0.9619
 2964TIP3    H230452   3.319   1.130   2.056 -0.4220 -1.1942  0.3541
 2965TIP3   OH230453   3.870   0.395   0.050 -0.0063 -0.2550 -0.4813
 2965TIP3    H130454   3.808   0.412  -0.021 -1.5072 -1.1267  0.5672
 2965TIP3    H230455   3.853   0.464   0.113  0.4944 -0.1699 -0.4395
 2966TIP3   OH230456   6.671   6.606   0.756 -0.1896 -0.3083 -0.5286
 2966TIP3    H130457   6.647   6.630   0.846  1.3200 -1.0672  0.0948
 2966TIP3    H230458   6.685   6.511   0.759 -1.2866 -0.5572 -1.8657
 2967TIP3   OH230459   4.361   4.477   6.597 -0.0846  0.9549 -0.4883
 2967TIP3    H130460   4.443   4.454   6.640  0.0140  1.9486 -0.1143
 2967TIP3    H230461   4.388   4.532   6.523 -0.4808  2.9340  0.7598
 2968TIP3   OH230462   2.641   4.766   0.614 -0.4375 -0.1629  0.3452
 2968TIP3    H130463   2.656   4.845   0.666 -1.8190  0.4153 -0.0882
 2968TIP3    H230464   2.621   4.698   0.678  1.2176 -0.3151  0.7551
 2969TIP3   OH230465   2.218   0.701   0.151 -0.1648  0.0692 -0.4229
 2969TIP3    H130466   2.227   0.702   0.246 -0.7921 -0.4573 -0.3529
 2969TIP3    H230467   2.134   0.743   0.134  0.8604  2.0285 -0.8799
 2970TIP3   OH230468   0.444   3.695   2.152 -0.5825 -0.9183 -0.5602
 2970TIP3    H130469   0.535   3.680   2.176 -0.3934 -0.9125 -1.2509
 2970TIP3    H230470   0.394   3.665   2.228  0.0246 -0.1522  0.1519
 2971TIP3   OH230471   4.328   1.458   1.838 -0.0511  0.1160 -0.2683
 2971TIP3    H130472   4.259   1.515   1.805  0.3491  2.1756  2.1833
 2971TIP3    H230473   4.409   1.493   1.802  0.0364  0.0112 -0.1776
 2972TIP3   OH230474   0.751   2.974   7.494 -0.2063  0.5992 -0.3479
 2972TIP3    H130475   0.722   2.889   7.527 -0.0835  0.2882 -1.0012
 2972TIP3    H230476   0.701   2.986   7.413  1.1561  0.2331 -1.2833
 2973TIP3   OH230477   2.309   1.368   7.909  0.4618 -0.0053  0.0828
 2973TIP3    H130478   2.315   1.388   7.815 -0.1906  1.6623  0.3447
 2973TIP3    H230479   2.216   1.350   7.923  0.5323 -0.0865  0.4387
 2974TIP3   OH230480   0.577   1.904   8.165  0.1055 -0.1631 -0.2274
 2974TIP3    H130481   0.640   1.875   8.231  1.0372  1.8607 -0.1371
 2974TIP3    H230482   0.492   1.876   8.199  0.7505 -1.0192  0.7480
 2975TIP3   OH230483   6.248   0.628   6.622 -0.0623  0.0445 -0.1828
 2975TIP3    H130484   6.200   0.559   6.576  0.7030  0.3481 -1.5050
 2975TIP3    H230485   6.244   0.703   6.563 -1.5711  1.4328  1.5830
 2976TIP3   OH230486   3.830   1.487   7.574 -0.0319  0.4106 -0.0319
 2976TIP3    H130487   3.814   1.510   7.666 -1.2320  1.8749 -0.5694
 2976TIP3    H230488   3.772   1.545   7.524  0.0263 -0.8866 -1.6972
 2977TIP3   OH230489   6.271   4.617   2.799  0.1489  0.3216  0.1434
 2977TIP3    H130490   6.198   4.654   2.749  0.6965  2.1576  0.5940
 2977TIP3    H230491   6.261   4.523   2.790 -0.3449  0.5528 -2.5757
 2978TIP3   OH230492   4.733   3.559   1.887 -0.2470 -0.2686  0.0370
 2978TIP3    H130493   4.796   3.532   1.820 -0.9991 -1.0127 -0.4025
 2978TIP3    H230494   4.707   3.477   1.929  1.6730  0.3490  2.6355
 2979TIP3   OH230495   1.120   5.185   1.986 -0.0241  0.0655 -0.3405
 2979TIP3    H130496   1.063   5.240   2.040 -0.3925 -0.0935 -0.5589
 2979TIP3    H230497   1.134   5.237   1.906 -1.5835 -0.7375 -1.1901
 2980TIP3   OH230498   5.998   4.916   8.684  0.0003 -0.3160  0.0929
 2980TIP3    H130499   5.940   4.856   8.636 -1.8594  1.5085 -0.0549
 2980TIP3    H230500   5.992   4.999   8.637 -0.6315  1.1000  2.4903
 2981TIP3   OH230501   4.934   5.596   1.944  0.6348  0.5130 -0.2442
 2981TIP3    H130502   4.970   5.512   1.973  1.3507  1.3283  1.4030
 2981TIP3    H230503   5.008   5.657   1.949  0.4140  1.0643 -2.4649
 2982TIP3   OH230504   4.028   3.366   0.782  0.0598 -0.1066  0.2696
 2982TIP3    H130505   3.971   3.401   0.850 -2.8733 -2.6000 -0.6606
 2982TIP3    H230506   4.079   3.298   0.825 -0.0541 -0.0787  0.4497
 2983TIP3   OH230507   6.751   0.956   8.627 -0.3595  0.3279 -0.0412
 2983TIP3    H130508   6.668   0.996   8.599 -0.6146 -0.1679 -0.0030
 2983TIP3    H230509   6.814   1.028   8.625 -0.3285  0.2872 -2.0178
 2984TIP3   OH230510   5.132   2.685   0.366  0.3463  0.0034 -0.0386
 2984TIP3    H130511   5.138   2.634   0.285  1.1429  1.2976 -0.8467
 2984TIP3    H230512   5.194   2.756   0.353  0.6125  0.1546  1.8040
 2985TIP3   OH230513   2.644   5.382   6.660 -0.5958  0.3096 -0.5230
 2985TIP3    H130514   2.650   5.288   6.645 -1.6618 -0.0342  0.9391
 2985TIP3    H230515   2.732   5.408   6.685 -0.2866 -0.3003 -0.9657
 2986TIP3   OH230516   3.136   0.686   1.553  0.6751  0.1166  0.4282
 2986TIP3    H130517   3.041   0.694   1.558  0.6647  0.3917 -0.0912
 2986TIP3    H230518   3.168   0.721   1.636  0.3437  0.4977  0.3965
 2987TIP3   OH230519   6.666   2.328   1.633 -0.3062  0.3450  0.3979
 2987TIP3    H130520   6.660   2.346   1.540  2.2464 -2.4943 -0.5188
 2987TIP3    H230521   6.656   2.413   1.676  1.2272  2.2195 -2.6456
 2988TIP3   OH230522   5.282   6.329   1.027  0.0103  0.2934  0.6918
 2988TIP3    H130523   5.374   6.347   1.045  0.0652 -0.1459  0.8512
 2988TIP3    H230524   5.259   6.389   0.956 -0.0068  1.5423  1.7162
 2989TIP3   OH230525   2.014   4.211   0.253 -0.2014  0.3734  0.3964
 2989TIP3    H130526   2.090   4.153   0.250 -1.5697 -1.5067 -0.6076
 2989TIP3    H230527   1.956   4.171   0.318 -1.5330  0.0918 -0.9087
 2990TIP3   OH230528   6.030   4.325   8.188 -0.0728  0.0459  0.1808
 2990TIP3    H130529   5.948   4.369   8.210 -0.1430  0.9681 -1.7414
 2990TIP3    H230530   6.022   4.304   8.095  2.4015  1.3984 -0.4252
 2991TIP3   OH230531   1.727   1.156   2.241 -0.2397  0.3037 -0.0620
 2991TIP3    H130532   1.672   1.184   2.168 -0.5713 -0.9925 -0.3246
 2991TIP3    H230533   1.664   1.131   2.309 -0.0156 -1.4788 -0.4702
 2992TIP3   OH230534   5.984   4.370   7.487 -0.6355  0.8336 -0.1473
 2992TIP3    H130535   5.972   4.407   7.400 -1.3466  0.1725 -0.3373
 2992TIP3    H230536   5.959   4.278   7.479 -1.9099  1.0380  1.0185
 2993TIP3   OH230537   5.129   6.012   0.154  0.4010  0.2321 -0.0825
 2993TIP3    H130538   5.038   6.039   0.164 -0.0752 -1.1268 -0.6414
 2993TIP3    H230539   5.163   6.068   0.083  0.0423  0.7795  0.1674
 2994TIP3   OH230540   3.833   5.398   0.077 -0.3013 -0.5592 -0.1625
 2994TIP3    H130541   3.784   5.454   0.137  0.3756 -0.2840  0.1495
 2994TIP3    H230542   3.874   5.459   0.016  1.2433 -0.6133  0.7752
 2995TIP3   OH230543   2.489   4.367   2.130 -0.5073  0.1847  0.1597
 2995TIP3    H130544   2.465   4.274   2.128  0.7887 -0.1733 -1.8503
 2995TIP3    H230545   2.409   4.412   2.157 -2.2191 -1.2558 -2.0907
 2996TIP3   OH230546   2.783   1.859   7.826  0.1050 -0.0675 -0.0039
 2996TIP3    H130547   2.724   1.916   7.776  1.1124  1.0342  0.0204
 2996TIP3    H230548   2.752   1.770   7.808 -0.0152  0.3356 -2.0149
 2997TIP3   OH230549   4.956   0.111   1.695  0.0113  0.3352  0.6223
 2997TIP3    H130550   4.870   0.097   1.736 -0.1232 -0.7659 -0.0100
 2997TIP3    H230551   4.936   0.158   1.614  0.0206  0.2369  0.5628
 2998TIP3   OH230552   6.089   5.982   0.288  0.3561  0.5546 -0.5523
 2998TIP3    H130553   6.024   6.051   0.270  0.0356  0.3065 -0.3579
 2998TIP3    H230554   6.165   6.030   0.321 -0.4505  0.7137  1.2270
 2999TIP3   OH230555   4.155   5.185   8.382  0.1494 -0.3410  0.1455
 2999TIP3    H130556   4.087   5.122   8.405 -0.9818  0.6772 -0.2582
 2999TIP3    H230557   4.117   5.235   8.308  0.9721  0.8170  0.4774
 3000TIP3   OH230558   5.719   6.341   1.213  0.0600  0.0851 -0.2208
 3000TIP3    H130559   5.647   6.351   1.276 -1.0633  1.9394 -1.6846
 3000TIP3    H230560   5.798   6.347   1.266 -0.5468 -5.6135  2.0411
 3001TIP3   OH230561   1.933   2.005   1.145 -0.6527  0.2209 -0.3352
 3001TIP3    H130562   1.885   2.056   1.210 -1.1182 -0.0198 -0.4903
 3001TIP3    H230563   1.866   1.953   1.100 -0.1137 -1.0883  0.3155
 3002TIP3   OH230564   3.255   2.212   7.027  0.0072 -0.1223 -0.0630
 3002TIP3    H130565   3.278   2.180   6.940 -1.9648  0.3616 -0.8227
 3002TIP3    H230566   3.276   2.305   7.025  0.6352 -0.2554  0.2384
 3003TIP3   OH230567   6.773   4.240   0.108  0.4491  0.6021 -0.3328
 3003TIP3    H130568   6.716   4.178   0.063 -2.5215  2.4216  0.6719
 3003TIP3    H230569   6.855   4.192   0.120 -0.4409 -1.8007 -2.7874
 3004TIP3   OH230570   2.190   1.564   8.873 -0.1052  0.0498  0.1893
 3004TIP3    H130571   2.245   1.486   8.870  1.0773  0.8878 -0.7627
 3004TIP3    H230572   2.241   1.631   8.829 -1.5523  1.0886  0.0261
 3005TIP3   OH230573   0.640   3.520   8.559 -0.2654 -0.1459  0.3897
 3005TIP3    H130574   0.655   3.614   8.551 -1.2047 -0.1220 -1.5978
 3005TIP3    H230575   0.654   3.486   8.471 -0.6166 -1.7808  0.9326
 3006TIP3   OH230576   2.382   6.010   1.412  0.3847  0.1648  1.2660
 3006TIP3    H130577   2.465   5.966   1.395 -0.9065 -1.2370 -2.3851
 3006TIP3    H230578   2.335   5.952   1.471  0.0727 -1.7923 -0.7685
 3007TIP3   OH230579   5.728   5.541   0.383 -0.1850  0.4327 -0.1425
 3007TIP3    H130580   5.783   5.468   0.411 -1.4946 -1.3098 -1.8451
 3007TIP3    H230581   5.785   5.594   0.328  0.9846  1.1488  1.6787
 3008TIP3   OH230582   3.519   1.132   1.524 -0.1344  0.3415  0.2376
 3008TIP3    H130583   3.572   1.205   1.558 -0.6754  0.9029 -0.1066
 3008TIP3    H230584   3.448   1.122   1.587 -2.1105  2.4826 -1.4381
 3009TIP3   OH230585   4.915   6.247   7.821 -0.2717 -0.3975 -0.1186
 3009TIP3    H130586   4.882   6.316   7.879  0.0652 -2.7983  3.2437
 3009TIP3    H230587   5.004   6.274   7.799 -0.9778  1.3754 -1.0136
 3010TIP3   OH230588   5.231   4.365   7.986  0.1056  0.5322 -0.0391
 3010TIP3    H130589   5.159   4.343   7.927 -0.0780 -0.5475  0.5724
 3010TIP3    H230590   5.296   4.297   7.973  0.1922  0.4397  0.7805
 3011TIP3   OH230591   4.641   4.502   8.617 -0.3646 -0.5906  0.1151
 3011TIP3    H130592   4.606   4.591   8.619 -0.3659 -0.5968  0.3924
 3011TIP3    H230593   4.614   4.467   8.532  1.5015  0.4306 -0.9516
 3012TIP3   OH230594   1.761   3.750   8.724 -0.0487 -0.2881  0.1931
 3012TIP3    H130595   1.717   3.746   8.639  0.6647  0.1117 -0.2068
 3012TIP3    H230596   1.749   3.663   8.762  0.1443 -0.6667 -0.5890
 3013TIP3   OH230597   2.163   4.210   8.131  0.0312 -0.3594  0.2364
 3013TIP3    H130598   2.207   4.139   8.085  0.7634 -0.6559  1.3604
 3013TIP3    H230599   2.082   4.171   8.164 -0.0791 -0.3728 -0.0388
 3014TIP3   OH230600   1.798   2.238   8.328 -0.1822  1.0416 -0.3045
 3014TIP3    H130601   1.760   2.282   8.405  2.1471  1.2562  0.8090
 3014TIP3    H230602   1.808   2.147   8.356  0.8630  1.1646 -0.2441
 3015TIP3   OH230603   3.669   1.180   0.759  0.0249  0.4769 -0.5412
 3015TIP3    H130604   3.763   1.194   0.771 -0.4787  3.3970  0.6911
 3015TIP3    H230605   3.658   1.171   0.664  1.2788  3.1861 -1.0446
 3016TIP3   OH230606   2.796   6.280   8.853 -0.0685 -0.4798 -0.5807
 3016TIP3    H130607   2.796   6.371   8.822  1.4452 -0.6662 -1.2204
 3016TIP3    H230608   2.772   6.286   8.945  0.9192  0.6721 -0.3776
 3017TIP3   OH230609   0.352   3.781   7.504  0.3579  0.2025 -0.0389
 3017TIP3    H130610   0.289   3.840   7.547  1.1257  0.9060  0.1312
 3017TIP3    H230611   0.302   3.742   7.431 -0.1267  1.1483 -0.2264
 3018TIP3   OH230612   5.959   0.200   6.767  0.6167  0.0052  0.7315
 3018TIP3    H130613   5.921   0.128   6.718  0.2520  0.0168  0.9909
 3018TIP3    H230614   5.908   0.277   6.742  1.0446  0.1887  0.4069
 3019TIP3   OH230615   1.644   6.018   1.354 -0.0812  0.0484  0.7065
 3019TIP3    H130616   1.640   6.069   1.273  1.4636  0.8516  1.1060
 3019TIP3    H230617   1.577   6.057   1.411 -1.7667 -1.0516 -0.4279
 3020TIP3   OH230618   2.514   3.700   1.230 -0.0205  0.1346 -0.2495
 3020TIP3    H130619   2.439   3.729   1.281 -0.4657  2.3366 -2.0171
 3020TIP3    H230620   2.544   3.621   1.275 -1.9181  0.5176  1.8716
 3021TIP3   OH230621   2.711   5.548   0.353 -0.2483 -0.0039  0.4848
 3021TIP3    H130622   2.732   5.632   0.395 -1.6446 -0.4818  2.2614
 3021TIP3    H230623   2.674   5.573   0.269 -0.8406  1.1911  1.0675
 3022TIP3   OH230624   2.530   1.037   6.695 -0.0454  0.4664 -0.0439
 3022TIP3    H130625   2.484   0.981   6.633  0.3552 -0.0474  0.1147
 3022TIP3    H230626   2.600   1.077   6.643  0.7415 -0.5183  0.2153
 3023TIP3   OH230627   2.305   0.959   7.722  0.0383 -0.1044  0.1210
 3023TIP3    H130628   2.397   0.979   7.742 -0.4014  0.4064  1.7685
 3023TIP3    H230629   2.301   0.863   7.722  0.5140 -0.1274  0.3376
 3024TIP3   OH230630   6.463   3.626   6.505 -0.1694  0.3338 -0.2419
 3024TIP3    H130631   6.488   3.546   6.459 -0.6120 -0.0234  0.1233
 3024TIP3    H230632   6.373   3.643   6.476 -0.5730 -0.0803  0.7183
 3025TIP3   OH230633   4.561   1.168   7.246 -0.0682  0.0591  0.2226
 3025TIP3    H130634   4.594   1.173   7.336  1.9029 -0.3582 -0.4131
 3025TIP3    H230635   4.640   1.154   7.193 -1.2298 -0.1311 -1.5325
 3026TIP3   OH230636   5.129   5.169   8.135  0.8318  0.0309  0.4814
 3026TIP3    H130637   5.172   5.123   8.063  0.3261 -0.6119  0.5785
 3026TIP3    H230638   5.145   5.115   8.212 -1.3340 -1.0078  0.2670
 3027TIP3   OH230639   4.326   0.856   8.678 -0.2629  0.3304 -0.5872
 3027TIP3    H130640   4.255   0.832   8.619  0.8794 -1.1064 -1.4317
 3027TIP3    H230641   4.353   0.943   8.648 -0.6494  0.2267 -1.2653
 3028TIP3   OH230642   1.314   1.934   1.519 -0.4574  0.1958 -0.0380
 3028TIP3    H130643   1.257   1.913   1.445 -0.5618  0.5866 -0.0719
 3028TIP3    H230644   1.286   2.022   1.546 -1.8018 -0.7202  1.7475
 3029TIP3   OH230645   4.334   1.676   1.361 -0.2256 -0.4812  0.0334
 3029TIP3    H130646   4.417   1.682   1.409  0.8955 -2.4830 -1.4985
 3029TIP3    H230647   4.314   1.766   1.338  2.2103 -0.0180 -0.5976
 3030TIP3   OH230648   1.205   0.957   0.252 -0.4310  0.3463 -0.4755
 3030TIP3    H130649   1.153   0.893   0.203 -1.5288 -0.1979  1.2969
 3030TIP3    H230650   1.150   1.036   0.254 -0.6672  0.1759  0.3234
 3031TIP3   OH230651   6.450   2.883   8.857  0.1527 -0.1046  0.0849
 3031TIP3    H130652   6.469   2.791   8.835  0.6532 -0.5066  2.0643
 3031TIP3    H230653   6.404   2.916   8.780 -0.7761 -2.2462 -0.3613
 3032TIP3   OH230654   6.142   4.919   1.619  0.2706 -0.1316  0.0649
 3032TIP3    H130655   6.141   4.992   1.681  0.7187 -0.0221 -0.0564
 3032TIP3    H230656   6.227   4.924   1.577  0.7708 -1.4214  0.8778
 3033TIP3   OH230657   2.524   2.839   8.220  0.2024 -0.0728 -0.0034
 3033TIP3    H130658   2.534   2.911   8.282  3.4446 -0.7520  0.4328
 3033TIP3    H230659   2.532   2.760   8.274 -0.1917 -0.7366 -0.8880
 3034TIP3   OH230660   3.394   2.696   7.717  0.3172  0.4933  0.1114
 3034TIP3    H130661   3.353   2.628   7.770  0.1297  0.5440  0.0304
 3034TIP3    H230662   3.421   2.763   7.779 -1.5029  1.4007 -0.0218
 3035TIP3   OH230663   1.058   6.433   8.321  0.7298 -0.4861  0.4884
 3035TIP3    H130664   1.003   6.359   8.348 -0.4809 -0.5115 -1.7917
 3035TIP3    H230665   1.148   6.402   8.331  0.2440 -2.4838 -0.8748
 3036TIP3   OH230666   1.262   2.203   6.991  0.0598  0.4756 -0.1415
 3036TIP3    H130667   1.218   2.281   6.956 -2.0706  0.2895  1.8587
 3036TIP3    H230668   1.213   2.130   6.954  2.3827 -0.0458 -2.4359
 3037TIP3   OH230669   5.179   5.138   8.455 -0.7074  0.1799 -0.1517
 3037TIP3    H130670   5.208   5.113   8.543  0.9860  0.0686 -0.7095
 3037TIP3    H230671   5.260   5.158   8.408 -1.6853  2.0991 -1.1328
 3038TIP3   OH230672   5.280   3.290   8.123 -0.2694  0.6836 -0.2583
 3038TIP3    H130673   5.205   3.300   8.182 -1.8618  1.0969 -2.2288
 3038TIP3    H230674   5.349   3.344   8.163 -0.9081  0.1326  1.7175
 3039TIP3   OH230675   0.937   3.261   1.268  0.0631  0.3557 -0.3094
 3039TIP3    H130676   0.877   3.318   1.219  0.2215 -0.2093 -1.1777
 3039TIP3    H230677   0.939   3.179   1.218  1.1826  0.1893 -0.0193
 3040TIP3   OH230678   2.494   6.129   0.126  0.2517  0.4546 -0.4906
 3040TIP3    H130679   2.456   6.117   0.038 -0.4802 -1.8028  0.0709
 3040TIP3    H230680   2.549   6.052   0.139  0.9785  1.1530  0.7589
 3041TIP3   OH230681   0.443   0.614   2.559 -0.2905  0.1643 -0.2110
 3041TIP3    H130682   0.413   0.582   2.474  0.5424 -0.9893 -0.0974
 3041TIP3    H230683   0.425   0.708   2.557 -4.3699 -0.4212  0.0439
 3042TIP3   OH230684   3.727   4.750   0.790 -0.0295 -0.6507  0.5115
 3042TIP3    H130685   3.786   4.695   0.842  0.3030  0.0968  0.9541
 3042TIP3    H230686   3.781   4.825   0.764 -0.3256 -0.7840 -0.5330
 3043TIP3   OH230687   2.209   5.604   8.330 -0.0944 -0.2260  0.5068
 3043TIP3    H130688   2.129   5.656   8.317 -0.3436 -0.1443  2.1867
 3043TIP3    H230689   2.177   5.516   8.349  0.2296 -0.2965  0.7270
 3044TIP3   OH230690   4.926   5.753   0.459 -0.7746 -0.2175 -0.0878
 3044TIP3    H130691   4.900   5.755   0.367 -0.9956 -0.4739 -0.0304
 3044TIP3    H230692   4.913   5.663   0.487  1.8829 -0.8273 -0.5370
 3045TIP3   OH230693   3.430   3.526   1.714  0.1601  0.1591  0.1724
 3045TIP3    H130694   3.365   3.537   1.783  0.6347  0.8355  0.5233
 3045TIP3    H230695   3.437   3.612   1.673  0.1722 -0.1405 -0.4566
 3046TIP3   OH230696   2.470   2.982   8.782 -0.1982  0.0368 -0.0562
 3046TIP3    H130697   2.498   2.922   8.850 -0.2777  0.4486  0.3448
 3046TIP3    H230698   2.379   2.959   8.764 -0.1318 -0.1673 -0.1274
 3047TIP3   OH230699   6.747   2.682   7.935  0.3184  0.4345 -0.3608
 3047TIP3    H130700   6.802   2.694   8.013 -1.2197  1.6925  0.5923
 3047TIP3    H230701   6.702   2.766   7.925 -0.6332 -0.2133 -1.7358
 3048TIP3   OH230702   4.598   2.823   1.648 -0.0772 -0.1410 -0.1584
 3048TIP3    H130703   4.526   2.788   1.701 -0.0524 -1.3469 -0.8811
 3048TIP3    H230704   4.631   2.747   1.600  1.3460  0.5043 -0.2283
 3049TIP3   OH230705   3.240   5.185   7.590  0.2427  0.6297 -0.5570
 3049TIP3    H130706   3.250   5.098   7.630  0.2822  0.4131 -1.0400
 3049TIP3    H230707   3.146   5.201   7.592  0.3041  0.9718  0.3605
 3050TIP3   OH230708   1.884   0.324   7.013  0.4998 -0.1859  0.2921
 3050TIP3    H130709   1.846   0.382   7.080  2.4442 -0.8678  2.1035
 3050TIP3    H230710   1.881   0.237   7.053  1.1811 -0.7075 -0.7486
 3051TIP3   OH230711   2.708   2.302   7.429 -0.8350  0.7402 -0.0208
 3051TIP3    H130712   2.661   2.221   7.412 -0.5062  0.1569  1.6687
 3051TIP3    H230713   2.695   2.354   7.350 -2.5473 -0.2286 -0.4304
 3052TIP3   OH230714   2.602   6.589   7.324 -0.1019 -0.1490  0.5093
 3052TIP3    H130715   2.691   6.612   7.353  0.3619  1.8430 -2.1019
 3052TIP3    H230716   2.615   6.521   7.258 -0.4704  0.3626 -0.1006
 3053TIP3   OH230717   6.245   0.103   2.236  0.0503  0.0646  0.1676
 3053TIP3    H130718   6.167   0.093   2.292 -0.5702 -1.1435 -0.8670
 3053TIP3    H230719   6.310   0.143   2.294 -1.2929  1.0033  1.0991
 3054TIP3   OH230720   6.087   3.600   0.921 -0.4640 -0.4005 -0.5510
 3054TIP3    H130721   6.015   3.659   0.947  1.6871  2.2605 -0.2100
 3054TIP3    H230722   6.117   3.634   0.837  0.6657 -1.2120 -0.4935
 3055TIP3   OH230723   4.211   2.105   0.428  0.0405  0.2904  0.2970
 3055TIP3    H130724   4.137   2.148   0.473 -1.4045 -0.5085 -1.2139
 3055TIP3    H230725   4.198   2.012   0.445  2.0594  0.2179  1.9139
 3056TIP3   OH230726   3.813   1.729   0.730 -0.5624 -0.3786 -0.3633
 3056TIP3    H130727   3.720   1.737   0.707 -0.3098  2.4779 -0.7193
 3056TIP3    H230728   3.831   1.807   0.782  2.2913  0.6489 -2.6718
 3057TIP3   OH230729   4.197   1.606   1.569  0.2313  0.4622  0.0416
 3057TIP3    H130730   4.216   1.638   1.481  2.1850 -1.5256 -0.3412
 3057TIP3    H230731   4.259   1.654   1.625  1.2272 -0.5440 -0.1559
 3058TIP3   OH230732   4.730   2.424   0.602 -0.5033 -0.0887  0.1844
 3058TIP3    H130733   4.766   2.508   0.572 -1.1344 -0.2651 -1.1366
 3058TIP3    H230734   4.779   2.358   0.552  0.0442 -0.5300  1.2710
 3059TIP3   OH230735   2.223   2.425   2.804 -0.2188 -0.7015 -0.0820
 3059TIP3    H130736   2.288   2.436   2.734  1.3020 -0.8967  1.2424
 3059TIP3    H230737   2.145   2.392   2.759 -0.0779  1.3201 -2.0216
 3060TIP3   OH230738   4.191   1.139   0.675  0.6438  0.1879 -0.2920
 3060TIP3    H130739   4.285   1.145   0.691  0.9179 -1.7105 -0.8955
 3060TIP3    H230740   4.169   1.048   0.695 -0.9257  0.4089 -0.8545
 3061TIP3   OH230741   2.837   0.598   8.131 -0.8431 -0.3480  0.2537
 3061TIP3    H130742   2.830   0.505   8.152 -1.0042 -0.3080  0.3744
 3061TIP3    H230743   2.747   0.631   8.137 -0.5615  0.2025  1.9381
 3062TIP3   OH230744   3.198   5.869   1.687 -0.0841  0.1630 -0.6707
 3062TIP3    H130745   3.149   5.812   1.746  0.8590  0.4807  0.4636
 3062TIP3    H230746   3.133   5.905   1.627 -1.0099 -0.4455 -0.0451
 3063TIP3   OH230747   3.123   1.982   8.128  0.4193  0.0453  0.1834
 3063TIP3    H130748   3.113   1.971   8.033 -1.8689  1.6509  0.1547
 3063TIP3    H230749   3.052   1.929   8.165  0.1095  0.9356  0.8825
 3064TIP3   OH230750   3.572   5.127   8.668  0.3366  0.0413 -0.0594
 3064TIP3    H130751   3.667   5.137   8.669  0.4246 -0.6277 -0.7694
 3064TIP3    H230752   3.558   5.034   8.689 -0.1986  0.3117  0.8468
 3065TIP3   OH230753   5.301   0.622   8.657 -0.1982  0.0390  0.4295
 3065TIP3    H130754   5.387   0.613   8.697 -0.0284 -1.6140 -0.2492
 3065TIP3    H230755   5.296   0.551   8.594 -1.9276  0.3183  0.2033
 3066TIP3   OH230756   4.108   5.647   7.832 -0.0779  0.9991 -0.2877
 3066TIP3    H130757   4.068   5.728   7.865 -0.4780  0.3924  0.7538
 3066TIP3    H230758   4.113   5.661   7.737 -0.9339  1.9030 -0.2256
 3067TIP3   OH230759   1.954   2.436   0.555 -0.3135 -0.1681  0.6827
 3067TIP3    H130760   1.906   2.355   0.537 -2.2148  1.0768 -0.1260
 3067TIP3    H230761   2.027   2.408   0.611 -0.8375 -2.4372  0.3449
 3068TIP3   OH230762   2.112   2.976   8.219  0.0784  0.1924 -0.4181
 3068TIP3    H130763   2.192   2.976   8.166 -0.8209  0.1371 -1.8479
 3068TIP3    H230764   2.089   2.884   8.226  0.5946  0.1368  0.7532
 3069TIP3   OH230765   5.354   5.213   1.671  0.0457  0.4067 -0.3706
 3069TIP3    H130766   5.259   5.207   1.662 -0.1104  1.4974  0.3702
 3069TIP3    H230767   5.383   5.122   1.674 -1.0822  0.0493  0.4385
 3070TIP3   OH230768   4.277   3.164   0.427  0.2366  0.1056  0.0960
 3070TIP3    H130769   4.282   3.218   0.348  0.4376 -0.1905 -0.0963
 3070TIP3    H230770   4.223   3.215   0.488 -1.4200 -0.4253 -0.8494
 3071TIP3   OH230771   0.038   0.746   8.097 -0.2291 -0.2929  0.0412
 3071TIP3    H130772   0.087   0.705   8.169  1.3847  1.2184 -0.1204
 3071TIP3    H230773  -0.045   0.700   8.095  0.8209 -2.3521  0.9647
 3072TIP3   OH230774   5.574   1.407   0.623 -0.0528 -0.1270  0.4651
 3072TIP3    H130775   5.530   1.486   0.655  0.1437 -0.6865  2.2369
 3072TIP3    H230776   5.508   1.338   0.630 -0.1640 -0.1960 -0.8858
 3073TIP3   OH230777   3.828   6.571   7.287 -0.5542  0.2349 -0.1211
 3073TIP3    H130778   3.910   6.620   7.296 -0.4620  0.1536 -0.4815
 3073TIP3    H230779   3.765   6.619   7.341  0.3423 -1.1854  2.3192
 3074TIP3   OH230780   0.797   3.091   0.346  0.7189  0.4332  0.2936
 3074TIP3    H130781   0.740   3.135   0.408 -1.1422 -0.7695 -0.4594
 3074TIP3    H230782   0.801   3.150   0.270  1.2247  0.9200  0.6936
 3075TIP3   OH230783   1.976   4.675   7.258  0.3029 -0.7534  0.4902
 3075TIP3    H130784   2.012   4.759   7.287  2.1733 -0.6598 -1.7664
 3075TIP3    H230785   1.954   4.629   7.338 -0.1099  1.5884  1.8257
 3076TIP3   OH230786   1.566   6.536   2.254 -0.0389  0.1865  0.0809
 3076TIP3    H130787   1.531   6.556   2.341 -0.7365 -0.7656  0.0290
 3076TIP3    H230788   1.587   6.443   2.257 -0.8770 -0.0664 -1.0226
 3077TIP3   OH230789   6.192   6.333   8.078 -0.2084  0.1223 -0.4550
 3077TIP3    H130790   6.119   6.272   8.078 -0.9038  0.9449 -0.0624
 3077TIP3    H230791   6.264   6.283   8.117 -1.4571  0.3283  2.3602
 3078TIP3   OH230792   6.581   4.314   1.332  0.3310  0.2951 -0.1399
 3078TIP3    H130793   6.610   4.303   1.241 -0.4466 -0.6246 -0.2899
 3078TIP3    H230794   6.652   4.277   1.384  0.1569 -0.4871 -0.4419
 3079TIP3   OH230795   5.878   1.801   0.878  0.3687  0.0750  0.0352
 3079TIP3    H130796   5.930   1.821   0.801 -0.1116 -0.1999 -0.3649
 3079TIP3    H230797   5.802   1.755   0.845 -0.1083  0.4181  0.6203
 3080TIP3   OH230798   4.413   5.918   0.653 -0.5798  0.1566 -0.2538
 3080TIP3    H130799   4.338   5.974   0.632 -0.3303  1.7330  2.5422
 3080TIP3    H230800   4.374   5.832   0.669 -1.7077  0.7673  0.4150
 3081TIP3   OH230801   0.772   4.386   7.999  0.1088 -0.0421 -0.2063
 3081TIP3    H130802   0.796   4.433   8.079 -1.0204  0.3800 -0.1002
 3081TIP3    H230803   0.733   4.453   7.943  0.6441 -0.3904 -1.0134
 3082TIP3   OH230804   1.450   3.513   8.612 -0.1966 -0.0970  0.3513
 3082TIP3    H130805   1.416   3.601   8.598 -0.6630 -0.1684  0.9624
 3082TIP3    H230806   1.437   3.498   8.706  1.6092 -0.1018  0.6272
 3083TIP3   OH230807   0.403   1.262   6.738 -0.4129  0.1569 -0.5684
 3083TIP3    H130808   0.340   1.207   6.785  0.2298  0.2675  0.4482
 3083TIP3    H230809   0.385   1.244   6.646 -0.7481 -1.1574 -0.2749
 3084TIP3   OH230810   5.829   2.572   2.329  0.0273  0.2332 -0.0256
 3084TIP3    H130811   5.816   2.572   2.424  1.3268 -1.1318  0.1756
 3084TIP3    H230812   5.908   2.623   2.315 -0.4818  0.9334 -0.4568
 3085TIP3   OH230813   2.020   3.955   1.266 -0.0987 -0.0628 -0.1760
 3085TIP3    H130814   2.044   3.959   1.174  0.8449  2.0086  0.0960
 3085TIP3    H230815   2.092   3.999   1.312  0.0077 -2.0032  1.7011
 3086TIP3   OH230816   3.092   4.076   7.556 -0.3490 -0.3721 -0.3770
 3086TIP3    H130817   3.156   4.116   7.498 -1.6309  2.5202  0.0088
 3086TIP3    H230818   3.029   4.034   7.497  0.9471 -1.8056 -0.8043
 3087TIP3   OH230819   5.202   4.871   1.390 -0.2424 -0.4453  0.2952
 3087TIP3    H130820   5.229   4.947   1.338  1.2472 -0.6353  0.7357
 3087TIP3    H230821   5.273   4.808   1.377 -0.9251 -1.3323  0.8248
 3088TIP3   OH230822   4.105   4.748   0.728 -0.1321 -0.0208 -0.2034
 3088TIP3    H130823   4.188   4.786   0.698 -1.0659  0.4359 -2.4731
 3088TIP3    H230824   4.044   4.764   0.655 -2.1470 -0.5905  1.2642
 3089TIP3   OH230825   0.120   5.198   7.865 -0.6772  0.1432  0.0250
 3089TIP3    H130826   0.097   5.268   7.927 -0.8499 -0.4237  0.6079
 3089TIP3    H230827   0.044   5.140   7.864 -1.2054  0.7965 -1.6822
 3090TIP3   OH230828   3.530   1.732   0.628  0.3148 -0.2930 -0.1646
 3090TIP3    H130829   3.490   1.653   0.591 -0.4843 -1.1328  2.2203
 3090TIP3    H230830   3.477   1.750   0.706  2.2401  0.9146  0.9340
 3091TIP3   OH230831   5.917   4.965   7.609  0.9758 -0.7673 -0.8557
 3091TIP3    H130832   5.869   4.906   7.551  3.0312 -2.0055 -1.3875
 3091TIP3    H230833   5.898   4.934   7.697  1.9333 -2.1941 -1.1267
 3092TIP3   OH230834   3.566   1.777   1.074 -0.2144 -0.1613 -0.4182
 3092TIP3    H130835   3.645   1.830   1.083 -0.6098  0.9988 -2.8156
 3092TIP3    H230836   3.597   1.691   1.049  0.4028 -0.9564  2.7046
 3093TIP3   OH230837   3.657   2.948   6.761  0.1713  0.4714  0.3770
 3093TIP3    H130838   3.683   2.877   6.821  1.1562  0.1955 -0.3529
 3093TIP3    H230839   3.573   2.919   6.726  0.4271 -0.2182  0.3008
 3094TIP3   OH230840   2.072   1.393   0.252 -0.3969  0.5336 -0.2492
 3094TIP3    H130841   2.126   1.437   0.186 -1.8076  1.6144 -0.7231
 3094TIP3    H230842   2.127   1.392   0.331  1.9603 -2.1268 -1.7001
 3095TIP3   OH230843   4.878   2.905   0.210 -0.0626 -0.4162 -0.3675
 3095TIP3    H130844   4.795   2.952   0.212 -1.6455 -2.8533 -2.2291
 3095TIP3    H230845   4.853   2.812   0.215  2.7472 -1.2207  1.4399
 3096TIP3   OH230846   5.046   2.487   8.645  0.0728  0.1510 -0.0553
 3096TIP3    H130847   5.140   2.474   8.630  0.5159  1.3728  1.4086
 3096TIP3    H230848   5.032   2.460   8.736 -0.9221  0.4217 -0.1146
 3097TIP3   OH230849   5.864   6.471   0.247  0.1377  0.5502  0.3911
 3097TIP3    H130850   5.828   6.442   0.331  0.5910  0.3110  0.5088
 3097TIP3    H230851   5.812   6.425   0.181  0.1896  0.2505  0.5557
 3098TIP3   OH230852   3.757   3.200   0.166 -0.1085  0.2550 -0.1294
 3098TIP3    H130853   3.850   3.190   0.185 -0.2814 -2.6995 -0.4702
 3098TIP3    H230854   3.729   3.115   0.134 -2.6182  1.4932 -1.5679
 3099TIP3   OH230855   6.659   5.222   7.209 -0.2581  0.4506 -0.3125
 3099TIP3    H130856   6.731   5.203   7.269  0.5831 -1.6270 -1.8752
 3099TIP3    H230857   6.693   5.292   7.153  0.7377 -0.7563 -1.2706
 3100TIP3   OH230858   6.293   5.214   0.601  0.0856 -0.0046 -0.0893
 3100TIP3    H130859   6.206   5.217   0.560 -0.0659 -1.3700  0.0951
 3100TIP3    H230860   6.354   5.217   0.528 -0.1524 -0.5670 -0.3165
 3101TIP3   OH230861   4.897   1.791   0.724  0.1249  0.1173 -0.8850
 3101TIP3    H130862   4.850   1.815   0.644 -1.3901  0.5092  0.0611
 3101TIP3    H230863   4.956   1.865   0.741 -1.2076  1.1276 -0.4489
 3102TIP3   OH230864   3.547   2.410   0.782 -0.0276 -0.2940  0.3681
 3102TIP3    H130865   3.570   2.462   0.705  0.9209 -0.0664  0.7799
 3102TIP3    H230866   3.465   2.447   0.813 -0.2551 -0.1850 -0.3536
 3103TIP3   OH230867   3.958   4.577   7.811  0.1377  0.7650 -0.4471
 3103TIP3    H130868   3.991   4.594   7.723 -0.0675  0.3300 -0.6127
 3103TIP3    H230869   3.871   4.616   7.813  1.3227  3.5657  0.5907
 3104TIP3   OH230870   5.413   0.467   1.185 -0.1985  0.5080  0.2363
 3104TIP3    H130871   5.501   0.490   1.214 -0.3487  0.3280  0.8494
 3104TIP3    H230872   5.404   0.511   1.100  0.2174  1.1197  0.4950
 3105TIP3   OH230873   2.564   4.083   8.606 -0.2080 -0.1732  0.5520
 3105TIP3    H130874   2.489   4.132   8.574 -0.7175  0.4434  2.5189
 3105TIP3    H230875   2.571   4.008   8.547 -0.8465  1.0234 -1.1102
 3106TIP3   OH230876   6.048   5.423   0.925  0.1494  0.4656 -0.5445
 3106TIP3    H130877   6.087   5.437   0.839 -1.4860  0.9092 -1.2563
 3106TIP3    H230878   6.120   5.390   0.979  0.8953 -1.1446 -2.4249
 3107TIP3   OH230879   3.337   6.760   8.740 -0.6027  0.0159 -0.3125
 3107TIP3    H130880   3.265   6.740   8.799 -0.1952  0.0517  0.2006
 3107TIP3    H230881   3.406   6.698   8.763  0.6168  1.8308  1.1888
 3108TIP3   OH230882   1.172   6.556   0.148 -0.4004 -0.5588  0.0152
 3108TIP3    H130883   1.150   6.557   0.241  1.6389 -0.4263  0.5388
 3108TIP3    H230884   1.089   6.541   0.103 -1.2997 -1.3952  1.8906
 3109TIP3   OH230885   6.409   1.330   2.682  0.3784  0.0531 -0.3685
 3109TIP3    H130886   6.495   1.341   2.642  0.0494  0.3630 -1.0179
 3109TIP3    H230887   6.426   1.289   2.766  0.9512 -2.4846 -1.6364
 3110TIP3   OH230888   2.817   0.067   8.623  0.3758 -0.2287 -0.5940
 3110TIP3    H130889   2.801  -0.023   8.594  0.7927 -0.6446  0.4561
 3110TIP3    H230890   2.753   0.119   8.574  0.1631 -1.0844 -1.2467
 3111TIP3   OH230891   0.755   5.935   7.452  0.0296  0.0531  0.1836
 3111TIP3    H130892   0.730   5.979   7.533 -2.2998 -1.3668  0.3571
 3111TIP3    H230893   0.838   5.892   7.472 -0.4950 -0.2534  1.8587
 3112TIP3   OH230894   5.127   4.951   1.005 -0.7836 -0.1187  0.2517
 3112TIP3    H130895   5.171   5.025   1.046  0.1804 -1.4937  1.7870
 3112TIP3    H230896   5.194   4.884   0.996 -1.3622 -0.4678 -2.1469
 3113TIP3   OH230897   4.864   5.160   0.237  0.7022  0.4236 -0.0342
 3113TIP3    H130898   4.913   5.176   0.317  0.8821 -1.3940  0.2609
 3113TIP3    H230899   4.884   5.235   0.181  1.1125  1.3812  1.3433
 3114TIP3   OH230900   5.953   6.406   1.310 -0.0846  0.1754 -0.1399
 3114TIP3    H130901   5.935   6.435   1.399  1.5535 -1.2285  0.7223
 3114TIP3    H230902   5.977   6.486   1.263  0.1091  0.8014  0.9799
 3115TIP3   OH230903   2.362   4.286   7.292  0.4417 -0.2388 -0.6718
 3115TIP3    H130904   2.296   4.230   7.253 -0.4174  0.9135 -0.9266
 3115TIP3    H230905   2.438   4.278   7.234 -0.5190  0.7732 -2.1418
 3116TIP3   OH230906   6.095   6.312   6.503 -0.6239 -0.1679  0.0984
 3116TIP3    H130907   6.047   6.395   6.498 -0.5867 -0.1150  0.5527
 3116TIP3    H230908   6.058   6.268   6.580  1.2281  0.6199  1.5020
 3117TIP3   OH230909   5.084   4.793   0.357  0.0254 -0.1014 -0.3994
 3117TIP3    H130910   5.006   4.795   0.301  0.2807  0.6194 -0.7378
 3117TIP3    H230911   5.154   4.824   0.300  0.4265 -0.0730  0.1121
 3118TIP3   OH230912   4.211   4.212   6.706 -0.1276  0.0085  0.0879
 3118TIP3    H130913   4.183   4.299   6.736  0.4186 -0.4088  1.9414
 3118TIP3    H230914   4.161   4.197   6.625 -1.4517  1.3625  0.6087
 3119TIP3   OH230915   3.262   6.741   2.349 -0.0843  0.5292  0.4279
 3119TIP3    H130916   3.201   6.744   2.275  1.6679  1.5507 -1.0351
 3119TIP3    H230917   3.263   6.831   2.383 -0.6201  0.1440  1.5290
 3120TIP3   OH230918   2.072   1.690   1.614  0.6797  0.1334  0.0641
 3120TIP3    H130919   2.135   1.738   1.667  0.4165  0.6733 -0.1038
 3120TIP3    H230920   2.060   1.744   1.536 -0.3986  0.3145  0.3379
 3121TIP3   OH230921   3.046   3.275   1.952 -0.0044 -0.4384 -0.2935
 3121TIP3    H130922   3.041   3.351   2.010 -3.3823  0.9582 -2.1087
 3121TIP3    H230923   3.005   3.204   2.001 -1.2125  0.2465 -0.2881
 3122TIP3   OH230924   1.248   6.129   8.133 -0.0515 -0.4037  0.2128
 3122TIP3    H130925   1.322   6.181   8.101  0.4418 -0.6815  0.8897
 3122TIP3    H230926   1.288   6.058   8.184 -0.8123  0.4479  2.1039
 3123TIP3   OH230927   3.200   2.849   8.424 -0.3079 -0.0538 -0.9114
 3123TIP3    H130928   3.125   2.810   8.378 -1.5807  2.1831 -0.9008
 3123TIP3    H230929   3.173   2.939   8.441  2.1344  0.6330 -0.2428
 3124TIP3   OH230930   4.221   3.883   0.410 -0.1913 -0.5845 -0.4650
 3124TIP3    H130931   4.299   3.878   0.464 -0.2258 -0.0651 -0.3593
 3124TIP3    H230932   4.246   3.843   0.327  0.7142  1.0335 -1.0188
 3125TIP3   OH230933   3.332   4.396   7.867 -0.9692  0.1993  0.4802
 3125TIP3    H130934   3.305   4.305   7.876 -0.8498  0.2854  1.9268
 3125TIP3    H230935   3.427   4.392   7.857 -1.1051  0.1016 -0.9928
 3126TIP3   OH230936   1.861   3.370   8.096  0.5984  0.2343 -0.3587
 3126TIP3    H130937   1.887   3.310   8.167  0.8362  1.4064  0.5917
 3126TIP3    H230938   1.776   3.337   8.067  0.3947 -0.1471  0.6227
 3127TIP3   OH230939   2.848   1.150   0.585 -0.2395  0.1607  0.2449
 3127TIP3    H130940   2.777   1.120   0.529  2.0263 -2.3982 -1.4978
 3127TIP3    H230941   2.861   1.079   0.648  0.9631  0.4403  0.3430
 3128TIP3   OH230942   5.833   0.432   6.684  0.4206  0.3233  0.7954
 3128TIP3    H130943   5.756   0.440   6.627  1.1781  0.1551 -0.2834
 3128TIP3    H230944   5.803   0.464   6.769 -1.1212 -0.6596  0.6698
 3129TIP3   OH230945   0.213   2.125   1.515 -0.2934 -0.1796  0.1880
 3129TIP3    H130946   0.287   2.081   1.557 -0.9324  0.3765  1.9961
 3129TIP3    H230947   0.218   2.215   1.545 -1.1446  0.1050 -0.4681
 3130TIP3   OH230948   0.495   4.327   7.414  0.2508 -0.1167 -0.2750
 3130TIP3    H130949   0.449   4.370   7.486  0.2343  0.7409 -0.7803
 3130TIP3    H230950   0.587   4.330   7.440 -0.0421 -3.4385  1.5786
 3131TIP3   OH230951   1.214   0.041   0.019 -0.0390 -0.2233  0.2430
 3131TIP3    H130952   1.254   0.040   0.105  0.6335 -4.4212  0.0892
 3131TIP3    H230953   1.134  -0.010   0.029 -1.1734  1.1878 -1.1788
 3132TIP3   OH230954   3.013   0.393   0.419  0.1582  0.2228 -0.0265
 3132TIP3    H130955   3.076   0.334   0.376  0.4828 -0.4237  1.2712
 3132TIP3    H230956   2.955   0.334   0.467 -2.4387  0.7016 -2.3482
 3133TIP3   OH230957   1.698   4.754   1.884 -0.7926 -1.0675 -0.3317
 3133TIP3    H130958   1.685   4.848   1.887 -0.0051 -0.9272 -1.0042
 3133TIP3    H230959   1.642   4.719   1.953 -0.3760 -0.0320  0.5391
 3134TIP3   OH230960   4.881   3.242   8.539 -0.0401  0.6603  0.1669
 3134TIP3    H130961   4.808   3.218   8.596  0.4716 -1.0674  0.1377
 3134TIP3    H230962   4.882   3.338   8.542 -2.1169  0.7328  0.3806
 3135TIP3   OH230963   5.504   0.579   8.038  0.7281 -0.0048  0.1982
 3135TIP3    H130964   5.504   0.649   7.972  0.9251  0.6723  0.9101
 3135TIP3    H230965   5.499   0.498   7.986  1.7777  0.4729 -0.7010
 3136TIP3   OH230966   0.575   3.900   7.034  0.1472  0.6977  0.7602
 3136TIP3    H130967   0.509   3.883   7.102 -0.8422  1.9623  0.1620
 3136TIP3    H230968   0.657   3.907   7.082 -0.3678  0.5116  1.6987
 3137TIP3   OH230969   1.752   1.890   8.709  0.3203  0.0873  0.4767
 3137TIP3    H130970   1.682   1.874   8.772 -0.0912 -1.8710 -0.4119
 3137TIP3    H230971   1.822   1.829   8.734  0.6166  0.1154 -0.2528
 3138TIP3   OH230972   6.317   2.568   0.389 -0.1114 -0.4670  0.0481
 3138TIP3    H130973   6.349   2.533   0.306  0.2544 -0.4629  0.1849
 3138TIP3    H230974   6.386   2.545   0.452 -0.3767 -0.4485  0.3438
 3139TIP3   OH230975   2.246   4.950   0.281 -0.3302  0.3710  0.6997
 3139TIP3    H130976   2.254   5.032   0.233 -1.3863  0.7456  1.1177
 3139TIP3    H230977   2.278   4.971   0.369 -1.4090  0.5999  1.0567
 3140TIP3   OH230978   3.177   1.494   8.873 -0.3034  0.5723 -0.0642
 3140TIP3    H130979   3.138   1.503   8.960  0.4921  1.0880  0.2499
 3140TIP3    H230980   3.111   1.447   8.822  0.4617 -2.6864  1.6746
 3141TIP3   OH230981   4.837   3.292   7.459  0.1683 -0.2414 -0.8610
 3141TIP3    H130982   4.893   3.215   7.450 -0.5820 -0.7259 -1.6537
 3141TIP3    H230983   4.795   3.282   7.544  1.3898  0.2118 -0.1932
 3142TIP3   OH230984   1.806   3.349   8.651 -0.0262  0.2958 -0.0464
 3142TIP3    H130985   1.877   3.325   8.711 -0.2238 -0.3930 -0.0757
 3142TIP3    H230986   1.739   3.388   8.707 -0.6171 -1.2133  0.3515
 3143TIP3   OH230987   1.076   5.282   1.472 -0.1966  0.0044  0.2143
 3143TIP3    H130988   0.992   5.241   1.492 -1.3377  0.6731 -2.6986
 3143TIP3    H230989   1.108   5.235   1.394  2.0871 -0.1034  1.1351
 3144TIP3   OH230990   5.248   3.741   8.652  0.4857 -0.6295 -0.0251
 3144TIP3    H130991   5.221   3.782   8.570  3.3172  1.5925  0.0057
 3144TIP3    H230992   5.210   3.797   8.721  0.4114 -0.8651  0.1260
 3145TIP3   OH230993   5.119   6.301   1.693  0.1725 -0.3842 -0.1156
 3145TIP3    H130994   5.086   6.259   1.773 -0.4537  0.1607 -0.0812
 3145TIP3    H230995   5.084   6.390   1.697  1.4017  0.1249 -0.2336
 3146TIP3   OH230996   3.723   3.601   1.808 -0.2886  0.7260 -0.2098
 3146TIP3    H130997   3.630   3.588   1.792 -0.3791  1.6946 -0.5410
 3146TIP3    H230998   3.727   3.678   1.865  0.2928  0.4851  0.0840
 3147TIP3   OH230999   5.901   1.995   2.806  0.2618 -0.6152  0.1459
 3147TIP3    H131000   5.873   2.013   2.716  1.1825 -0.5935 -0.1496
 3147TIP3    H231001   5.819   1.988   2.856 -0.2331  0.7024 -0.4306
 3148TIP3   OH231002   6.523   4.629   1.659  0.1530  0.2318 -0.0792
 3148TIP3    H131003   6.588   4.594   1.719 -1.1570 -1.8453  0.2126
 3148TIP3    H231004   6.525   4.724   1.674  2.4938  0.1640  0.4680
 3149TIP3   OH231005   3.958   5.513   7.033 -0.0909  0.3349  0.4670
 3149TIP3    H131006   4.037   5.515   7.087  0.9947  2.6910 -1.0370
 3149TIP3    H231007   3.925   5.603   7.036 -1.1294  0.0505 -1.1337
 3150TIP3   OH231008   6.726   3.322   0.467  0.2966 -0.3194 -0.1763
 3150TIP3    H131009   6.672   3.280   0.400 -0.6033  0.4797  0.0289
 3150TIP3    H231010   6.686   3.294   0.550 -0.4917  1.1100 -0.0375
 3151TIP3   OH231011   3.143   5.862   0.220  0.3624 -0.6946 -0.3222
 3151TIP3    H131012   3.178   5.807   0.289  1.3952 -0.0989 -0.3519
 3151TIP3    H231013   3.219   5.890   0.170 -0.2487 -0.1460 -0.9815
 3152TIP3   OH231014   5.455   3.680   7.122  0.3712  0.0210  0.6004
 3152TIP3    H131015   5.475   3.646   7.209  1.0960  1.2086  0.9241
 3152TIP3    H231016   5.418   3.606   7.075  1.4216 -1.0663  1.4248
 3153TIP3   OH231017   0.544   3.219   2.363  0.1003  0.1143  0.0102
 3153TIP3    H131018   0.620   3.269   2.334  0.3835  1.0516  2.1712
 3153TIP3    H231019   0.487   3.215   2.286  2.9769 -2.1033 -2.2699
 3154TIP3   OH231020   4.522   0.485   7.139  0.8269 -0.0724 -0.0889
 3154TIP3    H131021   4.453   0.478   7.205  0.8279 -0.3266 -0.1173
 3154TIP3    H231022   4.580   0.553   7.173  0.9151 -0.3190  0.2501
 3155TIP3   OH231023   1.849   1.719   8.244  0.0042 -0.0916 -0.0745
 3155TIP3    H131024   1.848   1.799   8.296  1.0188 -0.0809 -0.0573
 3155TIP3    H231025   1.938   1.685   8.254 -0.6169 -1.6313  0.5414
 3156TIP3   OH231026   1.361   6.561   8.798 -0.0284  0.5374  0.0383
 3156TIP3    H131027   1.305   6.554   8.875 -0.3011  0.4106 -0.1720
 3156TIP3    H231028   1.301   6.574   8.725  0.2221  0.5331 -0.1698
 3157TIP3   OH231029   5.834   3.452   8.332 -0.0141 -0.3503 -0.5465
 3157TIP3    H131030   5.849   3.543   8.309 -0.7464 -0.4536 -1.4640
 3157TIP3    H231031   5.777   3.455   8.409 -0.4285 -0.0473 -0.8665
 3158TIP3   OH231032   0.318   1.499   8.505 -0.2666  0.4855 -0.4700
 3158TIP3    H131033   0.290   1.416   8.542  0.6542  0.6098  0.5573
 3158TIP3    H231034   0.359   1.476   8.422 -0.0803 -0.0912 -0.2236
 3159TIP3   OH231035   2.446   2.318   8.874 -0.1195  0.1217  0.3295
 3159TIP3    H131036   2.523   2.306   8.819 -1.2906  1.8064 -1.8579
 3159TIP3    H231037   2.462   2.401   8.919 -0.3811  0.1784  0.3205
 3160TIP3   OH231038   1.816   2.107   7.392 -0.2226 -0.7453  0.1833
 3160TIP3    H131039   1.833   2.165   7.318 -0.8986  0.0811  0.6503
 3160TIP3    H231040   1.723   2.085   7.384  0.1687 -2.3168 -0.3537
 3161TIP3   OH231041   4.647   5.006   0.327 -0.2914 -0.0406 -0.5530
 3161TIP3    H131042   4.705   5.053   0.266 -0.1777  1.2495  0.5139
 3161TIP3    H231043   4.693   4.924   0.344  1.4911  1.1307  0.5985
 3162TIP3   OH231044   0.801   1.376   8.457  0.4287  0.1604 -0.2152
 3162TIP3    H131045   0.755   1.428   8.391  2.6209  2.5836  0.0234
 3162TIP3    H231046   0.833   1.440   8.520  2.1840 -1.6161  0.8063
 3163TIP3   OH231047   3.163   5.562   1.237 -0.2659  0.3076  1.1511
 3163TIP3    H131048   3.234   5.626   1.246 -0.0040  0.2876 -0.4267
 3163TIP3    H231049   3.094   5.608   1.190 -0.1328 -0.4899  0.1166
 3164TIP3   OH231050   2.021   0.833   8.098  0.3851  0.7168 -0.2957
 3164TIP3    H131051   1.944   0.849   8.153  0.8866 -0.0481  0.6684
 3164TIP3    H231052   2.000   0.753   8.050  0.3471  0.8362 -0.4796
 3165TIP3   OH231053   1.054   0.709   1.781  0.1534  0.6054  0.3854
 3165TIP3    H131054   1.052   0.646   1.853  0.5816  0.6867  0.4698
 3165TIP3    H231055   0.963   0.735   1.770  0.2550  1.6730  1.8402
 3166TIP3   OH231056   6.226   6.308   7.496 -0.2425  0.6406  0.2103
 3166TIP3    H131057   6.294   6.249   7.465  1.5550  2.5691  0.2609
 3166TIP3    H231058   6.267   6.355   7.569 -2.8106 -0.5254  2.5648
 3167TIP3   OH231059   0.938   5.415   0.032 -0.6229  0.5320  0.1565
 3167TIP3    H131060   0.923   5.386  -0.058  0.0784  1.4533 -0.2682
 3167TIP3    H231061   0.888   5.496   0.040 -0.4981  0.5755  0.5251
 3168TIP3   OH231062   4.614   3.685   8.342  0.0174 -0.3484 -0.5249
 3168TIP3    H131063   4.557   3.706   8.269  0.5778 -1.0241 -1.1869
 3168TIP3    H231064   4.678   3.624   8.305 -0.6508 -2.0181  0.8971
 3169TIP3   OH231065   4.222   0.324   2.466 -0.1721 -0.7380  0.1988
 3169TIP3    H131066   4.296   0.274   2.501  0.8166 -0.0096 -0.8073
 3169TIP3    H231067   4.259   0.407   2.439 -1.1196 -0.8207 -1.4726
 3170TIP3   OH231068   3.880   6.456   8.778 -0.8284  0.4335 -0.2845
 3170TIP3    H131069   3.961   6.504   8.795  0.0895 -0.8184 -0.9179
 3170TIP3    H231070   3.850   6.489   8.693 -1.0378  0.9644 -0.0055
 3171TIP3   OH231071   0.166   2.425   8.393  0.7583 -0.0125 -0.3229
 3171TIP3    H131072   0.184   2.331   8.397 -1.1201 -0.3794  1.0165
 3171TIP3    H231073   0.115   2.436   8.313 -2.0286 -0.7995  1.2355
 3172TIP3   OH231074   2.983   1.182   0.217 -0.5893  0.2946 -0.2197
 3172TIP3    H131075   2.996   1.088   0.231  0.7413  0.1365 -2.1166
 3172TIP3    H231076   3.072   1.218   0.210 -1.0879  1.5243 -0.5006
 3173TIP3   OH231077   2.870   0.988   1.410 -0.7574  0.3043 -0.5003
 3173TIP3    H131078   2.792   1.021   1.454 -0.1941  0.7029  0.2225
 3173TIP3    H231079   2.933   1.060   1.415 -0.1391 -0.2257 -0.5279
 3174TIP3   OH231080   2.055   6.419   2.583  0.0598 -0.2109  0.6084
 3174TIP3    H131081   2.078   6.469   2.661 -0.6216 -1.8445  1.9242
 3174TIP3    H231082   2.108   6.339   2.589 -0.2560 -0.5211 -0.4294
 3175TIP3   OH231083   2.533   1.524   1.669  0.0988  0.3921 -0.1162
 3175TIP3    H131084   2.442   1.505   1.646 -0.1295  0.5187  0.6663
 3175TIP3    H231085   2.558   1.596   1.611 -0.0966 -0.0530 -0.7662
 3176TIP3   OH231086   6.382   1.385   2.149  0.3655  0.3176  0.2409
 3176TIP3    H131087   6.422   1.426   2.226 -0.4177  0.1714  0.7366
 3176TIP3    H231088   6.456   1.343   2.104  0.6080 -1.1256  1.8678
 3177TIP3   OH231089   1.553   3.079   2.036  0.4213 -0.1838 -0.3335
 3177TIP3    H131090   1.620   3.070   1.968  0.8936  2.0631 -0.2471
 3177TIP3    H231091   1.563   3.001   2.090  1.1876 -1.1828 -1.8335
 3178TIP3   OH231092   5.581   5.300   1.757 -0.2611 -0.0141 -0.2107
 3178TIP3    H131093   5.615   5.389   1.746 -1.0359  0.5132  1.3081
 3178TIP3    H231094   5.493   5.304   1.720 -0.1450 -0.2756 -0.5175
 3179TIP3   OH231095   6.607   4.769   7.905 -0.3921  0.0377 -0.7026
 3179TIP3    H131096   6.553   4.718   7.965 -0.6492 -0.4844 -1.3735
 3179TIP3    H231097   6.555   4.846   7.885 -0.4070  0.0932 -0.4571
 3180TIP3   OH231098   0.248   3.801   1.772  0.5359 -0.1214  0.0539
 3180TIP3    H131099   0.206   3.864   1.831 -0.5939  1.3292 -2.1768
 3180TIP3    H231100   0.323   3.769   1.822 -0.9509  0.1948  2.6673
 3181TIP3   OH231101   6.271   1.276   1.868 -0.1822  0.3006 -0.3569
 3181TIP3    H131102   6.197   1.232   1.910  2.1882 -3.4210  0.4077
 3181TIP3    H231103   6.236   1.308   1.785 -2.6796 -1.2550 -0.0230
 3182TIP3   OH231104   3.032   1.497   7.531  0.3608  0.6065 -0.7207
 3182TIP3    H131105   3.101   1.449   7.575  1.4623  2.4099 -0.4022
 3182TIP3    H231106   3.000   1.560   7.596 -1.8862 -0.4358 -0.7233
 3183TIP3   OH231107   5.383   5.318   8.369  0.0353 -0.4736  0.8622
 3183TIP3    H131108   5.454   5.328   8.432  1.1752  2.5782 -0.7325
 3183TIP3    H231109   5.332   5.399   8.377 -0.7364 -0.7292 -1.0150
 3184TIP3   OH231110   1.117   2.707   0.198  0.4876 -0.6211  0.6811
 3184TIP3    H131111   1.157   2.649   0.133  1.2984  0.1192  0.5058
 3184TIP3    H231112   1.187   2.723   0.262  1.0974  2.0882 -0.5255
 3185TIP3   OH231113   4.583   1.385   7.866 -0.0863  0.0242 -0.0040
 3185TIP3    H131114   4.640   1.308   7.867  0.7333  0.5363 -1.9709
 3185TIP3    H231115   4.639   1.456   7.833 -1.4904  0.8534 -0.7282
 3186TIP3   OH231116   0.050   1.763   7.417 -0.0764 -0.2314 -0.5523
 3186TIP3    H131117   0.134   1.716   7.412 -0.4220 -0.8057 -1.2903
 3186TIP3    H231118   0.004   1.737   7.337 -0.0428  1.8577 -1.3176
 3187TIP3   OH231119   6.357   2.295   8.598  0.6196 -0.1589  0.0380
 3187TIP3    H131120   6.267   2.318   8.622  0.5091 -1.1447  0.6440
 3187TIP3    H231121   6.392   2.374   8.557 -0.4185  0.3448  0.0822
 3188TIP3   OH231122   3.771   0.209   0.560  0.1339  0.2679 -0.3699
 3188TIP3    H131123   3.684   0.176   0.582 -0.2856  0.7351 -1.2637
 3188TIP3    H231124   3.755   0.290   0.512  1.1359  2.2888  2.4156
 3189TIP3   OH231125   1.638   5.167   6.587 -0.5014 -0.3750 -0.0084
 3189TIP3    H131126   1.556   5.127   6.558  0.4693 -0.2860 -3.3312
 3189TIP3    H231127   1.699   5.093   6.595 -0.4193 -0.2468  0.5869
 3190TIP3   OH231128   6.337   6.367   1.024  0.2822 -0.4138 -0.3473
 3190TIP3    H131129   6.269   6.304   1.046  1.1445 -0.9212  0.9805
 3190TIP3    H231130   6.349   6.419   1.103  1.2794 -0.2029 -0.6177
 3191TIP3   OH231131   0.886   1.279   7.718  0.6166 -0.2382  0.1171
 3191TIP3    H131132   0.967   1.230   7.736 -0.4669 -1.6578  1.4070
 3191TIP3    H231133   0.816   1.216   7.734 -0.7946  1.1853 -0.2045
 3192TIP3   OH231134   3.603   2.301   7.925  0.0989  0.6919  0.3962
 3192TIP3    H131135   3.630   2.321   7.836 -1.1341  0.9819  0.0606
 3192TIP3    H231136   3.561   2.382   7.956  0.5291  0.6013  1.2459
 3193TIP3   OH231137   1.122   6.071   0.602  0.1415  0.6099 -0.2791
 3193TIP3    H131138   1.188   6.037   0.663  0.8452 -0.3052 -1.4934
 3193TIP3    H231139   1.121   6.165   0.618 -0.4708  0.3133  1.8575
 3194TIP3   OH231140   6.059   0.384   2.082 -0.2865  0.5341  0.9364
 3194TIP3    H131141   6.057   0.479   2.094 -0.2935  0.3484  2.6085
 3194TIP3    H231142   6.123   0.353   2.146 -0.7883 -0.6591  0.8837
 3195TIP3   OH231143   4.529   5.121   2.370  0.0728 -0.0988 -0.3345
 3195TIP3    H131144   4.544   5.100   2.278 -0.9847  1.6376 -0.9687
 3195TIP3    H231145   4.513   5.216   2.370 -1.4604 -0.2934  1.4123
 3196TIP3   OH231146   3.411   6.370   1.445  0.1641 -0.4906  0.3797
 3196TIP3    H131147   3.456   6.383   1.529  2.4048 -0.5603 -0.7304
 3196TIP3    H231148   3.367   6.454   1.428  0.5007 -0.1429  1.1639
 3197TIP3   OH231149   4.321   3.715   1.256  0.6772 -0.3459 -0.0455
 3197TIP3    H131150   4.267   3.745   1.183 -0.9145  0.0014  1.2334
 3197TIP3    H231151   4.367   3.794   1.285  0.4622 -0.2528  0.0398
 3198TIP3   OH231152   0.744   2.643   7.023  0.4381 -0.2155  0.4658
 3198TIP3    H131153   0.780   2.565   7.065  0.0913  0.3685  1.9054
 3198TIP3    H231154   0.650   2.630   7.024  0.3671  0.2966  0.8760
 3199TIP3   OH231155   6.598   3.920   8.415 -0.8687  0.2176  0.6937
 3199TIP3    H131156   6.669   3.966   8.459 -0.4269 -0.2904  0.5185
 3199TIP3    H231157   6.641   3.855   8.361 -1.3832  1.0858 -0.8236
 3200TIP3   OH231158   2.262   2.219   7.388 -0.0837 -0.3899 -0.6963
 3200TIP3    H131159   2.179   2.258   7.360 -1.9191 -3.0450  0.6549
 3200TIP3    H231160   2.250   2.201   7.481  2.4103 -0.0158 -0.2336
 3201TIP3   OH231161   6.007   5.502   8.231  0.3409 -0.7921 -0.1423
 3201TIP3    H131162   5.983   5.486   8.140  1.4830 -0.0335 -0.5898
 3201TIP3    H231163   6.102   5.501   8.232  0.4201  1.3836  0.6145
 3202TIP3   OH231164   0.984   5.900   1.539  0.4303 -0.6081 -0.7639
 3202TIP3    H131165   1.008   5.845   1.465  1.6822 -0.8797 -0.1976
 3202TIP3    H231166   0.985   5.989   1.504 -2.5698 -0.9231 -1.9304
 3203TIP3   OH231167   5.030   2.568   2.339  0.0838  0.6877 -0.2656
 3203TIP3    H131168   5.125   2.558   2.343 -0.0591 -0.4156  1.5525
 3203TIP3    H231169   5.011   2.643   2.396 -0.2352 -0.3170  1.0151
 3204TIP3   OH231170   4.971   6.568   1.127 -0.1101 -0.3657  0.5541
 3204TIP3    H131171   5.013   6.652   1.140 -0.5287 -0.2318  1.0786
 3204TIP3    H231172   4.973   6.555   1.032 -1.9712  1.2623  0.2213
 3205TIP3   OH231173   3.828   3.620   0.606  0.4229 -0.7954 -0.1054
 3205TIP3    H131174   3.922   3.627   0.590  0.5233  2.0141  1.1109
 3205TIP3    H231175   3.819   3.627   0.701 -1.0913  2.2555 -0.3330
 3206TIP3   OH231176   4.949   1.928   8.336 -0.3518 -0.3788  0.1046
 3206TIP3    H131177   5.003   1.911   8.258 -0.6196  1.5126 -0.5317
 3206TIP3    H231178   4.996   1.884   8.407  1.5846  0.4746 -0.5869
 3207TIP3   OH231179   5.186   1.356   1.868 -0.3003  0.4634  0.0779
 3207TIP3    H131180   5.109   1.412   1.876 -0.3588  0.8969 -2.4577
 3207TIP3    H231181   5.254   1.414   1.832 -0.2324 -0.8866 -2.2086
 3208TIP3   OH231182   4.767   3.988   8.449 -0.0139  0.2774 -0.3747
 3208TIP3    H131183   4.696   4.049   8.430  1.3443  1.9394 -0.2900
 3208TIP3    H231184   4.753   3.916   8.387 -1.5486  0.7267 -0.6014
 3209TIP3   OH231185   3.713   4.986   8.237  0.4811 -0.0264 -0.1358
 3209TIP3    H131186   3.712   4.979   8.332 -1.5112  0.5170 -0.0586
 3209TIP3    H231187   3.759   5.069   8.220 -1.4463  1.2617  0.5502
 3210TIP3   OH231188   4.254   1.368   0.532 -0.0339  0.4859  0.6816
 3210TIP3    H131189   4.223   1.311   0.602  0.8561  0.5271  1.1253
 3210TIP3    H231190   4.348   1.350   0.525 -0.0298  0.7895 -0.2173
 3211TIP3   OH231191   2.252   2.207   1.647  0.3543 -0.3066  0.4673
 3211TIP3    H131192   2.303   2.169   1.719 -0.3206  0.0200  1.1358
 3211TIP3    H231193   2.316   2.227   1.579  1.0189 -0.5173  1.0267
 3212TIP3   OH231194   2.375   2.015   7.710  0.0718  0.2589 -0.4823
 3212TIP3    H131195   2.300   2.068   7.682  0.5242  1.0358 -0.2537
 3212TIP3    H231196   2.344   1.925   7.706 -0.0111  0.3177 -3.1693
 3213TIP3   OH231197   5.037   0.939   7.763 -1.0482 -0.2341 -0.1211
 3213TIP3    H131198   5.007   0.857   7.725 -1.7068  0.4149 -1.0343
 3213TIP3    H231199   4.993   0.943   7.849 -0.0225 -1.4111  0.4905
 3214TIP3   OH231200   5.716   5.051   1.792  0.6850 -0.5517  0.0917
 3214TIP3    H131201   5.662   5.130   1.782 -0.3397 -1.0304  1.4892
 3214TIP3    H231202   5.719   5.036   1.886 -0.8582 -3.2917 -0.1889
 3215TIP3   OH231203   6.068   4.525   0.621 -0.0305  0.2667  0.1191
 3215TIP3    H131204   6.042   4.595   0.682 -0.9697 -0.3167  0.4021
 3215TIP3    H231205   6.163   4.523   0.628 -0.0655  0.7467  0.9806
 3216TIP3   OH231206   0.547   0.165   7.141  0.4178  0.3096  0.1725
 3216TIP3    H131207   0.538   0.170   7.046 -1.7343  0.5679  0.3426
 3216TIP3    H231208   0.465   0.125   7.171  0.8226  0.7366  1.9693
 3217TIP3   OH231209   1.511   2.568   1.092  0.3691  0.2436 -0.3192
 3217TIP3    H131210   1.483   2.497   1.034 -0.6255  0.3916 -0.0364
 3217TIP3    H231211   1.549   2.633   1.033 -1.3767  0.7525 -0.9263
 3218TIP3   OH231212   5.079   1.983   7.530  0.1134 -0.6749  0.0882
 3218TIP3    H131213   5.132   1.936   7.466 -0.2356 -2.4315  1.0238
 3218TIP3    H231214   4.994   1.992   7.488 -0.0717 -1.6876  0.2197
 3219TIP3   OH231215   6.610   5.438   7.839 -0.2157  0.0446  0.0160
 3219TIP3    H131216   6.619   5.534   7.838 -1.9420  0.2616  1.0557
 3219TIP3    H231217   6.515   5.424   7.847 -0.0051 -1.7638 -0.4479
 3220TIP3   OH231218   0.085   6.073   1.514  0.0506 -0.9135 -0.1784
 3220TIP3    H131219   0.168   6.120   1.527 -0.9129  0.7133  0.3466
 3220TIP3    H231220   0.111   5.989   1.475  1.8103  0.3465 -1.9303
 3221TIP3   OH231221   0.631   6.080   8.867 -0.4911  0.0018 -0.2121
 3221TIP3    H131222   0.610   6.074   8.773 -0.9604  1.2935 -0.2040
 3221TIP3    H231223   0.699   6.013   8.880  1.2770  1.3347 -1.9634
 3222TIP3   OH231224   4.522   5.563   6.714  0.7222 -0.1837  0.4617
 3222TIP3    H131225   4.489   5.528   6.631 -0.0386 -0.3925  0.8506
 3222TIP3    H231226   4.614   5.584   6.695  0.3751  0.4703 -0.6573
 3223TIP3   OH231227   0.265   1.018   0.586  0.3334  0.0479 -0.2463
 3223TIP3    H131228   0.170   1.022   0.571 -0.0871  1.6510  2.2877
 3223TIP3    H231229   0.293   1.110   0.587  1.1600 -0.1328  2.7686
 3224TIP3   OH231230   3.309   1.696   1.087 -0.2151 -0.1690 -0.2135
 3224TIP3    H131231   3.397   1.734   1.081 -0.0391 -0.6720 -0.9824
 3224TIP3    H231232   3.292   1.690   1.181  0.2058  0.7578 -0.0642
 3225TIP3   OH231233   6.241   0.880   6.509 -0.1578  0.0680 -0.0723
 3225TIP3    H131234   6.210   0.952   6.563 -0.2253 -1.0746  1.4622
 3225TIP3    H231235   6.330   0.906   6.484  0.0345  0.4349  0.9493
 3226TIP3   OH231236   0.435   2.492   0.708 -0.0731  0.0342 -0.0289
 3226TIP3    H131237   0.492   2.544   0.651  0.6815 -1.5634 -0.7985
 3226TIP3    H231238   0.407   2.554   0.776  0.1076  1.6397 -1.3474
 3227TIP3   OH231239   4.154   6.038   7.770  0.0599 -0.4406 -0.2728
 3227TIP3    H131240   4.081   5.983   7.799 -0.4276  0.4220  0.1616
 3227TIP3    H231241   4.214   5.977   7.729 -0.8233 -1.1997 -0.4795
 3228TIP3   OH231242   3.165   1.281   2.420  0.2573 -0.5692  0.4014
 3228TIP3    H131243   3.081   1.322   2.439  0.2277 -0.6736  0.4997
 3228TIP3    H231244   3.144   1.188   2.410  0.4907 -0.7348  1.3214
 3229TIP3   OH231245   0.285   0.779   7.883  0.2191 -0.0017  0.0111
 3229TIP3    H131246   0.250   0.861   7.918  3.8534  1.8885 -0.3532
 3229TIP3    H231247   0.285   0.791   7.788  0.1623 -0.7428 -0.0897
 3230TIP3   OH231248   6.152   1.696   0.880  0.4194 -0.1282 -0.0059
 3230TIP3    H131249   6.225   1.699   0.941  0.3583 -0.3163  0.0784
 3230TIP3    H231250   6.076   1.722   0.932  0.5458  0.7995 -0.2801
 3231TIP3   OH231251   1.421   0.367   2.905 -0.5685 -0.5416 -0.3579
 3231TIP3    H131252   1.467   0.405   2.830  1.3628 -0.3699  0.8450
 3231TIP3    H231253   1.351   0.430   2.926 -1.2610 -0.6922 -2.0897
 3232TIP3   OH231254   1.060   1.653   6.603  0.4051 -0.3316 -0.2054
 3232TIP3    H131255   1.032   1.742   6.623 -1.9134 -0.8761 -0.7819
 3232TIP3    H231256   1.021   1.599   6.673 -3.7091 -1.6158 -3.1132
 3233TIP3   OH231257   2.391   2.027   1.285  0.0734 -0.2446 -0.3860
 3233TIP3    H131258   2.321   1.969   1.255 -0.4561  0.8572 -1.3311
 3233TIP3    H231259   2.468   2.002   1.233 -0.0531 -0.3401 -0.5270
 3234TIP3   OH231260   4.431   5.268   1.504  0.0464  0.4712 -0.2509
 3234TIP3    H131261   4.476   5.286   1.586 -0.2530  1.9114 -0.3673
 3234TIP3    H231262   4.424   5.173   1.500  0.6877  0.3519  1.0428
 3235TIP3   OH231263   2.244   4.814   1.377 -0.3479 -0.0272 -0.3432
 3235TIP3    H131264   2.227   4.876   1.306 -1.6691  0.9210  0.7488
 3235TIP3    H231265   2.286   4.867   1.445 -1.3215 -0.3613  0.5328
 3236TIP3   OH231266   5.616   2.271   2.228 -0.1577  0.2760 -0.0151
 3236TIP3    H131267   5.608   2.188   2.273  1.3320  0.3440  0.4165
 3236TIP3    H231268   5.585   2.336   2.291 -0.3913  0.1445  0.0063
 3237TIP3   OH231269   2.661   6.052   1.087  0.1935 -0.1919 -0.5033
 3237TIP3    H131270   2.725   6.000   1.037  0.1745  0.9024 -1.7121
 3237TIP3    H231271   2.613   6.101   1.021 -0.1625  0.9573  0.5680
 3238TIP3   OH231272   4.824   0.708   1.052 -0.4488  0.6078  0.1319
 3238TIP3    H131273   4.769   0.750   0.985 -0.8206 -0.5730 -0.3255
 3238TIP3    H231274   4.780   0.625   1.070 -0.4690  0.9822  2.0180
 3239TIP3   OH231275   2.531   6.378   8.514 -0.8703 -0.3313 -0.0796
 3239TIP3    H131276   2.550   6.285   8.526 -0.1923 -0.2865 -0.7887
 3239TIP3    H231277   2.446   6.380   8.470 -0.4581 -0.6514 -0.9117
 3240TIP3   OH231278   1.966   0.680   0.569  0.1650 -0.0558 -0.1490
 3240TIP3    H131279   1.990   0.754   0.625  0.0717  0.6706 -1.0353
 3240TIP3    H231280   1.907   0.628   0.622 -0.2332  0.8247  0.2987
 3241TIP3   OH231281   3.254   1.726   1.878 -0.6870  0.5351 -0.2047
 3241TIP3    H131282   3.197   1.657   1.910 -0.4410  0.8646  0.9890
 3241TIP3    H231283   3.326   1.729   1.941 -0.2051  1.2369 -0.7694
 3242TIP3   OH231284   6.366   1.783   7.095  0.5592 -0.1837 -0.8504
 3242TIP3    H131285   6.387   1.831   7.175  0.2386  0.1540 -0.9650
 3242TIP3    H231286   6.440   1.800   7.036  0.2092  0.5907 -1.0740
 3243TIP3   OH231287   1.932   5.344   1.903  0.8593  0.4587 -0.3340
 3243TIP3    H131288   1.905   5.394   1.826  0.7155 -1.7958 -1.8621
 3243TIP3    H231289   1.862   5.358   1.967 -0.4178  0.2626 -1.6333
 3244TIP3   OH231290   2.087   3.039   2.120  0.9848  0.3366 -0.1727
 3244TIP3    H131291   2.000   3.018   2.085  0.8801 -0.8226  0.7009
 3244TIP3    H231292   2.146   3.024   2.047  0.7067 -1.4421 -0.0820
 3245TIP3   OH231293   6.058   3.471   2.249  0.5710  0.1257 -0.1373
 3245TIP3    H131294   6.047   3.463   2.344  1.7417 -0.2048 -0.0050
 3245TIP3    H231295   6.151   3.494   2.238  0.4334  0.2269 -1.1983
 3246TIP3   OH231296   2.048   3.228   7.254 -0.5788 -0.3191 -0.3242
 3246TIP3    H131297   2.035   3.177   7.334  1.6500 -2.4016 -1.1458
 3246TIP3    H231298   2.121   3.286   7.275 -1.3633  0.6448 -0.2245
 3247TIP3   OH231299   5.201   1.518   7.552 -0.4399 -0.2218 -0.1781
 3247TIP3    H131300   5.145   1.491   7.625  0.1393 -2.1396 -0.3970
 3247TIP3    H231301   5.176   1.609   7.536 -0.2820  0.4270  2.6832
 3248TIP3   OH231302   2.650   1.990   0.903  0.0475  0.3503 -0.0971
 3248TIP3    H131303   2.731   2.030   0.872  0.7245 -1.5352 -0.9146
 3248TIP3    H231304   2.675   1.948   0.986 -0.6569  1.5619  0.7606
 3249TIP3   OH231305   3.686   1.524   0.388  0.0546  0.3494 -0.2750
 3249TIP3    H131306   3.700   1.441   0.435  0.1282  1.2890  1.4668
 3249TIP3    H231307   3.590   1.533   0.385 -0.0103 -0.5151 -1.8715
 3250TIP3   OH231308   2.186   2.822   6.353 -0.2112  0.0966 -0.6012
 3250TIP3    H131309   2.271   2.792   6.323 -0.3885 -2.1614  0.8894
 3250TIP3    H231310   2.205   2.895   6.412  0.6701 -0.0975 -0.6408
 3251TIP3   OH231311   5.921   2.328   1.557 -0.0448  0.0020  0.1796
 3251TIP3    H131312   5.924   2.383   1.479 -1.0745 -0.3060 -0.0983
 3251TIP3    H231313   6.012   2.306   1.575  0.1866 -0.0772 -1.0421
 3252TIP3   OH231314   0.919   4.679   7.380 -1.1292  0.0677 -0.6970
 3252TIP3    H131315   1.007   4.686   7.419 -0.6760  0.9676 -1.8077
 3252TIP3    H231316   0.935   4.649   7.291 -2.0805 -1.1252 -0.4931
 3253TIP3   OH231317   5.277   0.897   7.437 -0.0997  0.1297 -0.9925
 3253TIP3    H131318   5.331   0.969   7.472 -1.1656  0.1586  0.7020
 3253TIP3    H231319   5.187   0.925   7.454 -0.5252 -2.0286  0.6255
 3254TIP3   OH231320   5.099   2.285   0.278  0.6622  0.5354 -0.1893
 3254TIP3    H131321   5.099   2.195   0.245  0.9520 -0.0810  1.4016
 3254TIP3    H231322   5.032   2.286   0.346 -1.1063  2.2196 -1.8459
 3255TIP3   OH231323   4.681   1.754   0.021  0.6376 -0.0899 -0.4247
 3255TIP3    H131324   4.619   1.762  -0.051  2.3765  2.0597 -1.8121
 3255TIP3    H231325   4.650   1.818   0.086  0.5905 -0.0849 -0.4512
 3256TIP3   OH231326   5.960   2.985   0.835  0.0061 -0.3586 -0.3366
 3256TIP3    H131327   6.052   3.013   0.829  0.1881 -0.3023  2.0372
 3256TIP3    H231328   5.910   3.066   0.832 -0.2237 -0.4789 -3.9587
 3257TIP3   OH231329   5.763   0.594   8.121 -0.2112 -0.1314 -0.0239
 3257TIP3    H131330   5.669   0.603   8.110 -0.4543 -0.1081  1.7226
 3257TIP3    H231331   5.774   0.512   8.169  0.7892 -0.9330 -1.5426
 3258TIP3   OH231332   3.074   1.832   7.643  0.5331 -0.1156 -0.0327
 3258TIP3    H131333   3.078   1.889   7.719  0.4664 -0.5049  0.2669
 3258TIP3    H231334   3.000   1.865   7.592  0.0563 -0.3644  0.4925
 3259TIP3   OH231335   0.952   2.965   6.973 -0.5109  0.7690 -0.2045
 3259TIP3    H131336   0.923   2.941   6.884  0.6244  1.9615 -0.9313
 3259TIP3    H231337   0.891   3.033   7.000 -1.5620 -0.3898  0.4211
 3260TIP3   OH231338   6.616   4.062   1.614 -0.2980 -0.4228 -0.7001
 3260TIP3    H131339   6.614   4.010   1.534  2.2587 -2.3605  0.3736
 3260TIP3    H231340   6.562   4.014   1.676  0.3573 -0.6843 -0.3234
 3261TIP3   OH231341   5.606   1.412   1.732 -0.2069 -0.2426  0.4627
 3261TIP3    H131342   5.608   1.372   1.818  1.5665  0.9172  1.0158
 3261TIP3    H231343   5.518   1.448   1.724 -0.0202  0.7227  2.3366
 3262TIP3   OH231344   0.023   6.103   0.612 -0.2367 -0.2508 -0.2390
 3262TIP3    H131345   0.034   6.011   0.638  1.1796  0.1282  0.6228
 3262TIP3    H231346   0.088   6.150   0.664 -0.4104  1.1495 -1.2375
 3263TIP3   OH231347   0.137   3.498   0.462 -0.0147  0.2568  0.1872
 3263TIP3    H131348   0.107   3.522   0.374  2.3082 -0.8232 -0.9701
 3263TIP3    H231349   0.069   3.440   0.495  0.3061 -1.5511 -2.0502
 3264TIP3   OH231350   4.334   3.167   7.954  0.0855  0.1640  0.0722
 3264TIP3    H131351   4.369   3.080   7.970  0.4504  0.4865  1.1186
 3264TIP3    H231352   4.255   3.152   7.902  0.1030 -0.7989  0.3076
 3265TIP3   OH231353   4.291   6.153   2.308 -0.3518 -0.1319 -0.0618
 3265TIP3    H131354   4.374   6.107   2.322 -0.5044 -0.6039 -0.6753
 3265TIP3    H231355   4.224   6.085   2.318 -0.7853  0.4932  1.7978
 3266TIP3   OH231356   3.910   1.941   0.067 -0.5497  0.2398 -0.4351
 3266TIP3    H131357   3.837   1.917   0.123  0.5584 -0.4775  0.7561
 3266TIP3    H231358   3.892   1.899  -0.017  0.2717 -3.1491  0.9197
 3267TIP3   OH231359   2.670   4.657   0.287 -0.1217 -0.3428 -0.5898
 3267TIP3    H131360   2.642   4.593   0.353  0.6458 -0.9710 -0.8545
 3267TIP3    H231361   2.605   4.727   0.292 -0.3189 -0.5851  0.5279
 3268TIP3   OH231362   3.015   1.241   0.902 -0.3536  0.0703  0.6702
 3268TIP3    H131363   3.014   1.302   0.976  1.4812  0.7273  0.2107
 3268TIP3    H231364   3.099   1.196   0.909 -0.2607 -0.0454 -0.8517
 3269TIP3   OH231365   0.961   1.405   1.964  0.0331 -0.0222 -0.0707
 3269TIP3    H131366   1.055   1.414   1.980  0.2404  1.6123 -1.7737
 3269TIP3    H231367   0.955   1.366   1.877 -0.9044 -1.3880  0.5718
 3270TIP3   OH231368   0.457   4.985   1.141 -0.4854  0.1604  0.0230
 3270TIP3    H131369   0.421   4.995   1.053 -1.0870 -2.8884 -0.2165
 3270TIP3    H231370   0.529   4.923   1.131  0.6918  1.2161  1.4526
 3271TIP3   OH231371   4.763   3.333   8.051 -0.1882  0.3703  0.0431
 3271TIP3    H131372   4.831   3.384   8.006  1.0224 -1.4150 -0.2677
 3271TIP3    H231373   4.744   3.261   7.991 -2.3663  0.7803  0.1690
 3272TIP3   OH231374   3.879   4.977   0.662 -0.0739  0.0478  0.2805
 3272TIP3    H131375   3.904   4.976   0.570  1.0512 -0.7131  0.5783
 3272TIP3    H231376   3.873   5.070   0.684 -0.6017  0.2428 -0.6056
 3273TIP3   OH231377   2.100   0.963   8.665  0.0915 -0.3466 -0.3969
 3273TIP3    H131378   2.194   0.947   8.663  0.4944  1.4075  1.2954
 3273TIP3    H231379   2.087   1.036   8.605  0.2057  0.9048  1.0451
 3274TIP3   OH231380   2.633   2.692   6.453  0.2481 -0.2848  0.0130
 3274TIP3    H131381   2.717   2.738   6.453 -0.4511  1.0684 -1.3002
 3274TIP3    H231382   2.636   2.638   6.532  2.4520 -0.4837 -0.1277
 3275TIP3   OH231383   6.675   2.388   7.775  0.1997  0.4257 -0.0794
 3275TIP3    H131384   6.695   2.312   7.720 -0.3113  0.3320 -0.1438
 3275TIP3    H231385   6.758   2.409   7.817  0.0929 -0.9322  0.8878
 3276TIP3   OH231386   6.754   3.112   0.039 -0.4160  0.5045  0.1843
 3276TIP3    H131387   6.801   3.171  -0.020  0.7496 -0.2329  0.3353
 3276TIP3    H231388   6.797   3.126   0.124  0.0736 -0.7525  0.1572
 3277TIP3   OH231389   4.927   2.867   1.213  0.4664 -0.4576  0.1133
 3277TIP3    H131390   5.004   2.895   1.263  0.6066  1.8689 -1.2544
 3277TIP3    H231391   4.887   2.949   1.184 -0.9092 -1.6865 -1.6269
 3278TIP3   OH231392   5.659   5.882   7.208  0.6891 -0.5831 -0.7311
 3278TIP3    H131393   5.573   5.887   7.166  0.6672 -0.6413 -0.6923
 3278TIP3    H231394   5.718   5.849   7.140  0.7674 -0.1271 -0.8905
 3279TIP3   OH231395   5.861   2.228   1.997 -0.2405  0.1737  0.1980
 3279TIP3    H131396   5.934   2.223   1.935 -0.5532  0.3624 -0.1914
 3279TIP3    H231397   5.853   2.139   2.032 -0.8944 -0.2474 -0.9998
 3280TIP3   OH231398   3.342   6.479   8.415  0.1541 -0.0502 -0.3437
 3280TIP3    H131399   3.256   6.450   8.383  0.5967 -0.2692 -1.3994
 3280TIP3    H231400   3.340   6.462   8.509 -0.5648 -1.0786 -0.5293
 3281TIP3   OH231401   3.220   5.721   8.483  0.7063 -0.4558  0.5333
 3281TIP3    H131402   3.175   5.787   8.536  1.3282 -0.3673  0.9624
 3281TIP3    H231403   3.228   5.760   8.396 -1.1455 -0.9562  0.0890
 3282TIP3   OH231404   6.419   0.588   2.699  0.3988 -0.0603 -0.2021
 3282TIP3    H131405   6.513   0.577   2.685  0.1981 -0.3275 -1.5515
 3282TIP3    H231406   6.408   0.591   2.794  1.7754  0.0777 -0.0321
 3283TIP3   OH231407   1.150   1.517   0.574  0.1747 -0.4373  0.1120
 3283TIP3    H131408   1.131   1.437   0.525  1.5263  0.5189 -2.1049
 3283TIP3    H231409   1.068   1.537   0.619  0.0341 -3.4621  1.4338
 3284TIP3   OH231410   2.481   0.607   1.015  0.3134 -0.0203 -0.0075
 3284TIP3    H131411   2.423   0.650   0.952 -0.8631 -1.5193  0.0147
 3284TIP3    H231412   2.565   0.652   1.004 -0.8113  2.2621 -0.0059
 3285TIP3   OH231413   1.302   4.658   0.585  0.1198 -0.3884 -0.8773
 3285TIP3    H131414   1.392   4.668   0.553  0.8930  2.2396  1.6247
 3285TIP3    H231415   1.278   4.745   0.617 -2.1445 -1.7007  1.3839
 3286TIP3   OH231416   1.675   4.377   8.267 -0.1283 -0.5530  0.1542
 3286TIP3    H131417   1.720   4.408   8.346 -0.7816  0.5187  0.1298
 3286TIP3    H231418   1.592   4.342   8.300 -1.0399  1.2072 -0.1502
 3287TIP3   OH231419   1.490   3.775   0.265 -0.3125 -0.1667 -0.2635
 3287TIP3    H131420   1.425   3.711   0.293  0.5939 -1.3144 -0.7313
 3287TIP3    H231421   1.458   3.806   0.180 -0.4808 -0.3783 -0.2782
 3288TIP3   OH231422   6.065   6.254   0.207 -0.0576  0.0433  0.0105
 3288TIP3    H131423   6.151   6.270   0.246  0.4566  0.4639 -1.2326
 3288TIP3    H231424   6.009   6.322   0.243  0.6940  1.1512 -0.8225
 3289TIP3   OH231425   0.898   2.510   1.686  0.1619  0.3329  0.1012
 3289TIP3    H131426   0.895   2.598   1.724 -1.4787  0.4732 -0.2535
 3289TIP3    H231427   0.820   2.506   1.630  0.7824 -0.9829 -0.7202
 3290TIP3   OH231428   0.338   6.303   0.438  0.0776  0.1184 -0.2062
 3290TIP3    H131429   0.361   6.227   0.385 -1.2853  0.1031 -0.8203
 3290TIP3    H231430   0.420   6.352   0.447  0.9442 -1.3128  0.0525
 3291TIP3   OH231431   1.328   4.207   8.070  0.6902  0.5749  0.4922
 3291TIP3    H131432   1.277   4.269   8.017  0.3836 -0.3490 -0.3367
 3291TIP3    H231433   1.344   4.253   8.153 -1.5420  0.9116  0.8108
 3292TIP3   OH231434   0.577   3.884   8.717  0.4066  0.4938 -0.6115
 3292TIP3    H131435   0.649   3.866   8.657  0.3720 -0.6070 -0.3570
 3292TIP3    H231436   0.619   3.901   8.801  0.3671 -1.3873 -0.1689
 3293TIP3   OH231437   2.211   3.853   7.885 -0.0286 -0.2739  0.3810
 3293TIP3    H131438   2.227   3.948   7.886  0.1599 -0.3018 -0.0333
 3293TIP3    H231439   2.268   3.819   7.954 -1.4994  0.1287  1.8507
 3294TIP3   OH231440   4.652   5.552   6.964  0.2634  0.1844 -0.0535
 3294TIP3    H131441   4.608   5.531   6.881  0.0838 -1.3001  0.3880
 3294TIP3    H231442   4.634   5.645   6.977 -1.9310 -0.1229 -0.3975
 3295TIP3   OH231443   4.639   3.445   8.561 -0.3081  0.2559 -0.6235
 3295TIP3    H131444   4.547   3.433   8.538 -0.4297  1.7075 -1.0083
 3295TIP3    H231445   4.685   3.447   8.477 -0.4116  2.9036 -0.7229
 3296TIP3   OH231446   4.672   3.496   1.434 -0.1882  0.0595  0.6647
 3296TIP3    H131447   4.736   3.430   1.410 -1.4086 -1.4934  1.4969
 3296TIP3    H231448   4.635   3.526   1.351 -0.1394 -0.8474  0.3074
 3297TIP3   OH231449   3.649   1.210   7.773 -0.5074 -0.3677 -0.0163
 3297TIP3    H131450   3.611   1.128   7.743 -0.2360  0.2036 -2.0739
 3297TIP3    H231451   3.665   1.260   7.693  0.7916  1.0531  1.0657
 3298TIP3   OH231452   3.334   4.572   7.633 -0.1635  0.0976 -0.2541
 3298TIP3    H131453   3.291   4.549   7.550  0.7632 -0.1918 -0.6692
 3298TIP3    H231454   3.307   4.503   7.694 -0.4929  0.0661 -0.4315
 3299TIP3   OH231455   6.224   5.028   8.767  0.0606  0.7908  0.2997
 3299TIP3    H131456   6.247   5.083   8.692  2.6646  0.0397  0.4448
 3299TIP3    H231457   6.139   4.991   8.744  0.0907  1.7704 -1.5826
 3300TIP3   OH231458   6.194   5.233   7.418  0.1295 -0.2902  0.1509
 3300TIP3    H131459   6.279   5.277   7.428 -0.3074  0.7245 -0.4586
 3300TIP3    H231460   6.190   5.173   7.493  0.7766  0.6793  0.9970
 3301TIP3   OH231461   5.110   3.061   0.234  0.5067 -0.3200  0.3162
 3301TIP3    H131462   5.052   3.134   0.212  0.4197 -1.0915 -2.2516
 3301TIP3    H231463   5.051   2.992   0.264  0.4302  0.0007  0.9325
 3302TIP3   OH231464   4.889   4.016   7.801 -0.1717  0.4413 -0.2324
 3302TIP3    H131465   4.984   4.005   7.814  0.2397  2.9086 -0.6174
 3302TIP3    H231466   4.856   4.039   7.888  0.0225  1.8849 -0.5100
 3303TIP3   OH231467   6.135   2.517   0.769  0.0367 -0.2415  0.4753
 3303TIP3    H131468   6.086   2.442   0.736  1.2911 -0.5842 -0.6698
 3303TIP3    H231469   6.151   2.572   0.692 -0.0591  0.7496  1.1335
 3304TIP3   OH231470   2.769   1.378   7.074 -0.0346  0.0310 -0.3362
 3304TIP3    H131471   2.805   1.389   7.162  1.6272  0.7286 -1.0746
 3304TIP3    H231472   2.787   1.286   7.052 -1.4380 -0.4671  0.4303
 3305TIP3   OH231473   1.820   6.719   7.821  0.2676 -0.1346 -0.2940
 3305TIP3    H131474   1.774   6.648   7.777 -0.6993  0.1060  0.2944
 3305TIP3    H231475   1.762   6.744   7.893  1.5853 -0.2054  0.8414
 3306TIP3   OH231476   2.669   2.586   7.298 -0.6655  0.0590 -0.7322
 3306TIP3    H131477   2.622   2.662   7.263 -1.1361 -0.2849 -0.8628
 3306TIP3    H231478   2.613   2.512   7.277  0.9959 -0.6718 -2.9471
 3307TIP3   OH231479   4.494   1.262   8.163  0.1251  0.2559 -0.4795
 3307TIP3    H131480   4.510   1.309   8.245  0.8846 -2.2159  0.8790
 3307TIP3    H231481   4.553   1.303   8.100  1.2562  0.6902  0.8236
 3308TIP3   OH231482   6.468   4.371   7.591 -0.2566  0.1060  0.4767
 3308TIP3    H131483   6.467   4.424   7.512 -0.9423 -0.9583 -0.2431
 3308TIP3    H231484   6.376   4.359   7.614 -0.0781  1.1993  2.0238
 3309TIP3   OH231485   4.929   0.411   1.726  1.0363  0.4160 -0.1612
 3309TIP3    H131486   4.997   0.455   1.675  0.7738 -0.2305 -1.0824
 3309TIP3    H231487   4.870   0.373   1.661  0.1895  0.3515  0.6260
 3310TIP3   OH231488   1.925   0.712   1.806 -0.9457  0.1982 -0.0522
 3310TIP3    H131489   1.834   0.698   1.779 -0.8069 -1.6951  0.3030
 3310TIP3    H231490   1.936   0.657   1.884  0.7340 -0.2863 -0.5907
 3311TIP3   OH231491   1.422   4.529   8.578 -0.4711  0.2486  0.0220
 3311TIP3    H131492   1.389   4.599   8.635 -0.6075  0.9759 -0.9182
 3311TIP3    H231493   1.435   4.454   8.636  2.6304  1.9038  1.7195
 3312TIP3   OH231494   5.969   0.616   0.153 -0.1036  0.1841 -0.2694
 3312TIP3    H131495   5.933   0.692   0.198 -1.0680 -0.0849 -0.5557
 3312TIP3    H231496   6.063   0.620   0.170 -0.3299  0.5751  1.0305
 3313TIP3   OH231497   3.290   2.416   7.891  0.0575  0.0482 -0.6578
 3313TIP3    H131498   3.312   2.468   7.968 -1.2699 -2.5368  1.6491
 3313TIP3    H231499   3.351   2.343   7.892 -2.4083 -2.1814  0.4376
 3314TIP3   OH231500   3.694   5.501   0.602 -0.3928  0.5062 -0.6526
 3314TIP3    H131501   3.661   5.473   0.688 -0.1752  1.0241 -0.3971
 3314TIP3    H231502   3.628   5.470   0.540  0.2290 -1.2921 -0.4640
 3315TIP3   OH231503   4.747   5.443   8.070  0.6047 -0.4992  0.7247
 3315TIP3    H131504   4.786   5.355   8.063  0.0046 -0.7257  0.0459
 3315TIP3    H231505   4.746   5.476   7.980  2.0493  0.7702  1.1343
 3316TIP3   OH231506   5.399   5.970   8.102  0.1114 -0.3528  0.0674
 3316TIP3    H131507   5.389   5.968   8.007 -0.0710  0.7009  0.0561
 3316TIP3    H231508   5.411   6.063   8.123  0.0245 -0.5632  1.0840
 3317TIP3   OH231509   3.338   4.647   7.967  0.3115  0.1032  0.1261
 3317TIP3    H131510   3.386   4.652   8.049 -1.0524  2.3802  0.8614
 3317TIP3    H231511   3.327   4.553   7.951 -0.0603 -0.4083  2.9569
 3318TIP3   OH231512   1.245   4.136   8.688  0.2771 -0.0036  0.3583
 3318TIP3    H131513   1.288   4.138   8.774  0.4512  1.3453  0.2595
 3318TIP3    H231514   1.167   4.190   8.699 -0.7350 -1.3612  0.1634
 3319TIP3   OH231515   0.961   4.923   7.719  0.0785  0.5486  0.1432
 3319TIP3    H131516   1.021   4.877   7.660  0.9136  1.5816  0.1611
 3319TIP3    H231517   1.002   4.917   7.805  0.4732  1.7674  0.0555
 3320TIP3   OH231518   4.237   6.635   1.118  0.2192  0.5223 -0.6555
 3320TIP3    H131519   4.163   6.692   1.137 -0.3056 -1.2295  3.7186
 3320TIP3    H231520   4.202   6.566   1.063 -1.0565  0.4717  0.1951
 3321TIP3   OH231521   1.728   2.120   1.936 -0.2465  0.2215 -0.1671
 3321TIP3    H131522   1.750   2.071   1.856  0.3150 -0.2396  0.2574
 3321TIP3    H231523   1.738   2.212   1.911 -0.0370  0.0821 -0.6212
 3322TIP3   OH231524   1.858   1.551   1.064  0.3929 -0.1150  0.3635
 3322TIP3    H131525   1.825   1.556   1.154 -1.0352  1.8594 -0.1909
 3322TIP3    H231526   1.792   1.501   1.016  0.0581  0.6536  0.0041
 3323TIP3   OH231527   5.322   3.301   2.112 -0.4878 -0.5724 -0.3957
 3323TIP3    H131528   5.293   3.261   2.194  2.0748  0.8160  1.3232
 3323TIP3    H231529   5.255   3.366   2.092 -0.1847  0.5155  1.8080
 3324TIP3   OH231530   5.489   0.341   0.405 -0.0745  0.1833 -0.0184
 3324TIP3    H131531   5.517   0.328   0.314 -0.4038  2.3931 -0.5119
 3324TIP3    H231532   5.570   0.344   0.455  0.2719  0.9771 -0.5887
 3325TIP3   OH231533   6.215   5.787   0.139  0.0070 -0.6535 -0.2716
 3325TIP3    H131534   6.258   5.856   0.089  0.0711 -0.6700 -0.2391
 3325TIP3    H231535   6.143   5.832   0.184  1.8723  0.0829  2.2309
 3326TIP3   OH231536   6.478   5.328   7.373 -0.5847 -0.3003  0.0933
 3326TIP3    H131537   6.515   5.304   7.458  0.2700  0.2034 -0.1269
 3326TIP3    H231538   6.547   5.306   7.310 -1.0702 -0.3316 -0.4358
 3327TIP3   OH231539   0.234   1.748   0.681  0.1666  0.3215 -0.1143
 3327TIP3    H131540   0.240   1.837   0.646  1.3626 -0.1999 -1.3673
 3327TIP3    H231541   0.324   1.726   0.704 -0.2671 -0.2213  1.1373
 3328TIP3   OH231542   3.549   6.183   0.909 -0.1060  0.2157 -0.1812
 3328TIP3    H131543   3.495   6.257   0.880 -0.8555  0.0673  0.7899
 3328TIP3    H231544   3.621   6.180   0.846 -0.9447  0.7508 -1.1889
 3329TIP3   OH231545   4.671   5.090   7.924 -0.2021  1.2396 -0.7013
 3329TIP3    H131546   4.627   5.055   8.002 -0.1444 -0.3524 -1.3448
 3329TIP3    H231547   4.617   5.165   7.898 -1.3876  0.5600 -0.3042
 3330TIP3   OH231548   1.682   2.505   8.245 -0.0815  0.2079 -0.5102
 3330TIP3    H131549   1.766   2.519   8.289 -0.8624 -0.0279  1.1499
 3330TIP3    H231550   1.670   2.583   8.190 -0.1244  1.7353  1.5393
 3331TIP3   OH231551   2.260   3.965   8.846 -0.1674 -0.0109 -0.4969
 3331TIP3    H131552   2.333   3.912   8.878  0.4017  0.6659 -0.6417
 3331TIP3    H231553   2.188   3.903   8.833  0.5119 -0.7475 -0.7548
 3332TIP3   OH231554   0.726   5.727   1.237  0.2561  0.7633  0.5445
 3332TIP3    H131555   0.742   5.700   1.327  2.1314 -1.6893 -0.4165
 3332TIP3    H231556   0.631   5.719   1.226 -0.0406  1.3944  2.3374
 3333TIP3   OH231557   3.869   6.734   0.419  0.2008 -0.6502  0.3240
 3333TIP3    H131558   3.819   6.657   0.443  0.0678 -0.7970 -0.4206
 3333TIP3    H231559   3.807   6.791   0.375  0.1473  0.1614  1.4082
 3334TIP3   OH231560   3.577   3.939   8.824 -0.4292  0.3683 -0.5763
 3334TIP3    H131561   3.554   4.003   8.757 -2.0700  0.5365  0.1001
 3334TIP3    H231562   3.620   3.990   8.892  0.4575  0.3333 -1.0899
 3335TIP3   OH231563   0.379   2.952   7.710 -0.4120  0.3259  0.3915
 3335TIP3    H131564   0.397   3.013   7.782  0.0777 -0.4401  0.9317
 3335TIP3    H231565   0.410   2.868   7.742 -0.2912 -0.0499 -0.6800
 3336TIP3   OH231566   0.942   1.787   8.296 -0.0042  0.4352  0.5107
 3336TIP3    H131567   0.849   1.775   8.317 -0.4394 -1.5243 -2.1238
 3336TIP3    H231568   0.944   1.800   8.202  2.3788  1.3081  0.6240
 3337TIP3   OH231569   5.362   1.719   8.154  0.6012  0.1837 -0.2262
 3337TIP3    H131570   5.271   1.746   8.165  0.5649  1.0691 -2.2424
 3337TIP3    H231571   5.407   1.755   8.230 -0.5147  0.7866  0.1728
 3338TIP3   OH231572   3.004   6.508   7.845  0.4657  0.1877  0.2900
 3338TIP3    H131573   3.020   6.589   7.797  0.8308  0.4870  0.9002
 3338TIP3    H231574   2.923   6.473   7.808  1.7565 -0.6239 -1.9021
 3339TIP3   OH231575   6.176   4.621   0.982 -0.6775  0.1985 -0.3689
 3339TIP3    H131576   6.171   4.641   1.075 -0.3870 -0.2573 -0.2493
 3339TIP3    H231577   6.101   4.665   0.943 -0.2832  1.1567 -0.0653
 3340TIP3   OH231578   5.018   3.652   7.593  0.5653 -0.1680 -0.5673
 3340TIP3    H131579   4.981   3.608   7.517 -1.1216 -0.2562  0.2550
 3340TIP3    H231580   5.107   3.616   7.601 -0.0833 -2.0030 -1.0417
 3341TIP3   OH231581   3.594   5.088   0.895 -0.6201 -0.5458  0.2394
 3341TIP3    H131582   3.550   5.109   0.977 -1.2634 -1.0593  0.0349
 3341TIP3    H231583   3.680   5.054   0.921 -0.2212  0.7027  0.6329
 3342TIP3   OH231584   6.676   0.968   0.033  0.3352 -0.3454 -0.0595
 3342TIP3    H131585   6.622   1.038  -0.003  0.7965 -0.4535 -0.9896
 3342TIP3    H231586   6.715   0.925  -0.043  2.9547  0.6893  0.5814
 3343TIP3   OH231587   6.191   6.639   2.457 -0.1087 -0.1376 -0.0424
 3343TIP3    H131588   6.136   6.710   2.425 -3.1045  0.0110  4.5194
 3343TIP3    H231589   6.138   6.560   2.443  0.0519 -0.4885  1.2102
 3344TIP3   OH231590   6.016   5.951   7.528  1.1150 -0.2975  0.7711
 3344TIP3    H131591   5.998   6.000   7.448  1.6713 -1.7906 -0.2986
 3344TIP3    H231592   5.964   5.871   7.520 -0.7199  0.5171  3.0303
 3345TIP3   OH231593   0.188   2.506   7.501 -0.1415 -0.0296  0.1597
 3345TIP3    H131594   0.207   2.512   7.407  1.8184  0.9554  0.5707
 3345TIP3    H231595   0.225   2.423   7.528  0.2579  0.1812  0.2616
 3346TIP3   OH231596   0.202   0.344   1.830  0.0492 -0.2615 -0.1691
 3346TIP3    H131597   0.126   0.330   1.885  0.8643 -0.6797  0.8909
 3346TIP3    H231598   0.178   0.418   1.774 -0.3949  0.9969  1.5760
 3347TIP3   OH231599   4.682   1.773   2.647 -0.2035  0.5244  0.6086
 3347TIP3    H131600   4.718   1.814   2.569 -0.5444 -0.9296 -0.3581
 3347TIP3    H231601   4.677   1.844   2.711  1.5538  1.4076 -0.1679
 3348TIP3   OH231602   5.059   3.955   8.522 -0.1399 -0.4551  0.1569
 3348TIP3    H131603   4.968   3.979   8.505 -0.2901  0.5349  2.0993
 3348TIP3    H231604   5.066   3.952   8.617  1.5009 -2.0191  0.0473
 3349TIP3   OH231605   2.407   3.085   7.190 -0.1961 -0.0319  0.1824
 3349TIP3    H131606   2.354   3.114   7.264  1.1468 -0.0535  1.1699
 3349TIP3    H231607   2.446   3.166   7.155  2.3639 -0.3506  2.0247
 3350TIP3   OH231608   3.183   2.555   8.818  0.2169  0.0224  0.6615
 3350TIP3    H131609   3.210   2.540   8.909  1.0228 -0.0935  0.4057
 3350TIP3    H231610   3.120   2.485   8.800  0.3878 -0.2192  0.9901
 3351TIP3   OH231611   4.583   0.970   8.047  0.0593 -0.4762  0.0133
 3351TIP3    H131612   4.634   0.894   8.075  0.9514 -0.1782 -0.7190
 3351TIP3    H231613   4.522   0.986   8.119  1.5027 -0.4177  1.3004
 3352TIP3   OH231614   1.072   6.401   0.899 -0.5731 -0.2452 -0.3505
 3352TIP3    H131615   1.108   6.314   0.915 -0.0508 -0.0592 -0.4803
 3352TIP3    H231616   1.093   6.450   0.979 -0.1931 -0.0284 -0.5787
 3353TIP3   OH231617   6.529   3.933   1.921  0.1151  0.6176 -0.1844
 3353TIP3    H131618   6.500   3.890   1.841 -1.8017  1.3737  0.0504
 3353TIP3    H231619   6.478   3.891   1.990  1.0055  0.6781  0.5161
 3354TIP3   OH231620   6.234   1.205   7.078 -0.6950 -0.8669  0.1671
 3354TIP3    H131621   6.237   1.142   7.007  1.8019  0.5533 -1.1603
 3354TIP3    H231622   6.247   1.290   7.035 -0.2312  0.1554  2.1875
 3355TIP3   OH231623   0.848   4.760   8.840 -0.3630  0.5884 -0.3933
 3355TIP3    H131624   0.769   4.792   8.882 -0.6270  1.0741 -1.2501
 3355TIP3    H231625   0.861   4.672   8.877 -1.0594  0.6701  0.0584
 3356TIP3   OH231626   6.014   5.199   8.621  0.1477  0.1127 -0.4220
 3356TIP3    H131627   6.056   5.282   8.599  1.8477 -0.8591 -1.0809
 3356TIP3    H231628   5.963   5.218   8.700  1.2652  1.5573  0.0046
 3357TIP3   OH231629   4.747   6.704   1.792  0.0073 -0.4470  0.5779
 3357TIP3    H131630   4.702   6.640   1.847 -0.3526  0.4508  1.3489
 3357TIP3    H231631   4.703   6.787   1.811 -0.2370 -0.1432 -1.2058
 3358TIP3   OH231632   2.881   1.903   8.247  0.4655 -0.2015  0.1919
 3358TIP3    H131633   2.826   1.828   8.223  0.8688 -0.2398 -0.6610
 3358TIP3    H231634   2.822   1.962   8.294 -0.1505 -0.5269 -0.1592
 3359TIP3   OH231635   5.470   6.563   0.584 -0.3727 -0.5265 -0.1595
 3359TIP3    H131636   5.432   6.614   0.655  0.2882  0.4089 -0.4587
 3359TIP3    H231637   5.428   6.596   0.505  1.8163  1.3729 -0.6370
 3360TIP3   OH231638   1.828   2.712   7.267 -0.1160  0.2350 -0.2161
 3360TIP3    H131639   1.740   2.741   7.242  0.2462  0.6206 -1.0826
 3360TIP3    H231640   1.841   2.631   7.218 -0.1430 -0.0375  0.2261
 3361TIP3   OH231641   1.221   2.486   0.769  0.6310  0.1871  0.0521
 3361TIP3    H131642   1.181   2.567   0.802  0.2680  1.0000 -2.2183
 3361TIP3    H231643   1.299   2.516   0.721  1.9739 -1.0745  1.3669
 3362TIP3   OH231644   5.721   3.235   8.677 -0.0515  0.1529  0.1828
 3362TIP3    H131645   5.718   3.329   8.656 -0.8966  0.2798  0.7974
 3362TIP3    H231646   5.711   3.232   8.772 -1.0989 -0.5920  0.0697
 3363TIP3   OH231647   5.584   5.690   0.019 -0.1686  0.4764 -0.2756
 3363TIP3    H131648   5.526   5.720  -0.051  0.1098  1.8783  0.0724
 3363TIP3    H231649   5.628   5.769   0.049  0.2953 -0.2334  0.9646
 3364TIP3   OH231650   1.008   3.419   7.913 -0.2902 -0.3875 -0.4074
 3364TIP3    H131651   0.958   3.344   7.882 -0.8536  0.0234 -0.4964
 3364TIP3    H231652   1.100   3.392   7.902 -0.4621 -1.4257  0.4347
 3365TIP3   OH231653   2.049   3.741   1.513 -0.2796 -0.2727 -0.1715
 3365TIP3    H131654   1.990   3.815   1.506 -1.1928 -0.9511  0.1521
 3365TIP3    H231655   2.015   3.690   1.586  0.5795 -0.7998 -0.1186
 3366TIP3   OH231656   2.546   3.679   1.572  0.8492  0.3937 -0.1810
 3366TIP3    H131657   2.489   3.604   1.555  0.4576  0.8411 -0.8651
 3366TIP3    H231658   2.624   3.662   1.519  0.9692  0.2378  0.0412
 3367TIP3   OH231659   6.077   3.251   7.380  0.6099  0.5766  0.1560
 3367TIP3    H131660   5.998   3.202   7.404  0.1988  0.6314 -1.0242
 3367TIP3    H231661   6.131   3.248   7.458  0.0619 -0.7198  0.5139
 3368TIP3   OH231662   4.406   4.064   0.235  0.4352 -0.0967  0.5753
 3368TIP3    H131663   4.489   4.032   0.200  1.1808 -0.2358  2.3950
 3368TIP3    H231664   4.423   4.080   0.328 -1.1930  1.1976  0.7001
 3369TIP3   OH231665   2.795   2.330   1.882  0.1158  0.1637 -0.2577
 3369TIP3    H131666   2.880   2.306   1.846  0.4628  0.6414  0.2406
 3369TIP3    H231667   2.799   2.303   1.974 -0.0546  0.7234 -0.0828
 3370TIP3   OH231668   5.082   2.678   7.170 -0.5137 -0.6703 -0.6358
 3370TIP3    H131669   5.099   2.732   7.093  2.3325  2.5448  1.9688
 3370TIP3    H231670   5.129   2.596   7.153  1.1570  0.4833 -1.8190
 3371TIP3   OH231671   2.295   1.742   7.464 -0.4246 -0.2156 -0.5313
 3371TIP3    H131672   2.245   1.673   7.420 -1.7687  0.6634 -0.4643
 3371TIP3    H231673   2.266   1.738   7.555 -1.7451  1.4157 -0.8258
 3372TIP3   OH231674   1.361   6.450   1.462  0.1661  0.0717 -0.0650
 3372TIP3    H131675   1.391   6.365   1.428  1.2670  0.5399 -0.3122
 3372TIP3    H231676   1.442   6.499   1.478 -0.4588  1.6294 -1.3742
 3373TIP3   OH231677   1.640   4.072   1.615  0.0499  0.3530  0.3419
 3373TIP3    H131678   1.614   4.090   1.706 -0.8479 -2.0364  0.6307
 3373TIP3    H231679   1.629   4.156   1.570  0.9944  1.7432  2.4984
 3374TIP3   OH231680   5.209   1.255   0.855 -0.2572 -0.1459 -0.0321
 3374TIP3    H131681   5.151   1.180   0.868  0.0103 -0.5214 -0.9370
 3374TIP3    H231682   5.154   1.331   0.871 -0.5703 -0.5288  0.7559
 3375TIP3   OH231683   0.551   5.786   8.400 -0.2278  0.1120 -0.3880
 3375TIP3    H131684   0.596   5.833   8.330 -0.2283  0.4984 -0.1334
 3375TIP3    H231685   0.581   5.696   8.392  0.4237  0.3229 -0.3592
 3376TIP3   OH231686   5.553   6.430   8.231 -0.2481  0.3087  0.0104
 3376TIP3    H131687   5.492   6.379   8.178  0.0709 -0.2914  0.2052
 3376TIP3    H231688   5.600   6.364   8.282 -2.7769  0.9599  3.5262
 3377TIP3   OH231689   0.542   5.426   7.626  0.0791  0.0396 -0.1351
 3377TIP3    H131690   0.631   5.416   7.594  1.0423  2.6123  1.4259
 3377TIP3    H231691   0.511   5.336   7.639  1.4412 -0.9939 -3.0811
 3378TIP3   OH231692   3.472   4.368   8.475  0.5651  0.2307 -0.2823
 3378TIP3    H131693   3.409   4.438   8.495  0.2412 -0.5883  1.8722
 3378TIP3    H231694   3.435   4.323   8.399 -2.8162 -1.6382  2.1964
 3379TIP3   OH231695   1.693   1.462   0.862  0.2941 -0.2006 -0.3296
 3379TIP3    H131696   1.598   1.464   0.871  0.3846 -0.4273  0.8840
 3379TIP3    H231697   1.712   1.518   0.787 -0.7449  0.4694 -0.1068
 3380TIP3   OH231698   4.041   5.402   7.910 -0.4230 -0.7206  0.3426
 3380TIP3    H131699   4.009   5.354   7.833 -0.2328  0.2736 -0.3844
 3380TIP3    H231700   4.051   5.492   7.879 -0.1318 -0.3434  1.4864
 3381TIP3   OH231701   6.034   1.809   1.145 -0.0517  0.1991 -0.4529
 3381TIP3    H131702   6.004   1.844   1.061  1.1717  0.2498 -0.8925
 3381TIP3    H231703   5.970   1.741   1.166 -1.1841  1.1319 -0.7043
 3382TIP3   OH231704   5.272   2.191   1.821  0.2476  0.4834 -0.6430
 3382TIP3    H131705   5.189   2.164   1.859  1.8004 -1.2337  1.8391
 3382TIP3    H231706   5.307   2.112   1.780  2.5754 -0.2194  2.3054
 3383TIP3   OH231707   1.717   5.710   1.021  0.0910  0.4600 -0.5403
 3383TIP3    H131708   1.711   5.762   1.101  2.5986 -0.5002  0.3457
 3383TIP3    H231709   1.629   5.715   0.984 -1.9978 -1.0705  3.5272
 3384TIP3   OH231710   1.175   5.813   7.970 -0.1547 -0.4347  0.0227
 3384TIP3    H131711   1.147   5.774   7.886  1.8080  0.7874 -1.2916
 3384TIP3    H231712   1.183   5.906   7.951  1.4819 -0.2912  1.2089
 3385TIP3   OH231713   3.156   4.139   1.898  0.3500 -0.1117  0.2607
 3385TIP3    H131714   3.164   4.103   1.810  0.4003  0.2555  0.1097
 3385TIP3    H231715   3.144   4.063   1.955 -1.8112 -0.2437 -0.2969
 3386TIP3   OH231716   5.168   3.489   2.340  0.1122 -0.6236  0.0707
 3386TIP3    H131717   5.159   3.557   2.407  0.4912  0.0158 -0.5182
 3386TIP3    H231718   5.247   3.441   2.366  0.4670 -0.1455 -0.1175
 3387TIP3   OH231719   3.540   5.421   7.281  0.0624  0.2386 -0.0667
 3387TIP3    H131720   3.469   5.475   7.248 -0.3163 -1.3040 -1.9761
 3387TIP3    H231721   3.500   5.335   7.295  1.5116 -0.6554 -1.1809
 3388TIP3   OH231722   1.965   3.580   8.368  0.5836 -0.1249 -0.5884
 3388TIP3    H131723   1.939   3.629   8.446  0.5188 -3.0941  1.4103
 3388TIP3    H231724   1.883   3.549   8.331  0.7037 -0.1632 -0.8221
 3389TIP3   OH231725   0.603   0.116   2.783 -0.1024  0.0417 -0.1496
 3389TIP3    H131726   0.680   0.099   2.729  0.5802 -0.8988  1.0836
 3389TIP3    H231727   0.634   0.176   2.851 -0.1004 -1.2808  1.0724
 3390TIP3   OH231728   4.513   0.263   7.397  0.0397 -0.0294 -0.6256
 3390TIP3    H131729   4.444   0.306   7.347 -0.8081 -0.4167  0.1961
 3390TIP3    H231730   4.479   0.175   7.415  2.1332 -1.5078 -3.1483
 3391TIP3   OH231731   1.654   3.025   1.166 -0.3695 -0.5840 -0.5483
 3391TIP3    H131732   1.684   2.999   1.254 -0.5910  0.4690 -0.1528
 3391TIP3    H231733   1.728   3.007   1.109 -0.4218 -1.8562 -0.2679
 3392TIP3   OH231734   1.142   6.068   7.441  0.3559 -0.1482  0.1916
 3392TIP3    H131735   1.090   6.004   7.490  0.7411 -0.7804 -0.2192
 3392TIP3    H231736   1.077   6.117   7.389 -0.0099  0.2532  1.0083
 3393TIP3   OH231737   6.019   3.397   6.842 -0.0886 -0.4306 -0.7434
 3393TIP3    H131738   6.035   3.486   6.812  0.4139 -0.0948  0.4809
 3393TIP3    H231739   6.082   3.344   6.791 -3.1864 -0.7976 -4.6717
 3394TIP3   OH231740   2.344   3.048   0.837  0.2015  0.2046  0.4691
 3394TIP3    H131741   2.330   2.962   0.878 -0.4712  0.2383  0.3263
 3394TIP3    H231742   2.393   3.028   0.757 -1.7580 -0.3342 -0.6858
 3395TIP3   OH231743   2.855   3.317   6.303  0.2149 -0.2926  0.2781
 3395TIP3    H131744   2.806   3.388   6.346 -0.1194  0.0688 -0.6661
 3395TIP3    H231745   2.938   3.313   6.351  0.1291  0.5560  0.5216
 3396TIP3   OH231746   1.373   2.657   8.027 -0.0264  0.4700  0.4184
 3396TIP3    H131747   1.372   2.650   8.123 -2.3476  0.5895  0.4532
 3396TIP3    H231748   1.340   2.745   8.009 -0.6812  0.0522 -0.4927
 3397TIP3   OH231749   3.264   6.779   8.470 -0.0483 -0.1047  0.3566
 3397TIP3    H131750   3.309   6.741   8.546  1.2243 -1.1191 -0.8595
 3397TIP3    H231751   3.173   6.750   8.478 -0.0035  0.0601  1.6382
 3398TIP3   OH231752   5.152   2.315   6.784  0.1950  0.0003 -0.0448
 3398TIP3    H131753   5.246   2.324   6.799  0.1176 -0.4931  0.8092
 3398TIP3    H231754   5.120   2.405   6.774  0.7755  0.1606 -0.5299
 3399TIP3   OH231755   6.522   1.797   7.933  0.1394  0.0934 -0.1994
 3399TIP3    H131756   6.512   1.803   7.838  0.4418 -1.2623 -0.3253
 3399TIP3    H231757   6.600   1.744   7.946  1.3155  1.9478  0.8270
 3400TIP3   OH231758   6.576   2.686   2.075  0.1103 -0.3190 -0.3315
 3400TIP3    H131759   6.487   2.718   2.089 -0.3637 -1.8470  0.2305
 3400TIP3    H231760   6.631   2.746   2.126 -0.6877  0.0059  0.1623
 3401TIP3   OH231761   4.730   2.570   7.192 -1.0916 -0.6412 -0.1670
 3401TIP3    H131762   4.690   2.657   7.186 -0.5388 -0.4821 -2.5414
 3401TIP3    H231763   4.817   2.586   7.228 -1.0967 -0.2381 -0.3323
 3402TIP3   OH231764   4.614   3.526   7.076 -0.4156  0.1703 -0.3182
 3402TIP3    H131765   4.593   3.534   7.169 -1.6931 -0.1203 -0.5695
 3402TIP3    H231766   4.670   3.602   7.057 -0.3424  0.3565  0.6294
 3403TIP3   OH231767   4.205   2.131   1.016 -0.3399  0.1986  0.5200
 3403TIP3    H131768   4.233   2.041   1.031  0.3389 -0.0107 -1.7165
 3403TIP3    H231769   4.113   2.124   0.992 -0.3843  0.1618  0.6937
 3404TIP3   OH231770   4.828   1.644   1.677  0.0380  0.1189  1.4703
 3404TIP3    H131771   4.755   1.599   1.635  0.8392  1.2184 -1.3614
 3404TIP3    H231772   4.786   1.706   1.737 -1.4778  1.1469 -0.5176
 3405TIP3   OH231773   6.093   1.517   1.286  0.2305 -0.8371  0.2428
 3405TIP3    H131774   6.016   1.563   1.319  0.3381  0.1668 -0.8355
 3405TIP3    H231775   6.167   1.571   1.314  0.4567 -1.0978  0.1521
 3406TIP3   OH231776   3.930   4.869   1.298  0.0354  0.5081 -0.1115
 3406TIP3    H131777   3.944   4.807   1.370 -0.3496  1.2723  0.6350
 3406TIP3    H231778   3.987   4.837   1.228  0.6461 -0.0757  0.6342
 3407TIP3   OH231779   6.787   4.347   7.110  0.4853 -0.4921 -0.3932
 3407TIP3    H131780   6.857   4.284   7.094 -0.2089 -0.7565 -2.8991
 3407TIP3    H231781   6.820   4.429   7.073  0.3708 -0.0216  0.5280
 3408TIP3   OH231782   2.943   4.642   0.272  0.3986  0.3768  0.0073
 3408TIP3    H131783   2.936   4.547   0.282  0.2652 -0.0266 -2.9896
 3408TIP3    H231784   2.853   4.673   0.278  0.0257 -0.1507 -2.2091
 3409TIP3   OH231785   2.838   1.128   8.205  0.6337  0.2625  0.2895
 3409TIP3    H131786   2.783   1.130   8.284  0.8355 -1.7019  0.5131
 3409TIP3    H231787   2.884   1.045   8.210  1.2125  0.4410 -1.5429
 3410TIP3   OH231788   3.619   0.037   1.831  0.0849  0.6853  0.3995
 3410TIP3    H131789   3.534   0.069   1.799  0.3595  0.6181 -0.4271
 3410TIP3    H231790   3.598  -0.007   1.914 -0.5545  1.4376  0.6478
 3411TIP3   OH231791   3.663   5.636   6.875 -0.2900 -0.3402 -0.4022
 3411TIP3    H131792   3.572   5.615   6.854 -0.0603 -1.5960 -0.2011
 3411TIP3    H231793   3.714   5.584   6.813  0.3089 -0.3762  0.1170
 3412TIP3   OH231794   4.128   0.492   1.505 -0.2765 -0.3839 -0.7066
 3412TIP3    H131795   4.137   0.587   1.502  0.1941 -0.4540 -2.3801
 3412TIP3    H231796   4.194   0.463   1.568  1.4527  0.2265 -2.1552
 3413TIP3   OH231797   2.412   6.136   7.679 -0.0094  0.0891 -0.6437
 3413TIP3    H131798   2.400   6.048   7.715 -0.5604  0.5005  0.2052
 3413TIP3    H231799   2.503   6.137   7.649 -0.0776 -0.8622 -0.9410
 3414TIP3   OH231800   3.504   2.450   1.414  0.0837  0.3681 -0.7809
 3414TIP3    H131801   3.498   2.544   1.395 -0.2347  0.6434  0.5689
 3414TIP3    H231802   3.463   2.440   1.500 -1.3154 -1.2564 -1.5755
 3415TIP3   OH231803   3.800   3.306   8.529  0.2204  0.5064 -0.2269
 3415TIP3    H131804   3.746   3.297   8.607 -1.7282  0.6130 -1.4961
 3415TIP3    H231805   3.835   3.218   8.513  1.1261  0.6015  1.0391
 3416TIP3   OH231806   5.103   0.490   7.532  0.5616 -0.2902  0.5600
 3416TIP3    H131807   5.078   0.437   7.455 -0.7362  0.5790  0.3461
 3416TIP3    H231808   5.126   0.425   7.599 -2.2458 -1.2573  0.7378
 3417TIP3   OH231809   0.016   4.723   0.098  0.6188  0.0351  0.5310
 3417TIP3    H131810   0.083   4.735   0.166  1.6572  0.3241 -0.5070
 3417TIP3    H231811   0.049   4.774   0.023 -0.6635  0.0005 -0.0833
 3418TIP3   OH231812   2.174   3.162   1.430 -0.1727  0.0469 -0.2077
 3418TIP3    H131813   2.101   3.210   1.391  1.5626  1.8274 -1.4602
 3418TIP3    H231814   2.251   3.191   1.381  1.7410  0.0585  2.5545
 3419TIP3   OH231815   4.406   5.481   7.258 -0.0648 -0.3445 -0.5311
 3419TIP3    H131816   4.315   5.451   7.262 -0.1476 -0.0406 -0.1109
 3419TIP3    H231817   4.448   5.423   7.194 -1.0400  0.7846 -2.2906
 3420TIP3   OH231818   5.646   0.018   1.909  0.1298 -0.4494 -0.6645
 3420TIP3    H131819   5.644   0.086   1.842  0.5691 -0.5061 -0.7407
 3420TIP3    H231820   5.676   0.062   1.988 -2.0225  0.0011 -0.0243
 3421TIP3   OH231821   1.012   1.048   7.517 -0.0136  0.1250  0.1489
 3421TIP3    H131822   1.043   1.121   7.463 -1.6323  0.0035 -1.0229
 3421TIP3    H231823   1.049   1.065   7.603  0.8510  1.5236 -0.4553
 3422TIP3   OH231824   0.677   4.954   7.771 -0.7569 -0.3442  0.2634
 3422TIP3    H131825   0.644   4.876   7.726 -0.5054  0.2314 -0.9504
 3422TIP3    H231826   0.772   4.943   7.770 -0.7387 -0.1908  0.3992
 3423TIP3   OH231827   5.784   1.945   8.402 -0.3295  0.2548 -0.1831
 3423TIP3    H131828   5.761   1.966   8.492 -0.2344 -1.1306  0.1770
 3423TIP3    H231829   5.818   2.027   8.366 -0.8580  0.9475  0.8767
 3424TIP3   OH231830   4.395   4.264   6.318 -0.1341 -0.3254  0.4430
 3424TIP3    H131831   4.342   4.305   6.386 -1.5024 -0.2335 -0.6304
 3424TIP3    H231832   4.383   4.320   6.241  1.6373 -0.2401  0.2010
 3425TIP3   OH231833   5.457   2.074   7.515  0.3121  0.1151  0.9955
 3425TIP3    H131834   5.516   2.032   7.452 -0.7447 -0.0045  0.0478
 3425TIP3    H231835   5.421   2.001   7.565  1.0277  0.1965  1.6382
 3426TIP3   OH231836   4.878   2.087   0.968  0.3519  0.0374 -0.3348
 3426TIP3    H131837   4.840   2.175   0.957  2.0041  0.7278 -0.7601
 3426TIP3    H231838   4.804   2.028   0.954 -1.0932  1.3573  1.1885
 3427TIP3   OH231839   1.427   2.436   1.568 -0.4047  0.1199 -0.3387
 3427TIP3    H131840   1.338   2.443   1.534 -0.4813 -0.8542 -0.3521
 3427TIP3    H231841   1.416   2.415   1.661 -0.1821  0.9157 -0.1174
 3428TIP3   OH231842   1.855   3.253   0.233 -0.3585  0.1495 -0.5552
 3428TIP3    H131843   1.914   3.259   0.157 -0.3693 -0.0335 -0.5779
 3428TIP3    H231844   1.768   3.268   0.196 -0.3207  0.5022 -0.5089
 3429TIP3   OH231845   3.080   2.258   0.512 -0.1183  0.5090  0.2830
 3429TIP3    H131846   2.994   2.288   0.540 -0.0882  1.6483 -0.7931
 3429TIP3    H231847   3.102   2.189   0.574 -1.3316  0.9346  1.2261
 3430TIP3   OH231848   1.135   4.548   6.857 -0.3074  0.0842  0.3033
 3430TIP3    H131849   1.047   4.532   6.892 -0.7525  0.2323 -0.6979
 3430TIP3    H231850   1.157   4.636   6.887 -0.2327 -0.1977  1.0868
 3431TIP3   OH231851   4.331   4.034   0.714  0.4304  0.0613 -0.4511
 3431TIP3    H131852   4.386   4.065   0.785 -0.0846  1.0430 -0.4663
 3431TIP3    H231853   4.255   4.092   0.715 -0.7230 -1.3853 -0.2968
 3432TIP3   OH231854   5.871   0.715   7.870  0.2765  0.4969 -0.2439
 3432TIP3    H131855   5.938   0.665   7.823 -1.0572 -0.1424 -1.5124
 3432TIP3    H231856   5.840   0.656   7.939 -0.6994 -0.1563 -1.2117
 3433TIP3   OH231857   5.028   3.197   1.861 -0.4395  0.6267  0.2443
 3433TIP3    H131858   5.112   3.194   1.815 -0.3567  4.3742 -0.2024
 3433TIP3    H231859   4.990   3.111   1.847  3.0247 -1.0527 -0.0248
 3434TIP3   OH231860   2.964   6.154   0.767 -0.8995 -0.0458 -0.4054
 3434TIP3    H131861   2.986   6.079   0.712  1.2310  0.2167  0.0139
 3434TIP3    H231862   2.941   6.224   0.706  2.1427  0.4707 -1.1154
 3435TIP3   OH231863   1.855   3.948   1.522 -0.2539 -0.1280 -0.2564
 3435TIP3    H131864   1.776   3.980   1.567  0.6751  1.6225  0.2153
 3435TIP3    H231865   1.828   3.940   1.431 -1.3115 -0.7558  0.0853
 3436TIP3   OH231866   1.794   5.199   8.610  0.4688  0.0792 -0.2589
 3436TIP3    H131867   1.749   5.127   8.566  0.0027 -0.4703  1.0547
 3436TIP3    H231868   1.848   5.156   8.677  0.2577  0.9327  0.4785
 3437TIP3   OH231869   2.035   2.361   1.843  0.3238  0.5540 -0.4227
 3437TIP3    H131870   2.069   2.364   1.932  1.0998  3.0539 -0.7201
 3437TIP3    H231871   1.946   2.394   1.850 -0.1501 -0.6885 -0.3977
 3438TIP3   OH231872   4.246   2.279   7.580  0.2540 -0.1746  0.1186
 3438TIP3    H131873   4.275   2.369   7.589 -1.5604  0.5787 -0.9976
 3438TIP3    H231874   4.315   2.237   7.528  0.4675  0.9400 -0.5401
 3439TIP3   OH231875   4.937   1.919   1.620  0.6533  0.2234  0.1941
 3439TIP3    H131876   4.927   1.826   1.599  1.5746  0.2786 -0.5376
 3439TIP3    H231877   4.852   1.945   1.656 -0.2422 -0.4202 -1.3834
 3440TIP3   OH231878   4.095   4.149   1.153  0.2349  0.3510 -0.1979
 3440TIP3    H131879   4.115   4.103   1.234  0.4702 -1.3782 -1.1922
 3440TIP3    H231880   4.180   4.159   1.110  0.0277  0.6467 -0.5435
 3441TIP3   OH231881   4.156   5.153   0.479  0.1493  0.2015  0.6418
 3441TIP3    H131882   4.139   5.158   0.573 -1.8672  1.1328  0.2689
 3441TIP3    H231883   4.243   5.112   0.473 -0.2371 -1.1366  2.8565
 3442TIP3   OH231884   2.628   4.504   8.012 -0.1866  0.2472 -0.0155
 3442TIP3    H131885   2.719   4.512   8.040 -0.8724  2.6512  1.8261
 3442TIP3    H231886   2.585   4.452   8.080 -0.7092  1.4130  0.5765
 3443TIP3   OH231887   5.091   6.608   0.101  0.6809 -0.3886 -0.2570
 3443TIP3    H131888   5.136   6.692   0.102  0.3256 -0.1990  0.6335
 3443TIP3    H231889   5.161   6.543   0.106  0.8815 -0.0958  1.3256
 3444TIP3   OH231890   1.434   1.488   7.655 -0.1062  0.4795 -0.0385
 3444TIP3    H131891   1.369   1.533   7.601 -0.2369  1.2457  0.7444
 3444TIP3    H231892   1.393   1.480   7.741 -0.2808 -1.5930 -0.2674
 3445TIP3   OH231893   5.811   5.770   7.438 -0.2990 -0.3987  0.2570
 3445TIP3    H131894   5.753   5.793   7.366 -1.8733 -0.8757  1.2950
 3445TIP3    H231895   5.855   5.690   7.409  0.2637  0.2654 -0.7603
 3446TIP3   OH231896   3.197   1.949   1.723  0.4351 -0.1883  0.0956
 3446TIP3    H131897   3.228   1.961   1.633  0.4338 -0.1287  0.1031
 3446TIP3    H231898   3.207   1.855   1.739 -0.1166 -0.2985 -0.1677
 3447TIP3   OH231899   4.468   2.447   0.687 -0.2361  0.4205  0.4164
 3447TIP3    H131900   4.545   2.484   0.643  0.1241  0.2887  0.9205
 3447TIP3    H231901   4.396   2.505   0.663  0.5070  2.1791  2.1131
 3448TIP3   OH231902   0.405   6.124   0.133  0.2481  0.2316 -0.0323
 3448TIP3    H131903   0.483   6.129   0.078  0.1475  0.4777 -0.1560
 3448TIP3    H231904   0.352   6.200   0.107 -0.5223 -0.5189 -0.6925
 3449TIP3   OH231905   6.024   3.345   0.609  0.3464 -0.0141  0.1979
 3449TIP3    H131906   6.003   3.283   0.540  0.6524 -0.1339  0.2074
 3449TIP3    H231907   6.085   3.407   0.568 -0.0334  0.3405  0.1598
 3450TIP3   OH231908   0.961   3.400   1.879  0.0522  0.6030  0.6312
 3450TIP3    H131909   1.021   3.472   1.898 -0.7823  1.2164  1.0165
 3450TIP3    H231910   0.981   3.335   1.946 -0.7617  1.4608  1.7437
 3451TIP3   OH231911   4.514   3.996   1.722 -0.0586 -0.4952  0.0431
 3451TIP3    H131912   4.458   3.940   1.669 -1.1928  0.5032  0.1599
 3451TIP3    H231913   4.544   3.940   1.793 -1.2746 -0.9293  0.2315
 3452TIP3   OH231914   1.816   3.230   1.684  0.3310  0.0115  0.2579
 3452TIP3    H131915   1.839   3.318   1.654 -0.6916 -0.2316 -1.3467
 3452TIP3    H231916   1.727   3.238   1.718 -1.3543 -1.0221 -3.4059
 3453TIP3   OH231917   3.963   5.597   0.611  0.2892  0.6933 -0.4604
 3453TIP3    H131918   3.997   5.522   0.562  0.2126  0.2799  0.1049
 3453TIP3    H231919   3.876   5.569   0.641  1.4759 -0.2996  2.4854
 3454TIP3   OH231920   0.695   1.196   7.434  0.0409  0.1537  0.5123
 3454TIP3    H131921   0.687   1.125   7.498  0.8953  0.2030  0.6755
 3454TIP3    H231922   0.608   1.199   7.392 -0.0636 -0.8738  0.6109
 3455TIP3   OH231923   2.791   0.489   6.939  0.0017  0.4172  0.2903
 3455TIP3    H131924   2.867   0.519   6.989  0.7251 -1.1908  0.2015
 3455TIP3    H231925   2.748   0.570   6.911 -0.8271  1.4538  4.0303
 3456TIP3   OH231926   2.990   0.362   1.587 -0.2774 -0.2036  0.3910
 3456TIP3    H131927   2.914   0.420   1.582 -0.8297 -0.9365  0.0881
 3456TIP3    H231928   3.012   0.344   1.495  0.2996  0.0419  0.4766
 3457TIP3   OH231929   0.010   2.682   7.619 -0.2567 -0.4548 -0.1554
 3457TIP3    H131930   0.069   2.608   7.603 -0.0849 -0.7583  1.7269
 3457TIP3    H231931   0.021   2.703   7.711 -1.5061  0.8944 -0.2698
 3458TIP3   OH231932   0.910   5.990   8.153 -0.3618 -0.0441 -0.1680
 3458TIP3    H131933   0.825   6.028   8.177 -0.4780  0.7959 -1.7674
 3458TIP3    H231934   0.963   6.066   8.127  0.8049 -0.5905  0.5096
 3459TIP3   OH231935   3.166   3.053   1.669  0.6993  0.2987 -0.4219
 3459TIP3    H131936   3.176   3.000   1.591  2.9479 -0.4274  0.2992
 3459TIP3    H231937   3.087   3.105   1.653  0.9759  0.0111 -3.0380
 3460TIP3   OH231938   4.931   0.719   7.102  0.3892 -0.6595  0.1330
 3460TIP3    H131939   4.982   0.716   7.183  0.9340 -0.6437 -0.2045
 3460TIP3    H231940   4.986   0.768   7.041  0.7404 -2.1228 -0.7688
 3461TIP3   OH231941   1.991   1.150   1.226  0.4396 -0.1264  0.0917
 3461TIP3    H131942   1.953   1.149   1.138 -0.9906 -0.4660  0.7000
 3461TIP3    H231943   1.945   1.081   1.273  0.0209  1.1102  1.5826
 3462TIP3   OH231944   1.138   0.447   0.598  0.2329 -0.2889  0.4590
 3462TIP3    H131945   1.229   0.418   0.592  0.5028  0.8542 -3.1416
 3462TIP3    H231946   1.088   0.379   0.552 -0.6362 -0.3749  1.4740
 3463TIP3   OH231947   0.539   2.946   2.359 -0.3026 -0.2372  0.5526
 3463TIP3    H131948   0.546   3.034   2.396  1.1447 -0.2759  0.4518
 3463TIP3    H231949   0.467   2.951   2.297  0.0011  0.9898  0.2766
 3464TIP3   OH231950   1.798   0.104   7.187  0.5088  0.3109  0.2049
 3464TIP3    H131951   1.712   0.136   7.161  0.8397  1.4826  0.5048
 3464TIP3    H231952   1.807   0.020   7.142 -0.5416  0.4587 -0.3008
 3465TIP3   OH231953   0.256   5.199   0.188  0.1437  0.0225  0.1010
 3465TIP3    H131954   0.209   5.280   0.170  1.0739  0.8080  1.0191
 3465TIP3    H231955   0.279   5.205   0.281  0.4482 -1.1875  0.1257
 3466TIP3   OH231956   4.425   2.288   0.937 -0.0024  0.5578  0.2326
 3466TIP3    H131957   4.438   2.349   0.864  1.5324 -2.2898 -2.0884
 3466TIP3    H231958   4.336   2.256   0.926  0.3171 -0.0706 -0.6053
 3467TIP3   OH231959   0.151   2.126   2.283  0.0746 -0.2726 -0.2461
 3467TIP3    H131960   0.148   2.203   2.340  0.1943 -0.2766 -0.2357
 3467TIP3    H231961   0.244   2.106   2.274  0.0124 -0.7835  0.2439
 3468TIP3   OH231962   5.389   5.290   8.858  0.0440  0.1823 -0.8207
 3468TIP3    H131963   5.446   5.322   8.928 -0.9015 -0.4048  0.2468
 3468TIP3    H231964   5.332   5.364   8.838 -0.7967 -0.1679  0.2235
 3469TIP3   OH231965   3.475   5.445   0.824  0.3348 -0.4628 -0.3501
 3469TIP3    H131966   3.449   5.373   0.882 -1.0124  0.0178 -0.3374
 3469TIP3    H231967   3.456   5.524   0.875 -0.3125 -0.0507 -1.2161
 3470TIP3   OH231968   3.056   6.688   7.438 -0.2551 -0.2761  0.2938
 3470TIP3    H131969   3.051   6.701   7.533  0.3414  2.5578  0.0448
 3470TIP3    H231970   3.126   6.625   7.426 -1.5611 -2.1229  1.7506
 3471TIP3   OH231971   1.990   1.081   2.367  0.3423 -0.1425 -0.1778
 3471TIP3    H131972   1.977   1.136   2.445 -1.3822 -2.4989  1.3110
 3471TIP3    H231973   1.917   1.103   2.310  0.8680  0.6105 -0.5931
 3472TIP3   OH231974   0.905   3.153   6.703 -0.2001 -0.1998 -0.8862
 3472TIP3    H131975   0.856   3.199   6.635  0.1171  1.9620  0.2646
 3472TIP3    H231976   0.930   3.221   6.765  1.1299 -1.8118  0.4481
 3473TIP3   OH231977   5.736   2.846   7.693 -0.3955  0.3828 -0.6459
 3473TIP3    H131978   5.825   2.811   7.695 -0.5199  0.0800  0.9254
 3473TIP3    H231979   5.681   2.774   7.722 -0.9938  0.9691 -0.2874
 3474TIP3   OH231980   6.719   5.187   0.415 -0.5317 -0.0665 -0.1585
 3474TIP3    H131981   6.790   5.128   0.390 -0.7445 -0.0734 -0.7719
 3474TIP3    H231982   6.758   5.274   0.409 -0.5817 -0.0673 -0.5384
 3475TIP3   OH231983   5.986   5.634   8.472  0.4103  0.2159  0.2556
 3475TIP3    H131984   5.967   5.595   8.387  3.7317  0.0748 -0.5595
 3475TIP3    H231985   5.918   5.700   8.484  0.3985  0.9566 -3.0284
 3476TIP3   OH231986   6.315   0.771   1.108  0.1199  0.4312 -0.4272
 3476TIP3    H131987   6.233   0.819   1.121 -0.2341 -0.0011 -1.0386
 3476TIP3    H231988   6.297   0.683   1.140  0.7650  0.6719  0.6695
 3477TIP3   OH231989   3.524   0.163   2.262 -0.0826 -0.2185  0.1811
 3477TIP3    H131990   3.456   0.229   2.263  0.0930  0.0018 -0.9307
 3477TIP3    H231991   3.600   0.205   2.304 -0.7494 -0.6409  1.8976
 3478TIP3   OH231992   2.055   0.306   2.192  0.2736 -0.2519 -0.3369
 3478TIP3    H131993   1.981   0.358   2.224 -0.0362 -0.2567 -1.0440
 3478TIP3    H231994   2.124   0.322   2.257 -0.2031  0.0910  0.0995
 3479TIP3   OH231995   3.057   3.790   8.560  0.2249  0.5175  0.0973
 3479TIP3    H131996   3.000   3.722   8.597  0.9067  0.3233  0.8315
 3479TIP3    H231997   3.001   3.867   8.551  0.0391  0.6034  1.6479
 3480TIP3   OH231998   5.371   2.938   8.806 -0.0914 -0.6365  0.3025
 3480TIP3    H131999   5.325   2.859   8.778 -0.3430 -0.7255  0.9374
 3480TIP3    H232000   5.463   2.921   8.787 -0.2362 -0.7525 -0.3076
 3481TIP3   OH232001   1.864   0.346   0.921  0.5631  0.2207  0.3709
 3481TIP3    H132002   1.787   0.366   0.973 -0.2348  0.5010 -0.8578
 3481TIP3    H232003   1.911   0.429   0.914 -0.3219  0.6460 -0.8857
 3482TIP3   OH232004   4.515   0.904   7.397  0.5408  0.4828 -0.3086
 3482TIP3    H132005   4.476   0.920   7.311 -1.9479  2.3295  1.0179
 3482TIP3    H232006   4.574   0.978   7.410  0.4844  0.5109 -0.2131
 3483TIP3   OH232007   2.522   1.245   6.896  0.0098  0.2969  0.1618
 3483TIP3    H132008   2.514   1.167   6.841  1.9042 -0.0658  0.3140
 3483TIP3    H232009   2.591   1.297   6.854  1.1849  0.2276  1.8784
 3484TIP3   OH232010   5.031   1.890   1.115 -0.1645  0.1908  0.3516
 3484TIP3    H132011   4.971   1.832   1.069  1.1214 -0.5441 -0.4607
 3484TIP3    H232012   5.021   1.975   1.071  0.7934 -0.4154 -1.1031
 3485TIP3   OH232013   5.053   6.740   1.443 -0.2691 -0.1092 -0.1999
 3485TIP3    H132014   4.997   6.671   1.409 -0.1973 -0.2640 -0.0074
 3485TIP3    H232015   5.015   6.763   1.528 -2.0305  2.1299 -1.4876
 3486TIP3   OH232016   1.881   4.799   1.357 -0.8838  0.2233 -0.1533
 3486TIP3    H132017   1.868   4.706   1.378 -0.2990  0.2259  0.2554
 3486TIP3    H232018   1.829   4.846   1.421 -0.3866  0.1915  0.2875
 3487TIP3   OH232019   5.356   0.815   0.383  0.5571 -0.1778  0.1273
 3487TIP3    H132020   5.336   0.889   0.326 -0.9805  0.4586  1.4103
 3487TIP3    H232021   5.331   0.738   0.332  0.7586  0.2689 -0.6659
 3488TIP3   OH232022   0.220   5.754   0.695  0.1636  0.5244 -0.0412
 3488TIP3    H132023   0.188   5.774   0.607  0.3220 -1.5547 -0.6253
 3488TIP3    H232024   0.141   5.732   0.745  0.1983  0.4604 -0.0150
 3489TIP3   OH232025   3.547   0.644   0.667 -0.1543 -0.5826  0.0488
 3489TIP3    H132026   3.591   0.657   0.583 -0.0291 -1.1725  0.0173
 3489TIP3    H232027   3.539   0.549   0.675 -1.2482 -0.4884  0.1529
 3490TIP3   OH232028   1.325   3.583   0.406 -0.7780  0.1536 -0.2146
 3490TIP3    H132029   1.241   3.587   0.360 -1.6457 -0.5182  1.2236
 3490TIP3    H232030   1.303   3.602   0.498  0.3765 -1.6313  0.4827
 3491TIP3   OH232031   4.614   5.513   1.341  0.0188  0.3486 -0.3621
 3491TIP3    H132032   4.697   5.468   1.353 -1.4977 -2.5831  0.0442
 3491TIP3    H232033   4.619   5.590   1.398  1.1960 -1.5789  2.3017
 3492TIP3   OH232034   0.408   4.863   2.284  0.7264 -0.6095  0.4765
 3492TIP3    H132035   0.428   4.808   2.359 -1.6462 -1.8483  0.3026
 3492TIP3    H232036   0.314   4.855   2.273  1.0181 -0.8607 -2.8986
 3493TIP3   OH232037   2.496   0.729   7.463  1.1044 -0.1600  0.5977
 3493TIP3    H132038   2.515   0.678   7.542  1.4816 -1.1089 -0.0864
 3493TIP3    H232039   2.478   0.663   7.396  0.0964  0.6415  0.0476
 3494TIP3   OH232040   2.221   1.808   2.135 -0.2131  0.6671  0.4541
 3494TIP3    H132041   2.139   1.803   2.087  0.5058 -1.5566 -0.6874
 3494TIP3    H232042   2.194   1.822   2.226 -1.7154  2.1743 -0.1640
 3495TIP3   OH232043   6.266   3.595   7.177  0.1418  0.6420  0.1507
 3495TIP3    H132044   6.357   3.590   7.149  0.1094  0.3138  0.0921
 3495TIP3    H232045   6.234   3.678   7.142  0.6093  1.0863  0.7594
 3496TIP3   OH232046   2.618   3.551   2.290  0.3184  0.0958 -1.0938
 3496TIP3    H132047   2.542   3.523   2.342  0.5181 -0.4907 -1.1113
 3496TIP3    H232048   2.641   3.637   2.326 -0.6788  0.5148 -1.4381
 3497TIP3   OH232049   1.714   3.554   0.253 -0.2126  0.3110  0.1143
 3497TIP3    H132050   1.645   3.496   0.286  0.7769 -0.0014  1.7080
 3497TIP3    H232051   1.710   3.631   0.310  1.5502 -0.2530  1.0847
 3498TIP3   OH232052   0.711   2.838   2.766  0.4551 -0.0892  0.3111
 3498TIP3    H132053   0.627   2.793   2.772 -0.2980  1.1616 -0.4363
 3498TIP3    H232054   0.716   2.890   2.847 -1.3070  2.7527 -1.2397
 3499TIP3   OH232055   4.784   6.310   1.558  0.2374  0.1499 -0.3282
 3499TIP3    H132056   4.834   6.386   1.589 -0.8782  0.3908  1.0074
 3499TIP3    H232057   4.850   6.242   1.545  1.0617  0.8247  0.1802
 3500TIP3   OH232058   6.661   0.797   0.252 -0.0239 -0.1053  0.1493
 3500TIP3    H132059   6.575   0.811   0.289 -0.5638  0.1893 -1.1488
 3500TIP3    H232060   6.660   0.847   0.170  1.2706 -0.3309 -0.0254
 3501TIP3   OH232061   5.358   2.323   0.958 -0.0098 -0.1360  0.4556
 3501TIP3    H132062   5.393   2.411   0.973 -0.6991  0.2363 -0.0610
 3501TIP3    H232063   5.433   2.272   0.926  0.4137  0.2366  0.8410
 3502TIP3   OH232064   0.502   3.466   1.243  0.2525 -0.3782  0.2348
 3502TIP3    H132065   0.458   3.518   1.176 -0.0912  0.8212  1.3556
 3502TIP3    H232066   0.459   3.380   1.239 -0.7230  0.1125 -0.1154
 3503TIP3   OH232067   3.687   6.166   6.806 -0.2543 -0.1444 -0.0525
 3503TIP3    H132068   3.657   6.079   6.779  1.2297 -0.7802  0.2481
 3503TIP3    H232069   3.782   6.158   6.813 -0.0624  1.5664 -0.1997
 3504TIP3   OH232070   3.946   3.060   0.820  0.3946  1.1922  0.0190
 3504TIP3    H132071   3.868   3.101   0.859  0.7382  0.6409  1.3272
 3504TIP3    H232072   3.926   3.056   0.727 -2.3937 -1.5046  0.5834
 3505TIP3   OH232073   6.079   3.945   1.554  0.3114  0.2184 -0.4137
 3505TIP3    H132074   6.002   3.910   1.511  0.5738 -1.8560  0.6932
 3505TIP3    H232075   6.069   3.922   1.646  1.0290  2.2074  0.2269
 3506TIP3   OH232076   1.561   6.077   1.606 -0.1885  0.0702 -0.5974
 3506TIP3    H132077   1.639   6.049   1.653 -0.0115 -2.0930 -2.0296
 3506TIP3    H232078   1.488   6.046   1.659 -0.0106 -0.7059 -0.7895
 3507TIP3   OH232079   1.935   2.222   7.788 -0.4837 -0.1239  0.5947
 3507TIP3    H132080   1.841   2.214   7.802 -0.4570 -0.7784  0.4270
 3507TIP3    H232081   1.974   2.150   7.837 -0.0314  0.3980  1.0181
 3508TIP3   OH232082   0.834   1.867   1.437 -0.0008 -0.8148 -0.5446
 3508TIP3    H132083   0.744   1.887   1.413  0.5576 -0.0893 -2.1410
 3508TIP3    H232084   0.839   1.772   1.434 -0.7382 -0.8708 -0.3168
 3509TIP3   OH232085   6.035   3.742   7.535  0.2865 -0.1754  0.1228
 3509TIP3    H132086   6.001   3.681   7.470 -1.0023  0.0423  0.5604
 3509TIP3    H232087   6.075   3.812   7.483 -0.3475 -0.2178 -0.4418
 3510TIP3   OH232088   0.628   1.990   1.071 -0.6515  0.0279 -0.1884
 3510TIP3    H132089   0.544   1.985   1.025 -0.3106 -0.5625 -0.7569
 3510TIP3    H232090   0.685   2.039   1.012  0.2260 -2.0134 -1.1229
 3511TIP3   OH232091   1.077   1.323   2.565 -0.3457  0.1805 -0.4231
 3511TIP3    H132092   1.080   1.398   2.623 -2.0538  1.1237 -1.4913
 3511TIP3    H232093   0.989   1.287   2.575  0.4589 -1.7543  0.1270
 3512TIP3   OH232094   5.743   4.757   8.273 -0.6325  0.2391  0.0754
 3512TIP3    H132095   5.717   4.750   8.181  0.7014  0.9649 -0.3843
 3512TIP3    H232096   5.693   4.832   8.306 -0.5647  0.4458 -0.2810
 3513TIP3   OH232097   5.613   2.617   0.013  0.4030 -0.8290  0.2603
 3513TIP3    H132098   5.572   2.586  -0.067 -0.5188 -3.2604  1.5586
 3513TIP3    H232099   5.704   2.588   0.007  0.4165 -0.7254 -0.0329
 3514TIP3   OH232100   3.104   3.962   7.231 -0.3196  0.2588 -0.0301
 3514TIP3    H132101   3.103   4.015   7.151 -1.1215 -1.1888 -1.0376
 3514TIP3    H232102   3.192   3.974   7.267  0.0081  1.0601 -1.0430
 3515TIP3   OH232103   6.749   1.073   0.676 -0.2468 -0.3852  0.3462
 3515TIP3    H132104   6.753   1.147   0.616  0.0164  0.2978  1.1892
 3515TIP3    H232105   6.656   1.062   0.694 -0.3039 -0.4093  0.0414
 3516TIP3   OH232106   3.342   5.581   8.053 -0.3927  0.1324 -0.0715
 3516TIP3    H132107   3.422   5.633   8.054 -1.0340  1.2051 -1.1639
 3516TIP3    H232108   3.326   5.563   7.961 -1.2321 -0.3283  0.1497
 3517TIP3   OH232109   5.493   3.189   0.913  0.2213 -0.1195  0.7488
 3517TIP3    H132110   5.523   3.209   0.824  1.5513  2.0861  1.6198
 3517TIP3    H232111   5.473   3.096   0.910  0.9032 -0.2803 -1.6704
 3518TIP3   OH232112   6.334   0.099   7.241 -0.0709  0.2570  0.1242
 3518TIP3    H132113   6.255   0.152   7.232  1.0935  2.1430  0.2995
 3518TIP3    H232114   6.368   0.091   7.151  1.4336  2.6539  0.3899
 3519TIP3   OH232115   5.075   2.441   1.266 -0.2724  0.3928 -0.4831
 3519TIP3    H132116   4.990   2.485   1.270  0.0693  1.0092  0.1809
 3519TIP3    H232117   5.095   2.420   1.357  0.8440  1.3260 -0.5056
 3520TIP3   OH232118   2.006   2.916   7.172  0.0792  0.0568  0.1008
 3520TIP3    H132119   1.949   2.843   7.197 -1.2556  0.8452 -0.4769
 3520TIP3    H232120   2.001   2.977   7.245  0.3156  0.0564  0.1185
 3521TIP3   OH232121   3.171   6.211   1.439  0.2271  0.6898  0.0006
 3521TIP3    H132122   3.235   6.281   1.427 -0.5771  1.3259 -0.7060
 3521TIP3    H232123   3.104   6.250   1.495  0.1540  0.2292  0.2350
 3522TIP3   OH232124   4.764   2.187   0.294 -1.1537 -0.1191  0.5423
 3522TIP3    H132125   4.778   2.190   0.388  1.1698  2.6589  0.2295
 3522TIP3    H232126   4.831   2.126   0.262 -0.8819  0.1695  0.5575
 3523TIP3   OH232127   5.422   0.590   1.943 -0.1597  0.0941 -0.4674
 3523TIP3    H132128   5.507   0.549   1.929 -0.5202 -0.8782  0.0809
 3523TIP3    H232129   5.414   0.654   1.872  0.0837 -1.3363 -1.8314
 3524TIP3   OH232130   5.610   2.854   8.000  0.1925  0.4125 -0.7614
 3524TIP3    H132131   5.678   2.905   8.045  0.5398 -0.1816 -0.5953
 3524TIP3    H232132   5.557   2.919   7.955  1.4528  0.8188 -1.6983
 3525TIP3   OH232133   5.914   4.274   7.916 -0.0639  0.2315  0.2726
 3525TIP3    H132134   6.005   4.248   7.903  0.1025  1.3461 -1.0072
 3525TIP3    H232135   5.913   4.368   7.900 -1.7485 -0.0286 -1.5691
 3526TIP3   OH232136   5.830   2.603   7.447 -0.4181  0.2558 -0.5551
 3526TIP3    H132137   5.837   2.657   7.368  0.0406 -1.7021 -1.9168
 3526TIP3    H232138   5.818   2.666   7.518 -0.5930  2.0972 -2.1403
 3527TIP3   OH232139   1.603   6.572   1.565  0.0945  0.3225 -0.1602
 3527TIP3    H132140   1.673   6.528   1.614 -0.1687 -0.2930 -0.3177
 3527TIP3    H232141   1.649   6.628   1.503  0.4502  0.0792 -0.1231
 3528TIP3   OH232142   2.332   1.635   8.041 -0.2297  0.4735  0.0984
 3528TIP3    H132143   2.329   1.559   8.099 -1.6911  1.0342  0.8243
 3528TIP3    H232144   2.396   1.612   7.973  0.7450 -0.6214  1.3416
 3529TIP3   OH232145   4.338   5.841   8.267  0.5068 -0.3488 -0.5101
 3529TIP3    H132146   4.406   5.800   8.320  0.5267 -0.4817 -0.6371
 3529TIP3    H232147   4.369   5.831   8.177 -0.0718 -1.1298 -0.6300
 3530TIP3   OH232148   6.712   4.138   7.453  0.0086 -0.8044 -0.4993
 3530TIP3    H132149   6.676   4.224   7.431  1.0330 -0.4544 -0.8822
 3530TIP3    H232150   6.645   4.097   7.507 -1.3653 -0.5488 -1.9287
 3531TIP3   OH232151   2.676   1.832   1.175  0.5080  0.5816  0.8247
 3531TIP3    H132152   2.746   1.772   1.151 -2.5161 -1.7384 -3.5553
 3531TIP3    H232153   2.601   1.776   1.192 -2.2751  2.7645 -2.6739
 3532TIP3   OH232154   2.927   1.010   0.801 -0.8136  0.1499 -0.4929
 3532TIP3    H132155   2.969   1.089   0.832  0.4165 -0.1826 -1.2148
 3532TIP3    H232156   2.845   1.004   0.850 -0.0586  0.8740  0.9033
 3533TIP3   OH232157   1.602   2.610   8.591 -0.4045 -0.3181  0.1593
 3533TIP3    H132158   1.525   2.667   8.591 -1.4467 -1.6603 -1.0460
 3533TIP3    H232159   1.651   2.635   8.513 -1.1678 -1.3940 -0.7045
 3534TIP3   OH232160   2.622   2.462   7.637 -0.2341 -0.2432 -0.0471
 3534TIP3    H132161   2.633   2.395   7.570 -0.7815  1.6714 -2.1573
 3534TIP3    H232162   2.579   2.416   7.709 -1.2292 -2.0117 -1.6684
 3535TIP3   OH232163   0.872   1.340   1.534 -0.1287  0.7307  0.5109
 3535TIP3    H132164   0.901   1.307   1.449  0.4338  2.3446  0.0390
 3535TIP3    H232165   0.937   1.306   1.596 -0.8429 -0.8963  0.4053
 3536TIP3   OH232166   0.556   1.784   1.637 -0.5569 -0.1240 -0.1990
 3536TIP3    H132167   0.616   1.858   1.641 -0.6445 -0.1041  1.3230
 3536TIP3    H232168   0.612   1.709   1.617 -0.4029  0.2603 -1.2775
 3537TIP3   OH232169   6.648   0.481   2.135 -0.1015  0.2287 -0.0943
 3537TIP3    H132170   6.653   0.449   2.225 -1.1274  2.2807  0.7690
 3537TIP3    H232171   6.568   0.534   2.133  0.8679  1.7527 -1.6832
 3538TIP3   OH232172   2.109   3.620   1.030 -0.8963  0.0507 -0.1576
 3538TIP3    H132173   2.155   3.704   1.025 -1.1150  0.0882 -3.1621
 3538TIP3    H232174   2.027   3.640   1.074 -0.4227  1.1296  0.2764
 3539TIP3   OH232175   5.382   4.036   0.093  0.5011  0.5259  0.3191
 3539TIP3    H132176   5.421   3.962   0.138  0.5797  1.0196  1.0942
 3539TIP3    H232177   5.405   4.112   0.147 -0.5769  0.9632  0.2030
 3540TIP3   OH232178   0.404   0.401   2.768  0.6031  0.2920  0.5454
 3540TIP3    H132179   0.497   0.397   2.790  0.4525 -0.8529  1.0763
 3540TIP3    H232180   0.398   0.469   2.701  2.1248 -0.9399 -0.9374
 3541TIP3   OH232181   0.724   0.374   8.559 -0.1508  0.4725  0.1426
 3541TIP3    H132182   0.811   0.408   8.541  0.1356  0.4471  1.3902
 3541TIP3    H232183   0.739   0.291   8.604 -0.8303 -0.1170 -0.6873
 3542TIP3   OH232184   3.797   2.934   1.052 -0.0194  0.1051 -0.2124
 3542TIP3    H132185   3.758   2.921   0.966 -0.1149 -0.8162 -0.0321
 3542TIP3    H232186   3.782   2.853   1.099 -0.5881  0.8435  0.9363
 3543TIP3   OH232187   0.611   3.234   0.972  0.6035 -0.1386 -0.0847
 3543TIP3    H132188   0.634   3.293   0.900 -1.3967  0.9206  0.0702
 3543TIP3    H232189   0.516   3.232   0.971  0.4818  0.4250  2.9586
 3544TIP3   OH232190   0.319   0.686   1.372  1.0691  0.3166 -0.5613
 3544TIP3    H132191   0.406   0.668   1.335  1.4810  0.4800  0.3046
 3544TIP3    H232192   0.334   0.693   1.466 -0.2509 -1.8855 -0.1326
 3545TIP3   OH232193   2.022   0.810   7.545  0.1124  0.1379 -0.7425
 3545TIP3    H132194   2.107   0.800   7.587  0.3151  1.0571 -0.9110
 3545TIP3    H232195   2.027   0.753   7.468  0.4975  0.0177 -0.6308
 3546TIP3   OH232196   0.393   5.264   8.424 -0.1043 -0.0011  0.0799
 3546TIP3    H132197   0.383   5.302   8.337  1.3608  0.6008  0.1393
 3546TIP3    H232198   0.315   5.291   8.472 -1.0643 -0.5894 -1.1218
 3547TIP3   OH232199   3.181   1.480   0.303 -0.6688  0.0484  0.6034
 3547TIP3    H132200   3.102   1.467   0.356 -0.2221 -1.3858  0.9673
 3547TIP3    H232201   3.207   1.392   0.277  0.0620  0.6082 -0.6395
 3548TIP3   OH232202   0.765   5.417   0.522 -0.0606  0.1166 -0.1880
 3548TIP3    H132203   0.688   5.410   0.579  0.3173 -1.2243  0.2082
 3548TIP3    H232204   0.816   5.339   0.543  1.3502  0.9215 -0.5318
 3549TIP3   OH232205   6.663   0.830   6.587 -0.4603 -0.1800  0.3993
 3549TIP3    H132206   6.742   0.863   6.630 -0.3932 -0.4443  0.4792
 3549TIP3    H232207   6.696   0.771   6.519 -0.3573  2.9191 -2.4654
 3550TIP3   OH232208   1.398   1.797   1.048  0.2526  0.1375 -0.1838
 3550TIP3    H132209   1.434   1.752   1.124  0.2426  0.6826  0.1452
 3550TIP3    H232210   1.347   1.730   1.003  0.9747 -0.4191 -0.1967
 3551TIP3   OH232211   6.049   3.472   1.743 -0.1251  0.0465 -0.0617
 3551TIP3    H132212   6.059   3.440   1.654 -3.1802  1.7865 -1.1857
 3551TIP3    H232213   6.015   3.398   1.792 -2.1522  0.0627 -1.3494
 3552TIP3   OH232214   5.450   5.048   1.935  0.2400 -0.0816 -0.5942
 3552TIP3    H132215   5.541   5.056   1.966 -0.3027 -1.7398  1.6820
 3552TIP3    H232216   5.458   5.005   1.850  1.5538 -2.4234  0.6238
 3553TIP3   OH232217   0.402   0.811   8.688  0.0648  0.5986 -0.1069
 3553TIP3    H132218   0.370   0.748   8.624 -1.6373 -0.4195  1.6223
 3553TIP3    H232219   0.328   0.871   8.703  0.4656  0.9049  0.7714
 3554TIP3   OH232220   6.158   4.957   2.048  0.1864  0.2346 -0.2218
 3554TIP3    H132221   6.197   4.980   2.132  1.4781 -0.0739 -0.7096
 3554TIP3    H232222   6.066   4.941   2.067  0.3654  0.6301  1.0422
 3555TIP3   OH232223   6.739   2.176   7.571 -0.0163 -0.0900 -0.2119
 3555TIP3    H132224   6.792   2.241   7.525  1.7445 -0.8980  0.5834
 3555TIP3    H232225   6.712   2.114   7.504 -0.4446  0.6387 -0.7206
 3556TIP3   OH232226   2.881   2.631   0.583  0.2477  0.0416  0.1973
 3556TIP3    H132227   2.814   2.693   0.611  0.4868 -0.4298  1.9250
 3556TIP3    H232228   2.831   2.553   0.558  0.0389  0.4136 -0.5805
 3557TIP3   OH232229   0.313   2.850   6.547  0.2503  0.0058  0.8596
 3557TIP3    H132230   0.262   2.930   6.564 -0.5401 -0.2823 -0.0697
 3557TIP3    H232231   0.287   2.823   6.459  0.7541 -1.1105  1.0355
 3558TIP3   OH232232   4.375   5.628   7.528 -0.4466 -0.4885 -0.6203
 3558TIP3    H132233   4.346   5.642   7.438 -1.6963 -0.6221 -0.2571
 3558TIP3    H232234   4.468   5.650   7.527 -0.1368 -1.6859 -2.2203
 3559TIP3   OH232235   4.033   3.762   7.743  0.2561 -0.1282 -0.1515
 3559TIP3    H132236   3.944   3.743   7.712 -0.3089  0.0522  1.2758
 3559TIP3    H232237   4.060   3.682   7.788 -0.7956  1.0661  2.8925
 3560TIP3   OH232238   3.863   3.329   7.585 -0.8792 -0.6485  0.4290
 3560TIP3    H132239   3.778   3.308   7.547 -0.4565 -1.6074 -0.0305
 3560TIP3    H232240   3.843   3.362   7.673 -1.7353 -0.6213  0.2283
 3561TIP3   OH232241   0.641   1.321   7.958 -0.1763  0.6210  0.0547
 3561TIP3    H132242   0.722   1.365   7.985 -0.6328  2.0223 -0.7325
 3561TIP3    H232243   0.655   1.300   7.865 -0.9208  1.4232 -0.2523
 3562TIP3   OH232244   3.635   4.065   0.508  0.3080  0.2196 -0.4242
 3562TIP3    H132245   3.563   4.056   0.445 -0.8416 -0.8343  0.9616
 3562TIP3    H232246   3.662   4.156   0.500 -2.4639  1.2206  0.2771
 3563TIP3   OH232247   5.305   5.994   7.265  0.2096 -0.5521  0.3125
 3563TIP3    H132248   5.331   5.918   7.212  0.9846  0.3005 -0.5657
 3563TIP3    H232249   5.258   6.050   7.203 -0.3571 -0.2981  0.9588
 3564TIP3   OH232250   4.373   1.650   0.685  0.2940 -0.1120 -0.3591
 3564TIP3    H132251   4.291   1.694   0.708  0.0629  0.1055 -1.5478
 3564TIP3    H232252   4.365   1.563   0.724 -0.5754 -0.1462 -0.5882
 3565TIP3   OH232253   4.989   1.012   1.440 -0.4386 -0.0891  0.0713
 3565TIP3    H132254   4.978   0.976   1.352 -0.8064  0.6928 -0.2054
 3565TIP3    H232255   4.916   1.073   1.451 -0.2599  0.0023  0.8278
 3566TIP3   OH232256   2.621   0.922   1.737  0.2234 -0.2158 -0.0797
 3566TIP3    H132257   2.705   0.966   1.736  0.4381 -0.5685 -2.2067
 3566TIP3    H232258   2.575   0.955   1.660 -0.6794 -1.6497 -0.2064
 3567TIP3   OH232259   4.849   1.090   2.477  0.6806  0.3834 -0.4664
 3567TIP3    H132260   4.865   1.033   2.552 -1.5233 -0.6202 -0.6815
 3567TIP3    H232261   4.756   1.112   2.483  0.3187 -0.0834 -3.0981
 3568TIP3   OH232262   4.643   5.305   0.146 -0.2118  0.1452 -0.2854
 3568TIP3    H132263   4.631   5.257   0.063  1.0330  0.1441 -0.4731
 3568TIP3    H232264   4.708   5.254   0.194  0.3034  1.0443 -0.0102
 3569TIP3   OH232265   0.343   2.219   8.147 -0.1264  0.0996  0.3468
 3569TIP3    H132266   0.249   2.228   8.128 -0.6647  1.3283  3.0841
 3569TIP3    H232267   0.346   2.187   8.237  2.0431  1.6549  0.9214
 3570TIP3   OH232268   4.979   5.441   7.857 -0.0743 -0.7038  0.2950
 3570TIP3    H132269   4.978   5.346   7.848 -0.1467 -0.9464  2.3920
 3570TIP3    H232270   5.059   5.460   7.906 -1.0772  0.0875  1.6891
 3571TIP3   OH232271   1.849   0.948   0.968  0.0556  0.0193 -0.8560
 3571TIP3    H132272   1.760   0.921   0.989  0.3281 -0.1166  0.1876
 3571TIP3    H232273   1.905   0.886   1.015  0.7077 -0.0402 -1.6844
 3572TIP3   OH232274   3.082   1.354   6.872  0.3139  0.3467  0.3524
 3572TIP3    H132275   3.086   1.434   6.820 -0.8704  0.0821 -0.1636
 3572TIP3    H232276   3.008   1.305   6.836  1.3587 -1.2477  0.2837
 3573TIP3   OH232277   1.521   2.294   8.274 -0.2675  0.4517  0.6594
 3573TIP3    H132278   1.455   2.353   8.311 -0.1293  0.1840  1.3404
 3573TIP3    H232279   1.600   2.347   8.269 -0.4642  0.6992  0.0739
 3574TIP3   OH232280   1.301   3.433   7.874  0.0593  0.3162 -0.5474
 3574TIP3    H132281   1.324   3.523   7.850  2.1140 -0.4836 -1.7878
 3574TIP3    H232282   1.385   3.388   7.884 -0.9250 -1.7101 -0.8461
 3575TIP3   OH232283   1.129   4.221   0.563 -0.0749  0.5202 -0.0043
 3575TIP3    H132284   1.107   4.314   0.576 -0.2513  0.5296 -0.3805
 3575TIP3    H232285   1.100   4.201   0.474  0.4656  0.2496 -0.1240
 3576TIP3   OH232286   0.574   0.916   6.605 -0.2258 -0.0486  1.1250
 3576TIP3    H132287   0.572   1.002   6.561 -0.1276  1.1532  3.3381
 3576TIP3    H232288   0.665   0.906   6.633 -0.2805 -0.8087  1.0423
 3577TIP3   OH232289   6.550   3.589   7.400  0.3011  0.3790 -0.0355
 3577TIP3    H132290   6.567   3.579   7.306  1.0703  1.4987 -0.0337
 3577TIP3    H232291   6.488   3.663   7.405  0.1449  0.2234  0.3327
 3578TIP3   OH232292   5.360   5.590   7.514  0.3024  0.3350  0.4099
 3578TIP3    H132293   5.436   5.648   7.501 -0.2151  0.5954 -1.8000
 3578TIP3    H232294   5.399   5.504   7.533  1.2002  0.3744 -1.0810
 3579TIP3   OH232295   2.400   3.795   8.075  0.3288 -0.7702 -0.1468
 3579TIP3    H132296   2.358   3.709   8.073 -0.2936 -0.4615 -0.6187
 3579TIP3    H232297   2.377   3.831   8.160 -1.4809 -0.0687 -0.8988
 3580TIP3   OH232298   4.005   0.504   7.591 -0.1689  0.0818 -0.3221
 3580TIP3    H132299   4.049   0.419   7.596 -1.6537 -0.6911  0.2717
 3580TIP3    H232300   4.029   0.548   7.673 -0.7022 -0.4468  0.1272
 3581TIP3   OH232301   1.361   0.315   7.740  0.6663 -0.7255  0.0695
 3581TIP3    H132302   1.409   0.264   7.805  1.8937 -0.2643 -0.4389
 3581TIP3    H232303   1.429   0.360   7.690 -0.2576 -0.7585 -1.2834
 3582TIP3   OH232304   1.745   4.659   7.058 -0.0287  0.1060 -0.0381
 3582TIP3    H132305   1.677   4.670   6.991 -1.7919  0.8296  1.7709
 3582TIP3    H232306   1.746   4.743   7.105  3.3060  0.7311 -0.9602
 3583TIP3   OH232307   0.231   1.738   1.641 -0.1969  0.1481 -0.0055
 3583TIP3    H132308   0.322   1.739   1.671 -0.8044  1.8105  2.0008
 3583TIP3    H232309   0.188   1.675   1.698 -0.3862 -0.4574 -0.7974
 3584TIP3   OH232310   1.127   0.969   0.739 -0.8809 -0.1016  0.0896
 3584TIP3    H132311   1.112   0.876   0.726 -1.6692 -0.4579  2.8856
 3584TIP3    H232312   1.216   0.974   0.773 -1.1587  0.0560  0.8029
 3585TIP3   OH232313   4.490   3.387   0.627  0.5590 -0.3322  0.1486
 3585TIP3    H132314   4.405   3.363   0.588 -0.2067  0.0619  1.5062
 3585TIP3    H232315   4.505   3.476   0.595  1.8852 -1.3519 -2.3645
 3586TIP3   OH232316   5.483   2.310   1.642  0.3988  0.3285  1.1580
 3586TIP3    H132317   5.423   2.281   1.573  0.2242 -1.9767  2.1905
 3586TIP3    H232318   5.429   2.315   1.720  1.0075  0.9304  1.5495
 3587TIP3   OH232319   2.886   5.733   0.442  0.2434  0.1013 -0.2922
 3587TIP3    H132320   2.976   5.719   0.471  0.7594 -0.3596 -1.9804
 3587TIP3    H232321   2.895   5.760   0.350 -1.3465  0.0071 -0.5039
 3588TIP3   OH232322   5.676   0.041   0.429 -0.4168  0.0909  0.0237
 3588TIP3    H132323   5.605   0.005   0.481 -1.7208  1.5049 -0.6879
 3588TIP3    H232324   5.633   0.083   0.354  1.3726 -2.2345 -2.5358
 3589TIP3   OH232325   6.011   4.721   2.341  0.1922 -0.1670  0.1627
 3589TIP3    H132326   6.009   4.744   2.434  2.8726  0.0395  0.2577
 3589TIP3    H232327   5.952   4.783   2.299  0.6290  1.2030  1.4888
 3590TIP3   OH232328   1.659   4.366   2.705  0.3214 -0.0002 -0.0645
 3590TIP3    H132329   1.751   4.362   2.728  0.0172 -1.6273  1.0994
 3590TIP3    H232330   1.648   4.299   2.638  0.0407  0.3593 -0.3796
 3591TIP3   OH232331   1.933   6.283   2.313  0.2933 -0.2796 -0.2268
 3591TIP3    H132332   2.009   6.297   2.257  1.6213 -3.1867  0.6332
 3591TIP3    H232333   1.953   6.330   2.393  0.7141 -0.1528 -0.4012
 3592TIP3   OH232334   0.787   0.428   2.122 -0.8883 -0.5082  0.5473
 3592TIP3    H132335   0.809   0.369   2.194 -1.9250 -1.2480  0.2816
 3592TIP3    H232336   0.863   0.485   2.113  0.8642 -2.8322 -0.2551
 3593TIP3   OH232337   1.721   2.646   0.582 -0.7075 -0.1196 -0.4003
 3593TIP3    H132338   1.737   2.580   0.515 -1.4574  2.2651 -3.1147
 3593TIP3    H232339   1.792   2.709   0.571 -2.8091  2.1987 -1.5786
 3594TIP3   OH232340   5.372   5.100   8.676  0.1700  0.0263 -0.3085
 3594TIP3    H132341   5.457   5.108   8.633  0.3217 -0.9798 -0.2123
 3594TIP3    H232342   5.378   5.157   8.753  0.7607 -0.0360 -0.3054
 3595TIP3   OH232343   5.035   3.818   0.880  0.0067 -0.1500  0.5652
 3595TIP3    H132344   5.063   3.879   0.812 -1.9296  0.7529  0.5071
 3595TIP3    H232345   5.116   3.792   0.924  0.9643  2.3096  0.4476
 3596TIP3   OH232346   6.413   0.843   1.458  0.3777 -0.6600  0.2214
 3596TIP3    H132347   6.503   0.816   1.440  0.0872  0.0615 -2.8194
 3596TIP3    H232348   6.401   0.923   1.407 -2.4952 -1.6724 -0.8875
 3597TIP3   OH232349   2.161   1.364   1.263 -0.1698  0.6204  0.5123
 3597TIP3    H132350   2.223   1.326   1.325 -0.4826  0.4638  0.7359
 3597TIP3    H232351   2.101   1.292   1.242  0.0798  0.6046 -0.1649
 3598TIP3   OH232352   1.914   4.232   1.298 -0.2915 -0.4402  0.3689
 3598TIP3    H132353   1.957   4.146   1.302  2.6604  0.9488  0.3614
 3598TIP3    H232354   1.893   4.244   1.205  0.8840 -0.4232  0.0976
 3599TIP3   OH232355   2.602   6.291   7.505  0.2823  0.3202 -0.0598
 3599TIP3    H132356   2.566   6.374   7.536 -0.3590  0.0979 -0.1883
 3599TIP3    H232357   2.612   6.303   7.410  0.2034  0.2609 -0.0763
 3600TIP3   OH232358   4.960   5.533   1.163 -0.5986 -0.1175 -0.5638
 3600TIP3    H132359   4.900   5.606   1.172 -0.9118 -0.5648  1.4145
 3600TIP3    H232360   4.905   5.455   1.171 -0.2313 -0.6114 -2.3827
 3601TIP3   OH232361   5.763   4.926   7.380  0.4068 -0.3172 -0.4484
 3601TIP3    H132362   5.838   4.983   7.362  1.6352 -1.5331  0.6312
 3601TIP3    H232363   5.770   4.856   7.315  0.3374 -0.5517 -0.2045
 3602TIP3   OH232364   2.122   5.200   0.243  0.9362 -0.2796 -0.0936
 3602TIP3    H132365   2.053   5.245   0.195  0.4869 -2.5790 -1.7774
 3602TIP3    H232366   2.086   5.187   0.331  0.7817  1.8223  0.2030
 3603TIP3   OH232367   4.146   5.027   7.130 -0.2300 -0.1042 -0.3167
 3603TIP3    H132368   4.229   5.063   7.097  0.0837  1.3311  1.8161
 3603TIP3    H232369   4.135   5.068   7.216 -2.8112 -0.8255 -0.2226
 3604TIP3   OH232370   2.775   4.114   2.231  0.1994 -0.1196 -0.2028
 3604TIP3    H132371   2.684   4.098   2.207  0.6767 -0.6224 -1.7970
 3604TIP3    H232372   2.789   4.207   2.211  0.5913 -0.5349 -1.9546
 3605TIP3   OH232373   4.969   1.514   1.857  0.4894  0.4131  0.2742
 3605TIP3    H132374   4.912   1.513   1.933  0.3175  0.2559  0.1438
 3605TIP3    H232375   4.923   1.567   1.792  0.1261 -0.3509 -0.1084
 3606TIP3   OH232376   2.988   1.000   2.317 -0.8632 -0.2880  0.2407
 3606TIP3    H132377   2.965   1.077   2.264 -1.9262 -0.5070  0.3729
 3606TIP3    H232378   2.908   0.977   2.362 -1.0333 -2.4730 -1.0446
 3607TIP3   OH232379   4.685   5.073   0.696 -0.0109 -0.7895 -0.2241
 3607TIP3    H132380   4.768   5.112   0.724  0.8469 -1.6165 -1.5329
 3607TIP3    H232381   4.651   5.133   0.631  1.1113 -1.9349 -1.9424
 3608TIP3   OH232382   6.601   0.931   7.614 -0.6879  0.0646  0.3977
 3608TIP3    H132383   6.540   0.973   7.553  0.4989 -1.4297 -1.9613
 3608TIP3    H232384   6.567   0.843   7.626  0.2545 -0.3463  0.1428
 3609TIP3   OH232385   5.235   6.217   7.118 -0.3737  0.3004  0.7532
 3609TIP3    H132386   5.285   6.241   7.040  1.4830 -3.1176  0.7108
 3609TIP3    H232387   5.144   6.218   7.089  0.2247 -0.3942 -1.3352
 3610TIP3   OH232388   5.040   4.393   7.797 -0.1368  0.6273 -0.1237
 3610TIP3    H132389   4.989   4.469   7.770 -0.0152  0.2823 -1.4042
 3610TIP3    H232390   5.104   4.382   7.727 -0.5511 -1.0189 -0.2819
 3611TIP3   OH232391   2.474   1.979   6.787  0.2383 -0.0341  0.3529
 3611TIP3    H132392   2.494   1.930   6.867  0.1491  0.8901  0.9599
 3611TIP3    H232393   2.491   1.917   6.716 -2.4214 -1.8602  1.1472
 3612TIP3   OH232394   1.070   6.125   2.130 -0.0942  0.1029 -0.0246
 3612TIP3    H132395   1.038   6.158   2.046 -1.1422  0.9283  0.6732
 3612TIP3    H232396   0.996   6.078   2.167 -0.6975  2.2254  1.7122
 3613TIP3   OH232397   0.426   1.544   1.893  1.1043  0.4815 -0.2965
 3613TIP3    H132398   0.418   1.449   1.894  2.2425  0.3683 -0.0788
 3613TIP3    H232399   0.337   1.576   1.905  0.8986 -0.5719  1.2582
 3614TIP3   OH232400   5.195   1.792   1.396 -0.3194  0.9017 -0.0081
 3614TIP3    H132401   5.274   1.739   1.396 -1.0706 -0.3147  1.4336
 3614TIP3    H232402   5.141   1.754   1.467 -1.9824  1.9627 -0.6450
 3615TIP3   OH232403   4.937   2.654   1.712 -0.1428 -0.3104 -0.4280
 3615TIP3    H132404   4.968   2.568   1.684  2.4419 -1.2139  4.2084
 3615TIP3    H232405   4.860   2.636   1.765 -0.8189  0.5101 -1.1086
 3616TIP3   OH232406   5.960   4.097   7.425 -0.2393  0.0741  0.5680
 3616TIP3    H132407   5.891   4.096   7.359  0.2854  1.4176 -0.0327
 3616TIP3    H232408   6.029   4.041   7.388  0.3729  1.4219 -0.4318
 3617TIP3   OH232409   3.261   0.897   6.763  0.1008 -0.5708 -0.3324
 3617TIP3    H132410   3.177   0.851   6.765 -0.7595  0.8678 -1.1731
 3617TIP3    H232411   3.267   0.931   6.673  1.3610 -0.2651 -0.1504
 3618TIP3   OH232412   0.925   2.568   7.621 -0.4174  0.0599 -0.2279
 3618TIP3    H132413   0.994   2.634   7.614  0.7709 -1.2150 -1.1068
 3618TIP3    H232414   0.848   2.611   7.584 -0.2300  1.6365  1.0845
 3619TIP3   OH232415   0.412   1.598   7.974  0.3371 -0.1582 -0.6912
 3619TIP3    H132416   0.460   1.520   8.001 -1.7136 -2.0060 -2.0812
 3619TIP3    H232417   0.452   1.624   7.892  0.7419  0.0153 -0.4429
 3620TIP3   OH232418   0.671   0.478   8.151 -0.0665  0.1458  0.2820
 3620TIP3    H132419   0.714   0.559   8.178  0.4949  0.1772 -0.6566
 3620TIP3    H232420   0.624   0.502   8.071  3.0856 -1.1973 -2.2006
 3621TIP3   OH232421   3.177   3.995   1.643  0.3179 -0.0987 -0.1903
 3621TIP3    H132422   3.151   3.910   1.679  0.1709 -1.6602 -3.6515
 3621TIP3    H232423   3.114   4.013   1.574  1.2447  2.1367 -0.5603
 3622TIP3   OH232424   5.037   0.652   8.272  0.0896 -0.0933  0.0793
 3622TIP3    H132425   5.032   0.556   8.265 -0.0555  0.0238 -1.7985
 3622TIP3    H232426   5.001   0.684   8.190 -0.5248  1.6196  0.9733
 3623TIP3   OH232427   1.363   4.663   7.348  0.4101 -0.5931  0.0898
 3623TIP3    H132428   1.456   4.640   7.344  0.3435 -0.7117 -0.9631
 3623TIP3    H232429   1.345   4.707   7.265 -0.3333  0.0091  0.5529
 3624TIP3   OH232430   5.464   2.891   0.889 -0.5278  0.4325  0.3452
 3624TIP3    H132431   5.447   2.915   0.798 -1.2823  0.0983  0.3930
 3624TIP3    H232432   5.428   2.803   0.898 -0.4182  0.4492  0.9599
 3625TIP3   OH232433   3.079   3.223   7.430 -0.1148 -0.7903  0.9527
 3625TIP3    H132434   3.020   3.153   7.459  0.4698 -1.4863  0.5181
 3625TIP3    H232435   3.028   3.272   7.365 -0.4517 -0.9530  1.0927
 3626TIP3   OH232436   4.279   5.928   1.687 -1.0150 -0.3836  0.0492
 3626TIP3    H132437   4.239   5.853   1.732 -0.6515 -0.8829 -0.4454
 3626TIP3    H232438   4.282   5.902   1.595  1.3685 -0.8314  0.1866
 3627TIP3   OH232439   4.189   2.345   7.002 -0.0425  0.8582  0.2590
 3627TIP3    H132440   4.271   2.295   6.999 -1.4399 -1.5957  0.2085
 3627TIP3    H232441   4.137   2.309   6.930 -1.1233  2.4898  0.1817
 3628TIP3   OH232442   3.381   2.383   7.308  0.3969  0.2321 -0.0932
 3628TIP3    H132443   3.367   2.361   7.400 -0.3337 -0.2675 -0.3132
 3628TIP3    H232444   3.427   2.466   7.310  4.1662 -1.6318  0.8148
 3629TIP3   OH232445   3.918   4.051   7.044 -0.0826 -0.3572  0.1407
 3629TIP3    H132446   3.997   4.016   7.086 -0.3518 -0.4105  0.6099
 3629TIP3    H232447   3.917   4.010   6.958  0.0993 -0.8032  0.3459
 3630TIP3   OH232448   2.440   0.186   0.235  0.3137  0.2557 -0.0691
 3630TIP3    H132449   2.388   0.253   0.279 -1.5381 -0.9913 -0.2763
 3630TIP3    H232450   2.520   0.180   0.288 -0.4666  1.0433  1.2538
 3631TIP3   OH232451   1.695   3.070   7.816  0.4490 -0.0479 -0.7248
 3631TIP3    H132452   1.790   3.078   7.826  0.6161 -0.9685 -1.4658
 3631TIP3    H232453   1.682   3.054   7.723 -0.5739  1.7351 -0.9130
 3632TIP3   OH232454   6.658   6.255   1.153  0.4376 -0.3099  0.0747
 3632TIP3    H132455   6.741   6.292   1.125 -0.1691  1.4346  0.4368
 3632TIP3    H232456   6.679   6.166   1.181  1.7733 -0.6932 -1.9230
 3633TIP3   OH232457   3.855   1.203   7.977  0.1536  0.0839  0.2543
 3633TIP3    H132458   3.791   1.187   7.907 -0.0379 -0.8765  0.6330
 3633TIP3    H232459   3.820   1.278   8.025  1.3952  2.2135 -1.9694
 3634TIP3   OH232460   4.275   2.534   7.698  0.0630  0.1326 -0.1738
 3634TIP3    H132461   4.304   2.611   7.748  1.0483  0.0377 -0.5844
 3634TIP3    H232462   4.328   2.536   7.619  1.5960 -2.1089  0.7149
 3635TIP3   OH232463   2.309   3.910   8.316 -0.0872  0.1994 -0.2612
 3635TIP3    H132464   2.334   4.002   8.320 -2.5305  0.9191 -0.4208
 3635TIP3    H232465   2.363   3.868   8.384  1.7230  1.5239 -0.7970
 3636TIP3   OH232466   1.987   1.084   1.913 -0.2332 -0.3205 -0.6359
 3636TIP3    H132467   1.962   1.066   1.822  1.8077 -2.1318 -0.9318
 3636TIP3    H232468   2.030   1.004   1.942  1.2461  1.0220  1.1461
 3637TIP3   OH232469   1.176   3.520   0.169  0.0991 -0.1564  0.2204
 3637TIP3    H132470   1.093   3.567   0.166 -0.1574 -0.3928  2.2523
 3637TIP3    H232471   1.151   3.430   0.190  0.7514 -0.7340 -1.3339
 3638TIP3   OH232472   4.594   5.695   0.910 -0.1670 -0.3459 -0.4430
 3638TIP3    H132473   4.603   5.789   0.925 -0.2579 -0.2409 -1.0104
 3638TIP3    H232474   4.606   5.685   0.815 -0.8834 -0.8186 -0.4876
 3639TIP3   OH232475   5.310   5.801   8.427 -0.4520 -0.0193  0.4728
 3639TIP3    H132476   5.385   5.822   8.372  0.9760  0.7531  2.5865
 3639TIP3    H232477   5.234   5.816   8.370  0.9170  0.5581 -1.3132
 3640TIP3   OH232478   5.669   1.577   1.517 -0.6957  0.0124 -0.1111
 3640TIP3    H132479   5.755   1.618   1.508 -1.1094  1.0054  0.2918
 3640TIP3    H232480   5.680   1.516   1.590 -0.5398  0.7603  0.5100
 3641TIP3   OH232481   0.539   4.300   0.885 -0.1019  0.0386 -0.1636
 3641TIP3    H132482   0.622   4.300   0.837 -0.2020 -0.9064 -0.3470
 3641TIP3    H232483   0.471   4.297   0.818 -0.2536 -0.5429  0.0076
 3642TIP3   OH232484   5.215   3.576   7.435 -0.3130  0.3181 -0.4826
 3642TIP3    H132485   5.199   3.514   7.365 -1.2555  2.1063 -1.9468
 3642TIP3    H232486   5.311   3.579   7.443 -0.2395 -0.8658 -0.7626
 3643TIP3   OH232487   1.016   3.692   8.466 -0.4620 -0.0163  0.4103
 3643TIP3    H132488   1.065   3.612   8.481  1.5941  1.4452  2.0736
 3643TIP3    H232489   1.029   3.712   8.373  0.0859 -0.9131  0.2889
 3644TIP3   OH232490   3.019   1.265   8.423 -0.1167  0.7290 -0.0211
 3644TIP3    H132491   2.953   1.230   8.482  1.9532 -1.1308  1.3361
 3644TIP3    H232492   3.057   1.339   8.471  1.2123 -0.4667  0.8672
 3645TIP3   OH232493   1.144   1.641   7.145 -0.5658 -0.3867 -0.4873
 3645TIP3    H132494   1.072   1.592   7.185 -1.1319  0.8146  0.0152
 3645TIP3    H232495   1.117   1.653   7.054 -0.8065 -0.3282 -0.4103
 3646TIP3   OH232496   3.449   2.641   2.103  0.3696 -0.1612  0.8405
 3646TIP3    H132497   3.525   2.689   2.135 -0.9894  2.3037  0.6608
 3646TIP3    H232498   3.374   2.685   2.145 -1.0260 -1.6078 -0.0314
 3647TIP3   OH232499   0.940   1.434   6.760  1.0030  0.4402 -0.2620
 3647TIP3    H132500   0.854   1.392   6.755  0.0547  1.7497  2.8088
 3647TIP3    H232501   1.001   1.363   6.781  0.2422 -0.1122  0.0962
 3648TIP3   OH232502   5.654   0.023   7.552  0.0708  0.1723  0.2492
 3648TIP3    H132503   5.656  -0.039   7.479 -1.0629  1.1924 -0.7000
 3648TIP3    H232504   5.742   0.060   7.555 -0.1929  1.0719 -1.5029
 3649TIP3   OH232505   0.843   1.162   8.633  0.0152  0.9043  0.2338
 3649TIP3    H132506   0.815   1.235   8.578  0.2192  0.8867  0.1076
 3649TIP3    H232507   0.856   1.200   8.720  1.9072  1.3876 -0.2323
 3650TIP3   OH232508   0.686   1.797   2.462 -0.0135  1.3388 -0.1715
 3650TIP3    H132509   0.594   1.795   2.486 -0.5413  0.7740 -2.0702
 3650TIP3    H232510   0.695   1.872   2.403  1.0060  2.0923  0.8993
 3651TIP3   OH232511   1.436   5.321   8.785  0.0093  0.1772 -1.1742
 3651TIP3    H132512   1.477   5.407   8.801 -2.5727  1.6669 -1.9468
 3651TIP3    H232513   1.433   5.280   8.871 -0.8836  1.9640 -0.2894
 3652TIP3   OH232514   5.313   5.413   1.277 -0.1719 -0.1639 -0.1202
 3652TIP3    H132515   5.393   5.361   1.278  0.3667  0.6071 -0.9339
 3652TIP3    H232516   5.339   5.498   1.312 -1.3499 -0.8009  2.5104
 3653TIP3   OH232517   1.079   0.713   0.658 -0.1418 -0.4122 -0.3625
 3653TIP3    H132518   1.137   0.637   0.662  0.4663 -0.0953 -2.1769
 3653TIP3    H232519   0.992   0.677   0.676  0.3703 -1.1966  0.6554
 3654TIP3   OH232520   4.388   0.475   1.331  0.4431 -0.1050 -0.5179
 3654TIP3    H132521   4.371   0.441   1.419 -0.9840 -0.1214 -0.7798
 3654TIP3    H232522   4.453   0.544   1.344  3.8203 -3.1008 -0.0098
 3655TIP3   OH232523   6.039   6.738   0.729  0.0009  0.4489  0.2967
 3655TIP3    H132524   6.091   6.708   0.655 -0.0598 -0.5548  0.6537
 3655TIP3    H232525   5.953   6.699   0.716  0.5116 -1.3256  1.8661
 3656TIP3   OH232526   2.327   5.521   8.724 -0.5903 -0.0030 -0.1739
 3656TIP3    H132527   2.273   5.447   8.697  1.5358 -1.0687 -1.8435
 3656TIP3    H232528   2.411   5.482   8.749  0.5181  1.7925 -0.8854
 3657TIP3   OH232529   2.322   1.313   8.655 -0.1617  0.0863  0.3843
 3657TIP3    H132530   2.381   1.320   8.729 -1.5378  0.0913  1.5157
 3657TIP3    H232531   2.290   1.222   8.658 -1.3262  0.4852  0.7010
 3658TIP3   OH232532   5.908   4.344   8.735 -0.3059  0.0685 -0.1401
 3658TIP3    H132533   5.990   4.296   8.738 -1.3460 -1.7556  1.0998
 3658TIP3    H232534   5.884   4.344   8.642  0.8077  0.1346 -0.4397
 3659TIP3   OH232535   2.560   4.704   7.208 -0.0184  0.2954 -0.7319
 3659TIP3    H132536   2.537   4.763   7.136 -0.4870 -0.1069 -0.9212
 3659TIP3    H232537   2.494   4.720   7.275 -0.4099 -0.3099 -0.9602
 3660TIP3   OH232538   1.789   6.330   0.648 -0.0097 -0.3992 -0.1297
 3660TIP3    H132539   1.796   6.236   0.631 -1.0737 -0.2316 -1.6686
 3660TIP3    H232540   1.878   6.363   0.635  0.2691 -1.1147 -0.0935
 3661TIP3   OH232541   0.705   3.284   7.575 -0.0208  0.0781  0.2625
 3661TIP3    H132542   0.707   3.193   7.544  0.9012 -0.2444  1.2098
 3661TIP3    H232543   0.635   3.325   7.524 -1.8826 -1.6695  1.2303
 3662TIP3   OH232544   1.914   6.738   8.536 -0.0151 -0.2476  0.2076
 3662TIP3    H132545   1.921   6.719   8.629  0.6359 -1.3832 -0.0563
 3662TIP3    H232546   1.992   6.698   8.497  0.2891  1.1578 -0.6854
 3663TIP3   OH232547   0.368   1.685   0.923  0.4282  0.3140 -0.1197
 3663TIP3    H132548   0.309   1.740   0.974  0.0923  0.3948 -0.5930
 3663TIP3    H232549   0.340   1.596   0.943  0.7026  0.3274  0.3239
 3664TIP3   OH232550   1.674   3.031   7.527  0.1233  0.5911 -0.0052
 3664TIP3    H132551   1.674   2.935   7.531 -2.4686  0.5432  0.4871
 3664TIP3    H232552   1.649   3.051   7.437  0.2896  0.8148 -0.0027
 3665TIP3   OH232553   5.779   5.828   0.456 -0.0947  0.3130 -0.4332
 3665TIP3    H132554   5.856   5.850   0.403 -0.6100  1.7483 -0.6488
 3665TIP3    H232555   5.728   5.769   0.400 -0.4026  1.4404 -1.4054
 3666TIP3   OH232556   0.653   3.976   1.773  0.3450  0.0245 -0.3047
 3666TIP3    H132557   0.653   3.927   1.692 -0.8232  0.0314 -0.3201
 3666TIP3    H232558   0.701   3.921   1.835  2.0801  0.4392 -1.2177
 3667TIP3   OH232559   2.780   2.125   1.392  0.1074 -0.1348  0.3001
 3667TIP3    H132560   2.825   2.050   1.430  0.1181 -0.4484 -0.3133
 3667TIP3    H232561   2.708   2.142   1.452 -0.8851 -1.6887 -0.3739
 3668TIP3   OH232562   2.114   4.593   1.521  0.1911  0.6678 -0.5398
 3668TIP3    H132563   2.162   4.658   1.470  1.7521  0.7221  0.9080
 3668TIP3    H232564   2.132   4.616   1.612 -3.2909  1.1734  0.1635
 3669TIP3   OH232565   4.729   2.660   1.889 -0.5768  0.1210  0.0838
 3669TIP3    H132566   4.655   2.621   1.843 -1.0003  0.4107  0.5123
 3669TIP3    H232567   4.690   2.706   1.964 -0.0765  1.2443 -0.3226
 3670TIP3   OH232568   4.546   2.737   1.224 -0.7710  0.2609  0.6580
 3670TIP3    H132569   4.468   2.728   1.169 -0.2126  0.7020 -0.2246
 3670TIP3    H232570   4.540   2.826   1.259 -0.5438  0.3828  0.3915
 3671TIP3   OH232571   0.697   3.552   8.008  0.1219  0.7013  0.0220
 3671TIP3    H132572   0.711   3.646   8.005  0.2980  0.6501 -1.4073
 3671TIP3    H232573   0.717   3.521   7.920  1.2222 -0.8463  0.7495
 3672TIP3   OH232574   0.793   4.249   0.795 -0.2778 -0.0258  0.9668
 3672TIP3    H132575   0.840   4.219   0.873  1.5420  1.1212  0.3587
 3672TIP3    H232576   0.842   4.213   0.721 -1.9115 -0.9943  0.2943
 3673TIP3   OH232577   5.248   6.205   1.386  1.0269  0.5471 -0.2639
 3673TIP3    H132578   5.289   6.172   1.466 -0.2827  0.8813  0.5929
 3673TIP3    H232579   5.263   6.299   1.389 -0.7144  0.8416  0.6731
 3674TIP3   OH232580   1.530   1.766   1.618 -0.5159 -0.2817 -0.3178
 3674TIP3    H132581   1.463   1.823   1.580 -0.6652 -0.4432 -0.2992
 3674TIP3    H232582   1.611   1.792   1.575 -0.7295 -0.6508 -0.9468
 3675TIP3   OH232583   1.296   5.606   7.736  0.6064  0.4751  0.2616
 3675TIP3    H132584   1.201   5.604   7.741  0.5150  1.2890 -0.8066
 3675TIP3    H232585   1.325   5.541   7.800 -0.6036  1.3658  1.7898
 3676TIP3   OH232586   6.285   2.375   8.270  0.3899 -0.1375  0.4040
 3676TIP3    H132587   6.338   2.296   8.273 -0.8143 -0.9785  0.1269
 3676TIP3    H232588   6.308   2.422   8.350  1.0946 -0.7835  0.5904
 3677TIP3   OH232589   2.234   5.014   8.440 -0.0445 -0.7304 -0.2462
 3677TIP3    H132590   2.232   5.062   8.358 -0.8497 -2.4885 -1.3168
 3677TIP3    H232591   2.327   4.996   8.455  0.2367  0.7791 -0.0022
 3678TIP3   OH232592   3.594   4.243   1.815  0.6697  0.5343 -0.5372
 3678TIP3    H132593   3.658   4.202   1.757 -0.3166  2.1424 -2.9236
 3678TIP3    H232594   3.634   4.327   1.840 -0.1210  1.1589 -1.3305
 3679TIP3   OH232595   3.333   0.093   1.920 -0.3636 -0.0954  0.5660
 3679TIP3    H132596   3.309   0.166   1.977  0.2330  0.8048 -0.2840
 3679TIP3    H232597   3.276   0.103   1.844  0.1979 -0.0955  0.1409
 3680TIP3   OH232598   6.349   1.534   7.951  0.1953  0.4079 -0.1082
 3680TIP3    H132599   6.268   1.584   7.960  1.1832  1.6430  3.4476
 3680TIP3    H232600   6.383   1.560   7.865 -2.1764  1.3130 -0.8728
 3681TIP3   OH232601   3.831   3.755   2.150  0.4216 -0.2813 -0.1395
 3681TIP3    H132602   3.762   3.693   2.170 -0.5935  1.3036  1.4776
 3681TIP3    H232603   3.795   3.811   2.081  1.4856 -1.6500 -1.8975
 3682TIP3   OH232604   1.449   1.214   2.084  0.5269  0.4162 -0.1899
 3682TIP3    H132605   1.462   1.127   2.121  0.9218  0.2165 -0.7876
 3682TIP3    H232606   1.355   1.223   2.074  0.5759 -1.2676 -3.2333
 3683TIP3   OH232607   2.265   6.728   8.146  0.4974 -0.0896 -0.0118
 3683TIP3    H132608   2.314   6.649   8.123 -0.6854 -0.8919  0.0742
 3683TIP3    H232609   2.209   6.744   8.070  0.2166  0.2388  0.2604
 3684TIP3   OH232610   5.751   1.161   2.429 -0.2917 -0.0482 -0.2824
 3684TIP3    H132611   5.796   1.125   2.506  1.8346  0.4615 -1.2045
 3684TIP3    H232612   5.713   1.084   2.385 -0.6552 -0.4552  0.7178
 3685TIP3   OH232613   1.330   2.365   8.653 -0.2573 -0.1469  0.4136
 3685TIP3    H132614   1.317   2.277   8.618 -0.3876  0.5749 -1.4866
 3685TIP3    H232615   1.256   2.416   8.618  0.8671  1.1526 -0.1574
 3686TIP3   OH232616   2.658   2.973   8.592 -0.6467 -0.1940  0.0864
 3686TIP3    H132617   2.611   2.891   8.576 -0.9882 -0.1818  0.9456
 3686TIP3    H232618   2.613   3.011   8.668  1.0410 -0.3933  1.2281
 3687TIP3   OH232619   2.149   6.605   0.123  0.0243 -0.1949 -0.1748
 3687TIP3    H132620   2.175   6.596   0.031  1.7693  2.4455 -0.0687
 3687TIP3    H232621   2.147   6.700   0.138 -0.5133 -0.5430  2.4505
 3688TIP3   OH232622   0.297   2.484   0.256  0.0057 -0.3707 -0.2499
 3688TIP3    H132623   0.370   2.542   0.237  0.5716 -1.3943 -1.2819
 3688TIP3    H232624   0.229   2.509   0.193 -1.4676  2.0375  2.0404
 3689TIP3   OH232625   3.496   0.295   7.217  0.4931 -0.2581  1.2997
 3689TIP3    H132626   3.536   0.342   7.290  0.4178 -1.8199  2.3954
 3689TIP3    H232627   3.402   0.308   7.228  0.5450  0.7541  0.5933
 3690TIP3   OH232628   1.442   4.897   8.398  0.1684 -0.6120  0.3032
 3690TIP3    H132629   1.475   4.809   8.383  2.5225  0.2064  0.2732
 3690TIP3    H232630   1.431   4.934   8.310  1.2975 -0.1712  0.3361
 3691TIP3   OH232631   2.784   0.085   1.918  0.3052  0.4120 -0.0005
 3691TIP3    H132632   2.753   0.073   2.008 -0.7173 -1.4974 -0.5595
 3691TIP3    H232633   2.856   0.147   1.926 -0.3918  1.0544  2.0084
 3692TIP3   OH232634   2.686   2.585   1.627  0.0707  1.1311  0.0388
 3692TIP3    H132635   2.627   2.518   1.663 -0.5564  0.6146 -1.8284
 3692TIP3    H232636   2.764   2.536   1.600  1.1806  1.7264  1.9304
 3693TIP3   OH232637   4.005   6.170   7.049  0.7562  0.0147 -0.5255
 3693TIP3    H132638   3.979   6.176   6.957 -2.0212 -0.1545  0.1534
 3693TIP3    H232639   4.087   6.120   7.048  0.2300 -0.9017 -2.8203
 3694TIP3   OH232640   0.957   5.346   8.190 -0.0609 -0.3324 -0.2864
 3694TIP3    H132641   0.878   5.297   8.167 -0.1674  0.0460 -0.7444
 3694TIP3    H232642   1.000   5.292   8.256  0.2744 -1.4799 -1.4017
 3695TIP3   OH232643   2.955   5.778   7.063  0.4927  0.5260 -0.2501
 3695TIP3    H132644   2.978   5.827   6.985 -0.7839 -0.2974 -1.1663
 3695TIP3    H232645   2.991   5.830   7.135  2.1149  1.0569 -1.3793
 3696TIP3   OH232646   4.100   1.046   7.370  0.1323 -0.3245  0.1250
 3696TIP3    H132647   4.164   1.026   7.439  0.3384  0.2613  0.1099
 3696TIP3    H232648   4.027   0.986   7.387  0.2719 -0.3338  0.7286
 3697TIP3   OH232649   0.016   2.281   2.077 -0.2172  0.2248  0.0710
 3697TIP3    H132650   0.049   2.221   2.144 -2.1284 -0.1139  0.7904
 3697TIP3    H232651  -0.046   2.337   2.125 -2.6570 -0.8900 -1.5789
 3698TIP3   OH232652   0.339   1.055   0.014  0.6336  0.6880  0.0559
 3698TIP3    H132653   0.433   1.074   0.020  0.5713  0.6859  1.3194
 3698TIP3    H232654   0.319   1.006   0.094 -0.3871  0.4218 -0.3461
 3699TIP3   OH232655   4.560   3.641   1.190 -0.3180  0.1259 -0.3147
 3699TIP3    H132656   4.472   3.629   1.228 -0.1669 -2.6197 -0.6125
 3699TIP3    H232657   4.544   3.657   1.097 -0.5301  0.0956 -0.2853
 3700TIP3   OH232658   5.728   3.627   0.028  0.1685  0.0322  0.1943
 3700TIP3    H132659   5.773   3.710   0.049  0.6406 -0.2834  0.4678
 3700TIP3    H232660   5.687   3.643  -0.057  1.1183  0.2136 -0.2439
 3701TIP3   OH232661   3.849   1.950   0.402 -0.8174  0.1081 -0.5702
 3701TIP3    H132662   3.924   1.982   0.452 -1.4717  0.0321  0.4904
 3701TIP3    H232663   3.886   1.886   0.341  0.0028  0.2118 -0.1914
 3702TIP3   OH232664   5.750   3.191   2.636 -0.3570 -0.2318  0.2442
 3702TIP3    H132665   5.691   3.245   2.689  0.3693  1.2489 -0.4076
 3702TIP3    H232666   5.824   3.173   2.694 -1.4104 -2.1694  1.0950
 3703TIP3   OH232667   1.696   4.303   0.110 -0.1868  0.1496 -0.2899
 3703TIP3    H132668   1.736   4.220   0.136  1.0645  0.7971 -0.0438
 3703TIP3    H232669   1.627   4.318   0.174  0.6228  0.0584  0.6343
 3704TIP3   OH232670   1.952   2.193   0.780  0.1462 -0.1189 -0.3052
 3704TIP3    H132671   1.858   2.210   0.793  0.2739  1.5877 -1.3052
 3704TIP3    H232672   1.990   2.202   0.867 -0.4802  0.2026 -0.0560
 3705TIP3   OH232673   0.061   3.264   8.148 -0.5251  0.8652 -0.2390
 3705TIP3    H132674   0.033   3.351   8.175 -2.3900  0.4939 -0.8202
 3705TIP3    H232675   0.097   3.276   8.060 -1.9861  0.8985 -0.8612
 3706TIP3   OH232676   3.160   3.005   7.603 -0.0644  0.0430 -0.0048
 3706TIP3    H132677   3.147   2.912   7.623  0.9706 -0.2852 -0.7926
 3706TIP3    H232678   3.253   3.020   7.617 -0.1827  0.9227 -0.0856
 3707TIP3   OH232679   2.671   1.732   6.743 -0.4466 -0.3416  0.2045
 3707TIP3    H132680   2.727   1.799   6.703 -1.8199  0.3495 -0.6639
 3707TIP3    H232681   2.724   1.695   6.813  0.0748  2.2921  1.3258
 3708TIP3   OH232682   4.272   3.858   1.891  0.2778  0.2642 -0.0341
 3708TIP3    H132683   4.296   3.777   1.936 -2.0352 -0.2441  0.3968
 3708TIP3    H232684   4.221   3.829   1.815 -0.8591  1.3148  0.3050
 3709TIP3   OH232685   1.674   2.249   7.923  0.7546 -0.1464  0.0936
 3709TIP3    H132686   1.689   2.230   8.015  2.4708  1.0243  0.1086
 3709TIP3    H232687   1.637   2.338   7.922  0.6456 -0.1930 -0.3315
 3710TIP3   OH232688   5.693   1.197   7.803  0.4882  0.4293  0.2470
 3710TIP3    H132689   5.669   1.126   7.863  2.0698 -1.4043 -1.2084
 3710TIP3    H232690   5.788   1.204   7.811  0.8575 -0.4069 -2.5482
 3711TIP3   OH232691   6.213   2.502   1.113 -0.5184  0.0994 -0.1859
 3711TIP3    H132692   6.174   2.519   1.199  0.6706  0.5660  0.2863
 3711TIP3    H232693   6.258   2.419   1.123 -0.2914  0.2053 -0.3213
 3712TIP3   OH232694   5.833   5.107   8.350  0.3909 -0.8596  0.1942
 3712TIP3    H132695   5.924   5.080   8.338  0.3360 -0.8407 -0.3236
 3712TIP3    H232696   5.834   5.201   8.331  0.1029 -1.0415 -0.7777
 3713TIP3   OH232697   6.043   3.352   0.026 -0.2177  0.3080  0.1323
 3713TIP3    H132698   6.060   3.403  -0.053 -0.8104  1.0717  0.4855
 3713TIP3    H232699   5.985   3.407   0.079  0.7637  0.1525  1.4403
 3714TIP3   OH232700   6.650   1.149   0.259  0.2194  0.4697 -0.6549
 3714TIP3    H132701   6.562   1.174   0.287  0.4070  0.7721 -0.3284
 3714TIP3    H232702   6.636   1.075   0.200 -0.1839 -0.4678  0.5450
 3715TIP3   OH232703   0.052   2.782   8.538 -0.4650 -0.1179 -0.2751
 3715TIP3    H132704   0.055   2.869   8.500  0.1254  0.1898  0.4654
 3715TIP3    H232705   0.032   2.796   8.631 -0.0730 -0.7497 -0.0906
 3716TIP3   OH232706   3.664   0.531   1.398  0.0367  0.4689 -0.5222
 3716TIP3    H132707   3.702   0.593   1.335  1.0398  2.2357  1.6709
 3716TIP3    H232708   3.692   0.445   1.367 -0.0514  1.2116 -2.8146
 3717TIP3   OH232709   2.992   3.585   0.908 -0.0080  0.1186  0.0633
 3717TIP3    H132710   2.926   3.651   0.887  2.5439  1.9533 -3.1318
 3717TIP3    H232711   3.063   3.634   0.950  0.4340 -1.3320  1.1109
 3718TIP3   OH232712   2.216   2.351   8.689 -0.0451 -0.2495  0.5485
 3718TIP3    H132713   2.294   2.326   8.739  0.8747  0.1338 -0.6586
 3718TIP3    H232714   2.168   2.408   8.749  1.0681  0.2630  0.9934
 3719TIP3   OH232715   6.545   1.337   8.446  0.5961  0.0283 -0.1028
 3719TIP3    H132716   6.635   1.305   8.443  0.1311 -1.2705 -1.5597
 3719TIP3    H232717   6.545   1.414   8.389  0.5952 -0.5075 -0.8313
 3720TIP3   OH232718   2.732   6.658   1.351  0.2934  0.0265 -0.1068
 3720TIP3    H132719   2.685   6.642   1.433 -2.1517  4.0727 -0.4059
 3720TIP3    H232720   2.820   6.684   1.378  0.7259 -2.2862  0.8837
 3721TIP3   OH232721   4.019   3.541   6.701 -0.3594 -0.5294  0.1548
 3721TIP3    H132722   3.977   3.624   6.726 -1.3373 -0.3388 -1.9214
 3721TIP3    H232723   4.112   3.556   6.718 -0.7567  0.0971  2.0803
 3722TIP3   OH232724   2.565   2.787   0.116  0.8275  0.3938  0.1821
 3722TIP3    H132725   2.538   2.863   0.167 -0.1486  0.0536  0.1933
 3722TIP3    H232726   2.656   2.772   0.142  0.6344  0.7849  1.1334
 3723TIP3   OH232727   6.110   4.317   1.308  0.2264  0.4276  0.5321
 3723TIP3    H132728   6.190   4.267   1.292 -0.5852 -0.4769 -0.9988
 3723TIP3    H232729   6.048   4.252   1.342 -0.4200  0.6710 -0.1449
 3724TIP3   OH232730   5.001   1.102   0.354 -0.5826 -0.1293 -0.0729
 3724TIP3    H132731   4.989   1.175   0.295  1.2321 -0.3631 -0.7893
 3724TIP3    H232732   4.980   1.024   0.302 -0.5469 -0.2459  0.0826
 3725TIP3   OH232733   5.194   4.390   7.569 -0.8600 -0.3349 -0.5347
 3725TIP3    H132734   5.284   4.418   7.590 -0.5578 -1.8429  0.3048
 3725TIP3    H232735   5.169   4.444   7.494  0.5464  0.4958 -0.4390
 3726TIP3   OH232736   0.077   0.589   8.321  0.4120 -0.1398  0.1851
 3726TIP3    H132737   0.102   0.522   8.257 -1.2116 -1.0825  0.4806
 3726TIP3    H232738  -0.008   0.621   8.290 -0.2880 -0.4253  1.6846
 3727TIP3   OH232739   1.734   5.968   1.787 -0.3555  0.3436  0.2680
 3727TIP3    H132740   1.814   5.957   1.838 -0.1176 -0.9055 -0.3272
 3727TIP3    H232741   1.663   5.945   1.848 -0.0051 -2.4538 -0.2363
 3728TIP3   OH232742   0.952   0.130   7.626  0.2547  0.4107  0.0949
 3728TIP3    H132743   1.002   0.118   7.545  0.1020  0.7753 -0.0589
 3728TIP3    H232744   0.941   0.042   7.661  1.4625  0.3648  0.4126
 3729TIP3   OH232745   4.281   1.218   6.858  0.2240  0.2411  0.1288
 3729TIP3    H132746   4.189   1.205   6.836 -0.4584  2.0038  1.6888
 3729TIP3    H232747   4.293   1.313   6.856  2.0710  0.0311 -0.2272
 3730TIP3   OH232748   1.065   3.007   7.264 -0.5376  0.0834 -0.2556
 3730TIP3    H132749   0.999   2.937   7.262 -1.2782  0.7702 -0.4472
 3730TIP3    H232750   1.109   2.995   7.348 -1.8123  0.4108  0.4900
 3731TIP3   OH232751   1.195   6.379   7.807 -0.2440 -0.4806  1.0535
 3731TIP3    H132752   1.166   6.374   7.898  2.1705  2.5943  2.1816
 3731TIP3    H232753   1.289   6.358   7.810  0.4460  1.9197 -0.1999
 3732TIP3   OH232754   4.616   4.607   1.289 -0.2042  0.0753 -0.2793
 3732TIP3    H132755   4.703   4.588   1.255 -0.4784 -0.5889 -0.6299
 3732TIP3    H232756   4.632   4.655   1.371  0.4724  1.0006 -0.9291
 3733TIP3   OH232757   2.752   5.122   0.299  0.2684 -0.3548 -0.1565
 3733TIP3    H132758   2.810   5.055   0.337  0.4906  0.1537  0.4237
 3733TIP3    H232759   2.812   5.184   0.257  0.2229  0.6269  1.1688
 3734TIP3   OH232760   1.516   2.346   2.173 -0.4630 -0.4065 -0.4240
 3734TIP3    H132761   1.597   2.298   2.189  0.8732  1.8569  0.1059
 3734TIP3    H232762   1.465   2.336   2.254  0.1063 -0.3895 -0.0575
 3735TIP3   OH232763   3.886   5.270   1.061 -0.0156  0.1508  0.4714
 3735TIP3    H132764   3.977   5.280   1.088 -0.2684  2.1220  0.7789
 3735TIP3    H232765   3.866   5.178   1.077  0.8610  0.4066  3.8977
 3736TIP3   OH232766   0.007   4.836   7.528 -0.1660  0.0081 -0.7545
 3736TIP3    H132767   0.072   4.767   7.538 -0.5078 -0.3333 -0.8426
 3736TIP3    H232768  -0.077   4.792   7.543 -0.2763  0.8463  1.3822
 3737TIP3   OH232769   2.724   0.125   6.558 -0.3862 -0.2139 -0.0491
 3737TIP3    H132770   2.800   0.136   6.615 -0.9346 -1.5165  0.9700
 3737TIP3    H232771   2.657   0.183   6.595 -0.3373 -0.1065 -0.1280
 3738TIP3   OH232772   5.133   3.937   0.611 -0.0508  0.0896  0.2016
 3738TIP3    H132773   5.093   3.936   0.524  0.7840 -0.8484 -0.1807
 3738TIP3    H232774   5.212   3.990   0.600  1.4643 -2.1370 -0.2887
 3739TIP3   OH232775   1.345   0.881   7.838  0.0517 -0.4455 -0.3249
 3739TIP3    H132776   1.272   0.857   7.895  0.6741 -3.0449 -0.5071
 3739TIP3    H232777   1.409   0.922   7.896 -0.0061 -1.5625  0.5577
 3740TIP3   OH232778   0.156   3.355   7.609 -0.1625 -0.1011 -0.3046
 3740TIP3    H132779   0.223   3.418   7.581  0.8551 -0.9062  0.2531
 3740TIP3    H232780   0.080   3.374   7.553  0.0816  1.6796 -0.0547
 3741TIP3   OH232781   1.641   0.902   1.517  0.1447  0.7400  1.0009
 3741TIP3    H132782   1.727   0.897   1.476  0.6773 -0.3345  2.1914
 3741TIP3    H232783   1.583   0.855   1.457  0.3628  1.4805  0.1873
 3742TIP3   OH232784   2.234   5.877   1.587  0.1043  0.3438  0.2655
 3742TIP3    H132785   2.195   5.873   1.674  0.1822 -1.8157  0.2529
 3742TIP3    H232786   2.167   5.840   1.529  0.8192 -0.1280 -0.2712
 3743TIP3   OH232787   6.500   1.188   0.635  0.0337  0.1091 -0.0370
 3743TIP3    H132788   6.427   1.138   0.599  1.3427 -1.2874 -0.8673
 3743TIP3    H232789   6.532   1.240   0.562 -0.0882  0.7010  0.3192
 3744TIP3   OH232790   5.408   0.866   2.360  0.0668  0.0919  0.2967
 3744TIP3    H132791   5.373   0.893   2.275  0.6631 -0.1924 -0.0476
 3744TIP3    H232792   5.346   0.902   2.424 -0.1363  0.7084 -0.2334
 3745TIP3   OH232793   3.687   0.102   8.336  0.4008  0.6105 -0.3125
 3745TIP3    H132794   3.768   0.050   8.341 -0.5425 -0.9573 -0.6235
 3745TIP3    H232795   3.623   0.052   8.387 -0.3562  1.9110  0.0668
 3746TIP3   OH232796   6.588   5.311   7.611  0.0436 -0.1325  0.6800
 3746TIP3    H132797   6.650   5.239   7.598  0.5198  0.3762  0.1164
 3746TIP3    H232798   6.626   5.363   7.682  1.9718  1.9608 -1.6934
 3747TIP3   OH232799   6.271   2.466   1.476  0.1220 -0.2154 -0.7986
 3747TIP3    H132800   6.270   2.371   1.488 -2.1891 -0.1021  0.4926
 3747TIP3    H232801   6.307   2.501   1.557 -2.6824  0.0674  0.4435
 3748TIP3   OH232802   5.788   1.845   7.641  1.1634 -0.6373  0.2291
 3748TIP3    H132803   5.702   1.808   7.623  1.5001 -0.8261 -1.0521
 3748TIP3    H232804   5.790   1.854   7.736 -0.3577 -0.4089  0.2683
 3749TIP3   OH232805   3.546   5.767   8.147 -0.2724  0.0903  0.5482
 3749TIP3    H132806   3.604   5.716   8.204  0.2453  0.7865  0.6620
 3749TIP3    H232807   3.559   5.858   8.175 -0.1016  0.4320 -0.5952
 3750TIP3   OH232808   2.636   2.044   7.719  0.0192  0.2813 -0.0078
 3750TIP3    H132809   2.547   2.077   7.721  0.2032  0.7565  0.6608
 3750TIP3    H232810   2.689   2.114   7.759  0.6371 -0.1398 -0.0639
 3751TIP3   OH232811   2.133   5.387   8.092  0.5176  0.3756 -0.3330
 3751TIP3    H132812   2.127   5.480   8.068 -1.0253 -0.3685 -3.3518
 3751TIP3    H232813   2.103   5.341   8.014 -0.7107 -2.6237  1.7391
 3752TIP3   OH232814   4.686   4.137   1.532 -0.5386  0.4208 -0.3244
 3752TIP3    H132815   4.715   4.107   1.446 -1.3843  0.4198 -0.6249
 3752TIP3    H232816   4.628   4.068   1.564 -0.1668  0.3837  0.2855
 3753TIP3   OH232817   2.492   4.909   8.497  0.0076 -0.1097 -0.2438
 3753TIP3    H132818   2.567   4.911   8.438  1.2041 -0.7821  1.1739
 3753TIP3    H232819   2.511   4.977   8.562 -0.0584 -0.9756  0.7171
 3754TIP3   OH232820   2.976   1.135   7.568  0.2906  0.3604  0.8283
 3754TIP3    H132821   3.039   1.102   7.504  0.4608 -0.6888  1.5096
 3754TIP3    H232822   2.965   1.063   7.630 -2.2793  0.1321  0.2308
 3755TIP3   OH232823   4.525   0.205   8.221 -0.6420 -0.9240 -0.2353
 3755TIP3    H132824   4.620   0.191   8.216 -0.8300 -2.6910  0.5072
 3755TIP3    H232825   4.492   0.173   8.137 -0.4368  1.5611 -1.3442
 3756TIP3   OH232826   1.125   5.126   7.181  0.5776  0.2201  0.0027
 3756TIP3    H132827   1.158   5.213   7.205  1.1965 -0.4875  1.9317
 3756TIP3    H232828   1.202   5.080   7.147  0.2304  0.4226 -1.1064
 3757TIP3   OH232829   3.620   5.856   0.386  0.4101  0.1901  0.5025
 3757TIP3    H132830   3.687   5.839   0.452  0.4193 -0.5654  0.3034
 3757TIP3    H232831   3.660   5.922   0.329  1.0823 -0.4148  0.2554
 3758TIP3   OH232832   3.016   1.974   7.860 -0.2146  0.3042  0.3162
 3758TIP3    H132833   2.942   1.914   7.868  0.4452 -0.3727  1.6729
 3758TIP3    H232834   2.980   2.060   7.884 -0.1719 -0.3539  3.0769
 3759TIP3   OH232835   0.730   3.788   8.500  0.2331 -0.2485  0.1314
 3759TIP3    H132836   0.702   3.838   8.423 -1.1090 -4.5439 -2.4682
 3759TIP3    H232837   0.821   3.766   8.482  0.1936 -0.5006  0.2361
 3760TIP3   OH232838   4.882   3.398   6.578 -0.7027 -0.1600 -0.1347
 3760TIP3    H132839   4.794   3.401   6.540 -0.6330 -1.5838 -0.4508
 3760TIP3    H232840   4.902   3.305   6.585 -0.1575  0.0738  2.1699
 3761TIP3   OH232841   2.848   6.546   8.772 -0.4213  0.8210  0.2465
 3761TIP3    H132842   2.811   6.590   8.695 -1.6583 -0.4839  0.0424
 3761TIP3    H232843   2.823   6.601   8.846 -1.0728  0.9946 -0.0906
 3762TIP3   OH232844   3.342   2.902   7.974  0.4621  0.4365 -0.5864
 3762TIP3    H132845   3.437   2.898   7.976  0.4271 -0.8652 -0.8519
 3762TIP3    H232846   3.320   2.986   8.015  1.6856  0.4112  0.1474
 3763TIP3   OH232847   0.438   4.675   1.768  0.2057 -0.1486  0.2239
 3763TIP3    H132848   0.461   4.587   1.799  0.0090  0.6716  2.9475
 3763TIP3    H232849   0.517   4.708   1.727  0.6575 -1.1118  0.2838
 3764TIP3   OH232850   4.349   6.308   0.728  0.0333 -0.2538  0.2750
 3764TIP3    H132851   4.393   6.228   0.757 -0.0624 -0.2277  0.4960
 3764TIP3    H232852   4.403   6.340   0.655  3.0460  2.1950  3.2569
 3765TIP3   OH232853   4.169   1.575   0.367  0.0161  0.1332 -1.1685
 3765TIP3    H132854   4.075   1.592   0.378 -0.4667 -0.7611 -3.4541
 3765TIP3    H232855   4.186   1.499   0.424 -1.0750 -0.8116 -2.0488
 3766TIP3   OH232856   5.180   3.891   2.375 -0.1620  0.3532 -0.5445
 3766TIP3    H132857   5.180   3.829   2.303  3.5755 -1.3470  0.6710
 3766TIP3    H232858   5.186   3.837   2.454 -0.0483  2.2035  0.7850
 3767TIP3   OH232859   1.643   0.781   1.778 -0.6683  0.0621 -0.6702
 3767TIP3    H132860   1.655   0.843   1.850  3.3651 -1.5675  0.3784
 3767TIP3    H232861   1.664   0.831   1.700 -0.2754  0.7326 -0.1504
 3768TIP3   OH232862   0.451   4.389   0.441 -0.5026 -0.4204  0.1028
 3768TIP3    H132863   0.439   4.351   0.354 -0.6008  1.3894 -0.7243
 3768TIP3    H232864   0.542   4.367   0.464 -0.9322 -2.2178  0.2579
 3769TIP3   OH232865   3.312   0.061   0.592  0.5184  0.0478 -0.1911
 3769TIP3    H132866   3.396   0.052   0.638  0.2258 -1.4086  0.1087
 3769TIP3    H232867   3.334   0.111   0.513  1.5418  0.2719  0.2105
 3770TIP3   OH232868   2.762   5.584   7.070  0.1725 -0.2095  0.1507
 3770TIP3    H132869   2.823   5.649   7.105  0.0931  1.0746 -1.9017
 3770TIP3    H232870   2.815   5.504   7.061  0.3415 -0.4119  2.4641
 3771TIP3   OH232871   3.629   1.329   2.419  0.6444  0.2623  0.1334
 3771TIP3    H132872   3.716   1.316   2.456  0.8412 -1.3627 -0.7732
 3771TIP3    H232873   3.643   1.326   2.324  0.1506  4.1530 -0.2172
 3772TIP3   OH232874   6.142   5.429   8.568 -0.3464 -0.1702  1.1860
 3772TIP3    H132875   6.101   5.512   8.546  2.6941  1.3645  0.7249
 3772TIP3    H232876   6.218   5.454   8.622 -1.4472 -2.9832  4.3985
 3773TIP3   OH232877   1.993   4.669   8.850 -0.1593 -0.4559  0.2229
 3773TIP3    H132878   1.929   4.660   8.921 -2.3810  0.7102 -1.5060
 3773TIP3    H232879   2.047   4.744   8.875  0.6397 -1.4599  1.7070
 3774TIP3   OH232880   4.525   5.410   1.718  0.3414 -0.3170  0.1636
 3774TIP3    H132881   4.590   5.472   1.686 -0.2643  0.3990  0.2844
 3774TIP3    H232882   4.453   5.465   1.750 -0.0552 -1.0733  0.6023
 3775TIP3   OH232883   3.241   2.720   2.285  0.5754  0.3055 -0.3066
 3775TIP3    H132884   3.226   2.632   2.320  0.8678  0.4215  0.1180
 3775TIP3    H232885   3.157   2.746   2.247 -1.0575  1.7236  3.6906
 3776TIP3   OH232886   4.699   3.990   8.022  0.1979 -0.0907 -0.2573
 3776TIP3    H132887   4.620   3.945   7.992 -0.3115  1.1582 -0.8046
 3776TIP3    H232888   4.726   3.940   8.100 -1.4081 -0.2434  0.2373
 3777TIP3   OH232889   6.307   3.854   6.679  0.1254 -0.1934  0.1403
 3777TIP3    H132890   6.296   3.916   6.751 -0.8455 -1.2093  0.9066
 3777TIP3    H232891   6.309   3.909   6.601 -2.4471  0.7539  0.6332
 3778TIP3   OH232892   1.956   4.763   2.082 -0.2193  0.4823  0.3770
 3778TIP3    H132893   2.045   4.799   2.077  0.4309 -0.7494  2.0572
 3778TIP3    H232894   1.916   4.809   2.156 -0.2091 -0.4822  0.9972
 3779TIP3   OH232895   4.446   5.381   2.334 -0.2006  0.0400  0.0473
 3779TIP3    H132896   4.523   5.438   2.333 -0.2132  0.1210 -2.5753
 3779TIP3    H232897   4.372   5.440   2.323 -0.3290 -0.3179 -1.1389
 3780TIP3   OH232898   6.563   4.269   1.974  0.0365 -0.4782 -1.4019
 3780TIP3    H132899   6.631   4.329   1.946  0.2859 -0.3126 -0.4596
 3780TIP3    H232900   6.481   4.313   1.950  0.0592  1.7307  1.9517
 3781TIP3   OH232901   1.634   4.861   7.504 -0.0427  0.3924 -0.8417
 3781TIP3    H132902   1.682   4.941   7.526 -1.0538  1.1404 -1.2662
 3781TIP3    H232903   1.586   4.840   7.584 -0.1665  0.4944 -0.8896
 3782TIP3   OH232904   1.733   5.247   8.034  0.3353 -0.2527  0.5719
 3782TIP3    H132905   1.775   5.333   8.023 -0.3581  0.0367  0.0995
 3782TIP3    H232906   1.690   5.252   8.120 -1.1891  0.5391 -0.2054
 3783TIP3   OH232907   5.669   0.910   7.308 -0.0263  0.5191 -0.1182
 3783TIP3    H132908   5.676   0.937   7.399 -0.5312 -1.7838  0.6437
 3783TIP3    H232909   5.587   0.862   7.302  0.3627 -0.0321 -1.6145
 3784TIP3   OH232910   2.379   2.330   7.709  0.2191 -0.0921 -0.0190
 3784TIP3    H132911   2.305   2.285   7.670  0.2141  0.2283 -0.3847
 3784TIP3    H232912   2.355   2.342   7.800 -0.2738  0.2103 -0.1878
 3785TIP3   OH232913   4.063   2.295   7.383 -0.6425 -0.0574 -0.1954
 3785TIP3    H132914   4.127   2.285   7.453  0.4689  0.7789 -1.0343
 3785TIP3    H232915   4.068   2.388   7.359 -0.0523 -0.5533 -2.2036
 3786TIP3   OH232916   2.180   3.053   7.899 -0.3484 -0.3384  0.0881
 3786TIP3    H132917   2.239   3.040   7.973 -2.3395 -0.0785  1.8089
 3786TIP3    H232918   2.212   3.133   7.857 -0.1488  0.4626  1.6911
 3787TIP3   OH232919   2.921   0.780   1.216 -0.3407 -0.1905 -0.4898
 3787TIP3    H132920   2.929   0.863   1.262  0.3226 -1.2377  1.3835
 3787TIP3    H232921   2.840   0.741   1.249 -1.9660  0.6904 -3.1443
 3788TIP3   OH232922   5.048   1.919   8.644 -0.0416 -0.3465  0.1863
 3788TIP3    H132923   5.130   1.910   8.692 -0.1170 -0.2335  0.3365
 3788TIP3    H232924   5.024   2.011   8.655 -0.4336 -0.4899  0.5395
 3789TIP3   OH232925   3.832   2.231   0.665 -0.0676 -0.1405 -0.0581
 3789TIP3    H132926   3.900   2.164   0.653  0.7008  0.2906  1.5819
 3789TIP3    H232927   3.878   2.314   0.658 -0.2355  0.1529  1.7736
 3790TIP3   OH232928   1.055   0.247   1.484 -0.4068 -0.2568 -0.0283
 3790TIP3    H132929   0.972   0.295   1.492  0.1251  0.8632 -0.9249
 3790TIP3    H232930   1.121   0.309   1.517  0.3468 -0.1654 -1.6072
 3791TIP3   OH232931   1.544   3.228   7.059 -0.0795 -0.0269 -0.3083
 3791TIP3    H132932   1.620   3.278   7.087 -1.7583  1.0436  2.7682
 3791TIP3    H232933   1.528   3.257   6.969  2.1179  0.9174 -0.4609
 3792TIP3   OH232934   2.422   0.916   0.307 -0.1509  0.1409 -0.1702
 3792TIP3    H132935   2.330   0.937   0.318 -0.0192 -0.1704  1.9452
 3792TIP3    H232936   2.436   0.839   0.363  0.9704 -1.0675 -1.9935
 3793TIP3   OH232937   1.259   3.207   0.040 -0.3615  0.7602  0.5203
 3793TIP3    H132938   1.235   3.121   0.006 -0.3915  0.8799  0.2362
 3793TIP3    H232939   1.211   3.214   0.123 -2.9691  1.7815 -0.9310
 3794TIP3   OH232940   0.048   4.109   6.815  0.5119 -0.4163  0.0982
 3794TIP3    H132941  -0.037   4.067   6.820  0.8142 -1.0432  0.1090
 3794TIP3    H232942   0.050   4.150   6.729 -0.0019  0.0639  0.3069
 3795TIP3   OH232943   1.824   1.068   7.959 -0.1086  0.5107  0.7254
 3795TIP3    H132944   1.847   1.062   8.052 -0.8061  0.6867  0.9149
 3795TIP3    H232945   1.815   0.977   7.931  1.1562  0.4230  0.5500
 3796TIP3   OH232946   0.857   5.311   7.691  0.0809 -0.0952  0.0232
 3796TIP3    H132947   0.798   5.275   7.757  1.0256  0.8420  1.4391
 3796TIP3    H232948   0.928   5.351   7.742  0.6370  1.0138 -1.5600
 3797TIP3   OH232949   3.877   4.969   7.843  0.2919 -0.4700  0.0591
 3797TIP3    H132950   3.954   4.975   7.899  0.4521 -0.3770 -0.1673
 3797TIP3    H232951   3.803   4.984   7.902  0.5330  1.1735 -0.0050
 3798TIP3   OH232952   4.230   0.088   1.402  0.0008  0.4103 -0.5228
 3798TIP3    H132953   4.243   0.174   1.362  0.5978  0.2383 -0.7072
 3798TIP3    H232954   4.135   0.075   1.400 -0.0211  0.6551 -1.3465
 3799TIP3   OH232955   0.722   4.153   8.130  0.0795  0.2039  0.4616
 3799TIP3    H132956   0.728   4.247   8.110  1.1329 -0.1936 -1.3389
 3799TIP3    H232957   0.637   4.126   8.097  0.8433  0.0440 -1.5169
 3800TIP3   OH232958   6.463   5.255   0.359  0.4422 -0.8446 -0.0386
 3800TIP3    H132959   6.437   5.218   0.275  0.4631  0.9782 -0.9073
 3800TIP3    H232960   6.557   5.241   0.364  0.1570 -2.6728  0.6023
 3801TIP3   OH232961   3.122   6.291   6.881 -0.4681  0.0841 -0.1368
 3801TIP3    H132962   3.192   6.338   6.834 -0.1529 -0.0841  0.1599
 3801TIP3    H232963   3.042   6.338   6.857 -0.4073 -0.4000 -1.3707
 3802TIP3   OH232964   5.633   6.706   8.530  0.0814  0.2981  0.0053
 3802TIP3    H132965   5.658   6.797   8.516 -1.0355  0.8204  1.2209
 3802TIP3    H232966   5.544   6.700   8.497  0.0464 -0.2752  0.1880
 3803TIP3   OH232967   6.340   1.301   8.828  0.2438  0.0152 -0.1544
 3803TIP3    H132968   6.339   1.357   8.751  0.0156 -1.8262 -1.5727
 3803TIP3    H232969   6.432   1.277   8.839  0.7403  2.4254  1.8992
 3804TIP3   OH232970   3.722   3.193   0.965  0.1190 -0.5915 -0.4867
 3804TIP3    H132971   3.741   3.129   1.034 -0.2051 -0.9746 -0.7515
 3804TIP3    H232972   3.628   3.187   0.951  0.4162 -1.8642 -2.2562
 3805TIP3   OH232973   6.045   6.586   7.801 -0.0291  0.0404  0.3270
 3805TIP3    H132974   6.129   6.630   7.784 -0.1234 -0.0613 -0.4558
 3805TIP3    H232975   6.015   6.558   7.714 -1.9093  1.9326  0.2865
 3806TIP3   OH232976   0.457   3.391   7.868  0.1463 -0.3867  0.2068
 3806TIP3    H132977   0.367   3.418   7.853  0.2900  0.0327  0.0650
 3806TIP3    H232978   0.510   3.460   7.827  0.5374 -0.0776  1.2024
 3807TIP3   OH232979   5.618   2.304   0.897  0.6238  0.5263  0.6882
 3807TIP3    H132980   5.675   2.234   0.865  1.2195  0.9881  0.7217
 3807TIP3    H232981   5.617   2.369   0.827  1.0818  1.0544  1.1566
 3808TIP3   OH232982   2.269   6.787   0.934 -0.7608 -0.5680 -0.2232
 3808TIP3    H132983   2.272   6.848   1.007 -0.8267 -0.8923  0.0540
 3808TIP3    H232984   2.188   6.809   0.887 -0.2651  0.2348 -0.7252
 3809TIP3   OH232985   1.524   5.643   7.567  0.0454  0.4752 -0.1278
 3809TIP3    H132986   1.450   5.615   7.621  0.2071 -0.6461 -0.4653
 3809TIP3    H232987   1.600   5.599   7.605  0.2053 -0.0925 -1.0706
 3810TIP3   OH232988   5.940   3.674   6.741 -0.1783 -0.0322  0.2380
 3810TIP3    H132989   5.858   3.638   6.775 -0.8686 -0.2501 -1.5539
 3810TIP3    H232990   5.948   3.760   6.782 -2.0855  0.6146 -0.6373
 3811TIP3   OH232991   2.295   3.540   8.012  0.4421 -0.0273  0.3885
 3811TIP3    H132992   2.382   3.501   8.008  0.2391 -0.4069 -1.7248
 3811TIP3    H232993   2.244   3.490   7.947 -0.6294  1.8394 -0.2810
 3812TIP3   OH232994   4.655   3.743   7.844 -0.1728 -0.3874 -0.1027
 3812TIP3    H132995   4.588   3.678   7.820 -3.4066  1.6729  2.4552
 3812TIP3    H232996   4.681   3.782   7.760 -1.6795 -1.7584 -1.2836
 3813TIP3   OH232997   2.861   0.566   0.314  0.3840 -0.0519 -0.3394
 3813TIP3    H132998   2.778   0.519   0.310  0.9159 -0.9497 -3.1062
 3813TIP3    H232999   2.924   0.500   0.344  0.1849  0.5681  1.5386
 3814TIP3   OH233000   5.800   2.308   7.296  0.1310  0.6214 -0.3684
 3814TIP3    H133001   5.778   2.229   7.245  1.6691 -0.4726  0.5945
 3814TIP3    H233002   5.839   2.368   7.232 -1.7507  0.9740 -1.2705
 3815TIP3   OH233003   3.088   5.070   0.620  0.1782  0.1406 -0.4588
 3815TIP3    H133004   3.052   5.007   0.557  1.9305 -2.0588  0.5515
 3815TIP3    H233005   3.170   5.099   0.580 -0.0699  0.9217 -0.4085
 3816TIP3   OH233006   4.064   1.063   8.093 -0.0127  0.3150 -0.3370
 3816TIP3    H133007   4.037   1.052   8.184 -1.6776 -0.4669 -0.8980
 3816TIP3    H233008   3.991   1.107   8.051  1.4286  2.2221 -0.9706
 3817TIP3   OH233009   6.057   0.114   0.945 -0.1316  0.0351 -0.5768
 3817TIP3    H133010   5.981   0.087   0.997  0.1837  0.0040 -0.1243
 3817TIP3    H233011   6.073   0.041   0.886  1.0258 -1.0562  0.9793
 3818TIP3   OH233012   4.333   3.551   1.791 -0.1737 -0.2939 -0.5286
 3818TIP3    H133013   4.410   3.518   1.745  1.8110  3.6755 -0.4881
 3818TIP3    H233014   4.288   3.606   1.727  1.1317  3.1289  1.2563
 3819TIP3   OH233015   4.577   0.487   2.105  0.2428 -0.2086  0.0560
 3819TIP3    H133016   4.594   0.492   2.199  0.3839 -0.5983  0.0488
 3819TIP3    H233017   4.611   0.570   2.071 -2.2211  1.1863  0.7274
 3820TIP3   OH233018   4.451   3.605   0.447  0.6842 -0.1120 -0.0783
 3820TIP3    H133019   4.428   3.649   0.365 -0.6310 -1.8620 -0.7240
 3820TIP3    H233020   4.460   3.676   0.511 -0.7718  1.1412 -1.1669
 3821TIP3   OH233021   6.253   4.496   7.925  0.1608  0.0198 -0.1245
 3821TIP3    H133022   6.159   4.491   7.912 -0.0781  0.5494  1.2851
 3821TIP3    H233023   6.290   4.440   7.856 -1.0920  0.8871 -1.5553
 3822TIP3   OH233024   4.951   1.582   0.426  0.0470  0.2809  0.2599
 3822TIP3    H133025   5.004   1.641   0.479 -0.5729 -1.2928  2.7952
 3822TIP3    H233026   5.003   1.567   0.347  2.8063 -0.1547  2.0133
 3823TIP3   OH233027   4.626   2.470   0.312  0.0603  0.3520  0.3590
 3823TIP3    H133028   4.670   2.487   0.396 -0.8606 -2.1842  1.4479
 3823TIP3    H233029   4.668   2.391   0.278 -1.5280 -0.3405 -0.0850
 3824TIP3   OH233030   3.429   5.183   7.364 -0.4387 -0.3804 -0.3604
 3824TIP3    H133031   3.487   5.111   7.389 -0.3765 -0.0622  0.4555
 3824TIP3    H233032   3.354   5.175   7.422 -0.8563 -0.3243 -0.8844
 3825TIP3   OH233033   0.212   1.075   7.525  0.2929  0.1320  0.9092
 3825TIP3    H133034   0.155   1.022   7.470  1.3210 -1.2550  1.1183
 3825TIP3    H233035   0.152   1.118   7.586 -0.6184 -0.4499  0.4539
 3826TIP3   OH233036   6.423   3.784   0.918 -0.4275  0.3666  0.1036
 3826TIP3    H133037   6.462   3.857   0.870 -0.2745  0.5858  0.5558
 3826TIP3    H233038   6.391   3.725   0.849  0.5816  0.2355 -0.2809
 3827TIP3   OH233039   6.219   0.959   0.825 -0.3416 -0.8423 -0.2331
 3827TIP3    H133040   6.272   1.033   0.854 -0.7247 -0.3568 -0.7599
 3827TIP3    H233041   6.133   0.974   0.862 -0.2697 -1.3311  0.1395
 3828TIP3   OH233042   1.293   4.031   0.482  0.2263 -0.0565  0.2273
 3828TIP3    H133043   1.304   3.972   0.557  0.4720  0.7921  0.8741
 3828TIP3    H233044   1.245   4.105   0.517  0.2825  0.3182 -0.4804
 3829TIP3   OH233045   3.301   2.167   2.130  0.0707  0.7203  0.0555
 3829TIP3    H133046   3.216   2.208   2.142  0.8700  2.6503 -0.5030
 3829TIP3    H233047   3.364   2.238   2.143  1.4928 -0.1245 -1.7944
 3830TIP3   OH233048   6.205   4.679   1.262  0.8819 -0.0325  0.2959
 3830TIP3    H133049   6.229   4.767   1.234 -0.2541  0.1436 -0.1767
 3830TIP3    H233050   6.271   4.655   1.327  3.4486 -0.3172 -2.2027
 3831TIP3   OH233051   2.324   5.943   7.921 -0.2015 -0.2056 -0.0178
 3831TIP3    H133052   2.337   5.901   8.006  0.7769  1.0441  0.4716
 3831TIP3    H233053   2.241   5.990   7.931 -0.4492 -0.6351 -0.0070
 3832TIP3   OH233054   3.192   6.337   0.002 -0.1045  0.6814  0.4994
 3832TIP3    H133055   3.142   6.288  -0.064 -0.2219  1.8988 -0.3384
 3832TIP3    H233056   3.186   6.283   0.081 -0.9450 -0.2380 -0.1676
 3833TIP3   OH233057   1.941   4.888   1.716  0.0304 -0.2460 -0.3056
 3833TIP3    H133058   1.978   4.921   1.798  0.8199 -0.2048 -0.6662
 3833TIP3    H233059   1.925   4.795   1.732 -3.2126  0.4096  1.0795
 3834TIP3   OH233060   1.516   3.812   1.657 -0.1444 -0.3270 -0.1195
 3834TIP3    H133061   1.504   3.903   1.683 -1.1520 -0.7576  1.0355
 3834TIP3    H233062   1.594   3.784   1.706 -1.1157 -0.6835  1.2809
 3835TIP3   OH233063   2.215   6.129   0.629  0.5551 -0.0317  0.0659
 3835TIP3    H133064   2.272   6.091   0.562  0.6226  0.9781 -0.4566
 3835TIP3    H233065   2.274   6.146   0.703  0.6029 -0.5384  0.1510
 3836TIP3   OH233066   0.853   6.596   1.713  0.0804  0.0331  0.0304
 3836TIP3    H133067   0.912   6.658   1.669  0.5594 -0.2425  0.2753
 3836TIP3    H233068   0.811   6.647   1.782 -0.3527  0.3601 -0.4687
 3837TIP3   OH233069   1.261   2.732   1.875  0.2765  0.1091 -0.1915
 3837TIP3    H133070   1.303   2.782   1.945 -1.7559  0.6078  0.7466
 3837TIP3    H233071   1.215   2.661   1.921  0.2677 -0.5467 -1.1905
 3838TIP3   OH233072   0.628   4.282   1.134  0.0204 -0.3694  0.4976
 3838TIP3    H133073   0.564   4.220   1.170  0.4757 -1.6591 -0.8340
 3838TIP3    H233074   0.623   4.271   1.039  0.9637  0.7944  0.2785
 3839TIP3   OH233075   2.413   2.533   0.173 -0.2808 -0.0530  0.5879
 3839TIP3    H133076   2.427   2.505   0.264  0.8624 -0.0242  0.4353
 3839TIP3    H233077   2.472   2.608   0.162 -0.7209  0.2043 -0.0523
 3840TIP3   OH233078   2.341   6.005   0.348  0.2197 -0.3134  0.4001
 3840TIP3    H133079   2.369   5.922   0.385  2.2359  0.0304 -0.2010
 3840TIP3    H233080   2.395   6.016   0.269  0.2555  1.6755  0.6277
 3841TIP3   OH233081   1.702   2.735   7.526 -0.5315  0.3298  0.5860
 3841TIP3    H133082   1.766   2.709   7.460 -0.6699 -1.9470  1.2914
 3841TIP3    H233083   1.754   2.761   7.602 -0.4122 -0.1275  0.6631
 3842TIP3   OH233084   0.370   6.456   2.357 -0.5343  0.2460  0.2460
 3842TIP3    H133085   0.319   6.467   2.438 -0.1485 -0.9866  0.6687
 3842TIP3    H233086   0.460   6.475   2.383 -0.5523  1.0031 -0.1830
 3843TIP3   OH233087   5.958   3.694   2.512  0.4905 -0.3791 -0.4030
 3843TIP3    H133088   5.926   3.730   2.430  0.7561 -0.5166 -0.5693
 3843TIP3    H233089   5.934   3.758   2.579  1.2898  0.2932 -0.7394
 3844TIP3   OH233090   4.773   5.446   8.506 -0.0607  0.2749  0.4128
 3844TIP3    H133091   4.824   5.388   8.450  0.1114  1.2558 -0.4772
 3844TIP3    H233092   4.707   5.390   8.546 -0.5273 -0.3688 -1.1911
 3845TIP3   OH233093   3.238   4.319   1.667  0.0676 -0.0308 -0.3107
 3845TIP3    H133094   3.255   4.232   1.632 -1.0359  0.8438 -3.2786
 3845TIP3    H233095   3.312   4.372   1.638 -0.0679  0.3897  0.0843
 3846TIP3   OH233096   0.059   3.602   1.724  0.0029 -0.1990  0.3046
 3846TIP3    H133097   0.004   3.611   1.802 -1.0254 -0.0801 -0.4168
 3846TIP3    H233098   0.136   3.656   1.743 -0.2810 -0.0911  1.1950
 3847TIP3   OH233099   1.965   4.393   8.015  0.5592  0.7430 -0.3985
 3847TIP3    H133100   2.045   4.351   8.046 -0.0815 -0.1919  0.0040
 3847TIP3    H233101   1.898   4.368   8.078 -0.2279  0.8789 -1.1643
 3848TIP3   OH233102   1.561   3.206   0.149 -0.1052  0.4298  0.1369
 3848TIP3    H133103   1.474   3.206   0.108 -0.2533  0.2645  0.4396
 3848TIP3    H233104   1.548   3.252   0.232  0.3644  1.4465 -0.3416
 3849TIP3   OH233105   1.826   0.485   7.253 -0.2021 -0.4014  0.5665
 3849TIP3    H133106   1.785   0.570   7.236 -1.2966 -0.9158  0.5461
 3849TIP3    H233107   1.764   0.440   7.310 -0.0707 -1.5343 -0.1605
 3850TIP3   OH233108   5.148   0.369   8.741 -0.0998 -0.3567  0.0794
 3850TIP3    H133109   5.229   0.341   8.699  0.1926 -0.4661  0.7006
 3850TIP3    H233110   5.143   0.463   8.724 -0.3132 -0.5083 -0.7321
 3851TIP3   OH233111   0.137   3.350   8.825 -0.1244  0.2823  0.3489
 3851TIP3    H133112   0.227   3.322   8.843 -0.1337  0.2096  0.2792
 3851TIP3    H233113   0.147   3.440   8.792  0.3557 -1.1431 -4.0090
 3852TIP3   OH233114   3.342   0.777   8.394 -0.3546 -0.0292  0.5062
 3852TIP3    H133115   3.275   0.795   8.460 -0.2025 -0.5198  0.7949
 3852TIP3    H233116   3.328   0.686   8.369  0.4047 -0.2344  0.7988
 3853TIP3   OH233117   3.948   0.566   0.363 -0.3457  0.0830  0.0208
 3853TIP3    H133118   3.905   0.617   0.294  0.6018  0.5937 -0.2015
 3853TIP3    H233119   4.017   0.518   0.317  0.8453  1.0742  0.7339
 3854TIP3   OH233120   4.362   4.816   0.637 -0.0836 -0.4784 -0.6563
 3854TIP3    H133121   4.378   4.887   0.575  0.4226 -2.2613 -2.7386
 3854TIP3    H233122   4.380   4.736   0.586 -2.4646 -2.1854  0.9295
 3855TIP3   OH233123   3.028   5.595   8.018  0.0202  0.4294  0.4588
 3855TIP3    H133124   3.034   5.612   7.924  1.2810 -3.1058 -0.2735
 3855TIP3    H233125   3.118   5.593   8.048 -0.2985  0.0921  1.4336
 3856TIP3   OH233126   0.321   4.488   1.300 -0.0158  1.3552 -0.7383
 3856TIP3    H133127   0.294   4.399   1.322  1.3056  1.1974  0.3571
 3856TIP3    H233128   0.253   4.544   1.338 -0.3633  0.8532 -0.6163
 3857TIP3   OH233129   2.362   2.185   2.477 -0.8073  0.1461 -0.5939
 3857TIP3    H133130   2.284   2.141   2.442  0.8034 -2.7872 -0.8401
 3857TIP3    H233131   2.368   2.267   2.428 -2.9376 -0.2032 -1.5519
 3858TIP3   OH233132   4.185   4.629   7.610 -0.5711 -0.4248  0.0693
 3858TIP3    H133133   4.270   4.662   7.638 -0.3684  0.3517 -1.3839
 3858TIP3    H233134   4.125   4.703   7.620 -0.8736 -0.6752  0.1416
 3859TIP3   OH233135   0.624   6.670   8.145 -0.8391 -0.1853  0.2936
 3859TIP3    H133136   0.604   6.716   8.227 -0.5862 -2.0163  1.4264
 3859TIP3    H233137   0.538   6.652   8.107 -1.0279 -0.6490  0.9224
 3860TIP3   OH233138   3.520   2.152   8.169 -0.4466 -0.1210 -0.3093
 3860TIP3    H133139   3.565   2.213   8.110  0.4315 -1.9050 -1.5646
 3860TIP3    H233140   3.578   2.077   8.175 -1.3572 -0.7450  1.4480
 3861TIP3   OH233141   2.710   5.423   8.129 -0.2409 -0.2857 -0.6992
 3861TIP3    H133142   2.637   5.472   8.092  0.3447  0.1182 -1.3653
 3861TIP3    H233143   2.670   5.362   8.191 -0.9025  1.9188  1.1825
 3862TIP3   OH233144   2.145   0.446   7.713  0.2675 -0.7525 -1.0437
 3862TIP3    H133145   2.150   0.416   7.804  0.8670 -1.6599 -1.3565
 3862TIP3    H233146   2.055   0.427   7.686 -0.0063 -0.1915 -0.5599
 3863TIP3   OH233147   4.802   5.276   1.084  0.0069  0.4164  0.1024
 3863TIP3    H133148   4.749   5.241   1.155  0.5219  1.6460  1.1573
 3863TIP3    H233149   4.741   5.328   1.031 -0.6689 -1.6062 -1.2300
 3864TIP3   OH233150   6.087   0.581   7.745  0.4514  0.0530 -0.2825
 3864TIP3    H133151   6.105   0.565   7.652  0.3635  0.6854 -0.4168
 3864TIP3    H233152   6.172   0.601   7.783  0.4348  0.2035 -0.3203
 3865TIP3   OH233153   3.596   2.533   1.071  0.4821 -0.1470  0.3647
 3865TIP3    H133154   3.555   2.470   1.013  1.8737 -2.4014  1.6615
 3865TIP3    H233155   3.640   2.595   1.013 -0.7527 -0.4760 -0.9664
 3866TIP3   OH233156   2.776   2.646   0.267  0.2019  1.0114  0.5555
 3866TIP3    H133157   2.805   2.735   0.250 -1.0398  1.2225 -0.6624
 3866TIP3    H233158   2.845   2.591   0.230  1.2317  1.4261  1.7830
 3867TIP3   OH233159   6.048   3.787   8.689 -0.0318  0.8257 -0.0545
 3867TIP3    H133160   6.012   3.872   8.664  0.6269  1.0313 -0.3400
 3867TIP3    H233161   6.088   3.803   8.775  1.6905  1.2905 -0.8991
 3868TIP3   OH233162   4.386   4.702   8.006  0.7561 -0.0507 -0.5521
 3868TIP3    H133163   4.373   4.611   7.979  0.2582  0.0694 -0.7341
 3868TIP3    H233164   4.481   4.712   8.013  0.8534 -0.3538 -1.3309
 3869TIP3   OH233165   0.001   5.685   8.839  0.5763  0.6725 -0.0489
 3869TIP3    H133166   0.007   5.773   8.874 -3.3371  1.3048 -0.5275
 3869TIP3    H233167  -0.000   5.697   8.744 -2.1866  0.4480 -0.1126
 3870TIP3   OH233168   1.055   6.337   0.621  0.6105  0.0138  0.4156
 3870TIP3    H133169   0.959   6.343   0.630  0.2636 -0.8814 -1.8311
 3870TIP3    H233170   1.089   6.388   0.694 -1.5943  0.6106  1.1234
 3871TIP3   OH233171   6.347   2.767   2.150 -0.0564 -0.2241 -0.0931
 3871TIP3    H133172   6.260   2.773   2.110 -0.2845 -1.7126  0.1235
 3871TIP3    H233173   6.331   2.766   2.244  0.2760  0.5458 -0.0264
 3872TIP3   OH233174   3.851   4.764   6.981 -0.4396 -0.4581 -0.9360
 3872TIP3    H133175   3.828   4.841   6.930 -1.5242 -0.2946 -0.2379
 3872TIP3    H233176   3.861   4.694   6.916  1.4490  0.4238 -1.6687
 3873TIP3   OH233177   3.031   2.319   7.922 -0.4765 -0.4684  0.0268
 3873TIP3    H133178   3.101   2.355   7.867  0.3682 -0.6203  0.9777
 3873TIP3    H233179   3.024   2.380   7.996 -0.3104 -1.2567  0.7066
 3874TIP3   OH233180   2.826   5.904   0.910  0.1374  0.5811 -0.1695
 3874TIP3    H133181   2.778   5.963   0.852 -2.4106 -0.3373  0.8493
 3874TIP3    H233182   2.914   5.899   0.873 -1.2049  0.3644 -3.7095
 3875TIP3   OH233183   4.935   4.220   1.006  0.4134  0.1848 -0.0197
 3875TIP3    H133184   4.915   4.312   0.989  0.9024  0.2516 -0.2601
 3875TIP3    H233185   4.905   4.205   1.096 -0.5223  0.3205 -0.3043
 3876TIP3   OH233186   6.656   4.404   0.888  0.2261  0.4583 -0.3010
 3876TIP3    H133187   6.568   4.422   0.922  1.0779 -0.9319  2.9758
 3876TIP3    H233188   6.648   4.317   0.848 -0.1720  0.9644 -1.3668
 3877TIP3   OH233189   0.961   4.204   1.003 -0.4742 -0.6522  0.6435
 3877TIP3    H133190   0.968   4.181   1.096 -2.6638 -4.3095  0.1222
 3877TIP3    H233191   1.013   4.283   0.994  0.1281 -0.3092  4.8965
 3878TIP3   OH233192   2.484   6.182   2.061  0.0501  0.1820  0.1143
 3878TIP3    H133193   2.551   6.115   2.045 -0.2933 -0.2217  0.3295
 3878TIP3    H233194   2.483   6.193   2.156 -1.1743 -0.8685  0.2548
 3879TIP3   OH233195   4.864   0.359   0.634  0.2627  0.2243  0.2973
 3879TIP3    H133196   4.814   0.434   0.668  0.5304 -0.0765  1.3613
 3879TIP3    H233197   4.877   0.380   0.541  0.0612  1.3485  0.5075
 3880TIP3   OH233198   5.666   6.607   7.797  0.3541 -0.0085  0.1757
 3880TIP3    H133199   5.694   6.697   7.814 -0.4018  0.1965  0.3893
 3880TIP3    H233200   5.727   6.553   7.847 -0.0413  0.4579  1.2023
 3881TIP3   OH233201   4.185   6.208   6.788 -0.1441 -0.0279  0.1307
 3881TIP3    H133202   4.203   6.232   6.697  0.9953 -0.8463  0.1186
 3881TIP3    H233203   4.190   6.291   6.836 -1.8183  0.5967 -0.6647
 3882TIP3   OH233204   0.227   2.116   8.659  0.6218 -0.6994  0.0985
 3882TIP3    H133205   0.251   2.199   8.702  1.8783 -1.2783  0.5796
 3882TIP3    H233206   0.136   2.102   8.684 -0.0693  1.2069 -1.1192
 3883TIP3   OH233207   6.700   2.239   0.213 -0.3191 -0.2256  0.2704
 3883TIP3    H133208   6.619   2.206   0.173 -0.6650 -0.8571  1.4499
 3883TIP3    H233209   6.670   2.301   0.279  0.0924 -1.0816  1.2932
 3884TIP3   OH233210   6.558   4.099   0.370  0.2260 -0.2783  0.5206
 3884TIP3    H133211   6.518   4.088   0.284  0.1977 -0.0938  0.5088
 3884TIP3    H233212   6.484   4.123   0.427  0.8036  4.3229 -0.2976
 3885TIP3   OH233213   4.763   0.603   0.711 -0.8903 -0.2146 -0.4604
 3885TIP3    H133214   4.703   0.554   0.767  0.2262  0.6902  1.6705
 3885TIP3    H233215   4.731   0.693   0.714 -2.1884 -0.4558 -3.3182
 3886TIP3   OH233216   2.096   1.449   8.542 -0.3753  0.1232 -0.1297
 3886TIP3    H133217   2.177   1.398   8.553  0.0151  0.7429 -0.0639
 3886TIP3    H233218   2.045   1.430   8.621 -0.2945 -0.2712 -0.1688
 3887TIP3   OH233219   5.289   3.575   7.752  0.1354 -0.2206 -0.1417
 3887TIP3    H133220   5.300   3.648   7.813 -1.2499 -0.5161  0.4999
 3887TIP3    H233221   5.345   3.506   7.787  0.9818  0.3236 -0.4081
 3888TIP3   OH233222   2.484   3.804   8.486 -0.1478  0.7679  0.4240
 3888TIP3    H133223   2.517   3.743   8.552 -1.7813 -0.4014  0.2314
 3888TIP3    H233224   2.525   3.775   8.404 -1.2936 -0.4386  0.2484
 3889TIP3   OH233225   0.923   4.553   1.994  0.3201  0.1319 -0.2588
 3889TIP3    H133226   0.921   4.648   1.998  0.8511  0.1002  1.9441
 3889TIP3    H233227   1.015   4.530   2.004  0.1273 -0.6103 -0.1251
 3890TIP3   OH233228   6.048   6.382   2.447 -0.2797 -0.2745  0.6683
 3890TIP3    H133229   6.070   6.331   2.369  1.3309  0.2506  0.7364
 3890TIP3    H233230   6.056   6.319   2.519 -0.8145 -0.5231  0.5181
 3891TIP3   OH233231   5.137   1.744   7.377  0.0516  0.2984 -0.4502
 3891TIP3    H133232   5.104   1.657   7.358  3.1429 -1.1608  0.1748
 3891TIP3    H233233   5.115   1.797   7.300 -4.2617 -0.1502  0.2549
 3892TIP3   OH233234   4.818   1.455   0.632 -0.5674 -0.1273  0.1812
 3892TIP3    H133235   4.868   1.481   0.555 -1.5587  1.9512  0.1829
 3892TIP3    H233236   4.796   1.537   0.676 -1.7801 -1.1297  1.5650
 3893TIP3   OH233237   6.423   4.634   8.075 -0.1318  0.6272 -0.2489
 3893TIP3    H133238   6.379   4.656   8.157  1.0084 -0.5550  0.7124
 3893TIP3    H233239   6.356   4.589   8.023 -1.1610  2.2699 -0.4305
 3894TIP3   OH233240   1.159   6.545   7.311  0.0051 -0.2201 -0.4903
 3894TIP3    H133241   1.142   6.482   7.382  1.6245  1.1354  1.1755
 3894TIP3    H233242   1.208   6.616   7.353 -1.3591  1.9851 -2.3843
 3895TIP3   OH233243   1.766   3.779   1.790  0.0400 -0.8607 -0.3567
 3895TIP3    H133244   1.826   3.853   1.794 -1.4205  0.3873 -0.5224
 3895TIP3    H233245   1.796   3.719   1.858  1.5674 -0.3713 -0.5761
 3896TIP3   OH233246   0.373   5.580   1.876 -0.6187  0.2304  0.8547
 3896TIP3    H133247   0.353   5.665   1.837  0.3183  0.8810  1.7372
 3896TIP3    H233248   0.327   5.517   1.820  0.0129  1.1725 -0.8180
 3897TIP3   OH233249   2.781   5.300   7.859  0.6723  0.6363  0.2139
 3897TIP3    H133250   2.748   5.378   7.813  1.4732  0.2364 -1.0744
 3897TIP3    H233251   2.810   5.333   7.945 -2.2478  1.1493  1.1270
 3898TIP3   OH233252   4.569   0.172   7.743  0.2134 -0.0644  0.0169
 3898TIP3    H133253   4.510   0.185   7.817  1.1784 -3.2580  1.5460
 3898TIP3    H233254   4.511   0.159   7.668 -0.9088  0.2386  0.8034
 3899TIP3   OH233255   2.083   0.705   7.089 -0.2780  0.0051  0.0475
 3899TIP3    H133256   2.011   0.761   7.059 -0.7976 -0.1116  1.0213
 3899TIP3    H233257   2.140   0.697   7.013  0.0420  2.2062 -0.0077
 3900TIP3   OH233258   1.598   1.525   7.410  0.4254  0.1625 -0.4370
 3900TIP3    H133259   1.638   1.605   7.374  0.6937  0.6561  0.8783
 3900TIP3    H233260   1.505   1.545   7.413  0.2145 -0.4633 -2.2339
 3901TIP3   OH233261   5.641   1.036   0.190 -0.0793  0.2716  0.0474
 3901TIP3    H133262   5.670   1.119   0.228  0.9695 -1.0574  2.4091
 3901TIP3    H233263   5.623   1.056   0.098  0.4642  3.0089  0.4606
 3902TIP3   OH233264   2.064   3.748   7.685 -0.0283 -0.0302  0.1776
 3902TIP3    H133265   2.043   3.664   7.726 -0.9887  0.3043  0.3759
 3902TIP3    H233266   2.098   3.802   7.757 -1.6847  0.5465  0.5714
 3903TIP3   OH233267   1.303   3.789   8.314 -0.2117  0.0607 -0.5042
 3903TIP3    H133268   1.250   3.834   8.380 -1.3024  0.2644 -1.5060
 3903TIP3    H233269   1.339   3.713   8.361 -1.1814  0.0495  0.2588
 3904TIP3   OH233270   4.841   5.068   7.591 -0.0645  0.5063 -0.0157
 3904TIP3    H133271   4.774   5.135   7.576  1.4017  1.9102 -0.5986
 3904TIP3    H233272   4.897   5.072   7.513  1.9215  0.8934  1.3581
 3905TIP3   OH233273   0.309   0.178   0.809 -0.1258 -0.2225 -0.0400
 3905TIP3    H133274   0.223   0.210   0.783 -0.7778 -1.1028  0.9444
 3905TIP3    H233275   0.361   0.257   0.824 -1.6827  0.4761  2.3232
 3906TIP3   OH233276   0.327   6.004   7.653 -0.0088  0.0239  0.8467
 3906TIP3    H133277   0.307   5.935   7.591  2.2613 -1.0590  1.2366
 3906TIP3    H233278   0.272   5.985   7.729 -0.9639 -0.0851  0.1416
 3907TIP3   OH233279   0.024   3.484   0.183  0.0490  0.4438  0.0535
 3907TIP3    H133280   0.023   3.425   0.107  1.3278 -1.9080  1.7490
 3907TIP3    H233281  -0.065   3.480   0.217  0.2009 -0.8914  0.3594
 3908TIP3   OH233282   3.529   4.614   8.681 -0.3901  0.1822 -0.3985
 3908TIP3    H133283   3.518   4.669   8.758 -0.3411 -0.4963  0.1037
 3908TIP3    H233284   3.446   4.567   8.672  0.3352 -1.3495  0.5379
 3909TIP3   OH233285   0.543   1.356   2.174 -0.0204  0.0451  0.5289
 3909TIP3    H133286   0.494   1.301   2.112  0.0576  1.5616 -0.9524
 3909TIP3    H233287   0.493   1.350   2.256 -1.1656 -0.5776 -0.1770
 3910TIP3   OH233288   4.309   3.460   7.939  0.1847  0.4992 -0.0927
 3910TIP3    H133289   4.323   3.366   7.922 -1.5506  0.3184 -0.7113
 3910TIP3    H233290   4.396   3.498   7.930  0.6690 -0.8191 -1.5386
 3911TIP3   OH233291   3.818   2.461   1.272  0.1154  0.3573  0.2877
 3911TIP3    H133292   3.727   2.451   1.244  0.4244  0.8874 -0.9746
 3911TIP3    H233293   3.833   2.387   1.331  0.0547 -2.2455 -2.7011
 3912TIP3   OH233294   0.308   2.796   2.076  0.7054 -0.1817  0.0664
 3912TIP3    H133295   0.340   2.883   2.052  0.6530 -0.6093 -1.6914
 3912TIP3    H233296   0.266   2.808   2.160  3.7003  0.8317  1.5627
 3913TIP3   OH233297   0.722   3.055   0.644 -0.4405  0.0445  0.3960
 3913TIP3    H133298   0.786   3.014   0.586  0.7327  0.2223  1.5368
 3913TIP3    H233299   0.729   3.006   0.726 -1.8435  0.0092  0.5234
 3914TIP3   OH233300   6.629   1.275   2.063 -0.3969 -0.0632 -0.1306
 3914TIP3    H133301   6.646   1.369   2.061 -0.0220 -0.1417 -0.5849
 3914TIP3    H233302   6.678   1.243   2.139 -0.7690  0.1511  0.2054
 3915TIP3   OH233303   1.352   0.054   8.367  0.7363 -0.4514  0.1305
 3915TIP3    H133304   1.319   0.107   8.440  0.3086  0.4128 -0.6617
 3915TIP3    H233305   1.281   0.057   8.302  1.1902 -1.0369 -0.4037
 3916TIP3   OH233306   2.088   1.625   1.211  0.0053  0.2964  0.4098
 3916TIP3    H133307   2.003   1.610   1.170  0.0533  0.3847  0.2759
 3916TIP3    H233308   2.122   1.537   1.228  0.4572  0.2259 -0.7285
 3917TIP3   OH233309   2.906   2.906   1.349  0.3706 -0.3656  0.1456
 3917TIP3    H133310   2.973   2.856   1.396  1.0322  1.0217  0.7437
 3917TIP3    H233311   2.948   2.927   1.265  0.1061 -0.7786 -0.0916
 3918TIP3   OH233312   6.732   2.705   1.380  0.5341  0.3480 -0.6419
 3918TIP3    H133313   6.661   2.762   1.409  0.8705  1.1685 -1.3865
 3918TIP3    H233314   6.801   2.718   1.446 -0.2710 -1.0475  0.5171
 3919TIP3   OH233315   0.031   2.413   1.004 -0.1056 -0.6589  0.3672
 3919TIP3    H133316   0.089   2.470   1.055  1.0821 -1.9166  0.4709
 3919TIP3    H233317   0.006   2.344   1.064 -0.4580 -0.9727 -0.1304
 3920TIP3   OH233318   1.584   1.116   8.795 -0.2285  0.3787  0.4338
 3920TIP3    H133319   1.501   1.135   8.751 -0.1227  3.8523  1.3662
 3920TIP3    H233320   1.559   1.103   8.887  0.0589 -1.2096  0.3052
 3921TIP3   OH233321   1.682   5.494   0.625 -0.3445  0.5572  0.2351
 3921TIP3    H133322   1.704   5.473   0.715  0.4627  0.8464  0.1110
 3921TIP3    H233323   1.693   5.412   0.577 -0.8014  0.3963  0.3940
 3922TIP3   OH233324   6.498   2.093   6.877  0.1596 -0.1185 -0.0096
 3922TIP3    H133325   6.408   2.066   6.858 -0.2932  0.6774  0.9324
 3922TIP3    H233326   6.494   2.131   6.965  1.2997  0.4914 -0.2029
 3923TIP3   OH233327   0.082   0.282   1.083 -0.0931 -0.2845 -0.5962
 3923TIP3    H133328   0.076   0.255   0.991  0.1975 -0.8214 -0.4632
 3923TIP3    H233329   0.000   0.252   1.122  0.8982 -2.5348 -0.0676
 3924TIP3   OH233330   6.573   1.595   1.584  0.2318 -0.0798 -0.4788
 3924TIP3    H133331   6.578   1.690   1.574 -0.1911 -0.1122 -1.0864
 3924TIP3    H233332   6.537   1.582   1.671  2.6654  0.2559  0.6598
 3925TIP3   OH233333   5.701   3.779   1.248 -0.4159  0.0179 -0.3729
 3925TIP3    H133334   5.666   3.746   1.331 -0.1458 -3.5972 -1.5208
 3925TIP3    H233335   5.625   3.813   1.202 -1.1765 -1.1045  0.0179
 3926TIP3   OH233336   5.877   2.722   0.229 -0.2492  0.3162 -0.4776
 3926TIP3    H133337   5.921   2.655   0.176  2.0426  0.3447  1.2451
 3926TIP3    H233338   5.835   2.673   0.299 -1.8959  0.4223 -1.3366
 3927TIP3   OH233339   5.706   2.542   2.604  0.0894  0.2314  0.5142
 3927TIP3    H133340   5.647   2.526   2.530  1.0967  0.1672 -0.3003
 3927TIP3    H233341   5.663   2.501   2.679 -1.6674  1.5255  0.2939
 3928TIP3   OH233342   5.773   3.504   7.571 -0.0969 -0.1687  0.5803
 3928TIP3    H133343   5.827   3.489   7.649  0.9354 -0.4690 -0.1657
 3928TIP3    H233344   5.683   3.501   7.603  0.3278  0.9320  1.9636
 3929TIP3   OH233345   5.101   1.642   1.604  0.0590 -0.2799 -0.4407
 3929TIP3    H133346   5.052   1.560   1.611  2.5795 -1.7749  0.8095
 3929TIP3    H233347   5.086   1.686   1.688 -2.7218  1.5681 -1.7177
 3930TIP3   OH233348   3.491   0.337   8.349 -0.6373 -0.2030 -0.1216
 3930TIP3    H133349   3.504   0.313   8.257  0.1559 -1.3374  0.2704
 3930TIP3    H233350   3.567   0.301   8.394 -0.4441  1.3444  0.8205
 3931TIP3   OH233351   5.948   0.315   1.632 -0.1741 -0.2034 -0.5497
 3931TIP3    H133352   5.935   0.395   1.582 -2.2315 -0.8229 -1.0973
 3931TIP3    H233353   5.884   0.253   1.597 -1.4415 -0.8156  2.4802
 3932TIP3   OH233354   6.687   4.237   8.106 -0.4342 -0.4433  0.8970
 3932TIP3    H133355   6.703   4.330   8.090  3.3345 -0.6714  2.2505
 3932TIP3    H233356   6.678   4.230   8.201 -0.9170 -1.4601  0.7979
 3933TIP3   OH233357   6.685   5.893   6.960 -0.0694 -0.3482 -0.4189
 3933TIP3    H133358   6.724   5.823   6.908 -0.2884 -0.7871  0.0046
 3933TIP3    H233359   6.598   5.905   6.923 -1.4303 -2.7651  1.7266
 3934TIP3   OH233360   0.648   2.247   7.436 -0.4910 -0.1767  0.2120
 3934TIP3    H133361   0.618   2.274   7.523  0.9052 -0.8697  0.9486
 3934TIP3    H233362   0.653   2.151   7.442  3.7612 -0.0876  0.9080
 3935TIP3   OH233363   3.864   6.088   0.499 -0.0668  0.0568  0.0532
 3935TIP3    H133364   3.907   6.002   0.500 -0.0855  0.0463  1.3745
 3935TIP3    H233365   3.912   6.137   0.432  0.1296 -0.8765 -0.5200
 3936TIP3   OH233366   4.701   6.104   7.874 -0.0268 -0.3370 -0.4331
 3936TIP3    H133367   4.742   6.018   7.870  0.8309 -0.2889  3.4053
 3936TIP3    H233368   4.763   6.164   7.832  0.6058 -1.2254 -0.7746
 3937TIP3   OH233369   3.264   6.510   7.461  0.3366 -0.0652 -0.2804
 3937TIP3    H133370   3.309   6.518   7.545  0.8577  0.0362 -0.5654
 3937TIP3    H233371   3.325   6.461   7.405 -0.4724 -1.1205 -0.2664
 3938TIP3   OH233372   0.572   6.086   2.005 -0.5492  0.0322 -0.1170
 3938TIP3    H133373   0.485   6.107   1.973 -0.7554 -0.6648 -0.0347
 3938TIP3    H233374   0.560   6.008   2.060 -0.1396  0.9430  1.3132
 3939TIP3   OH233375   1.466   0.994   8.533 -0.6497 -0.2907  0.0120
 3939TIP3    H133376   1.439   0.917   8.583 -0.6545 -0.2571  0.0612
 3939TIP3    H233377   1.553   1.016   8.566  0.1608 -1.3800 -1.2752
 3940TIP3   OH233378   4.644   1.087   2.156  0.5718 -0.2202 -0.1446
 3940TIP3    H133379   4.686   1.098   2.241  2.2669 -1.3625 -0.7860
 3940TIP3    H233380   4.551   1.099   2.174  0.9589  0.3250  1.7219
 3941TIP3   OH233381   5.306   2.461   0.379  0.4802 -0.2102  0.0587
 3941TIP3    H133382   5.340   2.536   0.331 -1.4956  1.2732  0.8681
 3941TIP3    H233383   5.229   2.433   0.330  1.0022 -1.5468 -0.0545
 3942TIP3   OH233384   1.394   4.902   2.508 -1.0387  0.1606  0.6818
 3942TIP3    H133385   1.489   4.907   2.516 -0.5477 -2.1697 -1.8869
 3942TIP3    H233386   1.365   4.993   2.506  1.1451  0.9269  1.3864
 3943TIP3   OH233387   4.402   5.021   0.451 -0.0310 -0.2396 -0.3939
 3943TIP3    H133388   4.488   5.029   0.408 -0.3543  0.6126 -0.9115
 3943TIP3    H233389   4.359   4.949   0.404  0.0144  0.0013 -0.8071
 3944TIP3   OH233390   1.485   1.735   6.729  0.3175  0.1503  0.4331
 3944TIP3    H133391   1.556   1.773   6.677 -0.2219  0.4276 -0.1046
 3944TIP3    H233392   1.478   1.792   6.806 -0.0323  0.7525 -0.0351
 3945TIP3   OH233393   4.666   2.886   0.525  0.0519  0.0105  0.6784
 3945TIP3    H133394   4.691   2.974   0.552  0.8387  0.1254 -0.3648
 3945TIP3    H233395   4.587   2.898   0.473  1.0672  0.3174 -0.8535
 3946TIP3   OH233396   1.587   1.004   1.045  0.4951 -0.0230 -0.1054
 3946TIP3    H133397   1.630   1.083   1.077  2.1633 -1.5163  1.5986
 3946TIP3    H233398   1.493   1.022   1.057  0.8796  1.2433  1.4095
 3947TIP3   OH233399   1.375   3.909   0.016  0.0494  0.5708 -0.2555
 3947TIP3    H133400   1.322   3.898   0.094 -0.5659 -0.2574 -0.7764
 3947TIP3    H233401   1.406   4.000   0.021 -1.7524  1.2129 -0.1373
 3948TIP3   OH233402   2.779   0.818   7.473 -0.1536 -0.4437  0.3482
 3948TIP3    H133403   2.685   0.808   7.486 -0.1506  1.8813  3.1747
 3948TIP3    H233404   2.817   0.738   7.509 -1.0203 -1.8124 -1.6487
 3949TIP3   OH233405   1.684   0.576   1.472 -0.5062  0.1100  0.0371
 3949TIP3    H133406   1.656   0.494   1.513  0.5365  0.2517  1.0986
 3949TIP3    H233407   1.660   0.644   1.535 -0.1044  0.4780 -0.2000
 3950TIP3   OH233408   4.070   0.758   1.557  0.5033 -0.3263  0.1814
 3950TIP3    H133409   4.073   0.837   1.611 -1.2796 -1.5723  2.2645
 3950TIP3    H233410   4.009   0.780   1.486  2.6178  1.2149 -1.2830
 3951TIP3   OH233411   3.485   3.182   8.403 -0.4163 -0.3635 -0.3080
 3951TIP3    H133412   3.485   3.183   8.499 -1.2371 -0.8418 -0.2917
 3951TIP3    H233413   3.572   3.151   8.380 -0.2874 -0.4665  0.2902
 3952TIP3   OH233414   1.632   2.101   1.028 -0.8179 -0.6142  0.3305
 3952TIP3    H133415   1.562   2.090   1.093  0.7678 -0.2948  2.1734
 3952TIP3    H233416   1.668   2.013   1.018  0.9750 -0.1905  2.3573
 3953TIP3   OH233417   5.695   1.341   1.368  0.4539 -0.3812  0.4601
 3953TIP3    H133418   5.670   1.420   1.416  1.6676 -0.9850  2.2317
 3953TIP3    H233419   5.698   1.368   1.277 -1.3113  1.0261  0.7556
 3954TIP3   OH233420   3.355   0.115   6.591  0.1253 -0.0440  0.1893
 3954TIP3    H133421   3.438   0.092   6.633  0.1961 -0.4072 -0.1467
 3954TIP3    H233422   3.375   0.117   6.498 -0.8273 -2.7704 -0.1659
 3955TIP3   OH233423   1.555   1.758   0.001 -0.2669  0.0483 -0.7463
 3955TIP3    H133424   1.473   1.799   0.028  0.7747  1.6974  0.0640
 3955TIP3    H233425   1.533   1.665  -0.007 -1.9939  0.3126  0.2832
 3956TIP3   OH233426   0.198   1.094   0.897  0.1262  0.2402  0.0963
 3956TIP3    H133427   0.142   1.052   0.832  1.6874 -1.0446 -0.5003
 3956TIP3    H233428   0.254   1.152   0.845 -0.1070  0.9049  0.5810
 3957TIP3   OH233429   3.028   1.669   1.030  0.5378 -0.4762 -0.4138
 3957TIP3    H133430   2.940   1.703   1.049 -0.1732 -1.8235 -1.1803
 3957TIP3    H233431   3.045   1.696   0.940  1.1632  0.2466 -0.0944
 3958TIP3   OH233432   2.523   0.118   8.866 -0.2614  0.7967  0.1272
 3958TIP3    H133433   2.532   0.207   8.830 -0.5679  0.5663 -0.5229
 3958TIP3    H233434   2.482   0.131   8.952 -3.4308  1.0803 -1.3050
 3959TIP3   OH233435   6.617   6.128   7.177 -0.0557  0.4211  0.1364
 3959TIP3    H133436   6.524   6.133   7.153 -0.0691 -1.5620 -0.3818
 3959TIP3    H233437   6.652   6.057   7.123  1.4525  0.2067  1.3291
 3960TIP3   OH233438   3.783   1.631   1.672 -1.0474  0.3400 -0.0925
 3960TIP3    H133439   3.708   1.630   1.731 -0.7729  1.2190  0.2928
 3960TIP3    H233440   3.859   1.642   1.729 -0.8182  1.7185 -0.6145
 3961TIP3   OH233441   1.861   3.757   0.458  0.4094 -0.3561  0.5464
 3961TIP3    H133442   1.877   3.663   0.448  1.6219 -0.0814 -0.3873
 3961TIP3    H233443   1.915   3.798   0.391  0.4945  1.0670  1.4295
 3962TIP3   OH233444   5.851   6.110   8.833 -0.0600  0.4665  0.1342
 3962TIP3    H133445   5.807   6.191   8.860 -0.5351  0.4431 -0.5489
 3962TIP3    H233446   5.922   6.140   8.776  0.6928  0.4896  1.0581
 3963TIP3   OH233447   4.525   3.015   8.245  0.3661 -0.4737 -0.1636
 3963TIP3    H133448   4.504   3.108   8.235  0.3072 -0.5572 -0.8577
 3963TIP3    H233449   4.453   2.970   8.201  0.0471 -0.8734  0.7444
 3964TIP3   OH233450   3.183   1.267   1.865  0.3976 -0.0163 -0.6258
 3964TIP3    H133451   3.105   1.303   1.822 -0.2404  1.4165  1.5599
 3964TIP3    H233452   3.147   1.210   1.934  1.2913 -0.0800 -0.2062
 3965TIP3   OH233453   3.470   4.803   8.849  0.3792 -0.8528 -0.6979
 3965TIP3    H133454   3.472   4.849   8.933 -0.1844 -2.1719  0.0744
 3965TIP3    H233455   3.414   4.857   8.793 -0.1679 -0.5355  0.1446
 3966TIP3   OH233456   5.855   2.886   2.214 -1.2938 -0.1338  0.1988
 3966TIP3    H133457   5.830   2.913   2.303 -0.5495 -1.0202  0.6976
 3966TIP3    H233458   5.851   2.967   2.163 -0.5819  0.6443  1.3092
 3967TIP3   OH233459   3.708   6.046   8.797  0.0057  0.0904 -0.3531
 3967TIP3    H133460   3.789   5.996   8.800 -0.7499 -1.2506 -1.4166
 3967TIP3    H233461   3.724   6.116   8.734  0.1398 -0.5466 -1.0326
 3968TIP3   OH233462   3.602   1.169   7.060  0.5826  0.1239 -0.0665
 3968TIP3    H133463   3.560   1.254   7.071  3.7931  1.9604 -0.7105
 3968TIP3    H233464   3.659   1.180   6.983 -0.0215 -3.1413 -1.1358
 3969TIP3   OH233465   4.921   0.436   0.382 -0.7306  0.0910  0.2154
 3969TIP3    H133466   4.917   0.424   0.287 -0.3205 -2.7578  0.4676
 3969TIP3    H233467   4.895   0.527   0.396  0.3066  0.9563 -2.6931
 3970TIP3   OH233468   6.007   4.678   7.427 -0.0193 -0.3050  0.7889
 3970TIP3    H133469   6.079   4.631   7.385 -0.6706 -1.9619  1.4339
 3970TIP3    H233470   5.931   4.661   7.370  0.1425  1.8383 -0.1582
 3971TIP3   OH233471   4.628   6.447   0.147  0.9160 -0.2778 -0.1392
 3971TIP3    H133472   4.575   6.451   0.067  1.4104 -1.3183 -0.5467
 3971TIP3    H233473   4.712   6.412   0.117  1.3036 -0.1288  0.7496
 3972TIP3   OH233474   2.086   1.620   8.327  0.2397 -0.3388 -0.0268
 3972TIP3    H133475   2.172   1.583   8.310 -0.2356 -2.5811  1.9052
 3972TIP3    H233476   2.060   1.583   8.411 -2.4310  0.6199 -0.3191
 3973TIP3   OH233477   0.224   1.034   2.478  0.0720 -0.0869 -0.1576
 3973TIP3    H133478   0.140   0.988   2.473 -1.1023  1.7614  1.0988
 3973TIP3    H233479   0.252   1.023   2.569  1.0935 -0.4749 -0.5011
 3974TIP3   OH233480   2.153   6.135   7.895  0.2315  0.1935  0.0645
 3974TIP3    H133481   2.108   6.219   7.888 -0.7405 -0.3387 -0.3332
 3974TIP3    H233482   2.194   6.123   7.809  0.7570  0.4643  0.2729
 3975TIP3   OH233483   5.099   4.881   0.716  0.0184 -0.4115  0.4229
 3975TIP3    H133484   5.125   4.973   0.708  0.8416 -0.5461  1.3100
 3975TIP3    H233485   5.099   4.864   0.810 -0.6170 -1.1893  0.2960
 3976TIP3   OH233486   4.612   1.410   7.526  0.3322 -0.2643  0.1090
 3976TIP3    H133487   4.531   1.432   7.571  0.9964  1.2098  0.6734
 3976TIP3    H233488   4.612   1.465   7.448  0.7147 -0.3413  0.0521
 3977TIP3   OH233489   6.035   0.799   2.271  0.4145  0.6512  0.1542
 3977TIP3    H133490   6.020   0.810   2.364 -0.1052  2.6819 -0.1170
 3977TIP3    H233491   5.957   0.835   2.229  0.3208 -0.8829 -1.0624
 3978TIP3   OH233492   0.696   6.016   6.728  0.0370 -0.0820  0.1309
 3978TIP3    H133493   0.654   6.092   6.769 -1.1006 -0.6354  0.0450
 3978TIP3    H233494   0.767   6.053   6.675  1.1949  0.6973  2.1140
 3979TIP3   OH233495   0.753   4.240   7.581 -0.0962 -0.2113  0.8796
 3979TIP3    H133496   0.739   4.234   7.675  0.7486  0.0460  1.0368
 3979TIP3    H233497   0.845   4.215   7.569 -0.3292 -0.7300  0.0635
 3980TIP3   OH233498   2.928   5.664   1.091  0.2272 -0.1908 -0.2656
 3980TIP3    H133499   2.915   5.753   1.059 -4.2180 -0.1867  0.7742
 3980TIP3    H233500   2.913   5.609   1.014 -0.6755 -0.0405 -0.2106
 3981TIP3   OH233501   1.798   6.603   6.664  1.0458  0.5317  0.3636
 3981TIP3    H133502   1.765   6.521   6.627  0.5150  0.8074  0.2111
 3981TIP3    H233503   1.885   6.613   6.626  0.4204  0.9357 -1.0463
 3982TIP3   OH233504   2.699   6.634   2.253  0.3646 -0.1902 -0.6207
 3982TIP3    H133505   2.614   6.590   2.256  0.1311  0.3025  0.1207
 3982TIP3    H233506   2.680   6.721   2.217  0.3170  0.4193  0.8061
 3983TIP3   OH233507   3.462   4.347   0.706 -0.8533 -0.6013 -0.0795
 3983TIP3    H133508   3.545   4.387   0.680 -0.6544 -0.4676  0.7328
 3983TIP3    H233509   3.406   4.358   0.630  0.0780 -1.2993 -0.8961
 3984TIP3   OH233510   4.746   0.024   8.588  0.0783 -0.0276 -0.1034
 3984TIP3    H133511   4.831   0.046   8.551 -0.0044  0.1992 -0.1567
 3984TIP3    H233512   4.728  -0.064   8.555  0.6333 -0.3806  0.5038
 3985TIP3   OH233513   2.620   3.487   6.605 -0.1640 -0.5712 -0.2320
 3985TIP3    H133514   2.547   3.455   6.552 -0.8641 -0.2855  0.5361
 3985TIP3    H233515   2.689   3.506   6.542 -1.1317  0.1837 -1.0895
 3986TIP3   OH233516   0.479   1.938   2.066  0.7415 -0.2916 -0.0656
 3986TIP3    H133517   0.562   1.935   2.113  0.2522  0.8004  0.9287
 3986TIP3    H233518   0.421   1.989   2.123 -0.0824  0.5054 -1.5490
 3987TIP3   OH233519   3.543   3.483   0.634 -0.1183 -0.4025  0.1776
 3987TIP3    H133520   3.549   3.550   0.702 -0.5672 -0.5196  0.3324
 3987TIP3    H233521   3.450   3.482   0.609 -0.2000 -1.2841  0.4918
 3988TIP3   OH233522   0.674   0.776   0.373 -0.4437 -0.0706  0.0768
 3988TIP3    H133523   0.684   0.858   0.421 -2.6827  0.1587  0.2525
 3988TIP3    H233524   0.649   0.804   0.285 -1.3128 -0.5567  0.1639
 3989TIP3   OH233525   2.824   6.680   7.152 -0.3781 -0.2528 -0.0453
 3989TIP3    H133526   2.829   6.600   7.101  0.2699  0.3066 -0.8834
 3989TIP3    H233527   2.915   6.703   7.171 -0.4685  1.0942 -1.1265
 3990TIP3   OH233528   0.683   0.021   1.541  0.4066 -0.0085  0.0632
 3990TIP3    H133529   0.650  -0.069   1.551  0.4682 -0.2019 -1.3087
 3990TIP3    H233530   0.618   0.075   1.586 -0.0131 -0.6835  0.2856
 3991TIP3   OH233531   4.422   5.039   0.852  0.2843 -0.4603 -0.1762
 3991TIP3    H133532   4.474   5.034   0.772  0.0655 -1.8555 -0.2588
 3991TIP3    H233533   4.484   5.018   0.922 -0.1879 -2.5396 -0.3114
 3992TIP3   OH233534   0.136   0.371   8.739 -0.5193 -0.2546 -0.3708
 3992TIP3    H133535   0.048   0.408   8.737  0.1175  1.3190 -0.6013
 3992TIP3    H233536   0.165   0.371   8.648  0.5344  1.3676 -0.0768
 3993TIP3   OH233537   0.274   0.317   8.479  0.0887  0.2426  0.0626
 3993TIP3    H133538   0.324   0.336   8.399  0.0675 -2.9635 -0.8277
 3993TIP3    H233539   0.228   0.235   8.460 -0.5993 -0.1747  3.0793
 3994TIP3   OH233540   4.211   3.558   8.444 -0.0954  0.2581  0.3697
 3994TIP3    H133541   4.120   3.548   8.418 -0.0196 -0.9349  0.4813
 3994TIP3    H233542   4.229   3.652   8.435 -1.3722  0.5374  0.5122
 3995TIP3   OH233543   2.340   2.032   1.868  0.4514  0.3094 -0.2425
 3995TIP3    H133544   2.365   2.071   1.952 -0.0224 -2.2510  1.1857
 3995TIP3    H233545   2.245   2.033   1.869  0.4110 -1.2075  0.0530
 3996TIP3   OH233546   2.555   6.650   1.578  0.2540  0.6365 -0.0094
 3996TIP3    H133547   2.487   6.663   1.511 -1.6647 -1.0808  1.4547
 3996TIP3    H233548   2.507   6.658   1.661  2.3774  1.8019  1.1761
 3997TIP3   OH233549   5.884   4.616   6.841 -0.2341 -0.4110  0.0241
 3997TIP3    H133550   5.919   4.670   6.771  0.7911 -0.8154  0.2031
 3997TIP3    H233551   5.790   4.635   6.841  0.0598  1.2687 -0.0040
 3998TIP3   OH233552   2.925   2.731   2.637 -0.1361 -0.3539  0.2173
 3998TIP3    H133553   2.957   2.786   2.565 -1.3555  0.0607 -0.0336
 3998TIP3    H233554   2.843   2.771   2.663 -0.8256 -1.7778  0.3480
 3999TIP3   OH233555   6.354   5.878   7.082  0.1701 -0.5355 -0.4714
 3999TIP3    H133556   6.323   5.822   7.153  0.5321 -1.5419 -1.0801
 3999TIP3    H233557   6.337   5.967   7.112 -3.4583 -0.9720 -0.8320
 4000TIP3   OH233558   2.928   0.249   7.973 -0.7859 -0.5727 -0.0008
 4000TIP3    H133559   3.013   0.266   7.932  0.4218  2.2849  3.1797
 4000TIP3    H233560   2.865   0.292   7.917  0.1995 -0.5013 -1.0919
 4001TIP3   OH233561   6.228   5.874   1.382 -0.6146  0.1395 -0.1509
 4001TIP3    H133562   6.201   5.798   1.432 -0.3658 -0.3832 -0.7893
 4001TIP3    H233563   6.323   5.880   1.395 -0.5834  0.1385 -0.3626
 4002TIP3   OH233564   1.412   4.940   0.450 -0.1856 -0.6099  0.2121
 4002TIP3    H133565   1.349   4.955   0.521 -1.7376 -1.3450 -0.9655
 4002TIP3    H233566   1.497   4.963   0.489 -0.8690 -1.7295  2.5597
 4003TIP3   OH233567   4.941   3.282   0.236  0.4660  0.6558 -0.1787
 4003TIP3    H133568   4.918   3.310   0.147  0.3210  0.7617 -0.1090
 4003TIP3    H233569   4.869   3.315   0.290  0.0337 -0.2953 -0.1660
 4004TIP3   OH233570   6.779   5.106   7.613  0.0683  0.4234 -0.1526
 4004TIP3    H133571   6.729   5.094   7.694  0.8862  1.1253  0.4704
 4004TIP3    H233572   6.786   5.018   7.575 -0.8134  0.1815  0.2381
 4005TIP3   OH233573   4.584   6.435   7.069  0.2435 -0.0736  0.6073
 4005TIP3    H133574   4.500   6.477   7.086 -0.5076 -1.1540 -0.2743
 4005TIP3    H233575   4.626   6.430   7.155 -1.4243 -1.2166  1.4275
 4006TIP3   OH233576   3.036   0.655   7.053 -0.2177  0.3316  0.1690
 4006TIP3    H133577   3.081   0.572   7.035 -1.9046 -0.7993  0.8524
 4006TIP3    H233578   3.053   0.709   6.975 -0.5079 -1.3202 -1.1101
 4007TIP3   OH233579   6.070   4.828   8.023 -0.0385 -0.2729 -0.9528
 4007TIP3    H133580   6.128   4.816   8.099 -1.7128 -0.0807  0.4111
 4007TIP3    H233581   6.036   4.917   8.032 -0.9878 -0.5752 -1.4029
 4008TIP3   OH233582   5.253   3.159   1.716 -0.3470 -0.3514  0.0148
 4008TIP3    H133583   5.230   3.179   1.625  0.9767 -0.5142 -0.3720
 4008TIP3    H233584   5.312   3.083   1.710  0.5457  0.2480  0.9250
 4009TIP3   OH233585   3.752   0.127   7.795  0.1149  0.1987  0.1782
 4009TIP3    H133586   3.814   0.116   7.722 -0.7254  0.4895 -0.5964
 4009TIP3    H233587   3.704   0.207   7.773 -0.2223  0.2227  1.0026
 4010TIP3   OH233588   1.322   3.299   8.320 -0.2140 -0.2493  0.2755
 4010TIP3    H133589   1.299   3.380   8.274  1.3646 -0.5283 -1.1086
 4010TIP3    H233590   1.416   3.307   8.335 -0.0355 -1.8098  0.1224
 4011TIP3   OH233591   3.112   2.704   7.613  0.2603 -0.3149 -0.4284
 4011TIP3    H133592   3.051   2.630   7.616  0.4605 -0.4612  0.2045
 4011TIP3    H233593   3.198   2.665   7.624  0.2472  0.1403  1.8403
 4012TIP3   OH233594   1.976   2.880   7.977  0.1406  0.3320 -0.2415
 4012TIP3    H133595   2.042   2.947   7.958  1.0498 -0.3791  0.3192
 4012TIP3    H233596   1.996   2.850   8.066  0.7942 -1.8182 -1.0420
 4013TIP3   OH233597   2.068   3.353   7.564  0.1133  0.0566 -0.2999
 4013TIP3    H133598   2.041   3.418   7.500 -0.2433  0.6866  0.4702
 4013TIP3    H233599   2.144   3.392   7.607 -0.5660  0.3134  0.6929
 4014TIP3   OH233600   5.852   3.457   0.236  0.1805  0.0856 -0.3375
 4014TIP3    H133601   5.798   3.523   0.191  0.7263  0.6925 -0.1104
 4014TIP3    H233602   5.901   3.506   0.301 -0.7503 -0.8112  1.0903
 4015TIP3   OH233603   5.725   0.975   1.877 -0.1215 -0.1898 -0.7486
 4015TIP3    H133604   5.631   0.955   1.866  0.2635 -1.6095 -1.8724
 4015TIP3    H233605   5.733   1.067   1.851 -1.2061 -0.0487 -0.6427
 4016TIP3   OH233606   3.755   2.912   0.117 -0.2471  0.6413 -0.5479
 4016TIP3    H133607   3.816   2.916   0.044  1.0478 -0.0384  0.4568
 4016TIP3    H233608   3.731   2.820   0.125  0.1511  0.5936  0.2785
 4017TIP3   OH233609   2.658   1.223   7.421  0.4437 -0.0172  0.3700
 4017TIP3    H133610   2.686   1.163   7.352 -0.4492 -0.7910  0.6661
 4017TIP3    H233611   2.738   1.271   7.444  1.0522 -0.7016 -0.2483
 4018TIP3   OH233612   1.988   6.723   0.768 -0.2417 -0.0402 -0.2408
 4018TIP3    H133613   1.958   6.752   0.854  0.4484  1.4125 -0.4560
 4018TIP3    H233614   1.923   6.758   0.707 -0.6172 -0.8858 -0.3251
 4019TIP3   OH233615   1.463   6.680   7.083 -0.1526  0.7504  0.1558
 4019TIP3    H133616   1.537   6.741   7.087 -1.7160  2.7355  0.3700
 4019TIP3    H233617   1.437   6.681   6.990 -0.0855  0.2653  0.1307
 4020TIP3   OH233618   4.036   0.806   8.277  0.3773 -1.0109  0.2277
 4020TIP3    H133619   3.978   0.809   8.200  0.2866 -0.6037  0.3065
 4020TIP3    H233620   4.004   0.878   8.333  2.7789  1.2275 -1.0603
 4021TIP3   OH233621   5.185   0.468   2.077 -0.1598  0.1040  0.3613
 4021TIP3    H133622   5.159   0.542   2.131 -1.7489  0.0780 -0.3143
 4021TIP3    H233623   5.250   0.503   2.016 -2.1148  1.3996 -1.0748
 4022TIP3   OH233624   3.362   5.857   7.035 -0.2572 -0.4702 -0.1775
 4022TIP3    H133625   3.313   5.921   6.984 -0.3237 -0.4871 -0.1352
 4022TIP3    H233626   3.391   5.906   7.113 -3.1627 -1.2918  1.5854
 4023TIP3   OH233627   3.787   0.699   6.578 -0.0133 -0.0661 -0.2309
 4023TIP3    H133628   3.851   0.633   6.604 -0.7843 -1.8038 -2.4261
 4023TIP3    H233629   3.814   0.726   6.491 -1.6874 -0.0979 -0.7872
 4024TIP3   OH233630   2.919   2.522   8.547  0.4078  0.6986  0.2684
 4024TIP3    H133631   2.997   2.472   8.524  0.7367  1.2527  0.1823
 4024TIP3    H233632   2.893   2.565   8.466 -0.6309 -0.3357  0.0112
 4025TIP3   OH233633   3.630   2.172   2.430  0.5282 -0.5734  0.1933
 4025TIP3    H133634   3.610   2.115   2.357  1.1535 -1.3515  0.6105
 4025TIP3    H233635   3.687   2.119   2.487  2.5855  1.0218 -0.2631
 4026TIP3   OH233636   2.219   0.518   2.514  0.4608  0.4870  0.4439
 4026TIP3    H133637   2.239   0.436   2.469 -0.5050  0.2408  0.4264
 4026TIP3    H233638   2.225   0.585   2.447  0.9546  0.3949  0.3907
 4027TIP3   OH233639   5.385   0.559   0.922 -0.0154 -0.9775 -0.0276
 4027TIP3    H133640   5.409   0.515   0.841  0.8334  0.4067 -0.5657
 4027TIP3    H233641   5.446   0.633   0.928 -0.4627 -0.7025  1.5615
 4028TIP3   OH233642   5.900   1.012   8.807  0.2398  0.8254 -0.4928
 4028TIP3    H133643   5.987   1.046   8.828  0.3010  0.5070 -0.2378
 4028TIP3    H233644   5.870   1.067   8.734  0.0808  1.8621  0.3199
 4029TIP3   OH233645   4.441   2.218   7.862 -0.7380 -0.7249 -0.1375
 4029TIP3    H133646   4.373   2.153   7.844 -2.6048  1.0976 -0.0066
 4029TIP3    H233647   4.412   2.262   7.941 -0.9671  2.0006 -1.6254
 4030TIP3   OH233648   3.267   3.393   0.866  0.5606  0.3259  0.0115
 4030TIP3    H133649   3.310   3.330   0.809  0.9333 -2.2133  2.8466
 4030TIP3    H233650   3.181   3.356   0.882  1.1340 -0.0946  2.5088
 4031TIP3   OH233651   4.257   2.548   1.465  0.6890 -0.5146  0.0071
 4031TIP3    H133652   4.217   2.545   1.552  1.7322 -2.3482  0.4667
 4031TIP3    H233653   4.323   2.617   1.472 -1.6221  1.9017 -0.4890
 4032TIP3   OH233654   5.502   3.796   1.039  0.6953 -0.1731 -0.1088
 4032TIP3    H133655   5.470   3.872   0.989 -0.3997 -0.2389  0.4600
 4032TIP3    H233656   5.570   3.758   0.984  1.0880  1.0709 -0.5258
 4033TIP3   OH233657   4.789   3.678   0.271 -0.3125  0.2984  0.4995
 4033TIP3    H133658   4.721   3.612   0.255  1.0963 -0.8311 -1.2788
 4033TIP3    H233659   4.792   3.687   0.366 -0.6714 -2.1206  0.8041
 4034TIP3   OH233660   2.936   6.528   2.030 -0.1216  0.1590 -0.3283
 4034TIP3    H133661   2.889   6.553   2.109 -1.3635 -2.1453 -0.2522
 4034TIP3    H233662   2.880   6.557   1.958 -0.6444 -0.6699 -0.2716
 4035TIP3   OH233663   6.617   1.620   8.391  0.0196 -0.5627  0.1313
 4035TIP3    H133664   6.698   1.641   8.344  0.5447 -1.7597  0.4669
 4035TIP3    H233665   6.549   1.622   8.324 -0.0642  2.4333  0.1622
 4036TIP3   OH233666   2.844   3.582   8.434  0.4445 -0.4043 -0.0147
 4036TIP3    H133667   2.891   3.499   8.426  0.7142 -0.1325 -1.5287
 4036TIP3    H233668   2.890   3.642   8.375 -0.9863  0.2555 -0.4935
 4037TIP3   OH233669   3.178   3.664   7.681 -0.0550  0.1658  0.0353
 4037TIP3    H133670   3.242   3.711   7.734 -2.2283  0.5492  2.4815
 4037TIP3    H233671   3.193   3.696   7.592  2.1841  1.2748  0.7430
 4038TIP3   OH233672   2.648   1.062   0.389 -0.4763  0.0849 -0.2813
 4038TIP3    H133673   2.692   0.983   0.419 -1.1298  0.1993  1.1032
 4038TIP3    H233674   2.568   1.030   0.346 -1.3315 -0.0292  1.2971
 4039TIP3   OH233675   4.608   3.151   0.558  0.0086 -0.3040  0.1983
 4039TIP3    H133676   4.605   3.160   0.463 -0.1564 -3.2167 -0.1779
 4039TIP3    H233677   4.539   3.209   0.590 -2.0850 -1.5280 -1.7478
 4040TIP3   OH233678   2.980   2.365   7.292  0.1672  0.1795 -0.2818
 4040TIP3    H133679   2.979   2.349   7.387 -1.8579 -0.8401 -0.4152
 4040TIP3    H233680   2.938   2.287   7.255 -1.0476  1.5016 -1.8263
 4041TIP3   OH233681   0.897   2.732   2.095 -0.1307  0.0035  0.5697
 4041TIP3    H133682   0.933   2.711   2.181  0.2873 -2.3037 -0.0855
 4041TIP3    H233683   0.822   2.789   2.113 -1.3611 -2.1051  2.6706
 4042TIP3   OH233684   5.988   6.129   7.720  0.6158 -0.4538 -0.3260
 4042TIP3    H133685   6.049   6.095   7.786 -0.2485 -2.5416 -0.5288
 4042TIP3    H233686   5.994   6.067   7.648 -0.2056  0.4856 -1.2331
 4043TIP3   OH233687   0.507   4.688   7.392  0.5353  0.0296  0.2867
 4043TIP3    H133688   0.497   4.744   7.469 -0.6827  0.6843 -0.3103
 4043TIP3    H233689   0.569   4.620   7.419 -0.0673  0.0935  1.9254
 4044TIP3   OH233690   1.382   4.199   0.048  0.7375 -0.4016 -0.4531
 4044TIP3    H133691   1.361   4.287   0.017  0.0671 -0.0795  0.8482
 4044TIP3    H233692   1.400   4.210   0.142 -0.0779 -1.7517 -0.1180
 4045TIP3   OH233693   1.927   5.529   8.596 -0.6538  0.1841  0.2844
 4045TIP3    H133694   1.965   5.512   8.510 -2.2928 -0.6832 -0.3226
 4045TIP3    H233695   1.836   5.500   8.588 -1.1937  1.2571  1.9398
 4046TIP3   OH233696   1.875   1.185   0.007 -0.3284 -0.2262 -0.1149
 4046TIP3    H133697   1.834   1.262   0.048 -0.9335  0.4583 -1.8620
 4046TIP3    H233698   1.930   1.222  -0.062  3.7638 -1.0804  2.3898
 4047TIP3   OH233699   0.634   1.371   0.851  0.1450  0.4032  0.5388
 4047TIP3    H133700   0.639   1.351   0.944  1.5487  0.8830  0.5868
 4047TIP3    H233701   0.607   1.463   0.848 -1.2029  0.0275  0.4220
 4048TIP3   OH233702   3.560   6.288   8.051  0.0738  0.3477 -0.0869
 4048TIP3    H133703   3.491   6.223   8.068  1.0347 -0.0151  3.0670
 4048TIP3    H233704   3.587   6.317   8.138  3.6103  0.7887 -1.1989
 4049TIP3   OH233705   4.816   2.500   8.527 -0.0886  0.2581 -0.3338
 4049TIP3    H133706   4.749   2.466   8.586  0.0898 -0.1017 -0.3380
 4049TIP3    H233707   4.898   2.490   8.575  0.2336 -1.3263 -1.1722
 4050TIP3   OH233708   6.336   0.900   7.295 -0.0298  0.1407 -0.2736
 4050TIP3    H133709   6.295   0.814   7.292 -0.0963  0.1653 -0.0426
 4050TIP3    H233710   6.265   0.961   7.315 -0.2998  0.4553 -2.0415
 4051TIP3   OH233711   1.990   5.747   8.266 -0.4360  0.2992  0.5851
 4051TIP3    H133712   1.901   5.728   8.295 -0.8086 -0.0045 -0.6780
 4051TIP3    H233713   1.980   5.818   8.202  0.2564  0.4452  0.6279
 4052TIP3   OH233714   6.221   5.126   8.108 -0.4595  0.0136 -0.5938
 4052TIP3    H133715   6.132   5.114   8.076  0.0111 -1.4081 -1.4640
 4052TIP3    H233716   6.211   5.146   8.201 -1.8086  3.0323 -1.2936
 4053TIP3   OH233717   0.704   3.046   1.190 -0.2575  0.7215 -0.0872
 4053TIP3    H133718   0.640   3.099   1.143 -0.0752 -0.3364 -1.5978
 4053TIP3    H233719   0.668   3.038   1.278 -0.9140  2.2644 -0.1853
 4054TIP3   OH233720   3.904   4.696   7.382  0.1469 -0.1251 -0.0114
 4054TIP3    H133721   3.952   4.741   7.451  1.9382  0.0830 -1.3149
 4054TIP3    H233722   3.961   4.701   7.305 -0.6433 -2.5537 -0.8540
 4055TIP3   OH233723   3.170   0.651   8.084  0.0985 -0.6354 -0.7713
 4055TIP3    H133724   3.107   0.631   8.015 -0.1879 -1.5675 -0.2620
 4055TIP3    H233725   3.129   0.618   8.164  0.5516  0.1613 -0.1898
 4056TIP3   OH233726   5.918   3.683   7.838  0.2710  0.1286  0.0053
 4056TIP3    H133727   5.972   3.694   7.917 -0.5741  1.5884  0.4213
 4056TIP3    H233728   5.959   3.610   7.791  1.5062  0.0059  1.1979
 4057TIP3   OH233729   0.377   0.774   0.855  0.2821 -0.1035  0.5546
 4057TIP3    H133730   0.323   0.695   0.861 -0.2942  0.3050  0.7235
 4057TIP3    H233731   0.352   0.814   0.773  0.0570  0.2878  0.8136
 4058TIP3   OH233732   3.739   4.599   7.573  0.0394 -0.1415  0.3453
 4058TIP3    H133733   3.714   4.682   7.614  0.6369 -0.7660  2.0679
 4058TIP3    H233734   3.787   4.625   7.494  2.4601  1.2660  2.1331
 4059TIP3   OH233735   6.098   3.240   1.253 -0.0342 -0.1320  0.2014
 4059TIP3    H133736   6.081   3.147   1.235 -3.1744  0.2906  0.3045
 4059TIP3    H233737   6.062   3.285   1.176 -0.5359  1.0808  1.1243
 4060TIP3   OH233738   1.155   2.210   1.036 -0.2901 -0.1833  0.0383
 4060TIP3    H133739   1.206   2.267   1.094  1.5136 -1.1393 -0.5144
 4060TIP3    H233740   1.067   2.248   1.036  0.4853  1.7721  0.7767
 4061TIP3   OH233741   4.824   0.592   6.219  0.0266 -0.3577  0.1850
 4061TIP3    H133742   4.756   0.546   6.269 -0.7514  1.0100  0.4402
 4061TIP3    H233743   4.818   0.555   6.131  0.2941 -1.6251  0.6743
 4062TIP3   OH233744   5.939   3.023   8.617 -1.1691  0.0959 -0.1362
 4062TIP3    H133745   5.883   3.089   8.658 -1.2953  0.1775 -0.4384
 4062TIP3    H233746   6.018   3.071   8.591 -0.4245 -0.2443  1.3599
 4063TIP3   OH233747   4.240   6.469   0.095  0.3278 -0.0768 -0.0214
 4063TIP3    H133748   4.224   6.520   0.015 -0.1105 -0.9516 -0.5013
 4063TIP3    H233749   4.213   6.380   0.073  0.2963 -0.3528  1.0770
 4064TIP3   OH233750   6.043   0.942   1.633 -0.2434 -0.1790 -0.5818
 4064TIP3    H133751   5.987   1.004   1.586  1.4569  0.4447 -1.8784
 4064TIP3    H233752   6.120   0.993   1.658  0.1953 -1.2441  0.3284
 4065TIP3   OH233753   5.957   0.528   8.673  0.1843  0.2629  0.4173
 4065TIP3    H133754   5.878   0.499   8.627  0.0532 -0.2019  0.9217
 4065TIP3    H233755   5.973   0.459   8.738  1.8699 -0.4686 -0.6713
 4066TIP3   OH233756   4.509   2.252   1.559 -0.6699  0.1685 -0.4819
 4066TIP3    H133757   4.469   2.310   1.624 -0.9868  1.6414 -1.9237
 4066TIP3    H233758   4.590   2.296   1.534 -0.2850 -0.6447 -0.7247
 4067TIP3   OH233759   5.156   1.753   1.885 -0.0855  0.3230  0.3110
 4067TIP3    H133760   5.252   1.758   1.887  0.1301 -2.3762  0.6230
 4067TIP3    H233761   5.136   1.674   1.936 -2.4813  0.7546  0.1161
 4068TIP3   OH233762   6.229   3.702   7.742  0.3559  0.1631 -0.0192
 4068TIP3    H133763   6.176   3.750   7.677  0.0359  0.9092  0.7792
 4068TIP3    H233764   6.223   3.611   7.714 -0.6445  0.3412 -0.4545
 4069TIP3   OH233765   1.254   6.415   7.095  0.2521 -0.0999 -0.5694
 4069TIP3    H133766   1.193   6.455   7.033 -0.9422 -1.9941 -0.7181
 4069TIP3    H233767   1.251   6.471   7.172 -1.6789 -0.1112 -0.5962
 4070TIP3   OH233768   0.844   5.866   6.902 -0.3330  0.1786 -0.1147
 4070TIP3    H133769   0.804   5.926   6.839 -0.0171 -0.4163 -0.9045
 4070TIP3    H233770   0.771   5.815   6.937 -0.6325  1.1546  0.7289
 4071TIP3   OH233771   5.513   4.927   8.371  0.6379  1.0798  0.1628
 4071TIP3    H133772   5.453   4.863   8.408  0.2531  0.8880 -0.7627
 4071TIP3    H233773   5.472   4.953   8.288  1.4127  1.5783 -0.0728
 4072TIP3   OH233774   6.467   0.397   0.170 -0.0326 -0.8042  0.0088
 4072TIP3    H133775   6.523   0.400   0.247  0.8189 -0.1591 -0.6091
 4072TIP3    H233776   6.500   0.322   0.120  0.1094 -0.5810 -0.2323
 4073TIP3   OH233777   2.272   1.421   7.659 -0.2107 -0.4074 -0.6378
 4073TIP3    H133778   2.337   1.362   7.620  2.3037  2.2433 -0.7849
 4073TIP3    H233779   2.194   1.408   7.606 -0.0561 -3.9566 -0.2826
 4074TIP3   OH233780   5.237   0.270   7.666  0.1009 -0.6816 -0.3340
 4074TIP3    H133781   5.328   0.250   7.687 -0.4037 -2.2372  0.6127
 4074TIP3    H233782   5.220   0.222   7.585  0.0128 -0.7502 -0.2757
 4075TIP3   OH233783   1.208   5.513   0.059  0.3701 -0.2900  0.4405
 4075TIP3    H133784   1.118   5.507   0.027  0.4128 -0.7361  0.4017
 4075TIP3    H233785   1.260   5.468  -0.007  0.9614  2.0878 -0.8542
 4076TIP3   OH233786   6.198   2.216   1.620  0.3611 -0.4461 -0.1734
 4076TIP3    H133787   6.277   2.233   1.672  0.2181 -0.2175 -0.0306
 4076TIP3    H233788   6.135   2.180   1.682 -0.3615  1.3184  0.1875
 4077TIP3   OH233789   2.065   6.747   1.960  0.1829  0.1844 -0.4076
 4077TIP3    H133790   2.097   6.836   1.948 -2.2087  1.1059 -0.5734
 4077TIP3    H233791   2.137   6.700   2.001  1.2292  2.4195  0.4530
 4078TIP3   OH233792   2.720   3.948   1.068  0.7423 -0.1386  0.0011
 4078TIP3    H133793   2.748   4.021   1.014 -1.8462  0.5607 -0.5261
 4078TIP3    H233794   2.711   3.984   1.156 -2.3217  0.7995 -0.5861
 4079TIP3   OH233795   3.209   5.197   8.832  0.4355  0.0534  0.5494
 4079TIP3    H133796   3.196   5.118   8.885 -0.5827 -0.4959 -0.4812
 4079TIP3    H233797   3.156   5.264   8.875 -1.3160 -0.6803 -0.3542
 4080TIP3   OH233798   2.200   1.094   0.090 -0.5431  0.2564  0.1329
 4080TIP3    H133799   2.108   1.069   0.100 -0.7812  0.3901 -1.4398
 4080TIP3    H233800   2.240   1.020   0.044  0.0184  0.4123  0.3659
 4081TIP3   OH233801   0.909   3.155   8.102  0.5171 -0.9523 -0.2336
 4081TIP3    H133802   0.849   3.209   8.051 -2.2544 -0.9789  2.7505
 4081TIP3    H233803   0.861   3.074   8.119  1.8480 -1.4808  1.2691
 4082TIP3   OH233804   5.972   2.154   7.505 -0.3897  0.1313  0.4701
 4082TIP3    H133805   5.952   2.075   7.455  1.4723 -0.3319  0.3854
 4082TIP3    H233806   5.965   2.126   7.596 -3.6994  0.9542  0.5646
 4083TIP3   OH233807   1.536   2.172   7.437 -0.5956 -0.0443 -0.3512
 4083TIP3    H133808   1.490   2.142   7.515 -0.3854 -0.6099 -0.4400
 4083TIP3    H233809   1.569   2.259   7.460 -1.6273  0.3324 -0.2586
 4084TIP3   OH233810   3.432   4.081   7.977 -0.0800  0.5692  0.6001
 4084TIP3    H133811   3.427   4.109   7.886 -1.0644 -2.8053 -0.5188
 4084TIP3    H233812   3.343   4.051   7.998  0.6696 -0.8955  1.8740
 4085TIP3   OH233813   6.028   4.023   8.267  0.4197  0.2845 -0.2133
 4085TIP3    H133814   6.058   4.099   8.318  0.5100 -0.5671  1.0566
 4085TIP3    H233815   6.094   4.012   8.199  1.1286  0.5414  0.4141
 4086TIP3   OH233816   2.331   0.765   0.823 -0.6533 -0.2885 -0.2608
 4086TIP3    H133817   2.388   0.841   0.814 -0.9284 -0.0044  0.3823
 4086TIP3    H233818   2.243   0.798   0.803 -0.5963 -0.7501 -1.3731
 4087TIP3   OH233819   6.366   3.736   8.000 -0.6191  0.2130  0.7690
 4087TIP3    H133820   6.325   3.726   7.913  1.5168 -1.9036 -0.0927
 4087TIP3    H233821   6.349   3.652   8.044  0.8887  0.1092  1.1995
 4088TIP3   OH233822   6.266   2.772   2.423 -0.4574  0.4319 -0.3368
 4088TIP3    H133823   6.283   2.722   2.502 -2.7757  2.3370  1.5221
 4088TIP3    H233824   6.287   2.863   2.447 -2.1963  1.1988 -1.5150
 4089TIP3   OH233825   2.034   5.636   7.279  0.0766 -0.3919 -0.2587
 4089TIP3    H133826   2.124   5.666   7.293  0.3159 -1.7857  1.6270
 4089TIP3    H233827   2.041   5.568   7.213 -0.0749  1.5143 -2.3651
 4090TIP3   OH233828   1.358   0.892   0.855  0.2718  0.5329  0.1591
 4090TIP3    H133829   1.443   0.849   0.868 -0.9780 -1.6674  1.7016
 4090TIP3    H233830   1.317   0.890   0.941 -2.0153 -0.0309 -0.8781
 4091TIP3   OH233831   5.232   0.051   0.187  0.4945 -1.6900  0.4961
 4091TIP3    H133832   5.225   0.121   0.251  0.6390 -0.8468 -0.3933
 4091TIP3    H233833   5.188   0.085   0.109  1.6750 -2.0708 -0.3666
 4092TIP3   OH233834   1.154   3.612   1.891  0.5095 -0.1346 -0.8977
 4092TIP3    H133835   1.226   3.645   1.945  1.3588  0.2532 -2.2166
 4092TIP3    H233836   1.173   3.644   1.803 -2.3296  1.6701 -0.9907
 4093TIP3   OH233837   4.085   6.300   2.474  0.1933  0.3527  0.9903
 4093TIP3    H133838   4.059   6.332   2.387  1.0641 -1.8581 -0.1708
 4093TIP3    H233839   4.011   6.322   2.531 -1.4517 -0.1742 -0.8217
 4094TIP3   OH233840   2.870   1.578   6.888  0.0757  0.1785  0.3555
 4094TIP3    H133841   2.875   1.547   6.979 -0.4740  1.1229  0.7258
 4094TIP3    H233842   2.960   1.596   6.864  0.0896  1.5340  1.3157
 4095TIP3   OH233843   6.225   4.721   1.809 -0.1283  0.2407  0.6854
 4095TIP3    H133844   6.189   4.809   1.797  1.0975  0.8247  1.1511
 4095TIP3    H233845   6.317   4.729   1.784 -0.0086 -0.9195  0.7124
 4096TIP3   OH233846   5.403   1.481   7.984 -0.1695  0.0238  0.4973
 4096TIP3    H133847   5.411   1.568   8.024  1.4099  0.0522  0.1690
 4096TIP3    H233848   5.429   1.420   8.053  2.4129  0.0643 -0.3647
 4097TIP3   OH233849   6.537   4.064   1.057 -0.0381  0.2002 -0.1870
 4097TIP3    H133850   6.495   4.007   1.121  0.5877  0.3218  0.3367
 4097TIP3    H233851   6.625   4.027   1.045 -0.4758 -0.4252 -1.7455
 4098TIP3   OH233852   5.269   5.108   1.242 -0.2293  0.2343 -0.1471
 4098TIP3    H133853   5.255   5.182   1.301 -1.3930  0.6245 -0.8584
 4098TIP3    H233854   5.356   5.123   1.204  0.6397 -0.1632  1.6188
 4099TIP3   OH233855   0.103   0.499   0.505 -0.8174  0.4310 -0.7342
 4099TIP3    H133856   0.014   0.509   0.472 -0.3689 -1.4644 -2.6787
 4099TIP3    H233857   0.156   0.552   0.446 -0.2480 -1.3929 -1.9123
 4100TIP3   OH233858   0.017   4.674   0.625  0.3476 -0.0695  0.6536
 4100TIP3    H133859   0.054   4.624   0.698 -0.4505 -1.9272 -0.1582
 4100TIP3    H233860  -0.076   4.678   0.644  0.1547 -0.4485 -0.1771
 4101TIP3   OH233861   3.640   4.541   1.193  0.8246  0.1936 -0.5509
 4101TIP3    H133862   3.585   4.463   1.196 -0.1263  0.7961 -1.4416
 4101TIP3    H233863   3.705   4.529   1.263  0.9494 -1.5572 -0.9428
 4102TIP3   OH233864   6.609   1.868   6.993  0.2240 -0.2771 -0.0088
 4102TIP3    H133865   6.691   1.836   6.956  1.3797  0.4658  1.7926
 4102TIP3    H233866   6.590   1.947   6.942  1.3892  0.3087  0.4122
 4103TIP3   OH233867   3.470   0.933   8.612  0.0609  0.1289  0.1403
 4103TIP3    H133868   3.449   0.868   8.545 -2.3352  0.2284  0.7209
 4103TIP3    H233869   3.555   0.968   8.585 -0.2889 -0.6383 -2.1926
 4104TIP3   OH233870   6.576   6.492   1.270 -0.2032  0.3262  0.5231
 4104TIP3    H133871   6.655   6.491   1.322 -0.4938  1.9182  1.0494
 4104TIP3    H233872   6.586   6.419   1.208  2.5564  1.6624 -0.7439
 4105TIP3   OH233873   3.697   1.692   8.411  0.4677 -0.0884  0.6663
 4105TIP3    H133874   3.730   1.672   8.323  1.0111  0.3830  0.7495
 4105TIP3    H233875   3.620   1.747   8.396 -0.5345 -1.5082  0.4583
 4106TIP3   OH233876   5.533   3.499   7.295 -0.6247 -0.5113 -0.8709
 4106TIP3    H133877   5.524   3.535   7.384  1.5327 -0.2911 -0.7017
 4106TIP3    H233878   5.495   3.411   7.302  0.1507 -0.7709  0.4677
 4107TIP3   OH233879   4.020   2.990   1.254  0.1867 -0.5681  0.3125
 4107TIP3    H133880   3.966   3.066   1.232  2.2777  0.9191 -0.0101
 4107TIP3    H233881   3.977   2.916   1.211 -1.4123  0.5773 -0.1421
 4108TIP3   OH233882   6.470   4.369   0.487  0.1942  0.4865  0.2612
 4108TIP3    H133883   6.431   4.456   0.497 -0.2540  0.6533 -2.4101
 4108TIP3    H233884   6.520   4.374   0.406  0.1610 -1.7461  0.0568
 4109TIP3   OH233885   4.575   3.920   7.173 -0.0327 -0.6702  0.4788
 4109TIP3    H133886   4.505   3.921   7.237  0.8422  0.1933  1.4595
 4109TIP3    H233887   4.634   3.850   7.202 -0.7047 -1.7270 -0.6180
 4110TIP3   OH233888   6.036   4.284   0.324  0.4990  0.0801  0.6602
 4110TIP3    H133889   6.127   4.274   0.353  1.1371 -0.8669 -1.4892
 4110TIP3    H233890   6.043   4.311   0.233 -1.3983  0.2192  0.5284
 4111TIP3   OH233891   0.088   1.380   7.640  0.2647 -0.2030  0.2673
 4111TIP3    H133892   0.170   1.401   7.685  1.6863  0.3801 -2.3660
 4111TIP3    H233893   0.067   1.292   7.670  2.1215 -0.5513  0.7130
 4112TIP3   OH233894   1.502   0.525   1.837 -0.2429  0.1072 -0.3683
 4112TIP3    H133895   1.482   0.594   1.774  2.8407  0.0148 -1.6156
 4112TIP3    H233896   1.523   0.571   1.918 -1.5922  0.3812 -0.1504
 4113TIP3   OH233897   6.561   6.761   8.089 -0.0198 -0.1929  0.1993
 4113TIP3    H133898   6.516   6.791   8.010 -2.8170 -1.2123  1.2742
 4113TIP3    H233899   6.544   6.667   8.092 -0.6359 -0.0761  2.3539
 4114TIP3   OH233900   5.264   6.636   1.216 -0.4362 -0.9051 -0.4308
 4114TIP3    H133901   5.342   6.633   1.161 -0.5261 -0.2052 -0.6000
 4114TIP3    H233902   5.213   6.710   1.183 -1.4422 -1.6948 -0.6738
 4115TIP3   OH233903   4.297   5.662   0.728  0.0173  0.1192  0.1519
 4115TIP3    H133904   4.311   5.595   0.662  0.4255 -0.1871  0.5392
 4115TIP3    H233905   4.333   5.624   0.809  1.7646  1.4183  0.0405
 4116TIP3   OH233906   6.584   4.873   0.895 -0.2390  0.0598  0.6141
 4116TIP3    H133907   6.641   4.933   0.847  0.5826 -0.2847  1.1481
 4116TIP3    H233908   6.626   4.863   0.980 -1.9699  1.0938  1.6375
 4117TIP3   OH233909   6.421   0.751   0.740 -0.2748 -0.3563  0.0314
 4117TIP3    H133910   6.354   0.776   0.803 -0.3733  0.7785 -0.4933
 4117TIP3    H233911   6.504   0.774   0.782 -0.3770  1.2486 -0.5706
 4118TIP3   OH233912   4.880   1.707   0.968 -0.2647  0.2974  0.1142
 4118TIP3    H133913   4.809   1.642   0.970  0.0766 -0.0791  2.0040
 4118TIP3    H233914   4.884   1.736   0.877 -0.1432 -2.6450 -0.9018
 4119TIP3   OH233915   4.403   0.614   7.433 -0.2773 -0.2132 -0.2092
 4119TIP3    H133916   4.350   0.637   7.357 -0.3177  0.1928 -0.0614
 4119TIP3    H233917   4.340   0.583   7.498 -0.6723  2.5739  0.8650
 4120TIP3   OH233918   2.386   2.477   8.502 -0.5060 -0.6455  0.0256
 4120TIP3    H133919   2.470   2.433   8.520 -0.8430 -0.9534  0.9186
 4120TIP3    H233920   2.323   2.430   8.556 -0.7813  1.3433  1.5497
 4121TIP3   OH233921   6.298   6.658   7.754 -0.2368  0.1041  0.6231
 4121TIP3    H133922   6.308   6.679   7.661  0.5294  1.0983  0.9135
 4121TIP3    H233923   6.347   6.577   7.765  1.9550  1.3592  0.6546
 4122TIP3   OH233924   3.964   1.268   7.723 -0.1810  0.0565  0.3250
 4122TIP3    H133925   3.937   1.290   7.812 -0.1230 -0.8345  0.5718
 4122TIP3    H233926   3.907   1.319   7.667 -0.8588 -0.0944  0.8690
 4123TIP3   OH233927   6.672   0.829   0.857  0.0253  0.6503  0.5636
 4123TIP3    H133928   6.719   0.843   0.776  0.3977 -0.0841  0.6459
 4123TIP3    H233929   6.636   0.915   0.880 -1.1853  0.6107 -1.0495
 4124TIP3   OH233930   0.753   1.759   1.139 -0.0457  0.6969 -0.0872
 4124TIP3    H133931   0.844   1.787   1.150 -0.6062  2.4266  0.6402
 4124TIP3    H233932   0.705   1.841   1.131 -1.6492 -0.1544  0.4660
 4125TIP3   OH233933   2.766   5.855   7.333 -0.1274  0.7798  0.1844
 4125TIP3    H133934   2.853   5.894   7.343 -0.7457  2.3619 -0.2342
 4125TIP3    H233935   2.724   5.908   7.265 -1.0159 -0.7048 -0.4620
 4126TIP3   OH233936   0.076   3.604   8.618  0.0142 -0.7787 -0.7001
 4126TIP3    H133937   0.035   3.690   8.632  0.2678 -0.8855  0.9398
 4126TIP3    H233938   0.170   3.621   8.626  0.0259 -1.3393  0.6882
 4127TIP3   OH233939   3.676   2.035   7.916  0.4846  0.1407  0.3647
 4127TIP3    H133940   3.599   1.987   7.886  1.6454 -1.7735  0.3038
 4127TIP3    H233941   3.643   2.123   7.936 -1.6652 -0.5760  0.2085
 4128TIP3   OH233942   6.792   1.294   0.063  0.2649 -0.1006  0.0684
 4128TIP3    H133943   6.769   1.256   0.148 -2.5112  1.5196  0.1551
 4128TIP3    H233944   6.850   1.367   0.084 -0.5300  0.3886  0.6120
 4129TIP3   OH233945   3.434   1.576   1.714 -0.7246  0.2174 -0.3881
 4129TIP3    H133946   3.496   1.563   1.786  0.7382 -0.8962 -1.7407
 4129TIP3    H233947   3.393   1.660   1.731  0.7556  0.7197  0.8947
 4130TIP3   OH233948   1.500   0.038   2.111  0.5634  0.0554  0.1240
 4130TIP3    H133949   1.536  -0.035   2.060  0.0659 -0.4586  0.4982
 4130TIP3    H233950   1.577   0.088   2.139  0.9881 -0.9687  0.8285
 4131TIP3   OH233951   3.664   1.552   6.478 -0.3091  0.6182  0.5123
 4131TIP3    H133952   3.722   1.584   6.409 -0.5989  0.0807  0.0072
 4131TIP3    H233953   3.576   1.558   6.440 -0.3557 -0.9931  0.3017
 4132TIP3   OH233954   0.271   0.201   7.519  0.4768 -0.2718 -0.1786
 4132TIP3    H133955   0.290   0.111   7.543 -0.3324 -0.1739  0.9294
 4132TIP3    H233956   0.222   0.236   7.594  1.3282  1.2774 -0.2864
 4133TIP3   OH233957   1.141   0.351   7.473 -0.2800  0.2311  0.1737
 4133TIP3    H133958   1.046   0.343   7.482 -0.1749 -1.4650  0.0208
 4133TIP3    H233959   1.168   0.406   7.546 -1.5610  2.2235 -0.7690
 4134TIP3   OH233960   4.842   2.408   7.494  0.2473  0.2135 -0.1404
 4134TIP3    H133961   4.818   2.500   7.479 -3.4096 -0.6134 -0.2439
 4134TIP3    H233962   4.921   2.413   7.548 -0.1833  3.4235  0.4239
 4135TIP3   OH233963   5.588   0.392   1.698 -0.2383  0.7756  0.2731
 4135TIP3    H133964   5.526   0.324   1.673  0.2077  0.3119  0.4180
 4135TIP3    H233965   5.604   0.441   1.617  0.5939 -0.2300 -0.1874
 4136TIP3   OH233966   2.389   1.281   7.274  0.0301  0.2210 -0.2554
 4136TIP3    H133967   2.480   1.260   7.295  0.2778  0.4929 -1.0075
 4136TIP3    H233968   2.392   1.312   7.183 -1.2031 -2.3424 -1.2638
 4137TIP3   OH233969   3.332   4.350   7.101 -0.4925  0.0206 -0.3757
 4137TIP3    H133970   3.407   4.299   7.130  0.6853  1.0624 -1.4334
 4137TIP3    H233971   3.273   4.286   7.060  0.9743 -0.5371 -1.7463
 4138TIP3   OH233972   2.981   3.983   7.973  0.6912 -0.0435  0.0344
 4138TIP3    H133973   2.963   4.049   8.039  2.3385  0.5054 -0.0043
 4138TIP3    H233974   3.060   3.939   8.005  1.1652 -0.1660 -1.2512
 4139TIP3   OH233975   0.047   6.551   1.301  0.8046  0.0685  0.7322
 4139TIP3    H133976   0.072   6.604   1.225  2.4610  0.2785  1.3779
 4139TIP3    H233977   0.124   6.551   1.357 -0.4248  0.0775  2.5307
 4140TIP3   OH233978   1.716   6.752   6.870  0.1336 -0.1729  0.4986
 4140TIP3    H133979   1.654   6.819   6.842  1.2901  0.5581 -0.3814
 4140TIP3    H233980   1.736   6.703   6.790  2.1317  0.8140  0.3419
 4141TIP3   OH233981   0.764   1.698   2.140 -0.0032 -0.2963 -0.2889
 4141TIP3    H133982   0.735   1.693   2.048  1.7449  0.9486 -0.9706
 4141TIP3    H233983   0.742   1.787   2.166 -0.3229 -0.5919  0.4584
 4142TIP3   OH233984   5.770   2.561   1.137 -0.0141 -0.2011  0.0904
 4142TIP3    H133985   5.675   2.550   1.131 -0.0321  0.7839 -2.5853
 4142TIP3    H233986   5.783   2.656   1.131  1.2107 -0.4539 -1.9381
 4143TIP3   OH233987   3.098   2.303   8.700  0.4370  0.4874  1.1057
 4143TIP3    H133988   3.017   2.253   8.688  1.0259 -0.1369 -0.4663
 4143TIP3    H233989   3.164   2.253   8.653  1.3811  1.9281  0.8567
 4144TIP3   OH233990   3.773   6.441   0.639 -0.2419  0.6177  0.2828
 4144TIP3    H133991   3.857   6.478   0.664 -0.7991  1.9782  0.2013
 4144TIP3    H233992   3.716   6.516   0.624 -1.4075 -0.2652  0.0740
 4145TIP3   OH233993   5.845   5.306   0.496 -0.1426  0.3391  0.1709
 4145TIP3    H133994   5.824   5.215   0.475 -3.9385  1.3090 -0.9994
 4145TIP3    H233995   5.795   5.325   0.575 -0.2162  1.6614 -0.1650
 4146TIP3   OH233996   1.763   3.163   0.899 -0.1237  0.0948  0.6356
 4146TIP3    H133997   1.801   3.094   0.844  1.5633  1.4685 -0.0107
 4146TIP3    H233998   1.794   3.142   0.987  0.4836  0.0836  0.4229
 4147TIP3   OH233999   0.128   3.698   1.040 -0.4286 -0.1370  0.3499
 4147TIP3    H134000   0.059   3.634   1.023 -0.2978  0.2270 -2.0354
 4147TIP3    H234001   0.087   3.783   1.019  0.7393  0.0602 -1.3587
 4148TIP3   OH234002   4.361   6.791   7.221 -0.2209  0.3622  0.4643
 4148TIP3    H134003   4.344   6.767   7.130  0.6223  0.7281  0.1992
 4148TIP3    H234004   4.448   6.757   7.239 -0.1823  0.7228  0.9796
 4149TIP3   OH234005   4.340   0.899   6.859 -0.2696 -0.3125  0.0437
 4149TIP3    H134006   4.247   0.893   6.838 -0.1677 -0.8260 -0.2709
 4149TIP3    H234007   4.376   0.813   6.835  0.4645  0.1941 -0.7159
 4150TIP3   OH234008   5.481   0.819   1.715  0.0086 -0.0173 -0.1932
 4150TIP3    H134009   5.439   0.791   1.634  0.3631  0.6753 -0.6290
 4150TIP3    H234010   5.456   0.911   1.724 -0.2269 -0.1461  0.6195
 4151TIP3   OH234011   1.197   6.043   1.274 -0.4839  0.0149  0.0730
 4151TIP3    H134012   1.135   5.970   1.271 -0.8714  0.3570 -0.5378
 4151TIP3    H234013   1.145   6.116   1.309  0.1189 -0.1975  1.4958
 4152TIP3   OH234014   1.062   3.847   8.695 -0.3882  0.4598  0.0916
 4152TIP3    H134015   1.009   3.787   8.643  0.0638 -1.4467  1.6866
 4152TIP3    H234016   1.001   3.915   8.724 -1.2432 -0.0110 -0.5659
 4153TIP3   OH234017   4.140   3.003   7.199  0.6396 -0.7267  0.1020
 4153TIP3    H134018   4.141   3.049   7.115 -1.6652 -0.1356  0.3451
 4153TIP3    H234019   4.098   3.063   7.260 -1.4560 -2.6435  0.6917
 4154TIP3   OH234020   1.165   0.279   8.390  0.2027 -0.3607 -0.4341
 4154TIP3    H134021   1.219   0.275   8.311  0.3230 -2.6797 -0.3170
 4154TIP3    H234022   1.080   0.244   8.363 -0.6166  1.2720 -0.1080
 4155TIP3   OH234023   1.271   6.702   0.531 -0.0135 -0.3028 -0.1675
 4155TIP3    H134024   1.317   6.622   0.557 -0.8691 -0.4345  1.0567
 4155TIP3    H234025   1.198   6.672   0.476 -0.2492 -0.3617  0.1729
 4156TIP3   OH234026   1.162   3.050   0.614  0.2092 -0.0277  0.3258
 4156TIP3    H134027   1.138   3.142   0.601  1.0566  0.1669  0.1110
 4156TIP3    H234028   1.249   3.042   0.575  0.6209 -0.6617  1.3436
 4157TIP3   OH234029   3.883   4.885   0.394  0.2309  0.3885  0.0163
 4157TIP3    H134030   3.901   4.791   0.398 -0.1625  0.3145  0.1554
 4157TIP3    H234031   3.946   4.919   0.330  1.7758  0.3811  1.4823
 4158TIP3   OH234032   3.309   3.635   0.697  0.3163 -0.3947 -0.4628
 4158TIP3    H134033   3.294   3.578   0.772  1.9390 -0.4671 -0.1624
 4158TIP3    H234034   3.262   3.715   0.718  1.1788 -0.2177  0.8982
 4159TIP3   OH234035   1.506   4.726   8.014 -0.3419 -0.4104 -0.3785
 4159TIP3    H134036   1.545   4.803   8.054  0.3399 -0.8409 -0.1877
 4159TIP3    H234037   1.436   4.760   7.959 -1.9906  0.1436  1.9146
 4160TIP3   OH234038   1.587   5.989   0.955 -0.2680  0.1094  0.0468
 4160TIP3    H134039   1.672   5.952   0.931  0.0970  0.8674  0.1606
 4160TIP3    H234040   1.606   6.077   0.986 -0.9524 -0.1931  1.3881
 4161TIP3   OH234041   3.111   0.619   1.118  0.2997  0.3943 -0.9662
 4161TIP3    H134042   3.050   0.616   1.044  1.4239  1.8584 -2.0112
 4161TIP3    H234043   3.058   0.651   1.191 -0.4767  0.3879 -1.5119
 4162TIP3   OH234044   5.131   5.094   1.947  0.2505 -0.3550 -0.9634
 4162TIP3    H134045   5.216   5.138   1.946 -1.3829  3.1940 -0.5456
 4162TIP3    H234046   5.152   5.002   1.960  3.9797  0.3978 -0.3460
 4163TIP3   OH234047   3.283   1.768   8.478 -0.6770  0.3588  0.1060
 4163TIP3    H134048   3.221   1.760   8.405 -1.6193  1.2314  0.7937
 4163TIP3    H234049   3.322   1.681   8.485 -0.6098  0.2447 -1.3996
 4164TIP3   OH234050   1.207   1.055   2.168 -0.2772 -0.0227 -0.5697
 4164TIP3    H134051   1.181   1.108   2.244 -2.0241  1.0107 -1.8203
 4164TIP3    H234052   1.166   0.970   2.183  1.7113 -0.8117  0.9505
 4165TIP3   OH234053   5.113   1.843   8.149  0.1425  0.2304 -0.2086
 4165TIP3    H134054   5.082   1.794   8.073 -1.3700  2.0978 -0.8981
 4165TIP3    H234055   5.138   1.929   8.113 -1.8107  1.6048  1.4928
 4166TIP3   OH234056   1.450   5.074   2.212  0.2590  0.2747  0.7920
 4166TIP3    H134057   1.424   5.080   2.303  0.0143  0.7263  0.6924
 4166TIP3    H234058   1.443   5.164   2.178 -0.0645  0.0416  0.2188
 4167TIP3   OH234059   3.830   1.739   7.395  0.3863 -0.0986 -0.1366
 4167TIP3    H134060   3.874   1.772   7.316 -0.0259 -1.4495 -0.9684
 4167TIP3    H234061   3.794   1.818   7.437  1.7196  0.7863 -0.5889
 4168TIP3   OH234062   4.739   3.383   1.161 -0.1166  0.5133  0.2145
 4168TIP3    H134063   4.692   3.304   1.132 -0.5428 -0.2525  2.6787
 4168TIP3    H234064   4.676   3.454   1.149 -0.4270  0.1554 -0.2910
 4169TIP3   OH234065   3.124   2.348   8.402  0.4142 -0.1379 -0.0401
 4169TIP3    H134066   3.193   2.282   8.401 -0.1436 -0.7492  0.6725
 4169TIP3    H234067   3.049   2.305   8.361  0.6624  0.7904 -1.5564
 4170TIP3   OH234068   4.829   3.655   6.416  0.0453 -0.0634  0.0255
 4170TIP3    H134069   4.776   3.576   6.413  1.8491 -1.3320  0.0963
 4170TIP3    H234070   4.846   3.669   6.509  1.3929 -0.7922 -0.0903
 4171TIP3   OH234071   1.705   4.061   1.012 -0.3762 -0.3635  0.3308
 4171TIP3    H134072   1.740   4.081   0.925  1.8942  0.4325  1.3453
 4171TIP3    H234073   1.701   4.145   1.056 -1.0968 -0.8146  1.1458
 4172TIP3   OH234074   6.691   4.865   1.183 -0.1755  0.0687  0.1937
 4172TIP3    H134075   6.646   4.832   1.261  1.2240 -0.6654  0.7194
 4172TIP3    H234076   6.755   4.928   1.216 -0.7755  1.0985 -0.5449
 4173TIP3   OH234077   6.453   2.925   1.859 -0.2101 -0.7918 -0.0170
 4173TIP3    H134078   6.490   2.902   1.774  0.3052 -0.4465  0.1110
 4173TIP3    H234079   6.517   2.893   1.923  1.1294  1.9485  0.1548
 4174TIP3   OH234080   1.392   0.178   1.471  0.3206 -0.0284 -0.1036
 4174TIP3    H134081   1.393   0.262   1.518 -0.8202  0.0442 -0.1807
 4174TIP3    H234082   1.433   0.116   1.532  0.9729  0.5286  0.0378
 4175TIP3   OH234083   0.280   2.138   8.400  0.1529  0.4448  0.4961
 4175TIP3    H134084   0.204   2.098   8.357 -0.1383 -0.3481  1.6745
 4175TIP3    H234085   0.263   2.126   8.493  1.4160  0.8654  0.8006
 4176TIP3   OH234086   2.231   6.006   6.572 -0.8457 -0.1971  0.1540
 4176TIP3    H134087   2.152   5.957   6.548 -0.6850  0.0074 -0.8294
 4176TIP3    H234088   2.302   5.962   6.526 -0.6669  0.8059 -0.5624
 4177TIP3   OH234089   0.639   0.597   7.901  0.2376  0.1124 -0.0867
 4177TIP3    H134090   0.599   0.583   7.816 -0.2800 -0.9126  0.3120
 4177TIP3    H234091   0.625   0.690   7.919 -1.9404 -0.1839  0.0152
 4178TIP3   OH234092   3.498   1.945   8.587  0.0130 -0.1446 -0.1099
 4178TIP3    H134093   3.433   1.894   8.539 -1.9411  1.1066  1.0995
 4178TIP3    H234094   3.506   1.901   8.672 -0.3854  0.5437  0.2951
 4179TIP3   OH234095   1.471   5.613   8.370 -0.4982  0.2691 -0.4037
 4179TIP3    H134096   1.521   5.662   8.434 -2.4154  0.7014  0.8402
 4179TIP3    H234097   1.416   5.678   8.326 -0.9290 -0.3502 -0.8116
 4180TIP3   OH234098   2.476   1.530   6.697  0.1378 -0.0858 -0.4838
 4180TIP3    H134099   2.401   1.568   6.744  1.2420  1.0182  0.4502
 4180TIP3    H234100   2.538   1.602   6.688  2.3535 -1.5884  1.4180
 4181TIP3   OH234101   3.977   1.443   6.556  0.1824  0.4217 -0.3518
 4181TIP3    H134102   3.931   1.488   6.484  2.1717  0.9717 -1.3790
 4181TIP3    H234103   3.965   1.350   6.538  0.3078  0.5561 -1.2101
 4182TIP3   OH234104   4.045   6.218   1.673  0.2483  0.1969  0.0954
 4182TIP3    H134105   4.139   6.226   1.691 -0.1187 -0.7273  2.8997
 4182TIP3    H234106   4.030   6.124   1.666 -0.5976  0.3047  0.4459
 4183TIP3   OH234107   4.272   2.317   8.065  0.1518  0.6753  0.2197
 4183TIP3    H134108   4.307   2.346   8.149 -0.4678  0.9257  0.3959
 4183TIP3    H234109   4.228   2.234   8.085 -0.3965  0.9670  0.2353
 4184TIP3   OH234110   5.076   2.526   0.146  0.1214 -0.1190 -0.1755
 4184TIP3    H134111   4.992   2.522   0.100 -0.1503 -0.2684  0.3394
 4184TIP3    H234112   5.083   2.443   0.192  0.7075 -0.2452 -0.4757
 4185TIP3   OH234113   1.179   5.904   0.400 -0.4638  0.3657 -0.1307
 4185TIP3    H134114   1.131   5.826   0.430 -0.8458 -0.0984 -1.8196
 4185TIP3    H234115   1.176   5.964   0.474  2.0023 -2.1076  2.2140
 4186TIP3   OH234116   5.903   3.669   0.425 -0.0100 -0.6675 -0.6138
 4186TIP3    H134117   5.998   3.657   0.433  0.2646  1.0352 -0.9172
 4186TIP3    H234118   5.872   3.673   0.515  0.2703 -0.7426 -0.5104
 4187TIP3   OH234119   2.604   2.304   8.585  0.6043 -0.1622 -0.1289
 4187TIP3    H134120   2.614   2.212   8.560 -0.0450 -0.2103 -0.2343
 4187TIP3    H234121   2.655   2.312   8.666 -0.3787 -0.9451  0.5993
 4188TIP3   OH234122   6.687   2.679   0.750 -0.2595  0.1122 -0.0850
 4188TIP3    H134123   6.718   2.767   0.770  1.1794 -0.4624  0.3565
 4188TIP3    H234124   6.660   2.683   0.658 -0.3646  1.0430 -0.0229
 4189TIP3   OH234125   5.402   1.347   0.334  0.4045  0.1189 -0.0881
 4189TIP3    H134126   5.393   1.318   0.424  0.7401  1.6718  0.4653
 4189TIP3    H234127   5.487   1.314   0.306 -0.5614 -2.1545 -0.5690
 4190TIP3   OH234128   3.944   2.466   8.739  0.5347  0.2477 -0.0556
 4190TIP3    H134129   3.970   2.490   8.650  1.3990  2.2267  0.7014
 4190TIP3    H234130   3.929   2.371   8.733 -0.7592  0.5063 -2.6177
 4191TIP3   OH234131   5.040   5.910   0.993 -0.2618 -0.5034  0.1757
 4191TIP3    H134132   5.066   5.986   1.046 -0.2723 -0.7333  0.5139
 4191TIP3    H234133   5.123   5.875   0.961 -0.3525  1.0792 -2.0254
 4192TIP3   OH234134   1.965   1.429   0.576  0.2400 -0.0108  0.3322
 4192TIP3    H134135   1.902   1.493   0.542 -0.5671 -0.9984 -0.0954
 4192TIP3    H234136   2.005   1.472   0.651 -0.5946  0.8336  0.3149
 4193TIP3   OH234137   4.929   3.707   0.037 -0.0534 -0.0546 -0.3316
 4193TIP3    H134138   5.002   3.646   0.035  1.4877  1.7041 -0.1876
 4193TIP3    H234139   4.893   3.699   0.125  1.1748  0.4002  0.2272
 4194TIP3   OH234140   2.668   3.117   0.942  0.2424 -0.1127 -0.1545
 4194TIP3    H134141   2.641   3.209   0.944 -0.9852 -0.4755  0.4570
 4194TIP3    H234142   2.724   3.111   0.864  1.1106  1.3495  0.3155
 4195TIP3   OH234143   0.571   4.898   8.028  0.2320 -0.2150  0.0470
 4195TIP3    H134144   0.475   4.898   8.031  0.1654 -2.6511 -0.3691
 4195TIP3    H234145   0.594   4.972   7.971 -1.3969  0.1305 -0.1998
 4196TIP3   OH234146   2.695   3.127   0.259 -0.1696 -0.6463  0.6308
 4196TIP3    H134147   2.605   3.113   0.289 -0.4028  0.3671  0.4243
 4196TIP3    H234148   2.693   3.213   0.217  1.5540  0.7716  3.2293
 4197TIP3   OH234149   6.237   4.739   0.059 -0.3691  0.7700 -0.7127
 4197TIP3    H134150   6.250   4.647   0.085 -0.2339  1.0699  0.3098
 4197TIP3    H234151   6.218   4.784   0.140  1.4191  1.9967 -0.9288
 4198TIP3   OH234152   0.213   5.914   1.126 -0.5092 -0.4566  0.4840
 4198TIP3    H134153   0.126   5.903   1.164  0.5330 -2.0917  2.6213
 4198TIP3    H234154   0.237   5.826   1.095  0.5562 -0.1302  0.3269
 4199TIP3   OH234155   3.932   4.561   6.773 -0.2248 -0.3515  0.7355
 4199TIP3    H134156   3.951   4.486   6.829 -2.9364  0.4064  2.9611
 4199TIP3    H234157   3.850   4.537   6.729  0.7424 -0.0450 -1.3102
 4200TIP3   OH234158   6.463   1.339   0.410  0.2085  0.1965 -0.4377
 4200TIP3    H134159   6.377   1.343   0.451 -0.2815 -0.0778 -1.4075
 4200TIP3    H234160   6.503   1.424   0.430  1.1709 -0.9234  3.0168
 4201TIP3   OH234161   6.577   1.668   0.236 -0.2721  0.4249  0.2576
 4201TIP3    H134162   6.553   1.577   0.219  0.1531  0.3136  0.2346
 4201TIP3    H234163   6.507   1.719   0.196  0.1492  0.1407 -0.8900
 4202TIP3   OH234164   5.472   2.031   0.635  0.1598 -0.5919 -0.1226
 4202TIP3    H134165   5.484   2.018   0.541  0.5546 -0.4070 -0.1003
 4202TIP3    H234166   5.555   2.069   0.664 -0.7327  1.5371 -0.1164
 4203TIP3   OH234167   0.148   4.615   7.627  0.2148 -0.0191  0.2020
 4203TIP3    H134168   0.116   4.527   7.645  1.0507 -0.1985  0.8420
 4203TIP3    H234169   0.244   4.606   7.626  0.3219  0.9876  0.8487
 4204TIP3   OH234170   5.511   6.214   7.744  0.3097  0.0434 -0.3560
 4204TIP3    H134171   5.574   6.245   7.808 -1.3407  2.1185  0.3734
 4204TIP3    H234172   5.469   6.293   7.711  0.1504 -1.0351 -3.0652
 4205TIP3   OH234173   6.254   5.597   2.057 -0.4638  0.0298 -0.1533
 4205TIP3    H134174   6.229   5.679   2.100 -0.0475 -0.1859  0.5144
 4205TIP3    H234175   6.292   5.624   1.974 -0.4853  0.5080 -0.0100
 4206TIP3   OH234176   5.331   2.288   1.400  0.1478 -0.7127 -0.4440
 4206TIP3    H134177   5.263   2.317   1.461  0.2656  0.0798 -0.6786
 4206TIP3    H234178   5.282   2.264   1.321  0.2014  1.0661 -1.0703
 4207TIP3   OH234179   0.390   0.582   2.280 -0.0179  0.0880  0.2574
 4207TIP3    H134180   0.362   0.617   2.195 -3.0784  1.3104  1.6407
 4207TIP3    H234181   0.409   0.490   2.262 -1.4065  0.1089 -1.6239
 4208TIP3   OH234182   5.630   1.082   8.419 -0.0579  0.2882  0.2417
 4208TIP3    H134183   5.721   1.110   8.415 -0.3195  1.2454  0.6937
 4208TIP3    H234184   5.632   0.989   8.396  1.1474  0.0565  1.1989
 4209TIP3   OH234185   1.899   4.539   1.180  0.6491  0.0018  0.6836
 4209TIP3    H134186   1.908   4.545   1.275  0.6989  1.8279  0.5925
 4209TIP3    H234187   1.858   4.621   1.154  3.6128  1.0258 -1.2099
 4210TIP3   OH234188   0.299   5.053   0.929 -0.3975 -0.2277 -0.2788
 4210TIP3    H134189   0.228   5.115   0.912  0.4937  0.6677 -0.8229
 4210TIP3    H234190   0.266   4.969   0.897 -0.6226  0.4822 -1.9727
 4211TIP3   OH234191   6.292   2.915   0.401  0.1421 -0.0849 -0.6036
 4211TIP3    H134192   6.197   2.911   0.394 -0.0756 -2.6387  2.0053
 4211TIP3    H234193   6.309   2.974   0.475  0.4296 -1.1744  0.2286
 4212TIP3   OH234194   0.856   3.373   1.516  0.0637 -0.5725 -0.6357
 4212TIP3    H134195   0.925   3.434   1.542  0.6919 -1.2794 -0.5939
 4212TIP3    H234196   0.883   3.341   1.430 -1.6878  1.2862 -1.9626
 4213TIP3   OH234197   3.531   6.341   7.360 -0.3850 -0.4996 -0.1449
 4213TIP3    H134198   3.517   6.341   7.455 -1.1576 -1.1531 -0.2541
 4213TIP3    H234199   3.547   6.250   7.338  1.5684 -0.1359 -0.4113
 4214TIP3   OH234200   4.794   5.919   2.425 -0.1040 -0.4407  0.1332
 4214TIP3    H134201   4.868   5.973   2.454 -0.3081 -1.3795  2.6519
 4214TIP3    H234202   4.809   5.905   2.332  1.8326  1.0104  0.1720
 4215TIP3   OH234203   5.609   4.748   1.601  0.6122 -0.1337  0.0830
 4215TIP3    H134204   5.608   4.724   1.509  1.3755  1.0361 -0.2448
 4215TIP3    H234205   5.674   4.690   1.640  0.3022 -0.6145 -0.1069
 4216TIP3   OH234206   1.185   4.156   1.568  0.3814 -0.1936  0.3051
 4216TIP3    H134207   1.243   4.134   1.640  0.9323  0.9634  0.2409
 4216TIP3    H234208   1.127   4.224   1.603 -2.1945 -2.5458  0.9329
 4217TIP3   OH234209   4.772   2.274   1.554 -0.7341 -0.4458  0.0005
 4217TIP3    H134210   4.768   2.268   1.459 -0.6769 -0.0635 -0.0268
 4217TIP3    H234211   4.864   2.292   1.573 -0.9441  0.6924  0.0503
 4218TIP3   OH234212   5.147   0.057   1.091  0.2940  0.5839  0.1769
 4218TIP3    H134213   5.099   0.123   1.140 -0.9402 -0.8834  1.0364
 4218TIP3    H234214   5.098   0.047   1.009  0.8176  1.1191 -0.2138
 4219TIP3   OH234215   3.876   3.398   1.941  0.0238 -0.7906 -0.0333
 4219TIP3    H134216   3.836   3.477   1.903  2.2012 -0.5705 -2.1134
 4219TIP3    H234217   3.826   3.326   1.904  0.5295 -0.4762 -1.3851
 4220TIP3   OH234218   6.538   4.943   1.983 -0.1540  0.3274 -0.3993
 4220TIP3    H134219   6.504   4.856   2.006  1.3337  0.2069  1.6739
 4220TIP3    H234220   6.519   4.997   2.060 -0.4794  1.6996 -1.3987
 4221TIP3   OH234221   2.777   2.780   0.991 -0.3123  0.0323 -0.1658
 4221TIP3    H134222   2.704   2.808   1.047 -1.2558  0.1232 -1.4056
 4221TIP3    H234223   2.839   2.853   0.995  1.0303 -1.0979  2.9895
 4222TIP3   OH234224   3.940   1.172   0.777  0.5266  0.2838 -0.5946
 4222TIP3    H134225   4.035   1.156   0.772  0.6216  0.4100  0.7009
 4222TIP3    H234226   3.905   1.096   0.823  0.1040  0.6335 -0.3306
 4223TIP3   OH234227   5.089   3.154   7.538  0.2853 -0.0956 -0.1614
 4223TIP3    H134228   5.018   3.091   7.544  1.1982 -1.2612 -0.9850
 4223TIP3    H234229   5.100   3.187   7.627 -1.5779  0.4682 -0.1192
 4224TIP3   OH234230   6.601   4.365   7.312 -0.1466  0.6449  0.0670
 4224TIP3    H134231   6.528   4.385   7.254  0.5547  0.5330 -0.8704
 4224TIP3    H234232   6.679   4.383   7.260  0.5146 -1.0468  0.3856
 4225TIP3   OH234233   6.707   3.568   0.894  0.2395 -0.6137  0.6549
 4225TIP3    H134234   6.786   3.548   0.843  1.3257  3.1353  0.6378
 4225TIP3    H234235   6.637   3.568   0.829  0.2979 -2.8240  0.4867
 4226TIP3   OH234236   3.871   0.156   7.070 -0.0739  0.5045  0.5944
 4226TIP3    H134237   3.909   0.071   7.093  1.0023  0.7094 -0.3599
 4226TIP3    H234238   3.836   0.143   6.981 -0.5775  0.8510  0.7374
 4227TIP3   OH234239   3.471   1.818   0.353  0.6640 -0.0214  0.8762
 4227TIP3    H134240   3.430   1.895   0.391 -1.5309 -1.4025  1.4706
 4227TIP3    H234241   3.509   1.770   0.427  3.9986  1.4512  0.3059
 4228TIP3   OH234242   0.224   0.610   7.397  0.0939 -0.2485  0.3399
 4228TIP3    H134243   0.151   0.626   7.457 -0.5405  0.4084 -0.5756
 4228TIP3    H234244   0.181   0.581   7.316  0.8658 -0.0556 -0.1410
 4229TIP3   OH234245   2.711   1.402   6.764  0.0015  0.2355 -0.6086
 4229TIP3    H134246   2.642   1.468   6.756 -0.1609 -0.0949 -2.6397
 4229TIP3    H234247   2.777   1.442   6.820  0.1547  2.3921 -2.1835
 4230TIP3   OH234248   1.523   1.280   7.880 -0.0711 -0.0484  0.1178
 4230TIP3    H134249   1.505   1.324   7.963 -0.1156  0.6215 -0.2385
 4230TIP3    H234250   1.537   1.189   7.903  0.2069  0.1868  0.8993
 4231TIP3   OH234251   2.886   5.775   0.142  0.4907  0.1342 -0.0319
 4231TIP3    H134252   2.974   5.811   0.136  1.6181 -2.5278 -1.0277
 4231TIP3    H234253   2.898   5.680   0.136 -2.5613 -0.2786 -2.5852
 4232TIP3   OH234254   0.148   2.542   1.237 -0.1130 -0.0136 -0.0444
 4232TIP3    H134255   0.069   2.552   1.289 -0.1837 -1.2802  0.1297
 4232TIP3    H234256   0.214   2.512   1.299  1.1625  3.1552  0.2771
 4233TIP3   OH234257   1.100   3.023   6.559  0.2954 -0.0260  0.2311
 4233TIP3    H134258   1.040   3.053   6.628  0.4362  2.3922 -0.6248
 4233TIP3    H234259   1.068   3.065   6.480  1.2509 -1.2966 -0.8753
 4234TIP3   OH234260   4.324   2.429   8.530  0.4575  0.1126 -0.3854
 4234TIP3    H134261   4.348   2.418   8.438  1.8300 -0.6338  0.0350
 4234TIP3    H234262   4.268   2.353   8.549 -0.0385  0.4028 -0.6549
 4235TIP3   OH234263   0.875   0.388   7.576 -0.4088 -0.1185  0.4330
 4235TIP3    H134264   0.895   0.297   7.595 -2.0063 -0.5955  0.0630
 4235TIP3    H234265   0.796   0.383   7.521  0.7428  1.3885 -1.5063
 4236TIP3   OH234266   4.765   1.257   6.474  0.6184  0.1143  0.2799
 4236TIP3    H134267   4.828   1.189   6.450  0.1837 -0.4262  0.6517
 4236TIP3    H234268   4.803   1.338   6.440  1.1680 -0.3055 -0.1186
 4237TIP3   OH234269   3.137   3.347   8.041 -0.4181  0.6851 -0.2136
 4237TIP3    H134270   3.147   3.268   8.095  3.0163  0.3874 -1.0036
 4237TIP3    H234271   3.127   3.314   7.952  0.2922  1.0877 -0.4565
 4238TIP3   OH234272   6.244   2.717   0.152 -0.3316 -0.2482  0.4114
 4238TIP3    H134273   6.272   2.626   0.143 -1.2413 -0.6373  1.3461
 4238TIP3    H234274   6.276   2.744   0.238 -1.1028 -0.0719  0.6513
 4239TIP3   OH234275   2.584   2.193   1.600 -0.1068 -0.3781  0.1205
 4239TIP3    H134276   2.538   2.230   1.524  0.1387  0.2090  0.2538
 4239TIP3    H234277   2.588   2.265   1.663  1.4457 -0.2375 -0.0912
 4240TIP3   OH234278   5.574   6.318   7.125  0.1764 -0.4186 -0.3628
 4240TIP3    H134279   5.563   6.246   7.063 -0.2901  1.9456 -3.3139
 4240TIP3    H234280   5.565   6.397   7.071  4.3698  1.9605  1.8916
 4241TIP3   OH234281   3.897   6.533   0.968  0.0284  0.3762  0.1311
 4241TIP3    H134282   3.916   6.442   0.992  0.7822  0.3809 -0.4220
 4241TIP3    H234283   3.947   6.548   0.888 -0.7901  1.0121 -0.2765
 4242TIP3   OH234284   1.785   4.212   7.824 -0.6189 -0.4539 -0.1435
 4242TIP3    H134285   1.780   4.136   7.881 -1.7167  0.6634  1.2950
 4242TIP3    H234286   1.815   4.284   7.880 -1.1972  0.5600 -1.0746
 4243TIP3   OH234287   1.837   0.156   1.981  0.2809  0.0767  0.5724
 4243TIP3    H134288   1.921   0.125   2.016  0.1562 -0.5309  0.3414
 4243TIP3    H234289   1.813   0.229   2.038  1.7808  1.3668 -0.3576
 4244TIP3   OH234290   0.498   5.147   7.686 -0.1167  0.2892 -0.0023
 4244TIP3    H134291   0.561   5.081   7.717  1.3409  0.2815 -2.6991
 4244TIP3    H234292   0.459   5.182   7.766  0.8819 -2.0614  1.6371
 4245TIP3   OH234293   0.049   6.293   8.515  0.4571 -0.0552  0.1120
 4245TIP3    H134294   0.045   6.380   8.475  0.0745 -0.2378 -0.2616
 4245TIP3    H234295  -0.030   6.249   8.483  0.1227 -0.1974  1.1129
 4246TIP3   OH234296   0.138   4.267   8.344 -0.1931  0.3393 -0.7206
 4246TIP3    H134297   0.080   4.218   8.403 -0.8707 -0.0056 -1.6412
 4246TIP3    H234298   0.192   4.320   8.402 -1.9027  1.2063  0.1712
 4247TIP3   OH234299   5.712   5.404   1.182 -0.1503  0.9138  0.1821
 4247TIP3    H134300   5.730   5.469   1.114  0.6859  1.4274  0.8720
 4247TIP3    H234301   5.735   5.448   1.264  0.1240 -0.1427  0.6921
 4248TIP3   OH234302   4.291   4.506   6.923 -0.0425 -0.5678 -0.1251
 4248TIP3    H134303   4.385   4.488   6.924 -0.1154 -0.9688 -0.3931
 4248TIP3    H234304   4.264   4.502   7.014  0.0300 -1.3587 -0.1369
 4249TIP3   OH234305   1.103   0.494   1.982 -0.4095  0.3426 -0.0546
 4249TIP3    H134306   1.055   0.523   2.059 -0.2996  0.7121 -0.1239
 4249TIP3    H234307   1.062   0.410   1.958 -0.7414  0.4494  0.1338
 4250TIP3   OH234308   0.625   1.526   1.235  0.4406  0.3030  0.0247
 4250TIP3    H134309   0.560   1.568   1.291  0.6158  1.4145 -0.5732
 4250TIP3    H234310   0.684   1.597   1.210  1.4217 -0.5327 -0.0934
 4251TIP3   OH234311   5.519   1.770   8.646 -0.2406 -0.0313  0.8131
 4251TIP3    H134312   5.474   1.716   8.582  1.7895 -0.0463 -0.7236
 4251TIP3    H234313   5.598   1.720   8.668  0.3118  1.0845  1.4518
 4252TIP3   OH234314   4.548   2.606   6.551 -0.0588 -0.8571  0.4593
 4252TIP3    H134315   4.579   2.548   6.621 -1.9284 -0.7514  1.4610
 4252TIP3    H234316   4.463   2.569   6.526 -1.1241  1.1803  0.8591
 4253TIP3   OH234317   1.843   4.386   0.381  1.0675  0.0902 -0.3286
 4253TIP3    H134318   1.915   4.348   0.330  1.0603  0.1779 -0.4062
 4253TIP3    H234319   1.853   4.349   0.469  1.2647  0.1753 -0.3150
 4254TIP3   OH234320   6.331   0.452   8.273  0.2577  0.2254 -0.1644
 4254TIP3    H134321   6.323   0.366   8.232  2.4332 -1.5460  2.7137
 4254TIP3    H234322   6.416   0.484   8.244 -0.4853  1.4049 -1.1121
 4255TIP3   OH234323   1.118   0.244   1.848  0.1770  0.0917 -0.4325
 4255TIP3    H134324   1.171   0.170   1.879  1.4778  0.6532 -1.2397
 4255TIP3    H234325   1.177   0.294   1.793 -1.3252  0.5473 -1.7009
 4256TIP3   OH234326   0.125   3.717   1.302  0.5513  0.4038  0.3807
 4256TIP3    H134327   0.124   3.625   1.328 -2.4439 -0.1734 -1.2772
 4256TIP3    H234328   0.129   3.715   1.206 -0.5733  1.9351  0.2565
 4257TIP3   OH234329   1.024   5.152   0.670 -0.5024  0.0903  0.5885
 4257TIP3    H134330   1.025   5.212   0.745  1.0198  2.7004 -1.3351
 4257TIP3    H234331   1.032   5.065   0.709  1.3566  1.3724  3.4251
 4258TIP3   OH234332   3.394   1.614   6.400 -0.2132  0.3414  0.5704
 4258TIP3    H134333   3.366   1.656   6.481  0.1271  0.3848  0.6658
 4258TIP3    H234334   3.312   1.591   6.355 -0.4343  2.0750  0.0139
 4259TIP3   OH234335   5.054   5.248   0.416  0.1719  0.4123 -0.4166
 4259TIP3    H134336   5.099   5.217   0.494 -0.8606 -1.6150 -0.5503
 4259TIP3    H234337   5.118   5.239   0.345  0.4163  0.1690 -0.1655
 4260TIP3   OH234338   1.507   6.300   7.056  0.1445 -0.1892 -0.8031
 4260TIP3    H134339   1.505   6.337   6.967 -1.2118 -0.3515 -0.8599
 4260TIP3    H234340   1.436   6.345   7.102 -1.3132 -2.3823 -0.7566
 4261TIP3   OH234341   6.244   4.089   1.847 -0.2335  0.3377  0.2139
 4261TIP3    H134342   6.175   4.023   1.853 -0.3756  0.5884  1.7432
 4261TIP3    H234343   6.273   4.102   1.938  1.1151  0.9867 -0.2819
 4262TIP3   OH234344   6.595   6.667   1.022 -0.7057 -0.6291  0.6012
 4262TIP3    H134345   6.641   6.606   1.079 -0.1869 -1.2630 -0.4565
 4262TIP3    H234346   6.514   6.687   1.068  0.7872  0.9026  2.7816
 4263TIP3   OH234347   2.003   5.700   1.735  0.8265 -0.2538  0.1945
 4263TIP3    H134348   2.053   5.779   1.757 -0.6704  0.9513 -0.5543
 4263TIP3    H234349   2.068   5.630   1.736  2.8365  1.4157 -1.8796
 4264TIP3   OH234350   5.774   4.426   0.878 -0.4416 -0.1336  1.0104
 4264TIP3    H134351   5.735   4.492   0.820  4.4055  0.9746 -1.5562
 4264TIP3    H234352   5.789   4.473   0.960  2.5220  2.1896 -0.6293
 4265TIP3   OH234353   1.770   5.738   6.542 -0.3857  0.2640 -0.2911
 4265TIP3    H134354   1.715   5.784   6.606 -1.8656 -0.0858 -1.2429
 4265TIP3    H234355   1.720   5.660   6.520  0.9404 -0.5394 -0.5416
 4266TIP3   OH234356   4.209   0.177   0.635 -0.0039 -0.3155 -0.4716
 4266TIP3    H134357   4.271   0.113   0.600 -1.0208 -0.8452 -1.3727
 4266TIP3    H234358   4.142   0.125   0.679 -0.1078  0.2105  0.0036
 4267TIP3   OH234359   1.032   4.356   6.500 -0.1745 -0.3192 -0.1635
 4267TIP3    H134360   1.057   4.286   6.560  0.8557 -1.2291 -1.5641
 4267TIP3    H234361   0.943   4.335   6.473 -1.2094  0.9056  2.0850
 4268TIP3   OH234362   2.765   4.589   7.791 -0.2634 -0.2063 -0.0171
 4268TIP3    H134363   2.707   4.559   7.861 -1.2782 -1.2090 -1.2174
 4268TIP3    H234364   2.750   4.527   7.719 -0.1155  1.4134 -1.5354
 4269TIP3   OH234365   4.559   5.295   7.806  0.2157 -0.2217 -0.3948
 4269TIP3    H134366   4.536   5.278   7.715  0.0403 -0.4615 -0.3059
 4269TIP3    H234367   4.602   5.380   7.805 -0.7758  0.2817 -0.5413
 4270TIP3   OH234368   6.301   6.479   0.652 -0.5722  0.4804  0.0893
 4270TIP3    H134369   6.347   6.409   0.700  0.6820 -0.3275 -2.1591
 4270TIP3    H234370   6.371   6.534   0.617 -1.5229  2.2351  0.8190
 4271TIP3   OH234371   6.558   6.360   8.493 -0.4769  0.6306  0.0314
 4271TIP3    H134372   6.509   6.409   8.427  1.6789  1.8209 -0.7586
 4271TIP3    H234373   6.562   6.271   8.458  1.4959  1.4568 -2.0314
 4272TIP3   OH234374   3.167   1.051   1.285  0.1883 -0.1680 -0.1909
 4272TIP3    H134375   3.155   1.064   1.379  0.0981 -0.1902 -0.1991
 4272TIP3    H234376   3.202   1.134   1.253  3.0094 -1.0288  0.3322
 4273TIP3   OH234377   3.234   6.709   0.258 -0.0109 -0.2082 -0.5725
 4273TIP3    H134378   3.188   6.668   0.185 -1.9981 -2.1052  1.5870
 4273TIP3    H234379   3.322   6.670   0.256 -0.0632 -0.3074 -1.8336
 4274TIP3   OH234380   6.018   6.220   6.749  0.3814 -0.0956 -0.0527
 4274TIP3    H134381   5.927   6.193   6.765  0.5094 -1.9976 -2.1096
 4274TIP3    H234382   6.060   6.215   6.836 -1.1215 -0.5755  0.6806
 4275TIP3   OH234383   2.689   0.482   0.583 -0.3457 -1.0999 -0.1478
 4275TIP3    H134384   2.729   0.554   0.632 -0.4427 -1.0688 -0.1141
 4275TIP3    H234385   2.613   0.457   0.635 -2.6710  1.3882 -2.0139
 4276TIP3   OH234386   4.583   1.507   1.613 -0.4208 -0.0174  0.9515
 4276TIP3    H134387   4.599   1.519   1.520  1.4635  0.8085  1.3322
 4276TIP3    H234388   4.522   1.577   1.637 -0.9967 -0.2974  0.3412
 4277TIP3   OH234389   4.942   3.008   1.541  0.3094 -0.6753  0.4036
 4277TIP3    H134390   4.888   3.081   1.510  0.5286 -0.7794 -0.2318
 4277TIP3    H234391   4.893   2.973   1.616 -0.6017 -0.8783 -0.2693
 4278TIP3   OH234392   5.493   0.598   0.179  0.3700 -0.2933 -0.3697
 4278TIP3    H134393   5.420   0.577   0.237 -0.4430  0.6181 -1.0151
 4278TIP3    H234394   5.556   0.644   0.235 -0.5052  0.7839 -0.2203
 4279TIP3   OH234395   1.647   6.712   0.372  0.1404 -0.0046  0.0483
 4279TIP3    H134396   1.627   6.648   0.440  0.0158 -0.3592 -0.3232
 4279TIP3    H234397   1.592   6.687   0.298 -0.4975  0.9962  0.1651
 4280TIP3   OH234398   4.508   4.261   6.822 -0.2339  0.2294  0.5858
 4280TIP3    H134399   4.423   4.282   6.782  0.3275  0.8697 -0.3051
 4280TIP3    H234400   4.572   4.300   6.763  0.9301 -3.5202 -0.9302
 4281TIP3   OH234401   4.067   6.723   7.247  0.6686  0.2966  0.0266
 4281TIP3    H134402   4.141   6.698   7.302  0.0415 -1.1822  0.2553
 4281TIP3    H234403   4.085   6.683   7.162 -0.2948 -0.8822  0.3558
 4282TIP3   OH234404   1.203   5.214   8.120 -0.4546 -0.3030  0.3747
 4282TIP3    H134405   1.144   5.289   8.117 -0.2608 -0.1467  0.5063
 4282TIP3    H234406   1.175   5.164   8.196 -0.5507 -0.3403  0.3165
 4283TIP3   OH234407   5.041   2.674   6.616 -0.0653  0.2565  0.0873
 4283TIP3    H134408   4.987   2.751   6.636 -0.1975 -0.2052  1.6532
 4283TIP3    H234409   5.024   2.613   6.688  1.8641 -0.2528  0.1843
 4284TIP3   OH234410   5.750   0.158   8.461 -0.6750  0.1774  0.2888
 4284TIP3    H134411   5.827   0.103   8.446 -0.1702  0.5294  1.4765
 4284TIP3    H234412   5.738   0.204   8.379  0.3751  0.0992  0.0708
 4285TIP3   OH234413   1.705   3.788   7.077 -1.5325 -0.1381 -0.2454
 4285TIP3    H134414   1.728   3.841   7.153  1.5271 -2.1956  0.4440
 4285TIP3    H234415   1.699   3.850   7.005 -0.0907  1.3780  0.8834
 4286TIP3   OH234416   5.918   0.754   8.248 -0.4417  0.1367 -0.5964
 4286TIP3    H134417   5.973   0.704   8.308  0.7361 -0.5373 -2.1850
 4286TIP3    H234418   5.873   0.688   8.196 -0.6188  0.7179 -1.1987
 4287TIP3   OH234419   4.525   6.171   0.180 -0.5129 -0.2526 -0.0018
 4287TIP3    H134420   4.548   6.136   0.267 -0.7558  0.5935  0.4162
 4287TIP3    H234421   4.572   6.254   0.175  0.1703 -0.6885 -1.0384
 4288TIP3   OH234422   5.759   6.038   0.807 -0.1573  0.1487  0.1473
 4288TIP3    H134423   5.736   6.100   0.875 -2.3075  1.0273 -1.2855
 4288TIP3    H234424   5.806   6.090   0.742  0.9956 -0.4714  0.4537
 4289TIP3   OH234425   5.828   1.643   1.217  0.0451  0.2038 -0.4885
 4289TIP3    H134426   5.759   1.702   1.186 -0.9246 -0.5832  0.1047
 4289TIP3    H234427   5.804   1.557   1.183 -0.2980 -0.4227  1.2189
 4290TIP3   OH234428   3.708   0.887   6.987 -0.7197  0.2113  0.3318
 4290TIP3    H134429   3.764   0.941   6.931  0.5904 -1.1556  0.2620
 4290TIP3    H234430   3.620   0.897   6.950 -0.4458  1.9280  0.0807
 4291TIP3   OH234431   6.712   1.443   2.829 -0.4928  0.4570  0.7295
 4291TIP3    H134432   6.664   1.462   2.910  0.1333 -0.9092  1.4437
 4291TIP3    H234433   6.648   1.461   2.760 -1.6047  0.0007  1.5978
 4292TIP3   OH234434   6.023   1.219   1.986 -0.1142 -0.5620  0.4290
 4292TIP3    H134435   6.029   1.296   2.042 -1.2585  0.2784 -0.5757
 4292TIP3    H234436   5.969   1.246   1.912  0.3319 -2.0143 -0.4787
 4293TIP3   OH234437   2.300   6.348   8.375  0.2030  0.4747  0.1472
 4293TIP3    H134438   2.231   6.389   8.427 -1.5655 -1.7675 -0.2906
 4293TIP3    H234439   2.256   6.321   8.294  0.9925 -2.8159  0.6627
 4294TIP3   OH234440   1.942   2.848   7.673 -0.6479 -0.5036 -0.6393
 4294TIP3    H134441   2.023   2.799   7.659 -1.0836 -1.0766 -1.1825
 4294TIP3    H234442   1.944   2.870   7.767 -1.5666 -3.6756  0.2599
 4295TIP3   OH234443   2.202   4.145   1.402 -0.0814 -0.3407 -0.3198
 4295TIP3    H134444   2.240   4.221   1.446 -0.2435 -0.5483  0.1836
 4295TIP3    H234445   2.233   4.151   1.312  2.2479 -1.2115  0.3634
 4296TIP3   OH234446   4.360   6.335   8.162 -0.1548 -0.1079  0.4779
 4296TIP3    H134447   4.353   6.283   8.242  1.4807  0.1135  0.8155
 4296TIP3    H234448   4.349   6.272   8.091  2.7223 -1.2193  0.8544
 4297TIP3   OH234449   2.272   1.825   0.816 -0.4690  0.8332  0.1939
 4297TIP3    H134450   2.305   1.892   0.876  1.3207 -0.5205  0.7930
 4297TIP3    H234451   2.321   1.746   0.838 -1.8255 -0.4459 -1.1491
 4298TIP3   OH234452   4.625   0.623   0.035  0.7109  0.0483 -0.1230
 4298TIP3    H134453   4.536   0.587   0.033  0.7461 -0.4549  2.7979
 4298TIP3    H234454   4.682   0.548   0.022  0.7143  0.0764 -0.2665
 4299TIP3   OH234455   2.760   3.164   6.102  0.3282 -0.3441  0.2089
 4299TIP3    H134456   2.774   3.092   6.164 -0.9565  0.2459  1.2314
 4299TIP3    H234457   2.771   3.243   6.154  1.7465  0.2415 -0.9082
 4300TIP3   OH234458   5.532   4.178   1.998 -0.0682  0.1777  0.0721
 4300TIP3    H134459   5.453   4.130   1.973 -0.3356 -0.3409  1.8213
 4300TIP3    H234460   5.502   4.249   2.054  0.5308  1.2695 -0.9325
 4301TIP3   OH234461   5.468   0.586   2.221 -0.4401 -0.4070 -0.1803
 4301TIP3    H134462   5.453   0.588   2.127  2.4413 -1.1681 -0.7379
 4301TIP3    H234463   5.485   0.677   2.245  0.0065 -0.3766 -0.6110
 4302TIP3   OH234464   3.164   5.068   1.615 -0.3740 -0.6497 -0.1995
 4302TIP3    H134465   3.084   5.042   1.660 -0.5615 -1.0712 -0.7628
 4302TIP3    H234466   3.162   5.163   1.613 -0.2863 -0.6159  0.8147
 4303TIP3   OH234467   1.057   2.409   0.465  0.0749  0.1337 -0.2078
 4303TIP3    H134468   1.129   2.413   0.401 -2.1732 -0.6603 -2.9737
 4303TIP3    H234469   1.076   2.481   0.525  3.0136  0.1259 -0.9362
 4304TIP3   OH234470   4.090   2.482   1.153  0.3772  0.0142  0.5727
 4304TIP3    H134471   4.048   2.447   1.232  1.3568 -2.0230  0.2570
 4304TIP3    H234472   4.045   2.439   1.080  0.8346  0.3018  0.1134
 4305TIP3   OH234473   4.439   5.369   8.798 -0.1558 -0.1573  0.0723
 4305TIP3    H134474   4.364   5.409   8.842  1.2289  1.9216  0.6818
 4305TIP3    H234475   4.462   5.294   8.853 -1.4207 -0.4886  0.1784
 4306TIP3   OH234476   3.826   1.810   1.307 -0.3774 -0.0094  0.0661
 4306TIP3    H134477   3.735   1.806   1.337  0.8460 -0.1367  4.3938
 4306TIP3    H234478   3.860   1.722   1.320  0.6129  0.2311 -0.7544
 4307TIP3   OH234479   2.318   5.632   6.923 -1.1835 -1.1857 -0.1601
 4307TIP3    H134480   2.246   5.695   6.926  0.0265  0.2238  0.4176
 4307TIP3    H234481   2.316   5.598   6.833 -0.4725  1.4211 -1.2696
 4308TIP3   OH234482   1.882   4.828   8.631 -0.1267  0.4733  0.6629
 4308TIP3    H134483   1.929   4.823   8.548  0.7385  1.5735  1.0675
 4308TIP3    H234484   1.930   4.770   8.690  0.3193  1.0568  0.8805
 4309TIP3   OH234485   4.181   5.280   1.325 -0.3032 -0.3527 -0.3930
 4309TIP3    H134486   4.268   5.284   1.365 -1.4050  0.2441  2.1406
 4309TIP3    H234487   4.150   5.191   1.344 -0.4498 -0.3953 -0.8323
 4310TIP3   OH234488   5.777   3.759   0.660 -0.0009 -0.4608 -0.2384
 4310TIP3    H134489   5.765   3.818   0.585  1.4300  0.8777  0.5326
 4310TIP3    H234490   5.799   3.817   0.733 -1.1668 -1.7464  1.2041
 4311TIP3   OH234491   3.760   5.419   0.874 -0.5574  0.1634 -0.0661
 4311TIP3    H134492   3.810   5.373   0.942  1.1717  0.4227 -1.1133
 4311TIP3    H234493   3.669   5.411   0.902 -0.0262 -1.1291  1.4328
 4312TIP3   OH234494   0.774   5.558   7.938 -0.2692 -0.0385  0.3358
 4312TIP3    H134495   0.721   5.628   7.899 -1.0607  0.2676  1.8876
 4312TIP3    H234496   0.727   5.478   7.916  0.0279 -0.0058 -0.4690
 4313TIP3   OH234497   3.288   0.446   1.607  0.4259  0.1592 -0.5060
 4313TIP3    H134498   3.307   0.448   1.701 -1.6859 -2.0705  0.0761
 4313TIP3    H234499   3.201   0.485   1.599  0.3790 -0.1173 -1.4606
 4314TIP3   OH234500   4.525   1.837   2.314  0.2099  0.2825 -0.2257
 4314TIP3    H134501   4.616   1.849   2.341 -0.2261  3.2436  0.1964
 4314TIP3    H234502   4.474   1.881   2.382 -1.5262 -0.6641 -0.8527
 4315TIP3   OH234503   2.122   2.358   2.102 -0.4524 -0.5568  0.1630
 4315TIP3    H134504   2.054   2.300   2.136  0.9492 -1.0993  2.3197
 4315TIP3    H234505   2.169   2.388   2.181  1.6418 -0.0589 -1.1812
 4316TIP3   OH234506   1.428   0.759   8.152  0.1081 -0.7521 -0.7530
 4316TIP3    H134507   1.471   0.692   8.099 -0.2649 -1.2663 -0.4073
 4316TIP3    H234508   1.400   0.713   8.231 -0.0394 -0.1602 -0.4573
 4317TIP3   OH234509   5.127   5.702   7.402  1.0068 -0.6731  0.1204
 4317TIP3    H134510   5.191   5.682   7.471  2.3460 -0.5621 -1.0407
 4317TIP3    H234511   5.157   5.652   7.327 -0.4505 -0.8126 -0.3968
 4318TIP3   OH234512   5.924   0.439   0.548 -0.1070 -0.5409 -0.6124
 4318TIP3    H134513   5.970   0.425   0.631 -0.6837 -2.9234 -0.6212
 4318TIP3    H234514   5.916   0.534   0.541  3.7477 -0.0020 -0.0678
 4319TIP3   OH234515   1.313   0.649   1.637 -0.1153  0.0423 -0.4028
 4319TIP3    H134516   1.335   0.723   1.580  0.9525  1.6101  1.8959
 4319TIP3    H234517   1.249   0.684   1.699  1.0855 -0.6429  1.3126
 4320TIP3   OH234518   6.100   5.948   6.526  0.7050  0.0167  0.1046
 4320TIP3    H134519   6.141   5.875   6.572  1.0226  0.7028  0.9254
 4320TIP3    H234520   6.006   5.933   6.536  0.7561  0.6089  1.7385
 4321TIP3   OH234521   4.598   2.261   7.551 -1.0781  0.7395  0.2182
 4321TIP3    H134522   4.570   2.342   7.594 -0.3278 -0.1102  2.4936
 4321TIP3    H234523   4.682   2.282   7.511 -0.8992  1.1105  0.7744
 4322TIP3   OH234524   6.417   3.190   0.985  0.6128 -0.2062 -0.6257
 4322TIP3    H134525   6.392   3.282   0.975  1.1939 -0.0983 -1.1743
 4322TIP3    H234526   6.476   3.173   0.911 -1.2217 -1.6360 -1.8745
 4323TIP3   OH234527   2.208   1.156   6.692 -0.0737 -0.3219 -0.3342
 4323TIP3    H134528   2.143   1.162   6.622 -1.6902 -0.5136  1.1014
 4323TIP3    H234529   2.287   1.197   6.654 -1.4648  1.3617 -1.5993
 4324TIP3   OH234530   1.500   0.504   0.527  0.1960 -0.0558  0.2990
 4324TIP3    H134531   1.568   0.487   0.462  0.5042  0.2343  0.5404
 4324TIP3    H234532   1.468   0.417   0.551  1.3797 -0.2909  1.1262
 4325TIP3   OH234533   1.586   0.103   8.668  0.3237  0.1000 -0.0059
 4325TIP3    H134534   1.673   0.142   8.663  1.6477 -2.1249  2.9540
 4325TIP3    H234535   1.537   0.159   8.727  0.0649  0.7621 -0.8328
 4326TIP3   OH234536   5.790   6.573   1.811  0.7730 -0.0097  0.2605
 4326TIP3    H134537   5.720   6.508   1.816  0.5082  0.3357  1.3254
 4326TIP3    H234538   5.770   6.635   1.881  1.7350  0.5089  0.0949
 4327TIP3   OH234539   2.253   2.790   2.317 -0.3780 -0.4977 -0.3442
 4327TIP3    H134540   2.271   2.718   2.377  0.0053  1.4076  2.0002
 4327TIP3    H234541   2.177   2.761   2.267 -0.8689 -2.1175  1.2353
 4328TIP3   OH234542   1.682   2.004   7.082 -0.1141  0.1472  0.2664
 4328TIP3    H134543   1.694   2.007   6.987 -2.0233  0.1517 -0.0037
 4328TIP3    H234544   1.689   2.096   7.109 -0.5759  0.2698 -0.0187
 4329TIP3   OH234545   4.284   2.908   1.160  0.6596 -0.3734 -0.0718
 4329TIP3    H134546   4.289   2.945   1.072 -0.2826 -1.9149 -0.8159
 4329TIP3    H234547   4.193   2.918   1.185  0.6101 -1.2292  0.1267
 4330TIP3   OH234548   5.082   3.886   6.698 -0.1097 -0.0062  0.2122
 4330TIP3    H134549   4.990   3.909   6.691 -0.3517 -1.2526 -1.2552
 4330TIP3    H234550   5.120   3.956   6.751 -2.2300 -0.4641  2.5454
 4331TIP3   OH234551   3.425   3.058   7.638 -0.5350 -0.1955 -0.4428
 4331TIP3    H134552   3.477   3.025   7.711 -1.4671 -2.1788 -0.6188
 4331TIP3    H234553   3.487   3.107   7.584  0.4342  0.2010  0.9927
 4332TIP3   OH234554   1.834   6.476   8.647 -0.1678  1.0144 -0.1581
 4332TIP3    H134555   1.829   6.444   8.737 -2.3677  2.2091  0.1975
 4332TIP3    H234556   1.749   6.516   8.630 -0.1071  0.1747 -3.0501
 4333TIP3   OH234557   6.521   3.882   8.717 -0.3118 -0.3488 -0.1330
 4333TIP3    H134558   6.464   3.822   8.765 -1.2310  0.6381  0.0300
 4333TIP3    H234559   6.525   3.845   8.629  0.4461 -1.5246  0.3524
 4334TIP3   OH234560   5.760   0.225   8.875 -0.4066  0.0714  0.3768
 4334TIP3    H134561   5.800   0.191   8.795  0.7395  1.9275  0.1004
 4334TIP3    H234562   5.813   0.189   8.945 -0.0230  0.2230  0.1676
 4335TIP3   OH234563   3.287   4.321   0.487  0.2298 -0.3567 -0.8451
 4335TIP3    H134564   3.360   4.318   0.425 -0.1284 -1.6191 -1.2343
 4335TIP3    H234565   3.267   4.415   0.495  1.4110 -0.0417 -1.2817
 4336TIP3   OH234566   4.051   4.503   1.179  0.2164  0.0994  0.0820
 4336TIP3    H134567   4.062   4.467   1.267  2.2492  1.7302  0.5621
 4336TIP3    H234568   4.068   4.596   1.189 -1.4765  0.6625 -1.7307
 4337TIP3   OH234569   3.260   0.966   6.481 -0.2140  0.2654  0.2598
 4337TIP3    H134570   3.339   0.998   6.437  0.0647  0.4090  0.8573
 4337TIP3    H234571   3.231   0.892   6.427  0.3899  0.1421  0.0964
 4338TIP3   OH234572   4.317   4.126   8.141  0.2190 -0.0121  0.1042
 4338TIP3    H134573   4.286   4.135   8.231  0.2773  1.0642  0.0303
 4338TIP3    H234574   4.335   4.216   8.113 -1.4713 -0.1484 -1.5737
 4339TIP3   OH234575   0.752   1.932   7.936  0.4441  0.2205  0.2555
 4339TIP3    H134576   0.715   1.952   8.022  0.6905  1.6070  0.0504
 4339TIP3    H234577   0.837   1.892   7.956  0.1485 -0.2297  0.6578
 4340TIP3   OH234578   3.794   6.139   1.298  0.3745  0.4788  0.6139
 4340TIP3    H134579   3.715   6.191   1.287  1.1652  1.8078  0.9952
 4340TIP3    H234580   3.766   6.064   1.350 -0.7725  0.5396  0.1230
 4341TIP3   OH234581   5.388   2.893   1.768 -0.1589  0.0874  0.2922
 4341TIP3    H134582   5.300   2.880   1.731 -0.4314  3.7103 -0.7655
 4341TIP3    H234583   5.372   2.908   1.861 -0.8127  1.3243  0.0109
 4342TIP3   OH234584   5.458   4.037   8.706 -0.4428  0.6115  0.2761
 4342TIP3    H134585   5.409   4.107   8.663 -1.2252 -0.3796 -0.4916
 4342TIP3    H234586   5.428   4.039   8.797  0.0410  1.6919  0.4226
 4343TIP3   OH234587   2.621   6.764   1.137  0.1095  0.3123  0.3406
 4343TIP3    H134588   2.567   6.688   1.113  0.0449  0.1152  1.1013
 4343TIP3    H234589   2.649   6.746   1.227  1.3149  0.4835  0.0239
 4344TIP3   OH234590   4.445   0.473   8.250  0.3351 -0.2519  0.1444
 4344TIP3    H134591   4.496   0.394   8.233 -0.1537 -0.4376 -0.5391
 4344TIP3    H234592   4.491   0.542   8.203  1.9612  0.3416  2.4650
 4345TIP3   OH234593   1.360   5.176   0.135 -0.4123  0.1844  0.0096
 4345TIP3    H134594   1.288   5.124   0.171  1.0466 -1.1039  1.2347
 4345TIP3    H234595   1.413   5.199   0.211  0.3736  1.2694 -0.8370
 4346TIP3   OH234596   6.735   0.275   8.278 -0.0242 -0.0660  0.0097
 4346TIP3    H134597   6.814   0.267   8.224 -2.2270 -0.6719 -3.4501
 4346TIP3    H234598   6.687   0.348   8.239 -1.1242  0.4573  2.1811
 4347TIP3   OH234599   4.912   4.868   8.205  0.1621  0.4495 -0.9526
 4347TIP3    H134600   4.916   4.773   8.201 -1.9730  0.3156 -0.7988
 4347TIP3    H234601   4.824   4.888   8.236  0.7083  2.4819 -0.5079
 4348TIP3   OH234602   2.192   5.288   8.627  1.0029  0.1704 -0.0254
 4348TIP3    H134603   2.208   5.194   8.632 -0.1817  0.0277  2.5303
 4348TIP3    H234604   2.135   5.300   8.551  0.7295 -1.2477 -0.0566
 4349TIP3   OH234605   5.680   1.594   2.853  0.5235  0.4972 -0.2358
 4349TIP3    H134606   5.766   1.553   2.863  0.4489  0.1414 -1.0432
 4349TIP3    H234607   5.627   1.553   2.921  1.0722  0.9654  0.4971
 4350TIP3   OH234608   4.479   0.701   1.825 -0.0685 -0.7803  0.5267
 4350TIP3    H134609   4.504   0.742   1.907 -2.4343  0.5101  0.7086
 4350TIP3    H234610   4.451   0.613   1.849 -1.8756 -0.0270  1.3687
 4351TIP3   OH234611   6.363   1.780   0.106 -0.3547 -0.3038 -0.3722
 4351TIP3    H134612   6.275   1.756   0.134 -0.2330  0.7257  0.9974
 4351TIP3    H234613   6.363   1.876   0.109  1.0117 -0.3099  0.3080
 4352TIP3   OH234614   0.216   3.882   6.596 -0.3434 -0.0460  0.4733
 4352TIP3    H134615   0.245   3.962   6.553  0.8795 -1.8615 -2.4085
 4352TIP3    H234616   0.288   3.858   6.654 -0.8190  0.9838  1.5400
 4353TIP3   OH234617   5.419   6.537   8.423 -0.1069  0.7860  0.6216
 4353TIP3    H134618   5.334   6.542   8.379  0.0040  3.0763  0.5820
 4353TIP3    H234619   5.481   6.518   8.353 -0.2556  1.9062  0.1689
 4354TIP3   OH234620   4.862   2.906   6.561 -0.2743 -0.5548 -0.3027
 4354TIP3    H134621   4.793   2.897   6.628 -1.2441  2.0301 -0.8289
 4354TIP3    H234622   4.826   2.862   6.484 -0.1319 -1.5599  0.1834
 4355TIP3   OH234623   4.520   6.476   8.786  0.2938  0.2911  0.2017
 4355TIP3    H134624   4.588   6.468   8.718 -1.7515 -1.7102 -1.7632
 4355TIP3    H234625   4.444   6.511   8.739  0.0267  3.1273  2.4892
 4356TIP3   OH234626   0.427   4.378   7.969 -0.3412  0.1705  0.0997
 4356TIP3    H134627   0.340   4.345   7.992 -1.1176  1.8572 -0.2394
 4356TIP3    H234628   0.466   4.405   8.052 -0.1627 -0.5044  0.2416
 4357TIP3   OH234629   4.996   0.837   0.237 -0.0087 -0.4784 -0.1989
 4357TIP3    H134630   4.958   0.800   0.317 -1.0186 -3.5871 -1.8981
 4357TIP3    H234631   5.062   0.773   0.210  0.5801  0.6817 -1.6555
 4358TIP3   OH234632   1.816   3.383   2.612 -0.1781  0.0171  0.2145
 4358TIP3    H134633   1.808   3.306   2.669  2.1062 -0.3760  0.0949
 4358TIP3    H234634   1.725   3.409   2.594 -0.9873 -1.0969  2.3229
 4359TIP3   OH234635   3.920   4.639   0.958  0.1529  0.4741 -0.8585
 4359TIP3    H134636   3.941   4.586   1.034 -1.6485 -1.1718 -1.4394
 4359TIP3    H234637   4.004   4.652   0.914  0.9282 -0.1692  0.3870
 4360TIP3   OH234638   1.782   3.467   1.078  0.3474 -0.5510  0.0185
 4360TIP3    H134639   1.772   3.434   1.167  0.6460 -0.6402  0.0203
 4360TIP3    H234640   1.820   3.554   1.088  0.5240 -0.6225 -0.0269
 4361TIP3   OH234641   6.690   5.669   0.243 -0.6188 -0.2257  0.0869
 4361TIP3    H134642   6.710   5.732   0.174  1.3747  0.7891  1.4942
 4361TIP3    H234643   6.604   5.696   0.276 -0.3498  0.9923 -0.1605
 4362TIP3   OH234644   2.404   6.793   7.253  0.4865 -0.0584  0.3706
 4362TIP3    H134645   2.380   6.737   7.179 -1.7804 -0.5854  1.4085
 4362TIP3    H234646   2.468   6.742   7.302  0.3102 -0.6697 -0.0183
 4363TIP3   OH234647   2.304   0.352   0.432 -0.1660  0.1830  0.1098
 4363TIP3    H134648   2.231   0.413   0.439 -2.3135 -2.0407 -1.4371
 4363TIP3    H234649   2.284   0.282   0.494  0.4834 -0.6404 -0.5853
 4364TIP3   OH234650   3.913   3.801   6.813 -0.3917 -0.2548 -0.5787
 4364TIP3    H134651   4.005   3.826   6.807 -0.4330 -0.0312 -0.3021
 4364TIP3    H234652   3.866   3.872   6.770 -0.6041  0.7874  1.2619
 4365TIP3   OH234653   2.376   0.875   0.022  0.0366 -0.0053 -0.2008
 4365TIP3    H134654   2.333   0.794   0.050  1.6335 -1.2485 -1.1788
 4365TIP3    H234655   2.436   0.896   0.094 -1.0041  0.8465  0.4513
 4366TIP3   OH234656   6.084   2.769   2.000 -0.0463  0.3913 -0.1668
 4366TIP3    H134657   6.055   2.681   2.026  0.2715 -0.0400 -1.2069
 4366TIP3    H234658   6.003   2.817   1.983 -0.2156  0.1141 -0.1549
 4367TIP3   OH234659   6.473   5.865   1.505  0.0763 -0.0394  0.0976
 4367TIP3    H134660   6.453   5.886   1.596 -1.8428  0.6125 -0.4208
 4367TIP3    H234661   6.537   5.931   1.479 -1.2913  1.3885  0.2584
 4368TIP3   OH234662   4.048   6.135   0.811 -0.0093 -0.0769  0.9621
 4368TIP3    H134663   4.132   6.124   0.856  0.2199 -1.3468  0.2722
 4368TIP3    H234664   3.996   6.188   0.871  1.2831  0.7504  1.3979
 4369TIP3   OH234665   1.785   1.602   0.445 -0.0630 -0.2128 -0.2152
 4369TIP3    H134666   1.705   1.604   0.393 -0.7592  0.2086  0.8399
 4369TIP3    H234667   1.850   1.648   0.391 -1.0001  0.9914 -0.3423
 4370TIP3   OH234668   2.041   1.929   7.503 -0.1422 -0.1202 -0.4166
 4370TIP3    H134669   1.960   1.975   7.483  0.7098  1.9720  0.7172
 4370TIP3    H234670   2.014   1.839   7.520 -2.1832  0.4648 -0.3531
 4371TIP3   OH234671   4.989   5.917   8.479 -0.6887 -0.1386 -0.1649
 4371TIP3    H134672   4.931   5.992   8.478  0.0056  0.4189  0.3689
 4371TIP3    H234673   5.008   5.900   8.387  1.0214  1.8327 -0.2325
 4372TIP3   OH234674   5.359   4.673   8.414  0.4588  0.5550  0.0738
 4372TIP3    H134675   5.346   4.579   8.401  1.1323  0.3585  0.7739
 4372TIP3    H234676   5.329   4.712   8.332 -1.2590 -0.1337  0.3338
 4373TIP3   OH234677   0.513   6.216   0.657 -0.2843 -0.8130  0.2245
 4373TIP3    H134678   0.534   6.216   0.563  0.8068 -2.1879  0.4351
 4373TIP3    H234679   0.441   6.154   0.666 -1.5322  0.5632  0.1079
 4374TIP3   OH234680   6.129   3.700   8.430 -0.0859 -0.1000  0.1489
 4374TIP3    H134681   6.208   3.755   8.431 -0.0944 -0.0299 -1.1183
 4374TIP3    H234682   6.080   3.727   8.508  0.7316  0.4713  0.4785
 4375TIP3   OH234683   5.406   1.091   7.598  0.9550  0.0015 -0.2156
 4375TIP3    H134684   5.374   1.074   7.686  0.4063  0.1573 -0.3822
 4375TIP3    H234685   5.392   1.184   7.584  1.6135  0.1031 -0.2435
 4376TIP3   OH234686   0.728   4.715   7.631 -0.1194  0.4372  0.2426
 4376TIP3    H134687   0.712   4.634   7.583  0.5460 -0.2482  1.1232
 4376TIP3    H234688   0.769   4.774   7.567 -1.6973  0.5327 -0.7242
 4377TIP3   OH234689   6.125   3.395   2.532 -0.3616  0.0900  0.3610
 4377TIP3    H134690   6.195   3.344   2.573 -1.1166 -1.3289 -0.0687
 4377TIP3    H234691   6.107   3.465   2.595  1.0906  0.1906  0.6972
 4378TIP3   OH234692   2.595   1.176   7.815  0.2519 -0.1332 -0.1715
 4378TIP3    H134693   2.683   1.156   7.784  0.9722 -0.4674  1.9232
 4378TIP3    H234694   2.588   1.130   7.898 -1.2761  1.2794  0.5333
 4379TIP3   OH234695   3.360   1.380   8.297  0.4430  0.0357 -0.1472
 4379TIP3    H134696   3.312   1.298   8.303  0.1740  0.0155 -1.9767
 4379TIP3    H234697   3.416   1.370   8.220 -0.7255  2.0768 -1.3645
 4380TIP3   OH234698   2.641   5.493   8.804 -0.4594  0.5006  0.2670
 4380TIP3    H134699   2.662   5.426   8.739 -0.3689  0.3421  0.4601
 4380TIP3    H234700   2.627   5.572   8.753 -1.0104  0.2345 -0.0024
 4381TIP3   OH234701   4.036   4.682   2.191  0.2066 -0.1725 -0.1791
 4381TIP3    H134702   4.022   4.595   2.228  0.7889 -0.2268 -0.0817
 4381TIP3    H234703   4.105   4.670   2.125  0.5324  0.2703  0.0710
 4382TIP3   OH234704   6.041   2.097   0.892 -0.0102  0.5040 -0.0046
 4382TIP3    H134705   6.017   2.134   0.977 -1.5241  0.8487 -0.5467
 4382TIP3    H234706   5.957   2.080   0.849  0.7050  1.5653 -1.9523
 4383TIP3   OH234707   0.402   5.977   0.672 -0.3242  0.1172  0.2341
 4383TIP3    H134708   0.344   5.901   0.676 -0.4931  0.2672  0.6100
 4383TIP3    H234709   0.490   5.940   0.679 -0.4226 -0.0069  0.8763
 4384TIP3   OH234710   4.208   1.879   7.548  0.1849  0.2750 -0.0055
 4384TIP3    H134711   4.164   1.806   7.503 -0.8538  0.7619  0.1757
 4384TIP3    H234712   4.297   1.847   7.564  0.0900 -0.5293 -0.9252
 4385TIP3   OH234713   0.893   2.528   1.020  0.3599  0.3390  0.1592
 4385TIP3    H134714   0.954   2.598   0.995 -1.4249  1.9097 -0.0029
 4385TIP3    H234715   0.839   2.514   0.942 -0.1670 -0.2837  0.6241
 4386TIP3   OH234716   4.788   4.519   7.183  0.2767 -0.0131  0.2055
 4386TIP3    H134717   4.853   4.454   7.157  0.3158  0.3588 -0.6504
 4386TIP3    H234718   4.816   4.600   7.140 -0.5344  0.2453  0.1527
 4387TIP3   OH234719   6.004   3.518   8.713 -0.2391  0.7342 -0.4670
 4387TIP3    H134720   5.982   3.499   8.622  0.2965  2.7171 -1.0637
 4387TIP3    H234721   6.013   3.613   8.716  1.2172  0.5916  1.3322
 4388TIP3   OH234722   0.041   0.720   8.726  0.3724  0.2038  0.6381
 4388TIP3    H134723   0.002   0.790   8.675  1.2555  1.4342  1.5817
 4388TIP3    H234724   0.123   0.699   8.682  0.4504  0.2615  0.7553
 4389TIP3   OH234725   4.626   0.757   8.640  0.4427 -0.1015  0.3605
 4389TIP3    H134726   4.611   0.701   8.717 -0.9375 -0.3097 -0.0345
 4389TIP3    H234727   4.539   0.769   8.602  1.1990 -0.8862 -1.7823
 4390TIP3   OH234728   4.810   6.512   6.751 -0.1497 -0.5414  0.7007
 4390TIP3    H134729   4.819   6.434   6.806  0.4167 -0.9102  0.1063
 4390TIP3    H234730   4.897   6.523   6.712 -0.3516  0.1273  0.4330
 4391TIP3   OH234731   5.234   4.253   2.542  0.0868  0.2502  0.3157
 4391TIP3    H134732   5.281   4.277   2.462  1.5237 -0.3136  0.9599
 4391TIP3    H234733   5.303   4.230   2.604 -1.0396 -0.1322  1.4572
 4392TIP3   OH234734   1.158   6.149   1.020 -0.1818 -0.4887  0.2334
 4392TIP3    H134735   1.126   6.124   1.107  0.3216 -0.9111  0.2986
 4392TIP3    H234736   1.219   6.079   0.996  0.7273  0.3169  0.1251
 4393TIP3   OH234737   6.470   5.707   1.191 -0.7183  0.0479 -0.2792
 4393TIP3    H134738   6.448   5.624   1.149 -0.1835 -0.2417 -0.0058
 4393TIP3    H234739   6.387   5.751   1.203 -0.9803 -0.3219 -0.6933
 4394TIP3   OH234740   1.889   4.613   1.771  0.1040 -0.2400 -0.4061
 4394TIP3    H134741   1.818   4.654   1.821  1.0592  0.0905  0.7256
 4394TIP3    H234742   1.859   4.524   1.755 -0.4220 -0.2122  0.3746
 4395TIP3   OH234743   2.017   2.080   1.813  0.3856 -0.3553  0.1955
 4395TIP3    H134744   2.021   2.174   1.799 -3.0589 -0.2484 -1.0643
 4395TIP3    H234745   2.040   2.042   1.729 -0.5013 -0.5070  0.0093
 4396TIP3   OH234746   2.264   3.182   7.425  0.1680  0.1854  0.3132
 4396TIP3    H134747   2.333   3.151   7.485 -0.9943 -1.5670  0.8261
 4396TIP3    H234748   2.207   3.235   7.480 -0.0254 -0.1079  0.4010
 4397TIP3   OH234749   5.861   4.546   0.064 -0.4154 -0.5742 -0.8200
 4397TIP3    H134750   5.861   4.506  -0.023 -2.0749  0.7381 -1.4739
 4397TIP3    H234751   5.879   4.638   0.049 -1.5972 -0.1606  0.1052
 4398TIP3   OH234752   3.747   4.221   7.277  0.6709  0.1811 -0.0247
 4398TIP3    H134753   3.760   4.314   7.261 -0.8442  0.1466 -1.7499
 4398TIP3    H234754   3.652   4.209   7.276  0.8679 -1.5921 -1.3430
 4399TIP3   OH234755   6.046   5.734   1.897 -0.4347  0.1124  0.5390
 4399TIP3    H134756   6.020   5.826   1.885 -0.1280  0.3213  1.4071
 4399TIP3    H234757   6.134   5.730   1.858 -0.9930 -0.1672 -0.7682
 4400TIP3   OH234758   3.588   6.709   8.536  0.2536  0.4031  0.3024
 4400TIP3    H134759   3.558   6.634   8.588 -3.3951  0.9418 -0.7543
 4400TIP3    H234760   3.589   6.676   8.446 -1.3793  1.5283 -0.1760
 4401TIP3   OH234761   4.340   6.148   8.373 -0.2312 -0.5186  0.2710
 4401TIP3    H134762   4.375   6.103   8.450  2.1863 -0.1163 -0.5052
 4401TIP3    H234763   4.309   6.078   8.316  0.2561 -0.9858  0.5742
 4402TIP3   OH234764   5.254   2.611   6.761 -0.1485 -0.1522 -0.3247
 4402TIP3    H134765   5.202   2.653   6.693  1.5848  0.2047 -1.4651
 4402TIP3    H234766   5.319   2.559   6.714  0.1607 -1.0956  1.0676
 4403TIP3   OH234767   1.500   1.645   1.253 -0.2206 -0.3682  0.3245
 4403TIP3    H134768   1.475   1.555   1.230 -1.8719  0.4377 -1.3106
 4403TIP3    H234769   1.470   1.655   1.343  2.0915 -2.1347  1.3894
 4404TIP3   OH234770   0.043   6.708   7.407 -0.4561 -0.3660 -0.2831
 4404TIP3    H134771   0.025   6.783   7.463  0.5779  0.5572 -1.1465
 4404TIP3    H234772   0.049   6.634   7.467 -1.6376  0.2027  0.5700
 4405TIP3   OH234773   1.782   2.251   0.178 -0.6606  0.0916  0.2937
 4405TIP3    H134774   1.738   2.210   0.104 -0.2591  1.1001 -0.5144
 4405TIP3    H234775   1.816   2.177   0.229  0.2731 -0.6156 -1.2761
 4406TIP3   OH234776   0.508   0.441   7.085 -0.2565  0.0446  0.4600
 4406TIP3    H134777   0.508   0.404   6.997  0.8823 -0.5104  0.6667
 4406TIP3    H234778   0.484   0.367   7.141  0.0797  0.1147  0.7017
 4407TIP3   OH234779   5.941   1.674   7.454  0.1498 -0.0918  0.7825
 4407TIP3    H134780   5.878   1.721   7.508  0.1946  0.2325  0.5547
 4407TIP3    H234781   6.007   1.643   7.516  0.5222  0.7932  0.8498
 4408TIP3   OH234782   1.869   2.831   8.749  0.5566  0.1632  0.1285
 4408TIP3    H134783   1.907   2.883   8.678  2.6784 -0.3712  0.8181
 4408TIP3    H234784   1.801   2.887   8.786  0.8866  1.3006 -0.9232
 4409TIP3   OH234785   1.840   2.459   2.258  0.4106 -0.3743 -0.2608
 4409TIP3    H134786   1.878   2.448   2.345 -0.4154 -1.2520  0.0023
 4409TIP3    H234787   1.794   2.543   2.262  0.9134 -0.0984 -0.0745
 4410TIP3   OH234788   5.197   0.585   2.451 -0.0515 -0.1146 -0.3069
 4410TIP3    H134789   5.275   0.627   2.489  1.0592 -0.1649 -2.3745
 4410TIP3    H234790   5.225   0.495   2.434 -1.0571 -0.5373  0.2144
 4411TIP3   OH234791   4.706   3.850   2.467  0.0865 -0.2435 -0.3689
 4411TIP3    H134792   4.756   3.818   2.543 -0.2502  0.2714  0.0762
 4411TIP3    H234793   4.635   3.786   2.456 -0.7111  0.4410  0.6479
 4412TIP3   OH234794   6.552   4.672   0.015  0.2169 -0.0786 -0.9301
 4412TIP3    H134795   6.508   4.604   0.066  2.2302  0.7648  2.2354
 4412TIP3    H234796   6.645   4.655   0.030  0.8522  1.3892 -2.8801
 4413TIP3   OH234797   4.388   3.316   8.439 -0.4738 -0.9683 -0.1073
 4413TIP3    H134798   4.325   3.388   8.442  0.9415  0.3243 -0.2171
 4413TIP3    H234799   4.425   3.321   8.351 -1.1002 -2.5271 -0.4929
 4414TIP3   OH234800   2.099   3.952   1.002 -0.3206 -0.0160 -0.3418
 4414TIP3    H134801   2.076   4.034   0.959  0.5267 -0.1141 -0.9940
 4414TIP3    H234802   2.043   3.886   0.961 -0.8660  0.1873  0.0519
 4415TIP3   OH234803   2.623   4.410   0.422  0.4532  0.7156 -0.1257
 4415TIP3    H134804   2.538   4.453   0.415 -0.9673 -1.9381 -0.6790
 4415TIP3    H234805   2.644   4.384   0.332  0.5898 -0.8193  0.3252
 4416TIP3   OH234806   5.461   3.422   2.413  0.4429  0.1933  0.6767
 4416TIP3    H134807   5.515   3.383   2.481  0.6738 -1.2832 -0.3053
 4416TIP3    H234808   5.392   3.357   2.397 -1.3038  1.7631  1.4707
 4417TIP3   OH234809   2.209   5.584   0.329 -0.6626 -0.6612 -0.1095
 4417TIP3    H134810   2.136   5.567   0.389 -0.3287  1.7143  1.0702
 4417TIP3    H234811   2.181   5.544   0.246 -3.5339  0.5117  0.1822
 4418TIP3   OH234812   3.079   0.800   7.300  0.6823 -0.3392  0.1597
 4418TIP3    H134813   3.077   0.737   7.228  3.7750  1.5718 -1.8306
 4418TIP3    H234814   3.106   0.747   7.376  0.1201 -1.9318 -0.6974
 4419TIP3   OH234815   5.477   1.114   2.747 -0.0315 -0.0018  0.5876
 4419TIP3    H134816   5.564   1.151   2.758 -0.2635  0.6009  0.4389
 4419TIP3    H234817   5.429   1.143   2.825 -0.8939  2.0026 -0.6186
 4420TIP3   OH234818   2.788   2.961   1.798  0.5638 -0.2882 -0.1209
 4420TIP3    H134819   2.842   2.984   1.874  0.3162 -0.9752  0.2688
 4420TIP3    H234820   2.812   2.871   1.778 -1.8758 -1.3633  1.3515
 4421TIP3   OH234821   3.044   3.712   0.333 -0.1869 -0.6434  0.0533
 4421TIP3    H134822   3.058   3.725   0.239  1.2653 -0.1838  0.3086
 4421TIP3    H234823   3.053   3.799   0.371 -1.1899 -0.7582  0.5895
 4422TIP3   OH234824   0.350   3.229   1.292 -0.7237 -0.3583 -0.3308
 4422TIP3    H134825   0.319   3.297   1.351  1.0946  1.2460 -1.0875
 4422TIP3    H234826   0.394   3.166   1.349 -1.1066 -0.0942  0.2614
 4423TIP3   OH234827   3.271   3.042   8.752 -0.4687  0.6687 -0.2923
 4423TIP3    H134828   3.354   3.035   8.799  0.9247  0.0946 -2.6715
 4423TIP3    H234829   3.252   2.953   8.723 -1.0340  1.0607 -1.1867
 4424TIP3   OH234830   3.876   5.390   8.519  0.5363 -0.1027 -0.0644
 4424TIP3    H134831   3.917   5.338   8.589  2.2210  2.9829  1.4741
 4424TIP3    H234832   3.802   5.434   8.562 -0.7394 -1.0287 -1.2652
 4425TIP3   OH234833   5.620   0.720   0.874  0.3240  0.9437  0.3969
 4425TIP3    H134834   5.690   0.676   0.826  0.3073  0.8976  0.4152
 4425TIP3    H234835   5.567   0.761   0.806  0.7990  1.6190  0.4192
 4426TIP3   OH234836   6.664   6.645   0.273 -0.1624 -0.3580 -0.6233
 4426TIP3    H134837   6.735   6.604   0.322 -1.5909 -1.9948  0.1886
 4426TIP3    H234838   6.670   6.738   0.295  0.5446 -0.7504  0.9571
 4427TIP3   OH234839   5.507   1.892   8.331  0.0499  0.0766  0.3484
 4427TIP3    H134840   5.599   1.905   8.356  0.0890 -0.5161  0.5286
 4427TIP3    H234841   5.477   1.979   8.307  0.9324  0.1415 -0.6086
 4428TIP3   OH234842   2.616   1.235   0.158 -0.0633 -0.3953 -0.0808
 4428TIP3    H134843   2.635   1.224   0.251  1.4913  0.6727 -0.2411
 4428TIP3    H234844   2.632   1.148   0.120 -1.3956 -1.0305  0.7099
 4429TIP3   OH234845   2.503   4.973   2.555  0.3454  0.1550  0.5436
 4429TIP3    H134846   2.583   4.954   2.506  0.8724 -0.2295  1.5310
 4429TIP3    H234847   2.494   5.068   2.550  1.1656  0.2585  0.8694
 4430TIP3   OH234848   6.019   2.189   1.165 -0.1431 -0.0684  0.3890
 4430TIP3    H134849   6.113   2.177   1.154 -0.1211  0.1317  0.3616
 4430TIP3    H234850   6.010   2.275   1.207 -0.3825  0.5946 -0.9420
 4431TIP3   OH234851   0.401   2.364   1.671 -0.7340  0.1467 -0.2199
 4431TIP3    H134852   0.496   2.361   1.682 -0.7997 -1.8976  0.2138
 4431TIP3    H234853   0.368   2.381   1.759 -0.7895 -0.6098 -0.0851
 4432TIP3   OH234854   5.737   3.553   2.408 -0.7700  0.2881 -0.6219
 4432TIP3    H134855   5.808   3.584   2.464 -0.7052 -0.4173 -0.3032
 4432TIP3    H234856   5.688   3.632   2.386  0.5760  0.9253 -1.5344
 4433TIP3   OH234857   0.276   0.921   0.249  0.5666 -0.5067  0.2989
 4433TIP3    H134858   0.303   0.830   0.267  0.5639 -0.5821 -0.0652
 4433TIP3    H234859   0.208   0.939   0.313  0.6912 -0.7028  0.4901
 4434TIP3   OH234860   2.563   0.660   8.586 -0.6878  0.2699 -0.0771
 4434TIP3    H134861   2.633   0.617   8.635 -1.2461  1.1950  1.6235
 4434TIP3    H234862   2.544   0.600   8.514  1.0370 -0.5441  0.0857
 4435TIP3   OH234863   6.285   1.881   6.583 -0.1542 -0.3851 -0.2714
 4435TIP3    H134864   6.327   1.817   6.525 -0.2335 -0.3865 -0.3277
 4435TIP3    H234865   6.238   1.940   6.524 -0.0205 -0.2301 -0.2236
 4436TIP3   OH234866   2.433   3.565   7.172  0.3549  0.1657  0.2093
 4436TIP3    H134867   2.443   3.502   7.101  0.6099  2.1271 -1.5900
 4436TIP3    H234868   2.523   3.596   7.188  0.1503  0.5785  0.5680
 4437TIP3   OH234869   6.604   3.742   8.174  0.0067 -0.2032 -0.2183
 4437TIP3    H134870   6.533   3.722   8.113  0.6333 -3.3039 -0.0439
 4437TIP3    H234871   6.650   3.815   8.133 -2.1705  0.7252 -1.2026
 4438TIP3   OH234872   5.210   0.983   1.586 -0.6102  0.5654  0.6480
 4438TIP3    H134873   5.131   0.973   1.533  0.3354 -0.0871 -0.6960
 4438TIP3    H234874   5.243   1.070   1.565 -0.1910  0.2756  0.0690
 4439TIP3   OH234875   2.580   1.563   2.144  0.0688 -0.0745  0.4924
 4439TIP3    H134876   2.505   1.541   2.200 -0.1061  0.3477  0.4285
 4439TIP3    H234877   2.645   1.496   2.164 -0.4109 -0.5916  0.3788
 4440TIP3   OH234878   1.525   1.253   7.454 -0.3387  0.1596  0.0197
 4440TIP3    H134879   1.570   1.332   7.483  0.5422  0.1198 -1.1987
 4440TIP3    H234880   1.473   1.227   7.530  1.2918  0.4997  1.3170
 4441TIP3   OH234881   6.374   2.925   7.484  0.0372  0.0806 -0.0212
 4441TIP3    H134882   6.429   2.860   7.527 -1.6928 -0.9667  0.7256
 4441TIP3    H234883   6.393   3.007   7.529  0.1379 -0.4999  1.0216
 4442TIP3   OH234884   0.306   4.672   8.402  0.5666  0.8110  0.1238
 4442TIP3    H134885   0.340   4.634   8.320  1.2042  0.4482  0.5498
 4442TIP3    H234886   0.350   4.757   8.409 -0.2495  1.2931 -0.4151
 4443TIP3   OH234887   0.071   2.163   7.283  0.0273  0.6793 -0.0580
 4443TIP3    H134888   0.132   2.123   7.346 -2.2633 -1.5374  0.9292
 4443TIP3    H234889   0.090   2.119   7.200  0.4114  0.7321 -0.0023
 4444TIP3   OH234890   0.193   3.235   2.521  0.4852 -0.0532 -0.3016
 4444TIP3    H134891   0.111   3.284   2.512  0.8099  0.4961 -0.3251
 4444TIP3    H234892   0.221   3.252   2.611  0.5813 -0.2304 -0.2974
 4445TIP3   OH234893   0.216   2.500   7.237  0.5524 -0.6094 -0.1003
 4445TIP3    H134894   0.242   2.586   7.204 -2.2906  0.3843  0.0056
 4445TIP3    H234895   0.282   2.440   7.201  2.9561  1.6202  0.2981
 4446TIP3   OH234896   4.498   5.024   8.547  0.0098 -0.0145  0.2482
 4446TIP3    H134897   4.533   5.101   8.592  0.8278 -0.3578  0.2138
 4446TIP3    H234898   4.490   5.051   8.456  0.8258 -0.1392  0.1335
 4447TIP3   OH234899   2.569   2.575   0.405 -0.5838  0.2630  0.5161
 4447TIP3    H134900   2.575   2.482   0.424 -2.4709 -0.2433 -1.0179
 4447TIP3    H234901   2.635   2.591   0.337  0.2517  0.2203  1.3139
 4448TIP3   OH234902   4.559   2.477   8.662  0.1146 -0.2248  0.5398
 4448TIP3    H134903   4.482   2.472   8.605  0.7074  0.0966 -0.3031
 4448TIP3    H234904   4.544   2.556   8.714 -0.5505 -0.6572  1.0262
 4449TIP3   OH234905   6.789   5.346   1.510  0.0195 -0.7891  0.1155
 4449TIP3    H134906   6.757   5.436   1.516  0.1388 -0.7453  0.0860
 4449TIP3    H234907   6.710   5.293   1.520 -0.2262 -0.6688 -1.0263
 4450TIP3   OH234908   5.804   5.602   0.975  0.0406 -0.2075  0.3366
 4450TIP3    H134909   5.828   5.683   0.929  0.4123  1.9768  3.9809
 4450TIP3    H234910   5.880   5.546   0.965  1.2532  1.3141  0.5945
 4451TIP3   OH234911   3.704   1.100   1.783  0.2457 -0.1338 -0.1910
 4451TIP3    H134912   3.796   1.124   1.793  0.0827  0.1254  0.8124
 4451TIP3    H234913   3.656   1.180   1.804 -0.2988 -1.0800  2.5295
 4452TIP3   OH234914   4.257   2.917   8.058 -0.0998 -0.3770 -0.1018
 4452TIP3    H134915   4.208   2.995   8.083  0.8498  0.5337 -0.9588
 4452TIP3    H234916   4.222   2.892   7.972  0.8359  0.2281 -0.6798
 4453TIP3   OH234917   5.737   1.989   6.825  0.5682  0.1566  0.1158
 4453TIP3    H134918   5.693   2.066   6.863  0.7985 -0.0769  0.8840
 4453TIP3    H234919   5.668   1.942   6.779  0.4989  1.0236 -0.6935
 4454TIP3   OH234920   2.161   1.882   1.255  0.5191 -0.8453  0.0698
 4454TIP3    H134921   2.148   1.787   1.263 -0.6067 -0.6334  0.9755
 4454TIP3    H234922   2.079   1.914   1.219 -0.0446  0.0588  2.0451
 4455TIP3   OH234923   0.365   0.856   1.611 -0.4307 -0.5777 -0.4286
 4455TIP3    H134924   0.272   0.873   1.597 -0.7216 -0.7079  1.0966
 4455TIP3    H234925   0.377   0.869   1.705  0.8131 -1.8264 -0.3877
 4456TIP3   OH234926   4.509   1.243   6.592 -0.2448  0.3587  0.5708
 4456TIP3    H134927   4.501   1.329   6.633 -1.3282  0.8998 -0.6846
 4456TIP3    H234928   4.596   1.243   6.553 -0.5340  1.2273 -0.1088
 4457TIP3   OH234929   2.027   3.605   7.412 -0.0069  0.5391 -0.8054
 4457TIP3    H134930   1.934   3.587   7.394 -0.0328 -0.6191  0.3362
 4457TIP3    H234931   2.026   3.655   7.494  0.4145 -0.3217 -0.2680
 4458TIP3   OH234932   5.080   2.550   0.625  0.3352 -0.0417  0.2332
 4458TIP3    H134933   5.034   2.613   0.681  1.4837  1.0255  0.0151
 4458TIP3    H234934   5.099   2.599   0.545 -0.2692 -1.2065 -0.6474
 4459TIP3   OH234935   6.338   1.096   1.351  0.4508  0.0024 -0.0383
 4459TIP3    H134936   6.270   1.091   1.284 -0.0059 -0.3296  0.4390
 4459TIP3    H234937   6.382   1.180   1.336 -1.2958  1.1314  0.8058
 4460TIP3   OH234938   4.831   4.727   6.999 -0.6807 -0.9293 -0.0058
 4460TIP3    H134939   4.795   4.798   7.053  0.8529 -0.2343  0.1615
 4460TIP3    H234940   4.760   4.704   6.940 -1.0532  1.1723 -0.4638
 4461TIP3   OH234941   5.456   6.620   1.717  0.1542  0.5757 -0.1032
 4461TIP3    H134942   5.419   6.642   1.803  1.7634 -1.2305  1.1343
 4461TIP3    H234943   5.496   6.534   1.730  1.3582  0.7251 -2.4076
 4462TIP3   OH234944   5.334   3.167   8.645 -0.7897  0.7522  0.2618
 4462TIP3    H134945   5.361   3.095   8.702 -0.8372  0.6708  0.1844
 4462TIP3    H234946   5.257   3.133   8.599 -1.7873  1.4221  1.3905
 4463TIP3   OH234947   5.478   4.184   2.684  0.6991 -0.2790  0.2742
 4463TIP3    H134948   5.546   4.246   2.658  1.9049 -0.6817  2.2427
 4463TIP3    H234949   5.510   4.099   2.653  0.7611 -0.3762  0.6029
 4464TIP3   OH234950   1.913   4.060   0.467  0.1243  0.1125  0.8083
 4464TIP3    H134951   1.900   4.066   0.562 -0.3138 -0.9400  0.8339
 4464TIP3    H234952   1.884   3.972   0.445 -0.0176  0.4352 -0.3499
 4465TIP3   OH234953   0.167   3.922   1.526 -0.1078  0.4939 -0.2009
 4465TIP3    H134954   0.158   3.834   1.490 -1.1978  0.7906 -0.6999
 4465TIP3    H234955   0.239   3.915   1.589  0.6932 -0.4423 -1.1704
 4466TIP3   OH234956   4.696   4.240   2.241 -0.1278  0.1201 -0.5576
 4466TIP3    H134957   4.709   4.149   2.216  2.0220 -0.3048  1.6891
 4466TIP3    H234958   4.601   4.250   2.248 -0.3927 -2.8073  1.8532
 4467TIP3   OH234959   1.301   0.635   8.450  0.2072  0.1018  0.3494
 4467TIP3    H134960   1.260   0.598   8.372  1.3682  2.2472 -1.3905
 4467TIP3    H234961   1.370   0.572   8.472  1.7185  0.7443 -2.1347
 4468TIP3   OH234962   0.935   3.300   0.891 -0.6364  0.3034 -0.0180
 4468TIP3    H134963   1.018   3.302   0.843 -0.7568 -0.0226 -0.2449
 4468TIP3    H234964   0.932   3.212   0.929 -0.5909  0.5261  0.4992
 4469TIP3   OH234965   2.828   3.107   0.701  0.1847 -0.2403 -0.4415
 4469TIP3    H134966   2.822   3.197   0.670 -0.4271 -0.1014  0.0430
 4469TIP3    H234967   2.828   3.054   0.621  1.9342  0.2272 -0.7913
 4470TIP3   OH234968   3.010   4.919   8.660 -0.4059 -0.1887 -0.0877
 4470TIP3    H134969   2.991   4.989   8.722  2.8679  1.6539 -0.9142
 4470TIP3    H234970   3.061   4.856   8.710 -0.3612 -0.2121 -0.1619
 4471TIP3   OH234971   6.210   0.225   0.229  0.6092  0.3557  0.6078
 4471TIP3    H134972   6.267   0.150   0.214 -0.1695  0.2077 -2.3474
 4471TIP3    H234973   6.269   0.298   0.242  1.4859 -0.0671 -0.7803
 4472TIP3   OH234974   3.465   2.746   1.392  0.2314  0.0666  0.1986
 4472TIP3    H134975   3.443   2.746   1.299 -0.0532 -1.4621  0.2406
 4472TIP3    H234976   3.514   2.827   1.406 -1.5378  1.3791 -0.8361
 4473TIP3   OH234977   2.656   5.589   8.358  0.1979 -0.2616  0.2037
 4473TIP3    H134978   2.610   5.588   8.274 -0.2923 -0.3915  0.4664
 4473TIP3    H234979   2.742   5.552   8.339  0.0677 -0.3478 -0.2303
 4474TIP3   OH234980   0.173   5.077   6.943 -0.5037 -0.1494  0.2203
 4474TIP3    H134981   0.187   4.992   6.986 -2.5984 -1.2812 -1.1621
 4474TIP3    H234982   0.081   5.097   6.959 -0.5203  0.9251 -1.1068
 4475TIP3   OH234983   5.765   3.287   2.345  0.1438  0.1252 -0.4634
 4475TIP3    H134984   5.709   3.365   2.338 -0.3667 -0.0749  0.9639
 4475TIP3    H234985   5.772   3.272   2.439  0.6702 -1.2581 -0.7067
 4476TIP3   OH234986   5.758   0.738   7.601  0.4637  0.6540 -0.5749
 4476TIP3    H134987   5.765   0.748   7.696  2.0689 -0.5044 -0.5390
 4476TIP3    H234988   5.733   0.825   7.570  0.6933  1.2493  0.8373
 4477TIP3   OH234989   3.112   1.844   0.256 -0.2697  0.1395  0.5742
 4477TIP3    H134990   3.134   1.824   0.165 -0.3351 -1.7737  0.9369
 4477TIP3    H234991   3.077   1.762   0.291 -0.3379  0.8577  2.2994
 4478TIP3   OH234992   6.762   1.859   0.255 -0.4106  0.5071  0.1752
 4478TIP3    H134993   6.769   1.886   0.163 -0.7988  2.3688  0.6453
 4478TIP3    H234994   6.690   1.796   0.256  0.1706 -0.2217 -0.9097
 4479TIP3   OH234995   1.697   3.995   7.975 -0.1868 -0.1564  0.1934
 4479TIP3    H134996   1.672   3.965   8.062 -1.6867  0.3623 -0.0195
 4479TIP3    H234997   1.736   3.919   7.933  1.9150 -0.0487  1.7710
 4480TIP3   OH234998   0.815   2.667   7.317 -0.3593 -0.3792 -0.3682
 4480TIP3    H134999   0.746   2.696   7.376 -0.1946 -0.4090 -0.1577
 4480TIP3    H235000   0.823   2.573   7.334  0.6307 -0.1450  0.5638
 4481TIP3   OH235001   5.019   2.121   0.704  0.5165  0.4028  0.1297
 4481TIP3    H135002   4.937   2.094   0.663  1.1046  0.6049 -1.2442
 4481TIP3    H235003   4.999   2.126   0.797 -1.6770  2.6229 -0.3342
 4482TIP3   OH235004   4.572   3.913   6.881 -0.1443 -0.0301 -0.1991
 4482TIP3    H135005   4.602   3.923   6.790  0.5756 -1.2036 -0.1226
 4482TIP3    H235006   4.632   3.848   6.918  0.4105  1.3813  1.5234
 4483TIP3   OH235007   1.671   4.289   1.145  0.0162 -0.3408  0.5475
 4483TIP3    H135008   1.618   4.354   1.098  0.3130 -1.1570 -0.9542
 4483TIP3    H235009   1.665   4.316   1.237 -1.3672  0.7400  0.1773
 4484TIP3   OH235010   1.190   1.906   7.199 -0.5524 -0.2303  0.1283
 4484TIP3    H135011   1.177   1.953   7.116 -0.0738  0.0161  0.1891
 4484TIP3    H235012   1.154   1.819   7.183 -0.2728 -0.2535 -0.4131
 4485TIP3   OH235013   5.749   4.918   7.831  0.7315  0.3428 -0.2802
 4485TIP3    H135014   5.791   4.987   7.883  1.0581 -0.2299  0.2290
 4485TIP3    H235015   5.667   4.957   7.802  0.5134  0.6658  0.7088
 4486TIP3   OH235016   5.774   2.123   7.114  0.1948  0.1504 -0.6989
 4486TIP3    H135017   5.715   2.072   7.169  0.9188 -0.8518 -0.8236
 4486TIP3    H235018   5.721   2.144   7.036 -0.5862  0.9220  0.0110
 4487TIP3   OH235019   1.490   5.925   7.828 -0.2773  0.2969  0.0584
 4487TIP3    H135020   1.425   5.943   7.760  0.5375 -0.2137 -0.8793
 4487TIP3    H235021   1.517   5.835   7.813 -0.0542  0.1828  1.0542
 4488TIP3   OH235022   6.164   4.464   1.753  0.5640 -0.1012 -0.0673
 4488TIP3    H135023   6.098   4.449   1.821  0.0877 -1.5090 -0.7966
 4488TIP3    H235024   6.205   4.547   1.777  0.6768 -0.7407  2.1395
 4489TIP3   OH235025   1.480   4.296   6.722 -0.5030  0.5093  0.0013
 4489TIP3    H135026   1.483   4.225   6.786  0.8422 -1.2275 -1.8228
 4489TIP3    H235027   1.506   4.374   6.771  1.3073 -0.8817  1.4387
 4490TIP3   OH235028   6.382   3.408   0.682  0.3406 -0.0394  0.9149
 4490TIP3    H135029   6.445   3.337   0.695 -1.5195 -1.6638  1.5458
 4490TIP3    H235030   6.351   3.396   0.593 -0.4977 -0.5044  1.2556
 4491TIP3   OH235031   0.703   5.307   1.740 -0.3471 -0.3609  0.4083
 4491TIP3    H135032   0.645   5.351   1.678  1.0852 -1.3872 -1.7918
 4491TIP3    H235033   0.759   5.376   1.774 -0.0895  0.0101 -0.7193
 4492TIP3   OH235034   2.661   5.297   1.738  0.2618  0.2378  0.3558
 4492TIP3    H135035   2.709   5.351   1.675  1.8917 -1.6641 -0.1567
 4492TIP3    H235036   2.607   5.239   1.685 -3.7173  3.0136  0.9248
 4493TIP3   OH235037   5.071   3.631   7.062 -0.4197  0.0696  0.1429
 4493TIP3    H135038   5.055   3.712   7.111 -2.3474  0.4463 -1.0213
 4493TIP3    H235039   5.096   3.567   7.128 -2.1696  0.7614  1.5274
 4494TIP3   OH235040   0.580   5.461   1.552 -0.4957  0.2531 -0.2477
 4494TIP3    H135041   0.490   5.471   1.582  0.0277  2.5459  0.7895
 4494TIP3    H235042   0.578   5.488   1.461 -1.1075 -1.3578 -0.7518
 4495TIP3   OH235043   4.802   2.689   7.468 -0.3581  0.0209 -0.3185
 4495TIP3    H135044   4.737   2.712   7.401 -1.7267 -0.0255  0.9265
 4495TIP3    H235045   4.757   2.706   7.551  1.8450  1.7305  0.6439
 4496TIP3   OH235046   5.909   1.411   6.925  0.2125  0.1097 -0.4795
 4496TIP3    H135047   5.950   1.421   7.011 -0.6952  1.5101 -0.1723
 4496TIP3    H235048   5.950   1.333   6.887  0.1879 -0.9018  1.4628
 4497TIP3   OH235049   6.463   2.231   7.967 -0.7492 -0.4056 -0.0570
 4497TIP3    H135050   6.468   2.237   8.062 -1.6202  0.0546 -0.0303
 4497TIP3    H235051   6.506   2.310   7.935  2.2461 -1.9447 -0.1629
 4498TIP3   OH235052   5.292   0.983   7.829 -0.1279 -0.2646  0.2247
 4498TIP3    H135053   5.281   0.966   7.923  1.4805 -2.3578  0.1044
 4498TIP3    H235054   5.213   0.945   7.789 -0.5222  0.0753  0.6728
 4499TIP3   OH235055   1.368   5.321   0.854 -0.3452 -0.5005  0.2229
 4499TIP3    H135056   1.279   5.292   0.872  0.4003 -1.6343  2.5643
 4499TIP3    H235057   1.373   5.326   0.758 -2.7409 -0.8607  0.0106
 4500TIP3   OH235058   2.928   3.705   8.203  0.0777 -0.5747  0.1704
 4500TIP3    H135059   2.940   3.800   8.210 -1.6094 -0.2581 -0.6267
 4500TIP3    H235060   2.986   3.679   8.132  0.6532 -0.1751  0.4780
 4501TIP3   OH235061   4.391   5.290   8.174  0.8584  0.6562  0.3559
 4501TIP3    H135062   4.343   5.267   8.095 -0.2796  1.7545  0.6808
 4501TIP3    H235063   4.467   5.339   8.143 -0.4394  2.5228 -0.0420
 4502TIP3   OH235064   3.600   4.263   7.818  0.1736  0.0897  0.3277
 4502TIP3    H135065   3.600   4.297   7.908 -1.1317 -0.7478  0.6783
 4502TIP3    H235066   3.692   4.256   7.795  0.5524  3.0869  0.5055
 4503TIP3   OH235067   0.174   0.329   7.734 -0.0530 -0.5042  0.2971
 4503TIP3    H135068   0.206   0.403   7.785 -0.3461  0.1979 -0.5246
 4503TIP3    H235069   0.178   0.255   7.795 -1.2870  0.4785  1.6506
 4504TIP3   OH235070   1.229   4.601   6.607 -0.2575 -0.4418  0.1916
 4504TIP3    H135071   1.216   4.568   6.696  0.1960 -0.5072  0.2365
 4504TIP3    H235072   1.170   4.549   6.553 -0.2325 -0.6842  0.3976
 4505TIP3   OH235073   0.813   6.233   0.400  0.2966 -0.0908 -0.0532
 4505TIP3    H135074   0.741   6.195   0.350  0.8566 -0.5185 -0.5312
 4505TIP3    H235075   0.822   6.322   0.364 -0.8930  0.4733  0.9475
 4506TIP3   OH235076   1.944   5.934   0.046  0.2309  0.6136  0.7314
 4506TIP3    H135077   2.000   5.884  -0.014  0.8863 -0.5351  2.2348
 4506TIP3    H235078   1.861   5.888   0.045  1.0471 -1.0251  2.6480
 4507TIP3   OH235079   3.372   2.421   0.480  0.0499 -0.1014 -0.3809
 4507TIP3    H135080   3.286   2.380   0.473  0.6974 -1.2904 -2.0658
 4507TIP3    H235081   3.433   2.348   0.486  1.0830  0.6448 -1.3222
 4508TIP3   OH235082   4.100   3.279   6.703 -0.1255 -0.1192 -0.3944
 4508TIP3    H135083   4.050   3.220   6.648  0.3285 -0.1300 -0.7973
 4508TIP3    H235084   4.065   3.366   6.683  0.3653 -0.0665 -1.0703
 4509TIP3   OH235085   1.046   3.025   1.551 -0.8150  0.4694  0.5056
 4509TIP3    H135086   0.963   3.071   1.545 -0.9713 -0.0002 -1.8074
 4509TIP3    H235087   1.023   2.939   1.587 -1.1619  0.7113  0.8634
 4510TIP3   OH235088   2.440   1.223   7.587  0.1650 -0.2785 -0.2752
 4510TIP3    H135089   2.491   1.213   7.668  0.0097 -0.2662 -0.1751
 4510TIP3    H235090   2.505   1.213   7.517  0.1039 -1.5803 -0.1758
 4511TIP3   OH235091   1.040   2.395   8.646  0.3086 -0.0765 -0.0566
 4511TIP3    H135092   0.985   2.363   8.574 -0.1283 -0.1912  0.3268
 4511TIP3    H235093   0.993   2.471   8.681  0.0916 -0.5340  0.6610
 4512TIP3   OH235094   0.646   1.617   8.120 -0.5506  0.1133  0.3275
 4512TIP3    H135095   0.645   1.706   8.084  1.0188  1.1080  2.5383
 4512TIP3    H235096   0.731   1.582   8.092 -1.0317 -0.5936 -0.2679
 4513TIP3   OH235097   2.535   2.087   8.239  0.2944  0.2096  0.1304
 4513TIP3    H135098   2.526   2.103   8.145  0.3296 -1.6889 -0.2344
 4513TIP3    H235099   2.510   1.995   8.250  1.1418  0.1468  1.8438
 4514TIP3   OH235100   1.148   2.183   8.832  0.2563  0.1362 -0.7408
 4514TIP3    H135101   1.165   2.101   8.786  0.1449 -0.4217  0.1953
 4514TIP3    H235102   1.146   2.249   8.763 -1.7640 -0.9351 -1.7959
 4515TIP3   OH235103   0.523   3.197   6.551 -0.3224  0.2608 -0.6026
 4515TIP3    H135104   0.533   3.113   6.595  0.9746 -0.2000 -1.7016
 4515TIP3    H235105   0.606   3.211   6.506 -0.5784  2.0537 -0.5976
 4516TIP3   OH235106   3.154   0.938   8.157  0.6479  0.5827 -0.4207
 4516TIP3    H135107   3.060   0.936   8.177  0.4519 -0.9840 -1.3272
 4516TIP3    H235108   3.173   0.851   8.122  2.1266  1.3478 -1.6693
 4517TIP3   OH235109   0.240   3.018   6.957 -0.1519  0.3956  0.1921
 4517TIP3    H135110   0.174   3.005   6.888 -0.9691 -1.1449  1.2004
 4517TIP3    H235111   0.276   3.105   6.940 -0.9868  0.4346 -1.6151
 4518TIP3   OH235112   5.513   3.741   8.734  0.3726 -0.0208 -0.3408
 4518TIP3    H135113   5.524   3.817   8.677  2.1525 -0.3795 -0.5340
 4518TIP3    H235114   5.422   3.715   8.722  0.1689  1.1271 -1.4839
 4519TIP3   OH235115   2.557   1.471   0.402  0.0866  0.1761  0.2260
 4519TIP3    H135116   2.494   1.404   0.428  0.0294 -0.8582 -2.2312
 4519TIP3    H235117   2.503   1.542   0.368  0.1336 -0.5649 -1.5495
 4520TIP3   OH235118   4.159   0.506   8.218  0.0102  0.3130  0.6342
 4520TIP3    H135119   4.244   0.475   8.249  0.4070 -1.1120 -1.6190
 4520TIP3    H235120   4.181   0.578   8.159  0.1083 -2.0596 -2.5197
 4521TIP3   OH235121   3.444   6.132   7.763  0.1968 -0.0470  0.5427
 4521TIP3    H135122   3.437   6.048   7.718  0.8816  0.8383 -1.3580
 4521TIP3    H235123   3.514   6.119   7.827  0.0692 -1.0138  0.4992
 4522TIP3   OH235124   5.758   3.122   7.728  0.2227 -0.3631 -0.0988
 4522TIP3    H135125   5.803   3.110   7.811  1.5878 -0.8293 -0.8727
 4522TIP3    H235126   5.709   3.041   7.715 -0.0190 -0.2753  0.2594
 4523TIP3   OH235127   6.732   3.213   8.562  0.7566  0.4087  0.2324
 4523TIP3    H135128   6.808   3.264   8.532  1.7334 -1.9713 -1.6398
 4523TIP3    H235129   6.706   3.255   8.644  0.7871  4.5631 -1.6262
 4524TIP3   OH235130   0.233   5.431   0.680  0.1163 -0.0965  0.3358
 4524TIP3    H135131   0.165   5.489   0.714 -0.2956  1.1122 -2.3666
 4524TIP3    H235132   0.190   5.346   0.671 -0.8157  0.4433 -0.5097
 4525TIP3   OH235133   1.523   0.696   0.932 -0.1784 -1.0812  0.8028
 4525TIP3    H135134   1.565   0.636   0.995 -1.3781 -1.3225  1.3916
 4525TIP3    H235135   1.431   0.695   0.955 -0.1024  1.9837  1.6265
 4526TIP3   OH235136   2.088   3.770   1.905 -0.3196 -0.0629 -0.4890
 4526TIP3    H135137   2.179   3.787   1.884 -0.0472 -1.8414 -0.8875
 4526TIP3    H235138   2.041   3.848   1.875  0.9027  0.3290 -1.4398
 4527TIP3   OH235139   6.211   3.720   6.442 -0.2897 -0.1184 -0.3232
 4527TIP3    H135140   6.116   3.717   6.430 -0.2520  0.3894 -0.7568
 4527TIP3    H235141   6.223   3.761   6.528 -0.4621 -0.1551 -0.2812
 4528TIP3   OH235142   0.417   1.155   7.975  0.3307 -0.1647 -0.3154
 4528TIP3    H135143   0.491   1.216   7.978 -0.8425  1.3315  0.0498
 4528TIP3    H235144   0.371   1.171   8.057  0.4398 -2.2162  0.1892
 4529TIP3   OH235145   2.725   5.358   8.577  0.2901  0.0800  0.2066
 4529TIP3    H135146   2.817   5.335   8.589  0.5636  1.4881  1.1143
 4529TIP3    H235147   2.704   5.329   8.488  1.6632 -0.0942 -0.0762
 4530TIP3   OH235148   2.092   2.109   0.571  0.1527  0.0186 -0.4375
 4530TIP3    H135149   2.074   2.016   0.581  1.2816 -0.1968 -0.3090
 4530TIP3    H235150   2.037   2.151   0.637 -2.5790 -0.2695 -2.3610
 4531TIP3   OH235151   4.268   0.872   8.058 -0.6398 -0.4973  0.4293
 4531TIP3    H135152   4.271   0.816   8.135 -0.7296 -1.7290 -0.4457
 4531TIP3    H235153   4.222   0.951   8.088  1.1372 -0.0542  2.1713
 4532TIP3   OH235154   4.162   2.559   0.380  0.7488  0.6160 -0.3344
 4532TIP3    H135155   4.251   2.573   0.348  1.1272 -0.2487  0.3000
 4532TIP3    H235156   4.118   2.511   0.310  1.2116 -0.1997 -0.0798
 4533TIP3   OH235157   0.363   6.774   7.681 -0.8128 -0.1764  0.7549
 4533TIP3    H135158   0.457   6.779   7.700 -0.4093  0.8860 -1.2186
 4533TIP3    H235159   0.349   6.683   7.655 -1.0356 -1.1841  3.9609
 4534TIP3   OH235160   6.697   4.656   1.893  0.3130  0.3374  0.2824
 4534TIP3    H135161   6.734   4.573   1.922  2.1014  1.6651  1.9456
 4534TIP3    H235162   6.772   4.711   1.874 -0.8443  1.5724 -0.9562
 4535TIP3   OH235163   6.384   2.450   2.460 -1.0052  0.5494 -0.2379
 4535TIP3    H135164   6.377   2.452   2.364 -0.2446 -0.6378 -0.3365
 4535TIP3    H235165   6.475   2.472   2.478 -0.8630 -0.3495  0.1549
 4536TIP3   OH235166   6.595   5.319   8.572 -0.3318  0.6473 -0.0036
 4536TIP3    H135167   6.572   5.289   8.484  0.1878  0.8237 -0.2032
 4536TIP3    H235168   6.628   5.241   8.616 -3.2134 -0.1537  1.0023
 4537TIP3   OH235169   2.790   5.735   8.029 -0.3400 -0.6888 -0.1176
 4537TIP3    H135170   2.784   5.786   8.109  1.1071 -0.8017  0.0931
 4537TIP3    H235171   2.877   5.695   8.032 -0.5921 -1.4047 -1.3244
 4538TIP3   OH235172   2.684   0.763   7.939 -0.2697  0.1311 -0.0968
 4538TIP3    H135173   2.684   0.856   7.963  0.8159 -0.4521  2.4730
 4538TIP3    H235174   2.631   0.721   8.006 -0.2616 -1.2054 -0.8852
 4539TIP3   OH235175   0.396   0.431   0.365  0.4422 -0.1409  0.1600
 4539TIP3    H135176   0.472   0.458   0.417 -0.5856  0.2585  1.4947
 4539TIP3    H235177   0.321   0.451   0.420 -0.5870 -1.7520 -0.5847
 4540TIP3   OH235178   1.098   2.121   0.223  0.0397  0.5427  0.0470
 4540TIP3    H135179   1.099   2.126   0.127  1.5332 -0.0004  0.0185
 4540TIP3    H235180   1.011   2.154   0.247 -0.5031  0.3407 -1.5028
 4541TIP3   OH235181   2.972   4.400   7.925 -0.0883 -0.2023 -0.0675
 4541TIP3    H135182   3.067   4.409   7.924 -0.0549 -0.4853  0.3258
 4541TIP3    H235183   2.946   4.411   7.833  0.3456 -0.3759 -0.2140
 4542TIP3   OH235184   6.780   3.548   7.171 -0.4714 -0.0775 -0.5668
 4542TIP3    H135185   6.694   3.508   7.157  0.0385 -0.8368 -1.6808
 4542TIP3    H235186   6.782   3.623   7.112 -1.1983  1.3050  1.0921
 4543TIP3   OH235187   1.710   3.314   7.624  0.3240  0.2644  0.4275
 4543TIP3    H135188   1.798   3.304   7.659 -0.1948 -0.1677  1.6508
 4543TIP3    H235189   1.693   3.231   7.579  0.0303 -0.2244  1.4062
 4544TIP3   OH235190   5.371   1.199   0.639 -0.2892 -0.3354  0.4956
 4544TIP3    H135191   5.311   1.222   0.710 -1.0969 -0.0310 -0.2737
 4544TIP3    H235192   5.319   1.143   0.581 -0.3852  1.2827 -1.0556
 4545TIP3   OH235193   6.340   0.030   8.782  0.9227  0.2899 -0.1565
 4545TIP3    H135194   6.371  -0.010   8.701  0.3938 -1.1722  0.3177
 4545TIP3    H235195   6.245   0.019   8.780  0.7755  1.3931  0.0846
 4546TIP3   OH235196   0.043   1.125   7.723  0.4232  0.2341  0.0705
 4546TIP3    H135197  -0.044   1.085   7.712  0.6798 -0.4181  0.3510
 4546TIP3    H235198   0.079   1.081   7.800  1.0797  0.3676 -0.1619
 4547TIP3   OH235199   0.276   5.667   8.142 -0.1018 -0.0027  0.3636
 4547TIP3    H135200   0.208   5.640   8.204 -0.3723  0.1938  0.1523
 4547TIP3    H235201   0.233   5.666   8.057  0.0227  0.6145  0.2907
 4548TIP3   OH235202   5.297   3.723   1.340 -0.4609 -0.4944  0.5060
 4548TIP3    H135203   5.266   3.814   1.341  0.3163 -0.2308  1.2859
 4548TIP3    H235204   5.389   3.728   1.365 -1.0601 -1.7153  3.3907
 4549TIP3   OH235205   1.436   4.989   8.797  0.2914 -0.5638  0.5419
 4549TIP3    H135206   1.410   5.045   8.870  0.3386 -0.3013  0.3619
 4549TIP3    H235207   1.529   5.009   8.784  0.1008 -0.0619 -0.0651
 4550TIP3   OH235208   0.365   3.274   8.389 -0.6260 -0.3439 -0.5336
 4550TIP3    H135209   0.287   3.302   8.436 -0.2518  1.6219 -0.9735
 4550TIP3    H235210   0.379   3.342   8.324  0.5112 -1.5287 -1.5751
 4551TIP3   OH235211   2.485   3.017   2.241  0.2951  0.0734  0.3258
 4551TIP3    H135212   2.457   3.108   2.250  0.0477  0.0769 -0.4285
 4551TIP3    H235213   2.429   2.968   2.301 -1.3413  0.0851 -1.0928
 4552TIP3   OH235214   4.321   1.172   1.009 -0.1570  1.0281  0.1028
 4552TIP3    H135215   4.400   1.133   1.046 -0.1927 -0.1527 -1.0045
 4552TIP3    H235216   4.250   1.118   1.044 -0.2894  0.6998 -0.6707
 4553TIP3   OH235217   4.226   3.377   0.584 -0.0536  0.3111 -0.2676
 4553TIP3    H135218   4.190   3.425   0.509  0.5199  0.9550 -0.1311
 4553TIP3    H235219   4.151   3.366   0.643 -0.7497 -1.0584 -1.3507
 4554TIP3   OH235220   1.738   5.633   0.255  0.2761 -0.3744  0.3174
 4554TIP3    H135221   1.738   5.538   0.243  2.5896 -0.9924  3.7643
 4554TIP3    H235222   1.814   5.650   0.310  0.1131  3.5780 -0.4003
 4555TIP3   OH235223   5.487   3.776   0.163 -0.8017 -0.4007 -0.2424
 4555TIP3    H135224   5.562   3.735   0.207  0.5997  1.9809 -0.2620
 4555TIP3    H235225   5.496   3.750   0.072 -0.0534 -0.2256 -0.2236
 4556TIP3   OH235226   5.472   5.326   7.566  0.5066 -0.1570 -0.5987
 4556TIP3    H135227   5.480   5.276   7.484 -0.8477 -0.7844 -0.3803
 4556TIP3    H235228   5.424   5.268   7.624  0.1667  0.8603  0.1597
 4557TIP3   OH235229   5.287   2.447   7.316  0.3076 -0.1587  0.1880
 4557TIP3    H135230   5.228   2.398   7.373 -0.1016  0.2818  0.1525
 4557TIP3    H235231   5.374   2.427   7.349  0.1026 -0.2843  0.6660
 4558TIP3   OH235232   1.136   5.634   0.590 -0.7386  0.1954 -0.1156
 4558TIP3    H135233   1.083   5.642   0.510 -1.1756 -1.2582  0.0088
 4558TIP3    H235234   1.074   5.644   0.661 -0.7204 -0.6799  0.0314
 4559TIP3   OH235235   6.346   5.395   7.753 -0.3522 -0.3407 -0.1585
 4559TIP3    H135236   6.299   5.477   7.739  0.8747  0.4992  0.4579
 4559TIP3    H235237   6.396   5.382   7.672 -0.6231 -0.5313 -0.2948
 4560TIP3   OH235238   2.253   5.635   1.047  0.8010  0.1229 -0.5305
 4560TIP3    H135239   2.189   5.705   1.050  0.3928 -0.2605  0.0677
 4560TIP3    H235240   2.336   5.678   1.026  0.6900  0.8905  0.4994
 4561TIP3   OH235241   3.870   5.472   6.770  0.2792 -0.4865 -0.6845
 4561TIP3    H135242   3.913   5.427   6.698  2.9608 -0.6645  0.8786
 4561TIP3    H235243   3.924   5.451   6.847 -0.4354  2.4044  0.7486
 4562TIP3   OH235244   1.589   3.355   8.446  0.4708  0.6342 -0.0933
 4562TIP3    H135245   1.552   3.432   8.488 -0.0398  0.1632  0.3318
 4562TIP3    H235246   1.642   3.313   8.514 -0.5456 -0.2582  0.1760
 4563TIP3   OH235247   2.546   0.641   1.774  0.4200  0.3356 -0.0592
 4563TIP3    H135248   2.572   0.731   1.756  0.7348  0.8231  2.4552
 4563TIP3    H235249   2.553   0.633   1.869 -3.0646 -1.2845  0.2050
 4564TIP3   OH235250   6.172   5.035   7.602  0.3631 -0.4720 -0.4807
 4564TIP3    H135251   6.083   5.001   7.589  0.0819 -0.3570  1.0229
 4564TIP3    H235252   6.210   4.976   7.668  0.7846  0.5349  0.1884
 4565TIP3   OH235253   1.619   6.287   0.896 -0.0513  0.0022  0.4782
 4565TIP3    H135254   1.692   6.329   0.941 -0.4017  1.6112 -0.3936
 4565TIP3    H235255   1.628   6.313   0.805 -1.0137 -0.7984  0.1313
 4566TIP3   OH235256   2.269   0.952   8.030  0.3029  0.2816 -0.3321
 4566TIP3    H135257   2.264   0.960   7.935 -0.3161  2.3701 -0.1768
 4566TIP3    H235258   2.185   0.916   8.057 -0.0022  0.8684 -0.4912
 4567TIP3   OH235259   6.327   3.909   8.435  0.3350  0.0318  0.0491
 4567TIP3    H135260   6.423   3.906   8.444  0.7247 -0.9931 -3.0286
 4567TIP3    H235261   6.312   3.966   8.359 -1.5541  0.6476  0.8423
 4568TIP3   OH235262   6.487   0.992   6.471 -0.4124 -0.2629 -0.0593
 4568TIP3    H135263   6.552   1.040   6.420 -0.2846  0.0635  0.3955
 4568TIP3    H235264   6.540   0.934   6.526 -0.5074 -0.0903  0.2170
 4569TIP3   OH235265   5.482   3.396   1.087 -0.2267 -0.4942 -0.3404
 4569TIP3    H135266   5.474   3.331   1.017 -0.2431  0.8419 -1.6398
 4569TIP3    H235267   5.536   3.465   1.048 -0.8545  0.6239  0.7212
 4570TIP3   OH235268   6.707   6.443   1.816  0.1404 -0.1145  0.1519
 4570TIP3    H135269   6.756   6.360   1.814 -0.1611 -0.3777  2.2637
 4570TIP3    H235270   6.769   6.506   1.852 -0.4043  0.0113  0.8879
 4571TIP3   OH235271   5.921   0.662   1.019  0.1804 -0.2394 -0.0927
 4571TIP3    H135272   5.862   0.714   1.074 -0.1878  0.3753 -1.0455
 4571TIP3    H235273   5.895   0.571   1.035 -0.3842 -0.0287  0.2311
 4572TIP3   OH235274   6.672   1.591   1.298 -0.0697  0.2075 -0.0211
 4572TIP3    H135275   6.662   1.605   1.392 -1.4720  1.6310 -0.3437
 4572TIP3    H235276   6.700   1.499   1.291  1.6601  0.5105  1.8324
 4573TIP3   OH235277   3.702   2.664   0.851  0.6243 -0.1893  0.1782
 4573TIP3    H135278   3.715   2.580   0.807 -0.8722 -0.8506  0.9156
 4573TIP3    H235279   3.642   2.712   0.794 -0.6698 -0.7259  1.0415
 4574TIP3   OH235280   2.875   5.356   0.218  0.3212 -0.1959  0.0858
 4574TIP3    H135281   2.819   5.393   0.286 -0.3626  2.2972 -1.6868
 4574TIP3    H235282   2.954   5.410   0.221  0.5769 -0.5193 -0.6169
 4575TIP3   OH235283   0.153   1.380   1.634 -0.2085  0.1470  0.7171
 4575TIP3    H135284   0.094   1.395   1.561  1.0896  0.0765 -0.3818
 4575TIP3    H235285   0.213   1.312   1.603  1.0886  0.9346  1.4111
 4576TIP3   OH235286   1.154   3.975   1.316 -0.5088 -0.5104  0.4437
 4576TIP3    H135287   1.066   3.985   1.280 -0.5938  0.3483  0.8454
 4576TIP3    H235288   1.157   4.039   1.388  0.2547 -0.9187  0.7840
 4577TIP3   OH235289   1.085   1.496   7.563 -0.2998  0.9739 -0.1391
 4577TIP3    H135290   1.031   1.473   7.639 -0.2661 -0.0296 -0.4037
 4577TIP3    H235291   1.074   1.591   7.554  0.8166  1.3619  1.9663
 4578TIP3   OH235292   1.859   6.360   0.274  0.0127 -0.5531  0.1411
 4578TIP3    H135293   1.891   6.431   0.218  0.3917 -1.2794 -0.5848
 4578TIP3    H235294   1.938   6.323   0.313 -0.1177 -1.0575 -0.0753
 4579TIP3   OH235295   1.097   2.689   0.896 -0.2798  0.2961  0.3727
 4579TIP3    H135296   1.016   2.723   0.859 -0.3272  0.4667  0.6326
 4579TIP3    H235297   1.152   2.766   0.909  1.6427 -0.1046 -3.7804
 4580TIP3   OH235298   0.041   4.328   1.212 -0.3706  0.5936  0.2179
 4580TIP3    H135299   0.052   4.242   1.252 -0.5680  0.6742  0.4433
 4580TIP3    H235300   0.104   4.329   1.140 -0.1769  0.3634  0.3849
 4581TIP3   OH235301   4.888   1.236   2.042 -0.0677  0.0838  0.3667
 4581TIP3    H135302   4.916   1.247   2.133 -1.9376  1.8709  0.8051
 4581TIP3    H235303   4.941   1.299   1.993  1.5363 -1.4618  0.0230
 4582TIP3   OH235304   4.916   0.192   8.203  0.0152 -0.5773  0.2386
 4582TIP3    H135305   4.893   0.264   8.143  2.9959 -0.8959 -1.4987
 4582TIP3    H235306   4.889   0.224   8.289 -0.5196  1.8145 -0.7174
 4583TIP3   OH235307   3.638   5.476   8.618 -0.1874 -0.3137 -0.4334
 4583TIP3    H135308   3.612   5.465   8.709  2.1896  0.3826  0.4112
 4583TIP3    H235309   3.581   5.545   8.584 -0.8633 -0.3321  0.6380
 4584TIP3   OH235310   5.739   2.429   0.217 -0.3944  0.4422 -0.0089
 4584TIP3    H135311   5.755   2.435   0.311  1.6999 -1.6368 -0.1365
 4584TIP3    H235312   5.826   2.421   0.178 -1.2075  1.2405 -2.1492
 4585TIP3   OH235313   5.266   5.993   7.561 -0.1446 -0.5355 -0.0234
 4585TIP3    H135314   5.356   6.017   7.583  0.2262 -0.6845 -1.3199
 4585TIP3    H235315   5.266   5.986   7.466 -0.8152 -3.3160  0.0941
 4586TIP3   OH235316   1.035   1.965   0.727  0.2399  0.3046 -0.0791
 4586TIP3    H135317   1.054   2.049   0.684 -0.2934  1.3005  1.5380
 4586TIP3    H235318   1.113   1.912   0.712  0.8004  1.2771 -0.6858
 4587TIP3   OH235319   1.704   4.945   8.015 -0.0488  0.6487 -0.0684
 4587TIP3    H135320   1.750   4.950   8.098 -0.9268 -1.2299  0.5936
 4587TIP3    H235321   1.669   5.033   8.001  1.8533  1.5290  0.4813
 4588TIP3   OH235322   2.872   1.477   1.602 -0.1342  0.3999  0.5223
 4588TIP3    H135323   2.851   1.568   1.622  1.4192  0.6662  1.1368
 4588TIP3    H235324   2.925   1.482   1.522 -1.4361 -0.1383 -0.3999
 4589TIP3   OH235325   0.225   3.072   8.573  0.5068  0.0369 -0.6832
 4589TIP3    H135326   0.200   3.008   8.639 -0.6535 -0.4307 -1.5530
 4589TIP3    H235327   0.271   3.141   8.622  0.4704 -0.7362  0.4639
 4590TIP3   OH235328   4.662   6.096   8.364 -0.0172  0.2158  0.2593
 4590TIP3    H135329   4.688   6.172   8.417  0.7563 -0.0212  0.2444
 4590TIP3    H235330   4.630   6.134   8.282 -3.4296  0.7335  1.6519
 4591TIP3   OH235331   3.284   5.354   1.357  0.8391  0.8153 -0.7497
 4591TIP3    H135332   3.258   5.435   1.315  0.8250  0.1092 -2.1427
 4591TIP3    H235333   3.379   5.362   1.368  0.4625  2.5036  2.4369
 4592TIP3   OH235334   3.928   2.431   0.902 -0.0944  0.3289  0.1174
 4592TIP3    H135335   3.917   2.519   0.939  1.5221  0.0417  1.3948
 4592TIP3    H235336   3.943   2.446   0.809  0.6726  1.4679  0.4023
 4593TIP3   OH235337   0.613   6.016   7.680  0.3411 -0.1468  0.2684
 4593TIP3    H135338   0.521   6.033   7.657  0.7036  0.3710 -0.8912
 4593TIP3    H235339   0.623   6.054   7.767 -0.5316 -0.1811  0.3971
 4594TIP3   OH235340   1.000   5.270   0.411  0.0772  0.5208 -0.0324
 4594TIP3    H135341   1.080   5.321   0.396  0.2841  0.2886  0.2834
 4594TIP3    H235342   1.009   5.236   0.500 -0.9706  1.5780  0.5054
 4595TIP3   OH235343   2.307   5.044   7.764  0.5457  0.1664 -0.3316
 4595TIP3    H135344   2.273   4.960   7.732  1.4532 -0.0717 -0.6927
 4595TIP3    H235345   2.342   5.087   7.687  1.3152  0.2860  0.0769
 4596TIP3   OH235346   0.960   0.449   8.434 -0.0816 -0.1562 -0.0463
 4596TIP3    H135347   0.941   0.434   8.341 -0.1215 -0.1299 -0.0417
 4596TIP3    H235348   1.055   0.438   8.440  0.2581  1.9765 -0.5168
 4597TIP3   OH235349   5.989   4.558   7.917  0.1206  0.8065 -0.5136
 4597TIP3    H135350   5.986   4.634   7.974 -2.4504  0.6228 -0.2873
 4597TIP3    H235351   5.967   4.591   7.830 -0.0489  0.4833 -0.5973
 4598TIP3   OH235352   1.817   5.829   7.234  0.5815  0.4626  0.1089
 4598TIP3    H135353   1.889   5.770   7.259  0.2663  0.7483  1.7907
 4598TIP3    H235354   1.859   5.914   7.223  0.9512  0.0808 -1.8228
 4599TIP3   OH235355   6.070   2.151   7.029 -0.3756 -0.0620  0.3022
 4599TIP3    H135356   5.990   2.116   7.069 -1.1365  1.0189 -0.2264
 4599TIP3    H235357   6.132   2.077   7.030 -0.3388 -0.1170  3.4113
 4600TIP3   OH235358   0.744   1.772   2.952 -0.3237  0.1249  0.1638
 4600TIP3    H135359   0.660   1.768   2.907 -0.4660 -1.1956  0.5117
 4600TIP3    H235360   0.752   1.864   2.979 -1.7763  0.2092  0.3745
 4601TIP3   OH235361   6.201   2.253   7.862 -0.3027  0.6063  0.3435
 4601TIP3    H135362   6.170   2.162   7.868  0.8219  0.1907  0.1183
 4601TIP3    H235363   6.292   2.249   7.889 -0.4578  1.8212  1.0988
 4602TIP3   OH235364   3.664   4.021   0.947  0.0178 -0.5920 -0.3931
 4602TIP3    H135365   3.752   4.001   0.915 -0.3987  0.5534 -2.4825
 4602TIP3    H235366   3.643   4.106   0.907 -2.4301 -1.3374 -0.8609
 4603TIP3   OH235367   0.054   0.831   1.599  0.8852  0.3006  0.6998
 4603TIP3    H135368   0.006   0.880   1.666 -0.1442 -0.8439  0.8457
 4603TIP3    H235369  -0.001   0.838   1.521  1.4859  0.6389  0.3079
 4604TIP3   OH235370   4.701   2.851   7.868 -0.2472  0.2125  0.4094
 4604TIP3    H135371   4.614   2.823   7.837  0.1919 -0.2423 -0.4555
 4604TIP3    H235372   4.701   2.828   7.961 -1.0840  0.2982  0.4459
 4605TIP3   OH235373   0.347   5.341   8.784 -0.7787  0.3280  0.2918
 4605TIP3    H135374   0.256   5.329   8.813 -1.0870  0.4756 -0.5751
 4605TIP3    H235375   0.346   5.427   8.742 -0.0091  0.7530  1.1081
 4606TIP3   OH235376   2.816   3.881   7.749 -0.3242 -0.2059  0.2060
 4606TIP3    H135377   2.890   3.900   7.806  0.2977  1.0505 -0.9721
 4606TIP3    H235378   2.828   3.789   7.723 -0.7408 -0.8722  2.1993
 4607TIP3   OH235379   2.278   2.969   1.611  0.9320 -0.1276  0.7163
 4607TIP3    H135380   2.260   3.050   1.565  0.9402 -0.1891  0.6052
 4607TIP3    H235381   2.366   2.944   1.582  1.8785  1.0017  2.4476
 4608TIP3   OH235382   4.226   3.520   7.286  0.5038 -0.2440  0.5488
 4608TIP3    H135383   4.287   3.565   7.344  0.8405 -0.5123  0.4081
 4608TIP3    H235384   4.155   3.491   7.343  1.0426 -0.8860  0.9075
 4609TIP3   OH235385   2.723   6.325   0.834  0.0587 -0.4620 -0.5209
 4609TIP3    H135386   2.641   6.305   0.880  0.1563 -1.8005 -0.8708
 4609TIP3    H235387   2.724   6.420   0.825 -1.1163 -0.3769  0.1131
 4610TIP3   OH235388   3.553   6.317   8.338  0.2782  0.2737 -0.2867
 4610TIP3    H135389   3.506   6.235   8.321  2.0634 -0.9209  0.2661
 4610TIP3    H235390   3.484   6.380   8.357 -1.1934 -0.9139 -1.3926
 4611TIP3   OH235391   2.038   4.525   7.754  0.4855 -0.2269 -0.1422
 4611TIP3    H135392   2.026   4.479   7.837 -0.3044 -1.1649 -0.7540
 4611TIP3    H235393   2.112   4.481   7.712  0.0567 -0.6253 -0.4989
 4612TIP3   OH235394   5.025   5.660   8.584  0.0712  0.2101 -0.3057
 4612TIP3    H135395   4.994   5.745   8.552 -2.2638 -0.8515 -1.0681
 4612TIP3    H235396   4.972   5.643   8.663 -1.3794 -1.6141 -1.5812
 4613TIP3   OH235397   3.798   2.967   7.308  0.4378  0.1430  0.1201
 4613TIP3    H135398   3.719   2.960   7.361  1.9503  1.0581  2.6251
 4613TIP3    H235399   3.787   2.899   7.241 -2.0904 -0.2574  0.8350
 4614TIP3   OH235400   1.720   5.494   7.697 -0.9185  0.6429  0.1076
 4614TIP3    H135401   1.762   5.455   7.774 -1.2281 -1.0388 -0.5224
 4614TIP3    H235402   1.792   5.506   7.634 -1.1496 -1.2475 -0.5815
 4615TIP3   OH235403   5.777   2.267   8.695 -0.0686  0.4272  0.0040
 4615TIP3    H135404   5.760   2.198   8.759  1.9785 -0.5667 -0.4294
 4615TIP3    H235405   5.698   2.321   8.696 -1.5808 -1.6825  0.6321
 4616TIP3   OH235406   6.248   6.114   6.388  0.6128  0.1949  0.2404
 4616TIP3    H135407   6.207   6.193   6.424  0.3789  0.6097 -0.9036
 4616TIP3    H235408   6.214   6.043   6.443 -1.2371  0.5831 -0.3282
 4617TIP3   OH235409   5.573   2.738   1.627  0.4045  0.2013 -0.5940
 4617TIP3    H135410   5.599   2.766   1.539  1.0475  0.4467 -0.3286
 4617TIP3    H235411   5.513   2.806   1.657  3.1266  2.2196  0.6547
 4618TIP3   OH235412   4.893   0.029   7.948  0.1063  0.3208 -0.1284
 4618TIP3    H135413   4.864   0.120   7.958 -0.6920 -0.0666  1.2871
 4618TIP3    H235414   4.835  -0.021   8.005  0.6224 -1.0747 -0.7914
 4619TIP3   OH235415   6.260   6.546   1.642 -0.4247 -0.2799  0.1966
 4619TIP3    H135416   6.333   6.492   1.673 -1.0411 -0.3366  1.6312
 4619TIP3    H235417   6.252   6.524   1.549 -1.0522 -3.1891  0.8244
 4620TIP3   OH235418   5.566   3.982   2.539 -1.1330  0.2720  0.5242
 4620TIP3    H135419   5.524   3.897   2.553  0.2015 -0.5163 -0.0418
 4620TIP3    H235420   5.586   3.984   2.445  0.1296  0.5636  0.7774
 4621TIP3   OH235421   2.655   3.185   2.044 -0.6520 -0.2539 -0.6839
 4621TIP3    H135422   2.735   3.138   2.020 -1.3638 -1.0451 -1.5786
 4621TIP3    H235423   2.607   3.123   2.099 -1.1537 -0.2207 -1.0746
 4622TIP3   OH235424   4.898   4.061   7.340 -0.0876  0.0513 -0.0237
 4622TIP3    H135425   4.890   3.998   7.411 -0.5475  0.2613  0.1102
 4622TIP3    H235426   4.832   4.127   7.358 -0.5990 -0.1872 -0.9572
 4623TIP3   OH235427   3.101   5.039   7.871  0.2570  0.6141 -0.3499
 4623TIP3    H135428   3.007   5.020   7.879  0.0215  0.2158 -3.1410
 4623TIP3    H235429   3.112   5.123   7.915 -1.7401  1.4832 -1.3845
 4624TIP3   OH235430   1.796   1.161   0.579 -0.1637 -0.0706  0.6317
 4624TIP3    H135431   1.854   1.117   0.517  1.2679 -0.4997  2.1947
 4624TIP3    H235432   1.827   1.252   0.581 -0.1286 -0.0851  0.7933
 4625TIP3   OH235433   6.646   6.761   1.343  0.5451  0.5272  0.3786
 4625TIP3    H135434   6.738   6.762   1.317  0.8567  0.3434  1.4245
 4625TIP3    H235435   6.616   6.672   1.324  0.7218  0.4414  0.5032
 4626TIP3   OH235436   6.148   3.916   7.355  0.2998 -0.1076  0.1061
 4626TIP3    H135437   6.162   3.926   7.261  0.2678  1.2124  0.2196
 4626TIP3    H235438   6.236   3.910   7.392  0.5511  2.9249  0.2954
 4627TIP3   OH235439   0.703   6.100   1.345  0.5611  0.4419  0.7333
 4627TIP3    H135440   0.650   6.179   1.361  1.2351  0.9240  0.6442
 4627TIP3    H235441   0.686   6.044   1.420 -2.9590 -1.0836 -0.9544
 4628TIP3   OH235442   0.501   5.495   0.089 -0.5407  0.0130 -0.2613
 4628TIP3    H135443   0.581   5.458   0.125 -0.4414  1.3614  0.9639
 4628TIP3    H235444   0.457   5.420   0.048  1.7775 -0.5702 -1.8846
 4629TIP3   OH235445   6.210   0.671   1.484  0.1231  0.0247  0.7388
 4629TIP3    H135446   6.271   0.743   1.468 -0.0139  0.0313  0.2295
 4629TIP3    H235447   6.265   0.592   1.481 -0.0423 -0.0635 -0.7976
 4630TIP3   OH235448   2.533   3.437   7.954 -0.2160 -0.2481  0.0074
 4630TIP3    H135449   2.568   3.348   7.946  0.9619 -0.0618  2.1726
 4630TIP3    H235450   2.611   3.492   7.966 -1.0551  0.5922  2.0076
 4631TIP3   OH235451   1.866   3.081   8.552 -0.0318 -0.0770  0.1438
 4631TIP3    H135452   1.819   3.155   8.590 -1.3847 -1.0936  0.5458
 4631TIP3    H235453   1.956   3.110   8.546 -0.6650  1.9052 -0.5039
 4632TIP3   OH235454   0.322   5.644   1.428 -0.6648 -0.0791  0.0862
 4632TIP3    H135455   0.367   5.697   1.494 -2.4568  1.8405 -0.1246
 4632TIP3    H235456   0.323   5.555   1.464  0.3936  0.5058  1.5992
 4633TIP3   OH235457   0.482   0.998   7.541  0.3836 -0.7023  0.6937
 4633TIP3    H135458   0.436   0.914   7.549  0.7452 -0.8544  1.2719
 4633TIP3    H235459   0.412   1.063   7.534  0.0962 -1.0264  0.4981
 4634TIP3   OH235460   0.310   3.985   8.761  0.2568  0.1522 -0.4402
 4634TIP3    H135461   0.306   3.998   8.856  1.5636  2.6194 -0.6424
 4634TIP3    H235462   0.404   3.978   8.742 -0.0416 -1.6971 -1.4453
 4635TIP3   OH235463   1.816   1.861   2.342  0.2945  0.3476  0.1833
 4635TIP3    H135464   1.910   1.877   2.333  0.3169  0.0098 -0.2241
 4635TIP3    H235465   1.806   1.767   2.323  0.0461  0.0814  1.5386
 4636TIP3   OH235466   1.353   1.281   8.727 -0.0193 -0.3857  0.0623
 4636TIP3    H135467   1.285   1.232   8.682  0.5615 -0.6568 -0.5396
 4636TIP3    H235468   1.377   1.351   8.666 -1.5152  1.2901  1.2903
 4637TIP3   OH235469   3.498   6.162   1.202 -0.1732 -0.3082 -0.2438
 4637TIP3    H135470   3.502   6.135   1.110 -1.7320 -0.4919 -0.2912
 4637TIP3    H235471   3.438   6.236   1.203  1.3864  0.9842  0.3783
 4638TIP3   OH235472   3.649   5.872   2.244  0.0726  0.5169 -0.0654
 4638TIP3    H135473   3.740   5.878   2.271  0.4840 -1.1925 -0.9450
 4638TIP3    H235474   3.600   5.918   2.312  1.3294 -0.9321  1.8878
 4639TIP3   OH235475   4.686   0.695   7.198 -0.3107 -0.0577  0.5312
 4639TIP3    H135476   4.650   0.743   7.123 -1.3593 -2.1917 -0.4104
 4639TIP3    H235477   4.776   0.675   7.173 -0.4477 -0.1798  0.1328
 4640TIP3   OH235478   6.159   3.183   7.639 -0.5984 -0.6055  0.0431
 4640TIP3    H135479   6.162   3.088   7.654 -2.2624 -0.8130 -0.6561
 4640TIP3    H235480   6.158   3.222   7.726 -1.9357 -1.3597  0.3957
 4641TIP3   OH235481   0.511   6.460   7.381  0.2612  0.0397 -0.4348
 4641TIP3    H135482   0.560   6.377   7.382 -1.8210 -1.2612  0.8017
 4641TIP3    H235483   0.489   6.476   7.473 -1.5848  0.5774 -0.9379
 4642TIP3   OH235484   0.259   4.140   6.990 -0.1072 -0.4446 -0.4321
 4642TIP3    H135485   0.194   4.105   6.930 -0.3028 -0.0179 -0.4709
 4642TIP3    H235486   0.322   4.186   6.934 -0.1840 -0.2128 -0.3338
 4643TIP3   OH235487   5.948   2.688   7.728  0.8142 -0.3694  0.0243
 4643TIP3    H135488   5.981   2.599   7.722 -0.0017 -0.6461 -0.6054
 4643TIP3    H235489   6.026   2.743   7.739  1.2229 -1.2696  1.8836
 4644TIP3   OH235490   2.598   5.443   0.687 -0.4137 -0.2922  0.1578
 4644TIP3    H135491   2.606   5.529   0.646 -1.4244  0.3757  1.2753
 4644TIP3    H235492   2.548   5.391   0.625 -1.6843  0.6189  0.3698
 4645TIP3   OH235493   3.398   0.983   7.119 -0.1139 -0.6184  0.2707
 4645TIP3    H135494   3.471   1.043   7.103  0.9046 -1.9817 -0.3805
 4645TIP3    H235495   3.327   1.017   7.065  0.5603 -0.1980 -0.3675
 4646TIP3   OH235496   6.295   4.617   0.366  0.6803 -0.0881 -1.2632
 4646TIP3    H135497   6.239   4.686   0.330  0.4140 -1.8024 -4.5529
 4646TIP3    H235498   6.313   4.645   0.456 -2.7410  2.1582 -1.0977
 4647TIP3   OH235499   2.044   1.772   1.945  0.4510  0.0869  0.2576
 4647TIP3    H135500   1.950   1.759   1.937  0.7735 -1.7699 -1.1813
 4647TIP3    H235501   2.056   1.867   1.935 -1.4573  0.8649  3.6298
 4648TIP3   OH235502   1.938   4.321   2.701  0.4791  0.3135 -0.1992
 4648TIP3    H135503   2.017   4.370   2.724  0.8660 -0.0802 -0.6474
 4648TIP3    H235504   1.967   4.262   2.631 -0.1858  0.0765 -0.2781
 4649TIP3   OH235505   0.730   4.777   2.649  0.4201  0.0345 -0.4614
 4649TIP3    H135506   0.773   4.716   2.709  0.1381  0.6262  0.3653
 4649TIP3    H235507   0.790   4.784   2.575 -0.3286 -2.6131 -1.4423
 4650TIP3   OH235508   6.760   5.909   0.116  0.2171  0.0098  0.4591
 4650TIP3    H135509   6.784   5.917   0.209 -0.2640  0.7465  0.5244
 4650TIP3    H235510   6.796   5.988   0.076  0.7653 -0.4968 -0.0623
 4651TIP3   OH235511   3.926   0.122   8.083 -0.0534 -0.2741  0.2747
 4651TIP3    H135512   3.958   0.033   8.099 -0.6577 -0.6768 -0.6621
 4651TIP3    H235513   3.848   0.110   8.029 -0.1448  0.8322  0.1423
 4652TIP3   OH235514   2.968   6.459   2.625 -0.0496 -0.2419 -0.5232
 4652TIP3    H135515   3.032   6.437   2.693 -0.8655  1.1983  0.7781
 4652TIP3    H235516   2.884   6.457   2.670 -0.5456  1.4550 -1.2950
 4653TIP3   OH235517   6.411   0.635   2.154 -0.2782  0.1533 -0.1755
 4653TIP3    H135518   6.324   0.609   2.124  0.0990 -1.4492  0.0326
 4653TIP3    H235519   6.405   0.631   2.250  0.1924 -0.5699 -0.1714
 4654TIP3   OH235520   4.908   6.526   7.778  0.3497 -0.1638 -0.2588
 4654TIP3    H135521   4.912   6.611   7.736  1.9453 -0.0115  0.1302
 4654TIP3    H235522   4.945   6.465   7.714  2.3654 -0.0019  0.6723
 4655TIP3   OH235523   4.879   3.106   2.160 -0.1290  0.3682 -0.2972
 4655TIP3    H135524   4.853   3.058   2.238  0.6302 -1.6562 -1.2268
 4655TIP3    H235525   4.801   3.104   2.104  0.1170 -0.4105 -0.6187
 4656TIP3   OH235526   5.382   2.012   8.045 -0.2854  0.0399 -0.0566
 4656TIP3    H135527   5.388   1.917   8.038  0.8009  0.0842  0.1305
 4656TIP3    H235528   5.290   2.031   8.027 -0.6193 -1.0795  0.3648
 4657TIP3   OH235529   1.892   3.262   1.324  0.1590  0.1493 -0.2192
 4657TIP3    H135530   1.905   3.213   1.243 -0.6386 -0.5290  0.0471
 4657TIP3    H235531   1.826   3.212   1.372  1.7694 -0.3702  1.5741
 4658TIP3   OH235532   5.481   4.175   7.981  0.3813  0.3569 -0.4593
 4658TIP3    H135533   5.506   4.087   8.009  1.0670  0.9070  0.7260
 4658TIP3    H235534   5.494   4.175   7.887 -2.9820 -1.9041 -1.1154
 4659TIP3   OH235535   6.587   0.444   7.841  0.2064  0.8129 -0.1197
 4659TIP3    H135536   6.494   0.426   7.838  0.1853  0.7486  0.5970
 4659TIP3    H235537   6.607   0.452   7.935  1.4914 -2.1495 -0.0454
 4660TIP3   OH235538   0.722   2.878   7.778  0.1201 -0.2526 -0.3259
 4660TIP3    H135539   0.737   2.967   7.745 -0.4372  0.3674  1.0049
 4660TIP3    H235540   0.796   2.863   7.837 -0.0037 -0.5087 -0.2371
 4661TIP3   OH235541   3.454   5.358   8.842  0.1089 -0.0435 -0.2650
 4661TIP3    H135542   3.450   5.296   8.769  4.2260 -0.1639 -0.6605
 4661TIP3    H235543   3.455   5.302   8.920 -1.7341 -0.0528 -0.2031
 4662TIP3   OH235544   6.279   3.423   0.938  0.4755  0.1906 -0.1008
 4662TIP3    H135545   6.298   3.435   0.845 -1.5330 -1.3582 -0.7817
 4662TIP3    H235546   6.214   3.490   0.959 -0.2528 -0.4442 -0.2626
 4663TIP3   OH235547   0.087   5.189   7.353  0.1766  0.0883  0.3823
 4663TIP3    H135548   0.084   5.203   7.447  0.8913  2.3558  0.1195
 4663TIP3    H235549   0.153   5.121   7.341  2.2495  1.8311  1.3850
 4664TIP3   OH235550   2.812   6.620   7.501  0.0472 -0.4135  0.8522
 4664TIP3    H135551   2.895   6.629   7.453 -0.4237 -1.5611 -0.2179
 4664TIP3    H235552   2.809   6.698   7.557  1.9546 -0.4569  1.0956
 4665TIP3   OH235553   5.212   6.284   0.539  0.1112  0.3806 -0.2281
 4665TIP3    H135554   5.140   6.312   0.481  0.0534  1.7161  0.4420
 4665TIP3    H235555   5.168   6.250   0.617  0.1798 -1.8148 -1.0851
 4666TIP3   OH235556   4.334   4.063   8.844 -0.0896 -0.2569 -0.1073
 4666TIP3    H135557   4.412   4.039   8.794 -0.1004  1.5612 -1.0526
 4666TIP3    H235558   4.365   4.074   8.934  1.1293  2.0427 -0.7451
 4667TIP3   OH235559   5.288   2.739   1.125 -0.0122 -0.2639 -0.4681
 4667TIP3    H135560   5.368   2.769   1.168 -0.6221 -0.1974  0.6619
 4667TIP3    H235561   5.264   2.659   1.172  0.3579 -1.2960 -1.9775
 4668TIP3   OH235562   3.589   3.956   1.287 -0.0559 -0.1236 -0.0260
 4668TIP3    H135563   3.513   3.975   1.343  0.2045  1.1148 -0.0542
 4668TIP3    H235564   3.560   3.979   1.199  0.0812 -0.4659 -0.1629
 4669TIP3   OH235565   5.243   4.653   0.013 -0.3663  0.0015  0.5426
 4669TIP3    H135566   5.295   4.580  -0.022 -0.3756 -0.8924  2.2487
 4669TIP3    H235567   5.156   4.639  -0.024 -0.1961 -0.4468  0.2915
 4670TIP3   OH235568   3.644   2.100   1.218  0.3181  0.1463 -0.6237
 4670TIP3    H135569   3.599   2.172   1.261  0.1946 -0.7493  0.8136
 4670TIP3    H235570   3.715   2.077   1.278  1.1977 -0.0395 -1.7086
 4671TIP3   OH235571   1.652   6.670   0.906  0.2231 -0.2830 -0.3247
 4671TIP3    H135572   1.722   6.734   0.914  0.1389 -0.1994 -0.2587
 4671TIP3    H235573   1.575   6.721   0.879 -0.1352 -0.1779  0.8325
 4672TIP3   OH235574   6.307   4.922   0.424  0.5575 -0.3583  0.3277
 4672TIP3    H135575   6.292   4.990   0.359 -3.1094 -2.1624 -0.9656
 4672TIP3    H235576   6.402   4.923   0.438  1.2213  1.8201 -3.1146
 4673TIP3   OH235577   6.760   0.663   7.207 -0.4290 -0.3085  0.6104
 4673TIP3    H135578   6.690   0.661   7.272 -3.3568 -2.7259 -2.2337
 4673TIP3    H235579   6.792   0.573   7.202  1.5320  0.3477  0.3864
 4674TIP3   OH235580   0.582   4.359   1.421  0.5291 -0.2389 -0.0827
 4674TIP3    H135581   0.522   4.421   1.464  0.5652  0.0975 -0.5158
 4674TIP3    H235582   0.547   4.350   1.332  0.2191 -1.2453  0.1223
 4675TIP3   OH235583   0.349   4.257   0.681  0.2354  0.5963 -0.1405
 4675TIP3    H135584   0.271   4.202   0.679  0.6724 -0.1716  1.8054
 4675TIP3    H235585   0.361   4.285   0.590 -1.0551 -1.0259 -0.8621
 4676TIP3   OH235586   2.471   4.626   6.887  1.1336  0.2392  0.1215
 4676TIP3    H135587   2.394   4.668   6.848 -0.2285 -0.7340  1.5768
 4676TIP3    H235588   2.545   4.675   6.854 -0.1489  1.5282 -0.9883
 4677TIP3   OH235589   6.587   3.185   8.148 -0.0266 -0.3826  0.6918
 4677TIP3    H135590   6.558   3.270   8.115 -0.5003 -0.6575  0.3858
 4677TIP3    H235591   6.682   3.187   8.140 -0.0676 -0.0546  0.2671
 4678TIP3   OH235592   6.327   3.935   1.419  0.2035 -0.6634  0.0891
 4678TIP3    H135593   6.249   3.914   1.471  0.3779  0.2778  0.7419
 4678TIP3    H235594   6.299   3.918   1.328 -0.7799 -0.3153  0.3087
 4679TIP3   OH235595   2.275   2.357   7.087 -0.1539  0.4652 -0.1468
 4679TIP3    H135596   2.235   2.444   7.079 -1.5593 -0.2350 -1.2728
 4679TIP3    H235597   2.307   2.338   6.999 -1.2770 -0.7791 -0.3219
 4680TIP3   OH235598   5.206   4.737   6.945  0.1616  0.8458 -0.3832
 4680TIP3    H135599   5.214   4.650   6.984 -3.5371  0.0667 -1.0317
 4680TIP3    H235600   5.263   4.734   6.869  0.1131 -1.0244 -0.3860
 4681TIP3   OH235601   3.414   3.031   0.309 -0.2398  0.5057 -0.0193
 4681TIP3    H135602   3.328   2.990   0.308  0.1044 -0.2588  0.7027
 4681TIP3    H235603   3.398   3.121   0.336 -0.6511 -0.0647  1.7493
 4682TIP3   OH235604   1.757   5.397   1.703 -0.2652  0.1820  0.4005
 4682TIP3    H135605   1.705   5.321   1.680 -0.9559  0.3565  1.3203
 4682TIP3    H235606   1.692   5.465   1.725  0.3287  0.5133  1.2060
 4683TIP3   OH235607   5.551   1.010   0.765  0.3164 -0.2269 -0.5742
 4683TIP3    H135608   5.491   1.076   0.732  0.6188  0.5690  0.4249
 4683TIP3    H235609   5.582   0.964   0.687  0.1591  0.8642 -1.2955
 4684TIP3   OH235610   6.524   2.721   7.242 -0.4455 -0.0583 -0.2371
 4684TIP3    H135611   6.492   2.644   7.289 -0.6430 -0.0141 -0.2979
 4684TIP3    H235612   6.619   2.713   7.244 -0.4810 -0.9151 -1.2627
 4685TIP3   OH235613   5.568   1.263   7.293 -0.1687 -0.0754 -0.0863
 4685TIP3    H135614   5.498   1.225   7.240 -1.2959  1.8687 -0.1043
 4685TIP3    H235615   5.525   1.286   7.375  0.3546  1.3611 -0.1880
 4686TIP3   OH235616   1.882   2.435   7.610  0.1190 -0.0796  0.7273
 4686TIP3    H135617   1.920   2.357   7.651 -2.1674 -0.6884  1.8248
 4686TIP3    H235618   1.905   2.506   7.669 -0.4330 -0.4524  1.4130
 4687TIP3   OH235619   0.999   2.796   1.779  0.6607 -0.6008  0.1662
 4687TIP3    H135620   1.092   2.809   1.792  0.7921  1.1168 -1.8533
 4687TIP3    H235621   0.957   2.856   1.840  0.9579  0.0268 -0.2349
 4688TIP3   OH235622   4.714   1.141   7.482 -0.1980  0.1186  0.2725
 4688TIP3    H135623   4.798   1.162   7.441 -0.7775 -1.7706 -2.0649
 4688TIP3    H235624   4.684   1.225   7.518  0.5982  1.8664 -2.7876
 4689TIP3   OH235625   0.565   3.038   1.705  0.0236  0.4261  0.0737
 4689TIP3    H135626   0.636   3.103   1.699  0.0248  0.6291  1.7171
 4689TIP3    H235627   0.494   3.084   1.750 -0.8028 -0.0726 -0.6843
 4690TIP3   OH235628   3.611   1.972   6.821  0.3869  0.2980 -0.3480
 4690TIP3    H135629   3.607   1.890   6.771  2.3050  0.5510 -0.9902
 4690TIP3    H235630   3.670   2.028   6.771  0.4401  1.4673  0.9550
 4691TIP3   OH235631   4.740   0.201   0.817  0.2802  0.0554  0.0485
 4691TIP3    H135632   4.785   0.181   0.736 -0.1171 -2.1588  0.3331
 4691TIP3    H235633   4.651   0.168   0.805  0.3966 -0.9388  1.5997
 4692TIP3   OH235634   0.742   3.543   0.604  0.0425  0.0066 -0.5740
 4692TIP3    H135635   0.785   3.500   0.531  0.0521  0.4512 -0.8320
 4692TIP3    H235636   0.761   3.636   0.592  0.5468  0.0287  0.3213
 4693TIP3   OH235637   6.757   1.289   8.178 -0.1462  0.2420 -0.0488
 4693TIP3    H135638   6.696   1.218   8.154  0.2419  0.3983 -1.5847
 4693TIP3    H235639   6.835   1.244   8.210 -0.7622  0.0279  1.1940
 4694TIP3   OH235640   4.517   3.009   1.324  0.0522 -1.3428 -0.7732
 4694TIP3    H135641   4.586   3.058   1.368 -0.5611 -1.9343  0.9190
 4694TIP3    H235642   4.497   3.060   1.246 -0.2938  0.9095  0.7051
 4695TIP3   OH235643   2.618   5.707   8.615 -0.0477 -0.2627 -0.2908
 4695TIP3    H135644   2.542   5.764   8.630  0.2434  0.0913 -0.1168
 4695TIP3    H235645   2.612   5.683   8.523 -0.6742 -0.6938 -0.1479
 4696TIP3   OH235646   0.936   4.661   1.246 -0.6919 -0.0384  0.2389
 4696TIP3    H135647   0.880   4.705   1.181 -2.6154 -1.5847  0.7535
 4696TIP3    H235648   0.934   4.569   1.220  0.5480 -0.3184  1.0719
 4697TIP3   OH235649   3.073   1.457   1.385  0.0966  0.0688  0.3002
 4697TIP3    H135650   3.145   1.520   1.391  0.0530  0.1336  0.1392
 4697TIP3    H235651   3.020   1.489   1.312  0.1501 -0.2345  0.1286
 4698TIP3   OH235652   2.032   3.775   0.793 -0.1965 -0.6528 -0.1537
 4698TIP3    H135653   2.070   3.689   0.776 -1.0953 -1.3923  1.3562
 4698TIP3    H235654   2.083   3.835   0.739  3.4851 -1.4824  2.1021
 4699TIP3   OH235655   5.816   3.397   1.558  0.2855 -0.2720  0.5191
 4699TIP3    H135656   5.747   3.401   1.492 -0.2068 -2.3166  0.8360
 4699TIP3    H235657   5.800   3.473   1.614 -1.5765 -0.5525  0.4372
 4700TIP3   OH235658   2.065   5.680   2.037  0.6438  0.2561  0.2531
 4700TIP3    H135659   2.107   5.766   2.040  0.3816  0.5407 -2.0226
 4700TIP3    H235660   1.995   5.689   1.972  1.1422 -1.8562 -0.6918
 4701TIP3   OH235661   5.628   6.198   1.611 -0.1638  0.1494  0.4009
 4701TIP3    H135662   5.535   6.178   1.626 -0.5101  2.0367  1.1096
 4701TIP3    H235663   5.628   6.245   1.528  0.4133 -1.2996 -0.4498
 4702TIP3   OH235664   5.124   5.882   8.238  1.1169  0.3865  0.0398
 4702TIP3    H135665   5.150   5.958   8.186  0.0519  0.6766 -0.0818
 4702TIP3    H235666   5.116   5.811   8.174  1.9612  0.1847  0.1339
 4703TIP3   OH235667   6.050   0.742   6.924  0.3481 -0.1409  0.4483
 4703TIP3    H135668   6.042   0.819   6.868 -1.9421 -1.4453 -1.1754
 4703TIP3    H235669   6.024   0.772   7.010 -0.0075  1.0046 -0.0370
 4704TIP3   OH235670   2.705   3.996   7.519  0.0333 -0.5321  0.1718
 4704TIP3    H135671   2.776   4.053   7.491  1.1251 -2.4157 -1.1584
 4704TIP3    H235672   2.743   3.942   7.588 -0.5048 -0.7029  0.3442
 4705TIP3   OH235673   5.200   0.999   1.096  0.1534 -0.2706 -0.0345
 4705TIP3    H135674   5.202   0.954   1.012  0.4307 -1.4118  0.5648
 4705TIP3    H235675   5.113   0.978   1.132 -0.2309  0.7676 -0.3121
 4706TIP3   OH235676   4.601   5.305   7.097 -0.0986  0.0352  0.2022
 4706TIP3    H135677   4.638   5.391   7.079  1.5417 -0.7101 -0.2229
 4706TIP3    H235678   4.642   5.248   7.032 -2.2411 -0.8356 -0.4596
 4707TIP3   OH235679   1.630   5.590   7.175  0.0212  0.3065 -0.2983
 4707TIP3    H135680   1.689   5.595   7.100  0.3309 -0.4269 -0.1062
 4707TIP3    H235681   1.660   5.660   7.233 -1.3336  2.0930 -1.6188
 4708TIP3   OH235682   4.073   1.444   7.415 -0.1617  0.1106 -0.0294
 4708TIP3    H135683   3.993   1.460   7.465 -1.1721  0.1631 -1.5629
 4708TIP3    H235684   4.126   1.522   7.429 -1.0575  0.7731 -0.1783
 4709TIP3   OH235685   2.482   1.357   8.435 -0.1911  0.1810 -0.2199
 4709TIP3    H135686   2.429   1.350   8.514  0.9367  0.2601  0.5721
 4709TIP3    H235687   2.502   1.450   8.428  0.7785  0.0197  0.1557
 4710TIP3   OH235688   1.538   2.565   8.862 -0.2261  0.6057  0.0125
 4710TIP3    H135689   1.560   2.549   8.770 -0.5146 -0.0621  0.0535
 4710TIP3    H235690   1.502   2.482   8.893 -1.2908  1.1904  0.3862
 4711TIP3   OH235691   5.519   1.837   2.266 -0.0864  0.2469  0.2719
 4711TIP3    H135692   5.449   1.845   2.331 -0.8067  0.2782 -0.5009
 4711TIP3    H235693   5.575   1.914   2.282 -0.4173  0.4146  0.6574
 4712TIP3   OH235694   0.113   0.322   0.133 -0.0818  0.1495  0.0757
 4712TIP3    H135695   0.077   0.408   0.110  0.5926  0.3595 -0.2084
 4712TIP3    H235696   0.163   0.296   0.056 -0.4395 -0.5907  0.0884
 4713TIP3   OH235697   1.142   2.950   8.815  0.1849 -0.1456 -0.0848
 4713TIP3    H135698   1.152   2.857   8.833 -2.3246 -0.3623  0.5391
 4713TIP3    H235699   1.187   2.964   8.732  0.8365 -1.8353 -0.0426
 4714TIP3   OH235700   2.795   4.850   1.597 -0.1440  0.0229  0.3083
 4714TIP3    H135701   2.860   4.892   1.653  1.6671 -1.6383 -0.4321
 4714TIP3    H235702   2.823   4.871   1.508 -1.8539  0.9691 -0.0693
 4715TIP3   OH235703   0.668   1.481   1.649  0.4858  0.1764  0.6419
 4715TIP3    H135704   0.733   1.422   1.612 -0.4183 -1.0358  0.9081
 4715TIP3    H235705   0.584   1.443   1.622 -0.1583  2.7109 -1.2701
 4716TIP3   OH235706   6.266   2.020   0.231  0.1313 -0.7625 -0.3814
 4716TIP3    H135707   6.316   2.086   0.279 -0.9608  0.1759 -0.4688
 4716TIP3    H235708   6.242   1.955   0.296 -0.1588 -0.2164  0.0696
 4717TIP3   OH235709   2.568   4.703   6.551 -0.0560 -0.1705 -0.2380
 4717TIP3    H135710   2.650   4.654   6.563  0.6648  0.8271 -0.9497
 4717TIP3    H235711   2.562   4.758   6.629  0.4945  0.5014 -0.6598
 4718TIP3   OH235712   1.954   3.105   1.112  0.4763 -0.0171  0.4447
 4718TIP3    H135713   1.981   3.026   1.158  1.2150 -0.1973 -0.2721
 4718TIP3    H235714   2.029   3.129   1.057 -0.1508  0.5233 -0.2170
 4719TIP3   OH235715   2.006   1.716   0.268  0.3721 -0.1972  0.2718
 4719TIP3    H135716   2.090   1.712   0.223  1.1632 -0.5270  1.7066
 4719TIP3    H235717   1.941   1.696   0.200  1.5018 -0.6626 -0.7083
 4720TIP3   OH235718   1.620   3.862   0.518  0.0142 -0.3890  0.1676
 4720TIP3    H135719   1.695   3.803   0.520 -1.1910 -1.9837  0.4944
 4720TIP3    H235720   1.570   3.835   0.441 -0.0676  0.9073 -0.2712
 4721TIP3   OH235721   2.678   2.764   0.733 -0.1189 -0.1451 -0.0508
 4721TIP3    H135722   2.714   2.760   0.821 -1.5312  2.9780  0.8020
 4721TIP3    H235723   2.601   2.708   0.735 -1.4368  1.6247  1.4593
 4722TIP3   OH235724   4.516   4.883   7.509  0.3156 -0.5769 -0.4994
 4722TIP3    H135725   4.471   4.825   7.447  0.5400 -0.4481 -0.7886
 4722TIP3    H235726   4.475   4.865   7.593  2.1653 -3.1918 -0.0013
 4723TIP3   OH235727   4.236   6.231   1.998 -0.0693 -0.5492 -0.6714
 4723TIP3    H135728   4.303   6.257   1.935  0.1445 -0.5199 -0.4351
 4723TIP3    H235729   4.242   6.135   2.001  0.3723 -0.5153 -0.2133
 4724TIP3   OH235730   2.808   3.549   6.416 -0.1883 -0.4175  0.2873
 4724TIP3    H135731   2.775   3.631   6.380  1.1306  0.4264  0.9422
 4724TIP3    H235732   2.903   3.554   6.406 -0.1396 -2.5020 -0.9620
 4725TIP3   OH235733   2.848   4.858   7.722 -0.6917  0.0829 -0.0841
 4725TIP3    H135734   2.851   4.914   7.799  0.7648  0.8358 -0.6450
 4725TIP3    H235735   2.833   4.770   7.757  1.1183  0.2163  1.2012
 4726TIP3   OH235736   3.094   2.989   7.162  0.2313 -0.1869  0.7678
 4726TIP3    H135737   3.188   3.002   7.147  0.2470 -0.3549  0.7180
 4726TIP3    H235738   3.083   2.997   7.256  0.1327  0.8838  0.6793
 4727TIP3   OH235739   1.785   1.686   1.936  0.0360 -0.4065 -0.0723
 4727TIP3    H135740   1.746   1.766   1.901 -1.6716 -0.5839  1.3096
 4727TIP3    H235741   1.772   1.621   1.866 -1.5813 -0.2812  0.0765
 4728TIP3   OH235742   0.591   3.181   8.141  0.1192  0.1850  0.2394
 4728TIP3    H135743   0.635   3.164   8.224  0.4492  1.7967  0.4399
 4728TIP3    H235744   0.524   3.246   8.162 -0.7660 -0.4683 -0.5019
 4729TIP3   OH235745   1.315   5.638   1.899  0.1543  0.3711  0.3785
 4729TIP3    H135746   1.230   5.634   1.854  0.5587 -2.1321 -0.3310
 4729TIP3    H235747   1.292   5.637   1.992 -0.6284 -0.2069  0.1930
 4730TIP3   OH235748   6.147   0.257   7.482 -0.3355  0.4635  1.0321
 4730TIP3    H135749   6.152   0.352   7.495 -0.2402  0.1037  4.5967
 4730TIP3    H235750   6.148   0.246   7.387  1.3015  3.9132  0.4942
 4731TIP3   OH235751   2.235   4.750   7.047  0.2754 -0.4396  0.4524
 4731TIP3    H135752   2.288   4.671   7.037  1.1723  0.2637 -0.5364
 4731TIP3    H235753   2.160   4.736   6.989  1.0492 -0.0751 -0.6676
 4732TIP3   OH235754   0.863   5.904   2.186  0.3089  0.6018 -0.0977
 4732TIP3    H135755   0.768   5.893   2.183  0.0929  2.1463 -0.0615
 4732TIP3    H235756   0.888   5.885   2.276  0.1347 -0.3932 -0.2498
 4733TIP3   OH235757   4.535   5.090   8.872 -0.4221 -0.0902  1.0966
 4733TIP3    H135758   4.531   5.002   8.909  1.7411 -0.1768  1.2382
 4733TIP3    H235759   4.610   5.087   8.812  0.5993  2.0108  2.1773
 4734TIP3   OH235760   4.948   5.092   7.351 -0.6410  0.7472 -0.3560
 4734TIP3    H135761   5.040   5.089   7.325 -0.2051 -0.4215  1.1695
 4734TIP3    H235762   4.900   5.077   7.270  0.6068 -1.6601 -0.7284
 4735TIP3   OH235763   5.235   3.455   7.183  0.2293 -0.1084  0.2568
 4735TIP3    H135764   5.276   3.452   7.097  0.7214  2.7323  0.2810
 4735TIP3    H235765   5.279   3.387   7.233  2.0125  0.1184 -0.9132
 4736TIP3   OH235766   1.089   4.382   1.684  0.7018  0.2086 -0.3926
 4736TIP3    H135767   1.037   4.435   1.624  1.4585  0.9174 -0.4398
 4736TIP3    H235768   1.099   4.437   1.762  0.0461 -0.5536  0.2568
 4737TIP3   OH235769   1.332   0.139   0.240  0.2859 -0.0435 -0.0827
 4737TIP3    H135770   1.336   0.226   0.199  2.9416 -0.8776 -1.9064
 4737TIP3    H235771   1.403   0.139   0.303  0.4015 -0.9091 -0.1948
 4738TIP3   OH235772   4.293   4.044   6.887  0.5888  0.0556  0.0911
 4738TIP3    H135773   4.268   4.110   6.822  2.7885  0.7011 -0.2052
 4738TIP3    H235774   4.308   3.964   6.835 -0.4968 -0.2462  0.2275
 4739TIP3   OH235775   5.421   0.070   0.621  0.2526  0.3572 -0.1881
 4739TIP3    H135776   5.424   0.114   0.706  1.1429 -2.4763  1.4059
 4739TIP3    H235777   5.435   0.140   0.557  3.0782  2.2213  2.1714
 4740TIP3   OH235778   3.988   2.747   1.129 -0.2533 -0.0006  0.1779
 4740TIP3    H135779   3.983   2.758   1.034 -2.3015  1.3391  0.3778
 4740TIP3    H235780   4.004   2.653   1.141 -0.5956 -0.3107 -1.4707
 4741TIP3   OH235781   0.805   3.221   7.811 -0.8640  0.2814  0.4366
 4741TIP3    H135782   0.719   3.200   7.847 -1.0188  0.6319  0.2708
 4741TIP3    H235783   0.788   3.250   7.722 -0.4714 -0.6334  0.0527
 4742TIP3   OH235784   0.883   4.126   2.709 -0.0583  0.2546  0.3165
 4742TIP3    H135785   0.927   4.196   2.659 -0.9806  0.4277 -0.2873
 4742TIP3    H235786   0.953   4.066   2.733  0.6397  0.9861  0.1599
 4743TIP3   OH235787   3.368   2.000   1.203 -0.0880 -0.2985 -0.3526
 4743TIP3    H135788   3.462   1.989   1.191 -0.4006 -3.0393 -0.9377
 4743TIP3    H235789   3.347   2.081   1.155  1.7914 -0.1979 -1.0919
 4744TIP3   OH235790   1.116   5.077   0.260  0.0453  0.0951 -0.3261
 4744TIP3    H135791   1.088   5.099   0.171 -2.4052  1.3901  0.6663
 4744TIP3    H235792   1.069   5.139   0.315  2.2416 -0.0449  1.8476
 4745TIP3   OH235793   0.592   6.190   1.736  0.2799 -0.0192  0.2588
 4745TIP3    H135794   0.590   6.285   1.743 -0.1843 -0.1025  1.5526
 4745TIP3    H235795   0.604   6.159   1.826 -0.7889 -1.2018  0.0296
 4746TIP3   OH235796   3.164   3.463   6.526 -1.3954  0.1739  0.1638
 4746TIP3    H135797   3.129   3.494   6.609  2.3208  1.8405  1.3225
 4746TIP3    H235798   3.193   3.374   6.543 -2.8012 -0.3655 -0.1286
 4747TIP3   OH235799   1.228   2.430   7.485 -0.0789 -0.4767  0.0648
 4747TIP3    H135800   1.133   2.435   7.483 -0.1347  4.9356 -2.9486
 4747TIP3    H235801   1.252   2.460   7.573 -1.1979 -0.3513  0.3389
 4748TIP3   OH235802   5.539   4.410   8.123  0.1254 -0.1274 -0.0789
 4748TIP3    H135803   5.533   4.473   8.051 -2.5297 -1.1679 -0.9017
 4748TIP3    H235804   5.519   4.326   8.082  0.3654 -1.0160  1.5677
 4749TIP3   OH235805   1.148   2.455   7.108 -0.0663 -0.4212 -0.8943
 4749TIP3    H135806   1.153   2.534   7.054  1.3265 -0.9163 -1.5262
 4749TIP3    H235807   1.055   2.431   7.105 -0.7667  1.7718  0.2337
 4750TIP3   OH235808   0.621   1.956   8.591 -0.0204  0.2323 -0.8618
 4750TIP3    H135809   0.584   1.944   8.679  3.2908 -0.0654  0.6519
 4750TIP3    H235810   0.615   2.050   8.574  0.7314  0.5502  0.4625
 4751TIP3   OH235811   1.674   1.361   8.739 -0.1427  0.0428  0.3517
 4751TIP3    H135812   1.769   1.365   8.733 -0.2090 -0.7267 -2.0782
 4751TIP3    H235813   1.656   1.276   8.780  0.1766  0.7057  1.9690
 4752TIP3   OH235814   2.294   0.455   7.463 -0.4681  0.0023  0.1492
 4752TIP3    H135815   2.252   0.402   7.531 -1.3356 -1.1519 -1.2203
 4752TIP3    H235816   2.224   0.513   7.432 -0.0298  0.6417  0.3247
 4753TIP3   OH235817   2.606   1.782   0.176 -0.0685 -0.2602  0.5524
 4753TIP3    H135818   2.532   1.739   0.217 -0.9391  0.1893 -0.4873
 4753TIP3    H235819   2.673   1.785   0.244 -1.4894  0.5991  1.9830
 4754TIP3   OH235820   2.780   4.827   1.009 -0.2388 -0.2277  0.5158
 4754TIP3    H135821   2.707   4.860   0.957  0.1167 -0.2798 -0.0272
 4754TIP3    H235822   2.805   4.745   0.966  1.1495  0.5662 -0.2858
 4755TIP3   OH235823   2.956   6.372   1.292 -0.3264 -0.3616  0.1812
 4755TIP3    H135824   2.954   6.353   1.198 -0.8296  0.5954 -0.0184
 4755TIP3    H235825   3.005   6.454   1.299  0.1240 -0.6810  0.8060
 4756TIP3   OH235826   4.848   1.016   8.860 -0.2060  0.1180 -0.3365
 4756TIP3    H135827   4.835   1.109   8.880  1.5223  0.1655  0.7829
 4756TIP3    H235828   4.788   0.971   8.920 -1.1155  0.4755 -0.9441
 4757TIP3   OH235829   5.716   1.586   8.779  0.2410  0.2104 -0.0675
 4757TIP3    H135830   5.682   1.509   8.734  0.6192 -2.2808  3.4860
 4757TIP3    H235831   5.794   1.610   8.730 -0.9656 -0.3622 -2.4115
 4758TIP3   OH235832   1.876   2.805   1.309 -0.2946  0.3071  0.5128
 4758TIP3    H135833   1.970   2.813   1.294 -0.3363 -0.8386 -0.5396
 4758TIP3    H235834   1.869   2.773   1.399  0.2302  1.8800  1.1487
 4759TIP3   OH235835   5.921   5.754   1.597  0.0726 -0.0130  0.2810
 4759TIP3    H135836   5.895   5.788   1.511  0.2172 -0.5811  0.0092
 4759TIP3    H235837   5.936   5.832   1.650  2.5012  0.4436 -0.9338
 4760TIP3   OH235838   5.912   5.820   0.873 -0.3383 -0.1388  0.2185
 4760TIP3    H135839   5.999   5.848   0.844 -0.5867 -0.4831 -0.8948
 4760TIP3    H235840   5.853   5.887   0.839 -0.6449 -0.6152 -0.2002
 4761TIP3   OH235841   5.351   2.112   0.031 -0.1480 -0.0507  0.8541
 4761TIP3    H135842   5.397   2.194   0.048 -1.9813  1.6300 -1.5566
 4761TIP3    H235843   5.259   2.137   0.025 -0.5578 -1.7791 -2.3049
 4762TIP3   OH235844   1.464   3.621   1.459 -0.4537 -0.0468 -0.3850
 4762TIP3    H135845   1.383   3.642   1.414  0.9398  3.3484 -1.6467
 4762TIP3    H235846   1.461   3.672   1.540 -0.5699 -1.8296  0.7828
 4763TIP3   OH235847   5.212   5.525   8.400  0.1193 -0.1567 -0.3816
 4763TIP3    H135848   5.134   5.556   8.446 -0.2227 -0.6372 -0.6259
 4763TIP3    H235849   5.277   5.595   8.412  0.1358 -0.3941  1.0602
 4764TIP3   OH235850   1.332   2.568   6.871  0.0097  0.2283 -0.1618
 4764TIP3    H135851   1.258   2.620   6.840 -0.5016  0.6476  1.6959
 4764TIP3    H235852   1.325   2.486   6.821 -2.6774 -0.3917  1.0280
 4765TIP3   OH235853   5.367   1.993   1.667 -0.5907  0.0242  0.6021
 4765TIP3    H135854   5.347   1.966   1.577  0.3721  0.7755  0.1460
 4765TIP3    H235855   5.434   1.931   1.696  0.2883  0.7689  0.2056
 4766TIP3   OH235856   0.670   5.309   7.968  0.1063 -0.8163 -0.1787
 4766TIP3    H135857   0.734   5.249   8.006  0.8336 -1.3942 -2.1998
 4766TIP3    H235858   0.593   5.255   7.951  0.0073 -0.7006 -0.1040
 4767TIP3   OH235859   0.155   2.795   0.229 -0.0521 -0.5695  0.2352
 4767TIP3    H135860   0.208   2.771   0.154 -0.4450 -1.2681  0.1766
 4767TIP3    H235861   0.199   2.754   0.304 -0.1598 -0.6288  0.2668
 4768TIP3   OH235862   2.782   0.551   1.552  0.1316  0.1197 -0.1394
 4768TIP3    H135863   2.807   0.612   1.621  0.4987 -0.3792  0.1744
 4768TIP3    H235864   2.771   0.606   1.474  0.7408  0.5469  0.0693
 4769TIP3   OH235865   2.470   2.582   7.040  0.4320  0.0512  0.1149
 4769TIP3    H135866   2.474   2.514   7.109  0.8937  0.5164  0.5601
 4769TIP3    H235867   2.460   2.533   6.959 -0.6082 -0.4937  0.5531
 4770TIP3   OH235868   4.726   5.852   2.003 -0.4694 -0.3148  0.6161
 4770TIP3    H135869   4.727   5.757   2.000 -0.3295 -0.3812  2.1767
 4770TIP3    H235870   4.809   5.876   2.044 -0.1735  0.5295 -0.4231
 4771TIP3   OH235871   0.331   5.126   1.793  0.3221 -1.0717  0.7385
 4771TIP3    H135872   0.398   5.132   1.862 -0.6391 -0.8841  1.6906
 4771TIP3    H235873   0.248   5.121   1.841 -0.5171  0.7730 -0.4084
 4772TIP3   OH235874   4.521   2.811   8.563 -0.3531 -0.3427  0.3069
 4772TIP3    H135875   4.503   2.895   8.520  0.9749 -0.9243 -1.4895
 4772TIP3    H235876   4.435   2.777   8.585 -1.2150 -0.3472 -2.6496
 4773TIP3   OH235877   4.071   0.203   7.419  0.0601  0.1273 -0.3915
 4773TIP3    H135878   4.099   0.267   7.353  1.3297 -0.4058 -0.3870
 4773TIP3    H235879   4.141   0.139   7.421 -0.9248 -0.9641  0.0317
 4774TIP3   OH235880   6.287   1.964   0.816 -0.1720 -0.2330 -0.0955
 4774TIP3    H135881   6.258   1.881   0.779 -0.5220  0.2786 -1.0020
 4774TIP3    H235882   6.206   2.010   0.838  0.0143 -0.0366  0.1883
 4775TIP3   OH235883   3.654   4.685   7.905 -0.5227  0.5531 -0.2441
 4775TIP3    H135884   3.590   4.617   7.927  0.3863 -0.1986  0.1517
 4775TIP3    H235885   3.668   4.733   7.986  0.1738  0.0588 -0.0667
 4776TIP3   OH235886   6.083   3.003   7.888  0.1587  0.1905  0.1179
 4776TIP3    H135887   6.151   3.045   7.939  1.6693  0.8744 -2.2638
 4776TIP3    H235888   6.126   2.928   7.848 -0.9266 -0.2809 -0.2109
 4777TIP3   OH235889   3.266   4.271   7.438 -0.4848  0.2497 -0.5125
 4777TIP3    H135890   3.254   4.365   7.421 -1.0497  0.0331 -1.4125
 4777TIP3    H235891   3.299   4.237   7.355 -0.8565 -0.4466 -0.3739
 4778TIP3   OH235892   2.530   2.981   1.125 -0.3700  0.1810 -1.0507
 4778TIP3    H135893   2.498   2.906   1.074 -0.6674 -0.3259 -0.1474
 4778TIP3    H235894   2.576   3.035   1.062  1.8307 -1.8842 -1.3459
 4779TIP3   OH235895   4.639   1.090   0.975 -0.0748 -0.1872 -0.5743
 4779TIP3    H135896   4.640   1.043   1.059 -0.0775 -0.0772 -0.5136
 4779TIP3    H235897   4.659   1.180   0.997  0.9804 -0.3464 -0.8137
 4780TIP3   OH235898   4.139   3.311   8.746  0.3036  0.5537 -0.1090
 4780TIP3    H135899   4.055   3.270   8.728  0.5684  0.8768 -2.4291
 4780TIP3    H235900   4.117   3.396   8.784 -0.3435 -0.0663  0.9370
 4781TIP3   OH235901   6.541   5.840   8.531  0.2121  0.7059 -0.3513
 4781TIP3    H135902   6.543   5.747   8.512 -1.0228 -0.1205  2.8859
 4781TIP3    H235903   6.452   5.868   8.506  0.6511  1.1044 -1.5213
 4782TIP3   OH235904   3.398   4.223   0.218  0.6481 -0.3337 -0.2735
 4782TIP3    H135905   3.446   4.302   0.241  1.4004 -0.6087 -0.8469
 4782TIP3    H235906   3.428   4.202   0.130 -0.6439 -0.4367 -0.7012
 4783TIP3   OH235907   0.315   3.134   0.689  0.0311 -0.1201 -0.2470
 4783TIP3    H135908   0.328   3.184   0.769 -0.4367 -1.0896  0.4553
 4783TIP3    H235909   0.265   3.057   0.716 -1.4660  0.2741 -1.7337
 4784TIP3   OH235910   1.978   0.243   7.371  0.2588 -0.3194  0.7989
 4784TIP3    H135911   2.048   0.216   7.311 -0.1089  0.3823  0.0389
 4784TIP3    H235912   1.898   0.208   7.332  0.0132  0.1683  0.8591
 4785TIP3   OH235913   3.258   2.369   1.002 -0.9753  0.0794  0.3424
 4785TIP3    H135914   3.243   2.321   0.921 -0.5619 -1.5303  1.1584
 4785TIP3    H235915   3.172   2.404   1.026 -0.8859  1.5530 -1.3290
 4786TIP3   OH235916   1.801   0.374   8.024  0.0273  0.5221 -0.4659
 4786TIP3    H135917   1.801   0.339   8.113 -0.2774  0.8289 -0.3406
 4786TIP3    H235918   1.764   0.304   7.970 -0.3280  0.5446 -0.2591
 4787TIP3   OH235919   5.620   4.527   0.213  0.2993  0.3852  0.7022
 4787TIP3    H135920   5.580   4.601   0.166 -0.9735 -1.3534 -1.1497
 4787TIP3    H235921   5.712   4.528   0.186 -0.3920 -0.6027 -2.1250
 4788TIP3   OH235922   2.152   2.717   8.629  0.3656  0.8221 -0.2872
 4788TIP3    H135923   2.094   2.646   8.601  1.3590  0.9286 -2.9087
 4788TIP3    H235924   2.192   2.684   8.710 -0.2865 -0.9763 -0.6413
 4789TIP3   OH235925   4.388   4.391   8.550  0.0614 -0.1356  0.4464
 4789TIP3    H135926   4.317   4.449   8.524  0.3095 -0.3100 -0.6894
 4789TIP3    H235927   4.421   4.355   8.467  1.0807 -0.5064  0.9917
 4790TIP3   OH235928   2.818   3.278   7.819  0.3439  0.1196  0.0263
 4790TIP3    H135929   2.911   3.255   7.824  1.2031  2.4860 -2.5801
 4790TIP3    H235930   2.801   3.290   7.726 -2.8592 -0.9760  0.3374
 4791TIP3   OH235931   0.579   2.931   0.866 -0.0108 -0.3418  0.2283
 4791TIP3    H135932   0.561   2.895   0.953 -0.6337 -0.0845  0.2073
 4791TIP3    H235933   0.509   2.994   0.851  0.1889 -0.2637 -0.3931
 4792TIP3   OH235934   1.005   4.817   1.976  0.3839 -0.2469 -0.7666
 4792TIP3    H135935   1.082   4.848   2.022 -0.7654  0.5968  0.6473
 4792TIP3    H235936   1.032   4.812   1.884  1.5375  1.9320 -0.5973
 4793TIP3   OH235937   1.272   0.907   1.326  0.4515  0.4091  0.8302
 4793TIP3    H135938   1.311   0.961   1.258 -1.6977  1.1770  0.1311
 4793TIP3    H235939   1.213   0.966   1.373 -0.6263 -0.8865  1.1682
 4794TIP3   OH235940   6.166   3.177   0.792 -0.2821 -0.4125  0.4468
 4794TIP3    H135941   6.186   3.235   0.866 -1.4076 -1.1667  1.3759
 4794TIP3    H235942   6.107   3.228   0.737 -1.7195 -0.8253  1.5476
 4795TIP3   OH235943   6.118   5.114   2.347  0.8021  0.8162 -0.3438
 4795TIP3    H135944   6.044   5.086   2.294  0.7754  0.1112  0.0578
 4795TIP3    H235945   6.174   5.037   2.353  1.8285  1.4806 -1.0704
 4796TIP3   OH235946   6.444   3.268   1.691 -0.3369  0.1540  0.3601
 4796TIP3    H135947   6.443   3.364   1.693 -0.6614  0.1496  0.5347
 4796TIP3    H235948   6.522   3.244   1.741 -0.2551  0.3288  0.3160
 4797TIP3   OH235949   0.380   5.919   8.087  0.0690  0.8032 -0.4307
 4797TIP3    H135950   0.360   5.827   8.104  0.9165  0.6337 -0.3346
 4797TIP3    H235951   0.311   5.967   8.133  0.8517  0.2843  1.3753
 4798TIP3   OH235952   3.629   0.650   7.654 -0.2507 -0.3680  0.0408
 4798TIP3    H135953   3.674   0.722   7.609 -0.0463 -0.1288  0.6277
 4798TIP3    H235954   3.587   0.600   7.583  2.6381 -1.8367 -0.7833
 4799TIP3   OH235955   3.427   3.573   8.020  0.3929  0.1154  0.0554
 4799TIP3    H135956   3.506   3.602   8.064  1.6228 -0.1339 -1.8486
 4799TIP3    H235957   3.413   3.484   8.050 -0.7034  0.9861  2.3494
 4800TIP3   OH235958   4.900   0.408   6.502 -0.5328  0.0560  0.5811
 4800TIP3    H135959   4.828   0.462   6.469  0.4958  2.3086  1.7912
 4800TIP3    H235960   4.930   0.454   6.581  2.1335 -0.8667  0.2109
 4801TIP3   OH235961   6.688   2.777   1.711 -0.1297  0.0456 -0.2043
 4801TIP3    H135962   6.723   2.855   1.755  0.9314 -1.2527  1.3821
 4801TIP3    H235963   6.762   2.743   1.660 -0.7245  0.3291 -1.2691
 4802TIP3   OH235964   5.627   5.531   8.488 -0.9838  0.2694 -0.1127
 4802TIP3    H135965   5.630   5.626   8.490 -2.5613  0.3444  0.9837
 4802TIP3    H235966   5.644   5.504   8.579  2.7351 -0.7320 -0.9344
 4803TIP3   OH235967   1.099   4.968   8.830  0.8145 -0.5202 -0.0417
 4803TIP3    H135968   1.144   5.037   8.781 -0.1744  0.9392  1.0323
 4803TIP3    H235969   1.006   4.989   8.821  0.4705 -1.9736 -0.0514
 4804TIP3   OH235970   5.668   3.665   6.870  0.3113 -0.4414  0.3512
 4804TIP3    H135971   5.577   3.654   6.842  0.5385 -0.9040 -0.2309
 4804TIP3    H235972   5.663   3.718   6.949 -0.4194  0.1672 -0.0857
 4805TIP3   OH235973   3.581   6.075   0.180  0.2707 -0.1237  0.4473
 4805TIP3    H135974   3.634   6.069   0.101  0.1439 -0.7266  0.3999
 4805TIP3    H235975   3.582   6.168   0.203  0.8953 -0.0493  0.1416
 4806TIP3   OH235976   4.668   2.400   8.052 -0.6842 -0.3788 -0.1267
 4806TIP3    H135977   4.643   2.343   8.125 -0.9926  0.6653  0.5981
 4806TIP3    H235978   4.662   2.489   8.087  0.8747  0.0758 -0.8883
 4807TIP3   OH235979   4.332   5.547   1.856 -0.0617  0.0249 -0.0057
 4807TIP3    H135980   4.276   5.470   1.858 -1.8224  1.1695 -1.4600
 4807TIP3    H235981   4.271   5.621   1.857  1.5563  1.4293  1.4909
 4808TIP3   OH235982   2.429   2.478   1.233  0.2380 -0.2525  0.3553
 4808TIP3    H135983   2.339   2.458   1.206  0.8921 -2.9763 -0.0598
 4808TIP3    H235984   2.437   2.573   1.219 -1.7510 -0.3213 -2.0121
 4809TIP3   OH235985   5.762   5.366   8.323  0.3469  0.3270  0.2695
 4809TIP3    H135986   5.821   5.439   8.307  0.2209  0.6941  1.3709
 4809TIP3    H235987   5.692   5.403   8.377  0.4670 -0.6634  1.1487
 4810TIP3   OH235988   5.983   2.037   1.424 -0.2546  0.5571  0.0798
 4810TIP3    H135989   6.003   2.109   1.484 -0.9877  0.3404  0.6007
 4810TIP3    H235990   5.970   2.079   1.339  2.0721  0.7431 -0.2539
 4811TIP3   OH235991   5.541   0.176   1.282 -0.1946 -0.3214 -0.0997
 4811TIP3    H135992   5.504   0.256   1.246  0.5252  1.1088  2.0908
 4811TIP3    H235993   5.471   0.140   1.337 -0.7131 -1.5501 -1.5208
 4812TIP3   OH235994   5.967   2.966   1.771  0.6290 -0.1326 -0.1385
 4812TIP3    H135995   5.906   3.039   1.777  1.8891  0.8595  1.2363
 4812TIP3    H235996   6.052   3.006   1.754  1.2037 -1.3558 -0.2805
 4813TIP3   OH235997   0.149   2.841   1.022  0.6185 -0.2401  0.8670
 4813TIP3    H135998   0.086   2.795   1.076 -0.4268 -0.0612 -0.1584
 4813TIP3    H235999   0.096   2.896   0.964  1.5602 -1.4513 -1.3058
 4814TIP3   OH236000   5.717   0.495   1.901 -0.1725  0.1196  0.3007
 4814TIP3    H136001   5.693   0.419   1.847  0.8242  0.3328 -0.4840
 4814TIP3    H236002   5.801   0.470   1.940 -0.4590  0.3212  1.0569
 4815TIP3   OH236003   4.566   2.524   1.708 -0.7836 -0.1084  0.0742
 4815TIP3    H136004   4.486   2.575   1.719 -1.0224 -0.9564  3.2545
 4815TIP3    H236005   4.586   2.530   1.615 -3.2845  1.9812 -0.4338
 4816TIP3   OH236006   5.738   2.545   2.079  0.0468  0.2388 -0.4013
 4816TIP3    H136007   5.772   2.547   2.168  1.8771  0.5197 -1.0699
 4816TIP3    H236008   5.688   2.626   2.070 -1.0878 -0.3101  0.6808
 4817TIP3   OH236009   1.175   2.438   1.418 -0.3554  0.5172 -0.1985
 4817TIP3    H136010   1.186   2.456   1.325 -2.2932  1.6830 -0.2476
 4817TIP3    H236011   1.105   2.497   1.446 -1.9102 -1.8874  1.3326
 4818TIP3   OH236012   4.876   1.034   1.780 -0.0631 -0.2900  0.4872
 4818TIP3    H136013   4.952   0.991   1.820  0.4003 -0.9697 -1.0665
 4818TIP3    H236014   4.913   1.108   1.732 -0.4011 -0.4531 -0.0351
 4819TIP3   OH236015   4.690   3.104   8.697 -0.0557 -0.2084 -0.0061
 4819TIP3    H136016   4.596   3.122   8.708  0.0069 -0.8322  1.7284
 4819TIP3    H236017   4.708   3.032   8.756  1.3959 -0.5773 -0.8538
 4820TIP3   OH236018   0.589   3.093   7.312 -0.0219 -0.1062 -0.0028
 4820TIP3    H136019   0.636   3.055   7.238  0.0588 -0.2762  0.1349
 4820TIP3    H236020   0.582   3.186   7.290 -1.3462 -0.3940 -0.9571
 4821TIP3   OH236021   5.927   1.477   0.069 -0.1084  0.0613  0.0940
 4821TIP3    H136022   6.003   1.504   0.018  0.3551 -2.3740 -0.6531
 4821TIP3    H236023   5.852   1.502   0.014  0.2096  0.8427  0.0000
 4822TIP3   OH236024   1.973   6.713   6.371  1.3926  0.2833 -0.1618
 4822TIP3    H136025   1.940   6.632   6.333 -2.8117  1.4511  0.4246
 4822TIP3    H236026   2.004   6.689   6.459 -1.0949 -0.5981  0.5485
 4823TIP3   OH236027   2.360   5.091   7.508 -0.5807 -0.0132  1.2152
 4823TIP3    H136028   2.329   5.030   7.441  2.5718 -0.3330 -0.1004
 4823TIP3    H236029   2.345   5.177   7.470  0.2952 -0.1711  0.4651
 4824TIP3   OH236030   2.235   1.721   7.726  0.1490  0.5288 -0.1690
 4824TIP3    H136031   2.171   1.740   7.794 -1.1919  1.4713 -1.6189
 4824TIP3    H236032   2.231   1.626   7.714 -0.6240  0.5161  0.1273
 4825TIP3   OH236033   4.786   4.463   1.028  0.2263  0.2812  0.6047
 4825TIP3    H136034   4.828   4.527   1.086  1.6338 -0.9012  0.9787
 4825TIP3    H236035   4.734   4.515   0.968  1.2673  1.7742  0.9332
 4826TIP3   OH236036   6.579   0.216   1.384 -0.2680  0.3199 -0.0725
 4826TIP3    H136037   6.601   0.126   1.361 -0.8133  0.2776 -0.4525
 4826TIP3    H236038   6.632   0.235   1.461 -2.8561 -1.6240  2.3882
 4827TIP3   OH236039   0.671   3.711   1.301  0.5933  0.5023  0.0997
 4827TIP3    H136040   0.611   3.637   1.311 -0.7609  1.4614 -0.6086
 4827TIP3    H236041   0.726   3.708   1.379  0.6533 -1.3135  0.0305
 4828TIP3   OH236042   6.171   6.593   8.240 -0.0176  0.0169  0.2072
 4828TIP3    H136043   6.181   6.672   8.187 -1.2359  0.1196  0.1050
 4828TIP3    H236044   6.149   6.524   8.177 -2.2162  0.2910  0.5973
 4829TIP3   OH236045   3.637   1.369   1.855 -0.6889 -0.4748  0.4646
 4829TIP3    H136046   3.668   1.459   1.867 -0.4913 -0.4602 -0.1314
 4829TIP3    H236047   3.605   1.344   1.942  4.2930 -1.7471  2.3103
 4830TIP3   OH236048   1.935   4.109   8.270 -0.2818 -0.1149 -0.0227
 4830TIP3    H136049   1.954   4.126   8.363 -0.0588  1.0068 -0.2537
 4830TIP3    H236050   1.865   4.172   8.249 -0.9145 -0.9274 -0.4104
 4831TIP3   OH236051   3.146   3.766   0.008 -0.0852 -0.0452 -0.4313
 4831TIP3    H136052   3.108   3.853  -0.000 -0.1781  0.0843  1.0285
 4831TIP3    H236053   3.232   3.781   0.047  0.8745 -0.4520 -2.3005
 4832TIP3   OH236054   5.751   2.386   1.752  0.1810 -0.0506 -0.9583
 4832TIP3    H136055   5.676   2.371   1.694  0.0449  1.4683 -1.2076
 4832TIP3    H236056   5.826   2.354   1.703  0.2312  2.2764 -2.5502
 4833TIP3   OH236057   6.532   2.621   8.797 -0.0367 -0.4577 -1.1076
 4833TIP3    H136058   6.620   2.632   8.833 -0.1370 -2.2325 -0.1989
 4833TIP3    H236059   6.546   2.594   8.707  0.3406 -0.5851 -1.0131
 4834TIP3   OH236060   1.653   4.987   0.603 -0.1899 -0.2351  0.3822
 4834TIP3    H136061   1.673   5.073   0.639 -1.7439  1.6467 -2.7585
 4834TIP3    H236062   1.606   4.941   0.673 -1.1734  2.3085  1.5020
 4835TIP3   OH236063   4.060   4.082   7.669 -0.0858  0.6572 -0.1219
 4835TIP3    H136064   4.044   4.081   7.575  0.2399  1.4007 -0.1918
 4835TIP3    H236065   4.155   4.079   7.678 -0.1312 -0.0983  0.2068
 4836TIP3   OH236066   3.359   5.142   0.519 -0.0795  0.3954  0.7281
 4836TIP3    H136067   3.354   5.221   0.465  0.4870 -0.0961 -0.0800
 4836TIP3    H236068   3.431   5.159   0.580 -0.1544  0.6153  0.7561
 4837TIP3   OH236069   0.268   3.461   2.341 -0.3907 -0.3703 -0.6978
 4837TIP3    H136070   0.271   3.544   2.387 -0.7527 -0.3730 -0.6656
 4837TIP3    H236071   0.281   3.395   2.409 -1.3384 -0.3937 -0.5274
 4838TIP3   OH236072   4.597   4.500   8.323  0.1364  0.4725  0.1878
 4838TIP3    H136073   4.596   4.429   8.258 -0.7085 -0.2311  0.9358
 4838TIP3    H236074   4.526   4.558   8.296  1.5224  1.6741 -1.0597
 4839TIP3   OH236075   4.531   3.500   7.808  0.2828  0.8002 -0.1748
 4839TIP3    H136076   4.468   3.462   7.747 -1.3169 -0.0386  1.8636
 4839TIP3    H236077   4.615   3.462   7.783 -0.5446 -0.5519 -1.0172
 4840TIP3   OH236078   6.783   1.676   7.950  0.2702 -0.1270 -0.0349
 4840TIP3    H136079   6.851   1.609   7.960  1.3171  0.9910  0.7066
 4840TIP3    H236080   6.829   1.749   7.907 -0.9298  0.0045 -1.1444
 4841TIP3   OH236081   2.056   1.840   0.534  0.3172  0.2837 -0.0790
 4841TIP3    H136082   2.009   1.801   0.460 -1.1014  1.8003 -0.0428
 4841TIP3    H236083   2.148   1.829   0.512  0.0040 -2.4201 -0.3622
 4842TIP3   OH236084   3.449   2.921   1.077 -0.1128 -0.5930  0.0617
 4842TIP3    H136085   3.411   2.838   1.108 -1.3037 -0.2692 -0.4770
 4842TIP3    H236086   3.390   2.951   1.008  0.0255  0.9501  0.5649
 4843TIP3   OH236087   5.151   3.939   8.821 -0.6934  0.0865 -0.5622
 4843TIP3    H136088   5.078   3.991   8.855  0.6436  2.8653 -1.5532
 4843TIP3    H236089   5.227   3.970   8.870  0.0100 -2.1348 -0.1378
 4844TIP3   OH236090   4.455   0.782   1.119 -0.1546  0.1920 -0.1056
 4844TIP3    H136091   4.445   0.800   1.026 -1.0063 -1.6482 -0.4279
 4844TIP3    H236092   4.367   0.795   1.156  0.1728  0.8938  0.4478
 4845TIP3   OH236093   0.985   5.810   8.352 -0.0957  0.1601  0.7026
 4845TIP3    H136094   0.999   5.878   8.286  1.9651 -1.4687 -0.6430
 4845TIP3    H236095   0.940   5.740   8.305  0.6859 -0.6951  1.1954
 4846TIP3   OH236096   5.181   2.990   1.062 -0.1946  0.6672  0.3059
 4846TIP3    H136097   5.119   2.983   0.990  0.0968  0.5173  0.0664
 4846TIP3    H236098   5.201   2.899   1.086 -0.2395  0.7152  0.5328
 4847TIP3   OH236099   5.790   0.027   1.256 -0.4858  0.5292  0.4005
 4847TIP3    H136100   5.729   0.100   1.262  0.4650  1.4321 -0.4811
 4847TIP3    H236101   5.846   0.037   1.334  1.9485  2.9914 -1.4386
 4848TIP3   OH236102   1.619   4.592   7.413 -1.1153  0.3931 -0.2275
 4848TIP3    H136103   1.659   4.560   7.494  2.4744  2.0823 -1.1503
 4848TIP3    H236104   1.608   4.686   7.427  0.8666  0.9860 -2.0550
 4849TIP3   OH236105   0.274   2.258   7.563 -0.0975 -0.0424  0.4840
 4849TIP3    H136106   0.245   2.171   7.533  0.9199 -0.1628 -0.2194
 4849TIP3    H236107   0.360   2.242   7.600  0.4320  0.7803 -0.3554
 4850TIP3   OH236108   4.780   3.461   8.302  0.4497  0.1049 -0.1389
 4850TIP3    H136109   4.874   3.453   8.320  0.2301 -2.0176  0.2803
 4850TIP3    H236110   4.756   3.378   8.260 -1.4386  0.1712  0.7042
 4851TIP3   OH236111   0.334   6.440   7.180  0.1711 -0.2116  0.5017
 4851TIP3    H136112   0.372   6.442   7.268  0.5623  1.2250  0.3154
 4851TIP3    H236113   0.368   6.359   7.142  0.2568 -0.6873  1.5537
 4852TIP3   OH236114   4.543   0.831   2.309 -0.2927 -0.4246 -0.3357
 4852TIP3    H136115   4.564   0.884   2.386 -0.0060 -0.8110 -0.1510
 4852TIP3    H236116   4.447   0.826   2.309 -0.4850  1.8449 -1.5185
 4853TIP3   OH236117   1.872   1.502   7.912 -0.0497  0.0807 -0.3895
 4853TIP3    H136118   1.928   1.427   7.895 -0.9782 -0.7167 -0.0379
 4853TIP3    H236119   1.816   1.508   7.835  2.1499  2.4688 -1.9545
 4854TIP3   OH236120   1.014   2.842   2.376  0.3305 -0.2670  0.6877
 4854TIP3    H136121   1.067   2.908   2.421 -0.1350  1.4968 -1.2114
 4854TIP3    H236122   0.928   2.848   2.417 -0.0049  1.1091 -0.1495
 4855TIP3   OH236123   2.608   2.034   7.397  0.3758  0.6073 -0.1351
 4855TIP3    H136124   2.577   2.024   7.487 -0.2219  0.8999 -0.3007
 4855TIP3    H236125   2.539   1.993   7.344 -0.0251  1.7773 -0.5445
 4856TIP3   OH236126   2.500   0.633   8.126 -0.3336  0.0232 -0.1893
 4856TIP3    H136127   2.473   0.595   8.209 -0.5800 -0.2993 -0.4196
 4856TIP3    H236128   2.482   0.566   8.061 -0.3342  0.3511 -0.5333
 4857TIP3   OH236129   1.914   1.080   1.638 -0.3429  0.0649 -0.1310
 4857TIP3    H136130   1.971   1.009   1.609  0.2521  0.4743  0.0198
 4857TIP3    H236131   1.918   1.144   1.567  2.2021  1.7028  1.3330
 4858TIP3   OH236132   0.438   1.946   7.537  0.0768 -0.8650  0.7587
 4858TIP3    H136133   0.398   1.917   7.619 -1.2487  0.8806  0.7755
 4858TIP3    H236134   0.517   1.992   7.565  0.3502 -1.4371  0.9493
 4859TIP3   OH236135   5.949   2.073   6.672 -0.1633  0.2551 -0.0572
 4859TIP3    H136136   5.870   2.044   6.718 -0.9535  1.5612 -0.4978
 4859TIP3    H236137   5.919   2.091   6.583  0.3814  1.7482  0.0298
 4860TIP3   OH236138   3.644   6.609   8.297 -0.2354 -0.2695  0.6012
 4860TIP3    H136139   3.566   6.592   8.245 -0.0727 -1.2140  0.6381
 4860TIP3    H236140   3.707   6.542   8.269 -1.0994 -2.7824  4.0008
 4861TIP3   OH236141   5.047   2.857   2.184  0.4271  0.1530 -0.2985
 4861TIP3    H136142   5.050   2.770   2.146 -1.9069  0.2691 -0.9035
 4861TIP3    H236143   4.986   2.906   2.129 -1.4059  0.9716  2.2545
 4862TIP3   OH236144   0.449   2.094   1.639  0.1382 -0.2612 -0.0166
 4862TIP3    H136145   0.434   2.189   1.646 -0.1773 -0.3421  0.4104
 4862TIP3    H236146   0.507   2.074   1.713  0.6308 -0.3171 -0.4098
 4863TIP3   OH236147   5.338   4.492   1.144 -0.0849  0.1107 -0.1102
 4863TIP3    H136148   5.418   4.448   1.174 -0.6447 -0.4285  0.6323
 4863TIP3    H236149   5.324   4.457   1.056 -0.7394 -1.5585  0.6104
 4864TIP3   OH236150   5.352   6.138   1.641  0.8327 -0.1822  0.4854
 4864TIP3    H136151   5.277   6.197   1.648  1.5903  0.7194  1.2825
 4864TIP3    H236152   5.333   6.069   1.704 -0.6570 -1.5407 -1.3320
 4865TIP3   OH236153   1.584   2.670   6.912 -0.1265 -0.1923  0.5000
 4865TIP3    H136154   1.645   2.602   6.941  0.5735  0.2583  0.1232
 4865TIP3    H236155   1.501   2.625   6.899  0.4635 -1.0806 -0.2545
 4866TIP3   OH236156   6.791   0.245   1.572 -0.2879 -0.0174 -0.4767
 4866TIP3    H136157   6.858   0.191   1.531 -1.3785  0.0843 -2.4824
 4866TIP3    H236158   6.837   0.325   1.597  0.9884 -1.1572  1.0893
 4867TIP3   OH236159   5.669   0.988   7.574 -0.0498 -0.1098 -0.1243
 4867TIP3    H136160   5.721   1.031   7.640 -0.4219  1.2279 -0.6766
 4867TIP3    H236161   5.584   1.031   7.578 -0.5928 -1.1160 -0.3734
 4868TIP3   OH236162   5.451   6.251   7.359  0.5371  0.1888 -0.1009
 4868TIP3    H136163   5.504   6.309   7.303  0.1186  1.6769  0.9896
 4868TIP3    H236164   5.414   6.187   7.298  2.6864 -0.2401 -1.0621
 4869TIP3   OH236165   0.444   4.279   8.562 -0.6543  0.1487  0.4717
 4869TIP3    H136166   0.363   4.330   8.559 -0.6555  0.2034  1.1158
 4869TIP3    H236167   0.466   4.276   8.655  0.5859  0.9362  0.2360
 4870TIP3   OH236168   0.515   0.982   8.292 -0.2518  0.4520 -1.0105
 4870TIP3    H136169   0.422   0.991   8.271 -0.2263  2.1669 -0.5335
 4870TIP3    H236170   0.536   1.062   8.340  0.7945 -1.1959  1.4881
 4871TIP3   OH236171   0.732   5.390   0.253 -0.3854 -0.0848  0.3283
 4871TIP3    H136172   0.824   5.402   0.227 -0.3566 -0.4003  0.2769
 4871TIP3    H236173   0.733   5.398   0.349 -0.3663  0.2911  0.2991
 4872TIP3   OH236174   0.472   1.483   7.360 -0.4771  0.4364  0.5549
 4872TIP3    H136175   0.469   1.387   7.355  2.3383  0.2706  0.6647
 4872TIP3    H236176   0.484   1.502   7.453  1.1618  0.7504  0.2977
 4873TIP3   OH236177   0.861   0.101   2.140 -0.1861  0.1355  0.0621
 4873TIP3    H136178   0.896   0.027   2.190  0.3846  1.3134  1.5118
 4873TIP3    H236179   0.864   0.175   2.202  2.0149  2.0975 -2.1435
 4874TIP3   OH236180   2.509   5.766   0.979  0.8242  0.1010 -0.2482
 4874TIP3    H136181   2.593   5.770   0.934  0.9417  2.0381  0.0514
 4874TIP3    H236182   2.527   5.720   1.060  1.9420  1.6609  0.4371
 4875TIP3   OH236183   0.623   0.290   8.318 -0.6358  0.3239  0.1101
 4875TIP3    H136184   0.639   0.340   8.399  1.8175  0.0180 -0.1325
 4875TIP3    H236185   0.667   0.341   8.250  1.6459 -1.9020 -0.2006
 4876TIP3   OH236186   1.523   3.573   1.998 -0.3830 -0.5355  0.1593
 4876TIP3    H136187   1.463   3.631   2.045  1.2405  1.0909  0.3145
 4876TIP3    H236188   1.471   3.541   1.924 -2.3677 -1.6077  1.9007
 4877TIP3   OH236189   3.148   4.171   8.730  0.1946 -0.0531  0.2397
 4877TIP3    H136190   3.130   4.230   8.802  0.2147  0.1827  0.0524
 4877TIP3    H236191   3.072   4.178   8.672  1.0959  1.3728 -0.8349
 4878TIP3   OH236192   0.062   2.084   0.050 -0.3153  0.1629  0.0914
 4878TIP3    H136193   0.148   2.119   0.027  0.8965 -2.1513  0.7323
 4878TIP3    H236194   0.034   2.136   0.126  1.4015 -0.1882  1.0199
 4879TIP3   OH236195   6.478   4.883   1.740  0.4887 -0.1448  0.3559
 4879TIP3    H136196   6.523   4.957   1.700  0.2151 -0.2048 -0.0716
 4879TIP3    H236197   6.497   4.891   1.834  1.4481 -0.2249  0.1766
 4880TIP3   OH236198   1.510   6.323   2.444  0.2053  0.2479  0.1355
 4880TIP3    H136199   1.415   6.319   2.454  0.0164  0.6498 -1.2678
 4880TIP3    H236200   1.542   6.359   2.527 -1.0527  2.0437 -0.1048
 4881TIP3   OH236201   6.010   0.357   0.822  0.4469 -0.2022 -0.6023
 4881TIP3    H136202   6.032   0.264   0.834  1.4174  0.0620 -0.1877
 4881TIP3    H236203   6.091   0.403   0.844 -0.5680  0.8572  1.1560
 4882TIP3   OH236204   5.240   5.528   8.813  0.0400  0.4558  0.1892
 4882TIP3    H136205   5.177   5.466   8.777 -1.9662  1.3666  1.9111
 4882TIP3    H236206   5.228   5.523   8.908  2.3169  0.9743  0.5763
 4883TIP3   OH236207   3.973   3.171   7.357  0.3896 -0.4083 -0.1825
 4883TIP3    H136208   3.909   3.241   7.362  0.4252 -0.3537 -0.4584
 4883TIP3    H236209   3.921   3.090   7.358  0.2198 -0.3499 -1.5972
 4884TIP3   OH236210   2.434   1.707   1.240 -0.1578  0.1168  0.2232
 4884TIP3    H136211   2.448   1.614   1.257 -0.7065 -0.0277 -0.0883
 4884TIP3    H236212   2.366   1.709   1.173  0.2653  0.7308 -0.2000
 4885TIP3   OH236213   5.671   1.513   6.836 -0.3718 -0.0149 -0.5415
 4885TIP3    H136214   5.604   1.511   6.904  0.2262  0.9375  0.1144
 4885TIP3    H236215   5.741   1.457   6.870 -0.5913 -0.5760 -0.9816
 4886TIP3   OH236216   5.907   1.145   8.064  0.1282  0.2532 -0.4625
 4886TIP3    H136217   5.981   1.103   8.019  0.4590  1.9363 -1.5806
 4886TIP3    H236218   5.841   1.075   8.071  1.6614 -1.1972  0.2521
 4887TIP3   OH236219   4.764   1.599   7.925 -0.1947  0.3934 -0.1315
 4887TIP3    H136220   4.709   1.556   7.991 -1.3838  0.8078 -0.8077
 4887TIP3    H236221   4.830   1.646   7.976 -0.3063 -0.3195  0.7053
 4888TIP3   OH236222   0.465   1.309   1.558 -0.3916 -0.2658  0.0138
 4888TIP3    H136223   0.534   1.269   1.505  1.2120  1.1734  0.9126
 4888TIP3    H236224   0.454   1.249   1.632  1.0682  0.2400  0.6813
 4889TIP3   OH236225   2.123   6.361   2.082 -0.2974 -0.0314  0.3276
 4889TIP3    H136226   2.190   6.351   2.149  1.0504 -2.2421 -1.2283
 4889TIP3    H236227   2.139   6.290   2.020 -3.0784  0.3313 -1.0005
 4890TIP3   OH236228   5.126   1.046   8.874 -0.4187  0.1370  0.2781
 4890TIP3    H136229   5.145   0.979   8.808 -0.4087  1.2706 -0.9103
 4890TIP3    H236230   5.032   1.039   8.890 -0.3344 -0.4785  0.5373
 4891TIP3   OH236231   1.153   6.667   0.830  0.2399  0.3377  0.1305
 4891TIP3    H136232   1.214   6.616   0.882 -0.2597  0.1399  0.5370
 4891TIP3    H236233   1.118   6.605   0.766  0.8555  0.5815 -0.4458
 4892TIP3   OH236234   2.042   4.872   7.856 -0.2619  0.1897 -0.5235
 4892TIP3    H136235   2.007   4.960   7.845 -2.0752 -0.3480  0.4456
 4892TIP3    H236236   1.975   4.815   7.817 -0.8362 -0.9267  1.9261
 4893TIP3   OH236237   4.364   4.065   7.676  0.0154 -0.5291  0.2199
 4893TIP3    H136238   4.449   4.087   7.714  0.4859 -1.5436 -0.1942
 4893TIP3    H236239   4.356   4.124   7.601  1.3895 -1.8490 -1.0510
 4894TIP3   OH236240   0.805   1.005   1.484 -0.2330 -1.0774 -0.2526
 4894TIP3    H136241   0.891   0.979   1.450 -0.0692 -0.6163 -0.2087
 4894TIP3    H236242   0.818   1.096   1.513 -0.4574 -1.3355  0.7167
 4895TIP3   OH236243   5.214   0.553   7.974 -0.2791 -0.3533  0.6662
 4895TIP3    H136244   5.244   0.597   8.054 -0.0540 -0.1271  0.4591
 4895TIP3    H236245   5.292   0.550   7.919 -0.6027  0.1236  0.1735
 4896TIP3   OH236246   4.841   5.194   8.126 -0.4447  0.6229 -0.1979
 4896TIP3    H136247   4.797   5.134   8.066 -0.9906  1.5371 -0.7250
 4896TIP3    H236248   4.933   5.168   8.121 -0.6346 -0.0021 -0.6214
 4897TIP3   OH236249   3.489   5.694   2.046 -0.2107 -0.0034  0.1150
 4897TIP3    H136250   3.521   5.784   2.044  0.0646 -0.0976  0.2738
 4897TIP3    H236251   3.467   5.678   2.138 -0.0768 -0.1618  0.1204
 4898TIP3   OH236252   0.369   4.508   6.735 -0.6582 -0.3270 -0.6315
 4898TIP3    H136253   0.446   4.564   6.746 -2.1814  1.3662  2.9630
 4898TIP3    H236254   0.307   4.562   6.686 -0.5218 -0.6687 -1.1875
 4899TIP3   OH236255   2.974   5.808   8.731  0.1048  0.1735  0.2343
 4899TIP3    H136256   2.901   5.760   8.771 -0.5146  0.8516 -0.0614
 4899TIP3    H236257   2.940   5.837   8.646 -0.0110  2.2195  0.9088
 4900TIP3   OH236258   3.247   0.537   8.649  0.0330  0.5337 -0.0598
 4900TIP3    H136259   3.288   0.454   8.625 -0.2312  0.4437 -0.2077
 4900TIP3    H236260   3.159   0.512   8.680 -0.8321  0.9275 -2.0625
 4901TIP3   OH236261   3.678   2.142   8.743  0.3736  0.1731 -0.1632
 4901TIP3    H136262   3.716   2.056   8.722  1.1159  0.9192 -2.0440
 4901TIP3    H236263   3.662   2.183   8.658 -0.6124  1.6519  0.6863
 4902TIP3   OH236264   0.465   1.963   7.250 -0.2617 -0.0599 -0.5826
 4902TIP3    H136265   0.463   1.950   7.345 -0.7636  0.6901 -0.4764
 4902TIP3    H236266   0.372   1.965   7.225 -0.1332 -0.0575 -1.0580
 4903TIP3   OH236267   3.979   1.233   7.136  0.1341 -0.2260  0.5400
 4903TIP3    H136268   3.993   1.218   7.042 -1.4400 -1.0523  0.4072
 4903TIP3    H236269   3.899   1.285   7.140 -0.9740 -1.9341  1.4792
 4904TIP3   OH236270   5.690   3.517   8.559 -0.1030  0.2144 -0.2096
 4904TIP3    H136271   5.603   3.482   8.578  0.2543 -0.3049  0.4807
 4904TIP3    H236272   5.676   3.612   8.552 -0.7544  0.1180 -0.2987
 4905TIP3   OH236273   5.470   2.506   1.190  0.0377 -0.4046  0.2247
 4905TIP3    H136274   5.440   2.417   1.208 -0.7810  0.1751  1.9014
 4905TIP3    H236275   5.529   2.527   1.263  0.9605  0.1022 -0.6459
 4906TIP3   OH236276   2.301   0.301   8.510  0.2489  0.0653 -0.2239
 4906TIP3    H136277   2.327   0.236   8.445 -2.0744 -0.1788 -0.9772
 4906TIP3    H236278   2.249   0.252   8.574  3.7017 -0.0533  2.8648
 4907TIP3   OH236279   0.375   1.176   1.211  0.0897  0.4312  0.1782
 4907TIP3    H136280   0.316   1.185   1.286  0.6272  1.6426  0.4931
 4907TIP3    H236281   0.462   1.169   1.251  0.2973  0.1938 -0.3134
 4908TIP3   OH236282   4.496   0.907   7.095 -0.5098  0.0291 -0.6181
 4908TIP3    H136283   4.430   0.976   7.103 -0.3401  0.0532  0.8315
 4908TIP3    H236284   4.464   0.852   7.024 -1.4922  0.6966 -0.7123
 4909TIP3   OH236285   6.338   0.248   1.987 -0.2331 -0.0865 -0.1402
 4909TIP3    H136286   6.297   0.168   2.019  0.0311 -1.0044 -1.9787
 4909TIP3    H236287   6.359   0.297   2.066 -1.1515 -1.4439  0.9982
 4910TIP3   OH236288   0.077   0.569   1.731 -0.1067 -0.0778  0.3416
 4910TIP3    H136289  -0.019   0.561   1.727 -0.1622  0.3647  0.7594
 4910TIP3    H236290   0.096   0.652   1.688  0.2185 -0.8699 -1.1010
 4911TIP3   OH236291   4.779   2.752   1.023 -0.2090  0.1172  0.2948
 4911TIP3    H136292   4.851   2.783   1.077 -0.2022 -1.2716  1.1193
 4911TIP3    H236293   4.713   2.722   1.085 -0.6384 -0.5479 -0.4590
 4912TIP3   OH236294   2.606   3.100   7.825 -0.3309  0.0290  0.4555
 4912TIP3    H136295   2.611   3.038   7.897  0.9576 -0.7638 -0.2804
 4912TIP3    H236296   2.681   3.157   7.836  0.3811 -0.6384 -0.7032
 4913TIP3   OH236297   0.331   6.614   6.917 -0.2574  0.4123 -0.6002
 4913TIP3    H136298   0.410   6.666   6.903 -0.3520  0.2727 -1.6953
 4913TIP3    H236299   0.353   6.557   6.991  0.3100  1.0636 -0.2519
 4914TIP3   OH236300   0.806   6.288   0.718  0.0623  0.3225  0.4625
 4914TIP3    H136301   0.846   6.237   0.788  0.2877 -0.0846  0.0452
 4914TIP3    H236302   0.787   6.224   0.650 -0.4018  0.6721  0.2591
 4915TIP3   OH236303   2.120   3.278   1.659 -0.9739  0.0139  0.6300
 4915TIP3    H136304   2.041   3.253   1.707 -2.1859  1.3474 -0.5409
 4915TIP3    H236305   2.115   3.228   1.577 -1.1928  0.8860  0.0961
 4916TIP3   OH236306   4.461   0.384   0.318  0.6728 -0.6493 -0.6866
 4916TIP3    H136307   4.521   0.321   0.278  1.0444 -0.4279 -0.4858
 4916TIP3    H236308   4.517   0.437   0.374  0.3942 -0.0062 -1.0168
 4917TIP3   OH236309   4.711   5.803   8.104 -0.3466 -0.3894 -0.8810
 4917TIP3    H136310   4.774   5.732   8.119  0.9411  0.5857 -1.4447
 4917TIP3    H236311   4.668   5.815   8.188  0.6657 -0.6743 -0.3001
 4918TIP3   OH236312   0.656   6.769   7.534  0.0277  0.7693 -0.9561
 4918TIP3    H136313   0.576   6.763   7.482  0.8331  0.7158 -2.2652
 4918TIP3    H236314   0.707   6.838   7.490  0.3176  1.4580  0.4068
 4919TIP3   OH236315   2.823   5.316   1.987 -0.1847 -0.5517 -0.0085
 4919TIP3    H136316   2.774   5.275   1.916  0.0839  0.3319 -0.7137
 4919TIP3    H236317   2.768   5.302   2.064 -1.4153  0.1545 -0.7245
 4920TIP3   OH236318   6.216   2.668   6.997  0.0841 -0.5546  0.1382
 4920TIP3    H136319   6.131   2.645   6.959 -1.5329  0.8731  2.6333
 4920TIP3    H236320   6.253   2.586   7.028 -1.1986 -0.9836  0.5576
 4921TIP3   OH236321   5.695   6.644   8.841 -0.1464  0.2267 -0.2560
 4921TIP3    H136322   5.661   6.685   8.762  1.5030  0.2835 -0.9690
 4921TIP3    H236323   5.789   6.641   8.828  0.0426 -0.9561  1.1571
 4922TIP3   OH236324   4.410   2.937   0.420  0.0934  0.2072 -0.0211
 4922TIP3    H136325   4.375   2.906   0.503  0.9392 -1.6426 -0.3021
 4922TIP3    H236326   4.351   3.008   0.393 -0.5921  0.3670  1.7930
 4923TIP3   OH236327   0.422   1.970   6.859  0.1075 -0.2946  0.6274
 4923TIP3    H136328   0.423   1.919   6.778  3.5191  0.1787  0.2179
 4923TIP3    H236329   0.382   1.912   6.924 -0.5434 -1.5873 -0.8647
 4924TIP3   OH236330   5.427   3.461   1.503  0.2196  0.1407  0.1292
 4924TIP3    H136331   5.356   3.474   1.441  0.1368 -2.4924 -0.4389
 4924TIP3    H236332   5.505   3.450   1.449  0.6271  0.5104  0.6309
 4925TIP3   OH236333   2.624   2.707   8.728 -0.1801 -0.8559 -0.2538
 4925TIP3    H136334   2.557   2.722   8.796 -0.8403  0.2359 -1.1071
 4925TIP3    H236335   2.575   2.676   8.652  0.5854 -2.3030 -0.1834
 4926TIP3   OH236336   3.968   0.215   1.123  0.2581 -0.1778  0.1801
 4926TIP3    H136337   3.979   0.124   1.150  1.5695 -0.1426 -0.1573
 4926TIP3    H236338   4.036   0.263   1.170  0.4208  0.4149 -0.6231
 4927TIP3   OH236339   4.784   3.827   0.734  0.1143 -0.4033  0.5554
 4927TIP3    H136340   4.878   3.820   0.751 -0.2022 -0.7339  2.4193
 4927TIP3    H236341   4.757   3.907   0.778 -0.3736  0.0634 -0.5652
 4928TIP3   OH236342   2.172   0.431   1.270 -0.1607  0.5250 -0.1299
 4928TIP3    H136343   2.081   0.400   1.266 -0.3050  0.9205  0.0283
 4928TIP3    H236344   2.183   0.460   1.361  0.2654  0.0566 -0.0309
 4929TIP3   OH236345   5.331   5.291   1.969 -0.0384 -0.3569  0.1460
 4929TIP3    H136346   5.368   5.211   1.931 -0.1714 -0.1199 -0.5072
 4929TIP3    H236347   5.371   5.362   1.919  2.0010  0.1681  2.3303
 4930TIP3   OH236348   3.358   0.300   0.450  0.5787  0.0631  0.0575
 4930TIP3    H136349   3.337   0.393   0.448 -0.3507 -0.1517 -0.4761
 4930TIP3    H236350   3.386   0.280   0.361 -0.3345 -0.4068 -0.1370
 4931TIP3   OH236351   1.563   4.405   0.540 -0.2703 -0.3791  0.0853
 4931TIP3    H136352   1.644   4.360   0.561 -0.3393 -0.9247 -0.7700
 4931TIP3    H236353   1.518   4.347   0.478 -0.8271  0.3984 -0.2615
 4932TIP3   OH236354   3.322   0.505   1.878  0.2029  0.2999  0.6933
 4932TIP3    H136355   3.354   0.552   1.956  2.4148 -0.7487  0.5044
 4932TIP3    H236356   3.268   0.434   1.914  0.7186  0.1799  1.2538
 4933TIP3   OH236357   4.272   6.053   7.120 -0.3276 -0.4084  0.2332
 4933TIP3    H136358   4.303   6.016   7.202 -0.7762 -1.4549 -0.0407
 4933TIP3    H236359   4.235   5.978   7.073 -0.0558  0.1647 -0.9337
 4934TIP3   OH236360   3.320   6.201   0.601  0.0536 -0.3532 -0.0668
 4934TIP3    H136361   3.372   6.134   0.644  1.2184  0.0840 -0.7516
 4934TIP3    H236362   3.346   6.283   0.642 -0.9251 -0.2384  0.3544
 4935TIP3   OH236363   1.655   0.743   7.391  0.3999  0.2907  0.0509
 4935TIP3    H136364   1.636   0.831   7.422  0.2042  0.1437  0.3469
 4935TIP3    H236365   1.670   0.692   7.470 -1.7164 -0.4742  0.0248
 4936TIP3   OH236366   2.019   0.349   0.217 -0.3252  0.4519  0.3121
 4936TIP3    H136367   2.013   0.444   0.209 -1.2576  0.2660 -1.9588
 4936TIP3    H236368   2.034   0.333   0.310  2.1952  2.8944  0.4262
 4937TIP3   OH236369   6.693   2.707   0.139  0.3679 -0.4106 -0.9406
 4937TIP3    H136370   6.618   2.767   0.142 -0.1575 -1.0809 -0.3932
 4937TIP3    H236371   6.767   2.760   0.170 -0.4560 -0.5454  1.4735
 4938TIP3   OH236372   2.236   1.011   2.319  0.2089  0.0936 -0.0136
 4938TIP3    H136373   2.142   1.009   2.335  0.0323 -1.7620 -1.0103
 4938TIP3    H236374   2.269   1.079   2.377 -1.6787  0.4278  0.7244
 4939TIP3   OH236375   2.461   5.754   2.050  0.2993 -0.7235  0.2791
 4939TIP3    H136376   2.471   5.790   2.139  1.8764 -1.0831  0.2891
 4939TIP3    H236377   2.544   5.775   2.007 -1.1451  1.1784 -1.7889
 4940TIP3   OH236378   2.270   1.193   1.456 -0.0591  0.0698 -0.3198
 4940TIP3    H136379   2.362   1.173   1.437  0.5373  1.2850  1.0469
 4940TIP3    H236380   2.231   1.109   1.479  0.6131 -0.5205 -1.2681
 4941TIP3   OH236381   0.317   4.622   8.817 -0.8486  0.3137  0.4432
 4941TIP3    H136382   0.332   4.590   8.728  2.2829 -0.7143  1.2126
 4941TIP3    H236383   0.372   4.700   8.824  0.7470 -0.8837  2.0835
 4942TIP3   OH236384   0.017   1.888   7.755  0.3953 -0.8534 -0.3888
 4942TIP3    H136385  -0.018   1.843   7.678 -1.6179 -1.3802  0.7535
 4942TIP3    H236386  -0.031   1.971   7.758  1.2868 -0.3328 -0.3256
 4943TIP3   OH236387   1.828   2.637   2.835 -0.4834  0.1147 -0.0806
 4943TIP3    H136388   1.910   2.648   2.787 -0.5716  1.1863 -0.0097
 4943TIP3    H236389   1.856   2.611   2.923 -0.0555  2.7469  0.6351
 4944TIP3   OH236390   5.046   5.507   2.371  0.2625  0.7298  0.3035
 4944TIP3    H136391   5.015   5.417   2.373 -0.5596  0.9111 -1.5622
 4944TIP3    H236392   5.095   5.519   2.453 -2.9904 -0.1577  2.5593
 4945TIP3   OH236393   5.116   6.624   1.932  0.7062  0.5740 -0.5734
 4945TIP3    H136394   5.040   6.645   1.986  0.2164  0.7668 -1.3250
 4945TIP3    H236395   5.168   6.565   1.986 -0.8467 -0.9725 -0.6718
 4946TIP3   OH236396   2.906   3.639   7.689  0.4546 -0.5689 -0.1448
 4946TIP3    H136397   2.998   3.663   7.683  0.0839  0.6668 -1.5469
 4946TIP3    H236398   2.903   3.547   7.662  1.3756 -0.9406  0.9514
 4947TIP3   OH236399   1.505   1.977   0.620  0.4463  0.2068  0.2591
 4947TIP3    H136400   1.459   2.003   0.700 -0.9210  0.4548 -0.5670
 4947TIP3    H236401   1.596   2.002   0.635  0.7007 -1.7553  2.6075
 4948TIP3   OH236402   5.156   5.751   7.717 -0.5473  0.3824 -0.1473
 4948TIP3    H136403   5.106   5.833   7.715 -0.0337  0.7923  1.8461
 4948TIP3    H236404   5.235   5.770   7.667 -1.1350  0.5706 -1.0432
 4949TIP3   OH236405   0.973   4.301   0.079  0.0836 -0.3645 -0.2659
 4949TIP3    H136406   0.948   4.257  -0.002  1.9052 -0.6658 -0.7200
 4949TIP3    H236407   0.967   4.234   0.147 -0.2467 -0.4476 -0.3780
 4950TIP3   OH236408   0.785   5.547   7.514  0.1030 -0.2046  0.4230
 4950TIP3    H136409   0.736   5.541   7.433  0.1559 -0.6781  0.4233
 4950TIP3    H236410   0.842   5.470   7.514  1.4852  0.7775  0.0014
 4951TIP3   OH236411   0.567   3.815   8.189  0.5014  0.3423  0.6744
 4951TIP3    H136412   0.556   3.903   8.226 -1.5626  0.6804 -0.5786
 4951TIP3    H236413   0.639   3.824   8.127  0.3533  1.1537  0.6071
 4952TIP3   OH236414   5.941   4.727   0.857 -0.1977  0.1625 -0.5264
 4952TIP3    H136415   5.880   4.759   0.923 -0.6306  1.3781 -1.4808
 4952TIP3    H236416   5.887   4.716   0.779  0.5539 -0.0325 -1.0239
 4953TIP3   OH236417   1.682   3.500   8.856  0.1262  0.2123 -0.2845
 4953TIP3    H136418   1.588   3.509   8.846  0.1516  0.5217 -0.2700
 4953TIP3    H236419   1.698   3.523   8.948  0.3338  1.2198 -0.5590
 4954TIP3   OH236420   4.936   2.425   8.072  0.7181  0.0035 -0.8753
 4954TIP3    H136421   4.954   2.473   8.152 -1.3335 -0.8214  0.1710
 4954TIP3    H236422   4.842   2.407   8.076  1.2079 -3.5331 -1.4377
 4955TIP3   OH236423   0.086   3.435   6.691  0.4580 -0.4671 -0.2785
 4955TIP3    H136424   0.163   3.379   6.685 -0.9438 -2.3079 -3.9781
 4955TIP3    H236425   0.035   3.399   6.764  1.3699 -1.5505 -0.1590
 4956TIP3   OH236426   2.954   5.444   8.273 -0.3746 -0.1487 -0.2433
 4956TIP3    H136427   2.957   5.349   8.269 -0.7328 -0.1785  0.0854
 4956TIP3    H236428   2.889   5.469   8.208 -0.3414 -0.1361 -0.2714
 4957TIP3   OH236429   6.263   5.695   7.303  0.0541 -0.2400  0.0798
 4957TIP3    H136430   6.180   5.706   7.257  0.2689  1.1764  0.0029
 4957TIP3    H236431   6.243   5.714   7.395  0.3959  0.6389 -0.0219
 4958TIP3   OH236432   0.041   3.933   7.298 -0.8636 -0.9076  0.1058
 4958TIP3    H136433   0.098   3.927   7.375 -0.4894 -2.0798 -0.2389
 4958TIP3    H236434  -0.041   3.968   7.331  0.1763  1.3229  0.5408
 4959TIP3   OH236435   4.399   4.781   7.743 -0.4724 -0.0225  0.0569
 4959TIP3    H136436   4.367   4.768   7.832 -0.2406  0.2596  0.1820
 4959TIP3    H236437   4.489   4.749   7.745 -0.7968 -1.0156 -0.3501
 4960TIP3   OH236438   3.135   0.646   7.519  0.0013  0.0070 -0.4210
 4960TIP3    H136439   3.161   0.715   7.579  0.2452 -0.5024  0.0711
 4960TIP3    H236440   3.049   0.618   7.550  0.7819 -1.3232  0.6875
 4961TIP3   OH236441   5.584   2.727   8.510  0.6106  0.2834  0.4792
 4961TIP3    H136442   5.644   2.717   8.436  1.9788  1.3616  1.3987
 4961TIP3    H236443   5.601   2.815   8.544 -0.7376  0.2093  1.4386
 4962TIP3   OH236444   0.489   1.169   6.496  0.1741 -0.1590  0.1486
 4962TIP3    H136445   0.567   1.211   6.460  1.2003 -1.6554  0.5253
 4962TIP3    H236446   0.418   1.197   6.439  1.0883  0.7684 -0.5627
 4963TIP3   OH236447   0.941   0.716   0.402 -0.2266  0.7127 -1.2033
 4963TIP3    H136448   0.930   0.658   0.477 -0.1862 -0.4178 -2.0354
 4963TIP3    H236449   0.854   0.754   0.389  0.1397  2.2100  0.3888
 4964TIP3   OH236450   4.742   1.312   8.841 -0.3708 -0.1595  0.1555
 4964TIP3    H136451   4.742   1.294   8.747 -0.9911 -1.1776  0.3351
 4964TIP3    H236452   4.650   1.325   8.863 -0.1516  1.0058  0.4722
 4965TIP3   OH236453   0.862   4.895   1.045  0.0467 -0.0385 -0.0454
 4965TIP3    H136454   0.949   4.870   1.013  0.6862  0.9941  0.8334
 4965TIP3    H236455   0.811   4.908   0.965  1.6068  2.4765 -0.7517
 4966TIP3   OH236456   2.759   3.475   2.071  0.1588 -0.0907  0.2243
 4966TIP3    H136457   2.722   3.530   2.141  0.3583  1.9824 -1.2177
 4966TIP3    H236458   2.734   3.386   2.096 -2.8994  0.8818  1.0883
 4967TIP3   OH236459   5.367   3.488   0.221 -0.5591  0.2344  0.2336
 4967TIP3    H136460   5.378   3.397   0.250 -0.6981  0.4026  0.8107
 4967TIP3    H236461   5.448   3.531   0.245 -0.3659  0.1893 -0.3313
 4968TIP3   OH236462   6.256   3.491   7.495 -0.0868 -0.1638 -0.8813
 4968TIP3    H136463   6.165   3.473   7.471 -0.2037  0.6680 -1.0776
 4968TIP3    H236464   6.298   3.515   7.413 -0.6808  3.5176 -0.2958
 4969TIP3   OH236465   0.304   5.405   7.858 -0.0353  0.4500 -0.0520
 4969TIP3    H136466   0.246   5.362   7.795 -0.1697  0.2195  0.2267
 4969TIP3    H236467   0.288   5.498   7.846 -1.0548  0.3705  0.5693
 4970TIP3   OH236468   3.639   2.643   7.582  0.2490 -0.1416  0.1079
 4970TIP3    H136469   3.653   2.645   7.488 -0.7660  1.5651 -0.0292
 4970TIP3    H236470   3.549   2.672   7.594  0.5783  0.3201  1.6451
 4971TIP3   OH236471   6.155   5.983   7.896  0.2619  0.2257 -0.5269
 4971TIP3    H136472   6.162   5.968   7.990 -0.7783  1.8960 -0.1444
 4971TIP3    H236473   6.245   5.979   7.864  0.5932 -0.6754  0.4750
 4972TIP3   OH236474   6.247   1.861   8.178 -0.4548  0.1737  0.2872
 4972TIP3    H136475   6.338   1.867   8.149 -0.4681  0.7854  0.3543
 4972TIP3    H236476   6.247   1.790   8.243 -0.0890 -0.0374  0.0568
 4973TIP3   OH236477   0.654   1.089   7.752  0.5975 -0.3148 -0.9329
 4973TIP3    H136478   0.567   1.050   7.748  0.1667  0.6359 -1.0528
 4973TIP3    H236479   0.691   1.057   7.834  0.9753 -2.4273 -1.8655
 4974TIP3   OH236480   3.551   3.550   1.204 -0.5908 -0.0432 -0.4672
 4974TIP3    H136481   3.624   3.530   1.145  1.4208 -0.7650  2.0636
 4974TIP3    H236482   3.498   3.470   1.205 -0.1208 -0.3606 -0.5926
 4975TIP3   OH236483   2.210   4.893   0.987  0.5790  0.2232  0.0423
 4975TIP3    H136484   2.123   4.906   1.024 -0.5084 -0.1799 -2.2375
 4975TIP3    H236485   2.219   4.960   0.919  2.0126  0.1809  0.1457
 4976TIP3   OH236486   5.638   4.782   7.592 -0.3048  0.0083 -0.2457
 4976TIP3    H136487   5.565   4.731   7.556 -0.7846  0.2574  0.3637
 4976TIP3    H236488   5.672   4.830   7.516 -1.1109  0.2921 -0.4378
 4977TIP3   OH236489   4.361   5.471   8.369 -0.1203  0.7159 -0.7108
 4977TIP3    H136490   4.433   5.501   8.313  1.0628 -1.0408 -0.1669
 4977TIP3    H236491   4.313   5.409   8.314  0.7608 -0.6450  0.0165
 4978TIP3   OH236492   2.187   6.531   1.042  0.6608  0.0043 -0.0032
 4978TIP3    H136493   2.182   6.449   0.993  0.2590 -1.2045  1.9505
 4978TIP3    H236494   2.238   6.590   0.986 -0.1992 -1.1107 -2.0442
 4979TIP3   OH236495   4.123   3.206   7.019 -0.0634  0.5288  0.1359
 4979TIP3    H136496   4.110   3.215   6.924  1.5148 -0.5618 -0.2193
 4979TIP3    H236497   4.155   3.291   7.047  1.9146  0.1656 -0.8082
 4980TIP3   OH236498   0.248   4.128   7.778  0.2091  0.7740 -0.6884
 4980TIP3    H136499   0.195   4.084   7.713 -0.3320  1.1958 -0.5455
 4980TIP3    H236500   0.189   4.193   7.818  0.1874 -0.2127  0.9933
 4981TIP3   OH236501   5.415   3.819   6.779  0.0487 -0.0991  0.4984
 4981TIP3    H136502   5.369   3.842   6.860  0.2109 -0.4857  0.7042
 4981TIP3    H236503   5.490   3.879   6.775 -0.0592  0.0389  0.5410
 4982TIP3   OH236504   4.380   3.611   2.068 -0.1820  0.0478 -0.5462
 4982TIP3    H136505   4.393   3.530   2.117  1.3796  0.0377 -0.9292
 4982TIP3    H236506   4.380   3.584   1.976  0.7787  0.5151 -0.6958
 4983TIP3   OH236507   4.439   1.726   7.620  0.2266 -0.6875 -0.2186
 4983TIP3    H136508   4.515   1.748   7.675 -0.5070 -0.8869  0.9086
 4983TIP3    H236509   4.435   1.631   7.621 -1.1484 -0.6507  1.3369
 4984TIP3   OH236510   4.114   0.284   0.035  0.3618  0.3787 -0.1642
 4984TIP3    H136511   4.037   0.341   0.043 -1.4323 -2.0252  0.9172
 4984TIP3    H236512   4.159   0.294   0.119 -2.4569 -2.9705  2.0108
 4985TIP3   OH236513   3.263   0.535   0.433 -0.8794 -0.3580  0.7253
 4985TIP3    H136514   3.268   0.629   0.451  1.8795  0.2482 -2.1590
 4985TIP3    H236515   3.177   0.522   0.393 -0.0760  1.7380 -1.9571
 4986TIP3   OH236516   1.275   2.772   1.133  0.2256 -0.3563  0.4262
 4986TIP3    H136517   1.291   2.815   1.216 -1.3862 -0.2639  0.7063
 4986TIP3    H236518   1.315   2.830   1.068 -0.8420  0.9572  0.9032
 4987TIP3   OH236519   6.464   3.841   1.665 -0.2504  0.0508  0.2587
 4987TIP3    H136520   6.464   3.882   1.579 -0.0597  2.0010  1.1537
 4987TIP3    H236521   6.399   3.770   1.658 -0.3688  0.2970 -1.4158
 4988TIP3   OH236522   5.813   2.826   8.351  0.7508 -0.0902  0.6444
 4988TIP3    H136523   5.856   2.852   8.269 -0.6434  0.3541  0.0230
 4988TIP3    H236524   5.772   2.906   8.383  1.6264 -0.1617  2.0380
 4989TIP3   OH236525   4.277   1.918   1.219  0.2368 -0.2718  0.5694
 4989TIP3    H136526   4.335   1.987   1.252 -0.3223  1.7257 -2.2342
 4989TIP3    H236527   4.189   1.948   1.241  0.0367 -0.5651  0.1786
 4990TIP3   OH236528   1.150   1.808   8.481  0.2090 -0.1885  0.5136
 4990TIP3    H136529   1.065   1.800   8.437 -0.0901  1.0031  0.8511
 4990TIP3    H236530   1.212   1.825   8.409  0.2159 -1.2724  0.2436
 4991TIP3   OH236531   5.535   5.624   0.931  0.8231  0.1323 -0.2946
 4991TIP3    H136532   5.528   5.693   0.997  1.6758 -0.9575  0.9655
 4991TIP3    H236533   5.625   5.592   0.939  1.6024  1.2322 -3.2872
 4992TIP3   OH236534   6.627   3.762   0.181  0.0735  0.2715  0.5589
 4992TIP3    H136535   6.618   3.679   0.228 -0.8035  0.8376  1.4362
 4992TIP3    H236536   6.709   3.799   0.213  0.0764  0.0962  0.7577
 4993TIP3   OH236537   4.897   1.060   6.743  0.1520 -1.0612  0.0879
 4993TIP3    H136538   4.935   1.020   6.821 -2.4345 -3.2197  0.3674
 4993TIP3    H236539   4.855   0.988   6.696  1.1671  0.2333 -3.1027
 4994TIP3   OH236540   5.403   4.030   0.913 -0.2886 -0.3322  0.5519
 4994TIP3    H136541   5.328   4.087   0.897  1.0435  0.6734 -3.3265
 4994TIP3    H236542   5.415   3.982   0.831  3.4218 -0.2337  0.8656
 4995TIP3   OH236543   3.313   2.368   1.653 -0.1844  0.3223  0.2989
 4995TIP3    H136544   3.231   2.388   1.699 -1.7268 -0.9686 -1.7347
 4995TIP3    H236545   3.337   2.280   1.682  0.4714  0.6713  0.8405
 4996TIP3   OH236546   4.846   0.474   6.929 -0.1443 -0.1965  0.4012
 4996TIP3    H136547   4.894   0.474   6.846 -1.3335 -2.1250 -0.3689
 4996TIP3    H236548   4.872   0.555   6.972  1.2553  0.3927 -1.4200
 4997TIP3   OH236549   4.134   0.069   0.930  0.2080 -0.1552 -0.0077
 4997TIP3    H136550   4.103   0.071   1.021 -0.4230 -1.3232 -0.1801
 4997TIP3    H236551   4.059   0.095   0.878  0.5483  0.4361 -0.2119
 4998TIP3   OH236552   5.984   6.530   7.194 -0.3628 -0.2597 -0.1877
 4998TIP3    H136553   6.015   6.575   7.272  2.1337 -1.0815 -0.6178
 4998TIP3    H236554   5.917   6.470   7.226 -1.4123  1.3637  0.8458
 4999TIP3   OH236555   2.168   1.135   0.666  0.1780  0.0393  0.3723
 4999TIP3    H136556   2.138   1.106   0.580  1.1258  1.0223 -0.3213
 4999TIP3    H236557   2.161   1.231   0.662 -0.6071  0.0614  1.7230
 5000TIP3   OH236558   0.537   3.117   7.885  0.0683  0.5484 -0.5449
 5000TIP3    H136559   0.474   3.183   7.855  0.0776  0.7334 -0.1655
 5000TIP3    H236560   0.554   3.140   7.976  0.4641  0.3248 -0.5605
 5001TIP3   OH236561   1.205   3.035   8.537  0.3429 -0.3412 -0.9384
 5001TIP3    H136562   1.252   3.083   8.469  0.8083 -0.1443 -0.4858
 5001TIP3    H236563   1.123   3.009   8.496  1.3842 -1.8461 -2.1936
 5002TIP3   OH236564   3.257   2.115   7.761  0.2566 -0.0503 -0.4202
 5002TIP3    H136565   3.321   2.080   7.823  1.8781  1.9587 -0.8538
 5002TIP3    H236566   3.173   2.082   7.793  1.0436  0.5667  2.6481
 5003TIP3   OH236567   0.750   3.574   1.818 -0.0642  0.8441 -1.2230
 5003TIP3    H136568   0.806   3.650   1.836  2.2085 -0.6453 -1.6520
 5003TIP3    H236569   0.792   3.501   1.862 -1.4523 -0.4548 -1.9283
 5004TIP3   OH236570   3.710   5.814   7.742  0.1715 -0.0192  0.4500
 5004TIP3    H136571   3.714   5.830   7.648 -0.4851  1.5751  0.6561
 5004TIP3    H236572   3.639   5.750   7.753  0.4660 -0.4595 -0.1498
 5005TIP3   OH236573   0.014   0.143   2.216  0.0145 -0.2907 -0.2794
 5005TIP3    H136574   0.047   0.054   2.200  0.5401 -0.2492  0.5316
 5005TIP3    H236575  -0.073   0.130   2.253  0.0953 -0.4666 -0.1509
 5006TIP3   OH236576   6.524   3.449   0.161 -0.1937 -0.5553 -0.3654
 5006TIP3    H136577   6.537   3.357   0.184 -2.4384 -1.4489 -2.3009
 5006TIP3    H236578   6.434   3.468   0.185 -0.5613  0.3630 -2.2762
 5007TIP3   OH236579   2.355   2.474   7.454  0.4679  0.3714 -0.1769
 5007TIP3    H136580   2.418   2.471   7.527  0.4788  1.4577 -0.1183
 5007TIP3    H236581   2.350   2.384   7.423  2.0586  0.2588 -0.1873
 5008TIP3   OH236582   2.230   5.712   6.453  0.0665  0.0728 -0.7528
 5008TIP3    H136583   2.290   5.640   6.472  0.6744  0.7373 -0.0847
 5008TIP3    H236584   2.248   5.734   6.361  0.6127  0.0421 -0.6587
 5009TIP3   OH236585   6.749   2.204   8.425  0.2693 -0.3297  0.4053
 5009TIP3    H136586   6.772   2.130   8.369  1.0502 -0.1965  0.5267
 5009TIP3    H236587   6.713   2.165   8.504 -1.2378 -0.5048 -0.3455
 5010TIP3   OH236588   1.717   6.315   7.836  0.5487  0.8708 -0.1295
 5010TIP3    H136589   1.729   6.341   7.928 -1.3581  0.4328  0.2997
 5010TIP3    H236590   1.755   6.227   7.832 -0.2322  0.4874  0.5164
 5011TIP3   OH236591   5.656   4.138   1.011 -0.0172 -0.0386  0.2059
 5011TIP3    H136592   5.616   4.223   1.027  1.4955  0.8410 -0.4623
 5011TIP3    H236593   5.587   4.086   0.970 -0.5274  1.3567 -0.7811
 5012TIP3   OH236594   1.320   4.378   7.404 -0.5809 -0.4343 -0.3774
 5012TIP3    H136595   1.338   4.467   7.372 -1.5698 -0.4610 -1.0591
 5012TIP3    H236596   1.385   4.364   7.473  0.4124  0.3341 -1.1217
 5013TIP3   OH236597   6.258   3.216   0.361  0.1069  0.6720  0.3024
 5013TIP3    H136598   6.175   3.186   0.398  0.2571  0.7460  0.7012
 5013TIP3    H236599   6.256   3.311   0.371 -0.9037  0.9659 -2.0503
 5014TIP3   OH236600   3.194   4.156   7.829 -0.3027  0.3953 -0.1176
 5014TIP3    H136601   3.117   4.136   7.881  0.1959 -0.9709  0.1475
 5014TIP3    H236602   3.189   4.097   7.754 -0.6651  1.8723 -1.3083
 5015TIP3   OH236603   3.412   2.792   1.790 -0.2511 -0.6060 -0.1584
 5015TIP3    H136604   3.416   2.805   1.885  0.1614 -1.5287 -0.0452
 5015TIP3    H236605   3.494   2.830   1.758  0.5246 -2.0338  0.0748
 5016TIP3   OH236606   3.937   1.995   0.851 -0.0667 -0.1596  0.3066
 5016TIP3    H136607   3.968   1.914   0.892 -0.4357 -0.4912 -0.0581
 5016TIP3    H236608   3.889   2.040   0.920 -0.2647 -0.4809  0.3829
 5017TIP3   OH236609   6.110   5.991   7.252  0.2601  0.2883 -0.0685
 5017TIP3    H136610   6.067   5.906   7.255  0.7842 -0.0423 -1.1848
 5017TIP3    H236611   6.068   6.036   7.178 -0.9346  1.5337  1.3117
 5018TIP3   OH236612   4.704   2.867   8.841  0.0697  0.1235  0.1813
 5018TIP3    H136613   4.734   2.805   8.907 -1.1485  0.0376  0.6793
 5018TIP3    H236614   4.640   2.817   8.789 -0.9642  0.9498  0.6239
 5019TIP3   OH236615   6.182   1.000   8.330 -0.4249 -0.2681  0.1356
 5019TIP3    H136616   6.270   1.031   8.311 -0.9195  0.5409 -0.9155
 5019TIP3    H236617   6.192   0.905   8.341  0.6905 -0.0831  0.8262
 5020TIP3   OH236618   5.891   6.130   6.426 -0.6475 -0.6141 -0.2469
 5020TIP3    H136619   5.980   6.138   6.391 -0.1896 -1.1522  0.7284
 5020TIP3    H236620   5.885   6.038   6.453 -1.4650 -0.5484 -0.2022
 5021TIP3   OH236621   3.392   1.575   7.437  0.1632 -0.2101  0.0987
 5021TIP3    H136622   3.306   1.533   7.432  0.9388 -1.8898  0.1211
 5021TIP3    H236623   3.373   1.668   7.443 -1.6833 -0.5864  0.8754
 5022TIP3   OH236624   3.294   1.996   0.450 -0.1251 -0.3141  0.2268
 5022TIP3    H136625   3.249   1.990   0.365  0.2013  2.4542 -0.2531
 5022TIP3    H236626   3.241   1.943   0.509 -1.8594 -0.2382 -1.1639
 5023TIP3   OH236627   2.749   0.004   8.309  0.2786  0.1307  0.4529
 5023TIP3    H136628   2.705   0.053   8.239  0.3214  0.2931  0.5397
 5023TIP3    H236629   2.724  -0.087   8.293 -1.4274  0.3783  1.4594
 5024TIP3   OH236630   6.293   4.192   1.009  0.3207 -0.2746 -0.7325
 5024TIP3    H136631   6.270   4.186   1.101  1.0148 -1.0541 -0.5938
 5024TIP3    H236632   6.369   4.134   0.999 -0.0328 -0.5721 -1.8906
 5025TIP3   OH236633   0.346   6.401   0.098 -0.8520  0.3689 -0.3922
 5025TIP3    H136634   0.300   6.437   0.022  1.2409  1.6793 -1.1165
 5025TIP3    H236635   0.388   6.476   0.139  0.3267 -0.6828  0.4212
 5026TIP3   OH236636   5.892   2.610   1.708  0.4651 -0.5895 -0.3385
 5026TIP3    H136637   5.841   2.536   1.676  0.7549 -0.5968 -0.7895
 5026TIP3    H236638   5.919   2.584   1.797  1.2426 -1.3782 -0.7845
 5027TIP3   OH236639   5.409   1.746   0.381  0.0398 -0.2305 -0.0941
 5027TIP3    H136640   5.392   1.694   0.302  0.2968 -0.7248  0.1695
 5027TIP3    H236641   5.498   1.722   0.407  0.6500  1.3015 -0.6871
 5028TIP3   OH236642   4.903   2.733   2.551 -0.2140 -0.1322 -0.4356
 5028TIP3    H136643   4.876   2.677   2.624  0.9170 -0.2683 -0.1056
 5028TIP3    H236644   4.981   2.777   2.582  0.6380 -0.6395 -1.7736
 5029TIP3   OH236645   0.632   0.585   1.963  0.0678  0.3446 -0.5864
 5029TIP3    H136646   0.546   0.546   1.977  0.1278  0.2758 -0.3988
 5029TIP3    H236647   0.691   0.532   2.018  0.2694  0.2316 -0.9098
 5030TIP3   OH236648   5.612   4.426   1.166 -0.5408  0.5121  0.3736
 5030TIP3    H136649   5.669   4.496   1.198  0.5626  0.0783 -0.5839
 5030TIP3    H236650   5.653   4.345   1.196 -2.2384  0.2357  2.1678
 5031TIP3   OH236651   5.529   6.531   2.510 -0.8776 -0.2161  0.4373
 5031TIP3    H136652   5.618   6.502   2.489 -0.9743 -1.5172  1.6617
 5031TIP3    H236653   5.528   6.624   2.488  0.4654 -0.4054 -0.5597
 5032TIP3   OH236654   3.906   3.068   6.947  0.3422 -0.1014 -0.0966
 5032TIP3    H136655   3.951   3.122   7.012  0.0670 -1.0597  0.9228
 5032TIP3    H236656   3.852   3.129   6.898 -1.4506  0.3535  2.2852
 5033TIP3   OH236657   1.759   1.475   1.762  0.3947  0.1103  0.0626
 5033TIP3    H136658   1.737   1.427   1.842 -1.0460 -0.3533 -0.5878
 5033TIP3    H236659   1.832   1.425   1.724 -0.1483 -0.7605  0.1358
 5034TIP3   OH236660   1.192   0.502   0.251  0.5291  0.0105 -0.5179
 5034TIP3    H136661   1.192   0.425   0.194 -1.1656 -0.2917 -0.1725
 5034TIP3    H236662   1.149   0.570   0.199 -0.8470 -0.2119  0.2873
 5035TIP3   OH236663   1.643   0.339   7.403 -0.3186  0.3568  0.4711
 5035TIP3    H136664   1.611   0.394   7.475 -1.3654  1.0440 -0.4785
 5035TIP3    H236665   1.666   0.256   7.445  1.4283  1.5050  1.9729
 5036TIP3   OH236666   6.211   5.309   1.695  0.1973  0.4169  0.1264
 5036TIP3    H136667   6.278   5.351   1.749  0.5869 -0.4009  0.2920
 5036TIP3    H236668   6.190   5.228   1.741  0.0820  0.0124 -0.6260
 5037TIP3   OH236669   3.314   2.537   8.444 -0.2580 -0.0958  0.5808
 5037TIP3    H136670   3.325   2.551   8.538  0.2561  1.0056  0.3777
 5037TIP3    H236671   3.239   2.478   8.437  0.9635 -1.8851  1.7463
 5038TIP3   OH236672   6.750   2.387   7.346 -0.2301 -0.2411  0.7602
 5038TIP3    H136673   6.787   2.300   7.332  0.1944 -0.1295  1.1668
 5038TIP3    H236674   6.824   2.446   7.335 -0.6627  0.1315 -0.2314
 5039TIP3   OH236675   4.139   1.302   2.366  0.3651  0.3709  0.6987
 5039TIP3    H136676   4.215   1.271   2.415  1.2805 -1.7820 -1.8559
 5039TIP3    H236677   4.176   1.350   2.292 -0.8058  0.0579 -0.1164
 5040TIP3   OH236678   2.517   4.468   1.673  0.1685 -0.1335 -0.1963
 5040TIP3    H136679   2.548   4.413   1.745 -1.2437 -2.0940 -0.9900
 5040TIP3    H236680   2.535   4.558   1.702  0.2512 -0.8786  2.3078
 5041TIP3   OH236681   3.612   5.283   1.274  0.3675 -0.7837  0.2605
 5041TIP3    H136682   3.671   5.354   1.301  0.1873 -1.3488  2.2804
 5041TIP3    H236683   3.651   5.204   1.310 -1.2412 -1.2532  1.0531
 5042TIP3   OH236684   2.213   2.671   7.272  0.0160  0.4931 -0.1027
 5042TIP3    H136685   2.198   2.645   7.181  1.4773  1.8597 -0.7926
 5042TIP3    H236686   2.217   2.589   7.321 -0.4310 -0.2851 -1.3207
 5043TIP3   OH236687   3.419   5.893   7.391 -0.1140  0.0536 -0.7933
 5043TIP3    H136688   3.352   5.825   7.402 -0.3329  0.5548  1.3387
 5043TIP3    H236689   3.369   5.972   7.373  0.0051  0.1098 -0.8716
 5044TIP3   OH236690   3.721   0.904   7.909  0.3141 -0.0749  0.0055
 5044TIP3    H136691   3.798   0.927   7.857  1.0914 -1.8000  0.3363
 5044TIP3    H236692   3.712   0.975   7.972 -0.2522  1.7352 -1.9979
 5045TIP3   OH236693   1.220   4.230   2.073  0.0428 -0.5936  0.3544
 5045TIP3    H136694   1.204   4.137   2.089 -0.4529 -0.1367  2.8768
 5045TIP3    H236695   1.211   4.271   2.158  0.1468  1.8168 -0.7201
 5046TIP3   OH236696   3.825   3.190   1.296 -0.6898  0.0720  0.0554
 5046TIP3    H136697   3.825   3.221   1.386  0.6227  0.1242  0.0598
 5046TIP3    H236698   3.733   3.168   1.278 -0.9354 -0.2028  1.4867
 5047TIP3   OH236699   2.040   1.966   1.500  0.0551  0.5609  0.4288
 5047TIP3    H136700   2.107   1.942   1.436 -0.0552  0.4525  0.3543
 5047TIP3    H236701   1.991   2.036   1.458 -1.6087 -1.1441 -0.6656
 5048TIP3   OH236702   1.995   2.680   1.005 -0.1072  0.4075  0.2800
 5048TIP3    H136703   1.909   2.720   1.013  0.4777  1.5171  1.2969
 5048TIP3    H236704   1.996   2.612   1.073  0.1461  1.0083  0.8782
 5049TIP3   OH236705   6.726   3.043   2.432 -0.4061 -0.0127  0.1190
 5049TIP3    H136706   6.782   3.100   2.484  1.0398 -2.7118  1.6899
 5049TIP3    H236707   6.654   3.020   2.491 -1.6113  0.9807 -0.8848
 5050TIP3   OH236708   4.952   0.685   7.645  0.0455 -0.0758 -0.0870
 5050TIP3    H136709   4.873   0.648   7.685  0.4654 -1.6122 -0.6359
 5050TIP3    H236710   4.997   0.611   7.606  1.6854  0.8056  0.0398
 5051TIP3   OH236711   5.528   4.232   2.284 -0.6417  0.1153 -0.9341
 5051TIP3    H136712   5.572   4.164   2.233  1.0218  1.3425 -1.2246
 5051TIP3    H236713   5.552   4.214   2.375 -0.8812 -0.1477 -0.9212
 5052TIP3   OH236714   2.971   1.984   1.532 -0.6595  0.4400  0.1459
 5052TIP3    H136715   3.023   2.043   1.478  0.9218 -0.7070  0.3265
 5052TIP3    H236716   3.009   1.992   1.620 -1.9245  0.8336  0.6781
 5053TIP3   OH236717   3.113   4.810   0.053  0.7173 -0.6333  0.5515
 5053TIP3    H136718   3.173   4.872   0.092 -0.3083  0.5263  0.3410
 5053TIP3    H236719   3.055   4.783   0.125 -1.1863  1.5207 -0.0550
 5054TIP3   OH236720   0.414   3.017   0.241 -0.2797 -0.3174  0.0774
 5054TIP3    H136721   0.448   2.942   0.192  2.4111  0.0082  1.2799
 5054TIP3    H236722   0.430   2.995   0.333 -0.6555  1.1638  0.5243
 5055TIP3   OH236723   6.270   6.148   8.499  0.2507 -0.0973 -0.1350
 5055TIP3    H136724   6.333   6.143   8.427 -1.1450 -0.6077 -1.3722
 5055TIP3    H236725   6.268   6.241   8.522  1.0458  0.0086 -0.4412
 5056TIP3   OH236726   2.807   1.749   7.167  0.0329 -0.0393 -0.0001
 5056TIP3    H136727   2.728   1.705   7.198  0.0082  0.5055  0.7281
 5056TIP3    H236728   2.865   1.752   7.243  0.9026 -0.7151 -0.6022
 5057TIP3   OH236729   6.162   4.202   7.904 -0.0593 -0.3734  0.1905
 5057TIP3    H136730   6.191   4.238   7.820 -0.1199 -0.4422  0.1396
 5057TIP3    H236731   6.228   4.136   7.925 -0.1408 -0.4812  0.1089
 5058TIP3   OH236732   1.891   4.119   7.104  0.4784  0.5159  0.1239
 5058TIP3    H136733   1.915   4.167   7.025  0.6213  0.0747 -0.0988
 5058TIP3    H236734   1.796   4.127   7.110  0.2479 -0.9613 -1.0751
 5059TIP3   OH236735   1.187   4.502   1.994  0.1156 -0.1363  0.2605
 5059TIP3    H136736   1.271   4.541   1.968 -0.4868 -0.1662 -1.9692
 5059TIP3    H236737   1.207   4.411   2.012  0.4668 -0.3532 -1.0961
 5060TIP3   OH236738   4.150   5.738   1.884 -0.1978  0.1285  0.2981
 5060TIP3    H136739   4.060   5.726   1.917  0.2489 -0.8805  1.2080
 5060TIP3    H236740   4.198   5.774   1.959  0.6304 -1.3375  0.4958
 5061TIP3   OH236741   1.957   5.432   2.292  0.3531  0.3282 -0.0010
 5061TIP3    H136742   2.028   5.399   2.346  3.1416  2.3984 -2.0835
 5061TIP3    H236743   1.950   5.369   2.220  0.3158  0.3099  0.0185
 5062TIP3   OH236744   5.643   0.975   2.270  0.6187 -0.7639 -0.3442
 5062TIP3    H136745   5.615   1.058   2.232  1.3137  0.0742  0.8685
 5062TIP3    H236746   5.563   0.937   2.306  0.5255  0.1895  0.5157
 5063TIP3   OH236747   0.375   6.596   8.067  0.4994 -0.3905 -0.4833
 5063TIP3    H136748   0.311   6.659   8.033  1.1472  0.2971 -0.4747
 5063TIP3    H236749   0.381   6.529   8.000  0.4120  0.0051 -0.8935
 5064TIP3   OH236750   4.150   2.792   7.524  0.0899 -0.6456  0.5912
 5064TIP3    H136751   4.159   2.705   7.485  1.2647 -0.4569  0.4098
 5064TIP3    H236752   4.066   2.789   7.570  0.2839 -1.9949  0.8983
 5065TIP3   OH236753   0.959   4.100   0.263 -0.0184 -0.0203  0.3436
 5065TIP3    H136754   0.907   4.040   0.210 -1.1625  0.8451  0.4509
 5065TIP3    H236755   0.907   4.115   0.342  0.6992  0.3457  0.7622
 5066TIP3   OH236756   5.675   1.702   7.062 -0.2819 -0.1884  0.3166
 5066TIP3    H136757   5.608   1.653   7.015 -0.4977 -1.2968  1.7157
 5066TIP3    H236758   5.688   1.653   7.144  0.4384  1.3837  1.1879
 5067TIP3   OH236759   3.528   5.609   7.695  0.1401  0.3997  0.0676
 5067TIP3    H136760   3.568   5.582   7.778  1.5978 -0.7914 -0.9644
 5067TIP3    H236761   3.491   5.528   7.659  0.0780  0.7653 -0.7181
 5068TIP3   OH236762   2.358   1.322   0.109  0.1341 -0.5455  0.0143
 5068TIP3    H136763   2.439   1.281   0.141  0.1162 -0.7610 -0.2180
 5068TIP3    H236764   2.295   1.251   0.108 -0.1968 -0.2731  0.6708
 5069TIP3   OH236765   5.429   1.616   0.763 -0.2345  0.0460  0.6550
 5069TIP3    H136766   5.375   1.585   0.837  0.1028 -1.2122  0.4085
 5069TIP3    H236767   5.481   1.687   0.800 -2.7842  2.0802  0.6326
 5070TIP3   OH236768   6.454   5.304   1.522 -0.5123 -0.1172 -0.2961
 5070TIP3    H136769   6.366   5.276   1.546 -0.7119  1.6059  1.1469
 5070TIP3    H236770   6.454   5.399   1.533  1.3975 -0.0183 -0.7090
 5071TIP3   OH236771   2.873   4.899   2.129 -0.5125  0.2339 -0.4822
 5071TIP3    H136772   2.937   4.896   2.058 -0.0364  0.9234 -0.0929
 5071TIP3    H236773   2.915   4.952   2.197 -1.1974  0.0710  0.0787
 5072TIP3   OH236774   4.152   3.481   7.018 -0.0458  0.4604  0.1667
 5072TIP3    H136775   4.216   3.494   6.948  0.6988  1.0954  0.9356
 5072TIP3    H236776   4.192   3.521   7.095 -0.1782 -1.5124  1.3356
 5073TIP3   OH236777   1.353   0.914   0.596  0.1919  0.4289  0.1814
 5073TIP3    H136778   1.361   0.878   0.685  4.5936  0.8669  0.1508
 5073TIP3    H236779   1.443   0.922   0.565 -1.0761  2.4079 -3.5322
 5074TIP3   OH236780   4.887   5.296   1.827 -0.0512  0.0512 -0.9077
 5074TIP3    H136781   4.865   5.377   1.782  0.6468  0.3594 -0.7059
 5074TIP3    H236782   4.957   5.320   1.888 -0.1583 -0.6035 -0.5109
 5075TIP3   OH236783   3.598   2.956   8.637  0.2535  0.6037 -0.1286
 5075TIP3    H136784   3.580   2.905   8.558  0.9440  0.3031 -0.0951
 5075TIP3    H236785   3.511   2.984   8.668 -0.0230  0.7101 -0.9795
 5076TIP3   OH236786   5.206   1.863   0.803 -0.0276  0.0537 -0.0141
 5076TIP3    H136787   5.276   1.869   0.868  3.1228 -0.6163 -3.0466
 5076TIP3    H236788   5.208   1.771   0.774 -1.7021  0.1945 -0.6743
 5077TIP3   OH236789   0.853   2.390   7.313  0.5584 -0.4846 -0.1586
 5077TIP3    H136790   0.791   2.325   7.344 -1.0507  1.1451  0.2336
 5077TIP3    H236791   0.931   2.340   7.288 -0.0130 -2.3633  1.6058
 5078TIP3   OH236792   3.033   3.481   2.116  0.2777 -0.4732  0.2598
 5078TIP3    H136793   3.050   3.479   2.210  1.0265  3.6809  0.3844
 5078TIP3    H236794   2.938   3.486   2.109  0.2800  0.9969  0.9442
 5079TIP3   OH236795   2.484   6.286   0.948  0.0899 -0.1567  0.2290
 5079TIP3    H136796   2.453   6.365   0.905  1.2070  0.9634  1.4200
 5079TIP3    H236797   2.436   6.284   1.031  1.3382  0.2475  0.9813
 5080TIP3   OH236798   1.188   2.514   8.229  0.1382 -0.9666 -0.1170
 5080TIP3    H136799   1.127   2.534   8.300 -0.5416  1.2384 -1.2227
 5080TIP3    H236800   1.263   2.570   8.246  0.3934 -1.1575 -0.6019
 5081TIP3   OH236801   3.691   6.297   0.400  0.8582 -0.2410 -0.4405
 5081TIP3    H136802   3.705   6.357   0.473 -2.2943 -0.2804  0.3171
 5081TIP3    H236803   3.692   6.210   0.439  0.5075 -0.3548 -0.6816
 5082TIP3   OH236804   0.563   6.618   2.179  0.2061  0.1542  0.1595
 5082TIP3    H136805   0.635   6.609   2.116  1.3617 -0.4868  1.5131
 5082TIP3    H236806   0.497   6.555   2.149  0.4348  0.3518 -0.7853
 5083TIP3   OH236807   5.544   0.108   0.193 -0.4494 -1.1977  0.5598
 5083TIP3    H136808   5.541   0.183   0.134 -1.2309 -0.8717  1.0072
 5083TIP3    H236809   5.498   0.039   0.147  0.8866 -1.6416 -0.1600
 5084TIP3   OH236810   3.867   6.429   8.226 -0.0699 -0.1978  0.1467
 5084TIP3    H136811   3.813   6.360   8.265 -0.4417 -0.3905 -0.6957
 5084TIP3    H236812   3.917   6.385   8.157  0.4221  0.1857  0.2489
 5085TIP3   OH236813   0.340   4.614   7.185 -0.1187 -0.3082 -0.0674
 5085TIP3    H136814   0.399   4.626   7.259  0.1941 -0.2121 -0.3319
 5085TIP3    H236815   0.316   4.522   7.188 -0.9964 -0.0687  0.8200
 5086TIP3   OH236816   4.129   3.710   1.690 -0.3650 -0.6349 -0.2061
 5086TIP3    H136817   4.092   3.622   1.684  0.6144 -1.0510 -0.3081
 5086TIP3    H236818   4.155   3.731   1.600 -1.3993  0.1409 -0.3521
 5087TIP3   OH236819   2.836   2.856   7.111  0.1839 -0.8676  0.0181
 5087TIP3    H136820   2.848   2.767   7.146 -0.9255 -0.0602  2.8049
 5087TIP3    H236821   2.919   2.900   7.128  0.1720 -0.9217  0.2241
 5088TIP3   OH236822   0.040   0.726   1.062  0.2935 -0.2876  0.4860
 5088TIP3    H136823  -0.031   0.717   1.125  0.4756 -0.2179  0.6990
 5088TIP3    H236824  -0.001   0.768   0.986 -0.0040 -0.6914  0.4214
 5089TIP3   OH236825   4.188   5.339   8.660 -0.0362  0.2005  0.3642
 5089TIP3    H136826   4.222   5.281   8.592  1.0644  1.1485  0.0778
 5089TIP3    H236827   4.202   5.427   8.626 -0.3858  0.6694  1.3929
 5090TIP3   OH236828   6.643   6.109   8.759 -0.5196  0.4093  0.0757
 5090TIP3    H136829   6.719   6.162   8.734 -1.1512  1.3503  0.1183
 5090TIP3    H236830   6.627   6.054   8.683  0.0645  0.3622 -0.0212
 5091TIP3   OH236831   6.378   2.281   1.150 -0.1116  0.5409 -0.4349
 5091TIP3    H136832   6.459   2.331   1.136  0.2852 -0.4312 -1.8123
 5091TIP3    H236833   6.401   2.215   1.215  0.1412  0.4143 -0.6501
 5092TIP3   OH236834   4.489   6.363   0.493 -0.0192  0.0285  0.2145
 5092TIP3    H136835   4.458   6.430   0.431 -0.2715 -1.8012 -1.7629
 5092TIP3    H236836   4.580   6.387   0.510 -0.7406  2.1743  1.4822
 5093TIP3   OH236837   1.338   1.622   7.388 -0.2420 -0.2824  0.8106
 5093TIP3    H136838   1.291   1.653   7.311  0.9330 -0.2253  0.0888
 5093TIP3    H236839   1.373   1.702   7.429 -1.1708 -0.2761  1.6350
 5094TIP3   OH236840   0.196   1.856   1.164 -0.6095 -0.2433  0.2984
 5094TIP3    H136841   0.255   1.898   1.227  0.8092 -1.8970  0.1514
 5094TIP3    H236842   0.163   1.927   1.110  0.1942  0.8874  1.2582
 5095TIP3   OH236843   1.079   1.077   1.458 -0.1001 -1.0022 -0.1016
 5095TIP3    H136844   1.062   1.066   1.551 -0.6765 -4.1345 -0.4501
 5095TIP3    H236845   1.142   1.149   1.452 -2.0216  1.0615  2.4274
 5096TIP3   OH236846   2.490   5.920   8.477 -0.3844  0.0874 -0.0458
 5096TIP3    H136847   2.410   5.971   8.494 -1.4576 -2.0700  1.9475
 5096TIP3    H236848   2.480   5.889   8.387 -1.2245  0.7876 -0.2101
 5097TIP3   OH236849   3.533   1.467   7.847 -0.1658 -0.9860 -0.0263
 5097TIP3    H136850   3.605   1.404   7.836  0.5631 -0.4735  1.5327
 5097TIP3    H236851   3.462   1.417   7.886 -0.5239 -1.3880 -1.1436
 5098TIP3   OH236852   0.336   1.790   8.430  0.2345  0.0074  0.1356
 5098TIP3    H136853   0.293   1.796   8.345  0.7281 -2.0466 -0.3249
 5098TIP3    H236854   0.344   1.696   8.446  2.0592  0.3283  1.4601
 5099TIP3   OH236855   1.712   3.536   8.270 -0.8136  0.1209 -0.0712
 5099TIP3    H136856   1.653   3.468   8.303 -0.0828 -0.3997  0.2178
 5099TIP3    H236857   1.723   3.515   8.177 -0.2825 -0.4113  0.1016
 5100TIP3   OH236858   3.698   4.506   0.691  0.2655 -0.0671 -0.4795
 5100TIP3    H136859   3.710   4.598   0.711  0.4599 -0.2217  0.1275
 5100TIP3    H236860   3.775   4.463   0.729 -0.2872 -0.5915  0.0687
 5101TIP3   OH236861   6.323   5.716   0.815  0.1223 -0.0004 -0.2218
 5101TIP3    H136862   6.316   5.622   0.832 -0.2616 -0.1209 -1.0163
 5101TIP3    H236863   6.414   5.729   0.787 -0.1481 -0.3417 -1.2974
 5102TIP3   OH236864   5.992   1.230   0.746  0.2773 -0.6399  0.0046
 5102TIP3    H136865   5.936   1.159   0.715 -0.7429 -0.1857  0.7824
 5102TIP3    H236866   5.943   1.271   0.817  1.2708  0.2418  0.2056
 5103TIP3   OH236867   5.253   2.667   8.802  0.1273 -0.2216 -0.2357
 5103TIP3    H136868   5.200   2.620   8.867 -0.4799  1.3932  0.4809
 5103TIP3    H236869   5.281   2.599   8.741 -0.6471 -1.5263  0.8004
 5104TIP3   OH236870   1.542   1.181   0.775  0.4882 -0.3342 -0.4347
 5104TIP3    H136871   1.549   1.086   0.776 -0.9374 -0.5644 -3.1131
 5104TIP3    H236872   1.605   1.209   0.708 -1.2805  0.2502 -1.9501
 5105TIP3   OH236873   1.948   3.999   1.828  0.4782  0.8549 -0.0158
 5105TIP3    H136874   1.977   4.054   1.755  0.6098 -0.1692 -0.7740
 5105TIP3    H236875   1.895   4.056   1.882 -2.1939  0.9734 -2.5274
 5106TIP3   OH236876   5.788   6.429   2.452  0.4771  0.1917 -0.5052
 5106TIP3    H136877   5.801   6.344   2.409  1.0350  0.7119 -1.3983
 5106TIP3    H236878   5.872   6.447   2.496  0.8678  0.9054 -1.4895
 5107TIP3   OH236879   0.364   4.576   0.671  0.0464  0.3178  0.0408
 5107TIP3    H136880   0.358   4.536   0.584 -2.5858  1.7751 -0.5936
 5107TIP3    H236881   0.334   4.508   0.731 -1.1369  0.2353 -0.6084
 5108TIP3   OH236882   4.968   6.082   1.570  0.5361  0.2273  0.0316
 5108TIP3    H136883   4.912   6.074   1.647 -1.0747  0.6551 -1.0594
 5108TIP3    H236884   5.036   6.145   1.596 -0.4053  0.9229  0.8558
 5109TIP3   OH236885   2.633   3.871   6.581 -0.3353  0.6677  0.3360
 5109TIP3    H136886   2.540   3.881   6.597 -0.5439 -1.4333  0.8387
 5109TIP3    H236887   2.674   3.942   6.631 -1.5328 -0.1142  2.5939
 5110TIP3   OH236888   6.554   3.379   2.290 -0.0085  0.1184  0.1457
 5110TIP3    H136889   6.505   3.341   2.363  0.8841  0.4932  0.9750
 5110TIP3    H236890   6.495   3.444   2.252 -0.5841 -0.2720  0.3690
 5111TIP3   OH236891   6.545   1.811   7.434  0.1231 -0.0656 -0.0055
 5111TIP3    H136892   6.581   1.899   7.421 -2.4783  0.8158 -2.0592
 5111TIP3    H236893   6.588   1.758   7.367  2.2446 -0.6616  1.6992
 5112TIP3   OH236894   4.985   1.278   7.448 -0.3292  0.1147  0.3694
 5112TIP3    H136895   5.026   1.319   7.372 -0.8319 -0.7575 -0.3991
 5112TIP3    H236896   4.978   1.348   7.513  0.4236  0.7884 -0.2645
 5113TIP3   OH236897   2.450   2.532   7.991 -0.3360  0.0517  0.3398
 5113TIP3    H136898   2.495   2.540   8.075 -0.9744  1.8315  0.5689
 5113TIP3    H236899   2.509   2.573   7.928  0.4382 -1.8703 -0.2406
 5114TIP3   OH236900   3.221   5.091   1.049  0.4365 -0.3012 -0.1787
 5114TIP3    H136901   3.307   5.059   1.080  0.6948  1.6274  1.2855
 5114TIP3    H236902   3.158   5.034   1.093  0.9416 -0.9890 -0.3283
 5115TIP3   OH236903   5.388   5.815   0.550 -0.5275  0.0025  0.1822
 5115TIP3    H136904   5.440   5.745   0.589  1.2948  0.3803 -1.4527
 5115TIP3    H236905   5.444   5.892   0.553 -0.9662  0.4457 -1.5561
 5116TIP3   OH236906   6.691   0.094   0.539  0.0401  0.1485 -0.0941
 5116TIP3    H136907   6.761   0.118   0.600  0.0145 -1.0924  0.4499
 5116TIP3    H236908   6.633   0.038   0.590 -0.0110 -0.8794 -1.2335
 5117TIP3   OH236909   2.290   0.623   8.632  0.2624 -0.3085  0.4532
 5117TIP3    H136910   2.300   0.590   8.543 -1.5871 -1.8777  0.7558
 5117TIP3    H236911   2.371   0.671   8.650  0.5868  0.2598 -2.1322
 5118TIP3   OH236912   5.148   4.531   7.321 -0.5377 -0.2162  0.0420
 5118TIP3    H136913   5.185   4.544   7.234  0.9998  0.2305  0.7324
 5118TIP3    H236914   5.126   4.438   7.324 -0.7096 -0.2194 -0.8375
 5119TIP3   OH236915   0.274   3.429   1.742 -0.0165  0.2811  0.3215
 5119TIP3    H136916   0.342   3.466   1.798  0.6882  0.8967 -0.8948
 5119TIP3    H236917   0.200   3.488   1.753  0.1120  0.3933  0.6009
 5120TIP3   OH236918   0.280   4.832   1.947  0.3998 -0.5228  0.2970
 5120TIP3    H136919   0.353   4.856   1.889 -0.0811 -0.3949 -0.2722
 5120TIP3    H236920   0.201   4.860   1.899  0.0032 -0.0841  1.1704
 5121TIP3   OH236921   5.155   4.016   7.873 -0.5641  0.1794 -0.4438
 5121TIP3    H136922   5.197   3.940   7.913  1.4313  1.8078  0.7468
 5121TIP3    H236923   5.226   4.061   7.827 -1.2020  2.3800  0.5972
 5122TIP3   OH236924   5.837   3.230   0.847 -0.7858 -0.2306 -0.3915
 5122TIP3    H136925   5.896   3.271   0.911 -1.4458  1.9002 -1.0416
 5122TIP3    H236926   5.800   3.304   0.799 -2.0026 -1.6589 -1.7500
 5123TIP3   OH236927   2.100   6.228   0.341  0.5495  0.1414  0.0578
 5123TIP3    H136928   2.091   6.133   0.337  0.9013  0.0934  0.3998
 5123TIP3    H236929   2.152   6.251   0.264  0.8609  0.0114  0.2321
 5124TIP3   OH236930   2.115   4.417   7.085 -0.4956  0.1986  0.9917
 5124TIP3    H136931   2.163   4.383   7.010  0.7712  1.8730  0.9879
 5124TIP3    H236932   2.156   4.376   7.161 -0.7289 -0.2766  0.8645
 5125TIP3   OH236933   5.840   3.101   7.451 -0.4063  0.3367 -0.0071
 5125TIP3    H136934   5.809   3.098   7.542  1.3740 -1.9805  0.6283
 5125TIP3    H236935   5.809   3.019   7.412  0.6212  0.3230 -0.8289
 5126TIP3   OH236936   4.609   2.246   2.165 -0.0043 -0.5423  0.4727
 5126TIP3    H136937   4.680   2.309   2.171 -1.0405  0.7290 -0.2588
 5126TIP3    H236938   4.537   2.286   2.213 -0.4701 -1.4827  0.5812
 5127TIP3   OH236939   2.150   2.522   0.771  0.2342  0.3851  0.1439
 5127TIP3    H136940   2.089   2.587   0.806 -2.4946 -1.6634 -0.3820
 5127TIP3    H236941   2.140   2.446   0.829  0.5250 -0.8097 -1.3027
 5128TIP3   OH236942   2.238   3.680   8.661  0.0745 -0.5671 -0.2039
 5128TIP3    H136943   2.271   3.719   8.579  0.9515 -0.3581  0.2323
 5128TIP3    H236944   2.311   3.688   8.722 -0.6880 -0.4297  0.7060
 5129TIP3   OH236945   5.958   0.964   0.942  0.0366 -0.1679  0.3530
 5129TIP3    H136946   5.873   1.007   0.937  0.5827  0.8749 -3.7055
 5129TIP3    H236947   5.940   0.872   0.921 -0.2243 -0.1695  0.5894
 5130TIP3   OH236948   5.011   6.424   0.842  0.7395 -0.2706 -0.2301
 5130TIP3    H136949   5.099   6.462   0.834  1.5333 -2.1966 -1.1510
 5130TIP3    H236950   5.019   6.336   0.807 -1.5314 -0.5920 -0.1026
 5131TIP3   OH236951   3.226   5.330   7.197  0.3889 -0.0090  0.4255
 5131TIP3    H136952   3.265   5.325   7.110 -0.3366  0.3249  0.0725
 5131TIP3    H236953   3.211   5.238   7.221  0.7504 -0.1090  0.2736
 5132TIP3   OH236954   6.061   2.114   1.841 -0.4046  0.3598  0.1964
 5132TIP3    H136955   6.000   2.041   1.831 -0.1668  0.2163 -0.2381
 5132TIP3    H236956   6.142   2.074   1.873  0.0993  0.2502 -1.1492
 5133TIP3   OH236957   3.655   4.092   8.165 -0.1029 -0.6130  0.0880
 5133TIP3    H136958   3.568   4.104   8.127 -0.2195 -1.9692 -0.1239
 5133TIP3    H236959   3.639   4.082   8.259 -0.0028  0.7420  0.2695
 5134TIP3   OH236960   4.411   1.958   0.719  0.5063 -0.5515 -0.3806
 5134TIP3    H136961   4.375   1.957   0.807  1.3907  1.2393  0.0348
 5134TIP3    H236962   4.412   1.865   0.693 -0.5880 -1.0224  1.1198
 5135TIP3   OH236963   1.876   2.643   7.886 -0.3928  0.3150  0.4489
 5135TIP3    H136964   1.960   2.687   7.880 -0.2191 -0.2220 -3.4824
 5135TIP3    H236965   1.896   2.560   7.931  0.9319  0.6273  0.4763
 5136TIP3   OH236966   0.372   1.264   7.711  0.0507  0.3104 -0.1347
 5136TIP3    H136967   0.349   1.234   7.799 -1.8922  1.7868 -0.0857
 5136TIP3    H236968   0.400   1.355   7.723  2.0677 -0.1601 -0.7846
 5137TIP3   OH236969   3.494   1.228   8.019 -0.0001 -0.1298 -0.3974
 5137TIP3    H136970   3.555   1.217   7.945  1.0116 -0.0863  0.4137
 5137TIP3    H236971   3.501   1.146   8.068 -0.4363 -0.0377 -0.1805
 5138TIP3   OH236972   0.951   2.632   1.294 -0.0324 -0.4079 -0.7344
 5138TIP3    H136973   1.018   2.699   1.308 -0.8348  0.1701  0.5411
 5138TIP3    H236974   0.985   2.578   1.223  1.9640 -0.3731  0.1337
 5139TIP3   OH236975   0.279   0.115   8.722  0.0035  0.8792  0.2742
 5139TIP3    H136976   0.255   0.202   8.753  0.8856  0.8349  1.1247
 5139TIP3    H236977   0.374   0.113   8.727  0.0660  0.2218 -0.7534
 5140TIP3   OH236978   5.046   4.643   0.574 -0.0904  0.1057 -0.0584
 5140TIP3    H136979   5.056   4.678   0.485 -0.4800  0.3154 -0.0217
 5140TIP3    H236980   5.053   4.719   0.631 -0.7760  0.1056  0.0313
 5141TIP3   OH236981   5.036   4.340   0.107  0.4856 -0.2034  0.6455
 5141TIP3    H136982   4.993   4.286   0.041  1.1976 -0.6139  0.5043
 5141TIP3    H236983   5.008   4.429   0.088 -1.3881 -0.5951  1.4050
 5142TIP3   OH236984   0.638   0.528   1.286 -0.3055 -0.0132 -0.0940
 5142TIP3    H136985   0.596   0.531   1.200 -0.6322  1.4501  0.0939
 5142TIP3    H236986   0.600   0.451   1.328 -2.4248  0.9521 -0.1368
 5143TIP3   OH236987   6.793   5.933   0.866 -0.1843 -0.4906  0.1169
 5143TIP3    H136988   6.873   5.984   0.881  0.1570 -0.7595 -0.7352
 5143TIP3    H236989   6.743   5.942   0.947 -0.0071  0.9895  0.0944
 5144TIP3   OH236990   3.959   5.374   7.637  0.2161  0.0816  0.3187
 5144TIP3    H136991   3.884   5.411   7.590 -1.4103 -0.0873  2.6153
 5144TIP3    H236992   4.029   5.438   7.625  0.2438 -0.4085 -3.0481
 5145TIP3   OH236993   4.600   1.150   0.380 -0.9505  0.0357  0.0153
 5145TIP3    H136994   4.570   1.214   0.445 -2.3499  1.6075 -2.0688
 5145TIP3    H236995   4.631   1.203   0.307  0.6641 -1.6853 -0.6264
 5146TIP3   OH236996   5.428   4.395   7.339  0.4745  0.4908 -0.1541
 5146TIP3    H136997   5.367   4.321   7.340  0.9223  0.1209 -0.2100
 5146TIP3    H236998   5.515   4.355   7.342  0.7057  1.0298  0.6178
 5147TIP3   OH236999   0.355   4.956   0.092  0.9428  0.3976  0.0236
 5147TIP3    H137000   0.324   5.039   0.128  0.1314  0.2307 -0.2694
 5147TIP3    H237001   0.396   4.912   0.166 -1.4285 -0.3048  1.0113
 5148TIP3   OH237002   1.501   2.205   0.409 -0.3812 -0.1951 -0.2335
 5148TIP3    H137003   1.509   2.178   0.318  1.2901 -0.8875  0.0934
 5148TIP3    H237004   1.518   2.126   0.459  2.2443  0.8713  0.7188
 5149TIP3   OH237005   6.766   0.498   7.638 -0.1833 -0.0749 -0.0015
 5149TIP3    H137006   6.719   0.478   7.719  0.9971  0.6435  0.9138
 5149TIP3    H237007   6.833   0.430   7.632  1.2032  1.1396  0.9077
 5150TIP3   OH237008   6.471   6.243   0.819 -0.3125 -0.0184 -0.0049
 5150TIP3    H137009   6.565   6.257   0.824 -0.1176 -1.5258  1.4194
 5150TIP3    H237010   6.437   6.276   0.902 -1.0113  0.2160 -0.3749
 5151TIP3   OH237011   4.833   2.635   0.459  0.2620 -0.5907  0.2303
 5151TIP3    H137012   4.811   2.727   0.475 -0.0454 -0.8696  1.4961
 5151TIP3    H237013   4.925   2.637   0.433  0.3860  0.0286  0.6944
 5152TIP3   OH237014   2.850   1.879   7.466 -0.3579  0.5287  0.3211
 5152TIP3    H137015   2.785   1.932   7.419 -1.5247 -0.5743  0.6262
 5152TIP3    H237016   2.915   1.856   7.400 -0.6303  1.0940 -0.1541
 5153TIP3   OH237017   5.702   6.205   0.993 -0.2400  0.2189 -0.0348
 5153TIP3    H137018   5.725   6.252   1.073  0.7030 -0.8891  0.3811
 5153TIP3    H237019   5.627   6.151   1.017 -0.7874  0.8519 -0.2802
 5154TIP3   OH237020   3.729   2.187   0.957  0.1268  0.1982  0.3827
 5154TIP3    H137021   3.683   2.170   1.039  1.0681  1.1879  1.1289
 5154TIP3    H237022   3.786   2.261   0.975  1.2941 -0.3585 -0.8109
 5155TIP3   OH237023   5.948   0.164   8.697  0.7386 -0.8212  0.0792
 5155TIP3    H137024   6.015   0.214   8.744  0.8323  0.3115 -1.1936
 5155TIP3    H237025   5.990   0.140   8.614  0.6631 -2.9925  0.6145
 5156TIP3   OH237026   4.575   2.563   2.265  0.2182  0.5356 -0.0184
 5156TIP3    H137027   4.507   2.498   2.280 -0.2951  0.2845 -2.8629
 5156TIP3    H237028   4.580   2.612   2.347 -3.2892  0.4835  0.3757
 5157TIP3   OH237029   4.598   5.006   1.087  0.5412 -0.4169 -0.2629
 5157TIP3    H137030   4.591   5.097   1.115  0.3395 -0.9773  1.6569
 5157TIP3    H237031   4.692   4.990   1.083  0.5919  0.0906 -1.4338
 5158TIP3   OH237032   0.782   0.878   7.075  0.0213 -0.3359 -0.1803
 5158TIP3    H137033   0.865   0.925   7.085 -0.2896 -0.2461  2.7065
 5158TIP3    H237034   0.730   0.905   7.151 -1.8195 -2.0891 -0.7434
 5159TIP3   OH237035   2.880   4.927   0.458 -0.2867 -0.0638  0.0734
 5159TIP3    H137036   2.864   4.847   0.408 -1.4143  1.2292 -1.7592
 5159TIP3    H237037   2.819   4.921   0.531 -1.6277 -0.1372 -1.0016
 5160TIP3   OH237038   6.223   1.523   1.974 -0.3146  0.0651 -0.3354
 5160TIP3    H137039   6.268   1.439   1.969  2.0092  1.1358  0.8543
 5160TIP3    H237040   6.252   1.572   1.897  0.1540  0.5751  0.1548
 5161TIP3   OH237041   2.892   1.653   0.120  0.3692  0.1605 -0.3190
 5161TIP3    H137042   2.822   1.611   0.071  0.8385 -1.2334  0.1761
 5161TIP3    H237043   2.898   1.604   0.202  3.2855 -1.1593 -1.1728
 5162TIP3   OH237044   0.454   5.792   0.403  0.1060  0.3679  0.1841
 5162TIP3    H137045   0.511   5.752   0.337  2.6577  0.2859  2.3041
 5162TIP3    H237046   0.405   5.719   0.441  2.4628 -0.4394  1.8822
 5163TIP3   OH237047   5.390   1.823   1.164 -0.7208 -0.7548 -0.2909
 5163TIP3    H137048   5.428   1.856   1.246  0.8842  1.4985 -1.8356
 5163TIP3    H237049   5.445   1.748   1.141  0.6308  0.3272 -0.6968
 5164TIP3   OH237050   4.722   4.420   7.840 -0.0872 -0.3990 -0.1054
 5164TIP3    H137051   4.773   4.482   7.790 -0.1873 -0.1171  0.1410
 5164TIP3    H237052   4.780   4.391   7.911  0.0345 -0.7529 -0.3478
 5165TIP3   OH237053   4.182   4.827   8.148  0.2545 -0.0472  0.0426
 5165TIP3    H137054   4.250   4.794   8.089  1.9369  1.9038  0.7747
 5165TIP3    H237055   4.159   4.913   8.113 -0.9487 -0.1316  0.5612
 5166TIP3   OH237056   0.343   5.837   1.640  0.4387 -0.7777 -0.5055
 5166TIP3    H137057   0.328   5.857   1.732  0.3890 -0.3796 -0.5973
 5166TIP3    H237058   0.376   5.919   1.603  0.0713 -0.8179 -0.9276
 5167TIP3   OH237059   2.957   5.510   2.240  0.0106  0.8587  0.2232
 5167TIP3    H137060   2.972   5.547   2.153  0.6670 -1.5144 -0.7527
 5167TIP3    H237061   2.864   5.486   2.241  0.1646  0.2189 -0.1336
 5168TIP3   OH237062   4.240   3.507   1.457  0.4829 -0.4764 -0.0385
 5168TIP3    H137063   4.182   3.450   1.407 -1.9342  1.2265  0.6413
 5168TIP3    H237064   4.277   3.567   1.392 -0.4688 -0.0340 -0.1896
 5169TIP3   OH237065   5.667   5.398   0.714  0.1854 -0.1386  0.5249
 5169TIP3    H137066   5.716   5.475   0.684  0.2367 -1.1732 -2.4129
 5169TIP3    H237067   5.730   5.348   0.765  1.3542 -0.0727 -0.8053
 5170TIP3   OH237068   6.604   5.642   1.972  0.7946  0.0513 -0.6032
 5170TIP3    H137069   6.547   5.710   2.009 -0.0805 -0.8156 -0.3215
 5170TIP3    H237070   6.687   5.687   1.957  0.2311  1.1977 -0.4624
 5171TIP3   OH237071   3.942   0.981   0.976 -0.5191  0.2557  0.5277
 5171TIP3    H137072   3.874   0.956   1.038 -0.8846  1.6875  0.7547
 5171TIP3    H237073   4.021   0.990   1.029 -0.7162  0.9789  0.7081
 5172TIP3   OH237074   0.699   2.475   0.089  0.0776  0.6057 -0.1337
 5172TIP3    H137075   0.648   2.466   0.169 -2.0152  0.0820 -1.4504
 5172TIP3    H237076   0.742   2.560   0.097 -0.3981  0.7262  1.3667
 5173TIP3   OH237077   2.387   6.509   0.822 -0.3587 -0.1276 -0.2821
 5173TIP3    H137078   2.305   6.485   0.779  0.1154 -0.6081 -0.9407
 5173TIP3    H237079   2.429   6.570   0.761 -0.2069  0.0967  0.0403
 5174TIP3   OH237080   4.841   5.466   0.497 -0.7423  0.5079 -0.3334
 5174TIP3    H137081   4.842   5.404   0.570  0.6595  0.3899 -0.4396
 5174TIP3    H237082   4.893   5.424   0.429 -0.9959  1.1693 -0.9534
 5175TIP3   OH237083   5.169   5.051   8.874 -0.5669 -0.6815  0.7653
 5175TIP3    H137084   5.235   5.053   8.804 -1.8952 -1.0367 -0.5378
 5175TIP3    H237085   5.200   4.983   8.934 -0.0530 -1.2792 -0.1440
 5176TIP3   OH237086   1.621   0.065   8.349 -0.0736  0.6029 -0.3658
 5176TIP3    H137087   1.528   0.041   8.350  0.6341 -2.4793 -0.5143
 5176TIP3    H237088   1.644   0.077   8.441 -0.1545 -0.7356 -0.1604
 5177TIP3   OH237089   4.425   0.708   6.494 -0.1514 -0.1269  0.2195
 5177TIP3    H137090   4.482   0.680   6.422  0.8235  1.7659  0.1815
 5177TIP3    H237091   4.445   0.647   6.565  0.6245 -0.5866 -0.3748
 5178TIP3   OH237092   6.676   4.585   7.515  0.0518 -0.2951 -0.1765
 5178TIP3    H137093   6.652   4.550   7.429 -1.1311  0.6115 -0.2379
 5178TIP3    H237094   6.770   4.604   7.508  0.0011 -0.3957 -1.2005
 5179TIP3   OH237095   4.767   2.229   1.249  0.1191  0.5285 -0.0327
 5179TIP3    H137096   4.837   2.197   1.191 -0.4518 -2.4523  0.7664
 5179TIP3    H237097   4.714   2.286   1.193 -0.5538 -2.3972 -2.6369
 5180TIP3   OH237098   0.415   1.576   8.741 -0.4694  0.5789 -0.5003
 5180TIP3    H137099   0.341   1.637   8.740 -1.0833 -0.1470 -0.1090
 5180TIP3    H237100   0.421   1.545   8.651 -1.3159 -0.1539 -0.3109
 5181TIP3   OH237101   3.067   6.415   8.332 -0.2688 -0.1729 -0.5038
 5181TIP3    H137102   3.043   6.506   8.352 -0.6862 -0.4699  0.3860
 5181TIP3    H237103   3.019   6.363   8.396  1.0070 -0.9398 -0.1347
 5182TIP3   OH237104   0.473   3.454   6.535  0.2725  0.1629  0.3191
 5182TIP3    H137105   0.492   3.360   6.533 -0.5582 -0.1187  2.4235
 5182TIP3    H237106   0.522   3.490   6.462 -0.1403 -2.0369 -1.1438
 5183TIP3   OH237107   2.205   6.415   7.131  0.3577  0.5474  0.2300
 5183TIP3    H137108   2.286   6.420   7.081  0.2652  1.6571  0.1647
 5183TIP3    H237109   2.221   6.347   7.197  2.0766  2.0773  1.5056
 5184TIP3   OH237110   1.334   0.220   0.991  0.0200  0.0191  0.1225
 5184TIP3    H137111   1.335   0.228   1.086  1.6232  1.1029  0.0550
 5184TIP3    H237112   1.245   0.244   0.965  0.3169  2.5010  1.1728
 5185TIP3   OH237113   6.409   1.048   7.841 -0.2178 -0.1631 -0.5768
 5185TIP3    H137114   6.474   0.977   7.836 -1.0546 -1.2579  2.1593
 5185TIP3    H237115   6.458   1.122   7.877 -0.0913 -0.4373 -0.1765
 5186TIP3   OH237116   0.999   5.909   7.615 -0.1252 -0.7286  0.0030
 5186TIP3    H137117   1.003   5.819   7.648 -0.0328 -1.0227 -0.8072
 5186TIP3    H237118   0.977   5.962   7.693  1.0126 -1.2920  0.7380
 5187TIP3   OH237119   3.384   3.991   1.069 -0.1465 -0.0040  0.4083
 5187TIP3    H137120   3.433   3.910   1.054 -0.5111  0.1995 -2.3550
 5187TIP3    H237121   3.386   4.037   0.985 -2.1587  1.6358  1.1517
 5188TIP3   OH237122   5.149   5.689   2.139 -0.8461  0.2415  0.0464
 5188TIP3    H137123   5.243   5.679   2.127 -0.5447  3.2660 -0.8254
 5188TIP3    H237124   5.126   5.622   2.204  1.9504 -0.2575  0.6572
 5189TIP3   OH237125   6.618   5.388   2.103  0.0527  0.3711 -0.0971
 5189TIP3    H137126   6.607   5.458   2.038 -0.6035  0.1452 -0.2418
 5189TIP3    H237127   6.712   5.383   2.117  0.1562  0.8421 -0.5737
 5190TIP3   OH237128   5.201   1.327   8.374 -0.5170 -0.2927 -0.0089
 5190TIP3    H137129   5.227   1.284   8.292 -0.6949  0.6956 -0.6030
 5190TIP3    H237130   5.257   1.286   8.441 -0.2585 -1.0056 -0.6369
 5191TIP3   OH237131   5.695   4.023   1.444 -0.1484 -0.1762 -0.3260
 5191TIP3    H137132   5.751   3.969   1.499 -0.0050  0.5967  0.2941
 5191TIP3    H237133   5.744   4.033   1.362  0.3796  0.0675  0.0206
 5192TIP3   OH237134   4.309   2.842   1.457  0.2980  0.2268  0.0007
 5192TIP3    H137135   4.387   2.898   1.463 -0.3780  1.3218 -1.0164
 5192TIP3    H237136   4.290   2.837   1.364 -0.0508 -1.2053  0.1248
 5193TIP3   OH237137   0.392   1.991   2.357  0.2779  0.0619  0.0340
 5193TIP3    H137138   0.485   2.011   2.350  0.5179 -0.9699  0.1710
 5193TIP3    H237139   0.385   1.933   2.432 -0.2755 -0.9970 -0.8132
 5194TIP3   OH237140   4.109   4.388   2.039  0.2911  0.6599 -0.1737
 5194TIP3    H137141   4.107   4.373   2.134  0.1942 -1.3347 -0.4422
 5194TIP3    H237142   4.144   4.476   2.029 -0.0309  1.0451  1.7291
 5195TIP3   OH237143   3.846   2.245   7.589 -0.3427  0.0580 -0.2853
 5195TIP3    H137144   3.881   2.250   7.678 -0.4165 -0.2102 -0.2405
 5195TIP3    H237145   3.920   2.270   7.533  0.0895 -0.9869 -0.2198
 5196TIP3   OH237146   2.984   5.191   7.592 -0.1422  0.0002 -0.3989
 5196TIP3    H137147   2.911   5.129   7.589 -0.2417  0.1313 -0.7142
 5196TIP3    H237148   2.945   5.276   7.571  0.0386  0.1266 -0.2185
 5197TIP3   OH237149   1.065   6.360   8.045 -0.3665  0.6827 -0.5141
 5197TIP3    H137150   1.060   6.358   8.141 -1.0237 -1.1769 -0.5639
 5197TIP3    H237151   0.975   6.376   8.016 -0.0864  1.7755 -0.8374
 5198TIP3   OH237152   4.210   0.061   8.800  0.2776  0.0285 -0.1779
 5198TIP3    H137153   4.297   0.066   8.760  0.3658  1.1080  0.1077
 5198TIP3    H237154   4.184   0.153   8.810  0.6214 -0.1091  3.0173
 5199TIP3   OH237155   5.926   1.723   8.300 -0.5270 -0.5528 -0.8429
 5199TIP3    H137156   5.868   1.791   8.334  0.2521  0.6714 -1.8992
 5199TIP3    H237157   5.961   1.759   8.219  1.9862 -1.0776 -0.0772
 5200TIP3   OH237158   5.455   1.358   7.519  0.3322  0.0376 -0.5733
 5200TIP3    H137159   5.380   1.416   7.534  0.8327  0.4253  0.5575
 5200TIP3    H237160   5.514   1.376   7.593  0.7467 -1.5157 -0.4978
 5201TIP3   OH237161   4.011   5.558   8.340  0.1560 -0.2406  0.1016
 5201TIP3    H137162   4.079   5.577   8.405 -1.2569 -1.1455  1.9594
 5201TIP3    H237163   3.974   5.474   8.368 -0.6099 -0.6108 -1.8419
 5202TIP3   OH237164   0.923   4.678   8.456 -0.3539  0.2160  0.0553
 5202TIP3    H137165   0.992   4.718   8.509 -1.8816  1.7796  0.9414
 5202TIP3    H237166   0.876   4.621   8.516  0.0374 -0.7196 -0.5055
 5203TIP3   OH237167   0.377   4.398   6.452  0.1981  0.3648 -0.2602
 5203TIP3    H137168   0.401   4.403   6.544  0.1255 -0.2064 -0.2100
 5203TIP3    H237169   0.303   4.459   6.443  2.2813  3.0093 -0.6496
 5204TIP3   OH237170   2.453   3.691   8.824 -0.8351  0.5585 -0.3215
 5204TIP3    H137171   2.494   3.771   8.857 -0.7276  0.1480  0.5797
 5204TIP3    H237172   2.525   3.642   8.784 -0.2138 -0.5082  1.9292
 5205TIP3   OH237173   0.082   3.887   0.241  0.5235 -0.0696 -0.2336
 5205TIP3    H137174   0.169   3.851   0.259  0.9041  1.5812  1.5557
 5205TIP3    H237175   0.099   3.977   0.213 -0.6157  0.5316  0.9316
 5206TIP3   OH237176   0.551   1.596   0.287  0.1584 -0.1009  0.1821
 5206TIP3    H137177   0.495   1.562   0.218 -2.1782 -0.0605  1.9406
 5206TIP3    H237178   0.514   1.562   0.368  3.6348 -1.3428  1.4400
 5207TIP3   OH237179   4.446   2.432   8.270  0.5737  0.0433 -0.5797
 5207TIP3    H137180   4.471   2.518   8.236  4.7596 -0.2344  1.2406
 5207TIP3    H237181   4.529   2.387   8.287 -1.3611 -3.1020  1.7846
 5208TIP3   OH237182   5.217   4.167   2.229 -0.6203 -0.2149  0.0496
 5208TIP3    H137183   5.263   4.242   2.191  0.8608  0.7353  3.3092
 5208TIP3    H237184   5.258   4.090   2.188 -0.1911  0.6903 -1.2851
 5209TIP3   OH237185   0.108   2.090   6.738 -0.0119 -0.5854 -0.2929
 5209TIP3    H137186   0.094   2.012   6.791  0.6388 -1.2273 -1.0354
 5209TIP3    H237187   0.038   2.086   6.672 -0.2479 -0.3035 -0.0583
 5210TIP3   OH237188   6.210   2.817   1.696 -0.2675 -0.1513  0.2101
 5210TIP3    H137189   6.196   2.847   1.785  1.5532 -1.4607  0.9970
 5210TIP3    H237190   6.122   2.801   1.662 -0.9951 -2.1927  2.7083
 5211TIP3   OH237191   1.767   6.516   7.658 -0.0682  0.1634 -0.0156
 5211TIP3    H137192   1.830   6.481   7.595  2.1313  1.4683  1.3276
 5211TIP3    H237193   1.759   6.446   7.724  1.2034  0.5603  0.5905
 5212TIP3   OH237194   4.952   4.125   6.407 -0.5080 -0.5581 -0.5523
 5212TIP3    H137195   4.883   4.189   6.423  0.4701  0.7821 -1.5085
 5212TIP3    H237196   4.906   4.049   6.371 -1.6274 -0.2218  0.1036
 5213TIP3   OH237197   2.940   6.541   2.370 -0.4100  0.3762  0.1770
 5213TIP3    H137198   2.925   6.525   2.464 -0.5796 -0.1790  0.0615
 5213TIP3    H237199   2.863   6.589   2.341  0.5010  2.2522  0.7184
 5214TIP3   OH237200   2.398   5.324   0.238  0.6311 -0.3463 -0.1194
 5214TIP3    H137201   2.313   5.280   0.240 -0.1248  1.0633  0.2335
 5214TIP3    H237202   2.421   5.335   0.331  0.1500  1.1816 -0.1628
 5215TIP3   OH237203   4.637   4.176   1.130  0.3913  0.7815 -0.1592
 5215TIP3    H137204   4.621   4.120   1.054 -1.2031  1.2623 -0.2174
 5215TIP3    H237205   4.629   4.265   1.097  3.8213  1.1731 -0.2594
 5216TIP3   OH237206   1.164   1.842   0.342 -0.1426  0.2068 -0.3162
 5216TIP3    H137207   1.184   1.876   0.429  0.8445  1.1259 -0.8881
 5216TIP3    H237208   1.141   1.919   0.290 -1.7095 -0.4403 -0.6340
 5217TIP3   OH237209   6.219   0.429   1.835 -0.3964  0.4859 -0.1814
 5217TIP3    H137210   6.267   0.372   1.894  1.3561  1.0440 -0.9973
 5217TIP3    H237211   6.128   0.423   1.863  0.1768 -0.4393  1.5663
 5218TIP3   OH237212   3.260   5.001   0.159  0.1052  0.2574  0.0254
 5218TIP3    H137213   3.347   4.962   0.170  0.1340 -0.0343 -1.0491
 5218TIP3    H237214   3.260   5.078   0.216  0.1661 -1.1091  1.9492
 5219TIP3   OH237215   3.282   6.132   7.379  0.1295  0.0439 -0.0660
 5219TIP3    H137216   3.223   6.146   7.454 -0.4237 -1.6829 -0.1162
 5219TIP3    H237217   3.258   6.200   7.316 -1.3371 -0.1720  0.2186
 5220TIP3   OH237218   3.514   0.028   7.892  0.1338 -0.1700  0.5912
 5220TIP3    H137219   3.587   0.050   7.835 -0.9278  3.2992  0.3716
 5220TIP3    H237220   3.541   0.056   7.979 -0.0074 -1.2585  1.0097
 5221TIP3   OH237221   1.355   0.269   0.601 -0.4476  0.2630 -0.1176
 5221TIP3    H137222   1.413   0.228   0.537 -3.2805 -1.7797 -1.5753
 5221TIP3    H237223   1.403   0.263   0.684  1.8797 -0.1739 -1.4152
 5222TIP3   OH237224   1.705   3.022   7.258 -0.0438 -0.2983  0.3910
 5222TIP3    H137225   1.703   3.096   7.197  0.7630  0.0882  0.8200
 5222TIP3    H237226   1.644   2.958   7.220 -0.2827  0.3268 -0.3072
 5223TIP3   OH237227   5.933   0.593   1.537  0.5644  0.0881 -0.7575
 5223TIP3    H137228   6.013   0.646   1.541 -0.8438  2.2636  1.2354
 5223TIP3    H237229   5.868   0.643   1.587 -2.1536 -1.4686 -2.4635
 5224TIP3   OH237230   5.676   0.438   1.216  0.1616  0.1785  0.4327
 5224TIP3    H137231   5.769   0.428   1.234  0.5999  0.2332 -1.5367
 5224TIP3    H237232   5.669   0.427   1.121 -1.6928  1.3213  0.3887
 5225TIP3   OH237233   4.549   4.756   8.637 -0.3338  0.2491 -0.0361
 5225TIP3    H137234   4.491   4.741   8.712  1.6491 -0.5830  1.4371
 5225TIP3    H237235   4.529   4.845   8.608 -0.7182  0.8445  1.9178
 5226TIP3   OH237236   2.702   2.094   2.434 -0.2297 -0.0596  0.1910
 5226TIP3    H137237   2.663   2.178   2.411  0.1157  0.3264  0.9615
 5226TIP3    H237238   2.794   2.102   2.406  0.6614  1.0667  3.0687
 5227TIP3   OH237239   4.895   6.324   8.113 -0.0519  0.1617  0.6608
 5227TIP3    H137240   4.982   6.288   8.095  0.2503  0.3858  1.6433
 5227TIP3    H237241   4.837   6.248   8.107  0.1692  0.0419 -0.1790
 5228TIP3   OH237242   3.137   1.959   7.139 -0.3389  0.2428 -0.4793
 5228TIP3    H137243   3.048   1.968   7.106 -1.8114 -0.4565  2.8876
 5228TIP3    H237244   3.160   2.046   7.171  0.1398  0.3646 -1.1211
 5229TIP3   OH237245   1.306   2.318   2.404  0.5547 -0.0801  0.1480
 5229TIP3    H137246   1.223   2.346   2.442  0.8264  0.5701  0.2816
 5229TIP3    H237247   1.306   2.222   2.413  0.5413  0.0374  1.6547
 5230TIP3   OH237248   1.471   6.557   7.656 -0.4079 -0.3777 -0.0438
 5230TIP3    H137249   1.477   6.465   7.685  2.4646  0.1336  1.3896
 5230TIP3    H237250   1.553   6.573   7.609 -1.3200  1.1954 -1.1805
 5231TIP3   OH237251   5.386   3.888   0.415  0.0871 -0.2039  0.1150
 5231TIP3    H137252   5.319   3.879   0.348  0.2392 -1.5322  0.1111
 5231TIP3    H237253   5.426   3.801   0.421  1.1571  0.3083  0.7943
 5232TIP3   OH237254   2.162   3.376   8.411 -0.9550  0.2547  0.1103
 5232TIP3    H137255   2.101   3.447   8.389 -0.8406  0.5727  0.8032
 5232TIP3    H237256   2.168   3.378   8.506 -2.2328 -1.7661  0.2819
 5233TIP3   OH237257   1.709   5.119   7.581  0.4333  0.0045 -0.2183
 5233TIP3    H137258   1.621   5.112   7.545  1.2711 -2.7502 -2.0485
 5233TIP3    H237259   1.755   5.179   7.522 -0.2307  1.7542  0.9607
 5234TIP3   OH237260   4.278   3.585   6.779  0.1358 -0.0114 -0.0485
 5234TIP3    H137261   4.321   3.499   6.782 -0.0416 -0.0752  2.3912
 5234TIP3    H237262   4.347   3.645   6.749  1.0114 -0.5978  0.7360
 5235TIP3   OH237263   6.356   0.847   8.587  0.2827 -0.4201  0.4963
 5235TIP3    H137264   6.283   0.825   8.645 -0.2276  0.0638  0.0456
 5235TIP3    H237265   6.340   0.795   8.508 -0.9219  1.4757 -0.5747
 5236TIP3   OH237266   0.267   6.586   1.473  0.2973 -0.2753 -0.0531
 5236TIP3    H137267   0.360   6.591   1.453 -0.0282  0.1184 -1.6081
 5236TIP3    H237268   0.262   6.529   1.549  1.6417 -2.2425 -1.3411
 5237TIP3   OH237269   6.257   1.304   8.148 -0.2287  0.4834 -0.3210
 5237TIP3    H137270   6.330   1.335   8.095  0.3715  0.3292  0.3998
 5237TIP3    H237271   6.279   1.214   8.169 -0.6673  0.4108 -0.1693
 5238TIP3   OH237272   0.957   3.865   6.834 -0.2697 -0.7691  1.2092
 5238TIP3    H137273   0.931   3.773   6.834  1.3857 -1.2970 -0.2203
 5238TIP3    H237274   0.895   3.907   6.775 -0.7827 -1.0396  1.5482
 5239TIP3   OH237275   5.498   1.133   1.697  0.0167 -0.3659 -0.2209
 5239TIP3    H137276   5.533   1.220   1.713  1.4225 -0.9326 -0.0773
 5239TIP3    H237277   5.510   1.120   1.603  0.5823 -0.7206 -0.1023
 5240TIP3   OH237278   0.666   2.284   1.697  0.5242  0.7996  0.4063
 5240TIP3    H137279   0.704   2.344   1.632  0.9883 -0.1205 -0.1922
 5240TIP3    H237280   0.705   2.199   1.677  0.4207  0.4269  1.6910
 5241TIP3   OH237281   6.190   3.173   8.630  0.2819 -0.1468 -0.2262
 5241TIP3    H137282   6.182   3.150   8.722  0.1207  1.3683  0.1743
 5241TIP3    H237283   6.263   3.235   8.627  1.7181 -1.8027 -1.4629
 5242TIP3   OH237284   3.771   6.164   0.737 -0.0153  0.1946  0.0648
 5242TIP3    H137285   3.785   6.258   0.722  0.2975  0.1983  0.3436
 5242TIP3    H237286   3.816   6.121   0.664 -1.0335  0.2820 -0.6323
 5243TIP3   OH237287   6.713   3.619   1.480 -0.6263  0.6569  0.3024
 5243TIP3    H137288   6.749   3.612   1.568 -2.8771  0.0151  1.2523
 5243TIP3    H237289   6.623   3.586   1.488 -0.2592 -1.4687 -2.7043
 5244TIP3   OH237290   2.678   0.999   0.020  0.6777  0.5741 -0.0223
 5244TIP3    H137291   2.647   0.922   0.068  1.7444  0.3065  0.2500
 5244TIP3    H237292   2.708   0.964  -0.064  3.3359  0.2982  0.9580
 5245TIP3   OH237293   6.204   2.763   7.791 -0.3467  0.0721 -0.0911
 5245TIP3    H137294   6.272   2.740   7.854 -0.9107  0.0622  0.5329
 5245TIP3    H237295   6.248   2.763   7.706  0.6871  1.2408  0.4286
 5246TIP3   OH237296   6.534   0.068   2.201 -0.1062  0.0920  0.1033
 5246TIP3    H137297   6.455   0.077   2.146 -0.6896 -1.1321  0.6779
 5246TIP3    H237298   6.503   0.018   2.277  1.5615 -1.9644 -0.4700
 5247TIP3   OH237299   3.145   4.846   7.663  0.1425  0.0874  0.2101
 5247TIP3    H137300   3.156   4.892   7.746 -0.4852 -0.7267  0.7697
 5247TIP3    H237301   3.072   4.786   7.678 -0.0307 -0.0284 -0.9589
 5248TIP3   OH237302   4.575   4.198   7.912  0.2646  0.3095 -0.1722
 5248TIP3    H137303   4.632   4.122   7.902  0.2052  0.4030 -1.4241
 5248TIP3    H237304   4.615   4.266   7.858 -0.7485  0.5303 -0.6825
 5249TIP3   OH237305   2.672   4.275   0.166 -0.2404 -0.1442  0.0859
 5249TIP3    H137306   2.659   4.201   0.106 -1.7557  1.1365 -1.2626
 5249TIP3    H237307   2.711   4.343   0.112 -1.1123  0.8562  0.6874
 5250TIP3   OH237308   1.598   0.201   7.942 -0.2757 -0.0854 -0.2826
 5250TIP3    H137309   1.590   0.125   7.885 -0.3937 -0.2464 -0.0544
 5250TIP3    H237310   1.559   0.173   8.025  1.0517 -0.2883  0.3035
 5251TIP3   OH237311   2.812   4.834   1.304  0.0559 -0.6333  0.9967
 5251TIP3    H137312   2.796   4.748   1.342 -1.6986 -0.1300  1.4776
 5251TIP3    H237313   2.803   4.821   1.209 -2.5071 -0.5927  1.1718
 5252TIP3   OH237314   6.625   0.449   1.259  0.0266  0.5452 -1.0624
 5252TIP3    H137315   6.622   0.356   1.282 -1.9675  0.7260 -0.3887
 5252TIP3    H237316   6.702   0.483   1.304  0.7369 -0.7427 -1.2516
 5253TIP3   OH237317   1.622   4.607   8.814 -0.0901 -0.4057 -0.4655
 5253TIP3    H137318   1.646   4.617   8.722  1.1364 -0.6258 -0.1908
 5253TIP3    H237319   1.705   4.595   8.859 -0.5473  1.0580  0.8649
 5254TIP3   OH237320   5.971   0.339   7.713  0.2362 -0.0051  0.3659
 5254TIP3    H137321   6.021   0.414   7.744  0.0497 -1.4285  4.8421
 5254TIP3    H237322   5.882   0.374   7.700  0.5481  0.8977  0.5685
 5255TIP3   OH237323   3.832   2.381   0.368 -0.1322 -0.1176  0.4583
 5255TIP3    H137324   3.909   2.339   0.329 -0.8049 -2.2250  1.2651
 5255TIP3    H237325   3.764   2.313   0.365 -2.2709  1.9322 -0.9899
 5256TIP3   OH237326   0.789   1.171   1.894  0.1151  0.2013  0.2289
 5256TIP3    H137327   0.846   1.121   1.835 -0.7670 -1.1011  0.4232
 5256TIP3    H237328   0.838   1.174   1.976  0.6125  0.5298 -0.0731
 5257TIP3   OH237329   6.117   4.834   0.617  0.5358  0.7993  0.1839
 5257TIP3    H137330   6.188   4.804   0.674  0.1459 -1.5687 -0.5028
 5257TIP3    H237331   6.161   4.883   0.548  1.1216  2.6590  1.7726
 5258TIP3   OH237332   0.410   0.457   1.639  0.2212  0.0034  0.1245
 5258TIP3    H137333   0.504   0.450   1.654  0.3082  0.5342 -0.1773
 5258TIP3    H237334   0.374   0.484   1.724  0.4135  0.4324  0.0710
 5259TIP3   OH237335   0.519   6.285   8.184 -0.4813 -0.0751  0.4379
 5259TIP3    H137336   0.434   6.325   8.206 -0.1282  1.9786 -1.5716
 5259TIP3    H237337   0.583   6.337   8.232 -0.2055  0.0586 -0.0650
 5260TIP3   OH237338   4.167   3.872   6.672  0.9942  0.1954 -0.1886
 5260TIP3    H137339   4.253   3.868   6.631  0.6934 -0.3313 -0.7772
 5260TIP3    H237340   4.121   3.941   6.624  2.0525  2.6389  2.0427
 5261TIP3   OH237341   2.924   2.493   7.580 -0.2477  0.4815 -0.2773
 5261TIP3    H137342   2.890   2.504   7.492 -0.6068  2.4011  0.0416
 5261TIP3    H237343   2.848   2.507   7.637  0.2634  0.8014  0.3490
 5262TIP3   OH237344   5.105   1.601   1.178  0.1531 -0.4203  0.9799
 5262TIP3    H137345   5.024   1.610   1.127  0.5110 -0.5338  0.3744
 5262TIP3    H237346   5.114   1.685   1.224  0.0386 -0.1568  0.5307
 5263TIP3   OH237347   6.262   5.456   0.736 -0.5598  0.5109 -0.0553
 5263TIP3    H137348   6.179   5.453   0.688 -0.5723  0.4308 -0.0305
 5263TIP3    H237349   6.305   5.373   0.714 -1.0023  0.0217  0.8333
 5264TIP3   OH237350   3.733   3.466   7.785  0.0191  0.6698 -0.1662
 5264TIP3    H137351   3.650   3.486   7.743  0.2417 -2.0074 -2.1356
 5264TIP3    H237352   3.785   3.546   7.777 -1.6145  1.7064 -0.7636
 5265TIP3   OH237353   1.167   2.711   8.442 -0.4943 -0.2150 -0.1292
 5265TIP3    H137354   1.208   2.720   8.528 -1.3842 -0.5045  0.3384
 5265TIP3    H237355   1.107   2.786   8.436 -0.9259 -0.5591 -0.2097
 5266TIP3   OH237356   6.793   2.722   7.330 -0.1580  0.4342  0.0442
 5266TIP3    H137357   6.792   2.702   7.423 -0.1067 -1.3047 -0.2933
 5266TIP3    H237358   6.856   2.793   7.321  0.1007  0.3784  1.2833
 5267TIP3   OH237359   4.543   3.183   1.041  0.1425 -0.6183  0.3745
 5267TIP3    H137360   4.574   3.132   0.965  1.6869  0.4947  0.2015
 5267TIP3    H237361   4.468   3.231   1.008 -1.3232 -2.6703  0.5239
 5268TIP3   OH237362   3.814   1.581   7.831 -0.2608  0.2377 -0.3016
 5268TIP3    H137363   3.817   1.676   7.839  0.2468  0.0971  1.6665
 5268TIP3    H237364   3.758   1.552   7.903 -1.3336 -0.9156 -1.5412
 5269TIP3   OH237365   1.434   4.478   7.722  0.6185  0.0270 -0.2087
 5269TIP3    H137366   1.446   4.487   7.817 -0.5189 -1.0029  0.0601
 5269TIP3    H237367   1.520   4.453   7.690  1.2690  1.3897  0.3971
 5270TIP3   OH237368   4.508   1.711   8.685  0.0193 -0.1027  0.5624
 5270TIP3    H137369   4.460   1.675   8.611 -0.3063 -0.9802  1.1834
 5270TIP3    H237370   4.453   1.782   8.718  1.1524  1.7740 -1.3223
 5271TIP3   OH237371   4.001   4.405   0.355  0.3362  0.1280 -0.6549
 5271TIP3    H137372   4.058   4.335   0.388  0.6931  0.3060 -0.8776
 5271TIP3    H237373   3.949   4.362   0.287 -0.2501 -0.1864 -0.0152
 5272TIP3   OH237374   4.876   0.490   0.047 -0.3943  0.1887  0.5444
 5272TIP3    H137375   4.854   0.434  -0.028 -2.5983  1.0818  0.4354
 5272TIP3    H237376   4.956   0.535   0.020 -1.7910  1.4694 -1.9650
 5273TIP3   OH237377   4.619   6.245   8.114 -0.2885 -0.5380  0.2234
 5273TIP3    H137378   4.530   6.278   8.126 -0.4085 -1.2235  1.3399
 5273TIP3    H237379   4.621   6.214   8.023 -0.7591  0.7037 -0.2349
 5274TIP3   OH237380   2.980   2.985   0.919  0.3269 -0.0535 -0.0015
 5274TIP3    H137381   2.951   3.040   0.846 -0.9927  0.7452  1.0784
 5274TIP3    H237382   3.021   2.909   0.877  0.3111  0.7592 -1.5477
 5275TIP3   OH237383   3.425   4.093   6.563 -0.4943  0.0177  0.1292
 5275TIP3    H137384   3.401   4.019   6.617  0.3120 -0.1904  0.2198
 5275TIP3    H237385   3.495   4.137   6.612  0.1653 -0.1078 -0.6697
 5276TIP3   OH237386   6.656   1.843   2.071 -0.2157 -0.3831  0.2070
 5276TIP3    H137387   6.661   1.886   2.156  2.3432 -0.5016  0.1866
 5276TIP3    H237388   6.645   1.915   2.008 -0.7712 -0.1992  0.5005
 5277TIP3   OH237389   3.847   1.852   7.783 -0.2863  0.0412  0.2778
 5277TIP3    H137390   3.798   1.920   7.828  0.3500 -0.0646  1.1465
 5277TIP3    H237391   3.854   1.883   7.693 -1.3210  0.3893  0.3081
 5278TIP3   OH237392   4.999   3.572   0.591 -0.5605  0.5717 -0.0940
 5278TIP3    H137393   5.047   3.526   0.523  0.1406  1.7971 -0.4680
 5278TIP3    H237394   5.065   3.625   0.636 -0.8167 -1.0026  2.2859
 5279TIP3   OH237395   5.842   3.122   1.493 -0.2644  0.1087  0.5152
 5279TIP3    H137396   5.819   3.214   1.478  0.0660  0.2009  0.5681
 5279TIP3    H237397   5.760   3.074   1.478 -0.2850  0.3462 -0.1629
 5280TIP3   OH237398   3.192   0.216   0.801 -0.7331 -0.7309  0.0922
 5280TIP3    H137399   3.176   0.146   0.738 -0.7711 -0.9169  0.3045
 5280TIP3    H237400   3.166   0.296   0.756 -0.5033 -0.8321 -0.2221
 5281TIP3   OH237401   2.851   5.088   8.853  0.1497  0.7835 -0.0686
 5281TIP3    H137402   2.768   5.127   8.879  1.0288  1.5613  1.7753
 5281TIP3    H237403   2.896   5.158   8.805  0.3173  0.8409  0.1738
 5282TIP3   OH237404   0.973   4.297   2.521 -0.5730  0.1782  0.0431
 5282TIP3    H137405   0.957   4.294   2.427 -1.8540  0.2229  0.2369
 5282TIP3    H237406   1.067   4.312   2.529 -0.4504  0.2089 -1.2253
 5283TIP3   OH237407   4.250   3.005   7.639  0.2039  0.2574 -0.3216
 5283TIP3    H137408   4.338   3.018   7.603 -0.4336  0.6660 -1.7929
 5283TIP3    H237409   4.216   2.930   7.592  0.5334 -1.3223  1.8113
 5284TIP3   OH237410   6.485   3.328   7.233  0.8506  0.4223 -0.5668
 5284TIP3    H137411   6.427   3.288   7.168  0.1457  0.5032  0.0005
 5284TIP3    H237412   6.492   3.419   7.206  0.3559  0.5151 -0.3977
 5285TIP3   OH237413   3.976   0.305   2.596  0.5353 -0.0394  0.3608
 5285TIP3    H137414   3.987   0.382   2.651  0.6916 -0.4952  0.9844
 5285TIP3    H237415   4.054   0.303   2.540  0.1431  0.6954 -0.2358
 5286TIP3   OH237416   0.281   5.653   0.939 -0.2767 -0.3527 -0.5175
 5286TIP3    H137417   0.287   5.701   0.856 -1.7904  0.4807 -0.1952
 5286TIP3    H237418   0.369   5.618   0.953  0.8237  2.0237 -0.9773
 5287TIP3   OH237419   0.525   4.016   7.421 -0.1422 -0.4474  0.2664
 5287TIP3    H137420   0.453   4.014   7.358  0.2235  0.3497 -0.2039
 5287TIP3    H237421   0.560   4.105   7.414 -1.1043  0.2316  2.7632
 5288TIP3   OH237422   0.310   4.254   1.455  0.2233  0.2587 -0.2879
 5288TIP3    H137423   0.372   4.203   1.508  0.5272  0.9485  0.0390
 5288TIP3    H237424   0.244   4.283   1.518  1.5322  2.5886  0.1260
 5289TIP3   OH237425   5.266   5.221   0.256  0.2616  0.5143 -0.7069
 5289TIP3    H137426   5.336   5.176   0.304 -0.5881 -1.6555 -1.4011
 5289TIP3    H237427   5.292   5.214   0.164 -1.3414 -1.3455 -1.0853
 5290TIP3   OH237428   1.327   1.007   8.308  0.1335  0.2561 -0.6359
 5290TIP3    H137429   1.269   0.932   8.318 -0.7901  1.0613  0.3373
 5290TIP3    H237430   1.370   1.015   8.394  0.2401  0.8273 -0.7391
 5291TIP3   OH237431   6.387   4.409   7.130 -0.2551  0.2606 -0.4054
 5291TIP3    H137432   6.333   4.351   7.076 -1.5749  2.0177 -1.0548
 5291TIP3    H237433   6.404   4.485   7.075  1.5530  0.4716  0.3787
 5292TIP3   OH237434   1.465   1.851   7.915  0.1944  0.0457  0.2505
 5292TIP3    H137435   1.471   1.919   7.848  2.2899  0.0567  0.3865
 5292TIP3    H237436   1.411   1.890   7.984  0.9347  1.4046  0.1033
 5293TIP3   OH237437   4.989   3.121   8.028 -0.2221 -0.0894  0.1499
 5293TIP3    H137438   5.020   3.167   8.106  0.5987  0.1429 -0.3033
 5293TIP3    H237439   5.038   3.038   8.028  1.4408  0.8370 -1.2783
 5294TIP3   OH237440   3.180   1.423   7.855  0.2541  0.4200 -0.4297
 5294TIP3    H137441   3.142   1.365   7.921  0.1356 -0.7470 -1.4967
 5294TIP3    H237442   3.118   1.496   7.849  0.9812  1.3304  1.7597
 5295TIP3   OH237443   3.718   0.536   0.870 -0.1014  0.7064 -0.4833
 5295TIP3    H137444   3.689   0.616   0.828  0.8291  1.5288  0.3993
 5295TIP3    H237445   3.646   0.474   0.857 -1.9504  2.4269  1.0050
 5296TIP3   OH237446   6.003   2.759   8.554  0.1147 -0.2554 -0.4124
 5296TIP3    H137447   5.957   2.779   8.472  1.1030  1.4741 -0.5988
 5296TIP3    H237448   5.985   2.834   8.611  1.6000 -0.1675 -0.0210
 5297TIP3   OH237449   3.477   0.261   0.168 -0.0876  0.4165 -0.4304
 5297TIP3    H137450   3.502   0.298   0.083  1.4405 -1.6014 -0.9490
 5297TIP3    H237451   3.393   0.218   0.152 -0.9387  1.9693 -0.2954
 5298TIP3   OH237452   0.556   6.491   0.447 -0.3912  0.1295  0.0542
 5298TIP3    H137453   0.643   6.464   0.417  0.2783  1.0738  1.1030
 5298TIP3    H237454   0.536   6.570   0.396  0.0168  0.7603  0.8517
 5299TIP3   OH237455   1.251   1.130   2.438 -0.2671 -0.1904 -0.2724
 5299TIP3    H137456   1.205   1.214   2.442  2.0013  1.1065  0.9561
 5299TIP3    H237457   1.237   1.091   2.524  0.1668 -0.2018 -0.2049
 5300TIP3   OH237458   5.815   3.846   1.586  0.7262 -0.3999  0.6868
 5300TIP3    H137459   5.767   3.767   1.564 -0.0562  0.2046  0.1762
 5300TIP3    H237460   5.830   3.840   1.680 -0.9817 -0.2689  0.9877
 5301TIP3   OH237461   1.848   0.183   8.613 -0.0082  0.0734 -0.6390
 5301TIP3    H137462   1.931   0.192   8.659 -0.8847  3.3213  0.5747
 5301TIP3    H237463   1.863   0.112   8.550  3.0896 -0.5956  0.6579
 5302TIP3   OH237464   2.609   1.777   8.133  0.0576 -0.1258  0.5920
 5302TIP3    H137465   2.601   1.744   8.043 -2.0471 -1.8453  1.3334
 5302TIP3    H237466   2.523   1.764   8.172 -0.1246  3.7133  1.9432
 5303TIP3   OH237467   3.811   0.646   0.147  0.4110 -0.0299 -0.0860
 5303TIP3    H137468   3.724   0.665   0.114  0.1327 -0.0303  0.6328
 5303TIP3    H237469   3.871   0.684   0.082 -0.1203  0.1128 -0.4929
 5304TIP3   OH237470   6.381   6.377   7.727 -0.2552 -0.6145 -0.5762
 5304TIP3    H137471   6.359   6.300   7.781 -0.3970 -1.4961 -1.8404
 5304TIP3    H237472   6.448   6.345   7.666  0.5438  0.5991 -0.3509
 5305TIP3   OH237473   6.281   4.789   8.323  0.0110  0.4305  0.1980
 5305TIP3    H137474   6.209   4.728   8.340  0.5242  0.0376  1.0347
 5305TIP3    H237475   6.252   4.872   8.361 -1.9927  1.6673 -3.5070
 5306TIP3   OH237476   0.874   3.376   8.360 -0.6685 -0.0391  0.2409
 5306TIP3    H137477   0.799   3.430   8.335 -2.0247 -1.3747  1.2354
 5306TIP3    H237478   0.898   3.329   8.280 -2.1687 -1.0361  0.3340
 5307TIP3   OH237479   0.622   4.731   8.266  0.3449  0.2397 -0.3907
 5307TIP3    H137480   0.656   4.797   8.327  0.7680  0.6397 -1.0502
 5307TIP3    H237481   0.614   4.777   8.183  0.4592 -0.4913 -0.8132
 5308TIP3   OH237482   4.634   4.848   8.281 -0.2438 -0.4814  0.5247
 5308TIP3    H137483   4.661   4.882   8.366 -0.6131  2.1191 -0.3262
 5308TIP3    H237484   4.540   4.866   8.276  0.2429  2.0763 -1.4892
 5309TIP3   OH237485   1.337   6.089   2.424  0.1600 -0.6809  0.5801
 5309TIP3    H137486   1.304   6.025   2.488 -2.7543 -0.4355 -0.5350
 5309TIP3    H237487   1.289   6.169   2.443  1.9037  0.4902  0.3149
 5310TIP3   OH237488   5.926   4.837   1.755  0.1577  0.2933  0.3916
 5310TIP3    H137489   6.014   4.843   1.719  0.7889  0.1706  1.8581
 5310TIP3    H237490   5.872   4.890   1.695  0.9771 -0.5669 -1.1911
 5311TIP3   OH237491   2.689   6.008   2.024  0.4570  0.4679  0.4507
 5311TIP3    H137492   2.778   5.984   2.048  0.1392 -1.0711  0.2022
 5311TIP3    H237493   2.673   5.965   1.940 -0.1392  1.6796 -0.0857
 5312TIP3   OH237494   5.388   6.552   7.249 -0.4363 -0.3992  0.1182
 5312TIP3    H137495   5.325   6.515   7.311 -1.6678  0.6730 -0.4508
 5312TIP3    H237496   5.347   6.541   7.163  1.6959 -2.7835 -0.7039
 5313TIP3   OH237497   0.269   1.286   0.510  0.4308  0.5075  0.4642
 5313TIP3    H137498   0.177   1.293   0.486  1.0236  0.2048 -2.1274
 5313TIP3    H237499   0.295   1.376   0.531 -0.0276  0.8907 -0.5588
 5314TIP3   OH237500   6.581   3.989   6.840  0.5535  0.6133  0.3359
 5314TIP3    H137501   6.535   4.072   6.852  1.9611  1.3028  1.1559
 5314TIP3    H237502   6.566   3.941   6.921 -0.4605 -0.0648 -0.2311
 5315TIP3   OH237503   5.266   6.478   0.815  0.3811 -0.1643 -0.3045
 5315TIP3    H137504   5.248   6.537   0.742 -0.6544 -2.1499 -1.7590
 5315TIP3    H237505   5.357   6.451   0.803  0.1750 -0.5794 -0.9495
 5316TIP3   OH237506   2.945   4.275   0.616  0.4240  0.4015  0.1516
 5316TIP3    H137507   2.860   4.318   0.615  0.2745  0.2132  1.6136
 5316TIP3    H237508   3.008   4.348   0.619  0.3252  0.5383 -0.9014
 5317TIP3   OH237509   5.862   6.391   6.999  0.7764  0.3785  0.4069
 5317TIP3    H137510   5.903   6.449   7.063 -0.7974  0.5700  1.2823
 5317TIP3    H237511   5.872   6.304   7.037  0.5998  0.3932  0.4836
 5318TIP3   OH237512   0.366   2.770   1.319  0.0313 -0.9771  0.6361
 5318TIP3    H137513   0.346   2.704   1.386 -1.2428 -1.9206 -0.6107
 5318TIP3    H237514   0.288   2.826   1.316 -0.7731 -2.0792 -1.2846
 5319TIP3   OH237515   1.877   6.489   2.030 -0.0497  0.3519 -0.2868
 5319TIP3    H137516   1.962   6.458   2.061 -0.7977  1.5535  3.4584
 5319TIP3    H237517   1.828   6.410   2.009  1.9045 -0.3686 -2.6804
 5320TIP3   OH237518   0.301   0.026   7.128  0.3800 -0.1800 -0.1175
 5320TIP3    H137519   0.219   0.068   7.102  1.6503  1.4934 -1.6588
 5320TIP3    H237520   0.313  -0.045   7.065 -0.3682 -1.1323  0.7706
 5321TIP3   OH237521   2.728   3.806   0.293  0.7300 -0.1888  0.2351
 5321TIP3    H137522   2.692   3.717   0.304 -1.4362  0.7117  0.9256
 5321TIP3    H237523   2.760   3.829   0.381 -0.7921  0.5369  0.6208
 5322TIP3   OH237524   5.373   2.349   7.730  0.1442 -0.0538 -0.8070
 5322TIP3    H137525   5.431   2.274   7.721 -1.2667 -1.0720 -2.0414
 5322TIP3    H237526   5.295   2.314   7.772 -1.2375  0.2329 -2.9596
 5323TIP3   OH237527   6.413   0.795   8.064  0.3982 -0.4958 -0.2756
 5323TIP3    H137528   6.482   0.859   8.082  0.3298 -0.6447  0.5409
 5323TIP3    H237529   6.438   0.717   8.115 -1.4424  0.1514  1.7614
 5324TIP3   OH237530   2.212   2.582   3.020  0.4451 -0.0512  0.4552
 5324TIP3    H137531   2.300   2.572   3.056  1.3529  0.7226 -1.4196
 5324TIP3    H237532   2.214   2.534   2.938 -0.1686  1.7979 -0.6952
 5325TIP3   OH237533   4.645   4.565   7.540 -0.0165  0.1497 -0.1817
 5325TIP3    H137534   4.710   4.552   7.609 -0.0846 -2.0512 -0.4631
 5325TIP3    H237535   4.683   4.633   7.484  1.1301  0.2941  0.7267
 5326TIP3   OH237536   2.961   1.613   7.789  0.8564 -0.5813 -0.0024
 5326TIP3    H137537   2.980   1.705   7.773  3.2283 -1.2783 -1.7063
 5326TIP3    H237538   2.874   1.599   7.751  1.7480  0.3423 -2.5671
 5327TIP3   OH237539   3.705   0.650   7.141 -0.0871  0.1352 -0.4686
 5327TIP3    H137540   3.644   0.715   7.107 -1.0615  0.1330  1.1812
 5327TIP3    H237541   3.760   0.698   7.203  0.6042 -0.1906 -0.8098
 5328TIP3   OH237542   1.892   1.171   8.207  0.3988  0.3590 -0.3139
 5328TIP3    H137543   1.850   1.257   8.202 -1.0693 -0.3642 -1.1907
 5328TIP3    H237544   1.858   1.133   8.287  0.2595  0.2017 -0.4482
 5329TIP3   OH237545   2.441   2.763   0.943  0.1418  0.5492 -0.3681
 5329TIP3    H137546   2.349   2.780   0.965 -0.1493  1.2725 -2.0140
 5329TIP3    H237547   2.437   2.713   0.861  1.1901 -1.1578  0.5593
 5330TIP3   OH237548   3.866   3.921   0.597  0.0562  0.7444 -0.5170
 5330TIP3    H137549   3.839   3.833   0.621  1.9279  0.2054 -0.2131
 5330TIP3    H237550   3.797   3.953   0.539 -0.5548 -0.9932 -0.7900
 5331TIP3   OH237551   4.527   5.331   8.538 -0.2959 -0.1179  0.4491
 5331TIP3    H137552   4.482   5.394   8.482  1.1934 -0.0991 -0.8053
 5331TIP3    H237553   4.498   5.352   8.627  1.4006  3.5045  0.3108
 5332TIP3   OH237554   1.067   3.741   7.583 -0.0160  0.2031  0.1139
 5332TIP3    H137555   1.001   3.764   7.517  1.2789 -1.5663 -1.9524
 5332TIP3    H237556   1.018   3.690   7.648 -1.0068  0.3468 -0.4894
 5333TIP3   OH237557   5.384   5.959   0.257  0.1143 -0.3208 -0.3890
 5333TIP3    H137558   5.289   5.971   0.250  0.2540  2.0236  0.6909
 5333TIP3    H237559   5.396   5.904   0.335 -0.3507  0.1887  0.0498
 5334TIP3   OH237560   4.741   6.481   0.503 -0.4605  0.6911 -0.6768
 5334TIP3    H137561   4.726   6.459   0.595 -1.5804  0.9988 -0.7665
 5334TIP3    H237562   4.763   6.574   0.503  0.0142  0.5778 -0.6757
 5335TIP3   OH237563   0.982   6.778   0.205  0.0620 -0.1315 -0.1466
 5335TIP3    H137564   0.929   6.807   0.279  0.0350  2.7154 -1.1808
 5335TIP3    H237565   0.927   6.792   0.129  1.0922 -0.3850 -0.9655
 5336TIP3   OH237566   4.955   4.276   2.330 -0.1618 -0.4630 -0.2514
 5336TIP3    H137567   4.863   4.269   2.303 -0.3202  0.4391  0.0298
 5336TIP3    H237568   5.002   4.292   2.248 -0.3034 -0.5580 -0.3520
 5337TIP3   OH237569   1.064   0.065   6.466  0.3208  0.2544 -0.4932
 5337TIP3    H137570   1.086   0.158   6.474 -1.4560  0.8835 -2.0832
 5337TIP3    H237571   1.135   0.027   6.416  1.9262  0.3262  1.5930
 5338TIP3   OH237572   6.147   1.077   7.294 -0.7142 -0.5134  0.1696
 5338TIP3    H137573   6.107   1.125   7.367 -3.1587 -0.5708 -1.0572
 5338TIP3    H237574   6.172   1.145   7.232 -0.3109 -0.5896  0.2435
 5339TIP3   OH237575   3.349   5.982   1.376 -0.2871 -0.0284 -0.8143
 5339TIP3    H137576   3.373   6.048   1.311 -0.7135  0.0991 -0.8453
 5339TIP3    H237577   3.290   6.026   1.436  0.9398  0.1568  0.3127
 5340TIP3   OH237578   2.363   3.092   2.847 -0.1884  0.4592 -0.2869
 5340TIP3    H137579   2.308   3.169   2.863 -0.8510 -0.0261 -0.2130
 5340TIP3    H237580   2.307   3.018   2.867  1.4008 -0.0410  2.8701
 5341TIP3   OH237581   4.768   1.904   1.334 -0.1829 -0.3991  0.1498
 5341TIP3    H137582   4.735   1.970   1.274 -1.6361 -0.4295  0.8715
 5341TIP3    H237583   4.859   1.930   1.351  0.6740 -1.0220 -2.8716
 5342TIP3   OH237584   4.026   2.518   7.775 -0.2298 -0.0727 -0.0230
 5342TIP3    H137585   4.112   2.505   7.735 -0.5721  1.2156 -1.2566
 5342TIP3    H237586   4.006   2.434   7.816  1.5352 -0.4506  0.1619
 5343TIP3   OH237587   0.164   2.370   0.762 -0.0509  0.2151 -0.0510
 5343TIP3    H137588   0.100   2.397   0.828 -1.4128 -1.4696 -0.5944
 5343TIP3    H237589   0.236   2.333   0.812 -0.4517  0.2077  0.5309
 5344TIP3   OH237590   1.673   5.312   7.226 -0.1432  0.1536 -0.7218
 5344TIP3    H137591   1.636   5.400   7.231 -0.8611 -0.2080  0.9013
 5344TIP3    H237592   1.622   5.268   7.159 -0.3517  0.7169 -0.9388
 5345TIP3   OH237593   0.410   6.490   7.641  0.4301 -0.1984  0.4750
 5345TIP3    H137594   0.447   6.478   7.728 -0.2636  0.5714  0.8899
 5345TIP3    H237595   0.332   6.434   7.641 -0.3860  0.9140  0.8783
 5346TIP3   OH237596   6.005   1.133   0.331 -0.5715 -0.3114  0.4979
 5346TIP3    H137597   5.997   1.206   0.392  0.5249  0.6905 -0.5035
 5346TIP3    H237598   6.028   1.174   0.247 -1.2069 -1.7038 -0.4045
 5347TIP3   OH237599   1.723   2.760   1.087  1.2890  0.1503 -0.0201
 5347TIP3    H137600   1.638   2.802   1.103  0.3803 -2.2845  2.1880
 5347TIP3    H237601   1.765   2.758   1.173  2.9939  0.0458 -0.8286
 5348TIP3   OH237602   2.212   2.315   7.989  0.1417  0.2052 -0.4717
 5348TIP3    H137603   2.167   2.398   8.004 -2.1956 -0.8374 -1.1749
 5348TIP3    H237604   2.153   2.248   8.025 -0.6010 -1.4988 -4.3226
 5349TIP3   OH237605   2.175   1.034   0.376  0.0501  0.2790 -0.5556
 5349TIP3    H137606   2.171   1.086   0.296 -0.8192  2.3181  0.7501
 5349TIP3    H237607   2.087   1.000   0.388 -0.0035  0.5597 -0.1149
 5350TIP3   OH237608   1.741   4.973   1.531  0.0851  0.5778 -0.0911
 5350TIP3    H137609   1.679   5.044   1.543 -0.7455  0.5871 -3.4298
 5350TIP3    H237610   1.768   4.949   1.620 -1.8342  3.0474  1.2814
 5351TIP3   OH237611   2.923   3.338   8.441  0.3595  0.2651 -0.0491
 5351TIP3    H137612   2.902   3.310   8.352  0.2731  1.9302 -0.5911
 5351TIP3    H237613   3.017   3.321   8.449  0.7993  1.9297 -1.2057
 5352TIP3   OH237614   2.174   4.934   2.059  0.3665 -0.2759 -0.3325
 5352TIP3    H137615   2.242   4.921   1.993 -0.5522  0.1765 -1.4113
 5352TIP3    H237616   2.121   5.006   2.024 -0.1991 -0.0872  0.8692
 5353TIP3   OH237617   6.341   5.022   8.476 -0.1528 -0.4768 -0.0294
 5353TIP3    H137618   6.409   4.965   8.513 -0.0498 -1.2795 -1.3927
 5353TIP3    H237619   6.389   5.095   8.438 -0.1878 -0.1858  0.4717
 5354TIP3   OH237620   5.246   2.296   0.607  0.7765  0.0175 -0.2413
 5354TIP3    H137621   5.232   2.356   0.534 -0.0389 -0.4995 -0.5236
 5354TIP3    H237622   5.221   2.348   0.684  2.3441  0.8084 -0.2172
 5355TIP3   OH237623   4.367   0.510   8.494 -0.4953 -0.2277 -0.2282
 5355TIP3    H137624   4.397   0.492   8.405 -0.0494  0.5423 -0.2317
 5355TIP3    H237625   4.299   0.443   8.509  0.3321 -1.1964 -0.6589
 5356TIP3   OH237626   6.315   0.468   7.945  0.3735 -0.0330 -0.3085
 5356TIP3    H137627   6.392   0.514   7.979 -0.3432  0.3162  0.8600
 5356TIP3    H237628   6.290   0.408   8.014  0.6638 -1.4809 -1.4077
 5357TIP3   OH237629   4.962   6.399   2.330  0.1781 -0.3155  0.1210
 5357TIP3    H137630   4.911   6.458   2.385 -2.5245 -0.8075 -1.6614
 5357TIP3    H237631   5.002   6.337   2.391  0.7931  1.6462  1.7932
 5358TIP3   OH237632   1.982   1.599   0.807 -0.4288  0.2494  0.2349
 5358TIP3    H137633   1.992   1.694   0.806 -0.7036  0.3036 -1.8665
 5358TIP3    H237634   1.916   1.582   0.874  1.5745  1.2433  2.6286
 5359TIP3   OH237635   0.914   4.102   1.310 -0.2354  0.0767 -0.5578
 5359TIP3    H137636   0.872   4.111   1.395  0.5008 -3.0155  0.2817
 5359TIP3    H237637   0.850   4.056   1.256  0.7007 -1.5803 -0.3374
 5360TIP3   OH237638   4.595   2.310   6.774 -0.1167  0.7845  0.0225
 5360TIP3    H137639   4.613   2.404   6.780  0.1620  0.7909 -0.9037
 5360TIP3    H237640   4.663   2.276   6.717 -0.9201  0.2086 -0.6037
 5361TIP3   OH237641   2.205   2.609   7.925 -0.2243  0.6404  0.0277
 5361TIP3    H137642   2.299   2.591   7.933  0.1721  2.7889  0.7494
 5361TIP3    H237643   2.193   2.633   7.833 -0.1237  0.2192 -0.1011
 5362TIP3   OH237644   1.392   0.164   7.490  0.6121 -1.3866  0.7275
 5362TIP3    H137645   1.378   0.215   7.570 -0.2916 -1.4687  0.6314
 5362TIP3    H237646   1.418   0.229   7.424 -1.2420 -0.8939  0.4184
 5363TIP3   OH237647   0.823   5.379   1.347 -0.2229 -0.1694 -0.4478
 5363TIP3    H137648   0.806   5.310   1.411  2.4284  0.6652  1.3546
 5363TIP3    H237649   0.803   5.460   1.394  3.3920  0.5568  0.0846
 5364TIP3   OH237650   0.223   6.272   7.696 -0.2447  0.9086  0.3320
 5364TIP3    H137651   0.256   6.185   7.676 -0.3554  0.9659 -0.1266
 5364TIP3    H237652   0.146   6.257   7.751 -2.8045  0.4605 -3.0637
 5365TIP3   OH237653   0.434   0.780   0.545 -0.0359 -0.4021 -0.6293
 5365TIP3    H137654   0.502   0.805   0.482  0.4529  0.6980  0.3140
 5365TIP3    H237655   0.390   0.862   0.566 -0.4471 -0.8274  0.1771
 5366TIP3   OH237656   4.882   6.390   0.163 -0.6734  0.1287 -0.2445
 5366TIP3    H137657   4.942   6.423   0.097  0.1383  0.9464  0.8528
 5366TIP3    H237658   4.928   6.404   0.246 -0.6256 -2.9886  0.3982
 5367TIP3   OH237659   6.343   2.725   0.703  0.4066  0.6155  0.4048
 5367TIP3    H137660   6.327   2.819   0.706  0.7025  0.7941 -1.9485
 5367TIP3    H237661   6.408   2.714   0.634  0.8144 -1.2723  1.0398
 5368TIP3   OH237662   0.099   3.298   7.144 -0.6720  0.2286  0.2237
 5368TIP3    H137663   0.037   3.249   7.089 -0.2258 -1.1231  0.8670
 5368TIP3    H237664   0.059   3.385   7.154 -1.4831  0.0222 -0.9931
 5369TIP3   OH237665   1.425   0.026   0.776 -0.0563  0.0682 -0.3378
 5369TIP3    H137666   1.353  -0.015   0.728  0.1850 -0.2711 -0.4154
 5369TIP3    H237667   1.382   0.078   0.844 -0.3686 -0.2103 -0.3195
 5370TIP3   OH237668   0.412   0.488   7.654  0.3835  0.3142 -0.0326
 5370TIP3    H137669   0.334   0.474   7.599  0.1445  0.4074  0.2789
 5370TIP3    H237670   0.384   0.461   7.742  0.5072  0.9405  0.2029
 5371TIP3   OH237671   1.411   4.817   1.484  0.0804  0.0165 -0.2608
 5371TIP3    H137672   1.322   4.780   1.487  0.0024  0.2115 -0.1334
 5371TIP3    H237673   1.433   4.833   1.576  1.0080 -1.8093 -0.1205
 5372TIP3   OH237674   3.964   5.797   7.344  0.3123 -0.2704 -0.2474
 5372TIP3    H137675   3.946   5.886   7.375 -1.9075  0.3846 -3.0420
 5372TIP3    H237676   4.046   5.804   7.295  0.2916  0.1778 -0.2187
 5373TIP3   OH237677   3.617   0.862   1.063  0.1312  0.2639 -0.3132
 5373TIP3    H137678   3.599   0.936   1.121 -1.6567  0.4423 -1.0420
 5373TIP3    H237679   3.537   0.810   1.064  0.3721 -0.2052 -1.9072
 5374TIP3   OH237680   3.516   2.553   7.997 -0.2609  0.1356 -0.0783
 5374TIP3    H137681   3.533   2.647   7.984 -1.5935  0.3895 -0.1139
 5374TIP3    H237682   3.529   2.539   8.090 -1.2705  0.6362  0.1512
 5375TIP3   OH237683   0.648   3.557   1.546  0.0028 -0.2050  0.3047
 5375TIP3    H137684   0.691   3.506   1.477 -1.8140 -0.8086 -0.4643
 5375TIP3    H237685   0.666   3.509   1.627 -2.3097 -2.6927 -0.4875
 5376TIP3   OH237686   1.410   3.003   0.518 -0.6087  0.4908  0.4254
 5376TIP3    H137687   1.478   3.005   0.587 -1.5137 -0.3700  1.3774
 5376TIP3    H237688   1.409   2.912   0.489  0.9029  1.1567 -1.9616
 5377TIP3   OH237689   3.765   0.559   2.535 -0.0565  0.2819 -0.8096
 5377TIP3    H137690   3.851   0.533   2.568  0.3082  0.6940 -1.4167
 5377TIP3    H237691   3.747   0.642   2.579  0.3405  0.7312 -1.4804
 5378TIP3   OH237692   1.477   1.500   8.545 -0.3048  0.6465  0.5056
 5378TIP3    H137693   1.566   1.518   8.576 -0.5320 -0.6947  2.0946
 5378TIP3    H237694   1.480   1.409   8.516 -0.7547  1.1161 -1.1296
 5379TIP3   OH237695   4.324   1.140   7.108 -0.4194 -0.2773  0.4172
 5379TIP3    H137696   4.318   1.169   7.017 -1.1267  2.8974  1.3476
 5379TIP3    H237697   4.404   1.182   7.142 -0.1899 -1.3688  1.2963
 5380TIP3   OH237698   3.322   1.690   0.790  0.4031 -0.2325 -0.1451
 5380TIP3    H137699   3.320   1.711   0.883 -1.8169  0.4627 -0.3063
 5380TIP3    H237700   3.342   1.596   0.787  0.2410 -0.3177  1.0320
 5381TIP3   OH237701   4.821   2.405   0.016  0.0443 -0.1217 -0.1486
 5381TIP3    H137702   4.799   2.338   0.081  1.2402  0.9465  1.4269
 5381TIP3    H237703   4.774   2.377  -0.063 -0.8337 -1.8949  0.9185
 5382TIP3   OH237704   0.885   3.486   2.517  0.4954  0.4395 -0.2057
 5382TIP3    H137705   0.906   3.573   2.551  2.0144  0.6749 -1.6053
 5382TIP3    H237706   0.966   3.436   2.527  0.3803 -0.0667 -1.5830
 5383TIP3   OH237707   5.705   3.942   8.623  0.1032 -0.3495 -0.1565
 5383TIP3    H137708   5.623   3.984   8.649  0.1386 -0.5713  0.3180
 5383TIP3    H237709   5.768   3.970   8.689  1.4406  3.0679 -2.5658
 5384TIP3   OH237710   5.113   2.890   2.709  0.4699  0.3692 -0.2192
 5384TIP3    H137711   5.077   2.952   2.773  2.3418 -0.0410  1.3325
 5384TIP3    H237712   5.177   2.942   2.660  1.8639 -0.2082  0.9202
 5385TIP3   OH237713   2.866   1.383   7.341  0.4332 -0.4142 -0.6525
 5385TIP3    H137714   2.924   1.309   7.325  0.3831 -0.6639  0.3042
 5385TIP3    H237715   2.904   1.429   7.416  0.0112  0.0656 -0.7235
 5386TIP3   OH237716   3.275   5.606   8.846  0.4669 -0.3453 -0.4175
 5386TIP3    H137717   3.313   5.518   8.839 -0.6161 -0.8241 -0.4194
 5386TIP3    H237718   3.264   5.634   8.755 -1.9188 -1.4411 -0.5441
 5387TIP3   OH237719   0.178   4.595   2.346  0.3148  0.0742  0.2587
 5387TIP3    H137720   0.087   4.566   2.338  0.2698  0.4595 -0.6762
 5387TIP3    H237721   0.180   4.682   2.307  0.9940  0.2541  0.6781
 5388TIP3   OH237722   5.588   0.771   6.954  0.5366  0.1164  0.0813
 5388TIP3    H137723   5.568   0.731   6.869  0.6563  1.8828 -0.8051
 5388TIP3    H237724   5.503   0.783   6.995  0.5124 -1.2800  0.5089
 5389TIP3   OH237725   5.150   3.260   8.829 -0.6075 -0.0103  0.1120
 5389TIP3    H137726   5.125   3.170   8.850 -0.9581  0.5048  2.1704
 5389TIP3    H237727   5.228   3.252   8.774  0.2047 -1.5895  1.4015
 5390TIP3   OH237728   0.115   6.720   1.091 -0.0135 -1.1189 -0.1177
 5390TIP3    H137729   0.203   6.731   1.056  0.0034 -1.4575 -0.1887
 5390TIP3    H237730   0.063   6.785   1.044  0.2448 -0.7572  0.0993
 5391TIP3   OH237731   2.388   3.020   8.061 -0.3302  0.3859 -0.1672
 5391TIP3    H137732   2.447   3.089   8.090 -2.2160  1.2352  2.0220
 5391TIP3    H237733   2.422   2.941   8.103  0.4812  0.4185 -0.7386
 5392TIP3   OH237734   5.065   3.195   0.708  0.4016  0.5371  0.0599
 5392TIP3    H137735   5.099   3.267   0.761 -1.0177  1.8124 -0.6866
 5392TIP3    H237736   4.985   3.230   0.668 -0.0870 -1.3134 -0.6880
 5393TIP3   OH237737   2.261   6.080   8.549 -0.1880 -0.2909 -0.2112
 5393TIP3    H137738   2.232   6.137   8.478  0.7571  0.9812  0.3792
 5393TIP3    H237739   2.197   6.094   8.619 -0.3038 -0.4198 -0.2920
 5394TIP3   OH237740   0.055   4.825   8.470 -0.1577 -0.4360  0.3746
 5394TIP3    H137741   0.138   4.872   8.470  0.2152 -1.0566 -0.7491
 5394TIP3    H237742   0.051   4.784   8.383 -1.6317 -0.4113  0.4069
 5395TIP3   OH237743   3.472   2.390   2.208  0.0151  0.3839 -0.2823
 5395TIP3    H137744   3.516   2.366   2.290  0.0190  1.6961  0.1244
 5395TIP3    H237745   3.437   2.478   2.225  0.3151  0.8203 -1.8023
 5396TIP3   OH237746   6.464   5.464   1.063  0.2762 -0.6910 -0.0473
 5396TIP3    H137747   6.383   5.414   1.053  0.7777 -1.9857  1.8333
 5396TIP3    H237748   6.530   5.399   1.088  0.7918  0.9045  3.2791
 5397TIP3   OH237749   2.105   2.909   1.318 -0.0399 -0.1882 -0.0988
 5397TIP3    H137750   2.149   2.830   1.351 -0.0066 -0.1704 -0.1000
 5397TIP3    H237751   2.156   2.981   1.354  1.7704 -0.1572 -2.4633
 5398TIP3   OH237752   0.671   0.494   0.321  0.2159 -0.1653  0.5048
 5398TIP3    H137753   0.675   0.589   0.336 -1.0530 -0.0931  0.5565
 5398TIP3    H237754   0.641   0.486   0.231 -0.7857 -0.4857  0.8498
 5399TIP3   OH237755   4.220   5.021   1.028 -0.0837 -0.1901 -0.0866
 5399TIP3    H137756   4.202   5.114   1.045 -0.4928 -0.3224  0.2144
 5399TIP3    H237757   4.296   5.022   0.970  0.2737  0.3232  0.3751
 5400TIP3   OH237758   1.443   5.077   7.391  0.4455  0.0207  0.1402
 5400TIP3    H137759   1.404   5.060   7.305  1.3576 -0.8156 -0.1199
 5400TIP3    H237760   1.374   5.122   7.439 -1.2365 -2.2251  0.0193
 5401TIP3   OH237761   1.305   0.496   8.825  0.3073 -0.1184 -0.2171
 5401TIP3    H137762   1.258   0.425   8.869  1.2484 -0.3158  0.5157
 5401TIP3    H237763   1.346   0.455   8.749 -0.1175 -0.0951 -0.4621
 5402TIP3   OH237764   6.176   0.477   0.367 -0.0811 -0.0726 -0.1773
 5402TIP3    H137765   6.214   0.508   0.449  2.4587 -1.2771 -0.8129
 5402TIP3    H237766   6.212   0.535   0.300 -0.0572 -0.6935 -0.7061
 5403TIP3   OH237767   4.018   0.188   0.368 -0.1144 -0.2130 -0.1198
 5403TIP3    H137768   3.956   0.212   0.436  2.0232  0.3043  1.7978
 5403TIP3    H237769   3.995   0.098   0.345 -0.2094 -0.8504  2.1925
 5404TIP3   OH237770   6.498   3.204   8.781  1.1077  0.5124  0.2556
 5404TIP3    H137771   6.411   3.166   8.795  0.8896  0.8623 -0.1361
 5404TIP3    H237772   6.557   3.147   8.830  0.8686 -0.7095 -0.8178
 5405TIP3   OH237773   6.131   0.180   0.597 -0.3530  0.4057 -0.1610
 5405TIP3    H137774   6.086   0.120   0.656 -1.1809 -0.3914 -1.5566
 5405TIP3    H237775   6.150   0.128   0.519 -0.2474  1.7037 -1.0396
 5406TIP3   OH237776   3.565   4.228   6.960 -0.4633  0.1017 -0.2205
 5406TIP3    H137777   3.581   4.228   6.866 -1.1259  0.8469 -0.3464
 5406TIP3    H237778   3.591   4.316   6.988 -0.6963  0.0305  0.2156
 5407TIP3   OH237779   6.588   5.507   0.594 -0.8533 -0.4033 -0.2872
 5407TIP3    H137780   6.556   5.593   0.622 -2.6690 -1.5331  1.3772
 5407TIP3    H237781   6.514   5.469   0.547 -0.1796 -1.1863 -0.7317
 5408TIP3   OH237782   6.319   2.608   6.276 -1.0578  0.1445  1.1288
 5408TIP3    H137783   6.249   2.546   6.299 -0.0800 -0.8927  1.3601
 5408TIP3    H237784   6.321   2.669   6.349 -1.7839  0.2572  1.0702
 5409TIP3   OH237785   5.854   3.825   8.365  0.2026 -0.6660 -0.1295
 5409TIP3    H137786   5.838   3.779   8.447  0.2753  2.4431  1.8010
 5409TIP3    H237787   5.948   3.843   8.365  0.2850 -0.9945 -1.1533
 5410TIP3   OH237788   3.311   3.576   8.764  0.3226  0.0742 -0.5865
 5410TIP3    H137789   3.341   3.636   8.696 -0.0843 -0.8311 -1.6045
 5410TIP3    H237790   3.243   3.624   8.810 -0.3017  0.2665 -1.6635
 5411TIP3   OH237791   6.598   5.126   1.678  0.8825 -0.1039 -0.1269
 5411TIP3    H137792   6.528   5.174   1.634  1.6488  0.8704 -0.3364
 5411TIP3    H237793   6.635   5.189   1.740  1.4692 -0.6413  0.0872
 5412TIP3   OH237794   5.716   2.351   7.630 -0.0268  0.4635 -0.0686
 5412TIP3    H137795   5.671   2.434   7.649 -3.2017 -1.5302  2.3153
 5412TIP3    H237796   5.688   2.293   7.701  3.5494 -2.1747 -0.5813
 5413TIP3   OH237797   2.577   2.056   7.078  0.3626  0.3270  0.5849
 5413TIP3    H137798   2.609   1.975   7.039 -0.9425  0.9194 -1.9710
 5413TIP3    H237799   2.544   2.031   7.164  2.4322 -1.2901  0.9858
 5414TIP3   OH237800   2.923   1.352   0.021 -0.4796  0.1947  0.0130
 5414TIP3    H137801   2.926   1.279   0.082 -0.1746 -1.3880 -1.8064
 5414TIP3    H237802   2.845   1.401   0.046 -0.7400 -0.7894  1.2294
 5415TIP3   OH237803   4.945   0.926   1.179 -0.2327  0.4915  0.3922
 5415TIP3    H137804   4.916   0.838   1.156  1.4193  0.4816 -2.0892
 5415TIP3    H237805   4.866   0.980   1.172 -1.2050 -0.6970  1.6809
 5416TIP3   OH237806   4.755   6.756   1.500 -0.2353  0.3906 -0.3997
 5416TIP3    H137807   4.778   6.667   1.474  0.3703  0.0021  1.3478
 5416TIP3    H237808   4.734   6.749   1.593 -3.0067  1.5843 -0.8484
 5417TIP3   OH237809   0.211   2.127   1.224  0.2684 -0.5180 -0.2047
 5417TIP3    H137810   0.198   2.110   1.317 -0.3197  0.2911 -0.1234
 5417TIP3    H237811   0.292   2.177   1.220  1.0833 -1.8087 -0.2822
 5418TIP3   OH237812   5.411   5.619   1.551 -0.4236  0.1861 -0.2683
 5418TIP3    H137813   5.437   5.528   1.568  0.6517  0.1650 -1.7836
 5418TIP3    H237814   5.493   5.668   1.552 -0.9780  1.1237  0.3445
 5419TIP3   OH237815   6.482   1.728   1.863 -0.1093 -0.0505  0.7523
 5419TIP3    H137816   6.545   1.775   1.918 -0.3255 -0.4143  1.3252
 5419TIP3    H237817   6.439   1.796   1.812  0.0455  0.3072  1.0906
 5420TIP3   OH237818   2.856   1.330   7.758 -0.2749 -0.7760  0.2362
 5420TIP3    H137819   2.874   1.423   7.745  0.0990 -0.7363  1.0138
 5420TIP3    H237820   2.904   1.286   7.687 -0.0544 -0.4112  0.1568
 5421TIP3   OH237821   3.950   0.618   6.966 -0.0529 -0.3420  0.4765
 5421TIP3    H137822   3.973   0.705   6.998 -1.3392  0.1829  0.0632
 5421TIP3    H237823   3.868   0.597   7.011 -1.4068  0.0106 -1.6352
 5422TIP3   OH237824   6.740   1.965   2.303 -0.0508  0.5529 -0.2876
 5422TIP3    H137825   6.808   2.031   2.316  0.2298  0.1623  0.2632
 5422TIP3    H237826   6.691   1.965   2.385 -0.6107  0.7096 -0.6208
 5423TIP3   OH237827   0.958   4.316   2.255  0.1668 -0.2113  0.8275
 5423TIP3    H137828   1.027   4.382   2.247 -1.2596  1.1834 -0.4489
 5423TIP3    H237829   0.935   4.294   2.165 -1.8899  0.2566  1.1987
 5424TIP3   OH237830   6.226   3.061   7.210 -0.1532 -0.2628 -0.0813
 5424TIP3    H137831   6.179   3.109   7.278 -0.8523 -0.2029 -0.6043
 5424TIP3    H237832   6.206   3.107   7.129 -2.0491 -2.2667 -0.8302
 5425TIP3   OH237833   1.590   0.346   1.581  0.1593  0.0528 -0.3813
 5425TIP3    H137834   1.583   0.360   1.676 -0.7842  1.1314 -0.5929
 5425TIP3    H237835   1.640   0.264   1.573 -1.1775 -0.9725  1.0823
 5426TIP3   OH237836   3.239   6.433   0.990  0.2935 -0.0854 -0.6514
 5426TIP3    H137837   3.169   6.378   1.026  1.5781 -1.1965  0.2458
 5426TIP3    H237838   3.198   6.479   0.916 -1.6740  0.1889  0.5469
 5427TIP3   OH237839   5.228   1.225   7.769  0.4653 -0.1459  0.3621
 5427TIP3    H137840   5.161   1.267   7.823  0.5659  0.4366  0.0295
 5427TIP3    H237841   5.241   1.140   7.811  1.4607  0.7811  2.0299
 5428TIP3   OH237842   5.199   0.522   7.148  0.0032 -0.1005 -0.5535
 5428TIP3    H137843   5.200   0.573   7.228  0.6866 -1.3538  0.2775
 5428TIP3    H237844   5.169   0.582   7.080  1.5759  1.6338  0.2094
 5429TIP3   OH237845   0.355   6.708   0.724  0.2210 -0.2343  0.5079
 5429TIP3    H137846   0.445   6.741   0.715 -0.6719  1.7250 -2.5152
 5429TIP3    H237847   0.306   6.782   0.759 -1.0504  0.4655 -2.4904
 5430TIP3   OH237848   2.125   5.508   0.624 -0.4746 -1.0626 -0.2655
 5430TIP3    H137849   2.103   5.452   0.699 -3.4618  0.5293  0.1529
 5430TIP3    H237850   2.169   5.583   0.663 -1.3154 -0.6038 -0.2013
 5431TIP3   OH237851   1.888   6.038   6.561  0.1607 -0.2893  0.4952
 5431TIP3    H137852   1.801   6.033   6.602  1.2865  1.1497  3.3180
 5431TIP3    H237853   1.917   5.947   6.554 -0.9932 -0.6978  0.8390
 5432TIP3   OH237854   5.181   3.595   6.814 -0.0620 -0.0610 -0.3774
 5432TIP3    H137855   5.144   3.623   6.898  1.2540  0.1696  0.1461
 5432TIP3    H237856   5.252   3.536   6.837  1.7739  1.7192 -1.2117
 5433TIP3   OH237857   3.527   1.328   1.169 -0.2284 -0.5350 -0.2083
 5433TIP3    H137858   3.522   1.290   1.081 -2.0435  0.8432 -0.7475
 5433TIP3    H237859   3.436   1.338   1.197  0.2962 -0.6388  1.7194
 5434TIP3   OH237860   0.348   3.278   7.307 -0.1510 -0.2102 -0.0526
 5434TIP3    H137861   0.281   3.320   7.253  0.0213  2.2361  1.4989
 5434TIP3    H237862   0.301   3.211   7.356 -1.0345  0.0504 -0.5295
 5435TIP3   OH237863   4.239   1.312   7.985 -0.1104 -0.0997 -0.1722
 5435TIP3    H137864   4.213   1.226   8.018 -0.1149 -0.2276 -0.5020
 5435TIP3    H237865   4.324   1.297   7.944  0.1927  0.1888  0.3509
 5436TIP3   OH237866   1.334   5.415   7.944  0.6925 -0.7237 -0.0542
 5436TIP3    H137867   1.314   5.326   7.974  0.0810 -0.6032 -0.0776
 5436TIP3    H237868   1.272   5.470   7.993  0.2639 -0.4357 -0.9056
 5437TIP3   OH237869   0.407   2.368   7.060 -0.3211 -0.3213 -0.0315
 5437TIP3    H137870   0.453   2.284   7.056  0.6700  0.2007 -0.0065
 5437TIP3    H237871   0.349   2.368   6.984  1.8835  0.1847 -1.8359
 5438TIP3   OH237872   0.556   4.740   0.597 -0.4470  0.0052 -0.2073
 5438TIP3    H137873   0.478   4.708   0.643 -0.8516 -0.0798 -0.9440
 5438TIP3    H237874   0.571   4.677   0.527  0.0830  0.2108 -0.2863
 5439TIP3   OH237875   4.178   4.429   8.347  0.7292  0.6902  0.1036
 5439TIP3    H137876   4.117   4.359   8.326  1.3540  0.5164 -1.2116
 5439TIP3    H237877   4.123   4.496   8.389 -0.6472  1.0910 -2.1975
 5440TIP3   OH237878   1.716   1.932   1.462  0.0987 -0.4125  0.3243
 5440TIP3    H137879   1.702   2.017   1.502 -0.6290 -0.3781  0.0127
 5440TIP3    H237880   1.811   1.926   1.450  0.2285  0.0106  1.0787
 5441TIP3   OH237881   5.828   6.112   7.360  0.1734  0.0076 -0.2693
 5441TIP3    H137882   5.767   6.082   7.428 -0.4967  0.4717 -0.6554
 5441TIP3    H237883   5.791   6.079   7.278 -0.2289  1.3151 -0.6332
 5442TIP3   OH237884   6.401   6.770   8.523 -0.1201 -0.0524  0.2680
 5442TIP3    H137885   6.426   6.700   8.463  2.3969 -1.4319  2.7000
 5442TIP3    H237886   6.419   6.851   8.474  0.1153 -1.0756 -1.4378
 5443TIP3   OH237887   5.952   6.441   7.601 -0.3797  0.0370  0.4104
 5443TIP3    H137888   5.874   6.389   7.580  0.0448 -0.4890  0.1139
 5443TIP3    H237889   6.021   6.377   7.613  0.4948  0.5685 -1.3601
 5444TIP3   OH237890   5.512   0.643   7.574 -0.1665 -0.4496 -0.5245
 5444TIP3    H137891   5.590   0.697   7.583 -2.4192  3.1309 -0.7896
 5444TIP3    H237892   5.473   0.670   7.491 -3.9595  1.3523  1.5643
 5445TIP3   OH237893   4.010   1.583   0.001  0.0734 -0.1496  0.5643
 5445TIP3    H137894   3.926   1.611   0.038 -0.0166 -0.5439  0.6559
 5445TIP3    H237895   4.010   1.620  -0.088 -0.2857 -0.3132  0.4931
 5446TIP3   OH237896   1.931   1.467   8.755  0.0064  0.0181  0.1553
 5446TIP3    H137897   1.891   1.547   8.720  2.1201  0.9953 -0.1689
 5446TIP3    H237898   1.973   1.495   8.836  0.7326 -0.7565  0.0573
 5447TIP3   OH237899   1.436   3.303   1.539  0.0489  0.1915 -0.1757
 5447TIP3    H137900   1.359   3.270   1.492 -0.0534 -1.3231  0.9958
 5447TIP3    H237901   1.468   3.375   1.484 -0.8772 -0.6083 -1.8482
 5448TIP3   OH237902   5.503   2.316   0.157 -0.4473  0.1597 -0.3080
 5448TIP3    H137903   5.462   2.342   0.239  1.2225 -2.1065  1.3869
 5448TIP3    H237904   5.569   2.383   0.141 -0.7833  0.6203  0.1851
 5449TIP3   OH237905   5.634   5.486   8.044 -0.8953  0.2591  0.2379
 5449TIP3    H137906   5.620   5.532   8.127  1.5730 -0.7051  1.2896
 5449TIP3    H237907   5.651   5.556   7.981  0.3861  0.9539  1.2809
 5450TIP3   OH237908   3.297   0.259   6.830 -0.4125  0.3174  0.6673
 5450TIP3    H137909   3.325   0.233   6.742 -0.6718  1.4541  0.2273
 5450TIP3    H237910   3.276   0.177   6.874 -0.2933 -0.2692 -0.3339
 5451TIP3   OH237911   1.384   6.543   0.938  0.5218  0.0649 -0.0062
 5451TIP3    H137912   1.425   6.474   0.886 -1.1728 -0.9792 -0.0310
 5451TIP3    H237913   1.457   6.586   0.982  1.7730 -0.6649 -1.2717
 5452TIP3   OH237914   2.043   4.889   0.601  0.6604  0.1626  0.6649
 5452TIP3    H137915   2.130   4.850   0.590  0.2456 -0.8181  0.8111
 5452TIP3    H237916   2.057   4.961   0.663  1.5440  0.6543 -0.0759
 5453TIP3   OH237917   3.701   2.471   1.749 -0.4462  0.1060 -0.0274
 5453TIP3    H137918   3.660   2.538   1.695  0.0256  1.1224  0.8407
 5453TIP3    H237919   3.634   2.447   1.813  0.1042  1.4539  1.1165
 5454TIP3   OH237920   0.238   0.060   8.344 -0.1077 -0.2861  0.1656
 5454TIP3    H137921   0.167   0.038   8.404  0.4621  0.5770  1.2017
 5454TIP3    H237922   0.208   0.030   8.258 -1.5841 -0.2067  0.6332
 5455TIP3   OH237923   3.058   5.629   1.994  0.4658 -0.2860 -0.0538
 5455TIP3    H137924   2.991   5.609   1.930  1.2789  1.9199 -1.7473
 5455TIP3    H237925   3.140   5.629   1.944  1.1236  1.5211  0.9189
 5456TIP3   OH237926   6.787   6.203   7.807 -0.0251  0.3075 -0.4480
 5456TIP3    H137927   6.820   6.113   7.795 -1.3640 -0.3262  0.3611
 5456TIP3    H237928   6.769   6.209   7.900 -0.5873  1.1904 -0.6090
 5457TIP3   OH237929   2.961   1.649   8.051  0.7295 -0.2985  0.1336
 5457TIP3    H137930   2.938   1.625   7.962 -0.8297 -0.0272  0.4302
 5457TIP3    H237931   2.931   1.575   8.105  1.1922 -0.2381  0.4798
 5458TIP3   OH237932   6.654   1.540   2.131 -0.0428  0.1577  0.1709
 5458TIP3    H137933   6.607   1.527   2.213  0.0529 -1.0625  0.0540
 5458TIP3    H237934   6.665   1.634   2.124 -3.4164  0.6516 -0.3047
 5459TIP3   OH237935   2.809   2.242   7.781  0.1900  0.6172  0.1569
 5459TIP3    H137936   2.845   2.311   7.837 -0.1340  1.6483 -0.8513
 5459TIP3    H237937   2.875   2.230   7.713  0.2583 -0.1090  0.3500
 5460TIP3   OH237938   5.633   4.753   0.950  0.4420 -0.2276 -0.3148
 5460TIP3    H137939   5.620   4.733   1.043 -1.3790  0.2328 -0.4453
 5460TIP3    H237940   5.685   4.833   0.950 -1.6596  1.1993  0.3899
 5461TIP3   OH237941   0.499   2.887   8.164 -0.2937  0.2443 -0.3248
 5461TIP3    H137942   0.518   2.980   8.156 -1.0610  0.3201 -1.6731
 5461TIP3    H237943   0.427   2.882   8.227  1.4576  0.2930  1.7755
 5462TIP3   OH237944   0.968   5.567   0.847  0.2937  0.1191 -0.0182
 5462TIP3    H137945   0.922   5.558   0.930  0.3216  0.0450 -0.0104
 5462TIP3    H237946   0.926   5.641   0.804  0.6514  0.5129  0.3034
 5463TIP3   OH237947   0.879   6.423   8.597  0.6685 -0.0526 -0.2054
 5463TIP3    H137948   0.911   6.348   8.547  0.1575 -0.5674  0.2278
 5463TIP3    H237949   0.784   6.410   8.602  0.7429 -0.2269  1.2180
 5464TIP3   OH237950   3.874   3.004   0.566 -0.3909 -0.8843 -0.0857
 5464TIP3    H137951   3.936   2.951   0.515 -0.2835 -0.0640 -0.8298
 5464TIP3    H237952   3.791   2.994   0.521 -0.3083 -0.2005 -0.4038
 5465TIP3   OH237953   1.545   5.563   0.033  0.1118  0.1036 -0.1851
 5465TIP3    H137954   1.632   5.590   0.063  0.0516  0.4352 -0.3062
 5465TIP3    H237955   1.484   5.614   0.086 -0.0514 -1.1746  0.9180
 5466TIP3   OH237956   4.817   5.519   1.700 -0.2574  0.1206  0.8110
 5466TIP3    H137957   4.845   5.569   1.624 -0.0371 -1.0662  0.0796
 5466TIP3    H237958   4.816   5.582   1.772 -0.2522  1.2109 -0.1258
 5467TIP3   OH237959   2.196   2.777   1.983 -0.6755 -0.3537  0.1059
 5467TIP3    H137960   2.218   2.691   1.946  2.7863 -0.9657  3.0684
 5467TIP3    H237961   2.127   2.759   2.046  1.3628 -1.5080  2.1644
 5468TIP3   OH237962   5.916   0.085   0.319 -0.1897 -0.1426  0.4692
 5468TIP3    H137963   5.950   0.001   0.288  0.3081 -0.2221  1.2016
 5468TIP3    H237964   5.838   0.063   0.369 -0.1102 -0.1696  0.5838
 5469TIP3   OH237965   1.941   0.031   0.305  0.6491 -0.4549  0.0663
 5469TIP3    H137966   1.913   0.090   0.236  3.8056 -0.2659 -1.2385
 5469TIP3    H237967   1.861  -0.012   0.335 -1.0587  0.7541 -2.4739
 5470TIP3   OH237968   4.443   0.173   2.546 -0.1583 -0.8129 -0.2013
 5470TIP3    H137969   4.508   0.141   2.483 -0.4935 -1.1557 -0.3790
 5470TIP3    H237970   4.381   0.100   2.555 -0.2783 -0.6529  0.2980
 5471TIP3   OH237971   6.091   4.806   0.288  0.2631 -0.2731  0.1549
 5471TIP3    H137972   6.102   4.888   0.337  0.0030  1.0878 -1.9129
 5471TIP3    H237973   6.024   4.758   0.336 -1.9092  2.1723 -0.2102
 5472TIP3   OH237974   5.881   5.700   0.205  0.3134 -0.7814  0.2255
 5472TIP3    H137975   5.943   5.664   0.142  1.0164 -0.7843  0.9077
 5472TIP3    H237976   5.857   5.785   0.169 -0.6430 -1.5040 -0.9288
 5473TIP3   OH237977   2.385   2.006   0.052  0.2984 -0.0531 -0.3728
 5473TIP3    H137978   2.431   2.031   0.133 -0.5742 -1.1739  0.4937
 5473TIP3    H237979   2.404   2.077  -0.008  1.3041  0.6230  0.6890
 5474TIP3   OH237980   1.471   2.585   0.669 -0.1833 -0.6553 -0.8645
 5474TIP3    H137981   1.537   2.581   0.600  0.5840 -2.8778 -0.0957
 5474TIP3    H237982   1.512   2.637   0.738  1.4442 -3.0747  0.1483
 5475TIP3   OH237983   2.238   3.334   6.887 -0.3790  0.0667  0.0127
 5475TIP3    H137984   2.185   3.266   6.930  0.0497  0.1975  0.7711
 5475TIP3    H237985   2.234   3.312   6.794  0.5170 -1.5756  0.3193
 5476TIP3   OH237986   1.954   3.353   2.382 -0.1205 -0.1463  0.2252
 5476TIP3    H137987   1.920   3.379   2.468 -0.0203  1.1473 -0.1179
 5476TIP3    H237988   2.044   3.324   2.399  0.0849  0.6356  0.4743
 5477TIP3   OH237989   3.582   2.468   8.669 -0.4425 -0.1753 -0.2962
 5477TIP3    H137990   3.651   2.465   8.604  0.8850  0.8472  0.9921
 5477TIP3    H237991   3.535   2.385   8.660 -0.0932 -0.1955 -2.2809
 5478TIP3   OH237992   2.661   3.554   0.377 -0.0692  0.5601 -0.4657
 5478TIP3    H137993   2.616   3.489   0.323 -0.2392 -1.8638  2.2918
 5478TIP3    H237994   2.749   3.519   0.389  0.0790  1.2106  0.4582
 5479TIP3   OH237995   5.194   5.073   2.273 -0.6286  0.1636 -0.2167
 5479TIP3    H137996   5.281   5.053   2.307 -0.3464 -1.0864 -1.5444
 5479TIP3    H237997   5.158   4.988   2.248 -2.1597  0.6869  0.1177
 5480TIP3   OH237998   0.024   5.401   8.040  0.0392 -0.3506 -0.5588
 5480TIP3    H137999   0.008   5.453   8.119  1.0732  0.4731 -0.8630
 5480TIP3    H238000  -0.038   5.434   7.976  0.2383  0.0444 -0.5490
 5481TIP3   OH238001   2.194   1.595   7.272  0.1437 -0.1308  0.5523
 5481TIP3    H138002   2.150   1.641   7.200 -0.0606  1.0641  1.4090
 5481TIP3    H238003   2.200   1.504   7.242 -0.9141  0.1210 -0.5103
 5482TIP3   OH238004   3.547   2.019   2.211 -0.1238  0.1967 -0.1027
 5482TIP3    H138005   3.529   1.928   2.234  1.4268  0.2110  1.4152
 5482TIP3    H238006   3.461   2.060   2.203 -0.8315 -0.9167  1.3666
 5483TIP3   OH238007   3.010   4.022   0.120 -0.2442 -0.1474 -0.4297
 5483TIP3    H138008   3.079   4.080   0.090 -2.0290  2.7235  0.6136
 5483TIP3    H238009   2.997   4.045   0.212 -1.6415 -1.5895 -0.2097
 5484TIP3   OH238010   1.231   4.940   2.068 -0.1290  0.4063  0.1322
 5484TIP3    H138011   1.191   5.020   2.033 -1.2078  0.7637  2.0411
 5484TIP3    H238012   1.317   4.968   2.099 -0.3687  0.7721  0.4850
 5485TIP3   OH238013   2.850   6.065   1.772  0.2178 -0.1694 -0.0827
 5485TIP3    H138014   2.921   6.052   1.836 -1.7191 -0.3638  2.1669
 5485TIP3    H238015   2.819   6.154   1.789 -0.2119 -0.1521 -0.9345
 5486TIP3   OH238016   2.788   3.807   0.024  0.2047  0.7651 -0.2221
 5486TIP3    H138017   2.858   3.872   0.022 -0.8579  1.9566  0.3411
 5486TIP3    H238018   2.756   3.809   0.114 -0.3718  0.0204 -0.3988
 5487TIP3   OH238019   4.132   4.383   7.897 -0.2642  0.5104  0.2748
 5487TIP3    H138020   4.201   4.383   7.831  1.3311  1.0578  1.8536
 5487TIP3    H238021   4.058   4.427   7.856  0.9152  1.4360 -0.9156
 5488TIP3   OH238022   0.998   5.931   8.698  0.2385 -0.0137 -0.2949
 5488TIP3    H138023   1.057   6.006   8.707  0.4302 -0.1058 -0.7508
 5488TIP3    H238024   1.053   5.862   8.661 -0.4510  0.2855 -1.9513
 5489TIP3   OH238025   4.247   1.190   7.687  0.3139 -0.4641 -0.2767
 5489TIP3    H138026   4.154   1.197   7.706  0.5515 -1.6280  1.4193
 5489TIP3    H238027   4.260   1.099   7.659  0.4029  0.5188 -4.0743
 5490TIP3   OH238028   0.029   5.079   0.068  0.1783  0.3480 -0.2916
 5490TIP3    H138029   0.043   5.030  -0.013  1.6196  1.1310 -0.5577
 5490TIP3    H238030   0.117   5.088   0.106 -0.1260  2.1587  0.0715
 5491TIP3   OH238031   1.090   0.999   7.146 -0.1850  0.3774 -0.0273
 5491TIP3    H138032   1.148   0.965   7.215  2.0752 -0.1147 -2.0633
 5491TIP3    H238033   1.042   1.070   7.189  2.1787  1.0541  1.7164
 5492TIP3   OH238034   3.433   4.240   8.724  0.1532 -0.2211  0.3911
 5492TIP3    H138035   3.450   4.262   8.632  0.7558 -1.0371  0.3005
 5492TIP3    H238036   3.343   4.207   8.724 -0.4060  1.2425  0.3648
 5493TIP3   OH238037   2.403   4.600   0.361 -0.1910 -0.1511 -0.1694
 5493TIP3    H138038   2.313   4.568   0.354 -0.2383  0.0681 -0.6299
 5493TIP3    H238039   2.413   4.658   0.285  0.4268 -0.3956 -0.2740
 5494TIP3   OH238040   0.632   2.204   0.782 -0.3437 -0.3324 -0.2293
 5494TIP3    H138041   0.702   2.168   0.836 -0.4448  0.6351  0.5805
 5494TIP3    H238042   0.662   2.293   0.761 -0.4135 -0.6120 -1.5819
 5495TIP3   OH238043   4.116   4.163   0.447 -0.1374  0.0885  0.5654
 5495TIP3    H138044   4.151   4.074   0.442  0.3005  0.2887  0.0663
 5495TIP3    H238045   4.064   4.163   0.527 -0.2297 -0.6501  0.5149
 5496TIP3   OH238046   5.782   0.738   8.834 -0.4956 -0.3531  0.5187
 5496TIP3    H138047   5.818   0.823   8.858 -0.5609  0.0846 -0.8753
 5496TIP3    H238048   5.855   0.677   8.843 -0.8049 -0.4772  2.9974
 5497TIP3   OH238049   1.342   2.134   8.122  0.3108 -0.1801 -0.2208
 5497TIP3    H138050   1.266   2.190   8.105 -0.9681 -0.9183  2.4558
 5497TIP3    H238051   1.412   2.196   8.141 -0.8419  0.6255  1.7705
 5498TIP3   OH238052   4.700   5.675   8.626  0.2626  0.0055  0.0388
 5498TIP3    H138053   4.729   5.586   8.607  0.2255 -0.0067  0.0387
 5498TIP3    H238054   4.730   5.691   8.716 -0.0814 -0.1532  0.1851
 5499TIP3   OH238055   1.382   3.462   1.749  0.1193 -0.1857  0.2684
 5499TIP3    H138056   1.388   3.401   1.675 -2.4698 -1.5968  1.0739
 5499TIP3    H238057   1.319   3.528   1.720 -0.1556 -0.1849  0.8647
 5500TIP3   OH238058   1.454   1.424   2.282 -0.6977  0.4516  0.3631
 5500TIP3    H138059   1.370   1.444   2.324 -2.0162  2.9852 -3.0295
 5500TIP3    H238060   1.434   1.353   2.221  0.0153  0.0777  0.5589
 5501TIP3   OH238061   0.648   0.282   1.054  0.2421  0.2305 -0.2715
 5501TIP3    H138062   0.684   0.229   0.983  1.1457  0.1947  0.2012
 5501TIP3    H238063   0.679   0.240   1.134 -2.1158 -0.7179  0.2412
 5502TIP3   OH238064   1.960   0.602   7.987 -0.1377  0.4613  0.0321
 5502TIP3    H138065   1.905   0.528   8.012 -0.6932  1.3190  1.5417
 5502TIP3    H238066   2.049   0.574   8.006 -0.4779  0.7896  2.4859
 5503TIP3   OH238067   3.275   3.943   8.609  0.2021 -0.0978 -0.9635
 5503TIP3    H138068   3.194   3.895   8.598  0.3714 -0.5612 -0.2312
 5503TIP3    H238069   3.249   4.025   8.650  0.2573 -0.8591  0.6447
 5504TIP3   OH238070   5.047   2.527   7.651 -0.0069  0.8668 -0.0087
 5504TIP3    H138071   5.068   2.470   7.725 -0.0851  1.1859  0.2588
 5504TIP3    H238072   5.011   2.606   7.690  0.0555  1.0842 -0.3833
 5505TIP3   OH238073   4.003   5.267   8.169 -0.3946  0.1557  0.4515
 5505TIP3    H138074   4.005   5.326   8.094  0.5765 -0.5107 -0.0795
 5505TIP3    H238075   3.913   5.269   8.200 -0.7100  0.7614 -0.4874
 5506TIP3   OH238076   1.950   3.165   7.758  0.0777  0.7513 -0.2418
 5506TIP3    H138077   1.968   3.197   7.669 -2.8686 -1.5167 -1.8476
 5506TIP3    H238078   2.029   3.116   7.782  0.3252 -0.0720 -2.4355
 5507TIP3   OH238079   5.957   5.096   7.281 -0.2183  0.0221  0.6824
 5507TIP3    H138080   5.985   5.059   7.197 -1.5584 -0.6813  0.5158
 5507TIP3    H238081   6.035   5.139   7.315  1.4340 -2.7725  0.7795
 5508TIP3   OH238082   0.680   2.842   1.889  0.0555 -0.1134 -0.5289
 5508TIP3    H138083   0.610   2.894   1.850 -0.6581 -0.3413  0.4229
 5508TIP3    H238084   0.705   2.891   1.967 -0.2830 -0.9469  0.1078
 5509TIP3   OH238085   0.989   2.965   1.257 -0.6016 -0.6860  0.1661
 5509TIP3    H138086   1.019   2.946   1.346 -0.3636 -0.1257  0.2107
 5509TIP3    H238087   0.894   2.970   1.265 -0.7195 -2.3170  0.0519
 5510TIP3   OH238088   6.113   0.861   0.591 -0.2848 -0.2727 -0.7402
 5510TIP3    H138089   6.150   0.896   0.672 -0.7909 -1.5332  0.0680
 5510TIP3    H238090   6.179   0.880   0.524  0.9311 -0.7193  0.2991
 5511TIP3   OH238091   5.297   2.123   7.104  0.0082 -0.3907 -0.5001
 5511TIP3    H138092   5.346   2.042   7.119  1.5224  0.5267 -0.3548
 5511TIP3    H238093   5.351   2.173   7.043 -0.9543  0.4899 -0.6618
 5512TIP3   OH238094   1.592   3.990   8.229  0.5285 -0.4266  0.7680
 5512TIP3    H138095   1.571   4.081   8.206  0.1126 -1.2261 -2.3868
 5512TIP3    H238096   1.508   3.952   8.255  0.4220 -0.3138  0.5934
 5513TIP3   OH238097   4.091   2.530   8.090  0.9090  0.1256 -0.0028
 5513TIP3    H138098   4.038   2.468   8.140  1.3756  0.4532  0.9150
 5513TIP3    H238099   4.157   2.476   8.046  3.1847  0.1229  3.0773
 5514TIP3   OH238100   1.093   4.383   8.728 -0.2895  0.4623 -0.1879
 5514TIP3    H138101   1.016   4.422   8.687 -1.2726 -1.3058 -0.1155
 5514TIP3    H238102   1.079   4.395   8.822 -0.7660 -0.2879 -0.1467
 5515TIP3   OH238103   1.695   1.587   2.344  0.1217 -0.0377 -0.0363
 5515TIP3    H138104   1.657   1.594   2.432 -3.0553  1.8519 -1.3942
 5515TIP3    H238105   1.668   1.501   2.313  0.1860 -0.2055  0.3603
 5516TIP3   OH238106   6.292   0.205   6.447  0.6019  0.1025 -0.4897
 5516TIP3    H138107   6.245   0.147   6.387 -0.1150  0.4620 -0.2954
 5516TIP3    H238108   6.233   0.280   6.458  0.7853  0.1141  0.5316
 5517TIP3   OH238109   2.301   4.907   1.809 -0.3985 -0.0986 -0.8021
 5517TIP3    H138110   2.325   4.928   1.718  1.8580 -0.4104 -0.3329
 5517TIP3    H238111   2.305   4.812   1.813  1.7279 -0.0308  0.1072
 5518TIP3   OH238112   2.888   1.077   1.746 -0.5421 -0.0711 -0.4312
 5518TIP3    H138113   2.904   1.152   1.803  1.0547 -1.7821  1.4872
 5518TIP3    H238114   2.973   1.057   1.708  0.3108 -3.6972  2.7920
 5519TIP3   OH238115   0.160   2.730   7.064  0.2493 -0.2499 -0.2178
 5519TIP3    H138116   0.103   2.745   7.140  1.1510 -0.6011  0.5489
 5519TIP3    H238117   0.100   2.722   6.990 -0.7200 -0.9047  0.6124
 5520TIP3   OH238118   0.080   5.942   7.365  0.0611 -0.0150  0.0142
 5520TIP3    H138119   0.030   5.870   7.326 -0.0209 -0.0900  0.2577
 5520TIP3    H238120   0.112   5.992   7.290  0.6036 -0.6353 -0.1774
 5521TIP3   OH238121   1.050   5.976   2.408 -0.3163 -0.5763 -0.7496
 5521TIP3    H138122   1.117   5.907   2.404 -0.3430 -0.6250 -0.3954
 5521TIP3    H238123   1.076   6.039   2.342 -0.4798 -1.0988 -1.3305
 5522TIP3   OH238124   3.721   5.430   7.559  0.2192  0.2672  0.3100
 5522TIP3    H138125   3.664   5.506   7.576 -0.7290  0.1265 -1.9975
 5522TIP3    H238126   3.664   5.354   7.569  0.8092 -0.0933  1.0997
 5523TIP3   OH238127   1.834   1.490   7.258 -0.6465  0.2082 -0.2092
 5523TIP3    H138128   1.867   1.418   7.312 -0.2512  0.0446 -0.6518
 5523TIP3    H238129   1.745   1.505   7.289  0.0632  1.1535  1.5336
 5524TIP3   OH238130   4.113   0.503   7.869  0.5289 -0.0407 -0.4709
 5524TIP3    H138131   4.100   0.414   7.835  2.1926 -0.6344  0.2932
 5524TIP3    H238132   4.025   0.534   7.890 -0.1664 -1.1801 -1.5360
 5525TIP3   OH238133   1.864   2.750   1.563 -0.6643 -0.1475 -0.2283
 5525TIP3    H138134   1.923   2.800   1.619  0.2074  0.1107 -1.3312
 5525TIP3    H238135   1.827   2.683   1.620  0.3712 -0.0482  0.5869
 5526TIP3   OH238136   2.076   5.765   6.887 -0.1644  0.2635  0.0443
 5526TIP3    H138137   2.031   5.681   6.883  0.2662 -0.0741  1.4737
 5526TIP3    H238138   2.073   5.799   6.798 -1.0388 -0.8983 -0.3912
 5527TIP3   OH238139   6.727   6.351   0.791  0.4234  0.3712  0.0423
 5527TIP3    H138140   6.782   6.361   0.869  1.8795  1.0265 -1.0064
 5527TIP3    H238141   6.789   6.358   0.718 -0.7677 -1.0136 -1.1660
 5528TIP3   OH238142   6.592   4.917   0.437 -0.2411 -0.2315 -0.0619
 5528TIP3    H138143   6.568   4.922   0.345 -0.4404 -0.0850 -0.0035
 5528TIP3    H238144   6.679   4.959   0.442 -0.8138  0.9934  0.0264
 5529TIP3   OH238145   0.922   5.571   7.177 -0.2452 -0.0158  0.2823
 5529TIP3    H138146   0.833   5.566   7.211  0.0038 -0.5725  0.8695
 5529TIP3    H238147   0.948   5.662   7.190 -0.7367  0.1596  0.0700
 5530TIP3   OH238148   5.172   2.197   1.170 -0.5606 -0.4415 -0.2386
 5530TIP3    H138149   5.113   2.269   1.191 -0.1766 -0.1466 -0.1693
 5530TIP3    H238150   5.218   2.225   1.090  0.4074 -0.1144  0.4167
 5531TIP3   OH238151   0.564   2.751   1.136 -0.2734 -0.0843  0.1561
 5531TIP3    H138152   0.484   2.774   1.184  0.1190  3.4467 -0.6072
 5531TIP3    H238153   0.631   2.743   1.204 -0.5705  0.5610  0.5371
 5532TIP3   OH238154   4.044   6.440   0.342 -0.1072 -0.7600 -0.8547
 5532TIP3    H138155   4.007   6.377   0.404  0.5615 -1.5413 -1.2306
 5532TIP3    H238156   4.118   6.479   0.388 -0.1667 -0.6788 -0.8288
 5533TIP3   OH238157   5.145   6.590   8.395 -0.0021  0.4618  0.7344
 5533TIP3    H138158   5.180   6.615   8.480  0.4019  0.0743  0.6821
 5533TIP3    H238159   5.152   6.670   8.342  1.6190  0.1624  0.4596
 5534TIP3   OH238160   0.990   2.851   8.252  0.3702 -0.7933 -0.1881
 5534TIP3    H138161   1.032   2.765   8.254  0.1648 -0.9014 -0.5342
 5534TIP3    H238162   1.063   2.914   8.245  0.5149 -0.9386 -0.0050
 5535TIP3   OH238163   2.911   2.060   0.882  0.2044 -0.4851  0.6226
 5535TIP3    H138164   2.980   2.022   0.937  1.1127 -0.3063 -0.3533
 5535TIP3    H238165   2.938   2.152   0.871  0.5259 -0.7305 -0.8179
 5536TIP3   OH238166   3.130   1.202   1.510  0.7499  0.2727 -0.1356
 5536TIP3    H138167   3.085   1.275   1.469  1.9513  1.0160 -0.1934
 5536TIP3    H238168   3.223   1.225   1.505  1.2125 -1.4908 -0.6115
 5537TIP3   OH238169   2.571   5.226   8.224  0.6067  0.4658 -0.6830
 5537TIP3    H138170   2.571   5.130   8.228  0.6745  0.4060 -1.6946
 5537TIP3    H238171   2.489   5.252   8.266  1.2876  0.0562  0.9669
 5538TIP3   OH238172   2.321   1.913   2.577 -0.3363  1.0590  0.0004
 5538TIP3    H138173   2.328   1.830   2.530 -1.6752  1.1566 -0.4045
 5538TIP3    H238174   2.280   1.891   2.660  1.8956  0.9114  1.1294
 5539TIP3   OH238175   2.132   2.841   6.847  0.0449  0.2959 -0.1709
 5539TIP3    H138176   2.179   2.836   6.930  0.8285  2.4188 -0.4215
 5539TIP3    H238177   2.176   2.912   6.799 -2.3107  1.2122 -1.1285
 5540TIP3   OH238178   1.520   5.799   1.490  0.1632  0.0996 -0.4385
 5540TIP3    H138179   1.543   5.885   1.454  1.9321 -0.2518 -0.2598
 5540TIP3    H238180   1.604   5.760   1.513 -0.7135 -1.0127  1.0542
 5541TIP3   OH238181   5.521   1.272   8.182  0.0515 -0.2637  0.0829
 5541TIP3    H138182   5.569   1.203   8.135  1.0744  0.3916  0.1371
 5541TIP3    H238183   5.529   1.249   8.274  2.1729  0.9776  0.2702
 5542TIP3   OH238184   5.555   3.904   1.912 -0.4250 -0.3551 -0.5948
 5542TIP3    H138185   5.650   3.896   1.905 -0.2741  1.3037 -0.7559
 5542TIP3    H238186   5.538   3.906   2.006 -0.2784 -0.4450 -0.5658
 5543TIP3   OH238187   5.159   1.707   0.564  0.3730  0.4027  0.0887
 5543TIP3    H138188   5.160   1.802   0.548  3.4946  0.3302 -0.8954
 5543TIP3    H238189   5.243   1.677   0.530 -0.9406 -2.9230 -0.5863
 5544TIP3   OH238190   3.108   6.556   7.100 -0.3152 -0.0991 -0.3477
 5544TIP3    H138191   3.173   6.540   7.169 -0.9011 -1.4886 -0.0677
 5544TIP3    H238192   3.149   6.620   7.043  0.8227 -0.0665  0.4592
 5545TIP3   OH238193   3.776   2.655   0.000  0.3431 -1.0007 -0.0638
 5545TIP3    H138194   3.681   2.645  -0.009  0.3574 -1.2595  0.0693
 5545TIP3    H238195   3.813   2.581  -0.047  0.5034 -0.4696 -0.7937
 5546TIP3   OH238196   5.562   3.884   8.004 -0.1233 -0.1226 -0.2297
 5546TIP3    H138197   5.638   3.934   7.976 -0.3846  0.2447 -0.2904
 5546TIP3    H238198   5.580   3.862   8.095  0.8952 -1.6322 -0.7650
 5547TIP3   OH238199   0.755   1.368   0.541  0.3022  0.0826  0.2882
 5547TIP3    H138200   0.813   1.325   0.478  0.2732 -1.4277  1.2197
 5547TIP3    H238201   0.667   1.359   0.503  0.2346 -1.1810  0.6665
 5548TIP3   OH238202   0.258   5.991   0.332  0.0381  0.5079  0.2095
 5548TIP3    H138203   0.306   6.011   0.251  0.7859 -1.4950  0.0947
 5548TIP3    H238204   0.320   5.943   0.386 -1.5004 -1.3569  0.4546
 5549TIP3   OH238205   2.793   4.085   0.346 -0.2350 -0.5450  0.7255
 5549TIP3    H138206   2.767   4.000   0.310  0.6831  0.2065 -1.9018
 5549TIP3    H238207   2.713   4.137   0.346 -0.8439 -1.3898  2.5155
 5550TIP3   OH238208   6.494   5.149   2.170 -0.2091  0.0783 -0.0844
 5550TIP3    H138209   6.581   5.190   2.172 -0.1616  0.0071 -0.5816
 5550TIP3    H238210   6.433   5.222   2.178 -0.0975  0.0156  1.7170
 5551TIP3   OH238211   6.417   5.586   1.521 -0.2466  0.1394  0.0372
 5551TIP3    H138212   6.321   5.593   1.528 -0.0267  1.9751  2.0161
 5551TIP3    H238213   6.439   5.647   1.450 -0.4880  0.3173  0.1095
 5552TIP3   OH238214   3.391   1.815   8.148 -0.2329 -0.1556  0.1236
 5552TIP3    H138215   3.324   1.752   8.173  1.6424 -2.8580 -1.1156
 5552TIP3    H238216   3.357   1.899   8.175 -2.7909 -1.7166  2.1756
 5553TIP3   OH238217   0.390   3.453   8.768 -0.7379  0.6366 -0.2325
 5553TIP3    H138218   0.337   3.519   8.813 -1.2304  0.9855 -1.2990
 5553TIP3    H238219   0.453   3.503   8.716 -0.0772  0.2333  0.1525
 5554TIP3   OH238220   2.318   4.404   0.092 -0.6958  0.7929 -0.3561
 5554TIP3    H138221   2.226   4.396   0.064 -1.2742  2.3378  0.9353
 5554TIP3    H238222   2.340   4.318   0.126 -0.9497 -0.2400 -2.5911
 5555TIP3   OH238223   3.169   3.785   2.161 -0.9397 -0.0071 -0.0080
 5555TIP3    H138224   3.075   3.805   2.156 -0.5403  2.7207  1.4416
 5555TIP3    H238225   3.204   3.853   2.218  1.6431 -2.0981  1.0394
 5556TIP3   OH238226   0.758   2.429   7.815 -0.1549 -0.1974 -0.3071
 5556TIP3    H138227   0.822   2.475   7.760  0.8800 -0.2736  0.7942
 5556TIP3    H238228   0.753   2.341   7.779  0.0837 -0.0783 -0.6324
 5557TIP3   OH238229   1.590   6.271   1.215  0.1889 -0.0532 -0.3833
 5557TIP3    H138230   1.678   6.280   1.179  0.7087  2.0781  1.2450
 5557TIP3    H238231   1.544   6.350   1.185 -0.4822 -0.0603  0.5984
 5558TIP3   OH238232   5.729   2.077   1.085  0.6394  0.3050 -0.2910
 5558TIP3    H138233   5.713   2.043   0.997  0.2505 -1.3892  0.4006
 5558TIP3    H238234   5.738   2.172   1.073  1.9578 -0.0265 -2.3268
 5559TIP3   OH238235   1.450   6.293   8.056 -0.0760  0.0251  0.4920
 5559TIP3    H138236   1.535   6.253   8.037  0.5079  1.1682  0.6214
 5559TIP3    H238237   1.465   6.387   8.048 -1.3952  0.2378  0.2803
 5560TIP3   OH238238   0.855   2.719   0.114  0.3915 -0.3066  0.0411
 5560TIP3    H138239   0.832   2.800   0.160  0.7247  0.6327 -1.3667
 5560TIP3    H238240   0.950   2.713   0.123  0.3138 -0.8530  0.5939
 5561TIP3   OH238241   4.018   1.984   1.283 -0.5987 -0.1084 -0.4495
 5561TIP3    H138242   3.996   2.058   1.339 -2.3837  0.1159 -1.3738
 5561TIP3    H238243   3.940   1.928   1.284 -0.2119 -0.7187 -1.7083
 5562TIP3   OH238244   4.578   2.759   7.607  0.3374 -0.0751 -0.3114
 5562TIP3    H138245   4.553   2.714   7.687  2.0041 -1.5000 -0.5362
 5562TIP3    H238246   4.533   2.843   7.612 -1.7605 -1.1790  0.8012
 5563TIP3   OH238247   6.327   4.411   8.236  0.8250  0.4887 -0.1209
 5563TIP3    H138248   6.251   4.378   8.187  1.7550  1.9246 -2.7630
 5563TIP3    H238249   6.391   4.340   8.232  0.2907 -0.0297  0.4719
 5564TIP3   OH238250   2.747   1.604   8.305  0.1973 -0.1092  0.3814
 5564TIP3    H138251   2.799   1.532   8.271  0.6829 -0.2334  1.3641
 5564TIP3    H238252   2.705   1.642   8.228 -1.7463 -2.7263  0.0125
 5565TIP3   OH238253   5.065   4.312   8.409 -0.7843 -0.5200  0.6255
 5565TIP3    H138254   5.010   4.369   8.462 -1.6729 -1.1370  0.3730
 5565TIP3    H238255   5.148   4.359   8.403 -1.3290  0.4969  0.8677
 5566TIP3   OH238256   3.909   0.075   0.047  0.0312  0.4434  0.5043
 5566TIP3    H138257   3.964   0.153   0.052 -0.3309  0.6663  1.3618
 5566TIP3    H238258   3.966   0.003   0.075  0.5197  0.2952 -0.8020
 5567TIP3   OH238259   1.722   6.670   1.345 -0.0691  0.7599 -0.7813
 5567TIP3    H138260   1.726   6.762   1.318  0.5018  0.5052 -1.6199
 5567TIP3    H238261   1.814   6.643   1.351 -0.2077  0.5292  0.5000
 5568TIP3   OH238262   3.397   2.270   1.204 -0.7846  0.5248  0.4587
 5568TIP3    H138263   3.348   2.304   1.129  0.8857  1.8478 -0.0826
 5568TIP3    H238264   3.362   2.318   1.279 -2.0167 -0.3462  0.4710
 5569TIP3   OH238265   0.471   4.445   2.459  0.3720 -0.6148  0.1096
 5569TIP3    H138266   0.554   4.441   2.506  0.2043  0.4813  0.5463
 5569TIP3    H238267   0.412   4.494   2.518 -0.3166 -0.6135 -0.5558
 5570TIP3   OH238268   5.859   0.385   0.220 -0.0780 -0.3078  0.3757
 5570TIP3    H138269   5.874   0.477   0.197 -0.4914 -0.3289  0.0154
 5570TIP3    H238270   5.854   0.340   0.136  1.2690 -0.8510  0.5592
 5571TIP3   OH238271   6.368   4.105   8.757 -0.3647 -0.4062  0.1717
 5571TIP3    H138272   6.419   4.152   8.691 -0.0307 -1.1772 -0.1339
 5571TIP3    H238273   6.407   4.017   8.759  0.0440 -0.2239  1.8316
 5572TIP3   OH238274   2.455   3.266   8.816  0.3671  0.5211  0.2481
 5572TIP3    H138275   2.499   3.300   8.738  1.8060  1.1979  1.3173
 5572TIP3    H238276   2.438   3.174   8.796  1.5782  0.4439 -0.5110
 5573TIP3   OH238277   3.551   4.387   7.499 -0.4090  0.5701  0.0464
 5573TIP3    H138278   3.577   4.420   7.413 -0.7173 -0.1730 -0.3427
 5573TIP3    H238279   3.518   4.464   7.545 -0.1356  0.9963 -0.4573
 5574TIP3   OH238280   0.004   3.507   8.235 -0.2130 -0.0648 -0.5026
 5574TIP3    H138281   0.021   3.598   8.256 -2.3697  0.8253 -2.1759
 5574TIP3    H238282  -0.079   3.509   8.186 -0.9249 -3.0306  0.3894
 5575TIP3   OH238283   6.304   0.497   1.251 -0.6457  0.0438  0.1363
 5575TIP3    H138284   6.376   0.486   1.313 -0.5323 -0.4356 -0.0825
 5575TIP3    H238285   6.297   0.413   1.206 -0.2428  0.6003 -1.0286
 5576TIP3   OH238286   0.040   3.881   7.824  0.1671  0.0243  0.2093
 5576TIP3    H138287   0.022   3.925   7.907  0.9060  1.2397 -0.2498
 5576TIP3    H238288   0.081   3.799   7.848 -0.1491  0.1065  1.0568
 5577TIP3   OH238289   4.532   0.371   8.724  0.5645 -0.3206  0.3668
 5577TIP3    H138290   4.475   0.414   8.660 -0.4731 -0.7451  0.9839
 5577TIP3    H238291   4.510   0.278   8.717  2.0170 -0.6467 -0.1892
 5578TIP3   OH238292   1.871   6.282   1.059  0.1777 -0.4103 -0.0699
 5578TIP3    H138293   1.870   6.357   1.000 -0.6721  1.5578  2.2662
 5578TIP3    H238294   1.937   6.305   1.125  1.3820 -2.7048 -0.3785
 5579TIP3   OH238295   4.348   3.313   6.636  0.3996 -0.1024 -0.1386
 5579TIP3    H138296   4.253   3.301   6.640  0.3378  0.7145  1.3934
 5579TIP3    H238297   4.382   3.225   6.620 -0.6232 -0.3056 -1.4136
 5580TIP3   OH238298   0.293   2.203   0.190  0.0468  0.1939  0.4025
 5580TIP3    H138299   0.387   2.185   0.194  0.4404  2.1967  1.7362
 5580TIP3    H238300   0.285   2.294   0.219 -2.2986  0.1289  0.1401
 5581TIP3   OH238301   5.223   3.647   1.058 -0.2973 -0.4962 -0.4789
 5581TIP3    H138302   5.213   3.633   1.152 -0.7247 -1.4068 -0.6550
 5581TIP3    H238303   5.312   3.683   1.049 -0.9318  1.4499  0.4401
 5582TIP3   OH238304   4.850   3.933   1.764 -0.3348  0.0594 -0.1677
 5582TIP3    H138305   4.906   3.983   1.704  0.4012 -0.9189 -0.3281
 5582TIP3    H238306   4.812   3.865   1.710  0.6480 -1.0806  0.5273
 5583TIP3   OH238307   2.004   5.098   1.907  0.0213  0.3585 -0.0958
 5583TIP3    H138308   1.977   5.178   1.861  2.5207  1.4696  0.2316
 5583TIP3    H238309   1.927   5.072   1.957 -1.8672  0.7543 -2.5826
 5584TIP3   OH238310   1.172   2.677   8.751 -0.2363  0.1107  0.4782
 5584TIP3    H138311   1.210   2.602   8.796 -0.1381  0.1599  0.4780
 5584TIP3    H238312   1.078   2.661   8.752 -0.1159 -0.7649 -0.8809
 5585TIP3   OH238313   4.005   5.425   2.441  0.1059 -0.3862  0.6650
 5585TIP3    H138314   4.056   5.344   2.443 -1.2413 -1.2577  2.0687
 5585TIP3    H238315   4.055   5.487   2.495  1.3257 -0.1258 -0.7126
 5586TIP3   OH238316   0.651   2.488   1.186 -0.0522 -0.2728 -0.1036
 5586TIP3    H138317   0.740   2.493   1.150 -0.5852  1.0624 -1.3363
 5586TIP3    H238318   0.608   2.567   1.154 -0.8253  0.6611  2.9462
 5587TIP3   OH238319   6.557   1.335   7.439 -0.1617 -0.1306 -0.0941
 5587TIP3    H138320   6.509   1.270   7.491 -0.8097 -1.5933 -2.3549
 5587TIP3    H238321   6.492   1.403   7.420  0.5841  1.4325  2.4873
 5588TIP3   OH238322   4.110   0.527   6.191 -0.0885  0.1161 -0.1234
 5588TIP3    H138323   4.173   0.592   6.224 -1.8950  0.7743  2.3478
 5588TIP3    H238324   4.158   0.445   6.190  0.6808  0.4567  2.4066
 5589TIP3   OH238325   0.165   2.666   1.539 -0.1048  0.2572 -0.2581
 5589TIP3    H138326   0.187   2.576   1.564 -0.9237  0.3010  0.6545
 5589TIP3    H238327   0.221   2.720   1.595  1.1482  0.3393 -1.5221
 5590TIP3   OH238328   0.999   0.501   7.807  0.0926  0.0219 -0.3525
 5590TIP3    H138329   0.921   0.505   7.862 -0.5102 -0.4114 -1.1467
 5590TIP3    H238330   0.970   0.454   7.729  1.1472 -0.1088 -0.6729
 5591TIP3   OH238331   0.582   5.432   6.868  0.3670  0.4672  0.2191
 5591TIP3    H138332   0.495   5.399   6.887 -0.0026  0.8416 -0.7389
 5591TIP3    H238333   0.617   5.371   6.802  0.0301  1.4235 -0.8838
 5592TIP3   OH238334   1.166   1.259   7.405  0.1250  0.2721 -0.5814
 5592TIP3    H138335   1.257   1.260   7.434 -0.3822  0.4664  1.1299
 5592TIP3    H238336   1.125   1.332   7.452 -1.5354 -1.5432  0.9760
 5593TIP3   OH238337   0.829   4.984   0.404 -0.2651 -0.8502 -0.0701
 5593TIP3    H138338   0.882   4.905   0.399 -1.0794 -1.4684  0.6831
 5593TIP3    H238339   0.892   5.056   0.394  0.9059 -1.5178  1.8234
 5594TIP3   OH238340   2.407   4.334   0.879  0.5950  0.1662  0.0597
 5594TIP3    H138341   2.312   4.341   0.888  0.5378 -1.0441  0.6535
 5594TIP3    H238342   2.441   4.364   0.963  0.6423 -0.7741  0.3928
 5595TIP3   OH238343   6.292   3.976   8.159  0.7448 -0.7268  0.3333
 5595TIP3    H138344   6.316   3.908   8.095 -0.7372 -0.3498 -0.6764
 5595TIP3    H238345   6.320   4.058   8.118 -0.3309 -0.4707  0.0666
 5596TIP3   OH238346   6.763   5.464   0.388 -0.1898  0.4139 -0.4252
 5596TIP3    H138347   6.727   5.495   0.471 -1.8607 -0.6359 -0.7240
 5596TIP3    H238348   6.755   5.539   0.330 -3.0369 -0.0481 -0.7914
 5597TIP3   OH238349   6.730   3.897   0.495 -0.4317  0.1174  0.3748
 5597TIP3    H138350   6.785   3.896   0.416 -1.7168  1.1951 -0.5862
 5597TIP3    H238351   6.663   3.964   0.477 -1.6575 -0.6675  1.7661
 5598TIP3   OH238352   1.869   0.377   1.268 -0.2482 -0.1581  0.2343
 5598TIP3    H138353   1.856   0.422   1.351  0.5061 -1.0058  0.8433
 5598TIP3    H238354   1.786   0.385   1.222 -0.1315  1.8145  0.3137
 5599TIP3   OH238355   0.939   3.511   2.186 -0.0422  0.1153 -0.2889
 5599TIP3    H138356   0.921   3.600   2.219 -0.3422 -0.0147 -0.0946
 5599TIP3    H238357   1.034   3.506   2.183  0.0161  0.0069  0.9449
 5600TIP3   OH238358   3.748   5.135   7.651  0.4988  0.8225 -0.6014
 5600TIP3    H138359   3.794   5.067   7.700 -2.1766 -0.2433  0.6139
 5600TIP3    H238360   3.778   5.217   7.690  0.2997  0.0947  1.2126
 5601TIP3   OH238361   4.398   0.944   1.571  0.2273 -0.1876  0.3713
 5601TIP3    H138362   4.364   0.855   1.566 -1.2546  0.4344 -1.8528
 5601TIP3    H238363   4.329   0.993   1.616  0.8248 -0.0504  1.1536
 5602TIP3   OH238364   2.344   1.807   8.258  0.7389 -0.0676  0.2215
 5602TIP3    H138365   2.263   1.819   8.309  0.6777 -0.3018  0.1800
 5602TIP3    H238366   2.316   1.761   8.179  1.0926 -1.2248  0.7527
 5603TIP3   OH238367   4.113   5.023   1.408 -0.9517 -0.1426 -0.5123
 5603TIP3    H138368   4.039   5.001   1.352 -0.5308 -0.3553 -0.9838
 5603TIP3    H238369   4.139   4.939   1.447 -1.9442  0.1458  0.8996
 5604TIP3   OH238370   6.170   5.655   1.581  0.9043  0.0959  0.2362
 5604TIP3    H138371   6.080   5.687   1.586  0.6332 -0.4707 -0.6925
 5604TIP3    H238372   6.211   5.684   1.663  0.3869  1.8575 -0.0874
 5605TIP3   OH238373   0.612   4.496   1.933 -1.0093 -0.6076 -0.1540
 5605TIP3    H138374   0.688   4.508   1.991 -1.0883 -0.4842 -0.0755
 5605TIP3    H238375   0.537   4.514   1.989 -1.1632 -1.8199  0.0774
 5606TIP3   OH238376   1.321   6.012   0.776 -0.0387  0.4994  0.0746
 5606TIP3    H138377   1.317   5.917   0.762 -1.1968  0.6400 -0.6675
 5606TIP3    H238378   1.405   6.026   0.820  0.3222 -0.8233 -0.1461
 5607TIP3   OH238379   1.354   4.368   0.771 -0.1482 -0.3620 -0.0122
 5607TIP3    H138380   1.326   4.431   0.705  0.1103 -1.0389 -0.7874
 5607TIP3    H238381   1.420   4.414   0.823 -2.0205  0.9936  1.3263
 5608TIP3   OH238382   5.325   3.058   7.146 -0.0680 -0.5466  0.3724
 5608TIP3    H138383   5.415   3.056   7.177  0.8795  1.9299 -1.8345
 5608TIP3    H238384   5.330   3.024   7.057 -1.6789 -2.0348  0.7957
 5609TIP3   OH238385   3.796   3.689   7.372  0.5649 -0.4476 -0.2449
 5609TIP3    H138386   3.707   3.710   7.402  0.0865 -0.6213 -1.5073
 5609TIP3    H238387   3.785   3.611   7.317  1.4911 -0.4217 -0.4762
 5610TIP3   OH238388   4.130   4.757   8.785  0.5197  0.2864 -0.4050
 5610TIP3    H138389   4.197   4.825   8.783  0.2195  0.6224  0.3368
 5610TIP3    H238390   4.150   4.701   8.711  0.8074  1.1598 -1.0041
 5611TIP3   OH238391   1.229   3.274   6.962  0.1775  0.9753  0.7143
 5611TIP3    H138392   1.314   3.283   6.920  0.4205  0.7501  1.1490
 5611TIP3    H238393   1.176   3.344   6.925  0.1918  0.3978 -0.4256
 5612TIP3   OH238394   4.580   2.758   2.079  0.0736  0.1414  0.0661
 5612TIP3    H138395   4.497   2.802   2.061 -0.4993 -0.5435  0.9268
 5612TIP3    H238396   4.557   2.688   2.141  1.1116 -0.7491 -0.5230
 5613TIP3   OH238397   2.534   3.286   1.554 -0.8710 -0.0783  0.5866
 5613TIP3    H138398   2.619   3.267   1.514  1.3631  2.2506  3.7419
 5613TIP3    H238399   2.521   3.214   1.616 -1.5680 -0.7365 -0.2909
 5614TIP3   OH238400   4.935   0.927   2.124  0.2060 -0.5162 -0.4520
 5614TIP3    H138401   5.001   0.940   2.192 -0.3275  0.6404 -0.1466
 5614TIP3    H238402   4.984   0.891   2.050  1.0989 -0.1146 -0.0672
 5615TIP3   OH238403   5.037   4.927   7.028 -0.5096  0.0837  0.3316
 5615TIP3    H138404   5.081   4.961   6.950 -1.3463  0.8324  0.1683
 5615TIP3    H238405   5.057   4.833   7.027  0.6699  0.3119  0.0111
 5616TIP3   OH238406   1.707   0.815   7.856  0.5421 -0.0508  0.3026
 5616TIP3    H138407   1.618   0.786   7.876  0.2786  0.1518 -0.5459
 5616TIP3    H238408   1.763   0.750   7.899 -0.0024  0.0061  1.1217
 5617TIP3   OH238409   2.130   5.801   7.628  0.1838  0.1181  0.3084
 5617TIP3    H138410   2.208   5.836   7.586  0.4146  0.2335  0.8345
 5617TIP3    H238411   2.062   5.867   7.613  0.2537  0.1401  0.0866
 5618TIP3   OH238412   5.332   0.920   2.101  0.1891 -0.0167 -0.4935
 5618TIP3    H138413   5.296   0.831   2.104 -1.1046  0.5102  0.4814
 5618TIP3    H238414   5.275   0.967   2.040  1.1403  0.0488 -1.3522
 5619TIP3   OH238415   6.718   0.115   0.273  0.2314 -0.2831  0.2854
 5619TIP3    H138416   6.688   0.138   0.361 -0.9798 -0.0890 -0.1518
 5619TIP3    H238417   6.808   0.145   0.269 -0.2224  1.2196  0.8999
 5620TIP3   OH238418   1.080   6.128   2.637 -0.2585  0.0613 -0.1911
 5620TIP3    H138419   1.085   6.052   2.579  3.5093 -1.4349  1.7461
 5620TIP3    H238420   1.001   6.114   2.690  1.4554 -3.9601  1.7042
 5621TIP3   OH238421   1.422   1.634   0.568 -0.4632 -0.3989 -0.2977
 5621TIP3    H138422   1.435   1.617   0.474 -1.4002  0.6015 -0.6306
 5621TIP3    H238423   1.352   1.575   0.594  1.0307 -1.9958  0.2347
 5622TIP3   OH238424   4.164   3.977   7.120  0.7585  0.4482 -0.3109
 5622TIP3    H138425   4.209   4.009   7.042  1.6165 -0.3714 -0.1701
 5622TIP3    H238426   4.227   3.918   7.162 -0.9754 -2.0138 -0.9361
 5623TIP3   OH238427   4.449   4.245   0.864 -0.1555 -0.7397  0.2602
 5623TIP3    H138428   4.530   4.272   0.821 -1.4529 -0.2679 -2.0196
 5623TIP3    H238429   4.432   4.313   0.929  0.4784 -0.0382 -0.3004
 5624TIP3   OH238430   3.269   4.564   8.561  0.1576  0.1874  0.1190
 5624TIP3    H138431   3.200   4.563   8.628  0.8605 -1.5211  0.8724
 5624TIP3    H238432   3.227   4.603   8.485 -1.6581 -0.7187  0.5821
 5625TIP3   OH238433   6.207   5.761   1.089  0.2030 -0.5510  0.2444
 5625TIP3    H138434   6.136   5.824   1.077  0.2477 -0.5651 -0.1048
 5625TIP3    H238435   6.247   5.752   1.002  1.1390  0.0569  0.5933
 5626TIP3   OH238436   3.273   1.255   7.656  0.0086 -0.3885 -0.6303
 5626TIP3    H138437   3.238   1.291   7.737  0.5871 -1.2721  0.0356
 5626TIP3    H238438   3.367   1.273   7.661  0.1700 -1.1920 -0.7007
 5627TIP3   OH238439   2.283   4.194   8.711  0.1541  0.5481  0.1252
 5627TIP3    H138440   2.285   4.104   8.744  0.3105  1.1761  1.8928
 5627TIP3    H238441   2.233   4.243   8.776 -1.2554  1.4938 -1.5561
 5628TIP3   OH238442   1.022   0.846   1.082  0.2277 -0.2731  0.4475
 5628TIP3    H138443   0.955   0.779   1.096  0.0706  0.1758  2.0891
 5628TIP3    H238444   1.105   0.799   1.092  0.1264 -0.4101  0.6593
 5629TIP3   OH238445   3.089   5.274   2.342  0.1335 -0.0511 -0.4711
 5629TIP3    H138446   3.037   5.239   2.415  1.6147 -1.5715 -0.0831
 5629TIP3    H238447   3.038   5.348   2.310 -1.9394 -1.0768  0.2907
 5630TIP3   OH238448   6.623   5.247   0.129 -0.0898  0.1181  0.2180
 5630TIP3    H138449   6.697   5.191   0.107  0.1372  0.9587 -1.2740
 5630TIP3    H238450   6.651   5.295   0.206  0.2329 -0.8192  0.6997
 5631TIP3   OH238451   3.302   3.197   0.664 -0.5450 -0.2595  0.0095
 5631TIP3    H138452   3.383   3.214   0.616 -0.6444  1.2194  0.2997
 5631TIP3    H238453   3.232   3.213   0.600 -0.7528  3.4099  0.9151
 5632TIP3   OH238454   4.111   5.060   8.032  0.4711  0.1688  0.4534
 5632TIP3    H138455   4.175   5.118   7.990  0.4254  0.3582  0.6450
 5632TIP3    H238456   4.046   5.119   8.069  0.2179 -0.0229  0.3181
 5633TIP3   OH238457   0.938   1.202   8.022  0.2564  0.3682  0.4760
 5633TIP3    H138458   1.009   1.154   7.978 -1.6584 -0.8346 -1.4770
 5633TIP3    H238459   0.881   1.134   8.057 -1.6152  1.1784 -0.8458
 5634TIP3   OH238460   0.788   2.396   0.543 -0.4619  0.2913 -0.3673
 5634TIP3    H138461   0.758   2.308   0.519  0.2395  0.1602 -0.7832
 5634TIP3    H238462   0.882   2.396   0.523 -0.4362  1.1064 -0.2836
 5635TIP3   OH238463   4.401   2.638   0.324 -0.0138  0.1000 -0.0951
 5635TIP3    H138464   4.470   2.592   0.277 -0.0660 -0.5796  0.4862
 5635TIP3    H238465   4.448   2.694   0.386  0.0096 -0.3904  0.3262
 5636TIP3   OH238466   0.712   5.708   7.714  0.5583 -0.1528 -0.0949
 5636TIP3    H138467   0.694   5.640   7.649 -0.0066 -0.1321  0.0377
 5636TIP3    H238468   0.675   5.788   7.675 -0.2604 -0.2392  0.4774
 5637TIP3   OH238469   0.835   3.684   7.078  0.1955 -0.0999  1.1011
 5637TIP3    H138470   0.885   3.654   7.002 -1.3943  0.1950 -0.1356
 5637TIP3    H238471   0.814   3.775   7.058 -1.1550 -0.3319  1.3644
 5638TIP3   OH238472   4.228   4.143   2.252 -0.7128 -0.0461 -0.0776
 5638TIP3    H138473   4.299   4.093   2.294 -1.7114  0.7881  2.8610
 5638TIP3    H238474   4.150   4.090   2.265 -1.2719  0.8529  0.3541
 5639TIP3   OH238475   6.607   0.641   1.686  0.0455 -0.0351 -0.1622
 5639TIP3    H138476   6.559   0.604   1.612 -1.1859  0.6861  0.2413
 5639TIP3    H238477   6.588   0.734   1.683  0.7607  0.1439  0.5137
 5640TIP3   OH238478   4.789   0.511   1.317 -0.5949 -0.6061 -0.2645
 5640TIP3    H138479   4.730   0.576   1.355  0.3777 -1.3864  2.9695
 5640TIP3    H238480   4.733   0.455   1.264 -2.0554  0.8052 -0.2770
 5641TIP3   OH238481   3.742   1.416   8.102 -0.3219 -0.5758 -0.1276
 5641TIP3    H138482   3.667   1.476   8.101 -1.0125 -1.3525  1.4673
 5641TIP3    H238483   3.813   1.467   8.140 -0.5194 -0.3412 -0.0719
 5642TIP3   OH238484   2.753   1.046   6.520 -0.0092  0.2913  0.1430
 5642TIP3    H138485   2.822   1.054   6.454 -0.9619 -2.2261 -1.2707
 5642TIP3    H238486   2.778   0.968   6.571 -2.5946 -1.8075 -1.5484
 5643TIP3   OH238487   6.393   0.268   0.649 -0.1693  0.2172  1.1010
 5643TIP3    H138488   6.299   0.256   0.639  0.1043 -0.9445 -0.3762
 5643TIP3    H238489   6.432   0.214   0.580  1.5725  0.8996  1.4957
 5644TIP3   OH238490   6.736   4.691   8.230 -0.3836  0.1141 -0.0550
 5644TIP3    H138491   6.710   4.633   8.158 -1.0971 -0.5737  0.7404
 5644TIP3    H238492   6.694   4.653   8.307  0.4758  0.7791  0.7461
 5645TIP3   OH238493   2.307   1.022   1.775 -0.3291  0.1695  0.5140
 5645TIP3    H138494   2.270   1.057   1.856 -1.8441  0.5736 -0.3121
 5645TIP3    H238495   2.381   1.079   1.756 -0.6443  0.7651  1.0308
 5646TIP3   OH238496   2.884   0.212   0.588  0.5430  0.0004  0.0090
 5646TIP3    H138497   2.939   0.150   0.541  1.6435  0.1276  1.0873
 5646TIP3    H238498   2.869   0.172   0.673 -0.5753  0.2341 -0.0597
 5647TIP3   OH238499   3.838   2.108   1.443 -0.0467 -0.0775 -0.4405
 5647TIP3    H138500   3.868   2.187   1.488  0.7146 -0.6369  0.0522
 5647TIP3    H238501   3.807   2.050   1.512  1.2965 -1.0159 -0.5867
 5648TIP3   OH238502   3.505   4.434   0.350 -0.3386 -0.1172  0.0563
 5648TIP3    H138503   3.587   4.384   0.347 -0.3577 -0.3205  1.7388
 5648TIP3    H238504   3.533   4.523   0.374 -0.6110 -0.2694  0.9906
 5649TIP3   OH238505   4.154   3.967   8.645 -0.0200 -0.0531 -0.5090
 5649TIP3    H138506   4.219   3.992   8.711  0.3687 -1.7554 -0.1961
 5649TIP3    H238507   4.127   3.879   8.670 -0.7458 -0.2789 -1.9555
 5650TIP3   OH238508   2.520   3.721   7.804  0.0818  0.1030 -0.3237
 5650TIP3    H138509   2.569   3.794   7.765 -1.0939  0.4119 -1.2736
 5650TIP3    H238510   2.478   3.759   7.881 -0.6700  0.4925 -0.9142
 5651TIP3   OH238511   0.356   1.267   2.371  0.3490 -0.0639 -0.9696
 5651TIP3    H138512   0.397   1.189   2.409  0.9707  1.4179  1.6959
 5651TIP3    H238513   0.268   1.237   2.347  0.0082 -1.2939  1.4583
 5652TIP3   OH238514   2.656   6.582   0.254  0.3324 -0.3299  0.0330
 5652TIP3    H138515   2.634   6.513   0.192  2.2582 -1.1711  0.2134
 5652TIP3    H238516   2.595   6.569   0.327 -0.1007 -1.0947 -0.4513
 5653TIP3   OH238517   5.654   2.960   8.717  0.3383 -0.2345 -0.4124
 5653TIP3    H138518   5.687   3.047   8.695 -1.5914  1.0270  1.3508
 5653TIP3    H238519   5.712   2.929   8.786  0.4898  0.0461 -0.4113
 5654TIP3   OH238520   2.015   4.940   7.400  0.4005 -0.2600  0.0620
 5654TIP3    H138521   2.005   5.034   7.393  0.7471 -0.1362  1.0940
 5654TIP3    H238522   1.959   4.915   7.474 -1.1533 -1.1310 -1.3294
 5655TIP3   OH238523   0.847   2.809   0.816 -0.1363 -0.4842  0.8362
 5655TIP3    H138524   0.760   2.772   0.832 -0.1716  0.1926  2.3667
 5655TIP3    H238525   0.855   2.880   0.879  0.6461  0.9693 -0.8243
 5656TIP3   OH238526   4.160   3.456   0.324  0.1791 -0.6660  0.2347
 5656TIP3    H138527   4.100   3.489   0.258 -0.3652  3.0638  2.3042
 5656TIP3    H238528   4.244   3.450   0.280 -0.7059 -1.1540 -1.4756
 5657TIP3   OH238529   0.832   5.917   6.327 -0.5156  0.3732 -0.6628
 5657TIP3    H138530   0.874   5.851   6.383 -0.0402  0.9922 -0.2782
 5657TIP3    H238531   0.852   6.000   6.369 -1.9642  0.7084 -0.5714
 5658TIP3   OH238532   0.043   3.885   8.558 -0.2451 -0.0785  0.3541
 5658TIP3    H138533   0.135   3.883   8.530 -0.3423  0.6252 -0.0272
 5658TIP3    H238534   0.046   3.920   8.647 -0.1270 -0.2291  0.4100
 5659TIP3   OH238535   3.729   5.651   8.313  0.1553 -0.5045  0.3196
 5659TIP3    H138536   3.764   5.723   8.366  0.2559 -0.6900  0.5072
 5659TIP3    H238537   3.798   5.585   8.314  0.0060 -0.6630  0.2673
 5660TIP3   OH238538   4.955   1.539   7.291  0.2795 -0.0752 -0.1208
 5660TIP3    H138539   4.862   1.515   7.301  0.5554 -2.6470 -2.5834
 5660TIP3    H238540   4.953   1.620   7.241 -0.7587 -1.4249 -2.4781
 5661TIP3   OH238541   2.796   1.466   0.788  0.2764 -0.4110  0.9708
 5661TIP3    H138542   2.713   1.450   0.832 -1.0737 -1.4176 -1.6777
 5661TIP3    H238543   2.841   1.382   0.789  0.6714 -0.1969  1.2777
 5662TIP3   OH238544   3.396   5.897   0.149  0.0197 -0.0555  0.0575
 5662TIP3    H138545   3.399   5.843   0.228 -0.5608 -1.5956 -0.9118
 5662TIP3    H238546   3.472   5.955   0.156  2.9394 -3.4374 -0.4239
 5663TIP3   OH238547   5.178   5.455   8.092 -0.1522  0.0214  0.6122
 5663TIP3    H138548   5.153   5.363   8.101 -1.8638  0.4701  0.7363
 5663TIP3    H238549   5.219   5.476   8.176  0.5315 -0.6841  0.4754
 5664TIP3   OH238550   4.959   6.545   1.699 -0.1213  0.6191  0.3888
 5664TIP3    H138551   5.009   6.565   1.778 -0.8057 -0.9549  1.2643
 5664TIP3    H238552   4.881   6.601   1.705  0.9436  2.3053 -0.4597
 5665TIP3   OH238553   3.729   0.292   2.391 -0.6153  0.1303 -0.0574
 5665TIP3    H138554   3.730   0.360   2.458 -0.4480 -0.5724  0.6746
 5665TIP3    H238555   3.821   0.270   2.378 -0.7310 -1.0153  0.8475
 5666TIP3   OH238556   0.879   3.677   7.351 -0.4739  0.5722 -0.3460
 5666TIP3    H138557   0.785   3.680   7.368 -0.4067  2.5604 -0.0547
 5666TIP3    H238558   0.887   3.700   7.258 -0.3199 -0.8744 -0.7129
 5667TIP3   OH238559   3.238   2.875   0.133  0.1900 -0.3933 -0.0407
 5667TIP3    H138560   3.309   2.822   0.095  0.1638 -0.0235 -0.6142
 5667TIP3    H238561   3.230   2.950   0.074 -0.7781 -0.5002 -0.0478
 5668TIP3   OH238562   0.223   0.382   1.458 -0.2363  0.1502  0.0736
 5668TIP3    H138563   0.281   0.321   1.413  0.1709  0.7221 -0.1801
 5668TIP3    H238564   0.279   0.423   1.524 -0.5071  0.2675  0.2301
 5669TIP3   OH238565   2.919   2.341   1.264  0.6428  0.0806  0.3344
 5669TIP3    H138566   2.872   2.359   1.182 -0.8880 -0.1207  1.1224
 5669TIP3    H238567   2.872   2.267   1.302  1.9329 -0.4413  0.9408
 5670TIP3   OH238568   0.702   6.393   8.384 -0.0439  0.4793 -0.0256
 5670TIP3    H138569   0.642   6.463   8.408 -0.6335  0.9186 -2.4886
 5670TIP3    H238570   0.757   6.380   8.462 -1.4570  2.0236  1.2930
 5671TIP3   OH238571   2.382   4.160   0.673 -0.2982 -0.1713 -0.0374
 5671TIP3    H138572   2.336   4.214   0.609  2.1304  0.2663 -1.5209
 5671TIP3    H238573   2.390   4.216   0.750  0.9175  1.1158 -1.0499
 5672TIP3   OH238574   4.030   1.054   0.457 -0.3083  0.3724 -0.4095
 5672TIP3    H138575   4.083   1.088   0.529 -0.6262  0.4016 -0.1886
 5672TIP3    H238576   4.093   1.035   0.388  0.0591 -0.0830  0.0380
 5673TIP3   OH238577   3.145   0.343   0.154 -0.3078 -0.1558  0.5849
 5673TIP3    H138578   3.202   0.335   0.078 -1.4093 -2.7536 -0.0882
 5673TIP3    H238579   3.078   0.275   0.141 -0.9298 -0.2530  3.5453
 5674TIP3   OH238580   1.397   4.993   8.105  0.7347  0.5847  0.3608
 5674TIP3    H138581   1.433   4.998   8.016  1.0637  1.9561  0.5526
 5674TIP3    H238582   1.356   5.079   8.119 -0.8699 -0.2239  0.8999
 5675TIP3   OH238583   5.294   3.759   7.956 -0.7344 -0.2279  0.7764
 5675TIP3    H138584   5.380   3.795   7.980 -0.7215 -0.5580  1.2488
 5675TIP3    H238585   5.272   3.700   8.028 -2.0777  1.0299  1.4631
 5676TIP3   OH238586   4.543   0.120   0.276 -0.2212 -0.0019  0.1420
 5676TIP3    H138587   4.470   0.079   0.228 -0.8009 -0.8949  1.6969
 5676TIP3    H238588   4.620   0.070   0.249 -0.6648 -1.0298  0.7128
 5677TIP3   OH238589   2.378   2.874   7.717  0.0531  0.2819 -0.3434
 5677TIP3    H138590   2.363   2.933   7.791 -0.8766 -0.3989  0.0280
 5677TIP3    H238591   2.302   2.887   7.660 -0.2037 -0.6104 -0.2149
 5678TIP3   OH238592   5.742   3.887   7.757 -0.1297 -0.0627 -0.6013
 5678TIP3    H138593   5.823   3.839   7.771  0.3709  0.7785 -0.5125
 5678TIP3    H238594   5.744   3.956   7.824 -1.4954 -0.7430  0.1956
 5679TIP3   OH238595   4.779   1.882   8.681  0.8504  0.0682 -0.0744
 5679TIP3    H138596   4.755   1.810   8.741  0.0215 -0.8694 -1.4845
 5679TIP3    H238597   4.872   1.868   8.664  1.1870  0.5444  1.2236
 5680TIP3   OH238598   3.440   0.416   1.162 -0.5019  0.5009 -0.1726
 5680TIP3    H138599   3.421   0.510   1.165 -0.4256  0.5409 -0.7267
 5680TIP3    H238600   3.355   0.374   1.155 -0.5050  0.5651 -0.5459
 5681TIP3   OH238601   3.237   2.746   1.572 -0.8024  0.1742  0.1873
 5681TIP3    H138602   3.286   2.764   1.652  0.5222 -2.4852  0.1018
 5681TIP3    H238603   3.302   2.758   1.502 -1.0576 -0.5798 -0.1855
 5682TIP3   OH238604   3.821   5.040   0.081  0.0785  0.3044 -0.3265
 5682TIP3    H138605   3.877   5.016   0.156 -0.4230  2.5436  0.8584
 5682TIP3    H238606   3.786   4.956   0.050  2.0871 -0.9203  0.4919
 5683TIP3   OH238607   1.389   6.346   0.298 -0.7766 -0.2725  0.0816
 5683TIP3    H138608   1.425   6.258   0.287 -0.7934 -0.1158 -1.5414
 5683TIP3    H238609   1.299   6.332   0.326 -1.2729 -0.8527 -1.6797
 5684TIP3   OH238610   4.290   5.042   2.097 -0.0699  0.0866 -0.4338
 5684TIP3    H138611   4.213   5.071   2.146  0.1741  1.2568 -0.7001
 5684TIP3    H238612   4.314   4.958   2.136 -0.6830  0.3525  0.5482
 5685TIP3   OH238613   2.905   6.084   1.255  0.5933 -0.8480  0.3043
 5685TIP3    H138614   2.812   6.079   1.230  0.9795 -0.5730 -1.3671
 5685TIP3    H238615   2.921   6.178   1.267  1.0697 -0.6860 -1.3301
 5686TIP3   OH238616   3.541   1.331   7.532 -0.4742  0.2459  0.3276
 5686TIP3    H138617   3.598   1.290   7.467  0.7360  0.8491  0.9788
 5686TIP3    H238618   3.494   1.399   7.483 -0.8265 -0.4021 -0.2617
 5687TIP3   OH238619   1.800   6.323   8.104  0.1056 -0.6676 -0.2073
 5687TIP3    H138620   1.803   6.368   8.188 -0.7096  1.1662 -1.1112
 5687TIP3    H238621   1.891   6.324   8.073  0.3354 -0.9822  0.4526
 5688TIP3   OH238622   1.550   4.592   0.883 -0.1663 -0.0489 -0.2930
 5688TIP3    H138623   1.589   4.627   0.964  0.6762 -0.6543 -0.4292
 5688TIP3    H238624   1.621   4.594   0.819  0.1886 -2.7804 -0.0866
 5689TIP3   OH238625   0.384   3.698   6.673 -0.2845 -0.3443 -0.0482
 5689TIP3    H138626   0.398   3.604   6.683 -0.8212 -0.4159  0.0574
 5689TIP3    H238627   0.376   3.711   6.578 -0.7290 -0.4863 -0.0328
 5690TIP3   OH238628   2.124   3.115   7.015  0.0783  0.1901 -0.0263
 5690TIP3    H138629   2.128   3.025   7.049  3.2964  0.7017  1.2952
 5690TIP3    H238630   2.107   3.168   7.092  2.2910  0.9558  0.0153
 5691TIP3   OH238631   3.920   0.972   7.733  0.0672 -0.8172 -0.0575
 5691TIP3    H138632   3.909   1.066   7.719 -0.9658 -0.6049  1.8145
 5691TIP3    H238633   3.904   0.932   7.648  1.3166  0.7267 -1.0726
 5692TIP3   OH238634   1.796   0.972   8.705  0.2386  0.3176  0.2410
 5692TIP3    H138635   1.885   0.955   8.737 -0.0613 -0.5408  0.6479
 5692TIP3    H238636   1.760   1.037   8.766  0.4243  0.3263  0.3407
 5693TIP3   OH238637   1.276   0.385   1.702 -0.4902  0.0551 -0.0078
 5693TIP3    H138638   1.360   0.390   1.747 -0.7856  0.1670  0.5293
 5693TIP3    H238639   1.268   0.469   1.657  0.1599 -0.3532 -0.9169
 5694TIP3   OH238640   0.338   2.740   0.423 -0.7049 -0.1442 -0.1433
 5694TIP3    H138641   0.384   2.805   0.475  1.5829 -2.3758  0.8377
 5694TIP3    H238642   0.282   2.694   0.485 -0.5440 -0.6194 -0.3437
 5695TIP3   OH238643   2.927   2.893   8.747  0.0478 -0.2866  0.4434
 5695TIP3    H138644   2.872   2.894   8.669 -0.9696 -1.3964  1.1223
 5695TIP3    H238645   2.922   2.804   8.780  1.0609 -0.0265  1.3761
 5696TIP3   OH238646   4.544   6.049   0.433  0.3030  0.2060  0.3523
 5696TIP3    H138647   4.461   6.091   0.457  0.3520  0.0012  0.8926
 5696TIP3    H238648   4.561   5.987   0.504  0.4929 -0.3579 -0.1776
 5697TIP3   OH238649   0.517   2.165   7.715  0.3950 -0.1591  0.2911
 5697TIP3    H138650   0.611   2.179   7.722  0.2829  0.4887  0.5524
 5697TIP3    H238651   0.492   2.126   7.799  0.3012  0.4249  0.5368
 5698TIP3   OH238652   2.786   2.489   1.037  0.3644  0.0893  0.2466
 5698TIP3    H138653   2.755   2.518   1.123 -1.7510 -1.4183  0.0726
 5698TIP3    H238654   2.782   2.568   0.983 -1.4914  0.4001  0.7390
 5699TIP3   OH238655   4.476   5.064   7.117  0.6642 -0.4133  0.4393
 5699TIP3    H138656   4.422   5.015   7.055  1.2242 -0.8955  0.3319
 5699TIP3    H238657   4.474   5.154   7.083  0.6124 -0.5878 -0.0366
 5700TIP3   OH238658   4.685   3.263   7.661  0.3061 -0.1716  0.4272
 5700TIP3    H138659   4.740   3.217   7.725  1.7280 -0.1187 -0.7014
 5700TIP3    H238660   4.595   3.240   7.686  0.9036 -2.3933  0.7795
 5701TIP3   OH238661   2.074   5.469   0.895 -0.5259 -0.4875  0.0784
 5701TIP3    H138662   2.154   5.506   0.933 -1.1074  0.3208  0.5423
 5701TIP3    H238663   2.078   5.376   0.916  0.5513 -0.5647 -0.3762
 5702TIP3   OH238664   3.665   0.445   7.385 -0.7117 -0.2699 -0.5011
 5702TIP3    H138665   3.693   0.353   7.384 -0.0976 -0.1143  0.6954
 5702TIP3    H238666   3.719   0.487   7.318 -0.4764 -0.6370 -0.5471
 5703TIP3   OH238667   1.317   1.860   0.085 -0.3227  0.5456 -0.2578
 5703TIP3    H138668   1.255   1.886   0.017  0.7934  1.0972 -1.1005
 5703TIP3    H238669   1.262   1.833   0.159 -1.7072  4.7579  0.5507
 5704TIP3   OH238670   3.085   2.724   0.815  0.5134  0.0369 -0.1091
 5704TIP3    H138671   3.176   2.696   0.805  0.2417 -2.2019  2.3470
 5704TIP3    H238672   3.040   2.684   0.741  1.2887 -0.1855 -0.4810
 5705TIP3   OH238673   4.047   4.801   2.664  0.3462 -0.1368 -0.6200
 5705TIP3    H138674   4.073   4.812   2.573  0.2506  0.0659 -0.6251
 5705TIP3    H238675   4.127   4.777   2.710  0.2334 -1.0473 -0.8952
 5706TIP3   OH238676   5.583   6.380   1.801 -0.0178 -0.5893  0.4879
 5706TIP3    H138677   5.606   6.330   1.723 -0.3611 -0.3427  0.2245
 5706TIP3    H238678   5.558   6.314   1.866 -3.0319 -0.7372 -0.6538
 5707TIP3   OH238679   1.520   6.125   0.185 -0.3877  0.2035 -0.1095
 5707TIP3    H138680   1.566   6.154   0.264 -1.1157  1.9726 -0.2729
 5707TIP3    H238681   1.580   6.148   0.113 -0.2834 -0.1937 -0.1497
 5708TIP3   OH238682   5.013   5.176   7.789 -0.0798 -0.7279  0.3745
 5708TIP3    H138683   5.014   5.108   7.856 -1.8573 -0.1201  1.0507
 5708TIP3    H238684   4.938   5.155   7.734 -0.6824  0.7107  0.6211
 5709TIP3   OH238685   2.667   1.833   0.656 -0.0139  0.0004  0.4562
 5709TIP3    H138686   2.591   1.776   0.667 -0.2726 -0.1489 -1.5936
 5709TIP3    H238687   2.658   1.900   0.723 -0.9257 -1.0847  1.4489
 5710TIP3   OH238688   5.565   2.441   0.670 -0.2700 -0.4168  0.4161
 5710TIP3    H138689   5.475   2.441   0.638 -1.1467  2.7318  2.4382
 5710TIP3    H238690   5.607   2.513   0.623 -0.2481  1.2082  2.7806
 5711TIP3   OH238691   6.135   1.551   8.341  0.1245 -0.2301  0.6042
 5711TIP3    H138692   6.079   1.474   8.327  0.6961 -0.3281 -1.5060
 5711TIP3    H238693   6.074   1.625   8.337  0.0206 -0.3661 -1.2066
 5712TIP3   OH238694   0.319   6.138   1.959  0.4299  0.1975 -0.1515
 5712TIP3    H138695   0.280   6.053   1.940 -2.6705  1.3602  0.3844
 5712TIP3    H238696   0.251   6.202   1.937  1.8031  2.4116  1.5098
 5713TIP3   OH238697   3.117   0.740   8.555 -0.7660  0.8630  0.3802
 5713TIP3    H138698   3.173   0.666   8.582 -1.0130  0.2966 -0.6255
 5713TIP3    H238699   3.102   0.788   8.636 -1.4579 -0.7660  1.2716
 5714TIP3   OH238700   2.349   2.157   0.562 -0.3233 -0.4865 -0.6878
 5714TIP3    H138701   2.372   2.236   0.611  0.3525 -0.2873 -1.3134
 5714TIP3    H238702   2.255   2.162   0.550 -0.4488 -0.3604  0.2800
 5715TIP3   OH238703   4.245   1.492   8.203 -0.9607 -0.0650 -0.4251
 5715TIP3    H138704   4.302   1.559   8.167 -0.2096 -0.4771 -0.0399
 5715TIP3    H238705   4.233   1.429   8.132 -1.8090  0.5475 -0.8435
 5716TIP3   OH238706   1.432   0.575   7.933  0.4302  0.8101 -0.2989
 5716TIP3    H138707   1.525   0.552   7.938  0.1232 -0.2399  1.4843
 5716TIP3    H238708   1.417   0.596   7.840  1.6490 -2.5287 -1.3939
 5717TIP3   OH238709   6.790   2.075   0.435 -0.0123 -0.1122  0.2444
 5717TIP3    H138710   6.698   2.099   0.430  0.6114  2.3633 -1.0580
 5717TIP3    H238711   6.799   2.000   0.376 -1.1789 -0.4008  0.4210
 5718TIP3   OH238712   0.739   1.168   0.299  0.7168 -0.0354 -0.0356
 5718TIP3    H138713   0.751   1.097   0.236 -0.6942 -1.8606  1.6109
 5718TIP3    H238714   0.644   1.179   0.304  0.9030  3.5875 -1.8481
 5719TIP3   OH238715   3.550   0.653   0.024  0.0454 -0.3906 -0.2048
 5719TIP3    H138716   3.503   0.715  -0.032 -4.1615 -2.0347  1.1368
 5719TIP3    H238717   3.545   0.570  -0.023  0.1800 -0.9434  0.7375
 5720TIP3   OH238718   0.517   6.551   8.454 -0.3330 -0.0430 -0.4012
 5720TIP3    H138719   0.489   6.643   8.444 -0.4354 -0.1936 -1.7798
 5720TIP3    H238720   0.517   6.536   8.548 -0.9551  1.1833 -0.1774
 5721TIP3   OH238721   1.576   5.301   1.018  0.4348  0.0826  0.3177
 5721TIP3    H138722   1.636   5.354   0.965 -0.7096  1.3996  0.2782
 5721TIP3    H238723   1.489   5.317   0.979 -0.0907 -0.9513  1.0158
 5722TIP3   OH238724   0.735   4.107   1.510  0.2135 -0.4552 -0.4929
 5722TIP3    H138725   0.669   4.174   1.492 -0.1527 -1.0611 -1.5045
 5722TIP3    H238726   0.687   4.037   1.555  0.2288 -0.7558 -0.9378
 5723TIP3   OH238727   4.618   2.577   1.442 -0.3744 -0.5645  0.7777
 5723TIP3    H138728   4.585   2.627   1.367  1.0275 -0.0595  0.4865
 5723TIP3    H238729   4.713   2.579   1.433 -0.1861 -0.6238  2.5080
 5724TIP3   OH238730   6.196   3.161   8.294 -0.3387  0.7201  0.3437
 5724TIP3    H138731   6.140   3.136   8.367  0.6188 -0.2479  0.7726
 5724TIP3    H238732   6.257   3.225   8.331 -0.8656  1.4523 -0.0201
 5725TIP3   OH238733   5.327   0.780   7.039  0.1301  0.6081  0.5735
 5725TIP3    H138734   5.260   0.729   6.994 -0.8123  0.1876  2.3594
 5725TIP3    H238735   5.326   0.865   6.994 -0.5396  0.1258 -0.3710
 5726TIP3   OH238736   4.124   4.560   1.753 -0.6099 -0.3813  0.1585
 5726TIP3    H138737   4.184   4.632   1.731 -0.4418 -0.8287 -0.8527
 5726TIP3    H238738   4.042   4.604   1.775 -0.8928  0.0900 -1.6960
 5727TIP3   OH238739   1.433   6.781   1.125 -0.0500  0.0287  0.0241
 5727TIP3    H138740   1.387   6.839   1.064 -0.5908  0.0681  0.4645
 5727TIP3    H238741   1.495   6.838   1.170  1.1497 -0.2090 -1.2640
 5728TIP3   OH238742   4.358   6.426   2.419 -0.0971  0.4329  0.2361
 5728TIP3    H138743   4.451   6.403   2.426 -0.0477  0.6546  0.3142
 5728TIP3    H238744   4.316   6.381   2.492 -0.3015 -0.9356 -0.6922
 5729TIP3   OH238745   3.565   6.606   0.584  0.1607 -0.3499 -0.7324
 5729TIP3    H138746   3.550   6.674   0.649  0.6180 -0.5058 -0.4557
 5729TIP3    H238747   3.514   6.633   0.508 -1.1519 -0.6323 -0.0028
 5730TIP3   OH238748   5.622   0.532   1.463  0.7589  0.2426  0.0847
 5730TIP3    H138749   5.662   0.499   1.382  0.6311 -0.6814  0.3764
 5730TIP3    H238750   5.654   0.621   1.472  0.9608  0.2715 -0.8660
 5731TIP3   OH238751   0.841   1.741   7.478 -0.1937  0.1754 -0.2354
 5731TIP3    H138752   0.893   1.764   7.555  2.0986  0.0705 -1.6681
 5731TIP3    H238753   0.811   1.651   7.495 -0.7660  0.5781  1.0196
 5732TIP3   OH238754   4.024   4.831   7.627  0.4836  0.4452  0.0270
 5732TIP3    H138755   3.978   4.853   7.708  2.2265 -0.4175  1.3026
 5732TIP3    H238756   4.029   4.914   7.579 -0.3492  1.0243  0.8866
 5733TIP3   OH238757   6.185   2.710   8.213 -0.2735  0.3097 -0.4235
 5733TIP3    H138758   6.222   2.692   8.300 -2.3681  0.4985  0.5531
 5733TIP3    H238759   6.165   2.624   8.177 -0.1373  0.2628 -0.3881
 5734TIP3   OH238760   6.694   2.928   7.859 -0.4935 -0.2750 -0.4203
 5734TIP3    H138761   6.770   2.948   7.915 -2.0507  0.4295  1.5877
 5734TIP3    H238762   6.702   2.987   7.785  0.3395  0.5902  0.3330
 5735TIP3   OH238763   2.668   6.037   0.746  0.5186  0.5228  0.0305
 5735TIP3    H138764   2.696   6.128   0.757 -0.5073  0.7080  1.4923
 5735TIP3    H238765   2.580   6.043   0.708  1.1202  0.0647 -1.4866
 5736TIP3   OH238766   6.034   6.338   8.794  0.4373  0.4233 -0.1547
 5736TIP3    H138767   6.022   6.307   8.884  1.8606 -0.3937 -0.2123
 5736TIP3    H238768   6.128   6.359   8.789 -0.0676  2.8001 -0.7560
 5737TIP3   OH238769   4.531   6.647   0.898 -0.5246  0.5696  0.0711
 5737TIP3    H138770   4.441   6.620   0.879 -0.3945 -0.1595  0.4647
 5737TIP3    H238771   4.552   6.709   0.828 -1.5261  1.1958  0.2985
 5738TIP3   OH238772   2.038   4.820   8.411  0.3524 -0.3007  0.4611
 5738TIP3    H138773   2.122   4.865   8.403 -0.2012  0.6210 -0.3301
 5738TIP3    H238774   2.060   4.734   8.446  1.8667 -0.8531 -1.6967
 5739TIP3   OH238775   0.228   4.453   8.564  0.1134  0.5841  0.1570
 5739TIP3    H138776   0.156   4.479   8.621 -1.2275  0.0844 -1.2410
 5739TIP3    H238777   0.247   4.532   8.512 -0.1233  0.4229 -0.1774
 5740TIP3   OH238778   2.889   1.886   6.704 -0.2186 -0.4160  0.1201
 5740TIP3    H138779   2.961   1.850   6.653  0.3792  0.4658  0.3143
 5740TIP3    H238780   2.856   1.959   6.652 -0.7558 -0.6031  0.1887
 5741TIP3   OH238781   0.533   6.427   1.827  0.2334  0.2850  0.2071
 5741TIP3    H138782   0.437   6.425   1.824  0.1894  2.0703 -0.1441
 5741TIP3    H238783   0.553   6.414   1.920 -0.2617 -1.5854  0.0948
 5742TIP3   OH238784   0.079   1.395   1.361  0.2945 -0.3474 -0.4980
 5742TIP3    H138785   0.143   1.370   1.295  1.2718 -0.7440  0.5871
 5742TIP3    H238786   0.067   1.490   1.348 -0.2539 -0.5765 -1.8432
 5743TIP3   OH238787   5.985   3.898   6.873  0.6503 -0.2843 -0.2292
 5743TIP3    H138788   6.064   3.947   6.853  0.9553 -0.9914 -0.7587
 5743TIP3    H238789   5.918   3.965   6.886  1.3288  0.3172  0.2232
 5744TIP3   OH238790   4.678   2.338   8.308 -0.1199  0.0022  0.0297
 5744TIP3    H138791   4.725   2.264   8.347 -0.7352 -0.6922 -0.5173
 5744TIP3    H238792   4.734   2.414   8.325  0.6084 -0.6184  0.4440
 5745TIP3   OH238793   5.901   5.161   1.137 -1.0640  0.1761 -0.5992
 5745TIP3    H138794   5.965   5.187   1.203 -0.8883  0.5688 -0.9157
 5745TIP3    H238795   5.851   5.241   1.120 -2.7018 -0.4906  0.7916
 5746TIP3   OH238796   1.919   3.508   1.681  0.5844  0.4126  0.2638
 5746TIP3    H138797   1.989   3.485   1.620 -0.6667 -1.3770 -0.5814
 5746TIP3    H238798   1.861   3.565   1.631  1.4186  1.9888  0.9982
 5747TIP3   OH238799   2.757   6.111   2.717  0.5925  0.2100  0.0270
 5747TIP3    H138800   2.707   6.030   2.703  0.2909  0.4847 -0.5361
 5747TIP3    H238801   2.828   6.085   2.776  0.0817 -0.2999  0.4291
 5748TIP3   OH238802   4.721   5.559   7.808 -0.1677 -0.3134 -0.6301
 5748TIP3    H138803   4.816   5.553   7.802 -0.2318 -2.6282 -0.3769
 5748TIP3    H238804   4.696   5.622   7.741  1.4895 -0.1851 -1.1635
 5749TIP3   OH238805   0.875   5.338   8.645  0.0968 -0.1248  0.1633
 5749TIP3    H138806   0.804   5.275   8.640 -0.6113  0.7289 -1.1011
 5749TIP3    H238807   0.831   5.423   8.644  1.1386  0.4229 -0.8787
 5750TIP3   OH238808   5.077   2.846   8.044  0.1726  0.0457 -0.0350
 5750TIP3    H138809   5.051   2.836   8.136 -0.5067 -1.3560 -0.3554
 5750TIP3    H238810   5.172   2.851   8.046  0.1057  1.7162  0.8674
 5751TIP3   OH238811   0.928   3.666   7.804 -0.1663 -0.1149 -0.2696
 5751TIP3    H138812   0.833   3.666   7.815 -0.2187 -0.2920 -0.6825
 5751TIP3    H238813   0.956   3.580   7.834  0.3995  1.3278  3.9363
 5752TIP3   OH238814   4.895   4.152   1.286  0.4013  0.2967 -0.1910
 5752TIP3    H138815   4.932   4.064   1.283  0.2094  0.2129 -0.1124
 5752TIP3    H238816   4.807   4.142   1.249  1.1130  0.8291 -2.1449
 5753TIP3   OH238817   2.080   6.293   1.292  0.2322 -0.5097 -0.1701
 5753TIP3    H138818   2.054   6.381   1.321 -0.3538 -0.4916 -0.7192
 5753TIP3    H238819   2.014   6.235   1.328 -0.6537 -0.4554 -1.6291
 5754TIP3   OH238820   1.345   4.126   1.775 -0.3608 -0.5248  0.0759
 5754TIP3    H138821   1.433   4.096   1.797 -0.0719 -0.3836 -0.8306
 5754TIP3    H238822   1.309   4.159   1.857  0.4454 -0.5578  0.4470
 5755TIP3   OH238823   6.580   5.262   6.516 -0.1011 -0.1423  0.1212
 5755TIP3    H138824   6.629   5.290   6.594 -0.0098 -3.3622  1.3653
 5755TIP3    H238825   6.514   5.202   6.550 -0.6777 -0.9168 -2.2152
 5756TIP3   OH238826   4.551   4.507   7.077  0.6867 -0.2048  0.3150
 5756TIP3    H138827   4.565   4.581   7.018  0.5996 -0.3686  0.0841
 5756TIP3    H238828   4.631   4.503   7.129  1.2569 -0.7410 -0.5613
 5757TIP3   OH238829   6.043   4.037   7.678  0.0908 -0.7609  0.0464
 5757TIP3    H138830   6.016   4.052   7.588 -0.0652 -2.3795 -0.2052
 5757TIP3    H238831   5.993   3.959   7.705  1.3501 -1.2768  0.9783
 5758TIP3   OH238832   2.648   5.953   1.365  0.3688  1.1102  0.2053
 5758TIP3    H138833   2.638   5.985   1.276  0.7574  1.5863  0.3287
 5758TIP3    H238834   2.740   5.927   1.372 -0.2456 -1.3739 -0.3166
 5759TIP3   OH238835   6.158   4.612   2.100  0.5153 -0.7049 -0.0868
 5759TIP3    H138836   6.143   4.704   2.078  0.0541 -0.7365  0.0789
 5759TIP3    H238837   6.101   4.563   2.040 -0.2507 -0.8184  0.7050
 5760TIP3   OH238838   3.784   0.179   7.362 -0.2816 -0.7751 -0.5830
 5760TIP3    H138839   3.795   0.180   7.267 -1.0151 -1.6066 -0.6958
 5760TIP3    H238840   3.870   0.201   7.397 -0.0581 -0.2433 -1.4398
 5761TIP3   OH238841   1.131   5.459   8.621 -0.5627 -0.2086  0.1706
 5761TIP3    H138842   1.043   5.423   8.630 -0.0125 -2.1851 -1.4703
 5761TIP3    H238843   1.157   5.438   8.532  1.1146  1.4751  0.1924
 5762TIP3   OH238844   5.791   2.973   2.474  0.3558 -0.0818  0.2962
 5762TIP3    H138845   5.829   2.908   2.533 -2.4865 -1.1765  1.0399
 5762TIP3    H238846   5.774   3.049   2.530 -1.5593 -0.8180  0.7864
 5763TIP3   OH238847   3.563   3.135   1.181 -0.4816 -0.3614  0.2874
 5763TIP3    H138848   3.488   3.184   1.214 -0.0213  0.2438  0.4452
 5763TIP3    H238849   3.525   3.060   1.135 -1.1713 -0.2141  0.6192
 5764TIP3   OH238850   4.694   2.308   1.837  0.3721 -0.1999 -0.0243
 5764TIP3    H138851   4.718   2.285   1.747  0.7162 -1.1630  0.3067
 5764TIP3    H238852   4.617   2.365   1.827 -0.8802 -1.9364 -0.8636
 5765TIP3   OH238853   2.435   4.910   1.541  0.5054 -0.0536 -0.3349
 5765TIP3    H138854   2.471   4.999   1.543  2.7308 -0.7619  3.8681
 5765TIP3    H238855   2.510   4.854   1.565 -1.1652 -2.9098 -1.3651
 5766TIP3   OH238856   6.108   1.276   0.111 -0.2453 -0.0262  0.6748
 5766TIP3    H138857   6.183   1.310   0.061 -0.2115 -0.8756  0.1355
 5766TIP3    H238858   6.045   1.348   0.111  0.2479  0.4143  0.4473
 5767TIP3   OH238859   5.549   0.617   8.794  0.2699 -0.4006  0.1322
 5767TIP3    H138860   5.629   0.669   8.800  0.8987 -1.0530 -1.9966
 5767TIP3    H238861   5.524   0.602   8.885  3.0409 -0.8989  0.9023
 5768TIP3   OH238862   4.430   4.397   1.317  0.4370  0.0659 -0.2351
 5768TIP3    H138863   4.507   4.453   1.324  0.5786 -0.2055  0.4389
 5768TIP3    H238864   4.400   4.408   1.227  0.0113  1.8277  0.0803
 5769TIP3   OH238865   3.564   1.051   8.856  0.2845 -0.4245 -0.5446
 5769TIP3    H138866   3.541   0.994   8.783  1.3632 -0.9704 -0.4649
 5769TIP3    H238867   3.654   1.029   8.877 -0.4066 -1.2368  1.8280
 5770TIP3   OH238868   4.411   5.921   0.093 -0.0938  0.1685  0.0281
 5770TIP3    H138869   4.488   5.866   0.078  0.6873  1.2255 -0.0451
 5770TIP3    H238870   4.448   6.005   0.121 -1.2892  0.3122  1.2417
 5771TIP3   OH238871   1.714   2.419   0.413 -0.1664  0.4931 -0.5596
 5771TIP3    H138872   1.755   2.357   0.353  2.1614 -0.5740  1.9277
 5771TIP3    H238873   1.632   2.377   0.439  0.7701 -0.9801  0.1129
 5772TIP3   OH238874   4.267   6.480   6.553  0.5637  0.3009  0.0172
 5772TIP3    H138875   4.303   6.553   6.604  0.9555 -0.9252  1.5872
 5772TIP3    H238876   4.174   6.502   6.542  1.0552  1.9307 -1.2376
 5773TIP3   OH238877   1.384   1.715   2.739 -0.1182 -0.0425  0.6705
 5773TIP3    H138878   1.327   1.727   2.664 -0.1991 -0.6884  0.6278
 5773TIP3    H238879   1.325   1.710   2.814 -0.4276 -3.7377  0.3454
 5774TIP3   OH238880   3.184   5.750   7.462  0.2620  0.1437  0.0223
 5774TIP3    H138881   3.127   5.788   7.529  2.2113  0.2758  1.7298
 5774TIP3    H238882   3.140   5.670   7.435  0.9610 -1.8797  4.1510
 5775TIP3   OH238883   0.416   3.429   0.217 -0.0132 -0.1354 -0.4084
 5775TIP3    H138884   0.494   3.469   0.177  0.6402 -2.2462 -1.4093
 5775TIP3    H238885   0.349   3.435   0.149 -0.1771  0.0579 -0.2283
 5776TIP3   OH238886   4.308   4.385   1.839 -0.1880  0.3893 -0.1453
 5776TIP3    H138887   4.273   4.320   1.899 -1.4830  0.8044 -0.4233
 5776TIP3    H238888   4.237   4.448   1.827 -0.5831 -0.4564 -3.2616
 5777TIP3   OH238889   5.404   1.990   0.273 -0.1456  0.1930  0.2383
 5777TIP3    H138890   5.443   1.903   0.266  2.1329  0.8950  2.5724
 5777TIP3    H238891   5.382   2.014   0.183 -1.2386 -2.8901 -0.4275
 5778TIP3   OH238892   4.021   6.539   0.724 -0.1108  0.5673  0.7267
 5778TIP3    H138893   4.035   6.628   0.692 -2.2812  0.1629 -1.6574
 5778TIP3    H238894   4.092   6.488   0.685 -0.4727  0.7937 -0.2599
 5779TIP3   OH238895   5.518   1.631   0.160 -0.3851 -0.8006 -0.3619
 5779TIP3    H138896   5.457   1.565   0.127 -0.7171  0.2532 -1.9807
 5779TIP3    H238897   5.562   1.664   0.082 -1.7997  2.4348  0.0233
 5780TIP3   OH238898   6.382   3.782   0.445 -0.5397  0.2952  0.4400
 5780TIP3    H138899   6.317   3.711   0.449  0.3255 -0.5577 -0.2067
 5780TIP3    H238900   6.358   3.832   0.367  0.1815 -0.6501 -0.4136
 5781TIP3   OH238901   5.296   4.207   8.585  0.1619 -0.3794 -0.1923
 5781TIP3    H138902   5.346   4.197   8.504 -0.5079  0.2889 -0.7138
 5781TIP3    H238903   5.210   4.172   8.564 -0.4793  1.1528 -0.2774
 5782TIP3   OH238904   4.533   4.033   2.029  0.0555  0.0206  0.7553
 5782TIP3    H138905   4.486   4.116   2.015 -0.1375 -0.5335 -2.6055
 5782TIP3    H238906   4.479   3.968   1.984  2.3570 -1.1913 -0.3827
 5783TIP3   OH238907   0.446   5.762   1.207 -0.3318  0.3721 -0.5481
 5783TIP3    H138908   0.362   5.746   1.250 -0.9708  0.7189 -1.6068
 5783TIP3    H238909   0.450   5.857   1.196  1.0466  0.5389  1.0849
 5784TIP3   OH238910   6.057   1.736   2.558 -0.0670  0.1494  0.6235
 5784TIP3    H138911   5.964   1.759   2.556 -0.0236  0.2878 -0.5827
 5784TIP3    H238912   6.098   1.795   2.494  1.0419  0.8317  1.9037
 5785TIP3   OH238913   4.462   4.776   6.601  0.5167 -0.2367  0.2050
 5785TIP3    H138914   4.497   4.744   6.518 -0.1338 -1.8899  0.5403
 5785TIP3    H238915   4.459   4.871   6.591 -0.9955 -0.4651 -2.2744
 5786TIP3   OH238916   1.966   5.326   1.496 -1.0780  0.5328 -0.3962
 5786TIP3    H138917   2.002   5.256   1.550  0.2809 -0.5211 -2.5647
 5786TIP3    H238918   1.893   5.361   1.548  0.8455  0.4017  2.6103
 5787TIP3   OH238919   6.760   3.047   1.507  0.1813 -0.6195 -0.0943
 5787TIP3    H138920   6.745   3.111   1.577  1.6928 -0.6986  0.3245
 5787TIP3    H238921   6.716   3.084   1.431  1.2805  1.0941  0.0542
 5788TIP3   OH238922   3.355   0.746   1.154  0.3020 -0.1806  0.4863
 5788TIP3    H138923   3.261   0.728   1.152  0.2562 -0.0835  1.4034
 5788TIP3    H238924   3.363   0.830   1.200  0.7210  0.7249 -1.1689
 5789TIP3   OH238925   0.674   0.059   8.598  0.0168  0.0913 -0.3392
 5789TIP3    H138926   0.649  -0.011   8.658 -0.9082  1.0228  0.4026
 5789TIP3    H238927   0.617   0.048   8.523 -0.2443  0.1449 -0.1490
 5790TIP3   OH238928   2.663   6.569   0.658 -0.0084 -0.0305  0.5476
 5790TIP3    H138929   2.590   6.631   0.656 -1.1154 -1.3343 -0.2690
 5790TIP3    H238930   2.714   6.589   0.580 -1.0165 -0.8907 -0.3504
 5791TIP3   OH238931   2.406   2.333   2.002  0.3077  0.6786  0.4457
 5791TIP3    H138932   2.312   2.347   1.989  0.0491 -1.7316 -1.0328
 5791TIP3    H238933   2.411   2.255   2.057  1.4036 -0.1391 -0.7544
 5792TIP3   OH238934   0.540   0.884   7.945 -0.0666 -0.1353 -0.5397
 5792TIP3    H138935   0.455   0.842   7.928 -0.0997 -0.1397 -0.3718
 5792TIP3    H238936   0.517   0.969   7.982 -0.0140  0.5684 -2.0669
 5793TIP3   OH238937   4.227   6.431   0.923  0.0048 -0.1052 -0.0040
 5793TIP3    H138938   4.293   6.410   0.857  0.5356  1.8902 -0.1749
 5793TIP3    H238939   4.243   6.368   0.993  1.5093 -0.2439 -0.4320
 5794TIP3   OH238940   5.890   4.318   6.574 -0.1914  0.1352  0.1926
 5794TIP3    H138941   5.943   4.245   6.543  1.4226  0.0276  2.9527
 5794TIP3    H238942   5.855   4.358   6.494  1.7880 -1.4848 -1.5779
 5795TIP3   OH238943   0.277   4.955   8.010  0.2511  0.7796  0.1035
 5795TIP3    H138944   0.265   4.890   7.941  0.4278  0.6308  0.2157
 5795TIP3    H238945   0.191   4.997   8.018  0.1221  0.5227  0.0713
 5796TIP3   OH238946   0.123   2.327   2.483 -0.2851  0.0773 -0.0773
 5796TIP3    H138947   0.155   2.328   2.573 -1.7977  1.6798  0.4771
 5796TIP3    H238948   0.109   2.419   2.461 -0.0109 -0.2835 -1.9454
 5797TIP3   OH238949   1.340   0.675   7.662  0.0542  0.0633 -0.2220
 5797TIP3    H138950   1.340   0.713   7.574  0.2053 -1.0773 -0.7387
 5797TIP3    H238951   1.325   0.749   7.721  1.0226  1.0150 -1.1307
 5798TIP3   OH238952   2.047   6.569   0.372  0.3300 -0.2842 -0.2456
 5798TIP3    H138953   2.073   6.553   0.282  0.9267 -0.1626 -0.0981
 5798TIP3    H238954   2.012   6.658   0.372 -1.3252 -0.9003 -0.7047
 5799TIP3   OH238955   0.457   2.454   6.732  0.0796  0.8650  0.0806
 5799TIP3    H138956   0.424   2.369   6.760  1.7381  0.3698  0.6228
 5799TIP3    H238957   0.378   2.508   6.724 -0.8393 -0.1867  1.5039
 5800TIP3   OH238958   2.282   6.548   8.736  0.1771  0.1995  0.3404
 5800TIP3    H138959   2.233   6.473   8.702 -1.6127  0.4174  2.2205
 5800TIP3    H238960   2.351   6.509   8.789 -0.8135 -0.1918  1.4016
 5801TIP3   OH238961   1.250   6.357   2.537  0.3268  0.2439 -0.0098
 5801TIP3    H138962   1.168   6.332   2.579 -0.6154  3.5927  0.4461
 5801TIP3    H238963   1.225   6.422   2.471  2.5259  0.6579 -0.5304
 5802TIP3   OH238964   1.202   5.427   0.325  0.1248 -0.4210 -0.7221
 5802TIP3    H138965   1.266   5.383   0.270  0.3999 -0.3340 -0.4751
 5802TIP3    H238966   1.216   5.520   0.307  0.7605 -0.3473  0.0774
 5803TIP3   OH238967   0.305   6.447   8.287  0.2688  0.2730  0.2895
 5803TIP3    H138968   0.316   6.513   8.218  0.5630 -0.9527 -0.8921
 5803TIP3    H238969   0.357   6.480   8.360  1.6093  0.6658 -0.7951
 5804TIP3   OH238970   3.254   5.237   8.533  0.4684 -0.0162 -0.4621
 5804TIP3    H138971   3.184   5.293   8.501  0.3130 -0.3761 -0.7591
 5804TIP3    H238972   3.236   5.227   8.626 -1.1276 -1.8488 -0.9020
 5805TIP3   OH238973   4.436   5.629   1.153 -0.2459 -0.1558  0.9315
 5805TIP3    H138974   4.484   5.589   1.226 -1.7627 -0.8821  1.5752
 5805TIP3    H238975   4.504   5.658   1.092  1.0339 -0.0092  2.3858
 5806TIP3   OH238976   0.779   0.196   0.254  0.0416  0.2223 -0.2337
 5806TIP3    H138977   0.744   0.232   0.173  0.6377 -0.9259 -1.0282
 5806TIP3    H238978   0.784   0.271   0.313 -0.6049  1.0378 -1.1781
 5807TIP3   OH238979   0.922   4.062   8.773  0.2880 -0.1763  0.0610
 5807TIP3    H138980   0.852   4.021   8.823 -0.4579  1.6171  0.5563
 5807TIP3    H238981   0.886   4.074   8.685  0.9675 -1.7022 -0.4554
 5808TIP3   OH238982   0.542   1.962   2.963  0.8819 -0.1760 -0.1556
 5808TIP3    H138983   0.547   1.929   2.874  1.0889  1.3343 -0.7409
 5808TIP3    H238984   0.488   1.898   3.010 -1.9171  0.5459 -2.1288
 5809TIP3   OH238985   3.869   6.549   7.871  0.3566 -0.1727  0.0625
 5809TIP3    H138986   3.776   6.564   7.886  0.4277  0.5341 -0.1684
 5809TIP3    H238987   3.879   6.552   7.776  0.6301 -0.1295  0.0911
 5810TIP3   OH238988   5.957   2.456   1.315 -0.4049 -0.2304  0.4556
 5810TIP3    H138989   5.992   2.540   1.345  2.7265 -0.9548 -0.7790
 5810TIP3    H238990   5.889   2.479   1.252  1.0889  1.4657 -0.6297
 5811TIP3   OH238991   0.285   1.866   7.760 -0.4645  0.4445 -0.5834
 5811TIP3    H138992   0.249   1.904   7.840 -1.2054  0.5581 -0.9643
 5811TIP3    H238993   0.210   1.831   7.713  0.0506 -0.2886 -0.8864
 5812TIP3   OH238994   1.354   2.015   0.846 -0.3756 -0.4567  0.4965
 5812TIP3    H138995   1.348   1.950   0.916 -2.3021  0.4254  1.2153
 5812TIP3    H238996   1.315   2.094   0.883  1.0417  0.8767 -0.6705
 5813TIP3   OH238997   1.951   5.093   8.791 -0.2253 -0.1620 -0.0151
 5813TIP3    H138998   1.949   5.074   8.885 -0.7908 -1.3263 -0.2568
 5813TIP3    H238999   1.997   5.019   8.752  1.2606  0.9681 -0.5413
 5814TIP3   OH239000   2.981   0.157   8.410  0.1273 -0.0701  0.1821
 5814TIP3    H139001   3.015   0.105   8.483  1.8605 -0.0119 -0.5311
 5814TIP3    H239002   2.923   0.097   8.362  1.4049 -1.0873 -0.1265
 5815TIP3   OH239003   3.780   0.800   0.776  0.3119  0.1601  0.1171
 5815TIP3    H139004   3.857   0.750   0.748  0.5631  0.7557 -0.2662
 5815TIP3    H239005   3.790   0.806   0.871  0.1211 -0.7667  0.2111
 5816TIP3   OH239006   1.353   5.714   0.147 -0.4650 -0.2652  0.7184
 5816TIP3    H139007   1.283   5.666   0.103 -0.2194 -0.1289  0.1622
 5816TIP3    H239008   1.336   5.806   0.126  0.0905 -0.2596  0.2489
 5817TIP3   OH239009   4.327   3.329   2.233 -0.2311  0.4463  0.4854
 5817TIP3    H139010   4.285   3.245   2.218 -0.5519  0.8124 -0.7672
 5817TIP3    H239011   4.261   3.394   2.210  0.6224  1.0236 -0.4318
 5818TIP3   OH239012   5.980   3.529   7.372 -0.5134 -0.2954  0.2760
 5818TIP3    H139013   5.999   3.488   7.288 -0.2375 -2.0442  1.1551
 5818TIP3    H239014   5.894   3.494   7.397 -1.0584  0.9831  0.2796
 5819TIP3   OH239015   5.453   5.575   0.681  0.0373 -0.2609  0.1928
 5819TIP3    H139016   5.504   5.511   0.632  0.3141 -0.1432  0.3271
 5819TIP3    H239017   5.489   5.572   0.770  0.0984  0.1256  0.1847
 5820TIP3   OH239018   1.679   5.454   8.527 -0.4787 -0.7102  0.1431
 5820TIP3    H139019   1.711   5.375   8.570  1.0001 -0.9089 -1.2423
 5820TIP3    H239020   1.590   5.433   8.501 -0.2559 -1.7566  0.1936
 5821TIP3   OH239021   0.325   2.457   1.411 -0.4194 -0.2478 -0.3361
 5821TIP3    H139022   0.359   2.438   1.498  1.7745  0.8816 -0.8793
 5821TIP3    H239023   0.393   2.428   1.351 -1.0185  0.7937 -1.5809
 5822TIP3   OH239024   3.303   5.330   0.291  0.5135 -0.5685  0.0007
 5822TIP3    H139025   3.243   5.395   0.254 -0.4050 -0.7379  1.1272
 5822TIP3    H239026   3.368   5.382   0.338 -0.9696 -0.4174  2.0302
 5823TIP3   OH239027   1.213   1.500   6.846 -0.1988  0.2054  0.0198
 5823TIP3    H139028   1.139   1.443   6.824 -0.5451 -0.0698  1.7097
 5823TIP3    H239029   1.175   1.586   6.859 -0.1563  0.1717  0.3907
 5824TIP3   OH239030   5.571   1.466   8.596  0.6006  0.4051  0.4971
 5824TIP3    H139031   5.490   1.491   8.552  0.2494 -1.0042  0.2994
 5824TIP3    H239032   5.627   1.432   8.525  0.1186 -1.6655  1.0521
 5825TIP3   OH239033   6.009   5.981   1.726  0.1928  0.4483 -0.3478
 5825TIP3    H139034   5.945   6.032   1.775  0.2986  1.6389 -1.4055
 5825TIP3    H239035   6.094   6.013   1.758  0.3665 -1.9613  1.9328
 5826TIP3   OH239036   6.534   4.154   7.102  0.1329 -0.4204 -0.6700
 5826TIP3    H139037   6.568   4.163   7.191  1.5738 -0.0741 -1.2260
 5826TIP3    H239038   6.528   4.244   7.069  0.0293 -0.5708 -1.0689
 5827TIP3   OH239039   5.079   0.088   8.817 -0.4026 -0.1299  0.1493
 5827TIP3    H139040   4.984   0.101   8.825 -0.2502  1.7126 -0.4895
 5827TIP3    H239041   5.111   0.172   8.783  1.7925  0.2509  2.7976
 5828TIP3   OH239042   5.373   4.995   8.038  0.3258 -0.8523  0.2019
 5828TIP3    H139043   5.420   5.074   8.065 -2.0281  0.9511 -0.7031
 5828TIP3    H239044   5.396   4.985   7.946 -1.4087  0.3874 -0.4108
 5829TIP3   OH239045   6.613   2.770   0.488 -0.2394  0.4133  0.4613
 5829TIP3    H139046   6.577   2.773   0.400 -2.3926  0.1593  1.2747
 5829TIP3    H239047   6.656   2.855   0.500 -1.6975  1.2668 -0.1440
 5830TIP3   OH239048   2.296   4.158   1.151  0.3025 -0.6554  0.1185
 5830TIP3    H139049   2.353   4.082   1.134  0.6059 -0.1557 -1.2360
 5830TIP3    H239050   2.224   4.148   1.088 -0.6480 -0.7930  1.2001
 5831TIP3   OH239051   2.286   5.965   1.081  0.1292 -0.0856 -0.4262
 5831TIP3    H139052   2.290   6.059   1.068  0.4645  0.1340  1.0432
 5831TIP3    H239053   2.358   5.931   1.028  0.4698  0.5597 -0.3898
 5832TIP3   OH239054   5.143   2.863   1.382 -0.3990  0.2104 -0.0670
 5832TIP3    H139055   5.213   2.797   1.379 -0.2396  0.4048 -1.3813
 5832TIP3    H239056   5.109   2.858   1.471 -0.8460 -2.1328 -0.2941
 5833TIP3   OH239057   0.154   3.462   0.769 -0.5332 -0.0786 -0.0903
 5833TIP3    H139058   0.166   3.516   0.690  0.3403 -1.0699 -0.6605
 5833TIP3    H239059   0.243   3.449   0.803 -0.6543 -1.6212 -0.2976
 5834TIP3   OH239060   1.538   6.010   8.107  0.1257 -0.1052  0.1445
 5834TIP3    H139061   1.560   6.007   8.014 -0.6438 -1.7939 -0.0076
 5834TIP3    H239062   1.620   6.037   8.150  1.1183 -1.4106 -0.8378
 5835TIP3   OH239063   6.473   5.256   6.821  0.5714  0.3890  0.1950
 5835TIP3    H139064   6.552   5.215   6.856  1.3631  0.7897 -1.0406
 5835TIP3    H239065   6.417   5.270   6.897  0.7069 -1.9746  0.8105
 5836TIP3   OH239066   3.971   3.226   0.361  0.1692  0.0797 -0.2008
 5836TIP3    H139067   4.010   3.307   0.393 -0.0881  0.8496 -1.7103
 5836TIP3    H239068   3.982   3.163   0.432 -1.0224  1.8554  1.6674
 5837TIP3   OH239069   5.887   1.914   1.833 -0.1222  0.2120  0.0534
 5837TIP3    H139070   5.905   1.820   1.820  0.9610  0.1188  1.9086
 5837TIP3    H239071   5.867   1.922   1.926 -0.9820  1.7280 -0.2409
 5838TIP3   OH239072   3.095   2.910   2.456  0.0117  0.6097 -0.0636
 5838TIP3    H139073   3.155   2.868   2.394  0.3012  1.3573 -0.3109
 5838TIP3    H239074   3.042   2.968   2.402 -1.0926 -0.1974  0.1331
 5839TIP3   OH239075   6.136   0.160   7.814  0.2222 -0.1583 -0.3402
 5839TIP3    H139076   6.212   0.188   7.763 -0.4496  2.3730 -0.1103
 5839TIP3    H239077   6.065   0.217   7.784 -0.8001 -0.3057  1.6364
 5840TIP3   OH239078   4.199   4.765   8.437 -0.5562 -0.4701  0.2780
 5840TIP3    H139079   4.180   4.750   8.345 -0.8338  0.0037  0.2529
 5840TIP3    H239080   4.241   4.851   8.439  2.5451 -1.8672  0.2139
 5841TIP3   OH239081   5.978   6.667   7.474 -0.0908  0.1968  0.3500
 5841TIP3    H139082   5.958   6.584   7.517  0.7344 -0.0170  0.3427
 5841TIP3    H239083   5.926   6.732   7.520  1.2114  0.0717  2.0958
 5842TIP3   OH239084   1.123   6.247   0.320  0.3896  0.1321  0.0273
 5842TIP3    H139085   1.067   6.212   0.389  1.7750 -0.3649  0.9417
 5842TIP3    H239086   1.151   6.170   0.270  1.1439  0.2343  0.2771
 5843TIP3   OH239087   0.141   2.343   0.444  0.0430  0.4708  0.1215
 5843TIP3    H139088   0.089   2.320   0.366  0.7274 -0.1898 -0.1524
 5843TIP3    H239089   0.205   2.405   0.412 -1.1850  2.0814  0.6669
 5844TIP3   OH239090   4.425   4.465   7.406  0.8026  0.1204 -0.0500
 5844TIP3    H139091   4.405   4.558   7.399  0.9670  0.0771 -1.3977
 5844TIP3    H239092   4.498   4.460   7.468 -0.3697  0.6984  1.4371
 5845TIP3   OH239093   1.480   5.601   0.392  0.1813 -0.2670 -0.6383
 5845TIP3    H139094   1.572   5.623   0.398 -0.2577  1.6643 -0.4729
 5845TIP3    H239095   1.451   5.639   0.309 -1.0548  1.6268  0.5868
 5846TIP3   OH239096   0.875   4.372   1.230  0.1840 -0.3175 -0.0503
 5846TIP3    H139097   0.796   4.366   1.176  0.5712 -0.2970 -0.6325
 5846TIP3    H239098   0.878   4.289   1.277 -0.0469 -0.4233 -0.2198
 5847TIP3   OH239099   0.690   0.324   0.536 -0.2133 -0.0556 -0.1909
 5847TIP3    H139100   0.684   0.367   0.451  2.6811 -0.1090 -0.4993
 5847TIP3    H239101   0.620   0.363   0.588 -0.0124  2.3256 -1.5977
 5848TIP3   OH239102   4.712   1.362   0.966 -0.5397  0.5287 -0.1653
 5848TIP3    H139103   4.697   1.437   0.909 -0.7790  1.5033  1.1249
 5848TIP3    H239104   4.800   1.332   0.944  0.2118  2.2061  0.3689
 5849TIP3   OH239105   4.124   5.476   7.261  0.7028  0.2622  0.3025
 5849TIP3    H139106   4.124   5.563   7.303 -1.3458  0.4481  0.0442
 5849TIP3    H239107   4.138   5.415   7.333  0.4529  0.7400  0.7676
 5850TIP3   OH239108   1.254   2.957   6.893 -0.0262  0.1565 -0.0305
 5850TIP3    H139109   1.252   2.869   6.855 -0.2478 -0.6797  1.8145
 5850TIP3    H239110   1.318   3.004   6.840  1.4219 -1.6351  0.0070
 5851TIP3   OH239111   3.475   0.629   1.565 -0.7257 -0.0883  0.4346
 5851TIP3    H139112   3.513   0.576   1.495 -0.3556  0.1615  0.4383
 5851TIP3    H239113   3.394   0.584   1.589 -0.7716 -0.2629 -0.0412
 5852TIP3   OH239114   1.498   6.433   6.817  0.1623  0.2476  0.3369
 5852TIP3    H139115   1.540   6.429   6.732  0.1071  0.7918  0.2779
 5852TIP3    H239116   1.468   6.524   6.825  1.2113  0.5340  1.4265
 5853TIP3   OH239117   3.049   5.517   7.343  0.2785  0.3292 -0.6239
 5853TIP3    H139118   3.006   5.555   7.267  1.1123 -0.2572 -1.4052
 5853TIP3    H239119   3.120   5.464   7.307  1.0528  0.4997  0.5847
 5854TIP3   OH239120   0.471   0.500   0.638  0.5399  0.0964  0.2856
 5854TIP3    H139121   0.385   0.493   0.680  0.3333  0.4468 -0.0752
 5854TIP3    H239122   0.504   0.586   0.663  0.9967 -0.2268  0.8123
 5855TIP3   OH239123   6.062   5.610   1.262  0.2227  0.7187 -0.2669
 5855TIP3    H139124   6.141   5.663   1.253  1.0802 -0.1643  1.4206
 5855TIP3    H239125   5.992   5.664   1.225  1.3956  2.0892 -0.5758
 5856TIP3   OH239126   5.067   0.701   0.726 -0.0024 -0.0146  0.1538
 5856TIP3    H139127   5.145   0.696   0.782 -0.0755 -1.5171  0.1452
 5856TIP3    H239128   5.007   0.636   0.762 -0.1647 -0.8278 -1.5124
 5857TIP3   OH239129   4.093   1.248   1.273  0.7472  0.4907 -0.0010
 5857TIP3    H139130   4.115   1.247   1.366  0.2274  1.9144  0.1621
 5857TIP3    H239131   4.000   1.269   1.271  0.6096 -0.1688 -0.8285
 5858TIP3   OH239132   0.637   3.758   7.503 -0.2148  0.7150  0.1950
 5858TIP3    H139133   0.542   3.763   7.496 -0.2419 -0.0309 -0.0344
 5858TIP3    H239134   0.667   3.847   7.483 -0.8665  1.0066  0.4702
 5859TIP3   OH239135   0.125   2.929   8.793  0.6809  0.1876  0.0564
 5859TIP3    H139136   0.196   2.949   8.855  0.5762 -1.4346  0.7320
 5859TIP3    H239137   0.049   2.976   8.827  1.2652  1.5284 -0.3954
 5860TIP3   OH239138   2.925   4.623   6.765  0.3919  0.3469  0.0887
 5860TIP3    H139139   2.895   4.565   6.695 -2.0569  2.2222 -0.5312
 5860TIP3    H239140   2.986   4.684   6.723 -0.1059  0.6884 -0.1393
 5861TIP3   OH239141   3.004   5.984   1.517  0.3113 -0.1222  0.3141
 5861TIP3    H139142   2.962   6.031   1.589  4.3209  0.0794  2.8386
 5861TIP3    H239143   3.051   6.052   1.470  1.6033 -0.8475  0.5243
 5862TIP3   OH239144   2.180   2.865   0.995  0.2312 -0.4088 -0.0055
 5862TIP3    H139145   2.161   2.919   1.072 -2.4882  0.3531 -1.0941
 5862TIP3    H239146   2.116   2.795   0.998  0.5320 -0.7554 -1.2241
 5863TIP3   OH239147   5.957   6.154   7.087  0.0905 -0.3237  0.0793
 5863TIP3    H139148   5.969   6.071   7.041  2.6062 -2.0039  3.3570
 5863TIP3    H239149   6.034   6.205   7.065 -0.0579 -0.0093  0.2785
 5864TIP3   OH239150   6.225   0.916   1.977 -0.0845 -0.4962 -0.0129
 5864TIP3    H139151   6.249   0.948   1.890  0.0357  1.4884  0.6970
 5864TIP3    H239152   6.140   0.956   1.995  1.0220  1.2984  1.7608
 5865TIP3   OH239153   0.338   3.123   8.862 -0.3685  0.1889 -0.0113
 5865TIP3    H139154   0.420   3.111   8.816 -0.4848 -0.9869  0.0583
 5865TIP3    H239155   0.354   3.090   8.950 -0.6537  0.7940  0.2750
 5866TIP3   OH239156   1.620   6.060   7.124  0.1217 -0.7239  0.2915
 5866TIP3    H139157   1.560   6.132   7.104  0.8068  0.1185  1.1589
 5866TIP3    H239158   1.587   5.986   7.072  0.3888  0.6448 -1.9432
 5867TIP3   OH239159   1.741   5.779   1.292  0.0139 -0.3745  0.8904
 5867TIP3    H139160   1.695   5.863   1.298 -0.3165 -0.5711  1.1209
 5867TIP3    H239161   1.783   5.769   1.378  2.1905  0.7592  0.0672
 5868TIP3   OH239162   5.092   5.419   7.586 -0.0180  0.1280  0.2233
 5868TIP3    H139163   5.088   5.345   7.648  1.3419 -0.5274 -0.4090
 5868TIP3    H239164   5.092   5.497   7.642  0.3104 -0.4203  1.0164
 5869TIP3   OH239165   2.038   5.962   0.295  1.0088 -0.0053  0.0040
 5869TIP3    H139166   2.115   5.943   0.241  1.3763 -0.6993  0.7608
 5869TIP3    H239167   1.964   5.941   0.238  1.3890 -0.3735 -0.3626
 5870TIP3   OH239168   4.415   2.298   0.085  0.3246  0.0928 -0.6919
 5870TIP3    H139169   4.458   2.377   0.117  1.5482  0.4417 -3.0041
 5870TIP3    H239170   4.402   2.245   0.164  0.4496  2.0947  0.7716
 5871TIP3   OH239171   3.530   0.015   0.764  0.1072 -0.4398 -0.0592
 5871TIP3    H139172   3.564  -0.049   0.826  0.8202 -0.2649 -0.2550
 5871TIP3    H239173   3.519   0.095   0.816 -1.7786 -0.9703  0.4298
 5872TIP3   OH239174   1.906   3.033   0.369  0.2880 -0.1585  0.1821
 5872TIP3    H139175   1.883   3.109   0.316  2.4374  0.5659  0.1641
 5872TIP3    H239176   1.885   3.058   0.459 -1.3179 -0.5348 -0.0702
 5873TIP3   OH239177   3.337   1.384   1.498  0.2850 -0.2015  0.2429
 5873TIP3    H139178   3.343   1.437   1.577  0.4072  0.8534 -0.4494
 5873TIP3    H239179   3.428   1.368   1.474  0.3406  1.6846 -1.0746
 5874TIP3   OH239180   2.114   5.898   1.304 -0.2093 -0.3101  0.3660
 5874TIP3    H139181   2.125   5.879   1.211  2.2572 -3.1678  1.0592
 5874TIP3    H239182   2.195   5.940   1.330 -0.4623 -0.4290  1.4078
 5875TIP3   OH239183   4.170   5.293   1.032  0.1840  0.1443  0.2252
 5875TIP3    H139184   4.178   5.313   1.125  0.8227  0.9455  0.0099
 5875TIP3    H239185   4.235   5.348   0.989  0.2977 -0.6321 -0.6513
 5876TIP3   OH239186   4.858   4.725   1.763  0.0493 -0.3841  0.3454
 5876TIP3    H139187   4.869   4.800   1.704  0.3187  0.3999  1.3643
 5876TIP3    H239188   4.775   4.686   1.737 -0.0057  0.1569 -0.3271
 5877TIP3   OH239189   5.074   0.429   6.291 -0.3142  0.7462 -0.1748
 5877TIP3    H139190   5.010   0.477   6.239 -0.2409 -0.3975 -1.3646
 5877TIP3    H239191   5.023   0.381   6.355 -0.4820  1.4000  0.1868
 5878TIP3   OH239192   4.198   1.934   7.027 -0.6494  0.3265 -0.0365
 5878TIP3    H139193   4.206   2.016   7.076  0.0154  0.4782 -0.3760
 5878TIP3    H239194   4.234   1.954   6.940 -1.6173  0.0069 -0.5217
 5879TIP3   OH239195   3.656   1.235   0.447  0.1725  0.2049 -0.1129
 5879TIP3    H139196   3.708   1.155   0.455  0.1223  0.3041  1.5732
 5879TIP3    H239197   3.599   1.219   0.372  0.6732 -1.0512 -0.2428
 5880TIP3   OH239198   4.081   3.498   7.776 -0.0917 -0.4470 -0.3320
 5880TIP3    H139199   4.095   3.432   7.708  0.9887  0.5256 -1.0923
 5880TIP3    H239200   4.150   3.482   7.840  0.0750 -0.1774 -0.4389
 5881TIP3   OH239201   0.628   3.262   2.011 -0.0050  0.0435 -0.2241
 5881TIP3    H139202   0.613   3.275   1.917 -1.1069 -0.8380 -0.1926
 5881TIP3    H239203   0.558   3.311   2.053  0.8160  0.8997  0.1799
 5882TIP3   OH239204   3.782   6.251   7.150  0.0707 -0.1648 -0.2099
 5882TIP3    H139205   3.871   6.216   7.151  0.6142  1.1459  0.9023
 5882TIP3    H239206   3.731   6.188   7.200  0.7943  0.0196  0.8014
 5883TIP3   OH239207   1.268   3.526   8.151 -1.0944 -0.5244 -0.1891
 5883TIP3    H139208   1.275   3.513   8.056 -1.7135  0.3187 -0.3653
 5883TIP3    H239209   1.211   3.603   8.160 -0.6858 -0.3349  0.8564
 5884TIP3   OH239210   4.090   4.125   0.061  0.1108  0.4948  0.1786
 5884TIP3    H139211   4.182   4.121   0.038  0.0741  3.2786 -0.8161
 5884TIP3    H239212   4.048   4.057   0.008  1.5758 -0.9952  0.8646
 5885TIP3   OH239213   0.048   6.711   6.837  0.7720 -0.2708  0.1547
 5885TIP3    H139214   0.131   6.665   6.828  0.3135 -1.6606  2.2419
 5885TIP3    H239215   0.065   6.778   6.903  0.5833  0.3729 -0.4443
 5886TIP3   OH239216   4.254   4.113   8.413 -0.1399 -0.4303  0.0461
 5886TIP3    H139217   4.183   4.157   8.459 -1.5355 -0.3897 -2.0203
 5886TIP3    H239218   4.251   4.022   8.445 -2.0213 -0.7621 -0.9661
 5887TIP3   OH239219   5.909   4.816   0.074  0.7782 -0.0894 -0.1906
 5887TIP3    H139220   5.967   4.839   0.001  0.1341 -1.4438 -1.1901
 5887TIP3    H239221   5.967   4.808   0.149  1.2144  3.2164 -0.0503
 5888TIP3   OH239222   1.155   5.729   8.530 -0.4943 -0.5654 -0.4237
 5888TIP3    H139223   1.102   5.745   8.452  0.3927  0.5668 -0.8195
 5888TIP3    H239224   1.126   5.643   8.561 -1.7520 -0.4755 -1.2670
 5889TIP3   OH239225   1.318   1.249   1.510  0.3587  0.0275 -0.6919
 5889TIP3    H139226   1.340   1.305   1.436 -0.1884  1.2505  0.0426
 5889TIP3    H239227   1.371   1.283   1.582 -1.3929  0.8670  0.2493
 5890TIP3   OH239228   1.314   2.517   2.106 -0.1813  0.5385  0.6664
 5890TIP3    H139229   1.270   2.574   2.168 -1.0301 -2.1374  2.7278
 5890TIP3    H239230   1.399   2.499   2.146  0.7390  1.5428 -0.7402
 5891TIP3   OH239231   5.684   0.386   7.662 -0.0369 -0.3366  0.2402
 5891TIP3    H139232   5.636   0.469   7.653  0.0162 -0.4450 -1.2196
 5891TIP3    H239233   5.616   0.319   7.668 -0.0813 -0.2042  1.4978
 5892TIP3   OH239234   3.185   4.714   1.594  0.5752 -0.3755 -0.5157
 5892TIP3    H139235   3.192   4.774   1.668 -1.1643 -0.7133 -0.0305
 5892TIP3    H239236   3.158   4.771   1.521 -3.2348 -0.7007  0.4180
 5893TIP3   OH239237   4.785   6.778   7.135  0.0230  0.4362 -0.0784
 5893TIP3    H139238   4.735   6.756   7.057  0.7966 -0.8192 -0.2437
 5893TIP3    H239239   4.730   6.750   7.208 -1.0798  2.3839 -0.0893
 5894TIP3   OH239240   5.670   5.529   7.582 -0.2928 -0.1332  0.0057
 5894TIP3    H139241   5.600   5.463   7.588  0.5485 -0.9364  1.7806
 5894TIP3    H239242   5.735   5.489   7.523 -0.5607 -0.1199 -0.3031
 5895TIP3   OH239243   5.315   4.758   7.420 -0.7823  0.2539  0.2314
 5895TIP3    H139244   5.321   4.683   7.361 -0.7650  1.4463 -1.3635
 5895TIP3    H239245   5.221   4.776   7.426 -0.9027 -0.7932  1.8370
 5896TIP3   OH239246   2.679   6.600   8.562 -0.3478  0.5460  0.2796
 5896TIP3    H139247   2.615   6.670   8.546  0.9334  1.5710 -0.6362
 5896TIP3    H239248   2.634   6.520   8.534 -1.3213  1.2004 -0.0918
 5897TIP3   OH239249   3.611   4.798   1.087 -0.4945 -0.3897  0.4693
 5897TIP3    H139250   3.560   4.772   1.011  0.3555  1.7504 -0.9396
 5897TIP3    H239251   3.665   4.721   1.107 -0.8071 -1.0360 -1.0311
 5898TIP3   OH239252   1.715   2.330   8.567 -0.0600  0.4859 -0.4400
 5898TIP3    H139253   1.621   2.320   8.581 -0.2244  2.4854  0.2400
 5898TIP3    H239254   1.732   2.421   8.589  2.0772  0.1146 -0.3964
 5899TIP3   OH239255   4.878   3.332   0.543 -0.7563  0.0770  0.1682
 5899TIP3    H139256   4.806   3.344   0.482 -1.8941 -0.9714  1.2479
 5899TIP3    H239257   4.918   3.419   0.550 -0.9056  0.3242 -1.6261
 5900TIP3   OH239258   0.019   4.635   8.643 -0.9227 -0.4022  0.3688
 5900TIP3    H139259   0.053   4.691   8.714 -0.5895 -0.8522  0.5701
 5900TIP3    H239260   0.025   4.690   8.565  0.8886 -0.6475  0.2715
 5901TIP3   OH239261   3.013   1.706   7.326 -0.1339 -0.1615  0.1709
 5901TIP3    H139262   3.075   1.652   7.374  1.0882  2.1839  1.4233
 5901TIP3    H239263   3.057   1.724   7.242 -1.2053 -2.2447 -0.9080
 5902TIP3   OH239264   3.803   3.850   8.607 -0.2610 -0.6829 -0.2194
 5902TIP3    H139265   3.884   3.849   8.658  0.0878 -0.4355 -0.7737
 5902TIP3    H239266   3.734   3.833   8.672  0.1674 -0.2218  0.3579
 5903TIP3   OH239267   5.406   2.016   1.388  0.3111  0.0222 -0.1929
 5903TIP3    H139268   5.413   2.112   1.390  0.0023  0.0415  0.0570
 5903TIP3    H239269   5.496   1.986   1.396  0.2805  0.2825  1.4899
 5904TIP3   OH239270   4.956   3.917   1.144 -0.1629 -0.0413 -1.2195
 5904TIP3    H139271   4.953   3.975   1.068 -1.0937  0.6193 -0.6822
 5904TIP3    H239272   4.952   3.829   1.106 -0.4166  0.2761 -1.9463
 5905TIP3   OH239273   3.489   2.184   0.554 -0.5238  0.5821  0.0370
 5905TIP3    H139274   3.548   2.168   0.481  0.0124  2.2551  0.0482
 5905TIP3    H239275   3.428   2.110   0.553  0.5006 -0.2822 -1.0438
 5906TIP3   OH239276   3.866   2.274   8.443  0.0662  0.5126 -0.4750
 5906TIP3    H139277   3.825   2.331   8.377 -0.4780 -0.1473 -0.7179
 5906TIP3    H239278   3.818   2.192   8.437 -0.4411  0.6437  1.1893
 5907TIP3   OH239279   4.970   1.249   2.296 -0.0217 -0.0296 -0.0213
 5907TIP3    H139280   4.916   1.178   2.330  0.0341  0.5425  1.3276
 5907TIP3    H239281   4.996   1.298   2.373  0.1133  1.3438 -0.9087
 5908TIP3   OH239282   2.851   0.696   8.491  0.1872  0.1790  0.3489
 5908TIP3    H139283   2.813   0.612   8.465  0.8766 -0.3290  0.9503
 5908TIP3    H239284   2.944   0.678   8.503  0.0362  0.5455  2.4594
 5909TIP3   OH239285   5.459   6.074   1.028 -0.1988 -0.0968 -0.6178
 5909TIP3    H139286   5.408   6.060   0.949 -0.7207 -1.1427 -0.1106
 5909TIP3    H239287   5.396   6.066   1.099  0.1294  1.5066 -0.1057
 5910TIP3   OH239288   5.235   0.125   6.502  0.1834 -0.6897 -0.0135
 5910TIP3    H139289   5.172   0.053   6.495  2.3554 -2.7312  0.1007
 5910TIP3    H239290   5.250   0.152   6.412 -1.3679  0.3489  0.0080
 5911TIP3   OH239291   4.883   5.766   7.499 -0.4376 -0.0509  0.1771
 5911TIP3    H139292   4.916   5.798   7.583 -1.8696  0.8407  0.4328
 5911TIP3    H239293   4.961   5.756   7.445  0.3324  1.3379  0.9656
 5912TIP3   OH239294   2.577   2.306   2.301 -0.4638  0.2727 -0.0116
 5912TIP3    H139295   2.577   2.388   2.351 -1.0407 -0.3004  0.9640
 5912TIP3    H239296   2.645   2.318   2.235 -0.7735  1.6654 -0.1109
 5913TIP3   OH239297   2.569   4.461   8.440 -0.4024  0.4836  0.0125
 5913TIP3    H139298   2.581   4.553   8.464 -0.8713  0.2374  1.3210
 5913TIP3    H239299   2.474   4.448   8.441 -0.3426  0.0050 -0.2157
 5914TIP3   OH239300   2.113   0.320   8.013  0.1641 -0.2025 -0.2698
 5914TIP3    H139301   2.068   0.243   8.047  0.6593 -0.8671 -1.0945
 5914TIP3    H239302   2.128   0.374   8.091 -1.3873 -0.2947  0.1266
 5915TIP3   OH239303   6.339   4.047   7.656 -0.3936 -0.5764  0.0492
 5915TIP3    H139304   6.244   4.036   7.665 -0.2345 -1.4764  0.7905
 5915TIP3    H239305   6.375   3.962   7.683  0.5555 -0.7185 -1.5573
 5916TIP3   OH239306   1.582   3.046   8.443  0.5292 -0.1627 -0.0278
 5916TIP3    H139307   1.597   3.140   8.442  1.0220 -0.2424 -0.5813
 5916TIP3    H239308   1.554   3.027   8.532  0.0745  0.5579 -0.0079
 5917TIP3   OH239309   3.251   3.362   0.031  0.3106 -0.2228  0.0506
 5917TIP3    H139310   3.272   3.452   0.006 -1.3552 -0.0936 -1.0457
 5917TIP3    H239311   3.324   3.335   0.086  0.1885  2.3102  1.6507
 5918TIP3   OH239312   3.954   6.268   0.125  0.6572  0.6971 -0.0061
 5918TIP3    H139313   3.892   6.314   0.068 -0.1145 -0.2997  0.0148
 5918TIP3    H239314   3.979   6.334   0.190  1.8489  1.9866 -1.6794
 5919TIP3   OH239315   3.059   2.520   8.083 -0.2939 -0.5270  0.0936
 5919TIP3    H139316   3.027   2.562   8.163 -1.1155  0.2617 -0.6267
 5919TIP3    H239317   3.049   2.587   8.015 -1.0291 -1.6761 -0.9668
 5920TIP3   OH239318   0.942   6.210   8.429  0.0960  0.0898  0.2516
 5920TIP3    H139319   1.028   6.168   8.421 -0.3026 -0.4597 -2.0012
 5920TIP3    H239320   0.881   6.137   8.440 -0.3684  0.1662 -1.4459
 5921TIP3   OH239321   2.518   3.321   1.221 -0.1885 -0.1951  0.5654
 5921TIP3    H139322   2.530   3.326   1.126 -0.7873  0.1518  0.5038
 5921TIP3    H239323   2.542   3.231   1.244 -1.7960 -0.8377 -0.1712
 5922TIP3   OH239324   0.333   2.226   6.814  0.0945 -0.0025  0.7582
 5922TIP3    H139325   0.353   2.133   6.808 -1.1285 -0.2258 -0.4202
 5922TIP3    H239326   0.241   2.232   6.788 -0.1635  1.4084  1.9019
 5923TIP3   OH239327   6.405   6.243   8.223  0.1451 -0.1492  0.5706
 5923TIP3    H139328   6.370   6.154   8.216  0.0902 -0.1382  0.7147
 5923TIP3    H239329   6.491   6.238   8.181  0.4914 -0.4582  1.2963
 5924TIP3   OH239330   2.649   6.673   6.895 -0.0702 -0.0302  0.6485
 5924TIP3    H139331   2.712   6.659   6.965 -1.6460 -3.0284  1.6375
 5924TIP3    H239332   2.703   6.689   6.817  1.9867 -2.3615  1.4627
 5925TIP3   OH239333   4.376   1.155   2.216 -0.5167  0.0636 -0.1574
 5925TIP3    H139334   4.326   1.231   2.186 -0.5324  0.3068  0.4651
 5925TIP3    H239335   4.392   1.172   2.309 -1.4649 -1.2087  0.2630
 5926TIP3   OH239336   5.936   0.998   7.802 -0.4574  0.4770  0.2943
 5926TIP3    H139337   5.896   0.914   7.825  1.7635 -0.7792 -0.2274
 5926TIP3    H239338   6.010   1.007   7.862 -0.1934  1.6920 -0.1810
 5927TIP3   OH239339   0.366   2.674   8.762 -0.1445  0.1488 -0.1856
 5927TIP3    H139340   0.440   2.719   8.804  0.6941 -0.7431 -0.6505
 5927TIP3    H239341   0.390   2.672   8.669 -0.0330 -1.4441 -0.1528
 5928TIP3   OH239342   5.131   0.620   1.774 -0.2450 -0.2629 -0.0781
 5928TIP3    H139343   5.131   0.548   1.836  2.3307 -0.3422 -0.0308
 5928TIP3    H239344   5.140   0.578   1.688  3.4546 -0.1376  0.0741
 5929TIP3   OH239345   1.122   2.226   0.670  0.4729 -0.2890  0.2866
 5929TIP3    H139346   1.134   2.284   0.745  0.1429  0.6267 -0.3429
 5929TIP3    H239347   1.108   2.286   0.596 -4.2794 -1.0958  0.2716
 5930TIP3   OH239348   0.854   5.348   2.271  0.0592 -0.1120 -0.3212
 5930TIP3    H139349   0.890   5.260   2.261  1.0502 -0.0421  2.1079
 5930TIP3    H239350   0.923   5.406   2.239 -0.5620 -0.1545 -1.8436
 5931TIP3   OH239351   0.175   3.903   8.211  0.0604  0.4736  0.7443
 5931TIP3    H139352   0.200   3.914   8.303  2.5113  0.2742  0.1719
 5931TIP3    H239353   0.196   3.986   8.170  2.2176 -0.4627 -0.2231
 5932TIP3   OH239354   6.413   5.365   1.858  0.1327 -0.2221  0.7647
 5932TIP3    H139355   6.498   5.393   1.823 -0.7228 -0.2523 -1.5056
 5932TIP3    H239356   6.415   5.392   1.950  2.0459  1.0390  0.4100
 5933TIP3   OH239357   4.738   1.976   6.772 -0.1899  0.0578 -0.0256
 5933TIP3    H139358   4.815   1.949   6.822  0.8771  1.7557 -0.6705
 5933TIP3    H239359   4.729   1.911   6.703  0.9300  0.0747 -0.1979
 5934TIP3   OH239360   6.749   0.948   3.073 -0.2313 -0.9584 -0.1753
 5934TIP3    H139361   6.786   1.011   3.010 -0.3889 -1.9086 -1.2542
 5934TIP3    H239362   6.818   0.883   3.084  0.2857 -0.1579  1.6418
 5935TIP3   OH239363   3.467   3.505   8.369 -0.5499 -0.1466 -0.5839
 5935TIP3    H139364   3.474   3.410   8.362 -0.0719 -0.1624  0.0062
 5935TIP3    H239365   3.374   3.524   8.354 -0.5907 -0.6729 -1.0105
 5936TIP3   OH239366   4.154   0.329   1.275  0.6880 -0.0396  0.0501
 5936TIP3    H139367   4.234   0.381   1.275 -0.3014  1.5995  1.4482
 5936TIP3    H239368   4.107   0.357   1.354 -1.5070 -0.5256 -0.9936
 5937TIP3   OH239369   5.911   1.008   2.084 -0.1459  0.1282  0.1749
 5937TIP3    H139370   5.950   1.088   2.048 -1.8674  1.0969  0.3281
 5937TIP3    H239371   5.865   0.968   2.010 -0.1761 -0.1333  0.3345
 5938TIP3   OH239372   1.346   2.843   1.624  0.0651 -0.3521  0.0895
 5938TIP3    H139373   1.427   2.852   1.573 -0.3372  0.0055 -0.4977
 5938TIP3    H239374   1.360   2.765   1.677  0.0786 -1.3544 -1.3318
 5939TIP3   OH239375   0.680   1.766   8.379  0.1770 -0.1656 -0.1353
 5939TIP3    H139376   0.679   1.814   8.462  1.7931 -0.8881  0.3561
 5939TIP3    H239377   0.603   1.710   8.383  0.2719 -0.2456  0.9475
 5940TIP3   OH239378   5.430   2.916   0.589  0.2219 -0.1198  0.4643
 5940TIP3    H139379   5.500   2.961   0.544 -0.7379 -1.0025 -2.0874
 5940TIP3    H239380   5.350   2.952   0.552 -0.6571 -0.3520  2.0484
 5941TIP3   OH239381   2.114   2.262   8.261  0.1850  0.2981  0.6168
 5941TIP3    H139382   2.182   2.230   8.321  1.0129  1.2450  0.2208
 5941TIP3    H239383   2.077   2.338   8.306  0.6814  0.9016  0.0154
 5942TIP3   OH239384   5.356   5.299   7.827 -0.2561  0.0782  0.4015
 5942TIP3    H139385   5.381   5.280   7.918  0.2749  1.2573  0.5183
 5942TIP3    H239386   5.360   5.394   7.821  0.2601 -0.0217 -1.0223
 5943TIP3   OH239387   5.897   1.750   1.490 -0.5474 -0.4212 -0.3259
 5943TIP3    H139388   5.907   1.845   1.495 -1.9648 -0.3336  1.6122
 5943TIP3    H239389   5.867   1.734   1.400 -2.4186  1.2026 -0.0458
 5944TIP3   OH239390   4.661   5.150   1.767 -0.0347 -0.0995  0.2588
 5944TIP3    H139391   4.601   5.222   1.747  0.0132 -0.3428 -0.8104
 5944TIP3    H239392   4.738   5.193   1.804 -0.1668  0.3651  0.0009
 5945TIP3   OH239393   3.713   0.855   8.232  0.4358  0.2304  0.0111
 5945TIP3    H139394   3.626   0.881   8.201  0.7565  0.2595 -0.8969
 5945TIP3    H239395   3.722   0.764   8.203  0.4015 -0.0262  0.7874
 5946TIP3   OH239396   1.238   4.910   0.690  0.6925 -0.2403  0.0987
 5946TIP3    H139397   1.157   4.868   0.719  0.4145 -0.5624 -1.1106
 5946TIP3    H239398   1.280   4.938   0.772 -0.3388 -0.5991  0.7796
 5947TIP3   OH239399   0.482   0.869   2.495 -0.2737 -0.3881  0.0201
 5947TIP3    H139400   0.410   0.851   2.433 -2.8559  1.6762  2.1556
 5947TIP3    H239401   0.513   0.956   2.469  0.4431 -0.6220  0.0751
 5948TIP3   OH239402   1.329   5.040   1.202  0.1531 -0.4047 -0.5062
 5948TIP3    H139403   1.334   5.133   1.225  0.6792 -0.4060 -0.5937
 5948TIP3    H239404   1.247   5.010   1.241  1.3449 -0.5899  2.0319
 5949TIP3   OH239405   3.992   3.850   8.859  0.4253  1.0206 -0.4923
 5949TIP3    H139406   3.961   3.865   8.948 -0.3881 -0.1816 -0.5487
 5949TIP3    H239407   4.049   3.773   8.867  1.1247  1.4823 -0.8694
 5950TIP3   OH239408   5.779   0.527   6.927 -0.8693  0.0549  0.3544
 5950TIP3    H139409   5.831   0.602   6.897 -0.0723 -0.1252  1.2111
 5950TIP3    H239410   5.781   0.534   7.023  0.9066 -2.1163  0.5693
 5951TIP3   OH239411   3.542   5.393   0.395 -0.8790  0.5457 -0.1361
 5951TIP3    H139412   3.622   5.438   0.368  0.8269 -1.4411  1.2729
 5951TIP3    H239413   3.533   5.321   0.333 -2.1133  1.2176 -0.7853
 5952TIP3   OH239414   5.562   3.737   1.533  0.4823 -0.4211  0.0967
 5952TIP3    H139415   5.514   3.806   1.579  0.4982 -0.1539 -0.2817
 5952TIP3    H239416   5.516   3.656   1.557 -0.4470 -0.1243 -0.6194
 5953TIP3   OH239417   0.616   2.686   8.591  0.4106 -0.0968  0.0014
 5953TIP3    H139418   0.589   2.605   8.549  0.3984 -0.5214  0.8138
 5953TIP3    H239419   0.638   2.744   8.518  1.3932 -1.1573 -0.5772
 5954TIP3   OH239420   5.073   2.152   0.012 -0.1954 -0.1182  0.2769
 5954TIP3    H139421   4.995   2.154  -0.043 -0.6246 -1.4735  0.7867
 5954TIP3    H239422   5.049   2.096   0.086  1.6916 -1.7469 -0.2464
 5955TIP3   OH239423   2.584   0.394   1.195  0.5077 -0.1821  0.3096
 5955TIP3    H139424   2.575   0.482   1.160  0.0180  0.1534  1.2438
 5955TIP3    H239425   2.529   0.339   1.139 -0.4628  0.3806  0.6979
 5956TIP3   OH239426   5.106   5.859   6.856  0.0627 -0.6751  0.3536
 5956TIP3    H139427   5.042   5.834   6.923  0.0946  0.5026  0.8425
 5956TIP3    H239428   5.065   5.932   6.810  1.0408  0.0778  0.6518
 5957TIP3   OH239429   4.766   3.130   7.886  0.1512 -0.5390 -0.2294
 5957TIP3    H139430   4.847   3.119   7.936 -0.4513 -0.9593  0.6749
 5957TIP3    H239431   4.720   3.047   7.896 -2.0415  0.8079  2.2867
 5958TIP3   OH239432   0.116   4.872   8.759  0.1056  0.2420 -0.0009
 5958TIP3    H139433   0.081   4.912   8.680 -0.8148  1.4861  0.9877
 5958TIP3    H239434   0.198   4.919   8.776  0.1553  0.1734 -0.0493
 5959TIP3   OH239435   4.476   1.965   7.221 -0.6619 -0.9301 -0.7383
 5959TIP3    H139436   4.548   1.913   7.257 -0.3927 -1.6670 -2.2531
 5959TIP3    H239437   4.465   1.932   7.132 -1.2367  0.8609 -1.3721
 5960TIP3   OH239438   4.849   0.779   6.648 -0.3836 -0.0747  0.3561
 5960TIP3    H139439   4.910   0.705   6.656 -0.7887 -0.5775 -0.9610
 5960TIP3    H239440   4.846   0.798   6.554 -2.3566 -0.1596  0.3563
 5961TIP3   OH239441   4.003   5.754   0.137  0.6843  0.4701 -0.0529
 5961TIP3    H139442   3.951   5.698   0.078  1.3572  0.4591 -0.6524
 5961TIP3    H239443   4.043   5.692   0.198 -1.1862  0.6001  1.4028
 5962TIP3   OH239444   6.716   0.877   1.361 -0.3491 -0.1308 -0.1307
 5962TIP3    H139445   6.714   0.958   1.309 -1.0167 -0.0177  0.0624
 5962TIP3    H239446   6.672   0.813   1.306  2.0426 -0.9654 -1.2259
 5963TIP3   OH239447   3.235   0.848   7.693 -0.1504 -0.1420 -0.5290
 5963TIP3    H139448   3.273   0.827   7.778  0.1583  1.7640 -0.1572
 5963TIP3    H239449   3.149   0.886   7.715 -0.5979 -0.7616 -1.1562
 5964TIP3   OH239450   0.319   5.222   0.470 -0.0471  0.6570 -0.2430
 5964TIP3    H139451   0.385   5.290   0.478 -1.1193  1.6940 -0.0469
 5964TIP3    H239452   0.251   5.246   0.532 -1.2254  0.3425 -1.3571
 5965TIP3   OH239453   1.571   0.674   2.314  0.7132 -0.2511 -0.0877
 5965TIP3    H139454   1.550   0.581   2.319  0.4882 -0.3000 -1.5494
 5965TIP3    H239455   1.527   0.705   2.234  0.4453  1.2053  0.5740
 5966TIP3   OH239456   0.118   4.358   7.497 -0.0162 -0.1511  0.1183
 5966TIP3    H139457   0.071   4.285   7.456  0.4062 -0.2307 -0.2300
 5966TIP3    H239458   0.101   4.433   7.440 -1.7693  0.4359  1.3109
 5967TIP3   OH239459   4.615   3.926   0.126  0.1576  0.6158  0.0873
 5967TIP3    H139460   4.645   3.920   0.035  1.2403  2.1876  0.3129
 5967TIP3    H239461   4.694   3.918   0.178 -0.4859 -0.5080  0.9337
 5968TIP3   OH239462   3.953   2.961   8.490  0.1290 -0.2530  0.1455
 5968TIP3    H139463   4.023   3.026   8.501  0.1710 -0.5844  2.3313
 5968TIP3    H239464   3.977   2.913   8.411  0.9574  1.3449 -0.6033
 5969TIP3   OH239465   2.597   3.779   2.435  0.9332 -0.3074  0.1387
 5969TIP3    H139466   2.570   3.748   2.521  0.6177  0.4997  0.3370
 5969TIP3    H239467   2.604   3.874   2.445 -0.5250 -0.0432 -1.1128
 5970TIP3   OH239468   5.742   3.612   1.734  0.1970 -0.2555  0.3443
 5970TIP3    H139469   5.754   3.679   1.802  1.2854 -0.4457  0.3551
 5970TIP3    H239470   5.651   3.584   1.744 -0.6214  1.9715 -0.3473
 5971TIP3   OH239471   3.459   2.672   0.040  0.0772 -0.1720 -0.2795
 5971TIP3    H139472   3.439   2.626  -0.042  2.8505  0.0955 -1.2167
 5971TIP3    H239473   3.430   2.612   0.109 -0.1282 -1.4946 -1.4721
 5972TIP3   OH239474   3.502   3.314   0.141  0.0881  0.2505 -0.1438
 5972TIP3    H139475   3.580   3.261   0.160 -2.5586 -3.4780  1.5214
 5972TIP3    H239476   3.510   3.389   0.200  2.4249  0.0494 -0.0969
 5973TIP3   OH239477   1.858   1.723   7.410 -0.2408 -0.3584  0.3497
 5973TIP3    H139478   1.856   1.688   7.321 -0.2093  1.1514 -0.2606
 5973TIP3    H239479   1.895   1.652   7.462 -1.3792 -1.7249 -0.6172
 5974TIP3   OH239480   3.981   0.057   8.441  0.0430  0.1784  0.2857
 5974TIP3    H139481   3.970   0.029   8.350 -0.1288  1.5106 -0.1129
 5974TIP3    H239482   3.987  -0.025   8.490 -1.6036 -0.5987 -0.7095
 5975TIP3   OH239483   0.034   1.712   8.233 -0.7230  0.0792 -0.4936
 5975TIP3    H139484   0.001   1.729   8.144 -1.6867 -0.1601 -0.1949
 5975TIP3    H239485   0.093   1.638   8.223 -2.1776 -1.0912 -0.6829
 5976TIP3   OH239486   2.437   5.732   0.400  0.1604  0.4630 -0.5319
 5976TIP3    H139487   2.498   5.658   0.405 -0.1718  0.1655 -0.8501
 5976TIP3    H239488   2.354   5.693   0.372 -0.5387  0.6656  1.1298
 5977TIP3   OH239489   2.263   0.257   1.069 -1.1126 -0.1828 -0.4220
 5977TIP3    H139490   2.236   0.294   0.985  0.2391  0.8085 -0.4657
 5977TIP3    H239491   2.224   0.314   1.134 -1.1085 -0.1942 -0.4096
 5978TIP3   OH239492   3.957   6.067   6.776  0.3488 -0.1009 -0.2901
 5978TIP3    H139493   3.972   5.974   6.761 -0.5451 -0.1308 -1.1146
 5978TIP3    H239494   4.043   6.108   6.763  0.4505 -0.6408 -1.3888
 5979TIP3   OH239495   0.661   3.709   6.771  0.3602  0.3367 -0.4225
 5979TIP3    H139496   0.652   3.711   6.676 -0.2593  1.4288 -0.3600
 5979TIP3    H239497   0.743   3.662   6.787 -1.2231 -3.0118 -1.3424
 5980TIP3   OH239498   5.821   2.152   8.019 -0.6116 -0.5549  0.3684
 5980TIP3    H139499   5.908   2.113   8.032 -0.9136 -1.6960 -0.8338
 5980TIP3    H239500   5.839   2.239   7.985  0.0710 -0.2950  1.3587
 5981TIP3   OH239501   5.345   0.094   8.437 -0.3197 -0.3017 -0.0834
 5981TIP3    H139502   5.386   0.160   8.380 -0.7030  1.0930  1.1899
 5981TIP3    H239503   5.356   0.128   8.525 -3.6561 -0.0864  0.3897
 5982TIP3   OH239504   5.170   3.355   6.430 -0.4472 -0.5943  0.2828
 5982TIP3    H139505   5.197   3.312   6.349 -0.5258 -0.4873  0.1987
 5982TIP3    H239506   5.097   3.302   6.463  1.3838 -2.3299  1.8043
 5983TIP3   OH239507   3.247   3.940   8.137  0.6149  0.7286 -0.0555
 5983TIP3    H139508   3.191   3.967   8.209  0.5098  2.5871 -0.7828
 5983TIP3    H239509   3.315   3.886   8.178 -0.5268  0.1464  1.1224
 5984TIP3   OH239510   3.929   3.766   8.376  0.4697  0.1288 -0.5411
 5984TIP3    H139511   3.880   3.814   8.443 -0.9009  0.3479 -1.6331
 5984TIP3    H239512   3.981   3.834   8.332  0.3442  0.2152 -0.5582
 5985TIP3   OH239513   2.088   5.053   1.430 -0.5861 -0.0437 -0.0845
 5985TIP3    H139514   2.069   5.042   1.336 -0.7668 -2.8762  0.2134
 5985TIP3    H239515   2.042   4.980   1.472  1.5800 -0.3329  1.9328
 5986TIP3   OH239516   6.623   3.878   7.552 -0.3964 -0.2830 -0.5419
 5986TIP3    H139517   6.699   3.822   7.535 -0.3665 -0.4444  0.1078
 5986TIP3    H239518   6.603   3.865   7.644 -0.1493  1.0758 -0.2706
 5987TIP3   OH239519   0.367   4.958   8.430 -0.2606  0.0455  0.0271
 5987TIP3    H139520   0.337   5.024   8.492 -1.8191  0.6471 -1.3150
 5987TIP3    H239521   0.439   4.999   8.382 -0.6354  0.4416 -0.1937
 5988TIP3   OH239522   3.109   3.570   6.747 -0.0508 -0.9542  0.2642
 5988TIP3    H139523   3.109   3.666   6.755 -2.6679 -0.8859  0.2968
 5988TIP3    H239524   3.198   3.544   6.772  1.4046  1.5837 -1.7101
 5989TIP3   OH239525   6.634   0.759   8.364  0.2441 -0.1194 -0.1730
 5989TIP3    H139526   6.595   0.690   8.309  0.7515 -0.7338  0.2288
 5989TIP3    H239527   6.591   0.748   8.449  0.1941  0.1795 -0.1593
 5990TIP3   OH239528   1.476   2.772   6.571  0.0640 -0.2819 -0.1837
 5990TIP3    H139529   1.567   2.758   6.544  0.0913  0.3389 -0.4456
 5990TIP3    H239530   1.430   2.787   6.488 -0.1246  0.2033  0.0102
 5991TIP3   OH239531   1.225   0.051   7.815  0.3811 -0.0894  0.0989
 5991TIP3    H139532   1.153   0.006   7.860  0.0340 -1.3011 -1.5512
 5991TIP3    H239533   1.181   0.107   7.751  0.8678  1.5241  1.1135
 5992TIP3   OH239534   0.976   5.392   6.963 -0.3081  0.9840  0.7248
 5992TIP3    H139535   0.926   5.440   7.029 -0.1325 -1.1955  2.5929
 5992TIP3    H239536   1.063   5.382   7.002 -0.1113 -0.1088  0.0428
 5993TIP3   OH239537   4.305   1.726   7.317 -0.1868  0.1459  1.1763
 5993TIP3    H139538   4.356   1.645   7.317  0.0260  0.2562  2.4231
 5993TIP3    H239539   4.368   1.794   7.295  0.3947  0.3596  3.3054
 5994TIP3   OH239540   3.913   2.744   7.632  0.3185  0.4645  0.1488
 5994TIP3    H139541   3.822   2.747   7.604  1.1639  1.5728 -2.8333
 5994TIP3    H239542   3.920   2.660   7.679 -2.4187  0.8775  1.5177
 5995TIP3   OH239543   0.735   5.932   0.289 -0.8748 -0.4607 -0.1444
 5995TIP3    H139544   0.690   5.848   0.280 -0.4915 -0.5506 -1.2954
 5995TIP3    H239545   0.795   5.936   0.215 -0.9960  0.8983 -0.1931
 5996TIP3   OH239546   5.441   6.657   2.011 -0.2328  0.2022  0.4629
 5996TIP3    H139547   5.516   6.701   1.972  0.3844  0.3389  1.7430
 5996TIP3    H239548   5.475   6.616   2.091 -1.3839 -0.2491  0.7530
 5997TIP3   OH239549   1.223   1.572   8.698  0.4237  0.5948  0.6500
 5997TIP3    H139550   1.317   1.562   8.710  0.4818  0.1512 -0.1361
 5997TIP3    H239551   1.213   1.636   8.628  0.1506  0.4837  0.5831
 5998TIP3   OH239552   5.215   3.705   2.141 -0.4000 -0.5592  0.3013
 5998TIP3    H139553   5.162   3.751   2.075  0.2058  0.1735  0.3085
 5998TIP3    H239554   5.167   3.625   2.158 -1.7245  0.2631  0.6014
 5999TIP3   OH239555   0.634   6.205   7.359  0.2822  0.9232  0.1010
 5999TIP3    H139556   0.683   6.143   7.413 -1.1632  0.7737  1.3172
 5999TIP3    H239557   0.612   6.156   7.280  0.3794  0.3559  0.4221
 6000TIP3   OH239558   2.729   4.531   0.045 -0.0930 -0.8887  0.4926
 6000TIP3    H139559   2.774   4.588  -0.018 -1.3208 -0.9759 -0.5294
 6000TIP3    H239560   2.717   4.586   0.122 -1.0361  0.2153 -0.3836
 6001TIP3   OH239561   3.104   4.649   8.347  0.1238  0.1134  0.0999
 6001TIP3    H139562   3.125   4.742   8.358 -0.7779  0.3311  0.1300
 6001TIP3    H239563   3.039   4.648   8.277  1.2375 -0.6565 -0.9500
 6002TIP3   OH239564   3.217   3.825   7.477  0.2629  0.2342  0.1865
 6002TIP3    H139565   3.274   3.876   7.419 -0.1321  0.9553  0.4158
 6002TIP3    H239566   3.134   3.817   7.430 -0.1521  1.0653  0.7465
 6003TIP3   OH239567   0.335   1.130   2.736  0.1342 -0.1372  0.4283
 6003TIP3    H139568   0.393   1.149   2.663 -2.1087 -0.9075 -1.6862
 6003TIP3    H239569   0.290   1.213   2.753  1.3874  0.3246  1.7294
 6004TIP3   OH239570   2.901   4.553   8.146  0.1186 -0.2229  0.6637
 6004TIP3    H139571   2.919   4.492   8.075 -1.1798 -1.0897  1.0610
 6004TIP3    H239572   2.894   4.638   8.103 -2.6208 -0.9982 -0.5801
 6005TIP3   OH239573   4.373   3.617   7.491 -0.5847  1.0988 -0.2036
 6005TIP3    H139574   4.329   3.680   7.549 -0.5683  0.4537  0.5121
 6005TIP3    H239575   4.466   3.630   7.508 -0.6057 -1.1949  2.2372
 6006TIP3   OH239576   5.218   2.442   8.131  0.1148  0.0379 -0.1168
 6006TIP3    H139577   5.158   2.502   8.176 -0.5505 -0.8421  0.2043
 6006TIP3    H239578   5.170   2.415   8.053  1.5934  2.2082 -1.8783
 6007TIP3   OH239579   0.533   2.138   7.049 -0.1190 -0.0510  0.4867
 6007TIP3    H139580   0.522   2.090   6.967 -0.1559  1.2954 -0.3208
 6007TIP3    H239581   0.507   2.075   7.117  0.5758 -1.4161 -0.4604
 6008TIP3   OH239582   3.584   1.214   8.499  0.2306 -0.1422 -1.0101
 6008TIP3    H139583   3.511   1.197   8.439 -0.3279  0.2456 -0.4470
 6008TIP3    H239584   3.656   1.161   8.464 -0.6003 -1.3091 -1.0048
 6009TIP3   OH239585   4.972   0.363   8.509  0.2199  0.1110  0.5857
 6009TIP3    H139586   4.933   0.349   8.595  1.9890  1.0787  1.6093
 6009TIP3    H239587   5.063   0.384   8.528  0.1710  2.5158 -1.3553
 6010TIP3   OH239588   1.961   5.355   0.057 -0.5242  0.0412 -0.4887
 6010TIP3    H139589   1.870   5.327   0.069 -0.2230 -1.1872 -0.8986
 6010TIP3    H239590   1.970   5.364  -0.038 -0.8654  2.5421 -0.3472
 6011TIP3   OH239591   0.778   6.497   7.814  0.5624 -0.1274  0.3589
 6011TIP3    H139592   0.766   6.473   7.906 -1.0060 -3.1326 -0.4969
 6011TIP3    H239593   0.787   6.414   7.769  3.0521  1.3004 -2.0881
 6012TIP3   OH239594   2.636   5.978   7.570  0.2852 -0.4193  0.2803
 6012TIP3    H139595   2.709   5.958   7.512 -1.3055 -0.4995 -1.8039
 6012TIP3    H239596   2.665   5.948   7.656  3.1345  0.6356 -0.2042
 6013TIP3   OH239597   5.610   6.024   8.363  0.0046 -0.3546  0.4584
 6013TIP3    H139598   5.557   6.085   8.415 -0.4764 -0.1129 -0.3097
 6013TIP3    H239599   5.580   6.036   8.273  0.7072 -0.9046  0.1428
 6014TIP3   OH239600   1.585   4.669   0.483 -0.2726  0.7458 -0.1324
 6014TIP3    H139601   1.548   4.685   0.396  2.2508  2.7539 -0.9553
 6014TIP3    H239602   1.583   4.574   0.492  0.3595  0.3835 -2.8693
 6015TIP3   OH239603   2.990   0.347   1.295  0.2861  0.0167 -0.4698
 6015TIP3    H139604   2.919   0.309   1.244  1.1709 -1.1497 -0.8742
 6015TIP3    H239605   3.065   0.347   1.236  0.3551  2.4573 -0.4997
 6016TIP3   OH239606   3.930   4.454   7.209 -0.0175 -0.3231 -0.3061
 6016TIP3    H139607   3.946   4.423   7.298 -0.7235  0.9204  0.2809
 6016TIP3    H239608   3.885   4.538   7.220 -1.6338 -0.9271 -1.8391
 6017TIP3   OH239609   0.869   5.146   1.573  0.0217  0.4704 -0.4163
 6017TIP3    H139610   0.818   5.167   1.651  3.0595 -1.2812  2.2979
 6017TIP3    H239611   0.813   5.088   1.522 -1.2809 -0.1119  1.5890
 6018TIP3   OH239612   2.069   2.226   1.021 -0.0857  0.0180 -0.3529
 6018TIP3    H139613   2.035   2.309   1.053 -0.2424 -0.0251 -0.4093
 6018TIP3    H239614   2.046   2.162   1.089  1.6354  0.3348  0.5833
 6019TIP3   OH239615   2.006   5.811   1.007  0.1355  0.4040  0.2018
 6019TIP3    H139616   1.971   5.896   0.980 -0.7075 -0.1369 -0.4880
 6019TIP3    H239617   1.928   5.758   1.026  0.5225 -0.9920 -1.7977
 6020TIP3   OH239618   1.912   0.370   7.595  0.2105 -0.0019  0.1249
 6020TIP3    H139619   1.829   0.326   7.614 -0.7522  1.1332 -1.2629
 6020TIP3    H239620   1.940   0.331   7.511  1.2698 -0.6054  0.7362
 6021TIP3   OH239621   6.321   3.014   0.668 -0.3892 -0.1394  0.2599
 6021TIP3    H139622   6.257   3.081   0.690 -0.0542  0.4537 -0.5175
 6021TIP3    H239623   6.406   3.059   0.672 -0.3075  0.1462 -2.4797
 6022TIP3   OH239624   1.216   1.733   7.839 -0.5907 -0.4450 -0.0057
 6022TIP3    H139625   1.247   1.775   7.919 -0.9066 -0.8737  0.3495
 6022TIP3    H239626   1.268   1.772   7.769 -1.3247  1.0314  0.2272
 6023TIP3   OH239627   0.723   3.811   0.425  0.3255 -0.8900 -0.2119
 6023TIP3    H139628   0.643   3.757   0.428  0.1985 -0.6791  0.3513
 6023TIP3    H239629   0.722   3.851   0.338 -0.5818 -0.2984  0.0582
 6024TIP3   OH239630   5.522   4.744   0.095 -0.3580 -1.1011 -0.4608
 6024TIP3    H139631   5.448   4.718   0.041 -1.1615 -0.1143  0.1256
 6024TIP3    H239632   5.566   4.813   0.045 -1.2931  0.0436  0.2465
 6025TIP3   OH239633   4.625   3.678   7.331 -0.0070  0.3462  0.7009
 6025TIP3    H139634   4.709   3.631   7.333 -0.4936 -0.5094  1.4172
 6025TIP3    H239635   4.625   3.730   7.411 -0.2251  0.2289  0.7776
 6026TIP3   OH239636   5.711   3.199   8.172  0.4097  0.4552 -0.2703
 6026TIP3    H139637   5.679   3.284   8.202  0.0837 -0.2615  1.4871
 6026TIP3    H239638   5.644   3.169   8.110 -0.7615  0.3846  0.9950
 6027TIP3   OH239639   3.409   4.456   0.952 -0.2112 -0.1763  0.3959
 6027TIP3    H139640   3.434   4.412   0.871 -0.0105 -1.0310  0.9099
 6027TIP3    H239641   3.421   4.549   0.934  1.4771 -0.4499  0.0029
 6028TIP3   OH239642   1.012   6.262   1.688 -0.1382  0.3927  0.3480
 6028TIP3    H139643   1.072   6.207   1.639 -1.4651 -0.6448 -0.1777
 6028TIP3    H239644   0.996   6.338   1.632  0.5827  0.6240  0.4510
 6029TIP3   OH239645   5.428   0.695   2.594  0.0970 -0.8806  0.5150
 6029TIP3    H139646   5.495   0.740   2.645  2.3414 -3.0660 -0.2983
 6029TIP3    H239647   5.452   0.712   2.503 -0.0487 -2.2176  0.2055
 6030TIP3   OH239648   0.636   3.505   8.272 -0.0305  0.0080  0.3245
 6030TIP3    H139649   0.564   3.566   8.285 -0.1518 -0.2633  0.9599
 6030TIP3    H239650   0.642   3.495   8.177  1.7421  3.1042 -0.0288
 6031TIP3   OH239651   3.787   3.427   1.094 -0.5875  0.1480  0.1400
 6031TIP3    H139652   3.849   3.392   1.157 -0.2485  0.4144 -0.0440
 6031TIP3    H239653   3.765   3.353   1.038  0.0545  0.2033 -0.1909
 6032TIP3   OH239654   4.992   6.726   6.546  0.0798 -0.4780 -0.4157
 6032TIP3    H139655   5.037   6.654   6.590 -0.9151 -0.7390  0.2167
 6032TIP3    H239656   4.939   6.683   6.479 -0.1733 -0.3033 -0.3305
 6033TIP3   OH239657   4.313   5.243   6.485  0.6742  0.7734  0.4236
 6033TIP3    H139658   4.366   5.166   6.463 -0.7524 -0.0467 -0.2968
 6033TIP3    H239659   4.224   5.218   6.462 -0.2751  1.6128  2.8375
 6034TIP3   OH239660   6.150   1.370   7.366  0.3998  0.3633  0.2485
 6034TIP3    H139661   6.150   1.408   7.454  0.5707  2.5152 -0.6106
 6034TIP3    H239662   6.241   1.345   7.350  0.4816  0.5196  0.4688
 6035TIP3   OH239663   2.099   2.528   0.319  0.3499  0.1510  0.3477
 6035TIP3    H139664   2.121   2.620   0.335 -0.7887  0.7204 -1.1017
 6035TIP3    H239665   2.058   2.499   0.400  0.6680  0.9313  0.8022
 6036TIP3   OH239666   5.846   0.043   7.828 -0.0751 -0.3775 -0.4527
 6036TIP3    H139667   5.857   0.129   7.787 -0.6340  0.4262  0.9798
 6036TIP3    H239668   5.932   0.002   7.824  0.7560  1.1573  0.7227
 6037TIP3   OH239669   5.509   0.323   0.018 -0.0132 -0.4373 -0.0021
 6037TIP3    H139670   5.604   0.311   0.011 -0.0946 -1.2490  0.2037
 6037TIP3    H239671   5.499   0.411   0.054  0.6525 -0.2029 -0.3728
 6038TIP3   OH239672   3.074   3.147   7.844 -0.7519  0.0039  0.4780
 6038TIP3    H139673   3.119   3.108   7.770  1.6322  2.3456  0.5709
 6038TIP3    H239674   3.030   3.073   7.886  2.3680 -2.4007 -0.0928
 6039TIP3   OH239675   5.957   2.669   8.795  0.3092 -0.1293  0.1264
 6039TIP3    H139676   5.975   2.670   8.701 -2.9811 -0.9410 -0.6427
 6039TIP3    H239677   5.943   2.761   8.818  0.8336  0.0458 -0.2277
 6040TIP3   OH239678   5.241   0.352   1.797 -0.1780  0.3522  0.0189
 6040TIP3    H139679   5.309   0.342   1.730  0.0399  0.2384  0.2556
 6040TIP3    H239680   5.186   0.275   1.787  1.4931 -1.1614  1.8364
 6041TIP3   OH239681   5.363   0.482   1.464  0.3131  0.2846 -0.2583
 6041TIP3    H139682   5.456   0.494   1.481  0.8528 -3.5811  0.4515
 6041TIP3    H239683   5.359   0.435   1.381 -0.7420 -1.8444  0.9034
 6042TIP3   OH239684   0.186   1.368   2.766  0.3680  0.4249  0.0104
 6042TIP3    H139685   0.242   1.438   2.733 -1.2691  1.7731  0.0148
 6042TIP3    H239686   0.105   1.411   2.791 -0.6159 -1.4460  0.2136
 6043TIP3   OH239687   0.935   4.927   8.263 -0.1089 -0.4273  0.2492
 6043TIP3    H139688   0.935   4.894   8.352 -0.4157  1.3194  0.9286
 6043TIP3    H239689   1.008   4.882   8.221 -2.0003 -3.9148  0.2854
 6044TIP3   OH239690   6.466   2.042   0.578 -0.4428 -0.2741  0.1346
 6044TIP3    H139691   6.469   2.019   0.671 -2.1746 -1.5061 -0.0738
 6044TIP3    H239692   6.441   2.134   0.576  1.4375  0.3073  0.8830
 6045TIP3   OH239693   1.395   2.329   1.818 -0.7552 -0.0017 -0.1423
 6045TIP3    H139694   1.370   2.245   1.858 -0.9842  0.3162  0.4017
 6045TIP3    H239695   1.314   2.380   1.819 -0.2093  0.9057  1.2776
 6046TIP3   OH239696   2.145   0.936   1.535 -0.0241  0.0076  0.1896
 6046TIP3    H139697   2.190   0.938   1.619 -0.0327 -0.3706  0.2031
 6046TIP3    H239698   2.165   0.850   1.499 -0.8439 -0.2216  0.2544
 6047TIP3   OH239699   5.312   4.984   7.118  0.4973  0.2718 -0.0375
 6047TIP3    H139700   5.271   4.900   7.100  0.3885  0.5958 -1.4122
 6047TIP3    H239701   5.264   5.019   7.193  0.8363 -1.0709  0.8379
 6048TIP3   OH239702   2.329   2.995   1.875 -0.0142 -0.6147 -0.2467
 6048TIP3    H139703   2.303   2.913   1.917 -1.2130 -0.6360 -0.9811
 6048TIP3    H239704   2.321   2.978   1.781 -0.0666  0.2731 -0.4123
 6049TIP3   OH239705   1.209   5.177   8.674  0.3671  0.2052 -0.5845
 6049TIP3    H139706   1.296   5.139   8.681 -0.2701 -0.9713  1.9548
 6049TIP3    H239707   1.216   5.263   8.714  0.0773 -0.4973  1.0469
 6050TIP3   OH239708   0.239   0.514   1.099 -0.0137  0.8565  0.2912
 6050TIP3    H139709   0.183   0.591   1.094  1.4747  1.9201 -1.3668
 6050TIP3    H239710   0.186   0.447   1.142 -1.5316  2.6361  1.2998
 6051TIP3   OH239711   1.976   3.707   8.062  0.0340 -0.2644 -0.2621
 6051TIP3    H139712   1.980   3.683   8.155  0.0207  0.5555 -0.0367
 6051TIP3    H239713   2.059   3.677   8.026  0.0494 -0.5666  0.0244
 6052TIP3   OH239714   6.177   4.718   8.668  0.0665  0.1348  0.0676
 6052TIP3    H139715   6.175   4.723   8.764 -0.4222 -2.7057  0.3114
 6052TIP3    H239716   6.101   4.769   8.640 -0.1033  0.5636  1.2404
 6053TIP3   OH239717   3.312   6.605   1.392  0.0438 -0.4175  0.5291
 6053TIP3    H139718   3.336   6.697   1.406  0.4318 -0.1861 -1.3639
 6053TIP3    H239719   3.217   6.604   1.405 -0.3113  0.7498 -1.4594
 6054TIP3   OH239720   6.696   3.137   7.674 -0.1524 -0.5923  0.3399
 6054TIP3    H139721   6.680   3.226   7.707 -1.3835 -0.9287  0.7195
 6054TIP3    H239722   6.634   3.128   7.602 -1.4988 -1.8035  1.5671
 6055TIP3   OH239723   3.618   4.522   7.245 -0.0589  0.5313  0.1217
 6055TIP3    H139724   3.534   4.568   7.243  0.1759  0.9566 -0.0958
 6055TIP3    H239725   3.643   4.514   7.153  0.0652  0.2729  0.1785
 6056TIP3   OH239726   3.239   4.551   1.310 -0.2059  0.1313 -0.1073
 6056TIP3    H139727   3.166   4.495   1.337  2.1013 -2.0030  2.3289
 6056TIP3    H239728   3.269   4.514   1.227 -0.9342  0.0423 -0.3330
 6057TIP3   OH239729   6.501   5.718   8.829 -0.0968 -0.4141 -0.0040
 6057TIP3    H139730   6.532   5.787   8.771  0.1559 -1.2200 -0.8517
 6057TIP3    H239731   6.580   5.680   8.866 -0.2505 -0.0031  0.7793
 6058TIP3   OH239732   0.819   5.551   1.816  0.0849  0.0594  0.1262
 6058TIP3    H139733   0.896   5.603   1.838 -0.2973  0.2964  0.9218
 6058TIP3    H239734   0.759   5.565   1.888 -1.9442  2.3048 -1.8405
 6059TIP3   OH239735   0.714   6.364   0.996  0.6384 -0.7056  0.4755
 6059TIP3    H139736   0.762   6.421   0.936 -1.3927  0.3157 -0.2773
 6059TIP3    H239737   0.715   6.412   1.079  0.2379 -0.2782  0.2416
 6060TIP3   OH239738   1.971   4.635   0.506  0.0047 -0.4576 -0.6102
 6060TIP3    H139739   1.906   4.681   0.453 -0.9270 -0.9369  0.0667
 6060TIP3    H239740   2.024   4.704   0.546 -0.4179 -0.0300 -0.7791
 6061TIP3   OH239741   5.454   6.237   8.472  0.0326 -0.3229  0.0565
 6061TIP3    H139742   5.444   6.332   8.471 -1.9878 -0.4469  2.0336
 6061TIP3    H239743   5.399   6.207   8.545  0.9609 -2.9784 -0.2217
 6062TIP3   OH239744   5.862   1.982   2.130 -0.0839 -0.1042 -0.2693
 6062TIP3    H139745   5.887   1.895   2.160 -0.6349  0.1223  0.9008
 6062TIP3    H239746   5.779   2.000   2.174  0.9607  1.7852  1.0953
 6063TIP3   OH239747   1.897   0.920   1.353  0.3853 -0.3828 -0.2778
 6063TIP3    H139748   1.836   0.874   1.295  1.8961  0.6900 -2.8890
 6063TIP3    H239749   1.965   0.856   1.373 -0.2919 -0.8459  0.6423
 6064TIP3   OH239750   1.079   4.453   0.888  0.6513  0.4017  0.1621
 6064TIP3    H139751   1.151   4.433   0.949  0.4040  1.9296  0.9936
 6064TIP3    H239752   1.114   4.430   0.802  1.0677 -1.6625  0.8102
 6065TIP3   OH239753   4.607   1.741   8.349  0.2833 -0.3015  0.2142
 6065TIP3    H139754   4.562   1.816   8.388 -0.3591 -1.3855  1.6739
 6065TIP3    H239755   4.536   1.689   8.311  0.6697 -0.4248 -0.3452
 6066TIP3   OH239756   3.369   0.663   6.582  0.0154 -0.5280  0.2215
 6066TIP3    H139757   3.310   0.636   6.653 -0.6380 -0.1492 -0.1707
 6066TIP3    H239758   3.330   0.625   6.503  0.5502 -0.6557  0.0159
 6067TIP3   OH239759   2.963   0.902   7.731 -0.2686 -0.2472  0.7560
 6067TIP3    H139760   2.895   0.908   7.663  1.6126 -1.0980 -1.3498
 6067TIP3    H239761   2.931   0.835   7.791 -0.5964 -1.9257 -1.1698
 6068TIP3   OH239762   5.351   0.767   1.464  0.1054 -0.1928  0.2386
 6068TIP3    H139763   5.299   0.845   1.483  3.0619  2.2498 -0.8749
 6068TIP3    H239764   5.305   0.724   1.392 -2.8668 -0.9570  2.4147
 6069TIP3   OH239765   2.218   6.734   7.493 -0.5625 -0.1667 -0.1284
 6069TIP3    H139766   2.172   6.652   7.475  1.1698 -1.1737 -0.1114
 6069TIP3    H239767   2.292   6.734   7.433 -0.3833  1.2732  0.0564
 6070TIP3   OH239768   1.301   0.613   7.158  0.1906 -0.1949 -0.8187
 6070TIP3    H139769   1.281   0.581   7.071  1.9190 -2.6882 -0.3987
 6070TIP3    H239770   1.367   0.681   7.144 -0.7331  0.5918 -1.5020
 6071TIP3   OH239771   2.713   1.529   1.922  0.1110 -0.0927  0.2482
 6071TIP3    H139772   2.671   1.567   1.844  0.9086 -0.6823 -0.4893
 6071TIP3    H239773   2.658   1.558   1.995 -0.2228  1.1234 -0.4492
 6072TIP3   OH239774   5.349   1.850   7.114 -0.1247  0.4166 -0.1710
 6072TIP3    H139775   5.349   1.826   7.022 -0.0770  0.6027 -0.2199
 6072TIP3    H239776   5.256   1.863   7.135 -0.3579 -1.8497  0.4011
 6073TIP3   OH239777   5.499   6.302   0.543 -0.3149 -0.1894 -0.7651
 6073TIP3    H139778   5.504   6.398   0.549 -0.3407 -0.2944  2.0665
 6073TIP3    H239779   5.406   6.284   0.532 -0.3291  0.0777 -1.1318
 6074TIP3   OH239780   3.902   1.426   0.629  0.1713  0.5663  0.1392
 6074TIP3    H139781   3.920   1.418   0.535  1.3875 -1.2211  0.4815
 6074TIP3    H239782   3.909   1.337   0.663 -2.4281  0.8145  1.6026
 6075TIP3   OH239783   2.911   1.885   2.616  0.1124 -0.4791  0.1729
 6075TIP3    H139784   2.994   1.850   2.650  0.4799  0.8178  0.6782
 6075TIP3    H239785   2.913   1.978   2.640 -1.0168 -0.2000 -0.7414
 6076TIP3   OH239786   2.862   3.324   8.163  0.5938 -0.0438  0.2722
 6076TIP3    H139787   2.941   3.304   8.113  0.5375 -0.6754  0.4289
 6076TIP3    H239788   2.823   3.399   8.117  0.3738 -0.8111 -0.8119
 6077TIP3   OH239789   1.478   4.452   8.047  0.8846 -0.1972  0.4400
 6077TIP3    H139790   1.538   4.443   8.122  1.9285 -1.6575 -0.5149
 6077TIP3    H239791   1.471   4.546   8.033  2.3805  0.0443  1.0607
 6078TIP3   OH239792   5.531   0.891   1.084 -0.1572 -0.7952 -0.3980
 6078TIP3    H139793   5.603   0.836   1.118  0.5150  0.2795 -0.0449
 6078TIP3    H239794   5.536   0.880   0.989  2.0373  1.0800 -0.5937
 6079TIP3   OH239795   4.637   3.690   6.674 -0.1726  0.4567 -0.3894
 6079TIP3    H139796   4.717   3.685   6.727 -0.0048  1.7418 -0.4782
 6079TIP3    H239797   4.608   3.599   6.666  1.3487 -0.0609 -0.4605
 6080TIP3   OH239798   5.629   3.360   0.045  0.5831 -0.2045  0.3433
 6080TIP3    H139799   5.668   3.447   0.045  0.7290 -0.2352 -1.6808
 6080TIP3    H239800   5.562   3.363   0.113 -0.9303  2.1872 -1.1398
 6081TIP3   OH239801   4.481   6.338   2.096  0.3405  0.0207  0.0206
 6081TIP3    H139802   4.530   6.284   2.034 -0.8766  0.0832 -1.0469
 6081TIP3    H239803   4.533   6.335   2.177  1.6803 -0.5170 -0.8247
 6082TIP3   OH239804   4.051   4.564   8.561 -0.3863 -0.1547  0.3029
 6082TIP3    H139805   4.084   4.646   8.525 -0.1051 -0.6462 -0.5876
 6082TIP3    H239806   3.957   4.580   8.575 -0.4079  0.1977 -0.2180
 6083TIP3   OH239807   2.427   0.373   6.926 -0.4055  0.0610 -0.0403
 6083TIP3    H139808   2.353   0.370   6.987 -1.8482 -1.4105 -1.7344
 6083TIP3    H239809   2.408   0.449   6.871 -1.5582 -1.1562 -1.4255
 6084TIP3   OH239810   4.516   6.283   7.695 -0.0599  0.0730  0.4935
 6084TIP3    H139811   4.498   6.198   7.736 -1.4282 -0.6542 -1.4565
 6084TIP3    H239812   4.450   6.291   7.626  0.1457  2.6715  0.4929
 6085TIP3   OH239813   4.570   5.894   1.708 -0.2937  0.2124 -0.1583
 6085TIP3    H139814   4.581   5.988   1.699  0.7802  0.0432 -0.7453
 6085TIP3    H239815   4.479   5.883   1.735 -0.7476  1.3525 -1.1569
 6086TIP3   OH239816   3.176   4.129   6.576  0.1479  0.7014  0.2564
 6086TIP3    H139817   3.259   4.128   6.528  0.4128 -0.9021  0.6905
 6086TIP3    H239818   3.200   4.110   6.666 -0.5727  1.5104  0.6308
 6087TIP3   OH239819   0.166   2.651   0.634 -0.0691  0.0054  0.0933
 6087TIP3    H139820   0.155   2.561   0.665 -0.8431  1.1001  3.3275
 6087TIP3    H239821   0.076   2.681   0.619  0.0911  0.6821  0.4732
 6088TIP3   OH239822   1.143   2.705   1.528 -0.4767 -0.1362  0.0280
 6088TIP3    H139823   1.222   2.757   1.542 -0.3080 -0.2634 -0.4260
 6088TIP3    H239824   1.087   2.725   1.602 -0.0830  0.0817  0.2673
 6089TIP3   OH239825   2.089   1.872   2.386 -0.2203  0.3777 -0.2239
 6089TIP3    H139826   2.099   1.787   2.428  0.2728 -0.7050 -2.3923
 6089TIP3    H239827   2.164   1.924   2.416  0.0807 -0.3256  0.2509
 6090TIP3   OH239828   6.611   2.432   2.221  0.0741  0.1967  0.3716
 6090TIP3    H139829   6.613   2.464   2.312 -0.4678 -0.7160  0.7165
 6090TIP3    H239830   6.597   2.511   2.169 -0.0806  0.6771  1.1209
 6091TIP3   OH239831   0.441   4.061   8.361  0.0457  0.5857  0.4814
 6091TIP3    H139832   0.441   4.131   8.426 -0.9259  2.1906 -1.1558
 6091TIP3    H239833   0.446   4.106   8.277  0.3160 -1.3709 -0.6130
 6092TIP3   OH239834   2.651   1.867   2.693  0.1819 -0.0856  0.4729
 6092TIP3    H139835   2.663   1.776   2.722  0.5955  0.8829  3.7608
 6092TIP3    H239836   2.737   1.894   2.661  0.1032 -0.7603 -0.3408
 6093TIP3   OH239837   2.527   3.915   0.081  0.1901  0.3812 -0.3220
 6093TIP3    H139838   2.589   3.980   0.049 -0.1892  0.6614 -0.4916
 6093TIP3    H239839   2.566   3.884   0.163  1.1376 -0.3048 -1.0074
 6094TIP3   OH239840   6.661   2.403   0.690 -0.1054  0.0057 -0.0944
 6094TIP3    H139841   6.680   2.486   0.735 -0.8745 -0.4322  1.0932
 6094TIP3    H239842   6.632   2.344   0.760 -0.2142 -1.0644 -1.0202
 6095TIP3   OH239843   5.022   6.738   0.406 -0.8589  0.1246  0.0744
 6095TIP3    H139844   5.040   6.717   0.314  0.5862  0.2832  0.2867
 6095TIP3    H239845   5.010   6.833   0.407  2.4165  0.6604  0.4351
 6096TIP3   OH239846   5.969   2.855   8.126  0.1855  0.0243  0.2703
 6096TIP3    H139847   6.002   2.915   8.058  0.6420 -1.9135 -1.3188
 6096TIP3    H239848   6.047   2.809   8.157 -0.3690 -0.9839  0.1909
 6097TIP3   OH239849   0.067   5.573   1.118 -0.1894 -0.3962  0.0088
 6097TIP3    H139850   0.104   5.505   1.173  1.7943  1.0996  0.6675
 6097TIP3    H239851   0.128   5.579   1.044 -0.5659  0.3381 -0.2492
 6098TIP3   OH239852   2.842   0.858   2.096 -0.9223 -0.1419  0.1475
 6098TIP3    H139853   2.848   0.859   2.192 -0.6908  2.0837  0.1650
 6098TIP3    H239854   2.933   0.858   2.066 -0.9326  1.4352  0.0065
 6099TIP3   OH239855   3.522   0.047   6.944  0.2029 -0.2888 -0.2705
 6099TIP3    H139856   3.519   0.138   6.971 -1.8958  0.3482 -2.3395
 6099TIP3    H239857   3.606   0.038   6.899  0.7111  0.4318  0.5140
 6100TIP3   OH239858   1.209   3.218   1.407  0.4699  0.2775  0.9323
 6100TIP3    H139859   1.181   3.151   1.470 -0.9036  0.1017  0.1738
 6100TIP3    H239860   1.128   3.249   1.367  1.2796  0.4809 -0.6549
 6101TIP3   OH239861   6.113   3.635   1.245  0.3679 -0.0730 -0.1264
 6101TIP3    H139862   6.186   3.573   1.253 -0.0813 -0.5383  0.4346
 6101TIP3    H239863   6.155   3.720   1.232  0.9995 -0.5533 -1.5087
 6102TIP3   OH239864   6.743   2.880   8.236 -0.8299 -0.1586 -0.0105
 6102TIP3    H139865   6.658   2.923   8.240  0.0544  1.9426 -1.9386
 6102TIP3    H239866   6.805   2.945   8.270 -0.0560 -2.1317  2.6777
 6103TIP3   OH239867   3.175   0.195   1.723 -0.2669  0.2163 -0.3047
 6103TIP3    H139868   3.140   0.271   1.677 -0.5325 -0.0120 -0.4855
 6103TIP3    H239869   3.245   0.162   1.666 -0.5253 -0.0040 -0.4950
 6104TIP3   OH239870   2.410   3.310   8.298 -0.3272 -0.0252 -0.0341
 6104TIP3    H139871   2.429   3.385   8.242 -1.5845 -1.1568 -2.0913
 6104TIP3    H239872   2.317   3.318   8.319  0.0558  0.2279  1.7536
 6105TIP3   OH239873   4.661   0.185   1.691 -0.4436  0.1210 -0.0163
 6105TIP3    H139874   4.586   0.129   1.672  1.1787 -2.0300 -0.4553
 6105TIP3    H239875   4.696   0.208   1.604  0.4093 -0.3660  0.1859
 6106TIP3   OH239876   4.848   6.116   0.227 -0.5178 -0.2020 -0.2619
 6106TIP3    H139877   4.826   6.208   0.216 -2.0548 -0.2575  1.7491
 6106TIP3    H239878   4.848   6.102   0.322  0.8384 -2.0151 -0.4824
 6107TIP3   OH239879   1.371   1.647   8.320 -0.1458  0.4791 -0.2534
 6107TIP3    H139880   1.429   1.642   8.396  1.6235 -0.1091 -1.5764
 6107TIP3    H239881   1.322   1.565   8.321 -0.0709  0.4367  0.1954
 6108TIP3   OH239882   1.172   4.036   7.068 -0.0293 -0.2614  0.0493
 6108TIP3    H139883   1.159   4.027   7.162  0.8347  0.5497  0.2608
 6108TIP3    H239884   1.207   4.124   7.056  0.3420 -0.5253 -0.9729
 6109TIP3   OH239885   5.217   2.222   7.484  0.1354 -0.3255 -0.1412
 6109TIP3    H139886   5.164   2.144   7.498 -0.9119  0.1373 -1.3300
 6109TIP3    H239887   5.308   2.191   7.485 -0.2663 -1.5507 -0.6074
 6110TIP3   OH239888   0.655   1.659   0.894  0.3176  0.4021  0.4994
 6110TIP3    H139889   0.563   1.678   0.910  0.5989  1.7281  0.6382
 6110TIP3    H239890   0.700   1.689   0.973  1.1741  2.5065 -0.7099
 6111TIP3   OH239891   4.415   5.031   8.271 -0.3370 -0.3466 -0.0648
 6111TIP3    H139892   4.435   5.123   8.252 -1.2103 -0.2619 -0.6897
 6111TIP3    H239893   4.319   5.029   8.274 -0.3967 -1.4933 -1.5199
 6112TIP3   OH239894   1.224   6.020   0.155 -0.2363 -0.4691 -0.2277
 6112TIP3    H139895   1.208   5.975   0.238 -0.2897 -0.7773 -0.4031
 6112TIP3    H239896   1.317   6.043   0.158 -0.3422 -0.0821  0.1104
 6113TIP3   OH239897   4.650   2.788   8.111 -0.0322  0.1604 -0.3170
 6113TIP3    H139898   4.669   2.727   8.183  0.8402 -0.6234 -1.1956
 6113TIP3    H239899   4.626   2.870   8.155 -1.2754 -0.8027  0.8946
 6114TIP3   OH239900   1.072   3.258   0.213  0.3449 -0.3251  0.4516
 6114TIP3    H139901   0.978   3.259   0.195  0.3178  2.7840  0.3069
 6114TIP3    H239902   1.091   3.166   0.233 -2.5495 -1.1857 -0.2282
 6115TIP3   OH239903   6.139   2.403   7.094 -0.2130  0.3285  0.0265
 6115TIP3    H139904   6.143   2.310   7.069 -1.9243  0.3238 -0.3362
 6115TIP3    H239905   6.046   2.424   7.095 -0.0654  1.3503  2.7528
 6116TIP3   OH239906   1.007   3.738   8.188  0.0945  0.2816 -0.1334
 6116TIP3    H139907   0.965   3.705   8.109  0.0056 -0.4001  0.1899
 6116TIP3    H239908   0.971   3.826   8.199  1.2680  0.9981 -1.6958
 6117TIP3   OH239909   1.694   6.732   8.087  0.0087  0.4942 -0.3585
 6117TIP3    H139910   1.662   6.772   8.168 -0.0347 -0.1482 -0.0591
 6117TIP3    H239911   1.772   6.683   8.113 -1.2264 -1.5345 -0.2740
 6118TIP3   OH239912   3.515   3.763   0.993  0.0668 -0.2307 -0.1033
 6118TIP3    H139913   3.590   3.716   1.029  1.5400  2.9110  1.3282
 6118TIP3    H239914   3.553   3.832   0.939 -1.6109  2.3896  1.8141
 6119TIP3   OH239915   2.441   2.010   8.629 -0.3407 -0.1685 -0.0341
 6119TIP3    H139916   2.488   1.932   8.601  2.3425  1.4808 -0.3782
 6119TIP3    H239917   2.353   1.978   8.649  0.0216 -2.8895 -2.1727
 6120TIP3   OH239918   3.645   6.085   7.310  0.0201 -0.2617  0.4346
 6120TIP3    H139919   3.565   6.034   7.297  1.3005 -2.1333 -0.6296
 6120TIP3    H239920   3.700   6.029   7.366  0.7584  0.7949  0.7974
 6121TIP3   OH239921   1.352   6.220   6.468 -0.2866  0.8879  0.4804
 6121TIP3    H139922   1.379   6.128   6.476 -2.6580  0.2553  2.9293
 6121TIP3    H239923   1.260   6.219   6.492 -0.2521  3.9999  1.0831
 6122TIP3   OH239924   3.842   6.373   1.577 -0.0253 -0.2511 -0.6257
 6122TIP3    H139925   3.902   6.302   1.600  0.7205  0.8179  0.8804
 6122TIP3    H239926   3.756   6.331   1.571  0.6318 -1.5542 -1.4234
 6123TIP3   OH239927   2.011   3.975   8.007 -0.0073 -0.3730 -0.0216
 6123TIP3    H139928   2.004   3.880   8.007 -1.1498 -0.3067 -0.5797
 6123TIP3    H239929   1.979   4.001   8.093 -2.1950 -0.3781 -0.7716
 6124TIP3   OH239930   4.227   4.801   1.660  0.1291 -0.1276  0.6389
 6124TIP3    H139931   4.211   4.872   1.723  0.6369 -0.6431  1.3708
 6124TIP3    H239932   4.320   4.809   1.640  0.1280 -0.4233  0.5223
 6125TIP3   OH239933   1.473   1.479   0.033  0.2137 -0.9551  0.1078
 6125TIP3    H139934   1.405   1.417   0.008 -0.2195 -0.3959 -0.1250
 6125TIP3    H239935   1.547   1.457  -0.023 -1.0588  0.9109 -2.5112
 6126TIP3   OH239936   0.657   5.095   1.869  0.4075 -0.3743 -0.4183
 6126TIP3    H139937   0.733   5.085   1.926  0.5571 -1.6563 -0.8139
 6126TIP3    H239938   0.680   5.166   1.810  0.3363  0.8314  0.9635
 6127TIP3   OH239939   3.443   0.014   7.278  0.0863 -0.2106  0.2023
 6127TIP3    H139940   3.440   0.102   7.241  1.6703  0.4130  1.4707
 6127TIP3    H239941   3.355   0.001   7.314 -0.2981  0.6570 -0.3753
 6128TIP3   OH239942   4.074   5.832   8.259 -0.1323 -0.5486  0.2349
 6128TIP3    H139943   4.168   5.820   8.253 -0.2151 -0.7888 -3.9521
 6128TIP3    H239944   4.039   5.743   8.266 -0.0607 -0.7221 -1.3170
 6129TIP3   OH239945   3.246   0.843   0.431 -0.0263 -0.6563  0.0789
 6129TIP3    H139946   3.272   0.830   0.340 -0.1979 -3.1517  0.3199
 6129TIP3    H239947   3.319   0.890   0.471  0.2698  0.0198 -1.2200
 6130TIP3   OH239948   6.674   3.217   1.845 -0.1742  0.2438 -0.1367
 6130TIP3    H139949   6.726   3.142   1.873  1.1179  1.5056  0.9364
 6130TIP3    H239950   6.695   3.287   1.907  1.0447  2.4743 -2.8444
 6131TIP3   OH239951   1.081   4.494   0.599 -0.1319 -0.2643  0.4751
 6131TIP3    H139952   1.166   4.536   0.587  0.3178 -1.0837  0.6640
 6131TIP3    H239953   1.017   4.559   0.571  0.4612  0.9460  1.7837
 6132TIP3   OH239954   2.050   0.080   8.239 -0.0645 -0.4501  0.2103
 6132TIP3    H139955   2.005   0.005   8.200  0.5147 -1.5264  1.4955
 6132TIP3    H239956   2.130   0.042   8.277  0.2212  0.8165  0.9296
 6133TIP3   OH239957   6.277   2.719   8.481  0.5620  0.2960 -0.0570
 6133TIP3    H139958   6.182   2.732   8.481  0.3798 -0.9053 -0.8194
 6133TIP3    H239959   6.312   2.800   8.517 -0.8133  0.3088  1.3451
 6134TIP3   OH239960   3.548   0.928   7.709  0.2560  0.5990 -0.1523
 6134TIP3    H139961   3.597   0.889   7.781  0.3094 -0.3695 -0.6863
 6134TIP3    H239962   3.461   0.887   7.716  0.4495  0.0205 -0.9933
 6135TIP3   OH239963   6.077   3.496   7.993  0.0358 -0.0863 -0.2146
 6135TIP3    H139964   6.015   3.430   8.023 -0.2383  0.0065 -0.5803
 6135TIP3    H239965   6.130   3.516   8.071  0.9215 -1.6105 -0.3848
 6136TIP3   OH239966   6.256   3.492   0.145  0.1899 -0.3933 -0.3503
 6136TIP3    H139967   6.243   3.507   0.239  2.3199 -2.3774  0.3711
 6136TIP3    H239968   6.197   3.419   0.124  0.0906 -0.2935 -0.4156
 6137TIP3   OH239969   2.050   3.444   1.424  0.1340  0.0859 -0.4115
 6137TIP3    H139970   1.986   3.377   1.403  1.1789 -1.0174 -0.1681
 6137TIP3    H239971   2.029   3.516   1.364 -1.2984 -0.2483 -0.3456
 6138TIP3   OH239972   1.893   3.128   8.243  0.1822 -0.3996  0.3853
 6138TIP3    H139973   1.870   3.099   8.332  0.6071 -0.2174  0.5542
 6138TIP3    H239974   1.970   3.077   8.220  3.1309  2.8952  2.0188
 6139TIP3   OH239975   1.163   4.869   2.343 -0.5478  0.6359 -0.3181
 6139TIP3    H139976   1.185   4.938   2.280  1.6510 -0.2006 -0.5409
 6139TIP3    H239977   1.228   4.879   2.413  0.2503 -1.5658 -0.6753
 6140TIP3   OH239978   2.533   5.872   6.619 -0.7913  0.1125 -0.1795
 6140TIP3    H139979   2.587   5.865   6.540 -1.4117  2.1665 -0.8506
 6140TIP3    H239980   2.497   5.784   6.631  0.1082 -0.4905 -1.5828
 6141TIP3   OH239981   0.760   0.686   8.303 -0.0961  0.2245 -0.2913
 6141TIP3    H139982   0.849   0.696   8.337 -0.2114  0.5933 -0.0911
 6141TIP3    H239983   0.704   0.703   8.378 -0.3347 -0.3737 -0.3292
 6142TIP3   OH239984   0.064   6.466   8.135 -0.1662 -0.1850  0.2060
 6142TIP3    H139985   0.010   6.387   8.131 -0.9781  0.3892 -1.3313
 6142TIP3    H239986   0.143   6.440   8.181 -0.3525 -1.9231 -0.4160
 6143TIP3   OH239987   4.838   0.060   1.079 -0.1827  0.4712 -0.1982
 6143TIP3    H139988   4.819   0.125   1.011 -0.2933  3.6382  2.5685
 6143TIP3    H239989   4.768   0.072   1.143  1.6676  0.0517  2.0154
 6144TIP3   OH239990   3.858   5.934   8.468  0.3526  0.4078 -0.2108
 6144TIP3    H139991   3.874   6.004   8.532 -0.8629  0.1331  0.4233
 6144TIP3    H239992   3.945   5.899   8.450  0.7098  0.0747  1.8162
 6145TIP3   OH239993   4.474   2.043   8.123  0.0052 -0.0757  0.6536
 6145TIP3    H139994   4.433   2.004   8.046 -0.6795 -0.1538  1.0487
 6145TIP3    H239995   4.549   1.986   8.142 -0.6103 -0.8475  0.8445
 6146TIP3   OH239996   3.119   3.176   1.103 -0.8468  0.4317 -0.8049
 6146TIP3    H139997   3.033   3.181   1.145 -2.3127  1.7026 -3.6836
 6146TIP3    H239998   3.113   3.100   1.045  0.7316 -0.6129  0.2965
 6147TIP3   OH239999   6.557   3.762   1.161  0.6863 -0.1627  0.1678
 6147TIP3    H140000   6.603   3.680   1.177 -0.1849 -0.2819  2.5254
 6147TIP3    H240001   6.529   3.757   1.070  0.2612 -2.7188  0.3633
 6148TIP3   OH240002   5.051   3.063   7.280 -0.5473 -0.6663  0.4008
 6148TIP3    H140003   5.136   3.041   7.241  0.3928  1.0069  1.3894
 6148TIP3    H240004   5.072   3.126   7.349 -2.7137  0.6844 -0.0793
 6149TIP3   OH240005   4.577   6.591   6.627 -0.0285 -0.4986  0.2153
 6149TIP3    H140006   4.668   6.570   6.607  0.0455 -0.1021  0.1324
 6149TIP3    H240007   4.557   6.538   6.704 -0.1070 -1.5172 -0.4953
 6150TIP3   OH240008   6.037   5.747   6.687  0.0208  0.6444 -0.2648
 6150TIP3    H140009   5.993   5.725   6.604  0.8420  0.7698 -0.7475
 6150TIP3    H240010   6.011   5.678   6.747 -1.3408  1.0447 -0.3408
 6151TIP3   OH240011   0.713   4.558   1.694 -0.1112 -0.0531  0.2290
 6151TIP3    H140012   0.681   4.648   1.704  1.2938  0.4488  0.4821
 6151TIP3    H240013   0.707   4.521   1.782 -0.5373 -0.1487  0.1587
 6152TIP3   OH240014   1.352   0.508   1.213  0.0206  0.3969 -0.4011
 6152TIP3    H140015   1.327   0.421   1.244 -0.1314  0.1130 -1.2931
 6152TIP3    H240016   1.418   0.491   1.145 -0.3885  0.9455 -0.9431
 6153TIP3   OH240017   2.707   2.093   6.833  0.5011  0.0665  0.1555
 6153TIP3    H140018   2.626   2.053   6.801  0.5479 -0.1937  0.3638
 6153TIP3    H240019   2.680   2.147   6.907  0.4062  0.5960 -0.2605
 6154TIP3   OH240020   2.839   4.199   7.394  0.3545 -0.6643  0.1703
 6154TIP3    H140021   2.770   4.251   7.353  0.9820  0.3439  0.3508
 6154TIP3    H240022   2.918   4.221   7.344  0.8281 -0.6265  0.9262
 6155TIP3   OH240023   2.576   5.150   1.508  0.1481 -0.5484  0.5157
 6155TIP3    H140024   2.644   5.151   1.440 -1.6647 -1.3078 -1.3989
 6155TIP3    H240025   2.494   5.159   1.460 -1.1981 -0.7800  2.6620
 6156TIP3   OH240026   2.385   2.260   1.429 -0.1878 -0.0647  0.1314
 6156TIP3    H140027   2.380   2.327   1.361  3.2691 -0.0700 -0.3241
 6156TIP3    H240028   2.381   2.177   1.382  1.4317 -0.0704 -0.0561
 6157TIP3   OH240029   0.807   6.533   1.202 -0.1355  0.1284 -0.5467
 6157TIP3    H140030   0.891   6.566   1.168 -0.6939  0.9732 -1.1485
 6157TIP3    H240031   0.823   6.519   1.295 -0.2498  3.5577  0.1166
 6158TIP3   OH240032   4.929   4.894   1.273  0.2993  0.4847 -0.1750
 6158TIP3    H140033   5.020   4.875   1.297  0.8608  1.4838 -1.3578
 6158TIP3    H240034   4.919   4.988   1.291 -1.2364 -0.0511  2.0850
 6159TIP3   OH240035   3.490   5.484   1.488 -0.5377 -0.1016  0.3084
 6159TIP3    H140036   3.458   5.572   1.505  0.0244  0.2867 -0.6037
 6159TIP3    H240037   3.569   5.496   1.435 -0.1981 -1.1323  0.5464
 6160TIP3   OH240038   5.165   4.611   7.962  0.2661 -0.5980  0.0677
 6160TIP3    H140039   5.179   4.516   7.968 -3.1949 -1.3040 -0.7857
 6160TIP3    H240040   5.162   4.629   7.869 -2.8703 -0.4508  0.1078
 6161TIP3   OH240041   4.697   4.665   0.835  1.1112  0.0663 -0.3613
 6161TIP3    H140042   4.763   4.724   0.870  0.5592  1.7136 -1.9157
 6161TIP3    H240043   4.670   4.706   0.752 -1.3251 -0.8925 -0.1288
 6162TIP3   OH240044   0.153   3.368   7.917 -0.1852 -0.4150 -0.8586
 6162TIP3    H140045   0.173   3.461   7.921  0.5250 -0.4518 -2.5694
 6162TIP3    H240046   0.099   3.358   7.838 -0.8859 -1.3526 -0.2838
 6163TIP3   OH240047   4.265   6.418   7.624 -0.4725  0.0071  0.0035
 6163TIP3    H140048   4.196   6.451   7.683 -0.6569  0.0203 -0.2195
 6163TIP3    H240049   4.229   6.337   7.588 -0.0649 -0.3907  0.4648
 6164TIP3   OH240050   5.446   0.254   2.170  0.1961 -0.4730 -0.5788
 6164TIP3    H140051   5.533   0.221   2.144  1.0540  0.7470  0.6066
 6164TIP3    H240052   5.456   0.349   2.173 -1.2490 -0.3005 -0.5752
 6165TIP3   OH240053   5.277   3.545   0.632 -0.3201  0.6196  0.1230
 6165TIP3    H140054   5.369   3.565   0.649 -0.7872  1.6883  1.5814
 6165TIP3    H240055   5.271   3.540   0.536  1.2916  0.2444  0.0182
 6166TIP3   OH240056   6.460   0.131   6.662  0.1022 -0.0851 -0.1394
 6166TIP3    H140057   6.412   0.135   6.579 -1.9590 -2.1001  0.8292
 6166TIP3    H240058   6.489   0.221   6.677  0.0302  0.4592 -2.7120
 6167TIP3   OH240059   6.416   2.265   1.803 -0.3362  0.1186  0.2785
 6167TIP3    H140060   6.510   2.257   1.786 -0.0722  0.8360  1.3441
 6167TIP3    H240061   6.405   2.353   1.839 -1.1544 -0.5733  1.8121
 6168TIP3   OH240062   4.329   4.243   1.594 -0.2682  0.8209 -0.1486
 6168TIP3    H140063   4.353   4.296   1.671  0.1659  1.6709 -0.8458
 6168TIP3    H240064   4.399   4.260   1.531  1.8461 -3.3058  0.7736
 6169TIP3   OH240065   2.705   0.654   1.310  0.9090 -0.3239 -0.2635
 6169TIP3    H140066   2.625   0.706   1.316  1.4577  0.4804  0.4004
 6169TIP3    H240067   2.677   0.564   1.327  0.1736 -0.0285  0.1216
 6170TIP3   OH240068   2.242   5.860   8.183 -0.4324 -0.6483 -0.3081
 6170TIP3    H140069   2.217   5.829   8.269  0.1057  1.0030  0.4881
 6170TIP3    H240070   2.316   5.918   8.199 -1.2227  0.8320 -1.6936
 6171TIP3   OH240071   0.624   1.816   0.157  0.5041  0.6635 -0.7621
 6171TIP3    H140072   0.625   1.880   0.228  1.0376 -0.1987  0.0156
 6171TIP3    H240073   0.585   1.737   0.196  0.3353  0.3380 -1.5671
 6172TIP3   OH240074   4.524   3.040   7.516 -0.1947  0.1883  0.3215
 6172TIP3    H140075   4.503   3.004   7.430 -0.2772 -0.4399  0.6008
 6172TIP3    H240076   4.578   3.116   7.497 -2.0122  1.3620 -0.3804
 6173TIP3   OH240077   5.886   2.853   7.275  0.7167  0.1637  0.2581
 6173TIP3    H140078   5.969   2.834   7.320  0.2623 -1.4170  0.4733
 6173TIP3    H240079   5.890   2.802   7.194 -0.3109 -0.4555  0.5779
 6174TIP3   OH240080   5.859   2.408   7.950  0.0343  0.4939  0.1239
 6174TIP3    H140081   5.790   2.474   7.961 -0.4952 -0.0054 -0.1772
 6174TIP3    H240082   5.934   2.444   7.998 -1.0443  0.1155  2.1721
 6175TIP3   OH240083   2.756   6.324   1.796 -0.1715  0.2006  0.5403
 6175TIP3    H140084   2.781   6.384   1.726 -0.4342  1.5240  1.5364
 6175TIP3    H240085   2.695   6.375   1.850 -0.3283 -0.9353  1.4657
 6176TIP3   OH240086   2.251   0.109   7.719 -0.0928  0.2404 -0.3753
 6176TIP3    H140087   2.233   0.048   7.648  0.0965  0.0049 -0.2219
 6176TIP3    H240088   2.297   0.182   7.677  0.4969 -0.1445 -0.4039
 6177TIP3   OH240089   3.490   5.310   8.428  0.5596  0.1535 -0.6989
 6177TIP3    H140090   3.409   5.259   8.428  0.5277  0.2028 -1.3847
 6177TIP3    H240091   3.536   5.282   8.507 -0.4960  0.7252  0.1459
 6178TIP3   OH240092   4.423   6.655   8.355  0.1191 -1.0032 -0.4805
 6178TIP3    H140093   4.504   6.666   8.304  0.0707 -0.1257 -0.3861
 6178TIP3    H240094   4.401   6.743   8.384  0.0752 -1.4569  0.9677
 6179TIP3   OH240095   0.125   5.425   0.058 -0.0306  0.3389  0.4449
 6179TIP3    H140096   0.109   5.514   0.026  0.5043  0.2469 -0.0923
 6179TIP3    H240097   0.039   5.394   0.086 -0.3785  0.6936 -0.2110
 6180TIP3   OH240098   5.186   5.657   0.434  0.1042  0.4406 -0.2802
 6180TIP3    H140099   5.257   5.708   0.473 -1.8704  0.9790  2.9860
 6180TIP3    H240100   5.107   5.710   0.448 -1.5289 -1.8701 -0.1012
 6181TIP3   OH240101   4.207   4.118   1.947  0.0082 -0.5874  0.6289
 6181TIP3    H140102   4.231   4.028   1.928 -0.2707 -0.9205  1.7609
 6181TIP3    H240103   4.212   4.124   2.043  0.5275  0.7355  0.5375
 6182TIP3   OH240104   5.571   6.572   0.209  0.6941  0.4446  0.0188
 6182TIP3    H140105   5.611   6.490   0.239 -0.6817  0.0128  0.7983
 6182TIP3    H240106   5.627   6.602   0.138  1.1021 -1.3037 -0.4396
 6183TIP3   OH240107   3.637   4.481   6.965 -0.8119  0.2859  0.2808
 6183TIP3    H140108   3.658   4.499   6.873 -1.9783 -2.0227 -0.5186
 6183TIP3    H240109   3.594   4.562   6.996 -1.1231  0.8196 -1.4422
 6184TIP3   OH240110   2.548   5.565   1.167 -0.3071  0.0998 -0.2634
 6184TIP3    H140111   2.494   5.550   1.244  0.6251  2.7002  0.9941
 6184TIP3    H240112   2.632   5.525   1.188 -1.0809 -2.3775 -1.5009
 6185TIP3   OH240113   6.350   2.039   8.750  0.6100  0.5004 -1.0887
 6185TIP3    H140114   6.347   1.947   8.724 -1.1211  0.3377 -0.4599
 6185TIP3    H240115   6.383   2.085   8.673  1.5492 -0.6519 -1.3882
 6186TIP3   OH240116   0.929   4.021   2.037  0.0739  0.6051  0.7304
 6186TIP3    H140117   0.911   4.115   2.037  1.2611  0.8717 -0.4388
 6186TIP3    H240118   1.025   4.015   2.040  0.1278 -0.4653 -1.3166
 6187TIP3   OH240119   4.104   3.049   0.156  0.0110 -0.5732  0.5008
 6187TIP3    H140120   4.140   3.134   0.133  0.7546 -1.2941 -1.2007
 6187TIP3    H240121   4.057   3.064   0.238 -0.2340  1.5328  0.0253
 6188TIP3   OH240122   0.175   4.236   8.736  0.4354  0.0570 -0.0327
 6188TIP3    H140123   0.191   4.142   8.728 -0.0980  0.0015 -0.4969
 6188TIP3    H240124   0.260   4.273   8.760  0.3550 -0.7022  1.5480
 6189TIP3   OH240125   0.702   0.415   2.809  0.0757 -0.5384  0.8150
 6189TIP3    H140126   0.734   0.431   2.720 -1.1808  1.7468  0.6883
 6189TIP3    H240127   0.761   0.348   2.845  0.4901 -1.6818 -1.7737
 6190TIP3   OH240128   4.283   4.402   1.063 -0.1905 -0.0339  0.3503
 6190TIP3    H140129   4.201   4.363   1.094 -0.9382 -0.7580 -2.3060
 6190TIP3    H240130   4.255   4.470   1.002  1.1378 -1.1738 -1.6322
 6191TIP3   OH240131   3.966   5.354   0.428  0.1886  0.4291  0.2825
 6191TIP3    H140132   3.903   5.365   0.356  0.4920 -0.2777 -0.1023
 6191TIP3    H240133   4.030   5.291   0.394 -1.2171 -2.2036  2.1711
 6192TIP3   OH240134   6.742   3.348   2.507 -0.7681 -0.2727  0.2296
 6192TIP3    H140135   6.725   3.435   2.543 -0.1862 -0.9102  2.1471
 6192TIP3    H240136   6.660   3.324   2.464 -1.0833  1.0128  0.0537
 6193TIP3   OH240137   6.325   2.533   1.922 -0.0527  0.4189  0.3182
 6193TIP3    H140138   6.245   2.581   1.901  0.8111  1.8245  0.1226
 6193TIP3    H240139   6.395   2.583   1.879  1.2848  0.9783  2.9150
 6194TIP3   OH240140   5.799   6.374   7.277  0.3145  0.4079  0.6858
 6194TIP3    H140141   5.736   6.354   7.207  1.5019  0.2048 -0.3471
 6194TIP3    H240142   5.816   6.289   7.319 -1.8414  0.7750  2.5629
 6195TIP3   OH240143   4.614   4.077   0.440  0.5565  1.1015 -0.2528
 6195TIP3    H140144   4.664   4.127   0.376  1.4649 -0.3809 -0.7427
 6195TIP3    H240145   4.646   4.108   0.525  2.2610  0.2953 -0.5499
 6196TIP3   OH240146   0.517   2.521   7.378  0.5434 -0.0988  0.1629
 6196TIP3    H140147   0.570   2.459   7.329  2.4148  0.9383  0.7614
 6196TIP3    H240148   0.507   2.482   7.465 -0.9876 -0.9705 -0.3714
 6197TIP3   OH240149   5.136   5.614   7.121 -0.3846 -0.0587 -0.0028
 6197TIP3    H140150   5.118   5.525   7.154 -2.3922 -0.5071 -2.0414
 6197TIP3    H240151   5.222   5.608   7.080 -0.0567 -0.7685  0.7514
 6198TIP3   OH240152   0.079   0.777   7.628 -0.1220 -0.0309  0.2165
 6198TIP3    H140153  -0.005   0.822   7.628  0.7676  1.7633  1.9531
 6198TIP3    H240154   0.062   0.695   7.674 -0.8224  0.5887  1.1085
 6199TIP3   OH240155   2.726   3.858   0.608  0.7379  0.4809 -0.1131
 6199TIP3    H140156   2.672   3.784   0.634  3.2221 -0.5164  2.7628
 6199TIP3    H240157   2.664   3.928   0.590 -1.5849 -1.5137 -0.2431
 6200TIP3   OH240158   2.432   4.089   2.117 -0.2422 -0.1536  0.6800
 6200TIP3    H140159   2.376   4.021   2.155 -2.0183  0.1549 -1.2384
 6200TIP3    H240160   2.438   4.066   2.024  1.1938  0.9637  0.4531
 6201TIP3   OH240161   2.191   0.186   0.631 -0.3051 -0.4096  0.3737
 6201TIP3    H140162   2.155   0.256   0.685 -0.6497  0.2325 -0.6529
 6201TIP3    H240163   2.118   0.157   0.577 -0.0698 -1.3210  0.5170
 6202TIP3   OH240164   0.702   3.533   7.728 -0.8121  0.2604 -0.7290
 6202TIP3    H140165   0.715   3.603   7.664 -0.5623 -0.9905 -2.0969
 6202TIP3    H240166   0.711   3.452   7.677  3.5720 -0.9888  1.5312
 6203TIP3   OH240167   2.475   6.790   0.709  0.5017  0.2046  0.0268
 6203TIP3    H140168   2.473   6.840   0.790  1.6412  0.8456 -0.3265
 6203TIP3    H240169   2.393   6.811   0.665 -0.8624 -1.3246  1.6733
 6204TIP3   OH240170   6.277   3.133   8.015  0.4473 -0.1214 -0.1159
 6204TIP3    H140171   6.251   3.162   8.103 -0.2025  0.9890 -0.6537
 6204TIP3    H240172   6.356   3.081   8.030 -0.6349 -1.4570  1.2974
 6205TIP3   OH240173   0.647   5.881   8.018 -0.0783 -0.5555  0.7683
 6205TIP3    H140174   0.552   5.874   8.016 -0.2313  1.2729 -0.3714
 6205TIP3    H240175   0.665   5.939   8.092  0.2061 -1.3880  1.3617
 6206TIP3   OH240176   6.026   3.094   0.121  0.5021 -0.7824  0.0287
 6206TIP3    H140177   6.018   3.168   0.061  0.3285 -0.3203  0.6145
 6206TIP3    H240178   6.119   3.070   0.118  0.2040 -1.8464 -1.6902
 6207TIP3   OH240179   0.047   4.320   7.859 -0.2398  0.0436 -0.2938
 6207TIP3    H140180  -0.019   4.266   7.815 -0.7048  0.6673 -0.3646
 6207TIP3    H240181   0.013   4.409   7.854 -0.5484  0.0734  1.7670
 6208TIP3   OH240182   4.486   5.494   6.450  0.0633  0.4360  0.1096
 6208TIP3    H140183   4.525   5.517   6.365  0.7427 -0.6732  0.1036
 6208TIP3    H240184   4.418   5.431   6.428  2.2703 -2.2720  0.5853
 6209TIP3   OH240185   1.253   3.916   8.037  0.0234 -0.1507  0.2121
 6209TIP3    H140186   1.281   3.893   8.125  1.1817 -0.2895 -0.1765
 6209TIP3    H240187   1.259   4.011   8.034  0.3101 -0.1697  0.1793
 6210TIP3   OH240188   1.956   3.034   7.439  0.2264  0.8034 -0.0458
 6210TIP3    H140189   1.956   2.982   7.520 -0.1212 -0.5883 -0.9049
 6210TIP3    H240190   1.864   3.038   7.414  0.3898  0.7633 -0.6596
 6211TIP3   OH240191   3.109   0.815   2.005 -0.7579  0.2627  0.1737
 6211TIP3    H140192   3.180   0.761   2.039  0.1642  1.2970 -0.0671
 6211TIP3    H240193   3.133   0.831   1.913 -1.3561  0.5301  0.0602
 6212TIP3   OH240194   4.502   6.608   1.185  0.3966  0.0029 -0.1205
 6212TIP3    H140195   4.501   6.613   1.090 -0.4553 -0.6736 -0.1573
 6212TIP3    H240196   4.417   6.643   1.211  0.7051  0.3741  0.4071
 6213TIP3   OH240197   0.385   4.649   7.868 -0.2383  0.2023  0.0861
 6213TIP3    H140198   0.430   4.694   7.940  0.3934  1.3489 -0.9869
 6213TIP3    H240199   0.368   4.561   7.902  0.8289  0.4409  1.3285
 6214TIP3   OH240200   5.234   0.188   6.208 -0.3859  0.0523  0.2416
 6214TIP3    H140201   5.163   0.252   6.216 -0.7042 -0.3138  0.3360
 6214TIP3    H240202   5.289   0.223   6.137 -0.5160  0.4695  0.3421
 6215TIP3   OH240203   4.434   6.038   8.590  0.4155 -0.2992  0.1489
 6215TIP3    H140204   4.492   6.073   8.657 -1.7180  1.1402  1.3468
 6215TIP3    H240205   4.452   5.943   8.590  0.7697 -0.2863  2.4514
 6216TIP3   OH240206   3.869   2.367   1.545  0.0870  0.0219  0.5320
 6216TIP3    H140207   3.953   2.366   1.591 -0.5003 -0.3774  1.6275
 6216TIP3    H240208   3.806   2.395   1.611 -0.6478  0.3377 -0.2870
 6217TIP3   OH240209   3.862   1.163   8.689  0.1352  0.5898  0.1754
 6217TIP3    H140210   3.798   1.122   8.631  0.1122  1.4832 -0.4389
 6217TIP3    H240211   3.818   1.241   8.721  0.2143  0.2070  1.2669
 6218TIP3   OH240212   3.672   1.954   0.643  0.1104 -0.5502 -0.1342
 6218TIP3    H140213   3.742   1.955   0.577  1.2346 -2.3062  0.9583
 6218TIP3    H240214   3.627   1.871   0.629 -0.2872 -0.4710  0.6547
 6219TIP3   OH240215   2.406   4.361   7.879 -0.2432 -0.7289 -0.5772
 6219TIP3    H140216   2.501   4.351   7.893 -0.3676 -0.9071  0.1326
 6219TIP3    H240217   2.393   4.456   7.875 -0.2434 -0.6556  0.8221
 6220TIP3   OH240218   3.389   6.037   1.774 -0.3745  0.2306 -0.5162
 6220TIP3    H140219   3.339   6.091   1.835 -1.5654  0.0992 -1.3500
 6220TIP3    H240220   3.323   5.987   1.726  0.6455 -1.0557 -0.6237
 6221TIP3   OH240221   0.921   3.231   7.072 -0.6975  0.0523  0.6530
 6221TIP3    H140222   0.916   3.273   6.986  0.5731 -0.5966  0.2362
 6221TIP3    H240223   0.920   3.303   7.135  2.0676  0.8376 -0.0532
 6222TIP3   OH240224   0.464   3.979   6.738  0.3923  0.6630  0.1679
 6222TIP3    H140225   0.555   3.992   6.715 -0.2870  1.0198 -2.6144
 6222TIP3    H240226   0.432   4.065   6.765  0.5077  0.8570 -0.3163
 6223TIP3   OH240227   3.076   3.150   0.515 -0.0241 -0.4611 -0.2613
 6223TIP3    H140228   3.103   3.059   0.513 -0.1523 -0.4994 -0.2778
 6223TIP3    H240229   2.990   3.150   0.473  1.1754  0.0846 -2.9452
 6224TIP3   OH240230   3.782   4.890   8.494  0.3264 -0.5055  0.3466
 6224TIP3    H140231   3.857   4.944   8.520  0.0778  0.8344 -1.5296
 6224TIP3    H240232   3.817   4.802   8.487  1.3418 -0.1720  1.0319
 6225TIP3   OH240233   5.476   5.272   8.099  0.1362 -0.5142  0.1234
 6225TIP3    H140234   5.439   5.276   8.187 -0.1498 -0.3920  0.0003
 6225TIP3    H240235   5.529   5.352   8.092  1.0428 -1.0553  0.5674
 6226TIP3   OH240236   2.544   5.150   0.045 -0.1243 -0.5256 -0.2759
 6226TIP3    H140237   2.453   5.140   0.019 -0.2207  1.3396 -0.7623
 6226TIP3    H240238   2.542   5.217   0.113  0.8614 -0.6269 -0.1363
 6227TIP3   OH240239   5.262   3.175   6.232 -0.2158 -0.1621  0.1560
 6227TIP3    H140240   5.349   3.213   6.238 -0.1189 -0.1248 -1.1706
 6227TIP3    H240241   5.273   3.098   6.177 -1.1982  0.5117 -1.0548
 6228TIP3   OH240242   6.147   5.132   0.315 -0.1433  0.1791 -0.0606
 6228TIP3    H140243   6.214   5.124   0.247  0.4136 -1.5398  0.6507
 6228TIP3    H240244   6.089   5.201   0.283  1.2248  0.8024 -1.3111
 6229TIP3   OH240245   5.662   0.814   8.313  0.2473  0.0941  0.5645
 6229TIP3    H140246   5.665   0.741   8.376  2.4156 -0.3131  0.0676
 6229TIP3    H240247   5.752   0.822   8.282 -0.1502  2.3637 -0.1504
 6230TIP3   OH240248   1.623   4.396   1.492 -0.2264 -0.4657  0.1485
 6230TIP3    H140249   1.704   4.433   1.457  0.8243 -2.1249  0.6727
 6230TIP3    H240250   1.609   4.441   1.575  0.2207 -0.2492  0.1081
 6231TIP3   OH240251   5.484   0.177   7.704  0.5132  0.1561 -0.4993
 6231TIP3    H140252   5.533   0.116   7.649  1.4284  0.6691 -0.2840
 6231TIP3    H240253   5.515   0.158   7.793  0.2418  0.4246 -0.3473
 6232TIP3   OH240254   3.882   5.803   0.430  0.2810 -0.0033  0.1155
 6232TIP3    H140255   3.950   5.815   0.363  0.9180  0.6404  0.8506
 6232TIP3    H240256   3.915   5.732   0.484 -0.8980 -1.4826 -1.0343
 6233TIP3   OH240257   4.941   1.294   0.851  0.1154  0.1881 -0.1418
 6233TIP3    H140258   4.907   1.336   0.772 -4.1603 -1.1454  0.6811
 6233TIP3    H240259   4.964   1.205   0.823 -1.6986 -0.3893  0.0030
 6234TIP3   OH240260   0.688   6.550   0.684  0.7627 -0.1137 -0.3605
 6234TIP3    H140261   0.702   6.455   0.692 -1.4822 -0.3387  1.8101
 6234TIP3    H240262   0.623   6.558   0.614  1.3160 -0.0965 -0.8873
 6235TIP3   OH240263   5.142   3.161   1.444 -0.0554  0.5955 -0.0603
 6235TIP3    H140264   5.084   3.092   1.476 -0.7543  0.3281 -1.7897
 6235TIP3    H240265   5.084   3.222   1.399  0.7085  1.6785  0.4033
 6236TIP3   OH240266   0.537   1.977   0.379  0.1426  0.1778 -0.0871
 6236TIP3    H140267   0.443   1.977   0.362 -0.1629 -1.4986  1.3140
 6236TIP3    H240268   0.565   2.066   0.357 -1.8662  0.8966  0.0216
 6237TIP3   OH240269   0.787   6.485   2.018  0.4296 -0.4576  0.0484
 6237TIP3    H140270   0.777   6.560   1.959  0.9685 -0.7560 -0.4257
 6237TIP3    H240271   0.868   6.502   2.066  0.2757 -0.4824  0.3214
 6238TIP3   OH240272   2.662   0.738   0.129 -0.0578  0.0561  0.1307
 6238TIP3    H140273   2.665   0.653   0.085 -1.2298 -0.1161  0.3519
 6238TIP3    H240274   2.607   0.724   0.206  1.6744  0.4371  1.5059
 6239TIP3   OH240275   1.538   1.568   0.296 -0.2999  0.4540  0.3212
 6239TIP3    H140276   1.499   1.590   0.211 -1.3326  0.9868  0.9185
 6239TIP3    H240277   1.494   1.488   0.323 -0.4575  0.6579  0.6683
 6240TIP3   OH240278   3.190   2.119   7.362  0.0264  0.3854  0.1520
 6240TIP3    H140279   3.185   2.206   7.401  0.4647  1.9486 -2.9498
 6240TIP3    H240280   3.278   2.088   7.383 -0.1319  0.6742  1.2759
 6241TIP3   OH240281   3.268   6.063   6.876 -0.1151  0.0662 -0.3914
 6241TIP3    H140282   3.218   6.139   6.905 -0.5113 -0.5098  0.4743
 6241TIP3    H240283   3.244   6.053   6.784 -1.6893 -0.2513  0.0240
 6242TIP3   OH240284   5.802   0.346   8.242 -0.0290 -0.1309  0.5608
 6242TIP3    H140285   5.795   0.274   8.180 -0.0202  1.2649 -1.1473
 6242TIP3    H240286   5.888   0.334   8.284  0.3373 -0.6533 -0.3122
 6243TIP3   OH240287   6.760   3.008   0.534 -0.2929  0.1152 -0.0795
 6243TIP3    H140288   6.816   3.065   0.482  0.1658 -0.9674 -0.8251
 6243TIP3    H240289   6.697   3.066   0.575  1.7984  1.4877  1.3822
 6244TIP3   OH240290   1.979   5.247   1.066 -0.2658 -0.3429 -0.0683
 6244TIP3    H140291   2.006   5.204   0.985  2.7534 -0.5902  0.9499
 6244TIP3    H240292   1.962   5.175   1.127 -0.4495 -0.1342  0.1295
 6245TIP3   OH240293   2.159   6.197   7.618 -0.8620  0.4969 -0.2828
 6245TIP3    H140294   2.139   6.155   7.534  1.3444 -0.7208 -0.2804
 6245TIP3    H240295   2.255   6.191   7.625 -1.0291 -0.0364  2.6078
 6246TIP3   OH240296   0.834   5.980   1.123 -0.0756  0.3323 -0.0060
 6246TIP3    H140297   0.769   6.016   1.184 -1.8861 -1.1251 -1.0036
 6246TIP3    H240298   0.815   5.887   1.120  0.9177  0.1579 -1.7146
 6247TIP3   OH240299   0.118   3.379   8.466 -0.1357  0.1121 -0.0604
 6247TIP3    H140300   0.102   3.463   8.509  0.3013  0.8360 -1.2860
 6247TIP3    H240301   0.080   3.388   8.379 -0.4588 -1.1188 -0.0722
 6248TIP3   OH240302   3.751   5.243   8.304 -0.0458 -0.1909  0.4588
 6248TIP3    H140303   3.655   5.250   8.302  0.0746  2.2217  0.0135
 6248TIP3    H240304   3.777   5.290   8.383  0.8211  0.9476 -0.4484
 6249TIP3   OH240305   5.157   1.533   0.253 -0.0468  0.4740  0.3462
 6249TIP3    H140306   5.200   1.617   0.236  2.6678 -0.7984  0.4962
 6249TIP3    H240307   5.227   1.475   0.281 -1.9627 -1.6831  0.9726
 6250TIP3   OH240308   3.740   4.074   8.477 -0.5011  0.1415  0.2790
 6250TIP3    H140309   3.652   4.040   8.463 -1.2059  1.2793  1.7245
 6250TIP3    H240310   3.783   4.007   8.531 -0.4584 -0.4344 -0.4633
 6251TIP3   OH240311   5.376   1.171   8.527  0.3437  0.4742  0.4335
 6251TIP3    H140312   5.471   1.172   8.516  0.4711  0.6562  1.4656
 6251TIP3    H240313   5.360   1.221   8.607 -0.5570 -0.1943  0.6936
 6252TIP3   OH240314   0.918   4.720   0.518  0.2123 -0.7902 -0.3906
 6252TIP3    H140315   0.930   4.771   0.598 -0.4926  1.4487 -1.6456
 6252TIP3    H240316   1.000   4.728   0.471  0.7556 -2.4038  0.1893
 6253TIP3   OH240317   3.279   0.358   7.502 -0.5855  0.1308  0.1449
 6253TIP3    H140318   3.298   0.264   7.507  0.3501  0.3830  2.1937
 6253TIP3    H240319   3.209   0.372   7.566 -1.4668  0.6948 -0.9001
 6254TIP3   OH240320   4.894   5.620   8.833  0.0058 -0.1112 -0.1058
 6254TIP3    H140321   4.853   5.548   8.881 -2.2357  1.3671  0.3608
 6254TIP3    H240322   4.926   5.679   8.902  1.1323 -0.2733 -0.4772
 6255TIP3   OH240323   1.562   2.154   1.594  0.0302  0.5263 -0.5281
 6255TIP3    H140324   1.533   2.235   1.637 -0.9126  1.4251 -2.6813
 6255TIP3    H240325   1.556   2.174   1.500  0.7475 -1.7320 -1.1070
 6256TIP3   OH240326   0.296   3.226   6.745 -0.0147  0.0371 -0.3552
 6256TIP3    H140327   0.371   3.223   6.686  0.9482 -1.5316  0.8540
 6256TIP3    H240328   0.235   3.161   6.709  0.4229 -0.6677  0.1349
 6257TIP3   OH240329   5.320   2.875   0.201  0.4517 -0.4968  0.1879
 6257TIP3    H140330   5.361   2.889   0.115 -0.5426  0.6575 -0.1258
 6257TIP3    H240331   5.256   2.945   0.208  1.0659 -0.0816  2.2396
 6258TIP3   OH240332   5.506   5.139   7.373  0.0388  0.2844 -0.0306
 6258TIP3    H140333   5.567   5.169   7.305  1.5938  0.2369  1.2910
 6258TIP3    H240334   5.555   5.074   7.423 -0.8738  0.7101  1.4818
 6259TIP3   OH240335   1.461   3.936   0.886  0.5613  0.3285  0.2317
 6259TIP3    H140336   1.441   3.844   0.868  1.4038  0.3694 -1.0611
 6259TIP3    H240337   1.377   3.981   0.873  0.4426 -0.0829 -0.5187
 6260TIP3   OH240338   4.233   0.289   6.229  0.4039  0.6811  0.3046
 6260TIP3    H140339   4.250   0.198   6.251  1.0624  0.4561 -1.0421
 6260TIP3    H240340   4.279   0.339   6.296  0.2969  0.0385  0.8723
 6261TIP3   OH240341   1.406   3.183   7.446 -0.4090 -0.0055 -0.1928
 6261TIP3    H140342   1.480   3.233   7.413  0.7786 -0.1571  2.0510
 6261TIP3    H240343   1.407   3.197   7.541 -0.9313 -3.0130  0.3783
 6262TIP3   OH240344   5.050   5.354   2.021 -1.1408  0.0670  0.4213
 6262TIP3    H140345   5.100   5.394   2.092  0.3638  0.8026 -0.9966
 6262TIP3    H240346   5.107   5.285   1.987 -0.5267  1.6255 -1.9241
 6263TIP3   OH240347   5.791   4.033   7.976  0.7064 -0.1277 -0.3962
 6263TIP3    H140348   5.860   3.988   8.025  2.3297  1.1725 -1.3743
 6263TIP3    H240349   5.813   4.126   7.982 -1.3225  0.3983 -0.2547
 6264TIP3   OH240350   2.213   6.439   7.759 -0.0678 -0.3537 -0.4544
 6264TIP3    H140351   2.253   6.385   7.690  1.8465 -0.7705  0.8786
 6264TIP3    H240352   2.236   6.529   7.735  2.4246 -0.6070  0.5900
 6265TIP3   OH240353   4.836   3.285   8.865  0.1044  0.1969  0.0057
 6265TIP3    H140354   4.788   3.229   8.805 -1.0590  1.2981 -0.1242
 6265TIP3    H240355   4.917   3.306   8.819  1.1612 -2.3544  0.5637
 6266TIP3   OH240356   4.063   1.665   0.641 -0.3018 -0.1349  0.1441
 6266TIP3    H140357   4.066   1.570   0.650  1.0984 -0.3280 -1.7712
 6266TIP3    H240358   3.972   1.688   0.658 -0.6515 -1.7889  0.7102
 6267TIP3   OH240359   1.177   5.968   7.147  0.1755 -0.6156 -0.3356
 6267TIP3    H140360   1.083   5.951   7.155  0.1773 -0.3302  0.3134
 6267TIP3    H240361   1.216   5.880   7.143  0.1147 -0.8575  2.2782
 6268TIP3   OH240362   3.367   0.070   1.547  0.4958 -0.1679  0.2055
 6268TIP3    H140363   3.366   0.151   1.497 -2.5902  0.1914  0.6199
 6268TIP3    H240364   3.459   0.051   1.562  1.5152  0.7984 -3.7574
 6269TIP3   OH240365   3.308   3.211   7.294  0.3412  0.5036  0.5562
 6269TIP3    H140366   3.296   3.265   7.216  1.7280  1.1574  0.7601
 6269TIP3    H240367   3.234   3.234   7.350  0.0815  1.0566  0.0065
 6270TIP3   OH240368   4.994   6.085   6.794  0.1265  0.3549  0.5602
 6270TIP3    H140369   5.039   6.169   6.780 -1.0217  0.7615 -0.8946
 6270TIP3    H240370   4.912   6.109   6.837 -1.1728  0.2624 -1.7319
 6271TIP3   OH240371   5.930   1.667   0.334  0.4510  0.2528 -0.4303
 6271TIP3    H140372   5.925   1.580   0.295  1.8971  0.1674 -0.4566
 6271TIP3    H240373   5.840   1.685   0.363 -0.1354 -0.7176 -1.5386
 6272TIP3   OH240374   1.068   5.317   0.893  0.7259 -0.2745  0.3089
 6272TIP3    H140375   1.019   5.311   0.975 -1.0548 -0.1807 -0.7172
 6272TIP3    H240376   1.057   5.408   0.865  0.3551 -0.5878 -0.5987
 6273TIP3   OH240377   6.078   1.402   2.189  0.7305  1.0345 -0.2168
 6273TIP3    H140378   6.159   1.428   2.145 -0.0314  1.5378 -1.3720
 6273TIP3    H240379   6.097   1.413   2.282  2.7532 -1.0663 -0.2835
 6274TIP3   OH240380   6.294   1.972   7.301  0.1445  0.6818  0.0210
 6274TIP3    H140381   6.212   1.938   7.267  1.2563 -1.7689 -0.4835
 6274TIP3    H240382   6.269   2.024   7.377 -1.8991  0.6971 -0.6069
 6275TIP3   OH240383   0.672   4.548   1.083 -0.3785 -0.0769 -0.0934
 6275TIP3    H140384   0.597   4.606   1.095  0.5681  0.9939  0.9748
 6275TIP3    H240385   0.642   4.463   1.113 -0.9767  0.4857  0.9636
 6276TIP3   OH240386   2.608   3.188   8.131 -0.3987 -0.1137 -0.4559
 6276TIP3    H140387   2.570   3.241   8.201 -1.0694 -1.4075  0.1913
 6276TIP3    H240388   2.701   3.211   8.131 -0.5740  0.6487  0.1549
 6277TIP3   OH240389   3.556   4.716   1.417 -0.4503 -0.1214 -0.0282
 6277TIP3    H140390   3.647   4.689   1.429 -0.2652  0.5790  0.1883
 6277TIP3    H240391   3.535   4.688   1.328 -0.5060 -1.6193  0.4219
 6278TIP3   OH240392   4.920   2.690   0.798  0.4253 -0.4594 -0.5193
 6278TIP3    H140393   4.875   2.695   0.882  1.3079 -0.3674 -0.0431
 6278TIP3    H240394   4.944   2.781   0.778 -0.1345 -0.4251 -1.0750
 6279TIP3   OH240395   2.752   3.821   6.335 -0.5153  0.3958  0.1063
 6279TIP3    H140396   2.705   3.817   6.418 -3.4036 -0.3264 -1.4095
 6279TIP3    H240397   2.757   3.914   6.314  0.1929  0.5803  1.0234
 6280TIP3   OH240398   1.409   1.390   0.930  0.2888  0.6006 -0.2784
 6280TIP3    H140399   1.446   1.306   0.902 -2.0060 -0.9040  0.9176
 6280TIP3    H240400   1.418   1.389   1.025  1.1118  2.2094 -0.3064
 6281TIP3   OH240401   6.539   3.624   0.658 -0.1948  0.0711 -0.5411
 6281TIP3    H140402   6.478   3.551   0.673 -0.1596  0.2952  0.9095
 6281TIP3    H240403   6.498   3.677   0.590 -2.1342  0.7209  1.0389
 6282TIP3   OH240404   5.891   2.792   2.641  0.2913  0.0444  0.8033
 6282TIP3    H140405   5.878   2.699   2.623  0.7636  0.1460 -0.1213
 6282TIP3    H240406   5.981   2.797   2.674  0.9425  0.3709 -0.8944
 6283TIP3   OH240407   1.305   2.578   7.759  0.5189 -0.0491  0.4286
 6283TIP3    H140408   1.321   2.610   7.848  0.6173  0.0889  0.3619
 6283TIP3    H240409   1.229   2.628   7.729  2.2881  2.1869 -0.6893
 6284TIP3   OH240410   1.974   4.200   1.629  0.2118 -0.5365 -0.1783
 6284TIP3    H140411   1.915   4.141   1.583 -2.4411  2.4470 -0.9234
 6284TIP3    H240412   2.058   4.191   1.583 -1.0247 -1.2551 -2.4456
 6285TIP3   OH240413   3.344   1.253   0.526 -0.1170  0.4712 -0.1600
 6285TIP3    H140414   3.257   1.215   0.535 -0.3401  0.5889 -1.5975
 6285TIP3    H240415   3.402   1.178   0.516  0.1926  0.3124  2.1931
 6286TIP3   OH240416   3.562   0.195   8.095 -0.3089 -0.2517 -0.1061
 6286TIP3    H140417   3.611   0.172   8.174 -1.2117 -1.6010  0.0871
 6286TIP3    H240418   3.471   0.176   8.116 -0.8283  1.2888 -0.8009
 6287TIP3   OH240419   0.886   0.131   0.640  0.4363 -0.4306 -0.1084
 6287TIP3    H140420   0.948   0.095   0.577 -2.0716 -1.6756 -2.0081
 6287TIP3    H240421   0.848   0.207   0.596 -0.6592 -0.7382  0.2971
 6288TIP3   OH240422   6.263   5.654   7.824  0.6179 -0.4269 -0.3745
 6288TIP3    H140423   6.286   5.706   7.747  0.4700  0.8630  0.4206
 6288TIP3    H240424   6.181   5.692   7.855  0.5166 -1.1263  0.2592
 6289TIP3   OH240425   3.609   0.843   1.524 -0.1816  0.0584  0.0103
 6289TIP3    H140426   3.577   0.753   1.530  0.2447 -0.1433 -0.7254
 6289TIP3    H240427   3.541   0.895   1.568 -0.1250 -0.6839  1.0010
 6290TIP3   OH240428   1.584   3.359   7.381  0.3898 -0.0567  0.1515
 6290TIP3    H140429   1.655   3.361   7.316 -0.1323 -2.3184 -0.5899
 6290TIP3    H240430   1.619   3.407   7.456  2.6837 -0.9980 -0.2221
 6291TIP3   OH240431   1.739   3.562   1.480 -0.3019 -0.2123  0.0468
 6291TIP3    H140432   1.654   3.598   1.454  0.4675  1.7907  0.0768
 6291TIP3    H240433   1.750   3.484   1.425 -0.5045  1.6269 -2.8356
 6292TIP3   OH240434   2.287   0.729   1.764 -0.1598  0.1759 -0.0950
 6292TIP3    H140435   2.301   0.823   1.766 -1.2381  0.4426 -2.4061
 6292TIP3    H240436   2.370   0.693   1.731  0.1015  0.3317  0.3767
 6293TIP3   OH240437   2.212   0.400   7.095  0.4027 -0.3533 -0.4338
 6293TIP3    H140438   2.172   0.320   7.131  0.2545  0.9827  2.7012
 6293TIP3    H240439   2.145   0.467   7.107  0.7425  0.4273 -2.4903
 6294TIP3   OH240440   3.595   2.674   1.608  0.3000 -0.4096  0.0009
 6294TIP3    H140441   3.531   2.685   1.678 -0.3296 -0.7877 -0.5074
 6294TIP3    H240442   3.544   2.678   1.527  0.6122 -2.6608 -0.3653
 6295TIP3   OH240443   3.507   2.835   0.688 -0.6130 -0.7479  0.2234
 6295TIP3    H140444   3.560   2.877   0.621  1.2530 -0.5397  1.7299
 6295TIP3    H240445   3.424   2.882   0.687  0.2805  0.8860 -0.2530
 6296TIP3   OH240446   3.561   4.258   1.459  0.5101  0.2762 -0.1420
 6296TIP3    H140447   3.534   4.320   1.527 -0.7269  0.1512 -0.4869
 6296TIP3    H240448   3.541   4.302   1.376  0.9587 -0.0164 -0.4099
 6297TIP3   OH240449   5.958   5.342   2.446 -0.1527 -0.0252  0.0707
 6297TIP3    H140450   5.920   5.299   2.522 -2.2819 -1.5615 -1.7214
 6297TIP3    H240451   6.006   5.273   2.401  2.4669  1.2391  0.7687
 6298TIP3   OH240452   3.263   1.070   0.800  1.1532  0.1001  0.2383
 6298TIP3    H140453   3.210   1.012   0.854 -0.3924  2.1487  1.0047
 6298TIP3    H240454   3.233   1.053   0.711 -0.0726  0.5017  0.5644
 6299TIP3   OH240455   3.257   2.734   7.343  0.2793 -0.3406 -0.6291
 6299TIP3    H140456   3.214   2.700   7.264 -0.0696 -0.7713 -0.2551
 6299TIP3    H240457   3.197   2.715   7.414  1.0514 -0.9029 -0.1023
 6300TIP3   OH240458   0.202   0.881   1.220  0.2683 -0.9346 -0.6144
 6300TIP3    H140459   0.132   0.835   1.173 -0.9811 -1.2057  1.3684
 6300TIP3    H240460   0.233   0.817   1.285 -0.0027  0.2689  0.7591
 6301TIP3   OH240461   3.418   5.586   7.083  0.4091  0.3236 -0.2643
 6301TIP3    H140462   3.377   5.558   7.001 -3.2499  1.4242  0.9436
 6301TIP3    H240463   3.384   5.675   7.096  2.0391  0.7098  1.7420
 6302TIP3   OH240464   4.586   0.700   1.335  0.0741  0.4647 -0.6385
 6302TIP3    H140465   4.545   0.731   1.254  0.3497  0.9303 -0.6043
 6302TIP3    H240466   4.627   0.778   1.373 -2.0990  0.8020  1.2183
 6303TIP3   OH240467   0.455   0.260   6.879  0.3377 -0.4970 -0.4118
 6303TIP3    H140468   0.488   0.170   6.871  2.4403  0.1285  0.4858
 6303TIP3    H240469   0.431   0.285   6.789  1.8734 -1.2108 -1.0641
 6304TIP3   OH240470   3.321   5.890   7.703 -0.2354 -0.0473 -0.4519
 6304TIP3    H140471   3.370   5.833   7.644  1.9597 -0.9870  2.0682
 6304TIP3    H240472   3.238   5.844   7.718  0.9521 -1.9766  0.5023
 6305TIP3   OH240473   3.300   5.794   1.194 -0.1058  0.0546  0.6649
 6305TIP3    H140474   3.323   5.858   1.261  1.7006 -0.1798  0.3320
 6305TIP3    H240475   3.256   5.844   1.126 -0.1922  0.6475  1.1531
 6306TIP3   OH240476   0.529   4.062   0.581  0.0220  0.6099  0.2511
 6306TIP3    H140477   0.514   3.974   0.614  3.2870 -0.4576 -0.6619
 6306TIP3    H240478   0.484   4.120   0.642  0.9990 -1.5289  3.1940
 6307TIP3   OH240479   3.868   1.021   1.449 -0.7059 -0.4392 -0.5063
 6307TIP3    H140480   3.877   0.930   1.421 -0.5965 -0.8595  0.7824
 6307TIP3    H240481   3.785   1.023   1.497 -0.3972 -0.0357  0.0345
 6308TIP3   OH240482   3.363   4.000   7.668 -0.3179 -0.2514 -0.2462
 6308TIP3    H140483   3.321   3.945   7.602 -0.3400 -0.6659  0.1065
 6308TIP3    H240484   3.390   3.939   7.737  0.3122  0.0852 -0.1816
 6309TIP3   OH240485   3.556   1.743   6.645  0.7948  0.1585  0.5082
 6309TIP3    H140486   3.476   1.702   6.679  0.4315  0.5708  0.1659
 6309TIP3    H240487   3.603   1.671   6.602 -0.0659  0.1823 -0.5099
 6310TIP3   OH240488   1.605   6.617   8.643 -0.4660 -0.1135 -0.1221
 6310TIP3    H140489   1.532   6.584   8.696  1.6548 -0.9831  2.4744
 6310TIP3    H240490   1.587   6.710   8.634 -1.1322 -0.0120  1.8182
 6311TIP3   OH240491   0.881   5.926   7.869  0.7029  0.5314 -0.6216
 6311TIP3    H140492   0.908   5.919   7.961  1.0294 -0.2326 -0.7653
 6311TIP3    H240493   0.795   5.883   7.867  1.4781 -1.1048 -0.9846
 6312TIP3   OH240494   2.507   5.382   0.945 -0.2514 -0.7245 -0.4934
 6312TIP3    H140495   2.511   5.459   1.002  1.3275 -0.1677 -1.2984
 6312TIP3    H240496   2.535   5.414   0.859 -1.7247 -1.7354 -1.4016
 6313TIP3   OH240497   2.141   2.041   0.309  0.3712 -0.7693 -1.3127
 6313TIP3    H140498   2.193   2.120   0.295 -0.4162  0.1827  0.7737
 6313TIP3    H240499   2.103   2.052   0.396  1.9128 -4.3673  0.0246
 6314TIP3   OH240500   3.422   1.255   2.567  0.3297  0.1957 -0.4995
 6314TIP3    H140501   3.504   1.304   2.555 -0.3011  1.4943  0.3252
 6314TIP3    H240502   3.361   1.295   2.505 -0.2062  0.5175  0.2189
 6315TIP3   OH240503   2.685   0.944   0.949 -0.0073 -0.1079  0.0487
 6315TIP3    H140504   2.601   0.950   0.994  0.3781  0.9904  0.6619
 6315TIP3    H240505   2.711   0.852   0.959 -1.8233 -0.8733 -1.4876
 6316TIP3   OH240506   6.594   4.732   1.405 -0.2805  0.0218 -0.7967
 6316TIP3    H140507   6.682   4.695   1.390  0.5855  1.1802  1.0617
 6316TIP3    H240508   6.560   4.682   1.479 -1.4765 -0.8083 -1.8693
 6317TIP3   OH240509   4.469   0.778   0.621  0.1554 -0.0358  0.4032
 6317TIP3    H140510   4.564   0.784   0.615  0.1467 -1.0519 -1.2842
 6317TIP3    H240511   4.438   0.808   0.536 -1.0397  0.1451  0.8848
 6318TIP3   OH240512   2.479   4.082   6.273  0.3664  0.6475  0.1246
 6318TIP3    H140513   2.572   4.068   6.257  0.2545  0.3453 -0.2737
 6318TIP3    H240514   2.457   4.018   6.341  0.3809  0.4988 -0.0093
 6319TIP3   OH240515   6.556   6.475   0.080  0.0203 -0.5854  0.1744
 6319TIP3    H140516   6.593   6.515   0.158  0.4129 -0.3308 -0.1400
 6319TIP3    H240517   6.568   6.381   0.093 -0.0844 -0.5561  0.5003
 6320TIP3   OH240518   4.916   4.131   8.804  0.0316 -0.1847  0.9391
 6320TIP3    H140519   4.870   4.063   8.754  2.2084 -0.1155 -1.3481
 6320TIP3    H240520   4.891   4.213   8.761  1.3803 -0.0645  0.3243
 6321TIP3   OH240521   1.683   0.944   2.004  0.4057  0.0805 -0.2355
 6321TIP3    H140522   1.702   1.038   1.996 -0.3774  0.1757 -1.1688
 6321TIP3    H240523   1.734   0.916   2.080  2.9509  0.6381 -1.5917
 6322TIP3   OH240524   6.362   3.377   7.909  0.3794  0.3231  0.8840
 6322TIP3    H140525   6.356   3.282   7.917  1.0078  0.1837 -0.1485
 6322TIP3    H240526   6.273   3.408   7.924 -0.4152 -0.6465 -1.3802
 6323TIP3   OH240527   4.557   6.696   2.389 -0.0320 -1.0681 -0.2892
 6323TIP3    H140528   4.486   6.634   2.376 -0.5870 -0.3663 -0.6711
 6323TIP3    H240529   4.599   6.704   2.303  0.3151 -1.2417 -0.1391
 6324TIP3   OH240530   0.758   0.635   7.440  0.0342  0.2450 -0.2273
 6324TIP3    H140531   0.852   0.649   7.432 -0.0173  0.6335 -0.1330
 6324TIP3    H240532   0.726   0.708   7.492 -0.2464 -0.1468  0.1642
 6325TIP3   OH240533   1.458   5.036   7.817 -0.3953  0.3659 -0.4220
 6325TIP3    H140534   1.498   4.955   7.786 -1.6023 -0.3920 -0.0871
 6325TIP3    H240535   1.409   5.069   7.741 -1.7609 -0.4580  0.0606
 6326TIP3   OH240536   1.631   4.160   7.148  0.2254 -0.4904  0.5322
 6326TIP3    H140537   1.667   4.242   7.181 -0.7229  0.3593 -0.4508
 6326TIP3    H240538   1.560   4.139   7.209 -0.6451  0.3565 -0.1577
 6327TIP3   OH240539   2.956   5.394   7.094  0.1269 -0.0748  0.3905
 6327TIP3    H140540   3.039   5.432   7.064 -0.4020  0.6580 -0.1981
 6327TIP3    H240541   2.934   5.328   7.028 -1.1629  1.7110 -1.0765
 6328TIP3   OH240542   2.525   0.485   7.333  0.7865  0.3062 -0.4334
 6328TIP3    H140543   2.440   0.476   7.375  0.1944  1.9847 -1.1427
 6328TIP3    H240544   2.562   0.397   7.333 -1.0122 -0.4954 -0.2374
 6329TIP3   OH240545   4.065   0.568   6.699  0.4828 -0.1608  0.3472
 6329TIP3    H140546   4.106   0.489   6.663  2.7415  0.2163  1.8866
 6329TIP3    H240547   4.046   0.545   6.790 -0.9126  0.3741  0.2087
 6330TIP3   OH240548   1.648   1.688   0.714 -0.5017 -0.1568  0.1365
 6330TIP3    H140549   1.710   1.746   0.670 -0.5636 -0.0685  0.1637
 6330TIP3    H240550   1.579   1.673   0.649 -0.6106  0.0019  0.2143
 6331TIP3   OH240551   4.500   1.943   6.927  0.4658  0.3520  0.3103
 6331TIP3    H140552   4.484   1.858   6.887 -1.1696  1.7391 -2.2315
 6331TIP3    H240553   4.584   1.971   6.891  2.0961 -0.9546  2.7872
 6332TIP3   OH240554   0.332   5.648   7.683 -0.1938  0.3194 -0.0989
 6332TIP3    H140555   0.326   5.692   7.598 -1.0066 -1.3121 -0.9287
 6332TIP3    H240556   0.415   5.600   7.680  0.1651  0.9005  0.3632
 6333TIP3   OH240557   5.979   2.500   1.960  0.1334 -0.2176 -0.3001
 6333TIP3    H140558   6.012   2.412   1.981  0.0074 -0.5163 -1.3238
 6333TIP3    H240559   5.885   2.495   1.976  0.1849 -0.1412  0.0419
 6334TIP3   OH240560   5.868   0.605   7.181  0.0374 -0.7195  0.0032
 6334TIP3    H140561   5.877   0.574   7.271  0.3475  0.9915  0.6019
 6334TIP3    H240562   5.957   0.600   7.146  0.0691 -0.5871  0.0656
 6335TIP3   OH240563   4.296   6.188   2.617 -0.2065 -0.4470  0.1568
 6335TIP3    H140564   4.256   6.168   2.533  1.1511 -1.6808 -0.2322
 6335TIP3    H240565   4.225   6.178   2.681 -1.2833  0.6463 -0.8289
 6336TIP3   OH240566   3.450   2.107   7.190  0.1513 -0.3351  0.2452
 6336TIP3    H140567   3.455   2.181   7.251  0.0039  0.4917 -0.7221
 6336TIP3    H240568   3.375   2.128   7.134  0.5440 -0.8708 -0.4880
 6337TIP3   OH240569   0.505   6.143   7.909  0.1696 -0.4877  0.3159
 6337TIP3    H140570   0.440   6.074   7.897 -2.3342  1.3944  2.0032
 6337TIP3    H240571   0.526   6.140   8.003  0.2185  0.8149  0.3721
 6338TIP3   OH240572   2.971   0.466   8.683 -0.4787 -0.4861  0.1188
 6338TIP3    H140573   2.903   0.482   8.617 -0.7989  2.6076  1.0225
 6338TIP3    H240574   2.945   0.521   8.757  3.6540  1.9566  0.0344
 6339TIP3   OH240575   1.871   0.389   1.744  0.2946  0.0688 -0.2663
 6339TIP3    H140576   1.966   0.399   1.748  0.3166 -0.2998  0.1306
 6339TIP3    H240577   1.837   0.455   1.805  0.2468  0.8577 -1.1142
 6340TIP3   OH240578   2.030   6.480   7.955 -0.2858 -0.4140 -0.1643
 6340TIP3    H140579   2.086   6.466   7.878 -0.3031 -0.1792 -0.2223
 6340TIP3    H240580   2.036   6.574   7.970  0.6984 -0.6227  0.8658
 6341TIP3   OH240581   2.869   0.479   7.298 -0.2663  0.2891  0.2926
 6341TIP3    H140582   2.852   0.494   7.391  2.4131  2.1615  0.6133
 6341TIP3    H240583   2.857   0.565   7.257  0.8462  0.0345 -0.6477
 6342TIP3   OH240584   0.778   6.416   8.101 -0.0867  0.3009  0.6458
 6342TIP3    H140585   0.713   6.483   8.121 -0.4738 -0.1701  0.9718
 6342TIP3    H240586   0.808   6.385   8.186 -1.3525 -1.3411  0.5364
 6343TIP3   OH240587   0.770   0.498   1.728  0.2557 -0.2689 -0.1529
 6343TIP3    H140588   0.750   0.522   1.818 -0.0961 -0.7763 -0.0911
 6343TIP3    H240589   0.790   0.581   1.685 -0.0432  0.0295  0.2764
 6344TIP3   OH240590   1.396   2.371   0.934 -0.0189  0.1810 -0.3216
 6344TIP3    H140591   1.322   2.375   0.874 -1.1421  1.3154  1.0924
 6344TIP3    H240592   1.468   2.337   0.880 -1.4001 -0.4596 -1.8539
 6345TIP3   OH240593   1.235   0.259   1.267  0.4021 -0.7847 -0.4079
 6345TIP3    H140594   1.289   0.198   1.318  0.4965  1.4830  2.4194
 6345TIP3    H240595   1.152   0.262   1.314 -0.9553 -1.4293 -2.6261
 6346TIP3   OH240596   4.199   1.052   0.252 -0.4761 -0.7030 -0.2816
 6346TIP3    H140597   4.175   1.133   0.207 -0.7401  0.0466  1.1421
 6346TIP3    H240598   4.219   0.990   0.181 -1.3212  0.2707 -1.4257
 6347TIP3   OH240599   3.916   3.947   1.480  0.0147 -0.0215  0.3697
 6347TIP3    H140600   3.925   3.853   1.470 -0.7537  0.0183 -0.9396
 6347TIP3    H240601   3.998   3.975   1.521  0.1518 -1.2686  0.9957
 6348TIP3   OH240602   2.572   0.220   7.283 -0.2406 -0.4185 -0.5371
 6348TIP3    H140603   2.497   0.166   7.258 -0.2344  0.0296 -1.5587
 6348TIP3    H240604   2.625   0.226   7.204  2.0399 -2.5322  0.7089
 6349TIP3   OH240605   6.241   5.328   1.057 -0.4236 -0.3656 -0.2634
 6349TIP3    H140606   6.227   5.263   0.988 -1.9566 -0.7723  0.3917
 6349TIP3    H240607   6.186   5.299   1.129 -1.1690  1.6661  0.0499
 6350TIP3   OH240608   2.068   0.087   1.552 -0.2458 -0.6651  0.7817
 6350TIP3    H140609   2.159   0.117   1.546 -0.4131  0.8415  3.9363
 6350TIP3    H240610   2.063   0.041   1.635 -2.0515 -2.1724 -0.0796
 6351TIP3   OH240611   3.668   5.762   8.701 -0.1764  0.0370  0.1515
 6351TIP3    H140612   3.636   5.739   8.614 -0.1634 -0.9108  0.3918
 6351TIP3    H240613   3.688   5.856   8.695  2.3419 -0.5343 -1.6435
 6352TIP3   OH240614   4.125   2.561   7.379 -0.1447 -0.0146  0.3109
 6352TIP3    H140615   4.201   2.563   7.321  0.3872 -0.4231  0.9931
 6352TIP3    H240616   4.063   2.622   7.338  0.8079  0.8440  0.1059
 6353TIP3   OH240617   2.834   2.285   0.584 -0.3658 -0.6327  0.6111
 6353TIP3    H140618   2.815   2.262   0.675 -0.9671 -1.4766  0.2879
 6353TIP3    H240619   2.749   2.280   0.540 -0.0875 -0.1984  0.0158
 6354TIP3   OH240620   2.207   2.878   7.469 -0.3496 -0.3497  0.1296
 6354TIP3    H140621   2.148   2.952   7.459 -0.1607 -0.4347 -2.4322
 6354TIP3    H240622   2.197   2.828   7.388  0.5996 -2.3519  1.1566
 6355TIP3   OH240623   4.507   2.028   1.013  0.5552  0.2799  0.1391
 6355TIP3    H140624   4.493   2.118   0.986  0.5422  0.8486  1.9277
 6355TIP3    H240625   4.504   2.030   1.108 -1.4360 -1.9231  0.2294
 6356TIP3   OH240626   3.823   2.919   8.126 -0.2968 -0.2849  0.0535
 6356TIP3    H140627   3.898   2.958   8.172 -0.2390  0.7142 -0.8315
 6356TIP3    H240628   3.847   2.827   8.114 -0.1623 -0.4889  1.6606
 6357TIP3   OH240629   6.489   4.338   8.567  0.1597  0.0835  0.2472
 6357TIP3    H140630   6.513   4.388   8.645 -0.9201  0.3192  0.4354
 6357TIP3    H240631   6.425   4.392   8.522  1.1739  0.2072 -1.1164
 6358TIP3   OH240632   0.034   0.128   7.014  0.0531  0.1873  0.6464
 6358TIP3    H140633   0.063   0.147   7.104 -0.3905  0.3873  0.7487
 6358TIP3    H240634  -0.030   0.196   6.995  0.1199  0.1200  0.1890
 6359TIP3   OH240635   1.929   1.285   1.480  0.0136  0.7002 -0.8515
 6359TIP3    H140636   1.970   1.248   1.402  0.8435  2.1434 -1.1299
 6359TIP3    H240637   1.850   1.328   1.447 -0.7940 -0.5048 -0.5676
 6360TIP3   OH240638   4.882   3.117   1.101 -0.4723 -0.1309 -0.3742
 6360TIP3    H140639   4.954   3.179   1.105 -0.3760 -0.2805  0.2865
 6360TIP3    H240640   4.832   3.143   1.024 -0.3376  0.6562 -0.2000
 6361TIP3   OH240641   1.072   6.545   0.407 -0.7167 -0.3344 -0.5357
 6361TIP3    H140642   1.009   6.567   0.476  0.4447  1.1246  0.1151
 6361TIP3    H240643   1.069   6.450   0.402 -1.7979 -0.3931  0.6166
 6362TIP3   OH240644   3.910   5.695   1.600 -0.3838 -0.6032 -0.1359
 6362TIP3    H140645   3.903   5.656   1.513 -2.6246 -2.7774  0.8678
 6362TIP3    H240646   3.902   5.621   1.660 -0.2640  0.9574  1.9245
 6363TIP3   OH240647   5.767   1.339   8.406 -0.0265  0.3849  0.2116
 6363TIP3    H140648   5.816   1.411   8.365  2.3776  0.0314  2.2269
 6363TIP3    H240649   5.784   1.264   8.349 -0.2260  0.7896 -0.3962
 6364TIP3   OH240650   5.395   0.512   7.769 -0.2451 -0.4492  0.0502
 6364TIP3    H140651   5.344   0.440   7.733 -0.2934 -0.5002  0.2178
 6364TIP3    H240652   5.422   0.563   7.693  0.5783 -1.1682 -0.1574
 6365TIP3   OH240653   6.500   1.351   1.478  0.0158 -0.1120  0.1569
 6365TIP3    H140654   6.535   1.436   1.503  2.2812  0.1665 -3.3249
 6365TIP3    H240655   6.558   1.288   1.521  0.7493  0.2221 -0.3233
 6366TIP3   OH240656   2.746   4.659   2.040  0.0742  0.6213 -0.3979
 6366TIP3    H140657   2.797   4.732   2.072  0.5491 -0.2296  0.8838
 6366TIP3    H240658   2.655   4.686   2.051  0.1566  0.0281  2.7842
 6367TIP3   OH240659   0.399   0.672   8.154 -0.1560  0.0738 -0.1254
 6367TIP3    H140660   0.390   0.731   8.079  0.0555  0.3334  0.0532
 6367TIP3    H240661   0.411   0.730   8.229 -0.6950 -0.1749  0.1604
 6368TIP3   OH240662   0.124   2.459   1.866 -0.6235  0.0240  0.3083
 6368TIP3    H140663   0.113   2.394   1.935 -0.3707 -0.3093  0.0374
 6368TIP3    H240664   0.036   2.495   1.853 -0.3774  1.4500  2.0974
 6369TIP3   OH240665   5.341   0.627   8.252 -0.5272 -0.1638  0.0441
 6369TIP3    H140666   5.420   0.631   8.198  0.0863 -2.5932  0.6457
 6369TIP3    H240667   5.328   0.717   8.282  1.4365  0.4828 -0.8492
 6370TIP3   OH240668   5.557   6.666   0.847  0.1148 -0.4108 -0.4787
 6370TIP3    H140669   5.508   6.627   0.920  0.5700  1.2585  0.8065
 6370TIP3    H240670   5.625   6.602   0.827 -0.8438 -1.5040 -0.3752
 6371TIP3   OH240671   2.193   6.679   8.403 -0.1440  0.0468 -0.7780
 6371TIP3    H140672   2.221   6.634   8.323  0.4857  0.1887 -0.6426
 6371TIP3    H240673   2.274   6.691   8.453 -0.9874 -4.0589  2.0239
 6372TIP3   OH240674   4.501   3.844   1.470 -0.0338  0.2370 -1.0994
 6372TIP3    H140675   4.510   3.883   1.383  0.2046  1.5982 -0.4987
 6372TIP3    H240676   4.591   3.841   1.504 -0.2453  0.8039 -0.4655
 6373TIP3   OH240677   2.048   1.350   1.822 -0.2268 -0.2810 -0.1075
 6373TIP3    H140678   2.037   1.259   1.849 -0.5647 -0.6838 -1.5432
 6373TIP3    H240679   2.079   1.345   1.732  3.1442  0.9765  0.8201
 6374TIP3   OH240680   4.649   6.301   8.564 -0.1739 -1.0879  0.0998
 6374TIP3    H140681   4.598   6.261   8.635 -0.8485 -0.1110  0.1881
 6374TIP3    H240682   4.736   6.262   8.571 -0.7896 -2.5071  0.1954
 6375TIP3   OH240683   2.684   2.782   1.295 -0.1419  0.4055  0.1168
 6375TIP3    H140684   2.617   2.841   1.330  1.2349  2.1691 -0.1149
 6375TIP3    H240685   2.766   2.830   1.306  1.0418 -1.4782 -0.1013
 6376TIP3   OH240686   0.689   4.820   1.770 -0.1235 -0.1444  0.2485
 6376TIP3    H140687   0.781   4.825   1.798  0.1717 -0.4676 -0.6514
 6376TIP3    H240688   0.650   4.900   1.805  0.8981  0.8401 -0.7681
 6377TIP3   OH240689   3.110   5.325   7.956  0.2871 -0.1649 -0.6393
 6377TIP3    H140690   3.083   5.394   8.018 -0.5981 -0.0362 -1.1553
 6377TIP3    H240691   3.157   5.372   7.888  3.4127 -0.5578  1.0612
 6378TIP3   OH240692   1.136   1.174   8.553 -0.0591  0.4278  0.2945
 6378TIP3    H140693   1.057   1.145   8.598  1.4023 -1.3157  1.8962
 6378TIP3    H240694   1.114   1.171   8.460 -1.7168 -0.4610  0.6882
 6379TIP3   OH240695   5.686   2.825   2.816  0.3281  0.2933 -0.0882
 6379TIP3    H140696   5.740   2.803   2.740  2.1649 -0.8895  1.4796
 6379TIP3    H240697   5.635   2.745   2.832  1.5066 -0.2316  1.1540
 6380TIP3   OH240698   6.450   2.168   8.254 -0.1162  0.9166 -0.2424
 6380TIP3    H140699   6.398   2.128   8.324  1.1754  1.8142  1.3043
 6380TIP3    H240700   6.540   2.165   8.287  0.6590  0.6421 -2.2474
 6381TIP3   OH240701   6.698   1.835   1.203  0.0166 -0.4733 -0.0049
 6381TIP3    H140702   6.682   1.741   1.190 -0.5575 -0.3517 -0.2069
 6381TIP3    H240703   6.793   1.844   1.193  0.0059 -0.9375 -0.6417
 6382TIP3   OH240704   2.352   3.459   0.411  0.4783  0.3548  0.4861
 6382TIP3    H140705   2.267   3.417   0.422  0.1658  0.0176 -2.5187
 6382TIP3    H240706   2.342   3.545   0.453 -0.5481 -0.5436  2.1548
 6383TIP3   OH240707   6.168   2.774   7.363 -0.4831 -0.2201  0.0000
 6383TIP3    H140708   6.219   2.853   7.381 -1.1024  0.5174 -1.3309
 6383TIP3    H240709   6.233   2.705   7.355  0.3942  0.7359 -1.8781
 6384TIP3   OH240710   3.372   3.813   0.135  0.3326 -0.1689 -0.8330
 6384TIP3    H140711   3.419   3.815   0.218  0.4126 -2.4019 -0.7676
 6384TIP3    H240712   3.440   3.808   0.068  0.2431  0.5382 -0.9853
 6385TIP3   OH240713   1.921   2.553   8.623 -0.0501 -0.3690 -0.3921
 6385TIP3    H140714   1.938   2.506   8.705 -1.9414 -1.3829 -0.5095
 6385TIP3    H240715   1.853   2.617   8.646  1.2604  1.1657 -0.6344
 6386TIP3   OH240716   3.092   3.072   8.528 -0.0256  0.4928  0.0055
 6386TIP3    H140717   3.112   3.162   8.502  2.0896 -0.6031 -2.7020
 6386TIP3    H240718   3.147   3.057   8.605  0.6726  1.0871 -0.3624
 6387TIP3   OH240719   4.748   4.153   7.030  0.3970 -0.0592 -0.1355
 6387TIP3    H140720   4.793   4.070   7.049  0.6389  0.0996 -0.0095
 6387TIP3    H240721   4.816   4.220   7.043  0.2719  0.1355 -0.4941
 6388TIP3   OH240722   4.063   1.813   7.936 -0.3057  1.0333 -0.4464
 6388TIP3    H140723   3.983   1.837   7.888  0.3848  0.6175 -1.8636
 6388TIP3    H240724   4.070   1.718   7.924  0.3980  1.0678 -0.3240
 6389TIP3   OH240725   2.380   3.959   6.557  0.2356  0.0038  0.2173
 6389TIP3    H140726   2.327   3.910   6.494  0.5232 -0.9707  0.7116
 6389TIP3    H240727   2.322   3.971   6.633  0.8361 -1.5447  0.9810
 6390TIP3   OH240728   0.745   2.131   0.517  0.2872  0.2478 -0.5359
 6390TIP3    H140729   0.771   2.057   0.461  0.7937 -0.1397  0.1883
 6390TIP3    H240730   0.715   2.090   0.598  0.4063  0.8343 -0.1896
 6391TIP3   OH240731   6.404   1.533   7.310 -0.1045 -0.2016  0.2878
 6391TIP3    H140732   6.494   1.555   7.286 -0.3674  2.0178  1.1379
 6391TIP3    H240733   6.350   1.586   7.251 -0.8182  0.0261  1.1295
 6392TIP3   OH240734   0.844   6.044   0.587  0.2637 -0.1212  0.1993
 6392TIP3    H140735   0.926   6.066   0.631 -0.3199  0.8260  0.8797
 6392TIP3    H240736   0.848   6.090   0.503  1.1455 -1.4802 -0.5288
 6393TIP3   OH240737   4.625   6.393   2.402 -0.3254  0.3077 -0.1001
 6393TIP3    H140738   4.673   6.339   2.464  0.4212 -1.2858 -1.9777
 6393TIP3    H240739   4.672   6.476   2.400  0.5753 -0.1898  0.2776
 6394TIP3   OH240740   2.241   0.447   0.765  0.2404  0.9519  0.6436
 6394TIP3    H140741   2.331   0.425   0.741  0.0056 -0.8421  1.1871
 6394TIP3    H240742   2.246   0.534   0.803  1.2687  2.1080 -1.9352
 6395TIP3   OH240743   3.333   2.329   7.591  0.2332 -0.0761 -0.1062
 6395TIP3    H140744   3.420   2.344   7.627  1.8520 -0.1501 -3.6168
 6395TIP3    H240745   3.290   2.272   7.655  1.9596  1.5292  2.6921
 6396TIP3   OH240746   5.913   2.414   0.014  0.4004 -0.3458  0.0402
 6396TIP3    H140747   5.901   2.358  -0.064  0.6407  0.7216 -0.7846
 6396TIP3    H240748   5.923   2.502  -0.021  0.4524  0.1690  1.3036
 6397TIP3   OH240749   6.376   3.942   7.129  0.2113 -0.0821 -0.1275
 6397TIP3    H140750   6.424   4.024   7.125 -1.1318  0.6984 -1.8680
 6397TIP3    H240751   6.441   3.874   7.111  0.9241  0.8108 -0.9932
 6398TIP3   OH240752   2.951   0.330   1.860 -0.1877 -0.3345 -0.0635
 6398TIP3    H140753   3.001   0.324   1.778  0.8167 -0.2774  0.5272
 6398TIP3    H240754   3.015   0.359   1.925 -1.0439 -0.0648  0.6853
 6399TIP3   OH240755   3.854   5.250   0.667 -0.1037  0.1434  0.1042
 6399TIP3    H140756   3.880   5.306   0.593 -1.6560  0.7083 -0.0422
 6399TIP3    H240757   3.837   5.312   0.738 -2.9413  0.0273 -0.3818
 6400TIP3   OH240758   0.207   2.002   7.443  0.0846 -0.5225 -0.0969
 6400TIP3    H140759   0.282   1.972   7.493  0.7559  0.1839 -0.6663
 6400TIP3    H240760   0.147   1.927   7.442  0.7308 -1.0515  0.4489
 6401TIP3   OH240761   1.414   3.734   7.902 -1.1238  0.4047 -0.4328
 6401TIP3    H140762   1.374   3.808   7.948 -0.1973  0.8749 -0.3665
 6401TIP3    H240763   1.456   3.773   7.826  0.3913  0.1420  0.2298
 6402TIP3   OH240764   5.026   4.066   1.594  0.3047  0.4859 -0.0243
 6402TIP3    H140765   5.069   4.024   1.520 -0.1706  1.0741 -0.6542
 6402TIP3    H240766   5.003   4.154   1.562 -1.5628  0.1249  0.1947
 6403TIP3   OH240767   6.175   1.938   2.892  0.4026  0.0171  0.2377
 6403TIP3    H140768   6.152   1.846   2.886  0.5967  0.0351 -1.1426
 6403TIP3    H240769   6.095   1.985   2.870  0.5766  0.1567 -0.1060
 6404TIP3   OH240770   6.536   2.083   7.753 -0.7701  0.3516 -0.2129
 6404TIP3    H140771   6.505   2.133   7.828 -1.2811  0.5591 -0.5532
 6404TIP3    H240772   6.587   2.146   7.702  0.7547 -0.1402  0.6494
 6405TIP3   OH240773   4.909   0.977   8.027  0.3763 -0.8454 -0.3531
 6405TIP3    H140774   4.960   0.946   8.102 -0.8083 -0.4764  0.6358
 6405TIP3    H240775   4.819   0.952   8.046 -0.2011  0.7311 -0.8400
 6406TIP3   OH240776   4.123   6.546   8.728 -0.2172 -0.6243 -0.1722
 6406TIP3    H140777   4.119   6.642   8.724  1.7387 -0.4753  0.3385
 6406TIP3    H240778   4.193   6.523   8.666 -1.1695 -1.7974 -0.8541
 6407TIP3   OH240779   0.193   4.724   0.286 -0.5108 -0.0759  0.0317
 6407TIP3    H140780   0.266   4.766   0.330 -0.6533  1.2836 -0.9667
 6407TIP3    H240781   0.197   4.633   0.315  0.8623  0.2288  0.8996
 6408TIP3   OH240782   2.621   1.384   0.960  0.1465  0.0317 -0.0225
 6408TIP3    H140783   2.620   1.320   1.032 -1.8952  1.3584  1.2301
 6408TIP3    H240784   2.558   1.349   0.897 -0.1841  0.2874  0.1673
 6409TIP3   OH240785   5.875   2.470   7.062  0.0509  0.3220  0.0286
 6409TIP3    H140786   5.864   2.565   7.060 -1.8192  0.1306 -0.5216
 6409TIP3    H240787   5.791   2.435   7.033  0.6877 -1.5154  0.2442
 6410TIP3   OH240788   6.350   5.506   0.442 -0.2092  0.0132 -0.0357
 6410TIP3    H140789   6.339   5.436   0.377 -0.7392  0.1840 -0.1357
 6410TIP3    H240790   6.274   5.498   0.499  0.5791 -0.5384  0.9619
 6411TIP3   OH240791   0.827   1.201   0.793  0.1381 -0.1075 -0.1144
 6411TIP3    H140792   0.881   1.231   0.866  0.1926 -0.1678 -0.1297
 6411TIP3    H240793   0.760   1.269   0.782  0.1310 -0.0982 -0.0096
 6412TIP3   OH240794   2.431   0.143   6.399  0.4485 -0.1630 -0.4723
 6412TIP3    H140795   2.352   0.149   6.345 -0.5839 -0.4364  0.9637
 6412TIP3    H240796   2.423   0.213   6.463  0.1618 -1.6169  1.1768
 6413TIP3   OH240797   6.386   5.172   1.267 -0.5429  0.2083 -0.0916
 6413TIP3    H140798   6.372   5.262   1.238  2.9764  0.3504 -1.9239
 6413TIP3    H240799   6.470   5.176   1.315 -0.6529 -1.9932  0.3714
 6414TIP3   OH240800   3.123   1.095   2.056  0.0093  0.1506  0.6085
 6414TIP3    H140801   3.053   1.135   2.107 -1.5266 -1.4003 -0.1567
 6414TIP3    H240802   3.088   1.009   2.031  1.9735 -0.4495 -0.3003
 6415TIP3   OH240803   3.132   3.898   1.118  0.0199  0.7057 -0.7447
 6415TIP3    H140804   3.118   3.810   1.084 -1.4737  0.5893  0.1097
 6415TIP3    H240805   3.224   3.916   1.100  0.6823 -1.5027  0.1306
 6416TIP3   OH240806   6.124   0.787   8.734  0.0936 -0.6203 -0.0156
 6416TIP3    H140807   6.060   0.823   8.673 -0.9447 -0.0149  1.3867
 6416TIP3    H240808   6.098   0.695   8.743  0.7149 -0.9113 -1.0399
 6417TIP3   OH240809   2.614   0.209   8.485 -0.4659 -0.0298  0.7757
 6417TIP3    H140810   2.654   0.146   8.425  0.9647  1.0769  0.5032
 6417TIP3    H240811   2.523   0.182   8.491 -0.1582 -1.4045 -0.2672
 6418TIP3   OH240812   1.666   2.782   8.370  0.2792 -0.1424  0.4108
 6418TIP3    H140813   1.664   2.870   8.408 -1.5014  0.5700 -1.1512
 6418TIP3    H240814   1.685   2.797   8.277  2.1279 -1.6320  0.4903
 6419TIP3   OH240815   2.527   2.850   0.501 -0.4507 -0.0462 -0.0260
 6419TIP3    H140816   2.530   2.758   0.473  0.4920 -0.4314  1.2726
 6419TIP3    H240817   2.598   2.859   0.564 -0.7628  1.4924  0.1530
 6420TIP3   OH240818   5.277   0.040   6.757  0.3779 -0.2448  0.7055
 6420TIP3    H140819   5.266   0.059   6.664  0.2777 -0.6894  0.6249
 6420TIP3    H240820   5.187   0.042   6.791  0.4989  0.9855  1.0108
 6421TIP3   OH240821   2.936   4.217   8.139 -0.3680  0.0269  0.4018
 6421TIP3    H140822   2.874   4.262   8.196  0.3023  0.7869  0.5507
 6421TIP3    H240823   2.928   4.262   8.055 -0.2425 -0.0731  0.3364
 6422TIP3   OH240824   0.884   0.872   7.810  0.0790 -1.1843 -0.0738
 6422TIP3    H140825   0.909   0.817   7.884 -0.3217 -1.3152 -0.0329
 6422TIP3    H240826   0.804   0.833   7.777 -0.6898 -0.1441  0.4853
 6423TIP3   OH240827   3.073   4.003   0.394  0.2523 -0.7141  0.0961
 6423TIP3    H140828   3.128   4.030   0.468  0.3575 -0.4653 -0.0720
 6423TIP3    H240829   2.988   4.044   0.412  0.7098  0.6513 -0.7077
 6424TIP3   OH240830   5.602   3.607   0.376  0.0630 -0.0572 -0.3296
 6424TIP3    H140831   5.691   3.627   0.406  1.2339 -1.8769 -2.3023
 6424TIP3    H240832   5.560   3.564   0.450  0.5516  1.4061  0.8534
 6425TIP3   OH240833   1.401   0.695   0.127  0.1280  0.4006 -0.2533
 6425TIP3    H140834   1.370   0.696   0.217  1.1823  0.3960  0.1184
 6425TIP3    H240835   1.357   0.620   0.087 -0.5203  0.5441  0.1866
 6426TIP3   OH240836   4.344   0.670   1.573  0.6880 -0.8160 -0.1181
 6426TIP3    H140837   4.407   0.666   1.645 -0.8405 -3.6219  1.2449
 6426TIP3    H240838   4.264   0.705   1.613  0.0471 -1.6842 -0.5983
 6427TIP3   OH240839   2.838   6.149   6.249 -0.1070  0.2666  0.3540
 6427TIP3    H140840   2.879   6.129   6.333  1.4535 -2.6439 -0.9533
 6427TIP3    H240841   2.905   6.196   6.200  0.4994 -1.5414 -0.6098
 6428TIP3   OH240842   2.451   6.191   7.036 -0.4103 -0.3057  0.5373
 6428TIP3    H140843   2.511   6.151   7.100 -2.5413 -1.2285  2.0718
 6428TIP3    H240844   2.394   6.119   7.008 -2.0632  0.9117  0.6273
 6429TIP3   OH240845   3.494   0.992   0.393  0.4908  0.2604  0.6690
 6429TIP3    H140846   3.565   0.946   0.437  0.5806 -1.1786 -0.8652
 6429TIP3    H240847   3.502   0.965   0.301  1.1032  4.0677 -0.5660
 6430TIP3   OH240848   0.504   0.041   1.859  0.9580 -0.0146  0.1192
 6430TIP3    H140849   0.587   0.068   1.899 -0.4281  2.4755  1.5728
 6430TIP3    H240850   0.447   0.021   1.933 -1.0772  2.8188 -0.4983
 6431TIP3   OH240851   1.210   1.425   8.353 -0.3930  0.1786 -0.4498
 6431TIP3    H140852   1.173   1.338   8.336  1.1652 -0.8508  1.0985
 6431TIP3    H240853   1.186   1.443   8.444  1.8386  0.0126  0.2077
 6432TIP3   OH240854   2.946   5.762   2.402  0.1336 -0.0046  0.3766
 6432TIP3    H140855   2.929   5.692   2.339  2.5718 -1.3535  1.0789
 6432TIP3    H240856   3.026   5.804   2.369  0.3575  0.5211  1.5413
 6433TIP3   OH240857   5.228   0.058   1.766 -0.4684  0.5371  0.6144
 6433TIP3    H140858   5.180   0.033   1.687  0.7635 -0.0334  0.0205
 6433TIP3    H240859   5.200  -0.005   1.832  1.4637 -1.6193 -0.4668
 6434TIP3   OH240860   1.701   2.001   2.524  0.3065 -0.0212 -1.1488
 6434TIP3    H140861   1.730   1.946   2.452 -1.0350 -0.7288 -1.1891
 6434TIP3    H240862   1.732   1.956   2.603  3.3652  1.6744 -1.2183
 6435TIP3   OH240863   2.295   3.272   7.756 -0.1046  0.4201  0.1037
 6435TIP3    H140864   2.368   3.229   7.712  0.8147  0.1779  1.7964
 6435TIP3    H240865   2.324   3.363   7.767  0.6684 -0.0288  2.1856
 6436TIP3   OH240866   6.328   4.557   8.509  0.2715  0.2134  0.2930
 6436TIP3    H140867   6.304   4.595   8.425  0.6074  0.6737  0.4000
 6436TIP3    H240868   6.272   4.601   8.573  0.2899  0.1495  0.3534
 6437TIP3   OH240869   0.511   3.005   1.438 -0.0622  0.2274  0.2410
 6437TIP3    H140870   0.465   2.931   1.397  2.6625 -1.2531 -0.3637
 6437TIP3    H240871   0.552   2.967   1.515  0.0495  1.5401  0.8515
 6438TIP3   OH240872   3.968   3.679   1.324 -0.1465  0.7910  0.2027
 6438TIP3    H140873   3.939   3.633   1.403 -0.0789  1.4975  0.6588
 6438TIP3    H240874   3.890   3.683   1.268  0.3535 -1.6997 -0.7940
 6439TIP3   OH240875   6.128   2.675   1.366  0.1996  0.1002  0.3074
 6439TIP3    H140876   6.079   2.712   1.439  1.4827 -1.2761  1.9653
 6439TIP3    H240877   6.178   2.602   1.405  2.0151  0.1806 -1.6517
 6440TIP3   OH240878   0.033   2.953   1.909 -0.2144 -0.5727  0.5471
 6440TIP3    H140879   0.080   3.027   1.949  0.1373  0.2403 -1.2768
 6440TIP3    H240880   0.025   2.889   1.980  2.2087 -0.0755  1.3578
 6441TIP3   OH240881   2.029   6.500   1.503 -0.5514 -0.4115  0.3383
 6441TIP3    H140882   2.003   6.565   1.568 -2.0032 -0.4136 -0.2075
 6441TIP3    H240883   2.046   6.551   1.423 -1.3815 -0.6501 -0.0016
 6442TIP3   OH240884   2.412   5.864   0.660  0.4232 -0.0342  0.2845
 6442TIP3    H140885   2.419   5.806   0.585  0.3461 -0.5099  0.6414
 6442TIP3    H240886   2.368   5.812   0.727  0.9702  0.2004  0.8445
 6443TIP3   OH240887   5.254   0.440   8.443  0.0381  0.2591 -0.2231
 6443TIP3    H140888   5.278   0.520   8.396  1.7673  0.0825  0.3143
 6443TIP3    H240889   5.278   0.369   8.384 -1.3338  0.0864 -0.6237
 6444TIP3   OH240890   5.981   3.373   1.028  0.3232  0.6948 -0.7829
 6444TIP3    H140891   6.010   3.447   0.975  1.5571  0.4533 -0.4833
 6444TIP3    H240892   5.926   3.413   1.096  0.7983  1.3194 -0.7517
 6445TIP3   OH240893   5.485   0.281   8.297  0.1663  0.1985 -0.2230
 6445TIP3    H140894   5.553   0.344   8.320  0.1753  0.2530 -0.3995
 6445TIP3    H240895   5.493   0.271   8.203 -0.2757  0.4343 -0.2851
 6446TIP3   OH240896   4.861   4.019   6.670  0.0375 -0.1366  0.4045
 6446TIP3    H140897   4.775   4.059   6.684  1.2687  2.8469  0.2185
 6446TIP3    H240898   4.882   4.038   6.578  0.3778 -1.9691  0.0779
 6447TIP3   OH240899   3.184   4.555   0.389  0.6457 -0.3972 -0.2732
 6447TIP3    H140900   3.237   4.623   0.431  0.8031 -0.1758 -0.8233
 6447TIP3    H240901   3.114   4.603   0.346  1.3331 -0.4787 -1.5255
 6448TIP3   OH240902   0.471   4.257   8.827 -0.6054 -0.1955  0.0815
 6448TIP3    H140903   0.423   4.323   8.878 -1.5833 -0.8104 -0.0117
 6448TIP3    H240904   0.554   4.248   8.873 -1.2222 -0.2800  1.2297
 6449TIP3   OH240905   0.812   3.680   1.046 -0.4062  0.5148 -0.5157
 6449TIP3    H140906   0.764   3.608   1.005 -0.4313  1.8748 -3.0249
 6449TIP3    H240907   0.776   3.685   1.135 -1.0272 -1.9580 -0.5620
 6450TIP3   OH240908   1.621   5.918   8.498  0.7302 -0.2575  0.2967
 6450TIP3    H140909   1.640   5.879   8.583 -1.5971  1.0467  1.4954
 6450TIP3    H240910   1.665   6.003   8.500  1.8103 -0.7806 -0.3921
 6451TIP3   OH240911   2.963   2.341   0.862  0.2397 -0.4202 -0.0365
 6451TIP3    H140912   2.909   2.395   0.920 -0.4731 -1.4598  0.2998
 6451TIP3    H240913   3.008   2.404   0.806  1.0219  0.6187  1.6934
 6452TIP3   OH240914   5.124   5.325   6.984 -0.2029 -0.1521 -0.5871
 6452TIP3    H140915   5.088   5.264   6.919  0.5464 -1.5310  0.2368
 6452TIP3    H240916   5.217   5.330   6.964  0.0305 -0.5713  0.3379
 6453TIP3   OH240917   6.231   4.259   8.459  0.3103  0.1324 -0.2955
 6453TIP3    H140918   6.281   4.194   8.410 -0.9384 -0.2722 -1.0912
 6453TIP3    H240919   6.240   4.339   8.408 -1.2217 -0.3553 -1.4269
 6454TIP3   OH240920   3.858   0.965   7.216  1.0224 -0.1169  0.0944
 6454TIP3    H140921   3.806   0.952   7.136 -0.3493 -0.6516  1.0365
 6454TIP3    H240922   3.882   1.057   7.214  0.9513 -0.1076 -0.9025
 6455TIP3   OH240923   0.532   0.669   0.011  0.2361 -0.0553  0.5573
 6455TIP3    H140924   0.472   0.713   0.071  0.7403 -0.4930  1.3999
 6455TIP3    H240925   0.516   0.711  -0.074 -0.6049  0.4577  0.9578
 6456TIP3   OH240926   2.610   1.614   7.880  0.1898  0.7746  0.0172
 6456TIP3    H140927   2.624   1.575   7.793 -0.9766 -1.4618  0.7719
 6456TIP3    H240928   2.599   1.540   7.939 -1.5172  2.2373  1.6767
 6457TIP3   OH240929   0.609   4.602   8.713  0.6674  0.3027  0.2978
 6457TIP3    H140930   0.599   4.555   8.796 -0.7368  0.2707  0.1333
 6457TIP3    H240931   0.573   4.689   8.730  1.5372  0.7252  0.0625
 6458TIP3   OH240932   5.550   1.875   7.301  0.3437  0.2966  0.4501
 6458TIP3    H140933   5.507   1.794   7.328 -0.1503  0.2854 -0.3549
 6458TIP3    H240934   5.503   1.903   7.222  1.1312  0.8504  0.1619
 6459TIP3   OH240935   2.141   4.645   8.189  0.3591 -0.2486 -0.0370
 6459TIP3    H140936   2.046   4.636   8.199  0.5216 -3.2014 -0.2658
 6459TIP3    H240937   2.152   4.685   8.103 -0.6521  0.4883  0.1460
 6460TIP3   OH240938   5.417   6.692   7.604 -0.2311  0.0992 -0.3123
 6460TIP3    H140939   5.367   6.731   7.533  0.4232 -2.7455 -2.5524
 6460TIP3    H240940   5.505   6.726   7.594 -0.7240  1.9448  1.0738
 6461TIP3   OH240941   0.002   5.589   0.794 -0.2912  0.2344 -0.4803
 6461TIP3    H140942  -0.081   5.562   0.754 -0.8556  1.2239 -0.0129
 6461TIP3    H240943  -0.005   5.561   0.885  0.7321 -1.4491 -0.8716
 6462TIP3   OH240944   2.258   4.901   7.281 -0.3316 -0.4724  0.1152
 6462TIP3    H140945   2.244   4.838   7.211 -1.8100 -0.7389  0.6183
 6462TIP3    H240946   2.171   4.914   7.320  0.1252  1.0514  0.7152
 6463TIP3   OH240947   2.724   5.830   2.713  0.6940  0.6617  0.8820
 6463TIP3    H140948   2.755   5.760   2.655 -0.2683  0.4020  0.6721
 6463TIP3    H240949   2.804   5.863   2.755  1.3613  0.5581 -0.2523
 6464TIP3   OH240950   5.493   3.881   2.174 -0.0309  0.0008  0.4215
 6464TIP3    H140951   5.542   3.931   2.239 -2.0654 -0.6194  2.5386
 6464TIP3    H240952   5.495   3.791   2.206 -1.2364 -0.2903 -0.2668
 6465TIP3   OH240953   2.907   2.529   1.488 -0.1214 -0.4625  0.1093
 6465TIP3    H140954   2.861   2.502   1.409  0.4115 -0.0040 -0.3639
 6465TIP3    H240955   2.989   2.480   1.487  0.5325  0.5992 -0.3850
 6466TIP3   OH240956   3.974   6.734   1.157  0.4503 -0.1941 -0.1111
 6466TIP3    H140957   3.924   6.713   1.078  1.0732  0.8611 -0.8233
 6466TIP3    H240958   3.960   6.660   1.216 -1.1027 -0.3885 -0.6896
 6467TIP3   OH240959   5.368   5.738   8.701  0.4519  0.1806 -0.4996
 6467TIP3    H140960   5.315   5.668   8.738  1.8300 -1.0099 -0.6760
 6467TIP3    H240961   5.339   5.745   8.610 -0.3440  0.5299 -0.2343
 6468TIP3   OH240962   5.337   0.467   6.446  0.6242 -0.3385  0.6437
 6468TIP3    H140963   5.294   0.483   6.530 -0.2135 -0.5759  0.2676
 6468TIP3    H240964   5.266   0.464   6.382  1.2250 -0.4412 -0.0395
 6469TIP3   OH240965   4.122   5.293   6.714 -0.0283 -0.3237  0.6086
 6469TIP3    H140966   4.172   5.288   6.633  0.7275 -1.0650  1.1060
 6469TIP3    H240967   4.048   5.233   6.700 -1.4139  1.5348 -0.5140
 6470TIP3   OH240968   5.980   1.783   2.258  0.1614  0.4227 -0.2966
 6470TIP3    H140969   5.919   1.792   2.331 -0.2702  0.4507 -0.6597
 6470TIP3    H240970   6.066   1.777   2.299 -0.0974  0.2632  0.2217
 6471TIP3   OH240971   6.267   0.731   8.357  1.2526 -0.1931 -0.1514
 6471TIP3    H140972   6.304   0.729   8.268  3.4469 -1.0210  0.7108
 6471TIP3    H240973   6.204   0.659   8.359 -0.1824  0.9387 -1.5176
 6472TIP3   OH240974   1.700   1.009   7.505 -0.2137 -0.4465 -0.2937
 6472TIP3    H140975   1.671   1.088   7.460  4.1071  0.6699 -1.5765
 6472TIP3    H240976   1.738   1.041   7.587 -2.5086 -1.8145  1.4053
 6473TIP3   OH240977   5.204   6.688   0.668 -0.5003 -0.4809 -0.0514
 6473TIP3    H140978   5.171   6.676   0.579 -1.0312  0.8896 -0.0568
 6473TIP3    H240979   5.246   6.774   0.666 -1.6838  0.1643  1.3518
 6474TIP3   OH240980   1.879   0.605   0.227  0.4631 -0.4620  0.4288
 6474TIP3    H140981   1.839   0.686   0.196  0.9901 -0.6700 -0.8763
 6474TIP3    H240982   1.814   0.566   0.285  0.1205  0.7851  0.9164
 6475TIP3   OH240983   3.208   4.191   1.176 -0.1722  0.1996 -0.1676
 6475TIP3    H140984   3.273   4.125   1.151  0.7043  0.6345  0.8506
 6475TIP3    H240985   3.131   4.140   1.202  0.2624 -0.3984 -0.0353
 6476TIP3   OH240986   0.334   3.669   8.222  0.1937  0.5687  0.4654
 6476TIP3    H140987   0.280   3.737   8.262 -0.5906 -0.0803  0.5284
 6476TIP3    H240988   0.419   3.711   8.209 -0.9234  2.3504 -1.7446
 6477TIP3   OH240989   4.908   6.022   0.510  0.5207 -0.0388 -0.0504
 6477TIP3    H140990   4.924   5.930   0.491  1.2364  0.0210  0.2510
 6477TIP3    H240991   4.832   6.021   0.569  0.4775 -0.4321 -0.1105
 6478TIP3   OH240992   4.271   6.118   8.032  0.1713  0.3662 -0.5407
 6478TIP3    H140993   4.335   6.047   8.020  0.0036  0.0805  0.1986
 6478TIP3    H240994   4.218   6.117   7.952 -0.8982 -1.4422  0.1403
 6479TIP3   OH240995   6.308   4.121   2.129 -0.1608  0.0532 -0.0179
 6479TIP3    H140996   6.332   4.197   2.181  2.6008  0.5154 -1.7470
 6479TIP3    H240997   6.370   4.053   2.157 -3.1883 -2.0410  2.2110
 6480TIP3   OH240998   3.529   2.613   7.308 -0.0528 -0.0779 -0.0576
 6480TIP3    H140999   3.452   2.663   7.336  1.1287  1.5877  0.3710
 6480TIP3    H241000   3.529   2.620   7.212  1.6018  3.3121  0.0381
 6481TIP3   OH241001   6.231   2.537   8.733  0.1533 -0.4279  0.1403
 6481TIP3    H141002   6.150   2.563   8.777 -1.1729 -2.7802 -0.7060
 6481TIP3    H241003   6.256   2.613   8.681 -1.9695  0.1217 -0.1744
 6482TIP3   OH241004   1.624   3.368   0.667 -0.4774 -0.1862  0.0394
 6482TIP3    H141005   1.532   3.363   0.692 -0.7409  0.9699 -0.6403
 6482TIP3    H241006   1.672   3.345   0.747 -1.3414 -2.0889  0.0610
 6483TIP3   OH241007   2.173   4.913   8.682 -0.5374  0.7910 -0.0484
 6483TIP3    H141008   2.182   4.956   8.597 -1.4134  1.0499 -0.0209
 6483TIP3    H241009   2.225   4.833   8.674 -0.9053  0.6319 -0.9450
 6484TIP3   OH241010   5.367   6.662   0.361  0.4718  0.1591  0.6643
 6484TIP3    H141011   5.449   6.649   0.314 -0.2025 -3.3802  0.1569
 6484TIP3    H241012   5.320   6.727   0.309  0.4034 -2.4129 -2.8997
 6485TIP3   OH241013   3.206   2.062   0.813  0.2375  0.2637 -0.0571
 6485TIP3    H141014   3.144   2.008   0.764  1.3183 -1.2151  0.1337
 6485TIP3    H241015   3.190   2.040   0.905  1.8302 -1.0905 -0.0607
 6486TIP3   OH241016   2.709   0.457   0.034  0.4100  0.0840  0.2222
 6486TIP3    H141017   2.770   0.384   0.035  0.9977  0.5259 -1.1590
 6486TIP3    H241018   2.629   0.421  -0.006  0.4990  0.0455  0.0773
 6487TIP3   OH241019   6.402   0.107   7.885 -0.7383 -0.1172 -0.0536
 6487TIP3    H141020   6.350   0.032   7.857  0.5981 -1.1085  0.0513
 6487TIP3    H241021   6.397   0.168   7.811 -0.9721 -0.7564 -0.5719
 6488TIP3   OH241022   6.077   5.698   0.469  0.1264  0.2934  0.7528
 6488TIP3    H141023   6.109   5.753   0.541 -0.1169 -0.4287  1.4183
 6488TIP3    H241024   6.075   5.757   0.394 -0.1116  1.2018  1.4502
 6489TIP3   OH241025   4.068   6.303   0.585 -0.3376 -0.5073  0.1922
 6489TIP3    H141026   4.005   6.268   0.647 -1.0801 -1.3713 -1.0068
 6489TIP3    H241027   4.153   6.274   0.618 -0.6561 -0.4008  1.1421
 6490TIP3   OH241028   1.110   3.757   0.891 -0.0321 -0.3825 -0.5516
 6490TIP3    H141029   1.060   3.829   0.930 -0.2723 -0.3300 -0.9446
 6490TIP3    H241030   1.045   3.690   0.872 -0.0133 -0.1935 -1.3478
 6491TIP3   OH241031   5.544   3.241   1.722  0.1105 -0.0414 -0.0720
 6491TIP3    H141032   5.509   3.312   1.668  2.5592  0.0634 -1.7119
 6491TIP3    H241033   5.537   3.163   1.667  1.0538 -0.2740  0.1116
 6492TIP3   OH241034   4.472   5.927   7.998  0.4320 -0.2500 -0.0928
 6492TIP3    H141035   4.558   5.914   8.038  0.5453  0.9082  0.0787
 6492TIP3    H241036   4.491   5.936   7.904  0.3739 -1.0712 -0.1872
 6493TIP3   OH241037   6.557   0.180   0.016  0.2165  0.2486 -0.0796
 6493TIP3    H141038   6.610   0.133   0.080 -0.3831 -0.6325 -0.2168
 6493TIP3    H241039   6.483   0.123  -0.001  0.1974  0.6135 -1.3309
 6494TIP3   OH241040   1.895   3.599   1.983 -0.0155 -0.0206 -0.1249
 6494TIP3    H141041   1.874   3.553   1.901  0.7608 -0.2439 -0.2114
 6494TIP3    H241042   1.976   3.645   1.964 -0.4117  0.8254  0.1918
 6495TIP3   OH241043   6.459   3.420   7.653 -0.0360 -0.0334  0.4817
 6495TIP3    H141044   6.411   3.483   7.600 -1.5251 -1.2189  0.3391
 6495TIP3    H241045   6.412   3.419   7.737  0.6585 -0.1405  0.8803
 6496TIP3   OH241046   0.965   6.378   0.019 -0.0870 -0.3126  0.2677
 6496TIP3    H141047   1.060   6.370   0.013  0.0187  0.1631  1.1173
 6496TIP3    H241048   0.931   6.323  -0.051  0.7893 -1.6065  0.8235
 6497TIP3   OH241049   2.994   5.367   1.358 -0.6916  0.0537  0.2743
 6497TIP3    H141050   3.016   5.369   1.451 -2.5266 -0.8807  0.7611
 6497TIP3    H241051   3.048   5.437   1.320 -0.3948  0.9041  2.1311
 6498TIP3   OH241052   6.418   2.793   1.349 -0.3972 -0.3006  0.2392
 6498TIP3    H141053   6.338   2.740   1.356 -0.4440 -0.2140  0.3591
 6498TIP3    H241054   6.407   2.862   1.415  0.0363 -0.6273  0.6580
 6499TIP3   OH241055   1.337   3.998   6.752 -0.3019  0.0666  0.0790
 6499TIP3    H141056   1.416   4.015   6.804 -0.9015 -0.2799  1.1358
 6499TIP3    H241057   1.369   3.948   6.677  1.0380  3.0312 -1.4991
 6500TIP3   OH241058   5.860   4.736   8.542 -0.2609  0.0315 -0.1939
 6500TIP3    H141059   5.772   4.716   8.572 -0.1299  0.7776  0.7466
 6500TIP3    H241060   5.855   4.729   8.447 -1.1189 -0.7445 -0.1050
 6501TIP3   OH241061   0.684   0.825   7.629 -0.5126  0.4116 -0.0015
 6501TIP3    H141062   0.688   0.919   7.645 -1.2789  0.4160  0.1998
 6501TIP3    H241063   0.590   0.805   7.627 -0.3638 -0.2370 -0.6895
 6502TIP3   OH241064   1.497   6.617   8.367 -0.2542 -0.5105 -0.5822
 6502TIP3    H141065   1.568   6.616   8.432  0.5281  1.7932 -1.3071
 6502TIP3    H241066   1.440   6.688   8.395 -2.2153 -2.1471 -0.1696
 6503TIP3   OH241067   5.610   5.123   8.542  0.0639 -0.0470 -0.3391
 6503TIP3    H141068   5.557   5.063   8.490 -0.0599 -0.6137  0.4102
 6503TIP3    H241069   5.700   5.106   8.515  0.0443 -0.7129 -0.0056
 6504TIP3   OH241070   0.128   6.163   0.003  0.5168 -0.1730  0.2915
 6504TIP3    H141071   0.126   6.205   0.089  4.1789 -1.3546  1.1647
 6504TIP3    H241072   0.155   6.234  -0.057  1.5647 -0.0893  0.8315
 6505TIP3   OH241073   2.747   3.115   1.420 -0.1126  0.4702 -0.6011
 6505TIP3    H141074   2.809   3.092   1.489 -1.1947  1.8336  0.8851
 6505TIP3    H241075   2.798   3.110   1.339  0.9346 -2.2298  0.0971
 6506TIP3   OH241076   0.837   4.476   8.602  0.7820 -0.3825  0.0471
 6506TIP3    H141077   0.769   4.517   8.656 -0.5204 -1.8082 -0.4048
 6506TIP3    H241078   0.788   4.417   8.544  2.1815  0.5622 -2.2254
 6507TIP3   OH241079   1.877   6.027   0.912 -0.2168 -0.3686 -0.1177
 6507TIP3    H141080   1.870   6.109   0.960  0.8217  0.0722 -0.6936
 6507TIP3    H241081   1.871   6.052   0.820 -1.1163 -1.0851 -0.2765
 6508TIP3   OH241082   4.992   6.444   0.411  0.6244  0.4316 -0.1716
 6508TIP3    H141083   4.901   6.417   0.429  0.5397  1.1994  0.6810
 6508TIP3    H241084   4.999   6.529   0.454  2.1002 -0.1463  0.7891
 6509TIP3   OH241085   6.399   2.983   1.526 -0.2289  0.1590  0.0585
 6509TIP3    H141086   6.346   2.987   1.606  2.4306 -0.0886  1.9887
 6509TIP3    H241087   6.373   3.060   1.476 -2.4968 -0.0636  0.7675
 6510TIP3   OH241088   4.149   4.890   2.348 -0.1823  0.1768 -0.5386
 6510TIP3    H141089   4.107   4.837   2.281  0.7767 -0.1326 -0.9136
 6510TIP3    H241090   4.243   4.882   2.330  0.1812 -0.7990  1.4984
 6511TIP3   OH241091   3.685   2.932   0.396 -0.1879 -0.3216 -0.2094
 6511TIP3    H141092   3.688   2.969   0.308  0.4245  0.1814  0.0185
 6511TIP3    H241093   3.620   2.862   0.390  2.1529 -2.5371 -1.9198
 6512TIP3   OH241094   3.771   5.592   0.269  0.1502 -0.2149  0.2717
 6512TIP3    H141095   3.700   5.638   0.223 -0.8398 -1.6101  0.3270
 6512TIP3    H241096   3.801   5.654   0.335  1.5246  1.8235 -2.0770
 6513TIP3   OH241097   6.134   0.587   2.617  0.0847  0.4408  0.2048
 6513TIP3    H141098   6.208   0.595   2.677 -0.6894  1.0151  1.1240
 6513TIP3    H241099   6.124   0.674   2.579 -0.4453  0.5169  0.5045
 6514TIP3   OH241100   6.124   1.485   2.456 -0.5016  0.1225  0.0586
 6514TIP3    H141101   6.135   1.429   2.533  1.7143  1.1312  0.5659
 6514TIP3    H241102   6.099   1.570   2.492 -0.7156  0.2759 -0.4506
 6515TIP3   OH241103   6.049   1.886   7.215 -0.2293 -0.2507  0.3679
 6515TIP3    H141104   6.001   1.857   7.138 -0.1436 -2.4300  1.0528
 6515TIP3    H241105   5.986   1.881   7.287  0.0444  0.4237  0.6603
 6516TIP3   OH241106   2.467   6.720   6.631  0.4639 -0.0582  0.3357
 6516TIP3    H141107   2.478   6.765   6.715  0.3697  0.0992  0.2647
 6516TIP3    H241108   2.412   6.644   6.650  0.7945 -0.2585  0.4952
 6517TIP3   OH241109   4.791   2.647   0.162  0.2573  0.1986 -0.1413
 6517TIP3    H141110   4.807   2.587   0.089 -1.5923  0.6306 -0.9814
 6517TIP3    H241111   4.772   2.590   0.237  1.7476 -0.2455 -0.0652
 6518TIP3   OH241112   5.660   2.829   1.918 -0.2936 -0.5745 -0.7524
 6518TIP3    H141113   5.599   2.785   1.858 -1.1385 -1.4156  0.6658
 6518TIP3    H241114   5.740   2.840   1.866 -1.5389  0.3746 -2.5959
 6519TIP3   OH241115   3.465   3.701   8.588 -0.5063  0.0054 -0.2666
 6519TIP3    H141116   3.442   3.794   8.583  1.0947  0.3466 -2.8790
 6519TIP3    H241117   3.418   3.660   8.515  1.4028 -0.5774 -1.2205
 6520TIP3   OH241118   1.144   5.546   8.097 -0.4530  0.4459 -0.1486
 6520TIP3    H141119   1.153   5.641   8.101 -1.9419  0.5808  0.5684
 6520TIP3    H241120   1.055   5.528   8.128  0.6495 -1.3438  2.3890
 6521TIP3   OH241121   5.946   0.482   1.262  0.1065 -0.3064 -0.2490
 6521TIP3    H141122   5.955   0.517   1.351 -0.6933 -1.5009  0.3336
 6521TIP3    H241123   6.034   0.489   1.224  0.2413  1.1526  0.2567
 6522TIP3   OH241124   0.770   0.322   7.852  0.0179 -0.1288 -0.1544
 6522TIP3    H141125   0.725   0.289   7.929 -0.6475 -0.5533 -0.7121
 6522TIP3    H241126   0.699   0.349   7.793  0.5295  1.2261 -0.1744
 6523TIP3   OH241127   3.415   0.310   1.420  0.0529  0.4396 -0.5084
 6523TIP3    H141128   3.490   0.355   1.381  0.8993 -0.0704  0.4741
 6523TIP3    H241129   3.385   0.369   1.489 -1.5883  1.4477 -1.9969
 6524TIP3   OH241130   0.445   4.635   2.122  0.2037  0.2652  0.1194
 6524TIP3    H141131   0.467   4.709   2.180 -1.5551  2.2207 -1.5231
 6524TIP3    H241132   0.381   4.672   2.060  0.3414 -2.2964 -1.6897
 6525TIP3   OH241133   1.111   0.089   8.200  0.3828  0.4035 -0.2760
 6525TIP3    H141134   1.059   0.014   8.229 -0.6752 -0.2895 -3.5662
 6525TIP3    H241135   1.070   0.117   8.118  2.4561  2.8115 -0.6207
 6526TIP3   OH241136   4.690   2.997   0.880 -0.3294  0.3024 -0.1554
 6526TIP3    H141137   4.690   2.942   0.801 -0.9234  0.7207 -0.4518
 6526TIP3    H241138   4.708   2.936   0.951 -0.7495 -0.2364 -0.5032
 6527TIP3   OH241139   4.280   5.590   0.018  0.2273  0.8368 -0.0141
 6527TIP3    H141140   4.219   5.572   0.089 -1.7324  0.1625 -1.7616
 6527TIP3    H241141   4.249   5.672  -0.021 -0.1306  0.0894 -1.4061
 6528TIP3   OH241142   0.194   1.085   1.409  0.2935 -0.6650  0.0776
 6528TIP3    H141143   0.172   1.019   1.342  0.9027 -0.8594  0.0668
 6528TIP3    H241144   0.141   1.061   1.485 -0.2361 -0.5749 -0.2569
 6529TIP3   OH241145   3.487   5.695   1.013 -0.4226  0.2910  0.1023
 6529TIP3    H141146   3.548   5.678   1.085  0.0504  0.6931 -0.1936
 6529TIP3    H241147   3.413   5.739   1.054 -0.5638 -0.2946  0.4829
 6530TIP3   OH241148   0.953   1.094   6.920 -0.3245  0.1061 -0.1727
 6530TIP3    H141149   1.015   1.055   6.982 -0.5804 -0.7854 -0.4610
 6530TIP3    H241150   1.009   1.142   6.858  0.0520 -0.4011 -0.2313
 6531TIP3   OH241151   1.007   5.393   7.909 -0.3301  0.5136  0.4356
 6531TIP3    H141152   1.000   5.475   7.861 -1.9622  0.7258  0.9865
 6531TIP3    H241153   0.970   5.411   7.995 -0.1979 -0.6337  0.7544
 6532TIP3   OH241154   3.968   0.611   7.334 -0.3493  0.3623  0.8465
 6532TIP3    H141155   3.984   0.537   7.276  0.8420  1.2059  0.0489
 6532TIP3    H241156   3.977   0.575   7.422 -0.0421 -0.4976  0.4705
 6533TIP3   OH241157   6.278   3.837   1.158 -0.2732  0.1149  0.3522
 6533TIP3    H141158   6.243   3.811   1.073  0.9041  0.0539 -0.1435
 6533TIP3    H241159   6.366   3.799   1.160 -1.7968 -4.0826  3.5888
 6534TIP3   OH241160   5.603   2.447   8.616  0.0407  0.6829  0.3495
 6534TIP3    H141161   5.516   2.409   8.605  0.3532 -0.4029  1.3155
 6534TIP3    H241162   5.592   2.540   8.596 -1.0653  0.3464 -0.7288
 6535TIP3   OH241163   2.872   0.121   6.856 -0.3191  0.1629 -0.3463
 6535TIP3    H141164   2.860   0.052   6.791 -1.7246  0.0133  0.0425
 6535TIP3    H241165   2.952   0.098   6.902 -1.2211 -1.7346  0.3740
 6536TIP3   OH241166   4.217   0.170   7.019  0.0860 -0.0087 -0.6045
 6536TIP3    H141167   4.168   0.222   6.955  0.5460  1.0182 -0.1549
 6536TIP3    H241168   4.194   0.080   7.000 -0.9573  0.3756 -1.2443
 6537TIP3   OH241169   0.390   2.597   8.463  0.1924  0.1761 -1.0439
 6537TIP3    H141170   0.313   2.541   8.452  0.3664  0.0376 -1.6021
 6537TIP3    H241171   0.460   2.550   8.416  1.5126 -1.4475  2.2359
 6538TIP3   OH241172   3.022   3.251   1.387  0.1666  0.3498  0.3760
 6538TIP3    H141173   2.971   3.264   1.467 -0.9893  0.8123 -0.4159
 6538TIP3    H241174   3.007   3.330   1.336  0.5913 -0.1008 -0.4654
 6539TIP3   OH241175   3.775   3.746   7.683 -0.0640  0.6669 -0.1681
 6539TIP3    H141176   3.751   3.777   7.595 -1.2675 -1.2087 -0.5603
 6539TIP3    H241177   3.726   3.803   7.742 -1.2428  0.3599 -0.8120
 6540TIP3   OH241178   3.356   2.658   1.153  0.6564 -0.4064  0.2543
 6540TIP3    H141179   3.420   2.587   1.141 -0.1117 -1.0284 -0.2932
 6540TIP3    H241180   3.277   2.627   1.108  0.8364  1.5638 -1.5573
 6541TIP3   OH241181   4.612   3.300   1.954 -0.0776 -0.3136  0.0551
 6541TIP3    H141182   4.622   3.294   2.049 -0.1461 -0.8459  0.0280
 6541TIP3    H241183   4.551   3.229   1.931  0.4121 -0.5720 -0.4611
 6542TIP3   OH241184   1.137   1.320   1.705  0.0783  0.2529 -0.1340
 6542TIP3    H141185   1.136   1.276   1.789  1.9555  2.1273  0.9749
 6542TIP3    H241186   1.206   1.277   1.655  0.9828  1.0083  0.4364
 6543TIP3   OH241187   2.060   1.074   7.657  0.1691  0.3406  0.2688
 6543TIP3    H141188   2.142   1.039   7.690  0.2455  0.0171 -0.2538
 6543TIP3    H241189   2.002   0.998   7.652 -0.1805  0.5736  0.6738
 6544TIP3   OH241190   1.497   5.457   1.736 -0.4792 -0.0156 -0.4604
 6544TIP3    H141191   1.446   5.486   1.660  1.5883  0.8120 -1.6125
 6544TIP3    H241192   1.456   5.503   1.810 -1.6420  0.3017 -1.2577
 6545TIP3   OH241193   3.008   5.536   1.602  0.2224 -0.0753  0.2722
 6545TIP3    H141194   2.996   5.604   1.535 -1.9462 -0.5923  0.0488
 6545TIP3    H241195   2.942   5.556   1.669  1.8909  0.0227  1.9502
 6546TIP3   OH241196   4.296   4.422   0.719  0.1312  0.5272 -0.1911
 6546TIP3    H141197   4.337   4.360   0.780  0.5539 -0.4638 -1.4433
 6546TIP3    H241198   4.320   4.508   0.753 -0.2840  0.0188  1.4626
 6547TIP3   OH241199   6.575   1.852   1.461 -0.2612  0.2301 -0.1979
 6547TIP3    H141200   6.626   1.905   1.522 -1.7914 -1.1109  2.4113
 6547TIP3    H241201   6.621   1.860   1.378  4.1887 -0.8687  1.9004
 6548TIP3   OH241202   3.305   5.521   0.608 -0.1952 -0.6476 -0.2394
 6548TIP3    H141203   3.375   5.476   0.655 -0.6911  0.9219  2.2074
 6548TIP3    H241204   3.227   5.508   0.662 -0.8838  0.9953 -0.7611
 6549TIP3   OH241205   0.356   3.903   7.860 -0.2284  0.0917  0.0411
 6549TIP3    H141206   0.433   3.898   7.803 -1.9457 -2.6133 -2.3176
 6549TIP3    H241207   0.307   3.978   7.828  1.0685  1.5327  1.2407
 6550TIP3   OH241208   0.454   4.099   8.057 -0.3495  0.0348  0.9177
 6550TIP3    H141209   0.369   4.143   8.058 -0.0510  0.7156 -0.7585
 6550TIP3    H241210   0.439   4.020   8.004 -0.2114 -0.5065  1.6551
 6551TIP3   OH241211   4.564   1.776   1.466 -0.1199 -0.3392  0.1805
 6551TIP3    H141212   4.627   1.831   1.419 -0.3491 -0.8986 -0.8246
 6551TIP3    H241213   4.541   1.827   1.544 -2.0573  2.1231 -1.7920
 6552TIP3   OH241214   2.247   4.487   8.395  0.4421 -0.3052 -0.4761
 6552TIP3    H141215   2.192   4.506   8.470  1.6480  0.4190  0.2731
 6552TIP3    H241216   2.199   4.523   8.320 -0.8697 -1.2304 -0.0994
 6553TIP3   OH241217   0.800   2.061   1.630 -0.5469  0.2233 -0.0441
 6553TIP3    H141218   0.834   2.004   1.561  1.0870  1.4054 -0.2827
 6553TIP3    H241219   0.811   2.010   1.710  0.3427 -0.0408 -0.3215
 6554TIP3   OH241220   3.230   0.289   8.126  0.8960 -0.4763 -0.0942
 6554TIP3    H141221   3.269   0.213   8.168  1.6003  0.5986  1.2828
 6554TIP3    H241222   3.226   0.355   8.195 -0.4773  0.4761 -1.0291
 6555TIP3   OH241223   1.779   3.771   7.825 -0.4845 -0.1777  0.4494
 6555TIP3    H141224   1.753   3.701   7.885  1.4067  0.0177  1.5844
 6555TIP3    H241225   1.862   3.741   7.787 -1.1889  0.1109 -1.4319
 6556TIP3   OH241226   5.127   2.957   8.608  0.2609  0.4059  0.3679
 6556TIP3    H141227   5.191   2.889   8.627  1.5165  1.5481  0.3868
 6556TIP3    H241228   5.087   2.976   8.692  0.4899  0.2532  0.5118
 6557TIP3   OH241229   6.685   5.084   6.984 -0.5933  0.3853 -0.2212
 6557TIP3    H141230   6.661   4.991   6.984 -1.3946  0.5831 -0.3151
 6557TIP3    H241231   6.662   5.114   7.072  1.4187  0.0770  0.4522
 6558TIP3   OH241232   4.425   4.288   2.119  0.0562 -0.1346 -0.5267
 6558TIP3    H141233   4.366   4.235   2.173  2.4001  0.8881  3.3560
 6558TIP3    H241234   4.389   4.376   2.122 -1.6107 -0.5774 -3.6308
 6559TIP3   OH241235   0.898   4.191   1.729  0.0679 -0.3774 -0.2260
 6559TIP3    H141236   0.825   4.168   1.672 -0.4829  0.5422  0.1015
 6559TIP3    H241237   0.916   4.283   1.710 -0.9314  0.3374  1.9127
 6560TIP3   OH241238   5.714   5.652   7.821  0.3644 -0.1630 -0.1803
 6560TIP3    H141239   5.776   5.720   7.792 -0.2631  0.0864 -0.9588
 6560TIP3    H241240   5.701   5.597   7.744  0.7287 -1.0755  0.4011
 6561TIP3   OH241241   1.042   1.756   2.087  0.1010 -0.6031 -0.6348
 6561TIP3    H141242   0.947   1.741   2.083 -0.0218  0.0719 -0.3618
 6561TIP3    H241243   1.059   1.777   2.179  0.2095  1.1979 -1.0319
 6562TIP3   OH241244   6.235   3.008   6.678  0.0563  0.2318 -0.5137
 6562TIP3    H141245   6.233   3.096   6.714 -0.1196  0.0042  0.0435
 6562TIP3    H241246   6.171   2.959   6.730  0.7027 -0.4117 -0.3021
 6563TIP3   OH241247   0.309   4.347   7.196  0.3232 -0.4563 -0.4205
 6563TIP3    H141248   0.278   4.263   7.162 -0.2973 -0.5456  0.3388
 6563TIP3    H241249   0.333   4.329   7.287 -2.0770  0.6814  0.5005
 6564TIP3   OH241250   4.389   0.450   7.918  0.0252  0.1391 -0.2012
 6564TIP3    H141251   4.405   0.364   7.956  0.2583 -0.4016 -1.4899
 6564TIP3    H241252   4.294   0.460   7.922  0.1417  1.2472  2.8994
 6565TIP3   OH241253   6.739   3.050   7.076 -0.2308  0.2468 -0.2050
 6565TIP3    H141254   6.663   3.041   7.133  0.1855  1.2493  0.5215
 6565TIP3    H241255   6.732   2.975   7.015 -1.6007  0.1396  0.0550
 6566TIP3   OH241256   2.539   3.944   1.517  0.2953 -0.2500  0.1552
 6566TIP3    H141257   2.448   3.968   1.530  0.1305 -1.7375  2.3445
 6566TIP3    H241258   2.541   3.849   1.532  1.9887 -0.4861 -1.2383
 6567TIP3   OH241259   1.210   2.472   2.692  0.0043 -0.1592 -0.4201
 6567TIP3    H141260   1.208   2.376   2.692 -0.7659 -0.1540 -0.8217
 6567TIP3    H241261   1.153   2.497   2.619  0.5233  0.6031 -0.5764
 6568TIP3   OH241262   0.122   5.836   1.401 -0.1470 -0.2296 -0.0869
 6568TIP3    H141263   0.197   5.780   1.419  0.0054  0.2282  0.7016
 6568TIP3    H241264   0.050   5.774   1.383 -0.3554 -0.7459  2.2231
 6569TIP3   OH241265   0.373   3.868   1.281  0.4131  0.0815 -0.0784
 6569TIP3    H141266   0.286   3.829   1.289 -0.4017  1.7934 -0.2149
 6569TIP3    H241267   0.422   3.807   1.225  0.0196 -2.0125  1.7123
 6570TIP3   OH241268   1.115   1.021   8.816 -0.2204 -0.0091  0.4251
 6570TIP3    H141269   1.126   0.929   8.841 -1.3006 -0.7101 -1.4483
 6570TIP3    H241270   1.167   1.031   8.736  0.0174  1.0599  0.6942
 6571TIP3   OH241271   4.162   0.441   0.675 -0.3030 -0.6209  0.7902
 6571TIP3    H141272   4.174   0.350   0.649 -1.8706 -0.1284 -2.1658
 6571TIP3    H241273   4.243   0.465   0.720  0.4004 -3.2679  1.0592
 6572TIP3   OH241274   2.338   4.157   8.416  0.6237  0.1521  0.1124
 6572TIP3    H141275   2.312   4.196   8.499 -0.4836  0.6255 -0.4361
 6572TIP3    H241276   2.347   4.230   8.356 -0.1407 -0.3046 -0.5810
 6573TIP3   OH241277   1.593   0.174   0.426  0.3957 -0.2387 -0.7998
 6573TIP3    H141278   1.613   0.084   0.401 -1.8697 -1.1966  0.5161
 6573TIP3    H241279   1.648   0.190   0.503  0.0621 -0.9047 -0.4100
 6574TIP3   OH241280   3.531   1.938   7.592 -0.5211  0.1093 -0.2992
 6574TIP3    H141281   3.503   1.946   7.684  1.8716 -1.6430  0.6856
 6574TIP3    H241282   3.450   1.915   7.545 -1.8827  1.4501  1.2462
 6575TIP3   OH241283   6.357   4.568   0.656 -0.2972  0.2594 -0.4392
 6575TIP3    H141284   6.412   4.644   0.637 -0.3196  0.4407  0.2180
 6575TIP3    H241285   6.398   4.526   0.732 -0.4559 -0.2190 -0.6120
 6576TIP3   OH241286   1.310   4.427   1.073  0.0356 -0.1386 -0.0052
 6576TIP3    H141287   1.300   4.436   1.168  1.9743  0.6592  0.1723
 6576TIP3    H241288   1.334   4.515   1.043 -2.2298  0.0396 -1.5315
 6577TIP3   OH241289   0.013   3.838   7.057 -0.8730 -0.2982  0.1715
 6577TIP3    H141290  -0.081   3.832   7.038 -1.1312 -0.5782  1.4709
 6577TIP3    H241291   0.018   3.875   7.145  0.1698 -1.8607  0.8221
 6578TIP3   OH241292   1.483   2.055   0.195  0.3144  0.0631  0.0189
 6578TIP3    H141293   1.420   2.000   0.149  1.4476  0.0583 -1.6346
 6578TIP3    H241294   1.562   2.000   0.201  0.9246  0.9142 -0.1152
 6579TIP3   OH241295   2.546   2.800   1.740 -0.1521 -0.2177  0.2938
 6579TIP3    H141296   2.611   2.742   1.701 -0.5999 -1.0567  0.7828
 6579TIP3    H241297   2.579   2.888   1.721 -0.4348 -0.5654 -2.1376
 6580TIP3   OH241298   1.761   0.372   0.634 -0.1268  0.1030 -0.1855
 6580TIP3    H141299   1.770   0.330   0.719 -0.0266  0.5272  0.0187
 6580TIP3    H241300   1.710   0.451   0.652  0.7316  0.7061 -0.3409
 6581TIP3   OH241301   4.915   0.725   0.486 -0.0950  0.6901 -0.3340
 6581TIP3    H141302   4.850   0.722   0.556  0.1687  1.1431 -0.0688
 6581TIP3    H241303   4.999   0.729   0.531  0.1774 -0.7444 -0.6706
 6582TIP3   OH241304   4.657   0.799   2.059 -0.1358 -0.0889  0.4571
 6582TIP3    H141305   4.721   0.871   2.061  0.3594 -0.5286  0.6346
 6582TIP3    H241306   4.609   0.807   2.141  1.4380 -1.3145  1.5308
 6583TIP3   OH241307   4.712   6.471   0.773 -0.3257  0.1322  0.0473
 6583TIP3    H141308   4.671   6.549   0.811  0.3143  1.0706 -1.1147
 6583TIP3    H241309   4.806   6.488   0.780 -0.1752  0.3940 -1.9730
 6584TIP3   OH241310   2.167   5.186   1.680 -0.6177  0.2071  0.7517
 6584TIP3    H141311   2.141   5.129   1.608  1.7832 -0.4534  0.3016
 6584TIP3    H241312   2.166   5.129   1.757  3.9062 -1.3536 -0.0217
 6585TIP3   OH241313   5.071   5.757   0.124  0.4881 -0.1326 -0.6077
 6585TIP3    H141314   5.111   5.841   0.146  0.2914  0.1770 -1.3922
 6585TIP3    H241315   5.139   5.692   0.144  1.1846  0.3389 -1.3812
 6586TIP3   OH241316   0.136   3.043   6.645 -0.2532  0.6613 -0.6273
 6586TIP3    H141317   0.076   3.083   6.583 -0.4358 -0.1031 -0.9467
 6586TIP3    H241318   0.080   3.010   6.716 -0.2156  0.0100 -0.8923
 6587TIP3   OH241319   0.919   3.402   7.269 -0.3442  0.4768 -0.8777
 6587TIP3    H141320   0.884   3.463   7.334 -0.0685  0.0156 -0.2794
 6587TIP3    H241321   0.965   3.336   7.321  1.2564  0.9547 -1.6261
 6588TIP3   OH241322   0.097   4.759   7.859  0.6509  0.4790  0.2336
 6588TIP3    H141323   0.119   4.715   7.776  0.6318 -1.3852  1.1578
 6588TIP3    H241324   0.002   4.751   7.864  0.5991  1.0576  0.2029
 6589TIP3   OH241325   5.537   2.891   1.188 -0.0351  0.0869  0.4379
 6589TIP3    H141326   5.512   2.910   1.098  0.0696 -2.0040 -0.0677
 6589TIP3    H241327   5.503   2.966   1.238 -0.0477  1.3081 -1.3052
 6590TIP3   OH241328   2.626   1.029   8.033 -0.5519  0.0892  0.2909
 6590TIP3    H141329   2.712   1.070   8.041 -0.7631  0.4801  0.5939
 6590TIP3    H241330   2.567   1.087   8.082 -0.4241 -1.9930  3.1717
 6591TIP3   OH241331   1.140   1.594   1.215  0.6589  0.1747  0.1284
 6591TIP3    H141332   1.156   1.621   1.125  1.4248 -0.8637 -0.0647
 6591TIP3    H241333   1.176   1.506   1.220  0.3416  0.1004  1.3728
 6592TIP3   OH241334   3.095   6.164   0.225  0.4073  0.3121 -0.0192
 6592TIP3    H141335   3.007   6.174   0.261 -0.7466 -1.7027 -2.0524
 6592TIP3    H241336   3.108   6.069   0.221  2.5593  0.5681 -0.1150
 6593TIP3   OH241337   0.410   2.295   0.913  0.3542  0.0261 -0.0874
 6593TIP3    H141338   0.473   2.241   0.864 -0.3020  0.0396 -0.9819
 6593TIP3    H241339   0.444   2.384   0.905  0.4027 -0.0085 -0.2940
 6594TIP3   OH241340   6.735   1.583   8.642  0.3883  0.1921 -0.1388
 6594TIP3    H141341   6.702   1.595   8.553  1.2572 -0.7383 -0.6099
 6594TIP3    H241342   6.676   1.519   8.681  0.1025  0.4795 -0.0945
 6595TIP3   OH241343   4.911   3.515   8.671  0.8071  0.6407 -0.1789
 6595TIP3    H141344   4.914   3.599   8.717  0.5553  1.3093 -1.3432
 6595TIP3    H241345   4.822   3.510   8.635  0.4593 -0.6335  0.7583
 6596TIP3   OH241346   0.531   1.758   0.580 -0.2107 -0.0399 -0.3062
 6596TIP3    H141347   0.612   1.774   0.627  0.1262 -0.1271 -0.8539
 6596TIP3    H241348   0.529   1.825   0.512 -0.7315  0.1327 -0.1270
 6597TIP3   OH241349   6.436   1.561   7.686  0.3903  0.2945 -0.1611
 6597TIP3    H141350   6.431   1.619   7.610  0.6224  1.9269  1.0488
 6597TIP3    H241351   6.529   1.540   7.694  0.1197 -1.9675 -1.7907
 6598TIP3   OH241352   2.162   0.097   0.081 -0.0590 -0.3218 -0.2089
 6598TIP3    H141353   2.112   0.165   0.125 -0.3745 -0.1477 -0.8185
 6598TIP3    H241354   2.246   0.094   0.127 -0.6401 -0.6586  0.8691
 6599TIP3   OH241355   0.821   0.032   1.045  0.2619  0.4434  0.4345
 6599TIP3    H141356   0.907  -0.010   1.052  0.2865  0.5906  1.0355
 6599TIP3    H241357   0.799   0.057   1.134 -0.0881  1.0495  0.1831
 6600TIP3   OH241358   3.083   0.087   0.443  0.6535 -0.1092  0.5581
 6600TIP3    H141359   3.143   0.073   0.517 -0.5129 -2.1915  1.2023
 6600TIP3    H241360   3.116   0.030   0.374  0.1171 -0.3683  0.5071
 6601TIP3   OH241361   2.084   6.763   7.912 -0.4530 -0.9087  0.9680
 6601TIP3    H141362   1.997   6.769   7.873 -0.3897 -1.3472  0.7533
 6601TIP3    H241363   2.131   6.838   7.877 -0.6167 -0.9051  0.7551
 6602TIP3   OH241364   2.406   1.428   7.041  0.1687 -0.1114 -0.0536
 6602TIP3    H141365   2.437   1.363   6.979 -3.4824 -1.9611 -0.2238
 6602TIP3    H241366   2.373   1.500   6.987 -0.2840 -0.3799 -0.1416
 6603TIP3   OH241367   4.829   1.222   8.571  0.5584 -0.1630 -0.5314
 6603TIP3    H141368   4.924   1.205   8.566  0.8055  1.5254 -3.2714
 6603TIP3    H241369   4.790   1.154   8.516  0.3063  0.0491 -0.6124
 6604TIP3   OH241370   3.238   3.558   0.450  0.2704  0.2568  0.1092
 6604TIP3    H141371   3.156   3.605   0.435  0.7829  0.6274 -1.6778
 6604TIP3    H241372   3.257   3.574   0.543 -2.1476 -0.6509  0.8537
 6605TIP3   OH241373   1.598   6.767   2.443 -0.2060 -0.3000 -0.4029
 6605TIP3    H141374   1.510   6.738   2.416 -1.8720  1.3980  2.6076
 6605TIP3    H241375   1.623   6.831   2.377 -2.1242  0.5201 -0.4191
 6606TIP3   OH241376   5.015   1.039   0.768 -0.0061 -0.2422  0.0916
 6606TIP3    H141377   5.092   0.983   0.775  0.9046  0.7086 -1.6107
 6606TIP3    H241378   4.953   0.987   0.715 -0.1069 -0.5463  0.4980
 6607TIP3   OH241379   3.999   4.612   8.136  0.3202  0.1410  0.3918
 6607TIP3    H141380   4.076   4.669   8.140  0.4994  0.1686 -1.9944
 6607TIP3    H241381   3.977   4.608   8.043 -3.0561  0.7644  1.0178
 6608TIP3   OH241382   0.071   4.598   7.300 -0.0341  0.0468 -0.4052
 6608TIP3    H141383   0.024   4.613   7.218 -0.0161  1.0477 -0.2382
 6608TIP3    H241384   0.138   4.666   7.302 -0.1742  0.1656  0.5501
 6609TIP3   OH241385   3.036   4.782   8.058  0.1650 -0.0032 -0.4186
 6609TIP3    H141386   3.125   4.807   8.084  0.1234  0.8472 -1.0718
 6609TIP3    H241387   2.993   4.864   8.036  0.2279 -0.6376 -3.2542
 6610TIP3   OH241388   5.102   3.268   1.073  0.1310  0.9591 -0.6618
 6610TIP3    H141389   5.116   3.332   1.003 -0.9318  0.8990 -0.9570
 6610TIP3    H241390   5.133   3.185   1.036  0.7416  1.1481 -0.5849
 6611TIP3   OH241391   5.322   1.328   8.728  0.4341  0.4314  0.0395
 6611TIP3    H141392   5.233   1.341   8.759  0.2078 -0.1802 -0.3302
 6611TIP3    H241393   5.354   1.416   8.708  0.3351  0.7676  1.2812
 6612TIP3   OH241394   1.367   5.193   2.485 -0.0194  0.4845 -0.5842
 6612TIP3    H141395   1.414   5.264   2.442  0.9088  0.7321  0.7863
 6612TIP3    H241396   1.331   5.233   2.565 -2.1677  0.1831 -1.3250
 6613TIP3   OH241397   3.085   5.064   1.324 -0.2917  0.4930 -0.0395
 6613TIP3    H141398   3.000   5.046   1.284  0.8235  0.0023 -2.3635
 6613TIP3    H241399   3.098   5.158   1.310 -0.2220  0.4570 -0.2324
 6614TIP3   OH241400   0.146   5.302   1.265 -0.2165 -0.0745 -0.1882
 6614TIP3    H141401   0.085   5.326   1.335  0.3515  0.1474  0.2447
 6614TIP3    H241402   0.233   5.312   1.305  0.0798 -1.4742 -0.4444
 6615TIP3   OH241403   5.158   4.023   6.948  0.6930 -0.5377  0.0557
 6615TIP3    H141404   5.169   4.117   6.960  0.9728 -0.8159  2.4881
 6615TIP3    H241405   5.233   3.984   6.994  1.4307 -1.9700 -2.1691
 6616TIP3   OH241406   5.114   6.567   8.014  0.5196  0.5604 -0.0808
 6616TIP3    H141407   5.099   6.611   7.930 -1.9740 -0.0051 -0.0077
 6616TIP3    H241408   5.131   6.476   7.990  0.4659  0.5305 -0.0063
 6617TIP3   OH241409   1.373   1.161   7.674  0.7600 -0.2238 -0.7663
 6617TIP3    H141410   1.355   1.091   7.736 -0.3459  0.8846  0.2253
 6617TIP3    H241411   1.390   1.238   7.729  0.5171  0.6170 -1.8315
 6618TIP3   OH241412   2.972   5.933   2.015 -0.6633 -0.1195  0.2656
 6618TIP3    H141413   3.009   5.987   2.085  1.9441  1.4829 -2.1325
 6618TIP3    H241414   3.010   5.847   2.028  0.2330  0.3106  0.5547
 6619TIP3   OH241415   5.415   5.964   8.831  0.4390 -0.0558  0.5122
 6619TIP3    H141416   5.387   5.879   8.798  0.3923  0.2155 -0.1778
 6619TIP3    H241417   5.442   5.948   8.921 -0.8383 -0.5526  0.8288
 6620TIP3   OH241418   2.199   5.345   2.402 -0.1357  0.0151 -0.0566
 6620TIP3    H141419   2.278   5.313   2.359  0.2311  0.4339  0.2844
 6620TIP3    H241420   2.213   5.325   2.495  0.5294  1.9244  0.3091
 6621TIP3   OH241421   0.620   5.849   0.897 -0.1466 -0.2158  0.2528
 6621TIP3    H141422   0.710   5.876   0.880 -0.5297  0.6119 -0.5631
 6621TIP3    H241423   0.574   5.931   0.914 -0.9873 -0.5025 -0.5484
 6622TIP3   OH241424   5.639   0.622   8.530 -0.3841 -0.8194  0.3723
 6622TIP3    H141425   5.602   0.654   8.612  1.0782  0.5349  0.5459
 6622TIP3    H241426   5.663   0.531   8.549 -0.8432 -0.7844  1.1776
 6623TIP3   OH241427   4.739   5.118   8.674 -0.1668  0.4965  0.4823
 6623TIP3    H141428   4.785   5.035   8.662  0.4460  0.8377  0.3843
 6623TIP3    H241429   4.776   5.176   8.607  0.7628  1.3831  1.6921
 6624TIP3   OH241430   6.608   0.941   2.727  0.3993 -0.4686 -0.0419
 6624TIP3    H141431   6.611   0.887   2.648 -1.2954 -0.3414 -0.2204
 6624TIP3    H241432   6.654   1.021   2.703 -1.4268  0.2237 -1.4490
 6625TIP3   OH241433   0.998   5.635   7.729 -0.2224  0.3109  0.2765
 6625TIP3    H141434   0.941   5.626   7.654 -0.5865  0.9568  0.4656
 6625TIP3    H241435   0.939   5.646   7.804  0.1072 -1.4374  0.8338
 6626TIP3   OH241436   2.748   4.994   0.742 -0.7434  0.5091 -0.2583
 6626TIP3    H141437   2.820   5.055   0.724  0.9012 -0.6862  1.8104
 6626TIP3    H241438   2.672   5.050   0.755  0.4122  2.0428  0.2480
 6627TIP3   OH241439   1.372   3.454   0.005  0.2703 -0.1237 -0.3004
 6627TIP3    H141440   1.302   3.493   0.057  1.4520  0.2661  1.0660
 6627TIP3    H241441   1.357   3.360   0.009 -1.2121  0.0105 -1.5991
 6628TIP3   OH241442   4.012   5.161   1.632 -0.2370 -0.3543  0.7031
 6628TIP3    H141443   3.974   5.087   1.679  0.4798 -0.0858  1.7459
 6628TIP3    H241444   4.067   5.121   1.565  0.0908 -0.7597  1.2116
 6629TIP3   OH241445   2.210   1.017   6.926  0.3817 -0.0611 -0.1565
 6629TIP3    H141446   2.216   1.073   6.848  1.8670 -1.7048 -1.3116
 6629TIP3    H241447   2.170   0.936   6.894 -1.0175 -0.0042  1.3094
 6630TIP3   OH241448   1.667   2.378   1.860  0.2161 -0.3665 -0.2474
 6630TIP3    H141449   1.573   2.360   1.853 -0.3293  2.5538 -3.9948
 6630TIP3    H241450   1.673   2.446   1.927  0.2635 -2.7696  2.3785
 6631TIP3   OH241451   1.888   1.273   7.483  1.0838 -0.3531  0.6010
 6631TIP3    H141452   1.952   1.202   7.494  1.1495 -0.3500  0.2523
 6631TIP3    H241453   1.843   1.278   7.568  1.4213 -0.4769  0.7891
 6632TIP3   OH241454   1.709   1.476   7.674  0.1509  0.2247  0.2611
 6632TIP3    H141455   1.741   1.513   7.591 -0.7844  1.2557  0.3453
 6632TIP3    H241456   1.614   1.481   7.668 -0.0298 -2.1464  0.3207
 6633TIP3   OH241457   0.925   5.951   0.077 -0.0963 -0.6929  0.3712
 6633TIP3    H141458   1.015   5.967   0.106 -0.3851 -0.6845  1.2924
 6633TIP3    H241459   0.930   5.956  -0.019  0.9869 -1.2593  0.3790
 6634TIP3   OH241460   4.522   3.853   7.570  1.0151 -0.1549 -0.1909
 6634TIP3    H141461   4.428   3.870   7.574  0.6849 -1.3880 -1.7364
 6634TIP3    H241462   4.562   3.935   7.597 -0.4995  0.2333  0.9821
 6635TIP3   OH241463   4.709   4.270   7.378  0.2670 -0.0222  0.1105
 6635TIP3    H141464   4.704   4.366   7.378  1.0744  0.0849  2.4674
 6635TIP3    H241465   4.629   4.242   7.335 -1.4278  1.7419  1.8767
 6636TIP3   OH241466   6.543   3.054   7.254 -0.1084  0.3166 -0.3798
 6636TIP3    H141467   6.536   3.149   7.263 -1.1647  0.1689  0.7176
 6636TIP3    H241468   6.503   3.020   7.334 -1.4678 -1.0730 -1.5891
 6637TIP3   OH241469   3.093   3.684   7.147  0.0259 -0.0177  0.3157
 6637TIP3    H141470   3.076   3.773   7.180  1.1691  0.3732 -0.1157
 6637TIP3    H241471   3.138   3.698   7.064 -0.5330 -1.0089 -0.1610
 6638TIP3   OH241472   6.609   2.877   1.158  0.0530  0.1716 -0.1964
 6638TIP3    H141473   6.563   2.858   1.240 -0.4433 -0.9090 -0.7014
 6638TIP3    H241474   6.662   2.954   1.177 -3.7828  3.0941 -0.2338
 6639TIP3   OH241475   0.565   3.435   7.429  0.4653 -0.6641 -0.0665
 6639TIP3    H141476   0.489   3.409   7.378  1.3341 -2.9920 -0.2599
 6639TIP3    H241477   0.612   3.497   7.373  0.6311 -2.0552 -1.5027
 6640TIP3   OH241478   5.494   6.748   8.221 -0.4639  0.6688 -0.4470
 6640TIP3    H141479   5.448   6.755   8.305 -0.4242 -0.5081 -0.3076
 6640TIP3    H241480   5.580   6.712   8.244  0.1353  1.8106 -0.8319
 6641TIP3   OH241481   2.460   5.983   6.307 -0.0112 -0.0222 -0.5756
 6641TIP3    H141482   2.439   5.893   6.285  0.4051 -0.7988  1.9048
 6641TIP3    H241483   2.541   5.978   6.357 -1.5696  1.2578  2.3955
 6642TIP3   OH241484   5.799   4.940   1.374  0.1315 -0.0754  0.6023
 6642TIP3    H141485   5.880   4.982   1.348 -1.0213  1.3758 -0.8955
 6642TIP3    H241486   5.754   5.005   1.428 -0.0256 -0.8967  1.4970
 6643TIP3   OH241487   3.453   1.192   0.944 -0.1174  0.1352 -0.1733
 6643TIP3    H141488   3.377   1.147   0.906 -0.2055 -0.3710  0.5789
 6643TIP3    H241489   3.523   1.179   0.880 -0.2012 -0.9006 -0.0725
 6644TIP3   OH241490   1.149   1.901   8.737  0.5378 -0.1522 -0.3029
 6644TIP3    H141491   1.054   1.894   8.745  0.4263  0.0624 -1.2483
 6644TIP3    H241492   1.166   1.876   8.646  1.1205  2.3629 -0.9404
 6645TIP3   OH241493   6.077   1.241   1.383  0.3757 -0.2567 -0.0767
 6645TIP3    H141494   6.157   1.245   1.435  1.2860 -0.2506 -1.3989
 6645TIP3    H241495   6.085   1.315   1.322 -0.1699 -0.8129 -0.8540
 6646TIP3   OH241496   4.619   1.150   6.864  0.0520  0.1134 -0.3434
 6646TIP3    H141497   4.685   1.117   6.803 -1.8199 -2.3009 -1.2247
 6646TIP3    H241498   4.647   1.116   6.949  1.6721  1.9535 -0.0563
 6647TIP3   OH241499   2.203   2.287   0.210  0.1092 -0.5520  0.0217
 6647TIP3    H141500   2.172   2.377   0.218 -0.4455 -0.6060 -1.2674
 6647TIP3    H241501   2.298   2.295   0.206  0.1054 -0.0963  0.6152
 6648TIP3   OH241502   3.243   5.518   7.804  0.2433  0.3573 -0.0469
 6648TIP3    H141503   3.299   5.460   7.752  0.6166  1.0877 -0.4798
 6648TIP3    H241504   3.218   5.588   7.744 -2.1718 -0.5703 -0.2284
 6649TIP3   OH241505   2.145   2.619   1.746  0.1345 -0.1672 -0.3747
 6649TIP3    H141506   2.226   2.590   1.704 -0.2915 -0.5585 -0.9496
 6649TIP3    H241507   2.094   2.538   1.757 -2.1604  0.4790 -4.2777
 6650TIP3   OH241508   6.691   1.172   1.256 -0.7308 -0.0004 -0.3857
 6650TIP3    H141509   6.637   1.244   1.225 -0.7535  0.6029  0.9672
 6650TIP3    H241510   6.776   1.212   1.274 -0.1936 -0.6835 -1.2818
 6651TIP3   OH241511   6.349   4.488   1.464  0.6908 -0.6407 -0.2971
 6651TIP3    H141512   6.409   4.515   1.533  2.0911  0.5260 -1.8533
 6651TIP3    H241513   6.407   4.452   1.396  0.0673  2.7201 -2.8892
 6652TIP3   OH241514   0.314   5.570   0.443 -0.0912  0.4152 -0.3851
 6652TIP3    H141515   0.296   5.546   0.534  0.8978 -1.2492 -0.5932
 6652TIP3    H241516   0.234   5.548   0.396 -0.1011 -0.0751 -0.1422
 6653TIP3   OH241517   3.421   4.006   0.379  0.6962 -0.1273  0.0009
 6653TIP3    H141518   3.345   3.947   0.380  0.4359  0.2035  0.0284
 6653TIP3    H241519   3.402   4.068   0.309  0.3017  0.7767  0.8890
 6654TIP3   OH241520   0.246   0.527   0.817  0.1413  0.4354  0.2147
 6654TIP3    H141521   0.251   0.541   0.912 -1.1405  0.2541  0.3326
 6654TIP3    H241522   0.177   0.461   0.807  0.8182 -0.1369 -0.8012
 6655TIP3   OH241523   6.653   2.074   1.883 -0.0674 -0.0029 -0.0078
 6655TIP3    H141524   6.703   2.137   1.934  0.9056 -0.1535 -0.7548
 6655TIP3    H241525   6.716   2.034   1.824 -0.7822 -1.2659  0.0379
 6656TIP3   OH241526   4.576   2.451   7.773  0.2977  0.0651  0.1740
 6656TIP3    H141527   4.535   2.367   7.793 -0.6612  0.7328  1.0900
 6656TIP3    H241528   4.633   2.468   7.848 -1.5991  1.5066  1.3822
 6657TIP3   OH241529   1.779   0.147   1.605  0.5393 -0.1505 -0.2095
 6657TIP3    H141530   1.810   0.232   1.634  0.8892 -0.1226 -0.6482
 6657TIP3    H241531   1.859   0.098   1.584  0.3397 -0.5604 -0.0372
 6658TIP3   OH241532   5.870   1.075   1.441  0.4477 -0.6467 -0.2003
 6658TIP3    H141533   5.939   1.138   1.417  0.3283 -0.4766 -0.0970
 6658TIP3    H241534   5.790   1.112   1.403  0.2152 -0.2611  0.6489
 6659TIP3   OH241535   5.085   0.687   2.185  0.3131  0.1045 -0.1304
 6659TIP3    H141536   4.995   0.710   2.208  0.7886  1.3448  0.6357
 6659TIP3    H241537   5.124   0.657   2.268  0.7352  0.0519 -0.3438
 6660TIP3   OH241538   1.243   1.097   8.028 -0.3453  0.5097 -0.3769
 6660TIP3    H141539   1.337   1.114   8.025  0.1397 -1.8415 -0.7281
 6660TIP3    H241540   1.225   1.075   8.119 -0.0699 -1.1428 -0.6826
 6661TIP3   OH241541   3.751   1.629   0.096  0.8314 -0.3757 -0.6363
 6661TIP3    H141542   3.700   1.708   0.115  1.1062  0.1299 -1.8882
 6661TIP3    H241543   3.702   1.558   0.136 -0.7270  0.1214 -1.6153
 6662TIP3   OH241544   5.795   5.918   7.773 -0.6436 -0.8651  0.1280
 6662TIP3    H141545   5.719   5.972   7.750 -1.1554 -0.9484  1.5677
 6662TIP3    H241546   5.870   5.976   7.759 -1.2028  0.3760  1.9447
 6663TIP3   OH241547   0.841   3.956   7.135 -0.4006  0.5061  0.3895
 6663TIP3    H141548   0.911   3.988   7.078  0.3723  0.3550  1.2372
 6663TIP3    H241549   0.856   4.000   7.219 -0.6124 -0.4198  0.9260
 6664TIP3   OH241550   4.269   6.523   7.335  0.3561  0.3072 -0.3760
 6664TIP3    H141551   4.266   6.459   7.264 -1.3123 -0.8288  0.6333
 6664TIP3    H241552   4.250   6.471   7.414  1.2180  1.6836  0.7820
 6665TIP3   OH241553   6.088   6.336   0.837 -0.1915  0.2117 -0.3871
 6665TIP3    H141554   6.047   6.332   0.924  0.0315  0.3971 -0.2710
 6665TIP3    H241555   6.155   6.403   0.846 -0.0047  0.0604 -0.6350
 6666TIP3   OH241556   5.532   6.136   1.982 -0.3826  0.2181 -1.1801
 6666TIP3    H141557   5.450   6.185   1.983 -1.4383 -1.3493 -2.8878
 6666TIP3    H241558   5.513   6.055   2.030  0.9044  0.8166  0.4247
 6667TIP3   OH241559   0.514   4.841   8.762  0.1990 -0.3008 -0.2953
 6667TIP3    H141560   0.559   4.877   8.838  0.5324  0.0008 -0.6323
 6667TIP3    H241561   0.471   4.916   8.721  0.2337 -0.4172 -0.5506
 6668TIP3   OH241562   0.178   5.996   7.875  0.2925  0.4776  0.2020
 6668TIP3    H141563   0.184   5.992   7.971 -0.9821  0.4365  0.3008
 6668TIP3    H241564   0.139   5.912   7.851 -1.4350  1.3350 -0.1411
 6669TIP3   OH241565   5.845   4.026   8.832 -0.2204  0.1112 -0.1506
 6669TIP3    H141566   5.932   4.058   8.810  0.1740  0.6408  2.0073
 6669TIP3    H241567   5.858   3.964   8.903 -1.5776 -0.1591 -0.0953
 6670TIP3   OH241568   4.484   5.965   2.080  0.5542 -0.1766 -0.2607
 6670TIP3    H141569   4.514   6.011   2.159 -1.7410  0.9985  0.0036
 6670TIP3    H241570   4.564   5.940   2.035  1.9896  3.3806  0.0168
 6671TIP3   OH241571   3.777   5.262   1.542 -0.2218  0.2244 -0.5531
 6671TIP3    H141572   3.739   5.186   1.499  1.6388  0.1245 -2.1357
 6671TIP3    H241573   3.835   5.225   1.609  0.1950  0.2601 -0.8922
 6672TIP3   OH241574   0.755   2.855   2.494  0.0397 -0.3728  0.2011
 6672TIP3    H141575   0.753   2.854   2.590 -0.2096 -2.7185  0.2299
 6672TIP3    H241576   0.671   2.893   2.469 -0.1353 -0.2821  0.9067
 6673TIP3   OH241577   1.658   5.048   1.078  0.1976  0.0577 -0.4813
 6673TIP3    H141578   1.629   4.997   1.154  1.4909 -2.1179 -1.3478
 6673TIP3    H241579   1.628   5.137   1.096  0.4985 -0.3501  2.5821
 6674TIP3   OH241580   4.954   5.286   2.653  0.2382  0.2762 -0.4363
 6674TIP3    H141581   4.990   5.374   2.641  0.1681  0.2785 -0.6301
 6674TIP3    H241582   4.960   5.246   2.566  1.7049 -0.4528 -0.0295
 6675TIP3   OH241583   3.926   1.544   7.156  0.1608 -0.2714 -0.1221
 6675TIP3    H141584   3.836   1.515   7.169  0.0477  0.7258  1.6608
 6675TIP3    H241585   3.980   1.468   7.176 -0.2607 -0.7831 -0.9017
 6676TIP3   OH241586   2.669   4.120   0.745  0.1403 -0.2012  0.8614
 6676TIP3    H141587   2.605   4.186   0.772 -0.4578 -0.3515 -0.1359
 6676TIP3    H241588   2.713   4.159   0.670  0.5308 -0.5069  0.9303
 6677TIP3   OH241589   0.392   0.353   0.031 -0.2585  0.1205 -0.0822
 6677TIP3    H141590   0.401   0.402  -0.051  0.5569  1.8540  0.9892
 6677TIP3    H241591   0.327   0.401   0.081  1.2009  0.6802  1.3600
 6678TIP3   OH241592   2.839   2.906   0.179 -0.0626  0.2663 -0.2358
 6678TIP3    H141593   2.905   2.918   0.112  0.4467  0.1331  0.2374
 6678TIP3    H241594   2.802   2.994   0.193  0.3180  0.4190 -0.1884
 6679TIP3   OH241595   0.482   1.492   0.590  0.0330 -0.1956  0.3527
 6679TIP3    H141596   0.561   1.477   0.641  0.6113 -1.0492 -0.7563
 6679TIP3    H241597   0.472   1.587   0.587  1.2608 -0.0612  0.1571
 6680TIP3   OH241598   4.956   4.939   8.757 -0.2599  0.2816  0.1680
 6680TIP3    H141599   4.991   4.885   8.687  0.2039 -1.1074  1.4183
 6680TIP3    H241600   5.034   4.972   8.803 -0.5400 -0.7806  1.4535
 6681TIP3   OH241601   1.374   5.598   7.296 -0.3301  0.1722 -0.1467
 6681TIP3    H141602   1.445   5.601   7.232 -0.9697  1.1290 -0.8363
 6681TIP3    H241603   1.417   5.612   7.380  0.2180  1.4673 -0.6241
 6682TIP3   OH241604   1.024   0.743   0.138  0.1823  0.1919 -0.1756
 6682TIP3    H141605   0.988   0.750   0.227 -0.5923  0.7146 -0.5163
 6682TIP3    H241606   0.959   0.692   0.090 -0.0477  1.0039 -0.7576
 6683TIP3   OH241607   4.879   2.157   8.701  0.4208 -0.5000 -0.2021
 6683TIP3    H141608   4.820   2.082   8.696 -0.4552  0.1633  0.0877
 6683TIP3    H241609   4.917   2.163   8.613 -0.9091 -0.1597 -0.7709
 6684TIP3   OH241610   6.036   0.831   1.348  0.4724  0.4210 -0.0904
 6684TIP3    H141611   6.090   0.763   1.387 -0.3402 -1.4762 -2.0565
 6684TIP3    H241612   6.010   0.887   1.422  0.4602 -1.9102  1.7806
 6685TIP3   OH241613   1.605   5.768   8.719 -0.3172 -0.5276 -0.0456
 6685TIP3    H141614   1.552   5.699   8.758 -0.2911  0.6853  2.3069
 6685TIP3    H241615   1.613   5.834   8.787  1.0613  1.0634 -1.6332
 6686TIP3   OH241616   3.025   1.858   1.276  0.2721  0.3568  0.1590
 6686TIP3    H141617   3.084   1.784   1.258 -0.0226 -0.0026  0.6511
 6686TIP3    H241618   3.045   1.883   1.367 -1.8725 -1.2321  1.1666
 6687TIP3   OH241619   1.641   5.216   8.273 -0.2673  0.5675 -0.0363
 6687TIP3    H141620   1.654   5.129   8.311  0.3119 -0.0235 -1.4764
 6687TIP3    H241621   1.585   5.262   8.335  0.5302 -0.3678  1.4197
 6688TIP3   OH241622   2.942   6.276   1.976  0.0928  0.2615  0.3733
 6688TIP3    H141623   2.957   6.366   2.002 -2.3068  0.5376  1.0295
 6688TIP3    H241624   2.881   6.282   1.902  1.1100 -0.8068 -0.6144
 6689TIP3   OH241625   5.258   5.089   7.699  0.5457  0.0955  0.5564
 6689TIP3    H141626   5.299   5.172   7.722 -0.3023  1.3066 -1.9085
 6689TIP3    H241627   5.168   5.096   7.731  0.7553 -0.3552  1.2808
 6690TIP3   OH241628   6.771   5.224   8.271  0.4631 -0.3442  0.4889
 6690TIP3    H141629   6.773   5.269   8.187  0.5071  1.1662  1.2698
 6690TIP3    H241630   6.832   5.273   8.326 -0.6444 -0.4228  1.8351
 6691TIP3   OH241631   5.733   4.956   0.242 -0.2878 -0.1177 -0.0316
 6691TIP3    H141632   5.752   5.037   0.194 -1.0952 -1.1746 -2.2976
 6691TIP3    H241633   5.733   4.888   0.175 -0.3314 -1.9230  1.6982
 6692TIP3   OH241634   5.380   1.353   1.210 -0.1367  0.5034 -0.2625
 6692TIP3    H141635   5.406   1.262   1.196  0.3692  0.7027 -0.6422
 6692TIP3    H241636   5.286   1.348   1.226  0.2643 -0.3443  2.2116
 6693TIP3   OH241637   4.189   3.100   8.453 -0.0845 -0.4785  0.7765
 6693TIP3    H141638   4.229   3.039   8.514  0.2895  0.4223  1.4591
 6693TIP3    H241639   4.223   3.186   8.478 -0.9096  0.0723  0.1104
 6694TIP3   OH241640   6.385   1.108   7.558  0.1264 -0.4682  0.0789
 6694TIP3    H141641   6.319   1.043   7.534  0.8907 -0.7418 -1.3385
 6694TIP3    H241642   6.394   1.098   7.653 -1.0348 -1.2168  0.1311
 6695TIP3   OH241643   3.846   6.196   8.635 -0.2839 -0.3367  0.7575
 6695TIP3    H141644   3.880   6.223   8.550  0.2959  0.2288  1.1581
 6695TIP3    H241645   3.872   6.266   8.695  0.4102 -1.3281  1.6461
 6696TIP3   OH241646   3.824   0.828   7.493  0.2223 -0.1670 -0.2015
 6696TIP3    H141647   3.753   0.845   7.431 -0.4140  0.0347  0.5640
 6696TIP3    H241648   3.886   0.773   7.445  0.1670  0.6882 -1.2906
 6697TIP3   OH241649   4.691   0.870   0.154  0.0633 -0.6702 -0.1109
 6697TIP3    H141650   4.730   0.838   0.235  2.0205  0.7820 -0.4121
 6697TIP3    H241651   4.665   0.791   0.107 -0.7683 -1.5507  1.7345
 6698TIP3   OH241652   5.789   3.120   1.115 -0.1600 -0.4537  0.1399
 6698TIP3    H141653   5.822   3.154   1.033 -0.0870  0.9793  0.7377
 6698TIP3    H241654   5.700   3.091   1.095 -0.8775  1.7191 -0.0428
 6699TIP3   OH241655   2.165   1.159   8.217  0.7102 -0.2970  0.0014
 6699TIP3    H141656   2.199   1.115   8.140 -0.3298 -1.0349 -0.0554
 6699TIP3    H241657   2.071   1.169   8.200  0.6897  0.7394  0.5986
 6700TIP3   OH241658   6.358   0.867   0.051  0.1190  0.0711  0.4985
 6700TIP3    H141659   6.382   0.777   0.027  0.1247  0.0270  0.6658
 6700TIP3    H241660   6.287   0.889  -0.010  1.5494  0.7460 -0.9991
 6701TIP3   OH241661   1.592   6.486   0.520 -0.1022  0.4077  0.2931
 6701TIP3    H141662   1.540   6.431   0.461  1.0503  0.0185 -0.3900
 6701TIP3    H241663   1.655   6.427   0.560  2.9950  1.4705 -2.4707
 6702TIP3   OH241664   6.066   4.736   7.023 -0.0512 -0.4564  0.3822
 6702TIP3    H141665   6.037   4.684   6.948 -0.8551  0.1176  0.2878
 6702TIP3    H241666   6.009   4.813   7.023  0.5545  0.0027  1.0347
 6703TIP3   OH241667   0.347   2.612   1.840  0.0017 -0.2340 -0.9064
 6703TIP3    H141668   0.323   2.679   1.904  1.0809 -1.2172  0.5731
 6703TIP3    H241669   0.273   2.551   1.840  0.3270 -0.6430  0.0024
 6704TIP3   OH241670   1.613   5.530   1.281  0.3811  0.0516  0.1870
 6704TIP3    H141671   1.648   5.618   1.272  0.4228 -0.0689 -0.9990
 6704TIP3    H241672   1.690   5.473   1.280  0.4032  0.0184  1.5893
 6705TIP3   OH241673   5.668   4.731   8.015  0.4104  0.7692 -0.2233
 6705TIP3    H141674   5.619   4.665   7.967 -3.0929  2.6430  0.3905
 6705TIP3    H241675   5.692   4.796   7.949 -0.8978  1.4089 -0.1057
 6706TIP3   OH241676   6.062   0.387   6.501 -0.0132 -0.2192 -0.3264
 6706TIP3    H141677   6.054   0.338   6.419 -0.9227 -0.3300 -0.1836
 6706TIP3    H241678   5.972   0.392   6.535  0.2448  0.4768  0.2860
 6707TIP3   OH241679   6.125   5.808   2.224 -0.2905 -0.7478 -0.5550
 6707TIP3    H141680   6.105   5.881   2.283 -0.7587  0.4628 -2.1302
 6707TIP3    H241681   6.071   5.825   2.146  0.4456 -2.1606 -1.4102
 6708TIP3   OH241682   2.643   5.788   6.929  0.3510 -0.1477  0.1594
 6708TIP3    H141683   2.706   5.726   6.966 -2.5639 -3.2604  0.3843
 6708TIP3    H241684   2.659   5.784   6.834  2.3061  1.4012  0.3554
 6709TIP3   OH241685   0.357   5.097   7.461  0.4306 -0.1731  0.2159
 6709TIP3    H141686   0.303   5.043   7.519 -3.2293  2.3626 -0.4319
 6709TIP3    H241687   0.426   5.133   7.517 -0.5448 -0.9902  2.0106
 6710TIP3   OH241688   3.920   3.953   0.272  0.0579  0.8131 -0.1933
 6710TIP3    H141689   3.968   3.948   0.355  1.2592 -2.4220 -0.9280
 6710TIP3    H241690   3.918   4.046   0.251 -0.4086  1.7856  3.4708
 6711TIP3   OH241691   1.296   0.536   6.917  0.1834 -0.4648  0.6829
 6711TIP3    H141692   1.343   0.494   6.844  0.5794 -1.8640  1.7067
 6711TIP3    H241693   1.261   0.617   6.879  0.9745 -0.8083 -0.8727
 6712TIP3   OH241694   2.592   2.277   0.472  0.2280  0.3485 -0.5853
 6712TIP3    H141695   2.520   2.214   0.472  0.4729  0.0289 -2.3417
 6712TIP3    H241696   2.638   2.262   0.390  2.7493  0.0553  0.7578
 6713TIP3   OH241697   4.921   3.904   7.558  0.0798 -0.0033 -0.1960
 6713TIP3    H141698   4.906   3.945   7.644  0.4896  0.6102 -0.4109
 6713TIP3    H241699   4.952   3.816   7.579 -0.7451 -0.1962  0.2757
 6714TIP3   OH241700   5.625   0.802   1.398  0.2680 -0.1661  0.0392
 6714TIP3    H141701   5.530   0.791   1.400  0.2433 -0.5554 -1.8033
 6714TIP3    H241702   5.639   0.892   1.425 -0.6773  0.0644 -0.1968
 6715TIP3   OH241703   1.611   1.238   0.342 -0.1328 -0.3929 -0.1635
 6715TIP3    H141704   1.644   1.230   0.431  0.0511  2.6455  0.1419
 6715TIP3    H241705   1.535   1.295   0.350 -0.6326 -0.7741 -1.8630
 6716TIP3   OH241706   5.372   4.875   0.883 -0.1381  0.0505 -0.3827
 6716TIP3    H141707   5.452   4.831   0.854  0.2880  0.1263  0.6488
 6716TIP3    H241708   5.394   4.968   0.880 -0.3610  0.0966 -0.5940
 6717TIP3   OH241709   5.376   2.901   8.283  0.6316 -0.3847  0.0039
 6717TIP3    H141710   5.360   2.889   8.189 -0.4789  0.0122  0.1200
 6717TIP3    H241711   5.465   2.935   8.288  1.8858 -3.3456 -0.6725
 6718TIP3   OH241712   0.648   2.721   7.585 -0.4380 -0.0757  0.4522
 6718TIP3    H141713   0.661   2.766   7.668  0.7361 -1.8258  1.2679
 6718TIP3    H241714   0.582   2.654   7.603 -1.1436  0.3638 -0.3877
 6719TIP3   OH241715   4.645   3.608   0.033 -0.4775  0.4433  0.0019
 6719TIP3    H141716   4.628   3.607  -0.061  3.7193 -0.7016 -0.9379
 6719TIP3    H241717   4.687   3.692   0.049  3.3653 -1.2001 -0.3570
 6720TIP3   OH241718   4.397   3.360   7.627 -0.3845 -0.2812  0.6184
 6720TIP3    H141719   4.312   3.315   7.629 -0.6216  0.1590  0.4791
 6720TIP3    H241720   4.380   3.442   7.582 -0.3880  0.8829  2.6379
 6721TIP3   OH241721   2.188   4.642   1.840 -0.0891  0.2924 -0.1209
 6721TIP3    H141722   2.198   4.605   1.927 -0.2662  1.4126  0.3855
 6721TIP3    H241723   2.093   4.644   1.826 -0.0789  0.5512 -0.1497
 6722TIP3   OH241724   6.720   3.969   8.068 -0.5353 -0.5026  0.7876
 6722TIP3    H141725   6.800   3.983   8.120  0.2822 -0.4003 -0.4717
 6722TIP3    H241726   6.664   4.044   8.089  0.5046  0.4589  0.2094
 6723TIP3   OH241727   1.570   3.172   8.137  0.2312  0.0267  0.0904
 6723TIP3    H141728   1.648   3.120   8.155  0.7071 -0.1069 -2.1421
 6723TIP3    H241729   1.504   3.108   8.109 -0.3916  0.2579  0.9635
 6724TIP3   OH241730   3.779   6.581   7.617 -0.1082  0.3084  0.1930
 6724TIP3    H141731   3.740   6.495   7.605  1.8340 -0.6163  0.0882
 6724TIP3    H241732   3.721   6.641   7.570 -2.5381 -0.6028  1.8294
 6725TIP3   OH241733   5.261   3.920   8.321  0.2432  0.4437  0.4009
 6725TIP3    H141734   5.303   3.997   8.283 -0.3428 -0.1557 -1.5960
 6725TIP3    H241735   5.197   3.955   8.383  0.5939  1.5268  0.1640
 6726TIP3   OH241736   6.448   3.514   1.563  0.1152  0.4410  0.5118
 6726TIP3    H141737   6.455   3.484   1.472  1.6462  1.1104  0.3786
 6726TIP3    H241738   6.370   3.570   1.563 -1.0853 -1.1633  0.1152
 6727TIP3   OH241739   5.851   0.106   8.091 -0.1274 -0.5934 -0.5318
 6727TIP3    H141740   5.832   0.110   7.997 -0.2523 -2.4110 -0.6101
 6727TIP3    H241741   5.810   0.025   8.121 -1.5960  0.7939  1.4760
 6728TIP3   OH241742   0.036   3.393   2.181 -0.0023 -0.1313 -0.0952
 6728TIP3    H141743   0.108   3.410   2.242 -0.0455 -2.1474  0.5887
 6728TIP3    H241744  -0.041   3.387   2.238 -0.3388 -0.2752 -0.5689
 6729TIP3   OH241745   2.319   1.197   2.474  0.2117 -0.4572 -0.5282
 6729TIP3    H141746   2.387   1.166   2.534  0.2370 -1.3719 -1.0078
 6729TIP3    H241747   2.322   1.292   2.481  1.2149 -0.5028 -0.1790
 6730TIP3   OH241748   4.675   3.002   2.019 -0.2577  0.3353  0.6029
 6730TIP3    H141749   4.586   3.036   2.015 -0.6105 -0.6070  0.0344
 6730TIP3    H241750   4.665   2.909   2.042  0.3009 -0.6418 -2.5400
 6731TIP3   OH241751   0.961   4.571   0.176 -0.0705 -0.2548 -0.6872
 6731TIP3    H141752   0.964   4.484   0.136 -0.2277 -0.5167 -0.1347
 6731TIP3    H241753   1.042   4.613   0.148  0.6822 -1.0868  0.1823
 6732TIP3   OH241754   0.722   2.720   8.179  0.2298 -0.2210  0.5013
 6732TIP3    H141755   0.640   2.766   8.196  0.9780  0.8605  1.4010
 6732TIP3    H241756   0.783   2.756   8.244  1.4761 -0.8102 -0.3021
 6733TIP3   OH241757   2.525   4.093   7.715  0.3199  0.4072  0.2239
 6733TIP3    H141758   2.436   4.098   7.679  0.3573  1.6756  0.2565
 6733TIP3    H241759   2.581   4.084   7.639  0.2497  0.9463  0.1050
 6734TIP3   OH241760   1.249   6.501   1.183 -0.4417 -0.7672 -0.5698
 6734TIP3    H141761   1.298   6.518   1.102 -0.6988 -0.8869 -0.7507
 6734TIP3    H241762   1.316   6.493   1.250 -0.2612  3.3750  0.0284
 6735TIP3   OH241763   3.068   2.791   6.758 -0.5365 -0.1980 -0.0672
 6735TIP3    H141764   3.154   2.769   6.722 -0.3591  0.0777  0.1781
 6735TIP3    H241765   3.064   2.887   6.752 -0.3702 -0.1153  0.9300
 6736TIP3   OH241766   2.261   0.490   8.847  0.1368 -0.3231  0.0178
 6736TIP3    H141767   2.243   0.556   8.914  0.1269 -0.8368  0.5347
 6736TIP3    H241768   2.261   0.538   8.765  0.1062  0.3158  0.3835
 6737TIP3   OH241769   3.298   5.615   1.874 -0.2797 -0.8778 -0.0681
 6737TIP3    H141770   3.361   5.670   1.921 -2.2479 -0.0141  1.7269
 6737TIP3    H241771   3.352   5.558   1.819  1.9911  0.4983  0.6074
 6738TIP3   OH241772   3.047   4.527   0.674  0.8641  0.2509  0.4402
 6738TIP3    H141773   3.074   4.612   0.637  0.1796  0.0806 -0.4866
 6738TIP3    H241774   3.103   4.516   0.750  0.6082  1.7830  0.8898
 6739TIP3   OH241775   4.801   1.216   7.880 -0.1625  0.4812 -0.3261
 6739TIP3    H141776   4.882   1.267   7.874 -0.0503  0.4117  0.4186
 6739TIP3    H241777   4.829   1.127   7.899 -0.3919  0.3226 -0.7220
 6740TIP3   OH241778   2.732   1.371   1.375 -0.1813 -0.5723 -0.2462
 6740TIP3    H141779   2.706   1.281   1.391  3.4122 -1.4269  2.0115
 6740TIP3    H241780   2.762   1.403   1.461  1.8721  1.5401 -1.6201
 6741TIP3   OH241781   2.653   3.680   1.938  0.0873 -0.6211 -0.1943
 6741TIP3    H141782   2.701   3.620   1.994  1.0979 -1.9618 -2.3650
 6741TIP3    H241783   2.720   3.737   1.901 -0.7241  1.1780  0.9506
 6742TIP3   OH241784   1.932   4.756   7.634 -0.0099 -0.1619  0.8709
 6742TIP3    H141785   1.969   4.679   7.678 -0.0475 -0.4736  0.3633
 6742TIP3    H241786   1.838   4.739   7.631 -0.0076 -0.1334  0.6780
 6743TIP3   OH241787   2.514   0.536   0.349 -0.4781 -0.0971  0.1440
 6743TIP3    H141788   2.549   0.480   0.417 -0.9185 -0.1169  0.3561
 6743TIP3    H241789   2.424   0.505   0.335 -0.9539  0.9571  0.7251
 6744TIP3   OH241790   0.901   3.084   8.843 -0.6574 -0.7114 -0.7001
 6744TIP3    H141791   0.976   3.025   8.846 -0.0238  0.1062  0.0235
 6744TIP3    H241792   0.922   3.146   8.773  1.2665  1.9258  1.9679
 6745TIP3   OH241793   5.953   6.734   2.138 -0.1778  0.0628 -0.0273
 6745TIP3    H141794   5.868   6.694   2.158 -0.1061 -0.1990 -0.2390
 6745TIP3    H241795   5.987   6.761   2.224 -0.2129 -0.3717  0.1289
 6746TIP3   OH241796   0.115   6.736   8.127  0.4015  0.3866  0.3992
 6746TIP3    H141797   0.030   6.778   8.111  0.5348  0.6226  0.2899
 6746TIP3    H241798   0.095   6.644   8.141  0.0452  0.5632  1.1331
 6747TIP3   OH241799   3.622   1.388   1.564  0.3230  0.2031 -0.6584
 6747TIP3    H141800   3.659   1.367   1.649 -0.5934  0.7976 -0.0957
 6747TIP3    H241801   3.634   1.483   1.555  0.1284  0.1947 -1.0501
 6748TIP3   OH241802   6.359   5.976   8.237 -0.2310 -0.1188 -0.3260
 6748TIP3    H141803   6.319   5.914   8.298  2.7468 -1.4864  0.4302
 6748TIP3    H241804   6.365   5.929   8.154 -0.3552  0.1346 -0.4798
 6749TIP3   OH241805   6.483   6.657   0.551  0.0310  0.3665 -0.1049
 6749TIP3    H141806   6.535   6.630   0.626 -0.6335  1.6505  0.8522
 6749TIP3    H241807   6.542   6.644   0.476  0.8047 -0.6629  0.6512
 6750TIP3   OH241808   6.201   1.984   6.823  0.0292 -0.0051  0.2913
 6750TIP3    H141809   6.235   1.928   6.753  2.4106  2.8561 -1.0227
 6750TIP3    H241810   6.113   2.007   6.794  0.3593 -0.1973 -0.9316
 6751TIP3   OH241811   1.786   4.641   0.732 -0.5886  0.6161  0.7057
 6751TIP3    H141812   1.860   4.700   0.748  0.4351 -0.6482  0.7740
 6751TIP3    H241813   1.769   4.647   0.638  2.2667 -2.0156 -0.1406
 6752TIP3   OH241814   5.478   1.151   2.141  0.0793 -0.6387 -0.6490
 6752TIP3    H141815   5.439   1.069   2.109 -1.4487 -0.2054  0.0023
 6752TIP3    H241816   5.403   1.206   2.163  1.0855  0.8026 -0.7059
 6753TIP3   OH241817   5.697   0.945   8.014 -0.4864 -0.4033 -0.3307
 6753TIP3    H141818   5.672   0.910   8.100 -4.3542 -0.1759 -1.1653
 6753TIP3    H241819   5.715   0.867   7.961  1.6138 -0.5540  0.5379
 6754TIP3   OH241820   1.167   4.736   0.101 -0.0709  0.0150  0.2704
 6754TIP3    H141821   1.116   4.812   0.072 -0.5833 -0.5695 -0.3981
 6754TIP3    H241822   1.189   4.755   0.192  0.3191  1.2329 -0.0678
 6755TIP3   OH241823   0.771   3.272   6.455  0.4451  1.0205 -0.2818
 6755TIP3    H141824   0.859   3.244   6.431 -0.3912 -0.3586 -1.9864
 6755TIP3    H241825   0.748   3.340   6.392  0.1275  1.0526 -0.1376
 6756TIP3   OH241826   2.994   1.345   0.454 -0.6388  0.0603  0.1442
 6756TIP3    H141827   2.977   1.289   0.378  0.3535  0.1584 -0.1679
 6756TIP3    H241828   2.973   1.291   0.529  1.5150 -1.2390 -0.1045
 6757TIP3   OH241829   3.307   1.680   1.377  0.1830 -0.1965 -0.0942
 6757TIP3    H141830   3.306   1.637   1.462  0.1915  0.8126  0.4235
 6757TIP3    H241831   3.394   1.720   1.371  0.9580 -1.9229 -1.4527
 6758TIP3   OH241832   2.163   0.482   1.820  0.6280  0.5110 -0.0346
 6758TIP3    H141833   2.181   0.575   1.835 -1.9661  0.9726  0.6393
 6758TIP3    H241834   2.231   0.436   1.870  0.3690  2.0678  1.8719
 6759TIP3   OH241835   4.424   0.610   6.738  0.2107  0.2696  0.1354
 6759TIP3    H141836   4.459   0.530   6.777 -0.2499  1.3315  3.0067
 6759TIP3    H241837   4.330   0.592   6.727 -0.1350  0.7543  1.9541
 6760TIP3   OH241838   4.787   0.301   8.727 -0.1692  1.1750  0.9251
 6760TIP3    H141839   4.792   0.244   8.803  1.1491  1.1575  0.8470
 6760TIP3    H241840   4.696   0.329   8.724 -1.2633 -2.0249  0.1690
 6761TIP3   OH241841   3.215   3.592   8.349  1.1215  0.1149  0.1714
 6761TIP3    H141842   3.161   3.634   8.416  0.3541  0.0226 -0.3681
 6761TIP3    H241843   3.174   3.617   8.266  2.6569  1.0829 -0.3388
 6762TIP3   OH241844   0.567   2.608   0.319 -0.2182  0.1110 -0.3841
 6762TIP3    H141845   0.489   2.650   0.356  0.3048 -1.8054  3.2964
 6762TIP3    H241846   0.639   2.666   0.343 -0.0918 -0.0628 -0.3451
 6763TIP3   OH241847   5.454   3.387   7.874  0.3958 -0.0728 -0.0934
 6763TIP3    H141848   5.518   3.453   7.901 -0.2248 -0.5029  2.6725
 6763TIP3    H241849   5.454   3.322   7.944 -1.3982 -1.2971 -1.1366
 6764TIP3   OH241850   4.381   3.201   8.690 -0.0140  0.2130 -0.0266
 6764TIP3    H141851   4.380   3.238   8.602 -1.8755 -0.3990 -0.3181
 6764TIP3    H241852   4.297   3.228   8.729 -0.7968 -2.3247  0.2781
 6765TIP3   OH241853   6.526   3.081   8.422 -0.3079 -0.0601 -0.8076
 6765TIP3    H141854   6.519   3.149   8.356 -1.1243  2.6604  1.8775
 6765TIP3    H241855   6.603   3.105   8.473 -1.6677 -0.0273  1.3223
 6766TIP3   OH241856   4.032   5.538   1.333 -0.4417 -0.4417  0.2210
 6766TIP3    H141857   4.041   5.512   1.242 -2.5313 -2.5930  0.5125
 6766TIP3    H241858   4.065   5.463   1.383 -2.4542 -0.7879  1.1611
 6767TIP3   OH241859   2.286   1.553   1.851  0.1111 -0.0064  0.1006
 6767TIP3    H141860   2.378   1.529   1.858 -0.0729 -0.6198  0.5289
 6767TIP3    H241861   2.286   1.638   1.807  0.9516  0.6057  1.2430
 6768TIP3   OH241862   0.765   3.242   1.750  0.0740  0.0354 -0.4112
 6768TIP3    H141863   0.789   3.285   1.668  0.9023 -1.9225 -1.2815
 6768TIP3    H241864   0.811   3.290   1.818  1.4632  0.1614 -1.4000
 6769TIP3   OH241865   6.436   1.664   8.736 -0.9679  0.3851 -0.1147
 6769TIP3    H141866   6.479   1.723   8.674 -1.8371  2.0609  0.8115
 6769TIP3    H241867   6.448   1.706   8.821  0.5088 -2.0248  0.9794
 6770TIP3   OH241868   3.846   0.776   1.366 -0.2114 -0.0581 -0.3320
 6770TIP3    H141869   3.761   0.777   1.409 -0.6068  0.3576 -1.0914
 6770TIP3    H241870   3.836   0.713   1.294  0.4724 -0.8356  0.2283
 6771TIP3   OH241871   6.487   3.181   7.495  0.1400  0.0047 -0.2032
 6771TIP3    H141872   6.445   3.237   7.561 -1.0887  0.1638 -1.0789
 6771TIP3    H241873   6.495   3.236   7.418 -0.3131 -0.7655 -0.8169
 6772TIP3   OH241874   6.276   4.428   2.272  0.5223  0.6830 -0.1525
 6772TIP3    H141875   6.249   4.500   2.216  0.9402  0.6877 -0.3537
 6772TIP3    H241876   6.272   4.463   2.361 -1.1138  0.3750 -0.0679
 6773TIP3   OH241877   0.579   0.925   0.161  0.5423  0.4523  0.5091
 6773TIP3    H141878   0.538   0.996   0.208  0.5542  0.3932  0.6083
 6773TIP3    H241879   0.620   0.967   0.085 -0.0180  0.4631  0.2070
 6774TIP3   OH241880   0.931   2.876   0.562  0.1131 -0.1560  0.4520
 6774TIP3    H141881   1.019   2.910   0.547  1.0867 -2.7287 -0.3550
 6774TIP3    H241882   0.937   2.826   0.643 -0.5008 -0.5946  0.2438
 6775TIP3   OH241883   4.779   6.349   7.259  0.4302 -0.0229  0.2993
 6775TIP3    H141884   4.854   6.294   7.234  0.9245  0.4215  0.7855
 6775TIP3    H241885   4.753   6.316   7.345  0.7264  0.4893  0.5926
 6776TIP3   OH241886   2.393   5.945   6.883 -0.5576  0.2835 -0.0846
 6776TIP3    H141887   2.360   5.935   6.794 -1.8567  0.3172  0.3731
 6776TIP3    H241888   2.474   5.894   6.885  1.0390  2.5292 -2.0691
 6777TIP3   OH241889   4.080   6.109   8.205 -0.1846  0.3282 -0.4523
 6777TIP3    H141890   4.081   6.017   8.229 -0.6839  0.4626  0.1208
 6777TIP3    H241891   4.154   6.119   8.145 -0.5454 -0.5761 -1.0553
 6778TIP3   OH241892   3.819   2.834   7.063 -0.0116 -0.0687  0.2469
 6778TIP3    H141893   3.786   2.777   6.993  3.5049 -1.7639 -0.2494
 6778TIP3    H241894   3.847   2.914   7.017 -1.3128  0.4886  0.3729
 6779TIP3   OH241895   2.521   0.169   0.987 -0.0879  0.0790 -0.0872
 6779TIP3    H141896   2.552   0.106   1.051 -0.2670 -0.4287 -0.4984
 6779TIP3    H241897   2.426   0.161   0.989 -0.2884  1.9902  1.5496
 6780TIP3   OH241898   4.531   5.720   1.498 -0.2365 -0.0735  0.4143
 6780TIP3    H141899   4.438   5.708   1.517 -0.2419 -0.1820  0.3208
 6780TIP3    H241900   4.562   5.776   1.568 -0.5493  0.6159  0.0114
 6781TIP3   OH241901   4.268   5.216   6.932  0.5760  0.1220  0.6769
 6781TIP3    H141902   4.201   5.218   6.864  0.1616 -0.3416  1.0630
 6781TIP3    H241903   4.288   5.308   6.949 -0.2375  0.2815  0.8207
 6782TIP3   OH241904   2.285   1.804   1.707 -0.6284 -0.3338 -0.5810
 6782TIP3    H141905   2.312   1.882   1.755 -0.0283 -1.3461  0.8189
 6782TIP3    H241906   2.338   1.805   1.628 -0.6569  0.6846 -0.5994
 6783TIP3   OH241907   2.195   6.281   8.110 -0.1651  0.0289 -0.0778
 6783TIP3    H141908   2.187   6.369   8.071 -3.9865 -0.4348 -0.7223
 6783TIP3    H241909   2.246   6.232   8.046 -0.0189  1.1923 -0.8909
 6784TIP3   OH241910   0.682   1.655   1.857 -0.0084  1.0662  0.0095
 6784TIP3    H141911   0.711   1.578   1.808 -2.6028 -0.7316  1.1097
 6784TIP3    H241912   0.594   1.633   1.887  0.3919  3.1759  3.1385
 6785TIP3   OH241913   5.514   3.168   0.636 -0.3154 -0.5592  0.2926
 6785TIP3    H141914   5.596   3.186   0.591 -0.7242 -0.7592 -0.5409
 6785TIP3    H241915   5.448   3.164   0.567 -0.9530 -0.8784  0.9022
 6786TIP3   OH241916   1.623   2.343   1.258  0.1120 -0.2051 -0.0800
 6786TIP3    H141917   1.566   2.267   1.249 -0.8183 -0.2629  4.1297
 6786TIP3    H241918   1.570   2.416   1.228  0.0417 -0.8854 -1.6861
 6787TIP3   OH241919   3.343   3.492   6.889  0.4387 -0.3732 -0.6121
 6787TIP3    H141920   3.436   3.498   6.869 -0.1850 -0.8352 -4.5248
 6787TIP3    H241921   3.332   3.404   6.925  1.7295  0.5169  2.2125
 6788TIP3   OH241922   0.393   3.803   0.160 -0.4169  0.4868 -0.8035
 6788TIP3    H141923   0.422   3.751   0.235  0.1891  2.5982  0.5238
 6788TIP3    H241924   0.470   3.857   0.138 -1.3545  1.6568 -1.3239
 6789TIP3   OH241925   0.230   2.689   8.144  0.6757 -0.0313  0.6899
 6789TIP3    H141926   0.207   2.676   8.236 -0.2911  1.8514  0.7389
 6789TIP3    H241927   0.311   2.638   8.133  0.5918 -0.6141  2.4636
 6790TIP3   OH241928   1.588   3.360   1.270  0.1100 -0.6099  0.0050
 6790TIP3    H141929   1.533   3.353   1.192 -1.8403  0.2278  1.2150
 6790TIP3    H241930   1.614   3.270   1.289 -1.3162 -1.1269 -0.3338
 6791TIP3   OH241931   0.545   0.534   1.035 -0.1809  0.2582 -0.8479
 6791TIP3    H141932   0.572   0.442   1.036 -2.2927 -0.4240  0.9038
 6791TIP3    H241933   0.461   0.534   0.990 -0.4841  1.2366 -0.3030
 6792TIP3   OH241934   3.313   3.288   1.277  0.3105  0.0685 -0.1630
 6792TIP3    H141935   3.260   3.307   1.354  0.0405 -2.3588  0.3250
 6792TIP3    H241936   3.250   3.263   1.209  0.6974 -2.0079  0.1704
 6793TIP3   OH241937   1.906   2.411   8.050 -0.4223  0.5210  0.1675
 6793TIP3    H141938   1.931   2.419   8.142  0.5997 -0.3347 -0.0233
 6793TIP3    H241939   1.885   2.319   8.038  1.6694  0.1201 -0.9577
 6794TIP3   OH241940   0.400   6.634   0.230 -0.3024 -0.1230 -0.1494
 6794TIP3    H141941   0.346   6.648   0.153  0.8329 -0.5018 -1.0444
 6794TIP3    H241942   0.345   6.660   0.304 -1.3080  0.5139 -1.1051
 6795TIP3   OH241943   3.668   2.578   0.530 -0.3828 -0.0722  0.0042
 6795TIP3    H141944   3.656   2.533   0.446 -0.5065  1.3335 -0.7681
 6795TIP3    H241945   3.594   2.638   0.536  0.2302  0.6460  0.5782
 6796TIP3   OH241946   5.528   3.637   0.650  0.1916 -0.6628  1.0813
 6796TIP3    H141947   5.567   3.721   0.674  1.9892 -1.2356  0.3041
 6796TIP3    H241948   5.594   3.572   0.675  0.0295 -1.6343 -0.8626
 6797TIP3   OH241949   2.157   0.205   1.916  0.2102 -0.3605 -0.4957
 6797TIP3    H141950   2.234   0.249   1.950  0.7878  0.1960 -2.3707
 6797TIP3    H241951   2.086   0.268   1.927 -0.2414 -1.2149  2.0657
 6798TIP3   OH241952   0.963   1.791   7.726 -0.1836  0.3186  0.1010
 6798TIP3    H141953   0.961   1.750   7.812 -0.4950 -1.3046 -0.6430
 6798TIP3    H241954   1.043   1.758   7.686 -0.9047 -0.3154 -0.8603
 6799TIP3   OH241955   0.511   2.214   1.960  0.3478  0.0414  0.3052
 6799TIP3    H141956   0.527   2.122   1.979 -0.7812 -0.3695 -0.5899
 6799TIP3    H241957   0.596   2.247   1.930  0.8666 -0.5843  1.0551
 6800TIP3   OH241958   2.180   3.796   6.432 -0.4582 -0.1867 -0.1215
 6800TIP3    H141959   2.119   3.816   6.361  0.3168 -1.1004 -1.0770
 6800TIP3    H241960   2.142   3.720   6.477 -1.0983  0.5704  0.6578
 6801TIP3   OH241961   4.831   0.683   2.320  0.2965 -0.5732  0.1269
 6801TIP3    H141962   4.760   0.625   2.345 -0.9796  1.3197  1.1251
 6801TIP3    H241963   4.791   0.746   2.259  1.9688 -1.5274 -2.1246
 6802TIP3   OH241964   0.522   5.684   8.745  0.0639 -0.2743 -0.1693
 6802TIP3    H141965   0.487   5.611   8.796 -0.1384 -0.1579 -0.1432
 6802TIP3    H241966   0.460   5.755   8.758  0.6672  0.1504  0.4255
 6803TIP3   OH241967   1.927   3.705   1.210  0.2594 -0.0136  0.3087
 6803TIP3    H141968   1.832   3.709   1.224  0.1683  1.5837 -0.5135
 6803TIP3    H241969   1.958   3.793   1.232  1.3482 -0.1274 -0.6644
 6804TIP3   OH241970   1.462   6.454   6.542 -0.2706 -0.4282  0.3559
 6804TIP3    H141971   1.441   6.387   6.477  0.2158  0.8929 -1.2324
 6804TIP3    H241972   1.388   6.515   6.538  0.5639  0.5757 -0.2430
 6805TIP3   OH241973   3.931   4.044   1.902  0.5402 -0.4020  0.2656
 6805TIP3    H141974   4.011   4.085   1.934  1.5169 -1.2400 -0.9862
 6805TIP3    H241975   3.921   4.077   1.813 -0.3516 -0.5276  0.3124
 6806TIP3   OH241976   2.210   1.473   0.775  0.1738  0.0518  0.3421
 6806TIP3    H141977   2.136   1.533   0.782 -2.1604 -2.6758  0.7757
 6806TIP3    H241978   2.252   1.476   0.860 -0.1564  0.7508  0.4867
 6807TIP3   OH241979   5.996   1.631   1.719  0.2413 -0.2745 -0.4127
 6807TIP3    H141980   5.961   1.675   1.641 -0.1091 -0.1524 -0.1887
 6807TIP3    H241981   6.085   1.606   1.695  0.5638  0.8581 -0.4218
 6808TIP3   OH241982   1.687   6.436   7.283  0.4166  0.1970  0.5169
 6808TIP3    H141983   1.597   6.467   7.294  0.3084  0.6536 -1.2477
 6808TIP3    H241984   1.683   6.343   7.302 -0.9437 -0.2530 -1.5959
 6809TIP3   OH241985   3.091   5.540   0.161  0.1216  0.0692  0.4438
 6809TIP3    H141986   3.143   5.582   0.092 -0.8760 -0.3962 -0.6280
 6809TIP3    H241987   3.111   5.590   0.240  1.8834  0.1418 -0.0027
 6810TIP3   OH241988   2.500   5.582   0.139  0.1381 -0.7157  0.3593
 6810TIP3    H141989   2.455   5.513   0.187 -0.1122 -0.2594  0.7947
 6810TIP3    H241990   2.534   5.539   0.061 -0.5795 -1.1867  0.2981
 6811TIP3   OH241991   3.886   4.617   0.487  0.0782  0.1069  0.4036
 6811TIP3    H141992   3.848   4.574   0.563 -0.4192  0.3099  0.2743
 6811TIP3    H241993   3.937   4.549   0.443  0.1449 -0.0778  0.7722
 6812TIP3   OH241994   2.142   1.923   8.419 -0.1705 -0.8178  0.0237
 6812TIP3    H141995   2.219   1.980   8.415  0.1192 -1.2629 -1.8990
 6812TIP3    H241996   2.140   1.891   8.509  0.4684  1.1015  0.7695
 6813TIP3   OH241997   3.353   5.365   2.373  0.0386  0.0215 -0.1227
 6813TIP3    H141998   3.404   5.314   2.309  1.6534  0.2996  0.8796
 6813TIP3    H241999   3.269   5.320   2.378 -0.2688  0.1711 -2.6683
 6814TIP3   OH242000   4.574   6.732   7.920 -0.2257  0.2145  0.1997
 6814TIP3    H142001   4.613   6.659   7.968 -0.4580 -0.9333 -1.2882
 6814TIP3    H242002   4.573   6.703   7.829 -1.3748  1.6281 -0.2750
 6815TIP3   OH242003   5.815   2.338   0.571  0.6389 -0.0610  0.3641
 6815TIP3    H142004   5.775   2.272   0.627  1.6806 -0.7185  0.3563
 6815TIP3    H242005   5.753   2.411   0.572  0.2374 -0.3914  1.6975
 6816TIP3   OH242006   2.980   2.198   0.076  0.7047  0.1653  0.0614
 6816TIP3    H142007   2.952   2.150  -0.002  0.0878  0.0677  0.3373
 6816TIP3    H242008   2.943   2.148   0.149  0.7510  0.6007  0.3838
 6817TIP3   OH242009   0.871   1.857   8.690 -0.0183  0.1304  0.2544
 6817TIP3    H142010   0.803   1.909   8.647 -1.5699 -0.7104  1.5935
 6817TIP3    H242011   0.824   1.786   8.733  1.9227 -1.6829 -0.4433
 6818TIP3   OH242012   5.314   4.555   0.613  0.2750  0.9060  0.4668
 6818TIP3    H142013   5.223   4.577   0.592  0.0317  0.8523  1.3916
 6818TIP3    H242014   5.332   4.606   0.692 -0.1570 -1.7728  2.4249
 6819TIP3   OH242015   4.876   4.067   0.192 -0.7701 -0.2602  0.1734
 6819TIP3    H142016   4.795   4.117   0.200 -0.8687 -0.6258  1.6191
 6819TIP3    H242017   4.912   4.093   0.107 -0.7748  2.2967  0.8680
 6820TIP3   OH242018   1.705   6.751   7.433 -0.1950  0.3886 -0.1684
 6820TIP3    H142019   1.734   6.784   7.347  0.9985 -0.8042 -0.2588
 6820TIP3    H242020   1.703   6.656   7.422 -1.6013  0.3026  0.6748
 6821TIP3   OH242021   0.969   2.942   7.902  0.3643  0.0882 -0.1453
 6821TIP3    H142022   1.003   3.031   7.898  0.2397  0.5136  4.2866
 6821TIP3    H242023   1.045   2.887   7.921  0.2178 -0.6489 -1.5093
 6822TIP3   OH242024   3.117   6.134   2.710  0.3416  0.3989 -0.3960
 6822TIP3    H142025   3.197   6.107   2.663  1.0032  0.5825  0.6089
 6822TIP3    H242026   3.136   6.222   2.742  0.0912  0.0881  0.6398
 6823TIP3   OH242027   3.005   1.421   1.108  0.1334 -0.2248 -0.5920
 6823TIP3    H142028   3.035   1.511   1.099 -0.0036 -0.1278 -0.0784
 6823TIP3    H242029   2.914   1.423   1.081 -0.1443 -0.0223  0.3373
 6824TIP3   OH242030   1.283   3.855   1.105  0.1868 -0.2445 -0.2707
 6824TIP3    H142031   1.216   3.914   1.141  0.1127  0.9052 -2.1611
 6824TIP3    H242032   1.234   3.792   1.053  0.3926 -1.1160  0.5605
 6825TIP3   OH242033   2.427   0.032   7.917 -0.4026  0.2321 -0.2237
 6825TIP3    H142034   2.334   0.027   7.940  0.0459 -0.2082  1.6781
 6825TIP3    H242035   2.440  -0.040   7.854 -1.1662 -0.2942  0.2050
 6826TIP3   OH242036   4.248   6.562   0.497  0.0183 -0.2491  0.5978
 6826TIP3    H142037   4.290   6.579   0.581  1.3274  1.1394 -0.2777
 6826TIP3    H242038   4.320   6.562   0.434 -1.0246 -0.4407 -0.6281
 6827TIP3   OH242039   1.365   1.007   1.619 -0.1254  0.1660  0.0048
 6827TIP3    H142040   1.430   0.946   1.586 -1.2521 -0.0626 -1.9375
 6827TIP3    H242041   1.359   1.075   1.552 -0.4693  1.2608  1.0907
 6828TIP3   OH242042   6.174   0.591   0.652  0.3613 -0.5926  0.3202
 6828TIP3    H142043   6.177   0.552   0.740 -2.2292  0.8106  1.1236
 6828TIP3    H242044   6.192   0.684   0.667 -1.0138 -0.1747 -0.4671
 6829TIP3   OH242045   1.990   0.581   8.595  0.0985 -0.7649 -0.1623
 6829TIP3    H142046   2.073   0.613   8.561 -0.3680  0.7434  0.0145
 6829TIP3    H242047   1.934   0.573   8.517 -0.8830  2.4200  0.0799
 6830TIP3   OH242048   3.988   5.180   2.055 -0.4615  0.5051 -0.1061
 6830TIP3    H142049   4.061   5.238   2.075  0.3987 -0.1084 -1.3147
 6830TIP3    H242050   3.912   5.222   2.094  0.6600  0.7042  2.0097
 6831TIP3   OH242051   2.480   2.781   7.313  0.7095 -0.2675 -0.3481
 6831TIP3    H142052   2.407   2.728   7.280  1.5302 -0.5245 -1.8028
 6831TIP3    H242053   2.442   2.868   7.326 -0.6171 -1.0876  1.9258
 6832TIP3   OH242054   1.376   2.878   7.722 -0.5390  0.0902  0.2246
 6832TIP3    H142055   1.390   2.808   7.658 -0.0236  0.4249 -0.0298
 6832TIP3    H242056   1.335   2.949   7.672  0.0730  0.4394  0.2133
 6833TIP3   OH242057   5.077   1.588   2.153  0.5420 -0.1121 -0.3124
 6833TIP3    H142058   5.036   1.660   2.201  0.2270 -0.0896 -0.6111
 6833TIP3    H242059   5.073   1.513   2.213  1.1812  0.2028  0.1309
 6834TIP3   OH242060   0.016   1.346   0.979  0.5430 -0.3848 -0.0421
 6834TIP3    H142061   0.082   1.280   0.958  1.3841 -0.3132  2.1041
 6834TIP3    H242062   0.066   1.427   0.989 -0.0752 -0.0298  0.1730
 6835TIP3   OH242063   3.494   5.211   1.602 -0.0795 -0.3497 -0.2020
 6835TIP3    H142064   3.548   5.227   1.680 -0.0069 -0.1345 -0.2952
 6835TIP3    H242065   3.476   5.298   1.568 -0.0241 -0.4489 -0.4868
 6836TIP3   OH242066   2.042   3.349   2.067  0.2189 -0.1859 -0.3287
 6836TIP3    H142067   2.102   3.376   2.137  2.0064  0.5432 -2.0581
 6836TIP3    H242068   2.047   3.253   2.068  1.7141 -0.1398 -0.6302
 6837TIP3   OH242069   0.485   4.196   1.658  0.1561  0.2140 -0.2709
 6837TIP3    H142070   0.458   4.273   1.707  0.0459 -0.0166  0.0333
 6837TIP3    H242071   0.501   4.129   1.725  0.2350 -0.0296 -0.5315
 6838TIP3   OH242072   5.081   3.441   8.321  0.0803 -0.3737 -0.8057
 6838TIP3    H142073   5.081   3.346   8.331  0.4057 -0.2921  0.0170
 6838TIP3    H242074   5.141   3.472   8.389 -0.5220  0.4621 -0.6498
 6839TIP3   OH242075   3.134   2.836   0.450  0.0614  0.2593  0.3962
 6839TIP3    H142076   3.100   2.861   0.364 -2.0123  2.8685  1.8255
 6839TIP3    H242077   3.122   2.741   0.453 -1.7500  0.3469 -1.4519
 6840TIP3   OH242078   2.811   5.896   8.521 -0.2335  0.3027 -0.3676
 6840TIP3    H142079   2.747   5.826   8.533 -1.3979  1.1846 -1.1922
 6840TIP3    H242080   2.757   5.974   8.506  1.0453  0.9420 -1.7997
 6841TIP3   OH242081   2.598   5.308   0.448  0.1981 -0.0296 -0.4079
 6841TIP3    H142082   2.650   5.387   0.433 -0.5295  0.4040 -0.6998
 6841TIP3    H242083   2.654   5.237   0.418  1.1096  0.3095  0.4219
 6842TIP3   OH242084   5.852   3.798   7.170 -0.3862  0.5656 -0.0842
 6842TIP3    H142085   5.840   3.713   7.128 -2.0993  1.6961 -2.1453
 6842TIP3    H242086   5.945   3.803   7.188 -0.0453 -1.2550 -1.0836
 6843TIP3   OH242087   3.966   2.726   6.721  0.4724 -0.8597  0.1642
 6843TIP3    H142088   4.008   2.645   6.751 -0.9875 -2.4881 -1.9061
 6843TIP3    H242089   3.873   2.714   6.741 -0.5316 -1.8473 -4.1049
 6844TIP3   OH242090   1.496   2.093   1.302 -0.6639 -0.2373 -0.3362
 6844TIP3    H142091   1.403   2.073   1.295 -0.6542 -0.8525  1.0183
 6844TIP3    H242092   1.531   2.024   1.358  0.1985  1.1502  0.9061
 6845TIP3   OH242093   5.884   0.244   1.896  0.1457  0.7692  0.3865
 6845TIP3    H142094   5.965   0.255   1.946 -1.1085  0.6052  2.5859
 6845TIP3    H242095   5.905   0.276   1.808  1.8980  3.0121  1.5271
 6846TIP3   OH242096   4.865   4.620   7.747 -0.2354  0.0818  0.2988
 6846TIP3    H142097   4.953   4.655   7.734  0.1787 -1.4005 -1.2401
 6846TIP3    H242098   4.812   4.696   7.772  1.2599  1.1870  0.2044
 6847TIP3   OH242099   6.538   1.571   0.499 -0.2255 -0.2547 -0.1830
 6847TIP3    H142100   6.588   1.624   0.437 -0.3113  0.3525  0.2587
 6847TIP3    H242101   6.474   1.632   0.536 -1.8198 -1.1861 -1.2883
 6848TIP3   OH242102   5.533   1.157   8.835 -0.3586 -0.1607  0.4649
 6848TIP3    H142103   5.598   1.215   8.794  1.2167 -0.6444  2.1546
 6848TIP3    H242104   5.449   1.200   8.818  0.5184  1.2463 -0.5566
 6849TIP3   OH242105   5.746   0.382   0.967  0.3345 -0.4447  0.0620
 6849TIP3    H142106   5.694   0.303   0.952  1.3897 -1.8105  2.7615
 6849TIP3    H242107   5.833   0.359   0.934  0.0044  0.7656 -1.8186
 6850TIP3   OH242108   5.595   5.990   0.587  0.2128 -0.0703  0.3971
 6850TIP3    H142109   5.633   6.005   0.674  0.4002  0.2861  0.2535
 6850TIP3    H242110   5.667   5.952   0.536  0.5633  1.1768 -0.0532
 6851TIP3   OH242111   2.260   1.157   1.000  0.1202 -0.5163 -0.7531
 6851TIP3    H142112   2.173   1.154   0.960 -0.5995  1.3731  0.5664
 6851TIP3    H242113   2.248   1.207   1.080  2.7125  1.1417 -1.2993
 6852TIP3   OH242114   1.860   2.425   1.076  0.2372  0.0761 -0.8860
 6852TIP3    H142115   1.828   2.492   1.016 -0.5386  0.3911 -0.1483
 6852TIP3    H242116   1.783   2.399   1.126  1.3009  1.7467  1.8266
 6853TIP3   OH242117   3.847   3.556   1.558 -0.1676  0.3047  0.4143
 6853TIP3    H142118   3.814   3.603   1.634  2.3643  2.0463  0.5614
 6853TIP3    H242119   3.875   3.471   1.592  0.3110  0.8095  1.3053
 6854TIP3   OH242120   4.870   1.591   8.787 -0.5403  0.4342  0.3891
 6854TIP3    H142121   4.813   1.514   8.784 -0.7315  0.4848  1.9692
 6854TIP3    H242122   4.819   1.656   8.835  0.2903  0.9822  0.5341
 6855TIP3   OH242123   5.619   6.697   1.518  0.3730 -0.0874  0.7173
 6855TIP3    H142124   5.634   6.791   1.523 -1.6725  0.3285  0.0036
 6855TIP3    H242125   5.562   6.677   1.593 -0.4256 -0.4487  0.0396
 6856TIP3   OH242126   4.897   3.978   2.287 -0.2924 -0.6444 -0.2178
 6856TIP3    H142127   4.860   3.909   2.343  0.8370 -0.0012  1.4078
 6856TIP3    H242128   4.862   3.960   2.200 -0.9239 -2.5961  0.3885
 6857TIP3   OH242129   6.283   0.482   0.886  0.1576 -0.8302 -0.1782
 6857TIP3    H142130   6.264   0.439   0.969  0.1773  0.4824  0.5167
 6857TIP3    H242131   6.376   0.503   0.891  0.4679 -1.8442 -1.0733
 6858TIP3   OH242132   1.062   3.556   1.538 -0.2416  0.5935  0.5122
 6858TIP3    H142133   1.131   3.571   1.474 -2.6834  0.1584 -2.4406
 6858TIP3    H242134   1.063   3.635   1.593  1.1019  1.6104 -0.8993
 6859TIP3   OH242135   0.936   0.384   8.179 -0.5283  0.0445 -0.1266
 6859TIP3    H142136   0.853   0.400   8.134 -0.7728 -1.2423 -0.1499
 6859TIP3    H242137   0.974   0.309   8.135  0.8989  0.8942 -0.4261
 6860TIP3   OH242138   2.140   1.357   7.119  0.3281 -0.0085 -0.1392
 6860TIP3    H142139   2.234   1.367   7.103  0.3895  0.9132  0.6865
 6860TIP3    H242140   2.098   1.385   7.038  0.7199  1.5702  0.1626
 6861TIP3   OH242141   0.826   5.221   7.460 -0.4183 -0.6712 -0.0363
 6861TIP3    H142142   0.846   5.128   7.454 -0.5224 -0.6689 -0.5041
 6861TIP3    H242143   0.832   5.241   7.553 -1.6068 -1.4106  0.2146
 6862TIP3   OH242144   1.133   3.296   7.441  0.4552 -0.0261 -0.3234
 6862TIP3    H142145   1.220   3.267   7.417  0.4829 -0.0571 -0.1884
 6862TIP3    H242146   1.142   3.390   7.458  0.4422 -0.0103 -0.4052
 6863TIP3   OH242147   6.359   3.736   0.066  0.3835 -0.4708  0.7233
 6863TIP3    H142148   6.330   3.649   0.094  1.2930 -0.3563  2.1296
 6863TIP3    H242149   6.450   3.741   0.094  0.8814  0.2914 -0.9214
 6864TIP3   OH242150   6.679   3.865   0.758 -0.1592  0.2952 -0.1862
 6864TIP3    H142151   6.652   3.782   0.719 -1.3623  0.4038  0.3705
 6864TIP3    H242152   6.733   3.907   0.690 -0.2027 -0.5731 -0.7776
 6865TIP3   OH242153   0.804   2.249   1.931  0.6460  0.1589 -0.1084
 6865TIP3    H142154   0.766   2.286   1.851  1.3801  0.9231 -0.1235
 6865TIP3    H242155   0.885   2.207   1.903  1.7851  1.8838  0.4293
 6866TIP3   OH242156   6.540   0.676   7.351  0.1713 -0.6469 -0.0935
 6866TIP3    H142157   6.476   0.608   7.331 -0.2593 -0.1311 -0.5263
 6866TIP3    H242158   6.491   0.758   7.343  0.9526 -0.2239 -0.7681
 6867TIP3   OH242159   2.157   0.906   2.051 -0.1245 -0.0792 -0.4177
 6867TIP3    H142160   2.112   0.930   2.132 -0.2699 -1.1137 -0.1760
 6867TIP3    H242161   2.155   0.811   2.050 -1.5795 -0.0859 -2.4589
 6868TIP3   OH242162   2.550   1.638   7.462 -0.1468 -0.2997 -0.0259
 6868TIP3    H142163   2.460   1.672   7.472  0.0392  0.1151  0.2996
 6868TIP3    H242164   2.555   1.609   7.371 -0.8628 -1.0621  0.1632
 6869TIP3   OH242165   1.411   5.934   1.152  0.8243  0.7217  0.7469
 6869TIP3    H142166   1.454   5.980   1.080 -1.8996  0.4082 -1.2479
 6869TIP3    H242167   1.346   5.996   1.185  1.8874  0.7804  2.8657
 6870TIP3   OH242168   3.682   5.580   7.936  0.2119  0.1917 -0.6016
 6870TIP3    H142169   3.722   5.618   8.014 -0.3105  0.9319 -0.6781
 6870TIP3    H242170   3.689   5.486   7.949  1.0554  0.3059 -0.1481
 6871TIP3   OH242171   4.588   5.615   2.345 -0.0660  0.7156  0.1876
 6871TIP3    H142172   4.587   5.663   2.428  1.2858 -0.7087  1.1026
 6871TIP3    H242173   4.528   5.663   2.288 -0.6557  2.0220  1.8272
 6872TIP3   OH242174   2.562   0.909   8.494  0.0464 -0.1011 -0.2136
 6872TIP3    H142175   2.562   0.823   8.534  0.0691 -0.1080 -0.2286
 6872TIP3    H242176   2.513   0.898   8.412 -0.8949  0.1375  0.2990
 6873TIP3   OH242177   5.168   5.416   7.328 -0.1743  0.6062 -0.0022
 6873TIP3    H142178   5.153   5.434   7.421  3.4127 -1.5331  1.1831
 6873TIP3    H242179   5.115   5.339   7.310  0.4130  0.0071  0.7780
 6874TIP3   OH242180   0.637   5.604   7.284 -0.1205  0.4035 -0.2793
 6874TIP3    H142181   0.608   5.695   7.288  1.4512  0.9689 -0.7160
 6874TIP3    H242182   0.557   5.553   7.273 -1.1210  1.6478  0.8581
 6875TIP3   OH242183   0.830   5.681   0.030 -0.5462 -0.2491 -0.2556
 6875TIP3    H142184   0.854   5.772   0.049  0.2393 -0.3333 -0.8143
 6875TIP3    H242185   0.819   5.678  -0.065 -0.9316 -0.6521 -0.2006
 6876TIP3   OH242186   5.241   3.109   0.478  0.1869  0.1415  0.1684
 6876TIP3    H142187   5.190   3.165   0.537 -1.1014  0.2464 -1.0064
 6876TIP3    H242188   5.178   3.080   0.412  1.1223 -1.6906  0.0328
 6877TIP3   OH242189   2.312   3.542   7.714 -1.0872  1.1884 -0.2625
 6877TIP3    H142190   2.378   3.590   7.764  0.0861  0.5036 -1.1079
 6877TIP3    H242191   2.314   3.582   7.627 -0.1741 -0.2855 -0.9420
 6878TIP3   OH242192   0.099   2.062   7.033 -0.7187  0.4805  0.8228
 6878TIP3    H142193   0.048   1.986   7.005 -0.5311  0.2750  1.0245
 6878TIP3    H242194   0.172   2.066   6.972 -0.2562 -0.0270  1.3351
 6879TIP3   OH242195   6.079   6.405   0.487 -0.0338 -0.5273  0.5403
 6879TIP3    H142196   6.107   6.453   0.409 -0.2151 -1.0979  0.1154
 6879TIP3    H242197   6.126   6.446   0.559  0.9866 -0.7014 -0.0094
 6880TIP3   OH242198   2.516   4.058   0.422  0.1185  0.9908  0.0869
 6880TIP3    H142199   2.478   3.987   0.369  2.1463 -0.8021  0.8687
 6880TIP3    H242200   2.462   4.060   0.501  0.9859 -0.8968  0.7920
 6881TIP3   OH242201   2.816   3.072   7.445  0.6896 -0.5570  0.0356
 6881TIP3    H142202   2.780   3.013   7.511  0.4783 -1.3910 -0.8040
 6881TIP3    H242203   2.790   3.033   7.362  2.3431 -0.4112 -0.5687
 6882TIP3   OH242204   1.724   4.528   7.669 -0.8198  0.4156 -0.5075
 6882TIP3    H142205   1.765   4.442   7.676 -0.4792  0.6035 -0.1005
 6882TIP3    H242206   1.763   4.578   7.741 -2.9769  0.1328  0.9509
 6883TIP3   OH242207   0.843   5.468   6.737 -1.0295  0.0742  0.1227
 6883TIP3    H142208   0.886   5.426   6.811  0.7019 -0.0872 -0.9127
 6883TIP3    H242209   0.780   5.529   6.776 -0.3001 -0.1527  1.7056
 6884TIP3   OH242210   4.047   1.482   6.805 -0.4786  0.3561 -0.1998
 6884TIP3    H142211   4.032   1.481   6.711 -1.0859  0.8354 -0.1181
 6884TIP3    H242212   4.048   1.390   6.831  4.3713 -0.1577 -1.3452
 6885TIP3   OH242213   2.840   3.381   7.561 -0.4697  0.2399  0.0794
 6885TIP3    H142214   2.906   3.392   7.493  0.4468  0.0497  0.8999
 6885TIP3    H242215   2.760   3.356   7.515  0.6261 -1.8605 -0.7847
 6886TIP3   OH242216   1.513   6.288   8.696  0.2626 -0.2431 -0.1297
 6886TIP3    H142217   1.445   6.354   8.681 -0.6992 -1.0429  0.5581
 6886TIP3    H242218   1.554   6.313   8.779 -0.1244 -0.5159  0.1481
 6887TIP3   OH242219   0.158   4.405   1.658  0.5238 -0.3084 -0.3979
 6887TIP3    H142220   0.070   4.368   1.658  0.6284 -0.6268 -1.7263
 6887TIP3    H242221   0.145   4.499   1.670  0.0271 -0.3816 -0.3423
 6888TIP3   OH242222   5.882   1.367   1.808 -0.2352  0.0189  0.3715
 6888TIP3    H142223   5.799   1.411   1.795 -0.1630  0.5984  1.6416
 6888TIP3    H242224   5.948   1.427   1.772 -0.1392  1.0144  2.0731
 6889TIP3   OH242225   6.294   6.754   2.007 -0.3684  0.2916 -0.2614
 6889TIP3    H142226   6.255   6.789   2.087 -1.6110 -3.2143  0.8910
 6889TIP3    H242227   6.222   6.707   1.965  0.9933 -0.4407 -1.8717
 6890TIP3   OH242228   4.118   5.384   2.167 -0.2505  0.3048 -0.1644
 6890TIP3    H142229   4.201   5.430   2.180 -0.5925  0.6413  0.9245
 6890TIP3    H242230   4.054   5.434   2.218 -1.1855  0.1975 -1.1840
 6891TIP3   OH242231   3.286   2.489   7.071 -0.1932 -0.2770  0.0122
 6891TIP3    H142232   3.313   2.440   7.149  1.3999 -1.5258 -1.2558
 6891TIP3    H242233   3.366   2.530   7.040 -0.8054  0.1789 -0.9949
 6892TIP3   OH242234   5.394   4.698   1.300  0.1135 -1.0944  0.2107
 6892TIP3    H142235   5.363   4.634   1.236 -1.4732 -3.4243  3.0837
 6892TIP3    H242236   5.488   4.705   1.284 -0.1205 -1.9852 -1.9280
 6893TIP3   OH242237   4.743   1.574   1.290  0.1905 -0.8814 -0.5012
 6893TIP3    H142238   4.741   1.602   1.198 -1.9801 -1.2331 -0.5971
 6893TIP3    H242239   4.700   1.645   1.338  2.7917  0.1221  0.5667
 6894TIP3   OH242240   5.947   1.992   0.519 -0.0785  0.0667  0.5212
 6894TIP3    H142241   5.885   1.994   0.592  0.2654  0.0380  0.8178
 6894TIP3    H242242   5.989   2.077   0.521 -0.9680  0.5597 -0.4446
 6895TIP3   OH242243   2.317   6.234   1.166 -0.0806 -0.3411  0.3664
 6895TIP3    H142244   2.354   6.172   1.229  0.7260  0.1174  0.3506
 6895TIP3    H242245   2.239   6.268   1.210 -0.7117 -1.5615  0.2617
 6896TIP3   OH242246   6.296   4.178   0.474  0.0412  0.3798 -0.0887
 6896TIP3    H142247   6.354   4.252   0.493  1.4151 -0.6078 -0.2244
 6896TIP3    H242248   6.252   4.160   0.557 -1.0074  1.8906 -0.2814
 6897TIP3   OH242249   6.235   2.809   6.480 -0.0272 -0.4498 -0.0487
 6897TIP3    H142250   6.283   2.853   6.409 -1.4112  1.0193 -0.1214
 6897TIP3    H242251   6.220   2.877   6.545 -1.2120 -1.0863  0.3761
 6898TIP3   OH242252   5.141   0.394   0.596  0.1552 -0.3649  0.0791
 6898TIP3    H142253   5.051   0.360   0.599  0.4214 -1.0456  0.8283
 6898TIP3    H242254   5.163   0.409   0.688  1.2119 -1.3287  0.0052
 6899TIP3   OH242255   2.793   0.144   0.838 -0.0728 -0.3631  0.6778
 6899TIP3    H142256   2.813   0.052   0.860 -1.7207 -0.5485  1.5278
 6899TIP3    H242257   2.705   0.158   0.871  0.1745  1.5776  0.6162
 6900TIP3   OH242258   4.878   4.382   8.647  0.2692  0.6610 -0.1825
 6900TIP3    H142259   4.945   4.449   8.665 -0.3502  1.2644 -0.0749
 6900TIP3    H242260   4.800   4.433   8.624 -0.9672  0.0553  2.3814
 6901TIP3   OH242261   2.000   1.162   0.914  0.1782  0.4759 -0.0697
 6901TIP3    H142262   1.979   1.207   0.833  1.1851 -2.6836 -2.2720
 6901TIP3    H242263   1.921   1.111   0.935  0.8335 -0.8404 -0.6835
 6902TIP3   OH242264   2.769   3.014   6.392 -0.1475 -0.1748  0.0971
 6902TIP3    H142265   2.689   3.028   6.443 -0.7817  0.7247 -1.0952
 6902TIP3    H242266   2.828   3.084   6.418  0.5693 -1.2741  1.5293
 6903TIP3   OH242267   4.192   5.195   7.365 -0.0101 -0.2491  0.1129
 6903TIP3    H142268   4.285   5.190   7.386 -0.0179 -1.4216 -0.1065
 6903TIP3    H242269   4.148   5.194   7.450  0.2104  2.2680  0.3401
 6904TIP3   OH242270   1.427   5.988   7.368  0.2473 -0.4108 -0.4467
 6904TIP3    H142271   1.405   5.989   7.275 -0.1377 -0.2193 -0.3547
 6904TIP3    H242272   1.343   5.999   7.413  0.5115  0.1390 -0.0844
 6905TIP3   OH242273   5.025   6.439   8.701  0.0936 -0.0562  0.0424
 6905TIP3    H142274   5.041   6.413   8.610 -1.1187 -0.8092  0.0216
 6905TIP3    H242275   5.063   6.527   8.707 -0.8166  0.5091 -1.5472
 6906TIP3   OH242276   4.730   0.483   8.153 -0.4716  0.0993  0.1790
 6906TIP3    H142277   4.772   0.547   8.097  2.9562 -1.1084  1.0955
 6906TIP3    H242278   4.709   0.410   8.095 -1.3344  0.7052 -0.2902
 6907TIP3   OH242279   0.078   4.130   0.683  0.2930 -0.0078  0.3469
 6907TIP3    H142280   0.122   4.097   0.762  4.5831 -0.8765 -2.0596
 6907TIP3    H242281  -0.015   4.111   0.698  1.2831 -4.0118  3.4456
 6908TIP3   OH242282   6.646   4.502   8.060 -0.3304  0.0308  0.0699
 6908TIP3    H142283   6.561   4.545   8.073  0.2866  1.1111  0.7526
 6908TIP3    H242284   6.660   4.507   7.966 -0.9807 -0.0684 -0.0415
 6909TIP3   OH242285   5.937   5.054   8.084 -0.0428  0.1112 -0.4363
 6909TIP3    H142286   5.904   5.138   8.050  0.3295  0.8446  0.9327
 6909TIP3    H242287   5.884   5.036   8.161  0.7154 -0.2527  0.0194
 6910TIP3   OH242288   5.712   0.183   2.116 -0.8345  0.1848  0.6123
 6910TIP3    H142289   5.744   0.163   2.204  0.4492  1.8381  0.5734
 6910TIP3    H242290   5.792   0.199   2.065 -1.5388 -0.9968 -0.9477
 6911TIP3   OH242291   2.719   2.263   8.815 -0.7384  0.3767  0.2934
 6911TIP3    H142292   2.809   2.296   8.823 -0.3813 -0.0337 -1.5230
 6911TIP3    H242293   2.727   2.168   8.822 -0.8799  0.2744 -0.6976
 6912TIP3   OH242294   4.062   1.828   7.249 -0.5755  0.1741  0.7194
 6912TIP3    H142295   4.132   1.765   7.263 -0.5970  0.4183  2.0227
 6912TIP3    H242296   4.107   1.906   7.215 -0.4614 -0.2760 -0.1918
 6913TIP3   OH242297   5.232   5.118   7.364 -0.2335  0.1626 -1.0010
 6913TIP3    H142298   5.238   5.118   7.459 -0.7357  1.9921 -0.9392
 6913TIP3    H242299   5.315   5.155   7.333 -0.8803  1.5721 -1.1500
 6914TIP3   OH242300   1.595   2.515   7.874  0.3369 -0.1045  0.3630
 6914TIP3    H142301   1.688   2.532   7.884  0.5785 -0.0447 -1.5751
 6914TIP3    H242302   1.552   2.574   7.935  1.4696  1.9547 -0.7288
 6915TIP3   OH242303   6.126   1.010   1.148 -1.1870  0.0719  0.3489
 6915TIP3    H142304   6.063   0.994   1.078 -1.7288 -0.9569  1.0412
 6915TIP3    H242305   6.079   0.985   1.228 -0.0788 -0.1911  0.9298
 6916TIP3   OH242306   2.140   4.533   0.307  0.2396  0.5126 -0.1837
 6916TIP3    H142307   2.057   4.557   0.349 -0.3527 -1.6576 -0.0142
 6916TIP3    H242308   2.143   4.588   0.229 -0.6575  1.6280  0.5160
 6917TIP3   OH242309   4.259   1.020   6.579 -0.3994  0.4656  0.2891
 6917TIP3    H142310   4.217   1.045   6.496 -0.6168 -2.0533 -0.4249
 6917TIP3    H242311   4.192   0.969   6.625  0.7607 -0.8244  0.5943
 6918TIP3   OH242312   6.510   2.385   7.234 -0.7446  0.1266  0.2036
 6918TIP3    H142313   6.588   2.419   7.278  0.3407 -1.4493 -0.4391
 6918TIP3    H242314   6.514   2.421   7.146 -0.1320 -0.7979 -0.1644
 6919TIP3   OH242315   5.375   3.278   7.346 -0.2575 -0.1615 -0.3505
 6919TIP3    H142316   5.360   3.275   7.441  2.7441 -0.7169  0.2212
 6919TIP3    H242317   5.434   3.205   7.329  0.9945  1.1974 -2.2731
 6920TIP3   OH242318   0.455   4.135   1.260  0.3239 -0.0274  0.1589
 6920TIP3    H142319   0.418   4.047   1.251  1.8316 -0.5507 -1.4181
 6920TIP3    H242320   0.405   4.174   1.332 -1.3191 -1.6688  0.0022
 6921TIP3   OH242321   4.558   5.802   2.552  0.0304  0.0642 -0.0922
 6921TIP3    H142322   4.646   5.828   2.525 -0.1135  0.2869 -0.3492
 6921TIP3    H242323   4.503   5.877   2.533 -0.8296 -1.1920 -3.0936
 6922TIP3   OH242324   0.870   0.186   1.748  0.4215  0.1893  0.0060
 6922TIP3    H142325   0.854   0.235   1.667  2.6421 -1.0443 -1.2829
 6922TIP3    H242326   0.962   0.204   1.768  0.6645 -1.6656  0.7048
 6923TIP3   OH242327   5.273   6.471   1.418 -0.7983  0.2177 -0.1052
 6923TIP3    H142328   5.272   6.529   1.343 -0.0906 -0.5168 -0.7077
 6923TIP3    H242329   5.195   6.493   1.468 -1.4535  0.4902 -1.2293
 6924TIP3   OH242330   5.075   6.401   7.240  0.3773  0.2020  0.3553
 6924TIP3    H142331   5.149   6.341   7.229 -0.7750 -1.5470  1.5900
 6924TIP3    H242332   5.009   6.370   7.178  0.0608  0.6594  0.4580
 6925TIP3   OH242333   0.156   0.298   8.122  0.1100  0.4855 -0.2243
 6925TIP3    H142334   0.247   0.304   8.151  0.0099  1.3186 -0.0565
 6925TIP3    H242335   0.159   0.240   8.046  0.8833  1.0113 -0.6137
 6926TIP3   OH242336   0.617   5.257   8.619 -0.3191  0.7028 -0.1652
 6926TIP3    H142337   0.539   5.258   8.564  1.3055 -0.3836 -2.6561
 6926TIP3    H242338   0.597   5.193   8.687 -1.2092 -0.4640 -1.4573
 6927TIP3   OH242339   5.875   4.640   7.676  0.1235  0.5608 -0.4253
 6927TIP3    H142340   5.912   4.654   7.589  0.2137 -2.3644 -0.9310
 6927TIP3    H242341   5.796   4.695   7.678 -1.6289 -1.5714 -3.5754
 6928TIP3   OH242342   0.083   2.238   8.079 -0.3453  0.1325 -0.0534
 6928TIP3    H142343   0.076   2.302   8.008 -1.2113  1.8930  1.5380
 6928TIP3    H242344   0.027   2.272   8.148  2.1980 -0.2690  2.3967
 6929TIP3   OH242345   3.719   0.293   1.265 -0.0579 -0.0586 -0.2821
 6929TIP3    H142346   3.784   0.286   1.195  2.1819 -2.4478  1.8388
 6929TIP3    H242347   3.639   0.256   1.227  0.6003  0.1922 -2.0382
 6930TIP3   OH242348   3.118   1.999   1.068 -0.1643  0.4863 -0.4695
 6930TIP3    H142349   3.054   1.975   1.135 -0.2531  2.9125  0.4067
 6930TIP3    H242350   3.196   1.949   1.091 -0.8835 -0.4080  0.1005
 6931TIP3   OH242351   4.189   3.157   0.931  0.2850 -0.1795 -0.0508
 6931TIP3    H142352   4.103   3.114   0.925  0.4738 -0.9809  2.1220
 6931TIP3    H242353   4.250   3.093   0.895  0.2571 -0.6971  0.7948
 6932TIP3   OH242354   2.127   3.566   0.656  0.3034 -0.0658  0.5123
 6932TIP3    H142355   2.062   3.514   0.704 -1.2449  0.6381 -0.7076
 6932TIP3    H242356   2.097   3.564   0.565  1.3566  1.2512  0.1002
 6933TIP3   OH242357   2.758   1.815   0.401 -0.1801 -0.3240  0.2219
 6933TIP3    H142358   2.789   1.725   0.386  1.0270  0.2065 -0.6544
 6933TIP3    H242359   2.735   1.816   0.494 -1.6877 -1.9395 -0.0766
 6934TIP3   OH242360   2.840   2.727   7.429  0.1877 -0.1840 -0.1653
 6934TIP3    H142361   2.806   2.768   7.508  1.4217  2.4903 -0.8793
 6934TIP3    H242362   2.764   2.685   7.389 -1.0507  0.7933  1.0414
 6935TIP3   OH242363   0.795   5.959   1.836  0.0833  0.2498  0.4475
 6935TIP3    H142364   0.756   5.898   1.898 -4.0940  3.8213  1.7602
 6935TIP3    H242365   0.833   6.028   1.890  0.4664  1.1748 -0.9502
 6936TIP3   OH242366   2.496   3.049   8.389 -0.5577 -0.9385  0.1298
 6936TIP3    H142367   2.452   3.132   8.368 -0.8996 -0.7518  1.5272
 6936TIP3    H242368   2.552   3.069   8.464  2.4294 -1.0243 -1.8752
 6937TIP3   OH242369   3.199   1.131   7.003 -0.2334 -0.5762  0.6078
 6937TIP3    H142370   3.160   1.169   7.082 -0.4347  0.7672 -0.1188
 6937TIP3    H242371   3.175   1.191   6.933  0.6818 -1.2912 -0.3429
 6938TIP3   OH242372   6.354   1.112   0.224 -0.0003 -0.6561 -0.2798
 6938TIP3    H142373   6.282   1.162   0.184  0.7071  0.2265 -0.4924
 6938TIP3    H242374   6.372   1.042   0.161 -0.5532 -0.7787 -0.3074
 6939TIP3   OH242375   5.761   3.120   6.895 -0.2796  0.0608  0.1802
 6939TIP3    H142376   5.676   3.163   6.904 -0.1298  0.0315  2.2056
 6939TIP3    H242377   5.742   3.040   6.845 -1.4639  0.0309  0.6425
 6940TIP3   OH242378   2.392   2.584   1.622 -0.6485  0.6184  0.1568
 6940TIP3    H142379   2.420   2.495   1.643 -2.0474  0.1929  0.3113
 6940TIP3    H242380   2.465   2.639   1.651  0.1836 -0.4504  0.1793
 6941TIP3   OH242381   1.334   3.090   1.799 -0.5066  0.4740  0.4936
 6941TIP3    H142382   1.284   3.153   1.746 -0.4230  0.5614  0.5181
 6941TIP3    H242383   1.331   3.009   1.749  1.5535  1.1304 -0.8350
 6942TIP3   OH242384   5.061   5.939   8.737 -0.5106 -0.0204 -0.7912
 6942TIP3    H142385   5.077   5.850   8.769 -1.8142  0.6009  1.8398
 6942TIP3    H242386   5.068   5.932   8.641  1.7769 -2.4276 -0.5652
 6943TIP3   OH242387   0.892   6.259   7.462  0.2820  0.0328 -0.2333
 6943TIP3    H142388   0.873   6.345   7.499 -0.0410 -0.3499  0.5216
 6943TIP3    H242389   0.944   6.277   7.385  0.3613  0.8998  0.0116
 6944TIP3   OH242390   6.202   4.649   7.614 -0.4857  0.2187 -0.1302
 6944TIP3    H142391   6.149   4.692   7.547  0.0043  0.7518 -0.1871
 6944TIP3    H242392   6.173   4.558   7.613 -2.6316  0.8294  1.0556
 6945TIP3   OH242393   5.586   3.310   1.986 -0.1418  0.4983  0.2091
 6945TIP3    H142394   5.509   3.302   2.042  0.5456 -0.7594  1.0294
 6945TIP3    H242395   5.555   3.284   1.899 -1.0799  1.9124  0.1004
 6946TIP3   OH242396   0.109   4.946   0.418 -0.3779  0.0796 -0.4694
 6946TIP3    H142397   0.200   4.963   0.441 -0.6698  1.2573 -0.0869
 6946TIP3    H242398   0.112   4.868   0.362  0.6445 -1.2338  1.3101
 6947TIP3   OH242399   1.232   2.124   7.559 -0.0554 -0.2899 -0.0247
 6947TIP3    H142400   1.138   2.135   7.547 -0.3836 -1.6277  1.0417
 6947TIP3    H242401   1.259   2.201   7.610 -0.5146  0.2148 -0.5353
 6948TIP3   OH242402   5.262   4.200   1.832  0.0576 -0.0310  0.3921
 6948TIP3    H142403   5.236   4.124   1.885 -1.5408  0.5617  0.5354
 6948TIP3    H242404   5.251   4.274   1.891 -1.6966  0.6392 -0.6871
 6949TIP3   OH242405   6.512   1.371   1.213  0.2353 -0.1516  0.0467
 6949TIP3    H142406   6.446   1.311   1.180 -0.7534  1.1875 -0.5067
 6949TIP3    H242407   6.496   1.375   1.308  2.3075 -3.0691  0.6644
 6950TIP3   OH242408   0.069   1.632   0.374  0.0012  0.0050  0.0564
 6950TIP3    H142409   0.017   1.694   0.324  2.2139 -0.5260 -3.2097
 6950TIP3    H242410   0.104   1.683   0.447 -1.2278  1.5812 -0.4122
 6951TIP3   OH242411   5.881   6.566   1.527  0.6712 -0.1297 -0.4338
 6951TIP3    H142412   5.893   6.545   1.619 -0.3655  0.0282 -0.2444
 6951TIP3    H242413   5.793   6.605   1.522  0.6837 -0.1847 -1.4882
 6952TIP3   OH242414   5.130   6.201   8.061 -0.0066 -0.2524 -0.4271
 6952TIP3    H142415   5.134   6.132   7.995  2.3615  1.5306 -2.3102
 6952TIP3    H242416   5.212   6.248   8.052 -0.5873  1.5284  2.2859
 6953TIP3   OH242417   5.957   2.823   1.535 -0.3255 -0.1065  0.1041
 6953TIP3    H142418   5.923   2.763   1.601  0.0570 -0.6610 -0.1895
 6953TIP3    H242419   5.922   2.909   1.560  0.4714 -0.1597  1.4846
 6954TIP3   OH242420   1.691   2.211   2.339  0.5603  0.1908 -0.2490
 6954TIP3    H142421   1.684   2.141   2.403  1.9639 -0.0370 -0.3065
 6954TIP3    H242422   1.747   2.277   2.382  0.4105  0.6378 -0.7293
 6955TIP3   OH242423   3.072   5.858   0.791  0.2114 -0.0565 -0.3987
 6955TIP3    H142424   3.085   5.910   0.711 -2.5112 -0.1738 -1.0255
 6955TIP3    H242425   3.117   5.776   0.774 -0.4205 -0.1225 -1.9150
 6956TIP3   OH242426   6.097   3.280   1.512  0.1148  1.1005 -0.2607
 6956TIP3    H142427   6.129   3.274   1.422  0.8156 -1.3800  0.0740
 6956TIP3    H242428   6.013   3.235   1.510 -0.1836  1.6335  0.2068
 6957TIP3   OH242429   1.250   1.850   0.599  0.0649  0.0148 -0.6907
 6957TIP3    H142430   1.310   1.918   0.631 -0.8309  0.1423  0.7942
 6957TIP3    H242431   1.303   1.770   0.598  0.6058  0.3652 -0.6135
 6958TIP3   OH242432   3.325   4.858   7.454  0.3426  0.5207  0.4193
 6958TIP3    H142433   3.398   4.829   7.509 -0.9464 -0.1589  1.8515
 6958TIP3    H242434   3.251   4.862   7.514 -0.8504  0.9826 -1.0467
 6959TIP3   OH242435   4.959   2.135   7.739 -0.0219 -0.4196 -0.0063
 6959TIP3    H142436   4.983   2.071   7.672  0.6877  0.2790 -0.4450
 6959TIP3    H242437   4.869   2.114   7.762 -0.1195 -0.9647 -0.8498
 6960TIP3   OH242438   0.848   5.222   7.180  0.4464 -0.0387 -0.2987
 6960TIP3    H142439   0.932   5.179   7.165 -0.3462 -2.1320  0.8144
 6960TIP3    H242440   0.833   5.214   7.274 -1.8383 -1.4639 -0.7088
 6961TIP3   OH242441   1.729   2.563   0.851  0.1887  0.4208 -0.0143
 6961TIP3    H142442   1.691   2.646   0.880  0.3967  1.0157 -1.3855
 6961TIP3    H242443   1.768   2.582   0.766 -0.6557 -1.3026 -0.8532
 6962TIP3   OH242444   4.087   0.881   0.741 -0.0120  0.1472  0.4540
 6962TIP3    H142445   4.084   0.794   0.701  0.1255  0.3481 -0.0082
 6962TIP3    H242446   4.027   0.877   0.815 -0.6782 -0.0822 -0.0882
 6963TIP3   OH242447   5.147   2.716   7.438 -0.5730 -0.2207 -0.1760
 6963TIP3    H142448   5.081   2.665   7.485  0.6926 -1.4095  0.3738
 6963TIP3    H242449   5.119   2.713   7.347 -1.7574  0.0649  0.1559
 6964TIP3   OH242450   4.683   4.099   7.611  0.0005  0.9497  0.7534
 6964TIP3    H142451   4.770   4.072   7.643  0.2757 -0.4245 -0.9590
 6964TIP3    H242452   4.699   4.180   7.563  0.3518  0.7056  0.4515
 6965TIP3   OH242453   0.610   2.724   0.671  0.0585  0.0804  0.2237
 6965TIP3    H142454   0.572   2.800   0.716  2.0679 -0.3206  2.8521
 6965TIP3    H242455   0.639   2.759   0.586 -0.6192  1.8169  0.6503
 6966TIP3   OH242456   0.692   3.993   1.195 -0.5144  0.2727  0.1687
 6966TIP3    H142457   0.617   4.048   1.220 -1.5669 -0.5452 -1.1035
 6966TIP3    H242458   0.674   3.908   1.234 -0.2969  0.0421 -0.2283
 6967TIP3   OH242459   4.648   5.406   0.885 -0.0128  0.2663 -0.1650
 6967TIP3    H142460   4.716   5.366   0.831  0.0509 -1.8505  1.3798
 6967TIP3    H242461   4.656   5.500   0.867  3.4729  0.1439  0.1049
 6968TIP3   OH242462   4.213   0.650   7.221  0.0617 -0.3070  0.0746
 6968TIP3    H142463   4.220   0.732   7.171 -1.1609 -0.2646 -0.0579
 6968TIP3    H242464   4.127   0.654   7.261 -0.6102 -2.1343 -1.0559
 6969TIP3   OH242465   3.656   1.878   0.164  0.6202 -0.4557 -0.3871
 6969TIP3    H142466   3.616   1.841   0.243  1.6184  2.0179  1.4430
 6969TIP3    H242467   3.598   1.949   0.139  0.8298 -0.5928 -1.2785
 6970TIP3   OH242468   2.555   5.622   7.364 -0.0483  0.3274 -0.2920
 6970TIP3    H142469   2.605   5.704   7.362 -0.7830  0.7808 -0.2295
 6970TIP3    H242470   2.621   5.554   7.377  0.6502  0.8443 -1.0401
 6971TIP3   OH242471   2.911   1.347   1.833  0.3893 -0.0635  0.4549
 6971TIP3    H142472   2.898   1.381   1.744  0.0696 -2.0953 -0.3313
 6971TIP3    H242473   2.841   1.386   1.884  1.0648  1.7847  0.0307
 6972TIP3   OH242474   2.160   2.652   7.638 -0.2683 -0.4927 -0.4699
 6972TIP3    H142475   2.198   2.726   7.590  0.0212  0.3189  0.9220
 6972TIP3    H242476   2.171   2.577   7.580 -0.3357  0.5063 -1.8281
 6973TIP3   OH242477   3.549   3.204   0.552  0.1073 -0.4821  0.1426
 6973TIP3    H142478   3.595   3.158   0.483  0.0812  0.0776 -0.2558
 6973TIP3    H242479   3.582   3.294   0.548 -0.9950 -0.0731 -0.1431
 6974TIP3   OH242480   6.021   2.894   0.384  0.6354 -0.0332  0.2111
 6974TIP3    H142481   6.027   2.826   0.451  2.2333  0.8470  1.0199
 6974TIP3    H242482   5.981   2.850   0.309  0.8159 -1.6245  0.9971
 6975TIP3   OH242483   6.592   6.260   7.594  0.2047  0.0311 -0.3468
 6975TIP3    H142484   6.636   6.269   7.679  0.9378 -0.5484 -0.6492
 6975TIP3    H242485   6.663   6.239   7.533 -0.6500 -2.5766 -0.5709
 6976TIP3   OH242486   2.941   0.627   0.022 -0.1771 -0.3018 -0.1678
 6976TIP3    H142487   3.014   0.617   0.083  0.4473 -2.9114 -1.2036
 6976TIP3    H242488   2.877   0.561   0.051 -1.4975  0.9209 -0.1844
 6977TIP3   OH242489   5.401   5.714   8.149 -0.4251  0.1763 -0.0707
 6977TIP3    H142490   5.399   5.809   8.132 -0.9467 -0.0141 -1.1694
 6977TIP3    H242491   5.350   5.676   8.077  0.2819 -0.9923  0.0223
 6978TIP3   OH242492   5.537   2.130   1.921  0.5304 -0.1446 -0.0492
 6978TIP3    H142493   5.576   2.043   1.909 -0.0080 -0.5152  0.7428
 6978TIP3    H242494   5.459   2.128   1.865  1.5067  0.5208 -1.4719
 6979TIP3   OH242495   4.988   5.967   7.246 -0.2416 -0.2463 -0.0222
 6979TIP3    H142496   5.063   5.929   7.292 -0.1383  0.5329  0.4810
 6979TIP3    H242497   4.959   5.898   7.186  2.3488  0.2205 -2.0162
 6980TIP3   OH242498   2.269   5.743   8.606 -0.5633  0.5033  0.2025
 6980TIP3    H142499   2.300   5.674   8.665  0.8732  0.2057 -0.8286
 6980TIP3    H242500   2.247   5.696   8.525 -1.5221  1.0269  0.1429
 6981TIP3   OH242501   3.831   2.447   8.170  0.3814  0.2851  0.5309
 6981TIP3    H142502   3.744   2.452   8.209  0.1602 -0.2747  0.1091
 6981TIP3    H242503   3.838   2.527   8.118 -0.5189 -0.4260 -0.7321
 6982TIP3   OH242504   4.547   3.747   1.838 -0.0141 -0.0671 -0.0665
 6982TIP3    H142505   4.478   3.723   1.900  0.6997 -0.6702  0.5196
 6982TIP3    H242506   4.610   3.675   1.843  0.1863 -0.0035 -1.3162
 6983TIP3   OH242507   2.487   1.784   7.000  0.6164  0.4596  0.2389
 6983TIP3    H142508   2.537   1.721   7.051 -0.9240 -0.5079  0.6093
 6983TIP3    H242509   2.416   1.733   6.962 -0.5636  1.9402  0.3965
 6984TIP3   OH242510   1.404   1.894   7.494 -0.0246  0.0269 -0.0647
 6984TIP3    H142511   1.382   1.986   7.507 -0.0114  0.2628 -1.5593
 6984TIP3    H242512   1.498   1.889   7.511 -0.1426  0.1491  0.6559
 6985TIP3   OH242513   1.964   2.975   6.259  0.4728 -0.2462  0.2651
 6985TIP3    H142514   2.024   3.041   6.224  1.6853 -0.9107  1.0245
 6985TIP3    H242515   2.021   2.911   6.302 -0.8453 -0.3527  1.9531
 6986TIP3   OH242516   6.308   6.400   8.617  0.4474  0.0332  0.8466
 6986TIP3    H142517   6.387   6.429   8.571 -0.4884 -1.5344 -1.9473
 6986TIP3    H242518   6.341   6.367   8.701  2.3831  1.9335  0.9256
 6987TIP3   OH242519   5.083   1.104   8.552  0.5665  0.0391 -0.2256
 6987TIP3    H142520   5.067   1.017   8.589 -0.8349  0.6851  0.7555
 6987TIP3    H242521   5.169   1.129   8.585  0.6899 -0.6944  0.0207
 6988TIP3   OH242522   2.150   2.678   1.459  0.2475 -0.2659 -0.0237
 6988TIP3    H142523   2.092   2.691   1.534  0.7561  1.2489  0.1481
 6988TIP3    H242524   2.236   2.664   1.498  0.3379 -0.5595 -0.3191
 6989TIP3   OH242525   4.452   2.181   0.323 -0.2771  0.0713 -0.0749
 6989TIP3    H142526   4.500   2.183   0.406  0.0218  0.2949 -0.2551
 6989TIP3    H242527   4.360   2.173   0.350 -0.2060  0.4309  0.2831
 6990TIP3   OH242528   1.151   4.831   0.375 -0.4127  0.1566  0.6080
 6990TIP3    H142529   1.240   4.833   0.410 -0.3428  0.1272  0.4286
 6990TIP3    H242530   1.135   4.920   0.343 -1.0439  0.6352  2.1484
 6991TIP3   OH242531   3.948   1.291   2.106 -0.4857  0.2140 -0.0743
 6991TIP3    H142532   3.906   1.282   2.192  1.5616  1.2418  1.1142
 6991TIP3    H242533   3.966   1.385   2.099  1.7051 -0.1814 -0.4161
 6992TIP3   OH242534   3.895   2.627   0.255 -0.1826 -0.6604 -0.2813
 6992TIP3    H142535   3.868   2.627   0.163  1.5767 -2.3468 -0.8687
 6992TIP3    H242536   3.852   2.550   0.293 -0.9130  0.0359  0.3455
 6993TIP3   OH242537   4.661   6.697   6.881 -0.4960 -0.3072  0.5829
 6993TIP3    H142538   4.722   6.648   6.826  0.5393 -1.1506  2.3996
 6993TIP3    H242539   4.581   6.645   6.881 -0.8836  0.2214 -0.8847
 6994TIP3   OH242540   1.325   5.946   8.588  0.4096 -0.1603 -0.2527
 6994TIP3    H142541   1.412   5.943   8.547 -0.8300  2.0109 -3.3770
 6994TIP3    H242542   1.283   5.864   8.564  0.5441  0.0886 -1.3584
 6995TIP3   OH242543   3.467   5.337   8.149  0.4638  0.1082  0.3629
 6995TIP3    H142544   3.473   5.342   8.244  0.5782 -2.7550  0.6115
 6995TIP3    H242545   3.419   5.415   8.123 -1.6188 -0.1427  3.0190
 6996TIP3   OH242546   0.318   0.653   0.199  0.1307 -0.4986  0.1993
 6996TIP3    H142547   0.350   0.579   0.251 -0.2348  0.1995  1.4504
 6996TIP3    H242548   0.228   0.628   0.174 -0.7612  0.3310  2.3519
 6997TIP3   OH242549   5.763   5.216   0.163  0.0505  0.2757 -0.2179
 6997TIP3    H142550   5.738   5.241   0.074 -0.8029  3.8796  0.8627
 6997TIP3    H242551   5.855   5.244   0.171  0.7286 -1.7305 -0.4482
 6998TIP3   OH242552   2.738   6.618   1.846  0.3606  0.4637 -0.0611
 6998TIP3    H142553   2.749   6.713   1.852  1.5206  0.3379  0.0114
 6998TIP3    H242554   2.643   6.604   1.853  0.3125  1.4666  1.8026
 6999TIP3   OH242555   5.481   3.615   2.228  0.2928  0.3411  0.2667
 6999TIP3    H142556   5.479   3.553   2.300  1.3047 -1.3191 -1.0527
 6999TIP3    H242557   5.389   3.636   2.211  0.0627  1.4835  2.5608
 7000TIP3   OH242558   6.618   4.579   8.449  0.1647 -0.0230  0.9169
 7000TIP3    H142559   6.528   4.561   8.476 -0.6804  0.2645 -1.4592
 7000TIP3    H242560   6.672   4.543   8.519 -1.7978  0.8951  3.0326
 7001TIP3   OH242561   2.942   1.854   8.717 -0.0415  0.4680 -0.7449
 7001TIP3    H142562   2.929   1.789   8.648  1.3904  0.7967 -1.3653
 7001TIP3    H242563   3.003   1.813   8.778 -0.9707  0.3458  0.1307
 7002TIP3   OH242564   1.161   4.715   1.444  0.7292 -0.2345 -0.3848
 7002TIP3    H142565   1.098   4.680   1.381  0.9590  2.1240 -2.0361
 7002TIP3    H242566   1.211   4.639   1.472 -0.2780 -1.5731 -2.0178
 7003TIP3   OH242567   3.486   5.674   8.514 -0.5413 -0.5933 -0.3065
 7003TIP3    H142568   3.532   5.653   8.433  1.2148 -1.0560  0.7703
 7003TIP3    H242569   3.393   5.673   8.489 -0.0210  0.2896 -2.5161
 7004TIP3   OH242570   2.411   6.527   0.392  1.0086 -0.7051 -0.4570
 7004TIP3    H142571   2.370   6.613   0.389  0.1250 -1.1187 -0.8486
 7004TIP3    H242572   2.364   6.481   0.462  0.6280 -1.2565 -1.0556
 7005TIP3   OH242573   2.661   4.071   1.302 -1.0409  0.2136  0.1820
 7005TIP3    H142574   2.607   4.025   1.367 -1.1861  0.7729  0.4662
 7005TIP3    H242575   2.678   4.157   1.342  0.4924 -0.1355  0.3188
 7006TIP3   OH242576   2.377   1.952   7.303  0.0232 -0.0061 -0.6445
 7006TIP3    H142577   2.326   2.025   7.338  0.9562  0.9105 -1.1490
 7006TIP3    H242578   2.346   1.876   7.352 -1.5839  0.5716 -0.7142
 7007TIP3   OH242579   6.729   3.115   1.167 -0.4329 -0.1594  0.6180
 7007TIP3    H142580   6.738   3.124   1.072 -0.3306  0.6631  0.6915
 7007TIP3    H242581   6.671   3.188   1.191  0.8327  0.6162  1.3852
 7008TIP3   OH242582   5.736   3.422   0.687 -0.2102 -0.1077  0.4401
 7008TIP3    H142583   5.696   3.379   0.612 -0.0461  0.7127 -0.1281
 7008TIP3    H242584   5.822   3.451   0.656 -0.4925  1.0263  0.6563
 7009TIP3   OH242585   1.093   5.201   8.396 -0.5369 -0.5571 -0.2808
 7009TIP3    H142586   1.157   5.263   8.430 -2.1804  0.3606  1.3456
 7009TIP3    H242587   1.103   5.123   8.451  0.3438 -1.1130 -1.1908
 7010TIP3   OH242588   0.033   4.930   0.722 -0.0895 -0.0359 -0.0983
 7010TIP3    H142589   0.086   4.863   0.765 -0.1850 -0.6027 -0.8371
 7010TIP3    H242590   0.046   4.915   0.629 -1.5780 -0.2115 -0.3011
 7011TIP3   OH242591   5.554   6.613   1.137  0.0022  0.6960  0.0494
 7011TIP3    H142592   5.609   6.683   1.173 -0.2784  0.8970  0.0883
 7011TIP3    H242593   5.598   6.532   1.164  0.5848  0.8555 -0.3907
 7012TIP3   OH242594   5.147   3.424   0.373  0.1347 -0.2694 -0.5500
 7012TIP3    H142595   5.108   3.362   0.312 -1.3022  1.1468 -1.1416
 7012TIP3    H242596   5.199   3.483   0.318  1.6648 -1.0337  0.0278
 7013TIP3   OH242597   5.768   1.206   2.774  0.1578 -0.4951 -0.4049
 7013TIP3    H142598   5.802   1.134   2.721 -0.3583 -1.4997  0.5882
 7013TIP3    H242599   5.801   1.189   2.862  1.9738  1.7777 -0.5451
 7014TIP3   OH242600   0.449   4.688   1.154  0.5990 -0.0560 -0.3043
 7014TIP3    H142601   0.378   4.744   1.124  0.5745  0.6272  0.9633
 7014TIP3    H242602   0.407   4.624   1.211  0.8066 -0.5732 -0.7215
 7015TIP3   OH242603   1.293   6.090   7.676  0.1903 -0.2254  0.1329
 7015TIP3    H142604   1.232   6.068   7.606 -0.5703  0.3062  0.6149
 7015TIP3    H242605   1.240   6.091   7.756  0.8484  0.1194  0.5832
 7016TIP3   OH242606   2.229   4.605   0.898 -0.4037 -0.3272 -0.2689
 7016TIP3    H142607   2.180   4.546   0.955 -0.2530 -0.1794  0.0163
 7016TIP3    H242608   2.220   4.691   0.938 -2.3703  0.2613 -1.7902
 7017TIP3   OH242609   2.916   4.341   0.311  0.2798  0.2710 -0.1580
 7017TIP3    H142610   2.952   4.295   0.387 -0.1098  1.9931  1.1269
 7017TIP3    H242611   2.831   4.301   0.296 -0.1623  0.7077  1.0983
 7018TIP3   OH242612   4.384   4.719   7.289  0.1956  0.1374 -0.9616
 7018TIP3    H142613   4.334   4.649   7.247  0.4763 -0.1926 -0.7527
 7018TIP3    H242614   4.385   4.790   7.225 -0.7750  0.2544 -0.8585
 7019TIP3   OH242615   1.535   4.598   2.028  0.5742  0.1309 -0.1875
 7019TIP3    H142616   1.530   4.674   2.086 -5.0191 -0.1877  0.3002
 7019TIP3    H242617   1.563   4.526   2.086  0.1547  0.7623  0.8290
 7020TIP3   OH242618   4.093   3.578   2.195  0.1365 -0.0359  0.5190
 7020TIP3    H142619   4.163   3.625   2.151  0.0436 -1.0718 -0.7963
 7020TIP3    H242620   4.021   3.641   2.202  1.0018  0.8837  1.4367
 7021TIP3   OH242621   5.661   6.602   7.375  0.4082 -0.2982  0.4465
 7021TIP3    H142622   5.713   6.522   7.367 -1.5435 -1.7044  1.0419
 7021TIP3    H242623   5.622   6.614   7.288  1.7145  0.7986 -0.0220
 7022TIP3   OH242624   3.894   0.544   8.351 -0.7705  0.4663 -0.4235
 7022TIP3    H142625   3.856   0.562   8.265  0.5279 -1.8735 -1.5654
 7022TIP3    H242626   3.980   0.506   8.332 -0.1885  0.4406  1.9438
 7023TIP3   OH242627   0.017   1.259   2.381  1.1475  0.0164  0.1998
 7023TIP3    H142628  -0.038   1.326   2.421 -0.2177  0.2989 -1.9940
 7023TIP3    H242629  -0.044   1.191   2.353  2.0641 -0.3904 -0.9130
 7024TIP3   OH242630   4.578   3.426   6.680  0.0026  0.0878 -0.2167
 7024TIP3    H142631   4.491   3.409   6.643  0.4834 -0.7937 -0.9618
 7024TIP3    H242632   4.607   3.341   6.712  1.6815 -0.2184 -2.3332
 7025TIP3   OH242633   2.578   4.917   0.241  0.4277  0.2132 -0.5314
 7025TIP3    H142634   2.489   4.954   0.246  0.3118 -0.2493  2.1725
 7025TIP3    H242635   2.635   4.989   0.266  0.5363 -0.3148  0.7813
 7026TIP3   OH242636   2.842   4.532   1.329  0.1944 -0.2267 -0.1690
 7026TIP3    H142637   2.911   4.521   1.394  0.1443  0.0475 -0.0691
 7026TIP3    H242638   2.875   4.488   1.250 -0.5366 -2.2805  0.5911
 7027TIP3   OH242639   3.979   6.673   8.207  0.1339  0.3777  0.4545
 7027TIP3    H142640   3.921   6.598   8.215  0.5497  0.1955  2.0528
 7027TIP3    H242641   4.066   6.635   8.195  0.1998  0.6255  0.1312
 7028TIP3   OH242642   3.081   0.056   7.042 -0.4912 -0.3699 -0.0791
 7028TIP3    H142643   3.114   0.101   7.120  1.5638  1.9359 -2.0964
 7028TIP3    H242644   3.157   0.011   7.006 -0.9074  0.1488 -1.7012
 7029TIP3   OH242645   5.685   5.789   8.488  0.1302 -0.0743 -0.0189
 7029TIP3    H142646   5.673   5.872   8.442  0.6842 -0.2184 -0.4345
 7029TIP3    H242647   5.718   5.814   8.574 -3.6852  0.3988  1.5103
 7030TIP3   OH242648   4.433   3.856   6.563  0.8794 -0.1981 -0.0281
 7030TIP3    H142649   4.477   3.904   6.493  1.4977  0.9997  1.1405
 7030TIP3    H242650   4.499   3.796   6.597  0.3469 -1.3459 -0.9537
 7031TIP3   OH242651   4.551   4.140   8.415 -0.6972 -0.4077  0.6397
 7031TIP3    H142652   4.459   4.118   8.404 -0.3893 -0.9115 -1.3241
 7031TIP3    H242653   4.574   4.186   8.334  1.5878 -3.2716 -0.5013
 7032TIP3   OH242654   4.644   5.962   1.026 -0.5438 -0.3972 -0.4772
 7032TIP3    H142655   4.704   5.952   1.100 -1.2681 -1.2200  0.0139
 7032TIP3    H242656   4.629   6.056   1.020  0.0158 -0.2705  0.0145
 7033TIP3   OH242657   1.730   4.739   1.066  0.3816  0.4526 -0.3111
 7033TIP3    H142658   1.785   4.797   1.013  0.6989  2.3848  1.9279
 7033TIP3    H242659   1.672   4.799   1.114 -0.6458 -1.2374  0.6657
 7034TIP3   OH242660   0.260   4.388   2.637  0.1035  0.2078  0.1193
 7034TIP3    H142661   0.310   4.318   2.678 -0.6488  0.2500  1.1694
 7034TIP3    H242662   0.168   4.365   2.656 -0.1207  2.5866  2.4871
 7035TIP3   OH242663   0.129   0.455   7.161  0.7930 -0.1294 -0.1278
 7035TIP3    H142664   0.093   0.486   7.078 -0.1145 -1.0215 -0.0842
 7035TIP3    H242665   0.107   0.362   7.164  1.9870 -0.4165  0.5088
 7036TIP3   OH242666   4.768   3.741   6.995  0.2049 -0.4483  0.7440
 7036TIP3    H142667   4.804   3.688   6.925 -0.3632  0.4408 -0.2553
 7036TIP3    H242668   4.834   3.809   7.011 -0.4737  0.4880 -0.2843
 7037TIP3   OH242669   2.174   0.451   1.530 -0.3334  0.2781 -0.2229
 7037TIP3    H142670   2.119   0.462   1.608  0.8578  1.3456  0.5017
 7037TIP3    H242671   2.263   0.445   1.565  0.0845 -0.8400 -1.4137
 7038TIP3   OH242672   1.338   2.719   0.363  0.2245  0.0245  0.6397
 7038TIP3    H142673   1.392   2.748   0.290 -0.6626  0.0851 -0.0105
 7038TIP3    H242674   1.379   2.637   0.393  1.2382  0.5821  0.8152
 7039TIP3   OH242675   5.677   3.580   2.036  0.3732  0.6277 -0.0654
 7039TIP3    H142676   5.616   3.587   2.109 -0.5852  0.1858 -0.7953
 7039TIP3    H242677   5.670   3.488   2.008 -1.0457  1.2992 -2.1619
 7040TIP3   OH242678   0.257   6.378   1.745  0.0947 -0.2600 -0.3556
 7040TIP3    H142679   0.322   6.309   1.736  0.5564  0.0379  0.5184
 7040TIP3    H242680   0.177   6.333   1.773  0.4832 -0.4288  0.5460
 7041TIP3   OH242681   2.163   5.490   1.661  0.2306  0.1021  0.3960
 7041TIP3    H142682   2.128   5.540   1.587 -0.5271 -1.1622 -0.1357
 7041TIP3    H242683   2.126   5.402   1.650  0.7224 -0.3144  1.8574
 7042TIP3   OH242684   3.140   3.613   8.063  0.2320 -0.3054 -0.1040
 7042TIP3    H142685   3.139   3.518   8.046 -0.6755 -0.0452 -1.6792
 7042TIP3    H242686   3.221   3.644   8.023 -0.9178 -0.0032 -2.3196
 7043TIP3   OH242687   1.148   5.031   7.910  0.3351  0.3669 -0.2690
 7043TIP3    H142688   1.179   5.070   7.828  3.5354  0.2166  0.7573
 7043TIP3    H242689   1.150   5.104   7.973 -1.4065  0.3098 -0.0985
 7044TIP3   OH242690   3.366   4.749   0.953 -0.0164 -0.5719  0.2635
 7044TIP3    H142691   3.318   4.781   1.029  0.6489  0.1634  0.3895
 7044TIP3    H242692   3.380   4.827   0.899  1.7052 -0.5978  0.6182
 7045TIP3   OH242693   6.315   6.467   1.375 -0.4071  0.1295  0.1242
 7045TIP3    H142694   6.400   6.469   1.331  0.8414 -0.0957  2.4242
 7045TIP3    H242695   6.264   6.535   1.330  1.5481  1.4431 -0.2368
 7046TIP3   OH242696   0.137   1.483   8.184 -0.1499  0.6610  0.2956
 7046TIP3    H142697   0.087   1.407   8.157  0.0896  0.8685 -0.7541
 7046TIP3    H242698   0.223   1.447   8.208 -0.7630  0.2958  2.1677
 7047TIP3   OH242699   1.106   2.374   8.029  0.6183 -0.0360  0.4597
 7047TIP3    H142700   1.016   2.405   8.017  0.7059  0.6615  1.5006
 7047TIP3    H242701   1.137   2.420   8.107  0.7854 -2.7124  2.1032
 7048TIP3   OH242702   3.051   5.535   0.734 -0.2956 -0.4111 -0.1287
 7048TIP3    H142703   2.957   5.541   0.750 -0.7085  1.5925 -2.7199
 7048TIP3    H242704   3.087   5.500   0.816 -3.0749  0.4881  1.6075
 7049TIP3   OH242705   6.696   1.573   7.635  0.7028  0.2274  0.0400
 7049TIP3    H142706   6.730   1.630   7.566  0.7964  0.1140 -0.0062
 7049TIP3    H242707   6.749   1.494   7.630  0.7725  0.2557  0.3053
 7050TIP3   OH242708   0.762   4.482   2.518  0.1894 -0.2143 -0.3792
 7050TIP3    H142709   0.841   4.432   2.535  1.0022  0.6442 -1.5306
 7050TIP3    H242710   0.733   4.512   2.605  0.2572 -1.7850  0.2060
 7051TIP3   OH242711   2.651   5.975   7.126 -0.3123 -0.1854  0.7922
 7051TIP3    H142712   2.637   5.888   7.088 -1.6315 -0.0520  0.9061
 7051TIP3    H242713   2.699   6.023   7.059 -0.6279 -0.6463  0.2218
 7052TIP3   OH242714   1.192   3.942   0.227  0.1508  0.2092 -0.0434
 7052TIP3    H142715   1.226   3.953   0.316 -1.0570  0.7023  0.3831
 7052TIP3    H242716   1.126   4.011   0.218  0.4085  0.2915 -1.4069
 7053TIP3   OH242717   5.689   1.307   0.253  0.3260  0.5470  0.0576
 7053TIP3    H142718   5.764   1.331   0.308 -0.0015  0.7191  0.4419
 7053TIP3    H242719   5.719   1.321   0.164  1.2491 -0.8193  0.1299
 7054TIP3   OH242720   4.458   0.039   2.077 -0.2534  0.1827 -0.1358
 7054TIP3    H142721   4.543   0.005   2.103 -0.4498  0.3402  0.7337
 7054TIP3    H242722   4.445   0.117   2.131 -1.2080 -0.1815  0.1855
 7055TIP3   OH242723   4.782   3.921   2.051  0.2881  0.3222  0.5243
 7055TIP3    H142724   4.823   3.915   1.965 -1.6038  2.3270 -0.6124
 7055TIP3    H242725   4.697   3.962   2.035 -0.3470  0.3256  3.3020
 7056TIP3   OH242726   3.962   2.496   0.607 -0.3347  0.9455 -0.2438
 7056TIP3    H142727   3.925   2.530   0.526 -2.6034  2.4198  1.2753
 7056TIP3    H242728   4.057   2.502   0.595 -0.5426 -0.2864 -3.2713
 7057TIP3   OH242729   3.051   5.934   8.051 -0.3993  0.3417 -0.8478
 7057TIP3    H142730   3.031   5.889   7.970 -0.0007 -1.5602  0.0628
 7057TIP3    H242731   3.133   5.980   8.033 -0.5272  0.2634 -1.6392
 7058TIP3   OH242732   1.145   2.413   1.754 -0.1705  0.6162 -0.5747
 7058TIP3    H142733   1.060   2.423   1.712 -0.4755  1.4213  0.1961
 7058TIP3    H242734   1.143   2.475   1.828  0.6275 -0.2041  0.1640
 7059TIP3   OH242735   5.957   1.971   8.644 -0.3814  0.4360 -0.5027
 7059TIP3    H142736   5.980   2.021   8.722  1.3085  1.3352 -1.5024
 7059TIP3    H242737   5.861   1.966   8.645 -0.4027  0.6647  1.4484
 7060TIP3   OH242738   4.423   5.026   1.378 -0.2518  0.5361 -0.1881
 7060TIP3    H142739   4.503   4.974   1.382 -0.5738  0.0679  0.4840
 7060TIP3    H242740   4.364   4.975   1.323 -0.6372  0.0600  0.6327
 7061TIP3   OH242741   5.178   3.490   8.569  0.3020  0.0733 -0.6067
 7061TIP3    H142742   5.211   3.579   8.583 -0.4383  0.8433 -3.2488
 7061TIP3    H242743   5.108   3.479   8.633  0.4740  1.3568 -0.1806
 7062TIP3   OH242744   0.863   4.111   8.485 -0.6801 -0.3508 -0.3680
 7062TIP3    H142745   0.814   4.192   8.470  0.3546  0.2357 -0.6195
 7062TIP3    H242746   0.881   4.077   8.397 -2.1907 -1.5492 -0.2654
 7063TIP3   OH242747   5.889   5.857   1.357  0.0543  0.4108 -0.1080
 7063TIP3    H142748   5.922   5.945   1.339 -0.0280  1.1443  2.7706
 7063TIP3    H242749   5.814   5.846   1.298  1.8317  1.0371 -2.5911
 7064TIP3   OH242750   2.168   6.469   7.406  0.4313  0.1755 -0.3625
 7064TIP3    H142751   2.084   6.430   7.428  0.8225 -0.4360  0.0823
 7064TIP3    H242752   2.171   6.470   7.311 -0.6772  1.5088 -0.4127
 7065TIP3   OH242753   5.042   0.995   2.679  0.3010 -0.0665  0.2343
 7065TIP3    H142754   5.131   1.015   2.650  0.7729 -0.9237  1.0322
 7065TIP3    H242755   5.021   0.913   2.635 -1.5911  1.8968 -2.9713
 7066TIP3   OH242756   0.397   3.397   0.612  0.1504  0.2013 -0.7383
 7066TIP3    H142757   0.310   3.371   0.581  0.5162  0.3019 -1.8865
 7066TIP3    H242758   0.452   3.321   0.596  0.0695 -0.2481  0.9694
 7067TIP3   OH242759   6.051   3.404   7.141 -0.3621 -0.2192  0.0298
 7067TIP3    H142760   6.066   3.361   7.225  1.2485  0.1095 -0.0581
 7067TIP3    H242761   6.133   3.449   7.122 -0.3392 -1.0426 -2.1693
 7068TIP3   OH242762   5.084   5.115   1.670 -0.0719 -0.2479 -0.2224
 7068TIP3    H142763   5.140   5.046   1.706 -0.1156 -0.6681 -0.9155
 7068TIP3    H242764   5.035   5.148   1.744  1.3774  0.4134  0.4804
 7069TIP3   OH242765   4.574   6.565   1.932 -0.1555 -0.1960 -0.0856
 7069TIP3    H142766   4.541   6.482   1.967 -1.8015 -0.1432 -1.3839
 7069TIP3    H242767   4.589   6.620   2.009  0.1600 -1.3930  0.7385
 7070TIP3   OH242768   3.307   3.326   7.584  0.6440  0.0337  0.3837
 7070TIP3    H142769   3.217   3.308   7.554  0.9589  0.2446 -0.7578
 7070TIP3    H242770   3.346   3.240   7.597 -0.0301 -0.0696  1.9273
 7071TIP3   OH242771   4.303   4.377   8.115 -0.2304 -0.1082  0.6881
 7071TIP3    H142772   4.241   4.383   8.042 -1.1365 -2.4973  1.1721
 7071TIP3    H242773   4.250   4.397   8.192  0.2826  0.5127  0.8932
 7072LIG      O42774   6.204   2.324   6.166 -0.4591  0.2634  0.2419
 7072LIG     C142775   6.206   2.295   6.023  0.0142  0.8907  0.7696
 7072LIG     C242776   6.222   2.435   5.964  0.4142  1.0678 -0.0871
 7072LIG     C342777   6.324   2.197   5.985  0.1340  0.4382 -1.1774
 7072LIG     H142778   6.111   2.249   5.991  0.2989  0.3309  0.7269
 7072LIG     H242779   6.316   2.484   5.996  0.2749  1.9491 -0.9762
 7072LIG     H342780   6.133   2.489   6.002 -0.4653 -0.2664 -0.1531
 7072LIG     H442781   6.226   2.414   5.855  3.4012 -1.6884  0.3843
 7072LIG     H542782   6.297   2.105   6.040 -4.0921  1.7692 -0.6084
 7072LIG     H642783   6.421   2.244   6.011  0.4415 -0.5807 -0.4577
 7072LIG     H742784   6.329   2.177   5.875  2.3233 -0.0852 -1.0235
 7072LIG     H842785   6.296   2.352   6.170  0.3651 -2.1641 -0.2086
   6.79394   6.79394   8.87471
