Title
42788
    1SAPS     N    1   6.773   0.646   7.001  0.0399  0.5020  0.1301
    1SAPS   HN1    2   6.683   0.684   6.966  0.3267  2.6266  1.5296
    1SAPS   HN2    3   6.746   0.554   7.041 -1.5034 -0.4621 -2.7804
    1SAPS   HN3    4   6.816   0.698   7.080  0.7369  1.1367 -0.6335
    1SAPS   C12    5   6.872   0.615   6.889 -0.0955  0.1107  0.0711
    1SAPS  H12A    6   6.906   0.709   6.848 -0.0743  0.1988  0.2915
    1SAPS   C13    7   6.994   0.534   6.943 -0.3779 -0.2170 -0.5511
    1SAPS  O13A    8   7.020   0.519   7.065  0.8295  0.1300  0.1520
    1SAPS  O13B    9   7.070   0.491   6.850 -0.1397  0.1864 -0.0375
    1SAPS   C11   10   6.788   0.533   6.788  0.0967 -0.0381 -0.7769
    1SAPS  H11A   11   6.732   0.458   6.849  0.5010  1.2647  1.2984
    1SAPS  H11B   12   6.854   0.471   6.724  4.2593  2.9448  0.2349
    1SAPS     P   13   6.730   0.695   6.595  0.2051 -0.1954 -0.0467
    1SAPS   O13   14   6.611   0.782   6.569 -0.6289 -0.1956  0.4326
    1SAPS   O14   15   6.856   0.768   6.607 -0.0891  0.6605  0.2643
    1SAPS   O12   16   6.695   0.609   6.721 -0.5156  0.2018 -0.0424
    1SAPS   O11   17   6.752   0.590   6.480  0.1807  1.0207 -0.0181
    1SAPS    C1   18   6.652   0.502   6.437  0.2155  0.4136 -0.2398
    1SAPS    HA   19   6.661   0.399   6.476 -0.3744 -0.4311 -2.1927
    1SAPS    HB   20   6.552   0.540   6.467  0.3363  1.5068 -1.1232
    1SAPS    C2   21   6.638   0.492   6.285  0.5033  0.6209 -0.9703
    1SAPS    HS   22   6.551   0.424   6.270 -0.8801  1.3791  2.6565
    1SAPS   O21   23   6.754   0.437   6.226 -0.0178  0.3514 -0.4024
    1SAPS   C21   24   6.760   0.301   6.232  0.0156 -0.2134  0.5687
    1SAPS   O22   25   6.672   0.230   6.275  0.1253  0.0484 -0.4837
    1SAPS   C22   26   6.890   0.251   6.181 -0.3847  0.1242  0.0734
    1SAPS   H2R   27   6.972   0.293   6.244  1.7233 -2.5599 -0.6917
    1SAPS   H2S   28   6.894   0.142   6.197 -0.3061 -0.1309 -1.5176
    1SAPS    C3   29   6.612   0.636   6.223 -0.2400  0.1670  0.8306
    1SAPS    HX   30   6.707   0.691   6.239  0.0620 -0.9405  3.2871
    1SAPS    HY   31   6.536   0.690   6.284 -0.1086 -1.1308  2.1934
    1SAPS   O31   32   6.560   0.625   6.088  0.7027 -0.2578  0.4701
    1SAPS   C31   33   6.657   0.630   5.993 -1.0234  0.5950  0.1115
    1SAPS   O32   34   6.770   0.674   6.010 -0.8016 -0.5117 -0.2630
    1SAPS   C32   35   6.596   0.600   5.860  0.1287  0.2120  0.2269
    1SAPS   H2X   36   6.519   0.678   5.841  0.3730  0.1086 -1.3330
    1SAPS   H2Y   37   6.552   0.498   5.865 -2.4031  1.1870 -0.4827
    1SAPS   C23   38   6.910   0.304   6.035 -0.2739  0.3424  1.0543
    1SAPS   H3R   39   7.016   0.280   6.011 -0.2495  2.3678 -1.3273
    1SAPS   H3S   40   6.923   0.415   6.040  2.0055  0.2611 -0.8769
    1SAPS   C24   41   6.817   0.244   5.923 -0.4082 -0.3678  0.5286
    1SAPS   H4R   42   6.867   0.284   5.832 -0.1983 -0.3734  0.6399
    1SAPS   H4S   43   6.712   0.276   5.938 -1.1770 -1.7284 -1.4707
    1SAPS   C25   44   6.813   0.096   5.921  0.3538 -0.0466 -0.0042
    1SAPS   H5R   45   6.774   0.043   6.009 -2.3476  1.7905  0.0317
    1SAPS   C26   46   6.840   0.009   5.824 -1.1254 -0.5762 -0.2144
    1SAPS   H6R   47   6.865  -0.088   5.869 -0.5086 -1.0998 -1.6300
    1SAPS   C27   48   6.919   0.052   5.703  0.5472  0.8362 -0.2750
    1SAPS   H7R   49   7.019   0.094   5.727  1.3968 -0.6936 -0.9909
    1SAPS   H7S   50   6.864   0.136   5.655 -0.9554  0.0116 -0.0546
    1SAPS   C28   51   6.932  -0.064   5.604  0.4392 -0.1345 -0.4940
    1SAPS   H8R   52   7.035  -0.105   5.604  0.4439 -0.2352  1.6502
    1SAPS   C29   53   6.852  -0.116   5.508  0.6830 -0.2582 -0.1056
    1SAPS   H9R   54   6.890  -0.200   5.447 -2.5482 -1.2371 -0.9454
    1SAPS  C210   55   6.716  -0.061   5.466 -0.1447  0.2773 -0.3608
    1SAPS  H10R   56   6.728  -0.004   5.372  0.6384 -0.6477 -0.8447
    1SAPS  H10S   57   6.675  -0.000   5.550  1.5164 -0.8890  1.3855
    1SAPS  C211   58   6.622  -0.172   5.436  0.1785  0.9451  0.5816
    1SAPS  H11R   59   6.566  -0.214   5.521 -0.7646  2.5891  0.8085
    1SAPS  C212   60   6.602  -0.234   5.321  0.1969 -0.4052 -0.3343
    1SAPS  H12R   61   6.542  -0.326   5.326  0.7154 -0.7168  0.3365
    1SAPS  C213   62   6.673  -0.198   5.191  0.2234  0.3849  0.2660
    1SAPS  H13R   63   6.711  -0.297   5.158 -0.3402  0.0344  0.6402
    1SAPS  H13S   64   6.762  -0.134   5.211  0.8610 -0.6039  0.7056
    1SAPS  C214   65   6.582  -0.128   5.098  0.2600  0.3304 -0.0552
    1SAPS  H14R   66   6.502  -0.079   5.156  0.1739 -1.2527  1.2581
    1SAPS  C215   67   6.574  -0.136   4.967 -0.0697 -0.7284  0.5480
    1SAPS  H15R   68   6.500  -0.067   4.923  3.0571  2.5142 -0.0805
    1SAPS  C216   69   6.675  -0.214   4.888  0.2131 -0.6578  0.1402
    1SAPS  H16R   70   6.693  -0.314   4.934 -1.9736 -0.6849  1.0607
    1SAPS  H16S   71   6.770  -0.158   4.902 -2.0948  3.8006 -0.2079
    1SAPS  C217   72   6.647  -0.238   4.740  1.0207  0.5821  0.0093
    1SAPS  H17R   73   6.620  -0.145   4.687 -0.8379  0.2896  0.3567
    1SAPS  H17S   74   6.556  -0.301   4.739  1.0829  0.4455  1.1215
    1SAPS  C218   75   6.764  -0.315   4.670 -0.1339  0.7537  0.7084
    1SAPS  H18R   76   6.787  -0.413   4.717 -0.3499  0.1808 -0.3383
    1SAPS  H18S   77   6.849  -0.245   4.684  0.6020  0.1415 -0.5566
    1SAPS  C219   78   6.751  -0.347   4.519  0.5336  0.8551  0.7290
    1SAPS  H19R   79   6.737  -0.268   4.442  0.1078 -0.0353 -0.1335
    1SAPS  H19S   80   6.659  -0.407   4.507  0.2863  1.1894  0.9251
    1SAPS  C220   81   6.864  -0.445   4.466 -0.0062 -0.2280 -0.2358
    1SAPS  H20R   82   6.826  -0.505   4.381  1.1776 -1.0973 -0.1768
    1SAPS  H20S   83   6.890  -0.510   4.552 -0.4626  0.0213  0.0916
    1SAPS  H20T   84   6.956  -0.389   4.437 -0.4490 -0.1586 -1.5546
    1SAPS   C33   85   6.702   0.621   5.744 -0.2317 -0.3382  0.1099
    1SAPS   H3X   86   6.793   0.562   5.771  0.6742  2.0266  2.6219
    1SAPS   H3Y   87   6.742   0.724   5.750 -3.0384  0.7500  1.6569
    1SAPS   C34   88   6.652   0.573   5.612  0.4078 -0.5113 -0.5142
    1SAPS   H4X   89   6.547   0.607   5.608 -0.3161 -2.5282  0.1317
    1SAPS   H4Y   90   6.655   0.462   5.611 -1.5792 -0.5928 -1.5069
    1SAPS   C35   91   6.742   0.626   5.500  0.0615 -0.2014 -0.4694
    1SAPS   H5X   92   6.852   0.629   5.516  0.1418 -0.7946 -0.9146
    1SAPS   H5Y   93   6.707   0.731   5.484 -1.1736 -0.2651  1.4719
    1SAPS   C36   94   6.705   0.547   5.372 -0.4048 -0.7754 -0.7910
    1SAPS   H6X   95   6.595   0.558   5.362 -0.7271  0.1146  2.4899
    1SAPS   H6Y   96   6.748   0.446   5.383 -0.2350 -0.5364  1.1225
    1SAPS   C37   97   6.764   0.604   5.246 -0.2146 -0.0050  0.2177
    1SAPS   H7X   98   6.867   0.570   5.225 -1.3347 -2.4672 -1.8627
    1SAPS   H7Y   99   6.748   0.714   5.248 -0.4808 -0.0507  0.9419
    1SAPS   C38  100   6.683   0.549   5.128 -0.2330  0.7195 -0.9473
    1SAPS   H8X  101   6.573   0.560   5.141 -0.5389 -0.3370 -2.3428
    1SAPS   H8Y  102   6.709   0.441   5.121 -0.9702  0.4625 -0.0122
    1SAPS   C39  103   6.731   0.592   4.988 -0.0052  0.2275  0.3102
    1SAPS   H9X  104   6.770   0.506   4.931  2.4604  1.5758 -0.1602
    1SAPS   H9Y  105   6.833   0.632   5.006 -0.2238  0.4757  1.0677
    1SAPS  C310  106   6.636   0.688   4.926  0.4059 -0.0229  0.3599
    1SAPS  H10X  107   6.601   0.747   5.013 -0.8624 -0.4984  0.2035
    1SAPS  H10Y  108   6.548   0.639   4.877 -0.7031 -0.3618  2.5794
    1SAPS  C311  109   6.699   0.787   4.832 -0.2349 -0.5433  0.1733
    1SAPS  H11X  110   6.766   0.854   4.890 -0.5316  0.1249 -0.2379
    1SAPS  H11Y  111   6.621   0.851   4.785  0.0593  0.8120  1.4683
    1SAPS  C312  112   6.777   0.738   4.705 -0.7801 -0.6888 -0.0471
    1SAPS  H12X  113   6.864   0.675   4.733 -2.0205 -1.4791  2.2804
    1SAPS  H12Y  114   6.816   0.824   4.647  0.2164 -0.3072  1.1460
    1SAPS  C313  115   6.687   0.656   4.612 -0.3776  0.1697  0.4383
    1SAPS  H13X  116   6.592   0.712   4.598  0.4117  1.2721 -0.6744
    1SAPS  H13Y  117   6.671   0.551   4.646  0.7317 -0.7116 -1.5859
    1SAPS  C314  118   6.744   0.653   4.469  0.6088  0.5824 -0.3543
    1SAPS  H14X  119   6.841   0.599   4.472  0.2705  0.0125  1.3014
    1SAPS  H14Y  120   6.767   0.758   4.441  0.1415  0.3978 -1.4795
    1SAPS  C315  121   6.654   0.589   4.363 -0.2859 -0.2191 -0.3844
    1SAPS  H15X  122   6.670   0.479   4.370 -0.7941 -0.3821 -1.4635
    1SAPS  H15Y  123   6.685   0.615   4.259  2.3207  1.4798  0.7164
    1SAPS  C316  124   6.500   0.596   4.360  0.1440  0.1854 -0.8364
    1SAPS  H16X  125   6.481   0.704   4.341 -0.7794  0.1011 -0.4370
    1SAPS  H16Y  126   6.450   0.573   4.456  1.8589  1.5587  0.4589
    1SAPS  C317  127   6.440   0.521   4.239  0.0656 -0.2112 -0.0537
    1SAPS  H17X  128   6.470   0.415   4.249  0.7636 -0.4914 -3.7946
    1SAPS  H17Y  129   6.485   0.557   4.144  0.3675  1.9110  0.8353
    1SAPS  C318  130   6.293   0.519   4.232  0.1656 -0.1595 -0.0057
    1SAPS  H18X  131   6.260   0.436   4.165 -1.4436 -0.4323  1.0757
    1SAPS  H18Y  132   6.259   0.618   4.195  1.1815  0.6787  1.2171
    1SAPS  H18Z  133   6.260   0.498   4.336 -0.4174 -0.5914 -0.2732
    2SAPS     N  134   5.218   2.990   6.673  0.2790  0.3184  0.1884
    2SAPS   HN1  135   5.219   2.890   6.644  0.9780 -0.4463  2.6445
    2SAPS   HN2  136   5.140   3.044   6.631  0.8161  1.7707  1.0161
    2SAPS   HN3  137   5.307   3.043   6.665  0.0010  0.7992  0.2742
    2SAPS   C12  138   5.182   2.988   6.822 -0.1862 -0.2589  0.0457
    2SAPS  H12A  139   5.278   2.971   6.869  0.3624  1.4488 -0.3550
    2SAPS   C13  140   5.106   3.126   6.866 -0.3637  0.3592 -0.1750
    2SAPS  O13A  141   5.061   3.201   6.777  0.0282  0.3660 -0.7280
    2SAPS  O13B  142   5.057   3.129   6.979  0.2868  0.5407 -0.3704
    2SAPS   C11  143   5.081   2.872   6.846 -0.8643 -0.0514 -0.7334
    2SAPS  H11A  144   5.000   2.894   6.773 -0.1543 -1.0503 -1.8625
    2SAPS  H11B  145   5.040   2.871   6.949 -2.2644 -1.4672 -1.2818
    2SAPS     P  146   5.053   2.619   6.805 -0.2974 -0.5736  0.2391
    2SAPS   O13  147   5.146   2.505   6.792 -0.8669  0.1213 -0.1634
    2SAPS   O14  148   4.959   2.610   6.918  0.2143  0.0677 -0.6776
    2SAPS   O12  149   5.147   2.750   6.816  0.8136  0.1288  0.5158
    2SAPS   O11  150   4.986   2.657   6.668  0.6338 -0.1586 -0.0586
    2SAPS    C1  151   4.932   2.566   6.573  0.9666  0.4690  0.8427
    2SAPS    HA  152   5.005   2.498   6.524  0.8436  0.0683  1.2018
    2SAPS    HB  153   4.859   2.497   6.621  2.1485 -1.7150 -0.3569
    2SAPS    C2  154   4.855   2.645   6.461  0.0617  0.2266  0.3053
    2SAPS    HS  155   4.820   2.576   6.381  0.3578 -0.4855  0.7881
    2SAPS   O21  156   4.962   2.723   6.403  0.5505 -0.0709 -0.4105
    2SAPS   C21  157   4.976   2.708   6.270  0.0207  0.1237 -0.2734
    2SAPS   O22  158   4.906   2.654   6.190  0.4995  0.9411  0.0646
    2SAPS   C22  159   5.111   2.768   6.240  0.4925 -0.1156 -0.1780
    2SAPS   H2R  160   5.119   2.764   6.129 -1.3939 -0.1816 -0.3351
    2SAPS   H2S  161   5.113   2.866   6.292 -1.1631 -1.5700  2.8578
    2SAPS    C3  162   4.736   2.730   6.524 -0.1724 -0.1183 -0.0083
    2SAPS    HX  163   4.777   2.799   6.601 -0.3507  2.3292 -1.9873
    2SAPS    HY  164   4.665   2.661   6.576 -0.7644  0.8030  0.4373
    2SAPS   O31  165   4.658   2.802   6.424 -0.2696  0.1513  0.0949
    2SAPS   C31  166   4.679   2.936   6.413  0.6035  0.2749  0.3542
    2SAPS   O32  167   4.769   2.993   6.469 -0.2348  0.0388  0.3416
    2SAPS   C32  168   4.573   3.000   6.330 -0.4708 -0.7544  0.6010
    2SAPS   H2X  169   4.578   3.110   6.339 -3.0688 -0.4974 -0.3923
    2SAPS   H2Y  170   4.478   2.967   6.377 -1.1351  0.1798 -0.0563
    2SAPS   C23  171   5.219   2.682   6.312  0.0115 -0.1213 -0.0931
    2SAPS   H3R  172   5.209   2.571   6.308 -2.7569  0.0753 -0.2430
    2SAPS   H3S  173   5.213   2.707   6.420 -0.7460  0.6389 -0.3060
    2SAPS   C24  174   5.364   2.706   6.269 -0.3190 -0.1266  0.2246
    2SAPS   H4R  175   5.448   2.658   6.324  1.0398  2.0439  0.1715
    2SAPS   H4S  176   5.383   2.813   6.293 -2.3808  0.0032  1.4842
    2SAPS   C25  177   5.380   2.697   6.116 -0.2852 -0.2823  0.4404
    2SAPS   H5R  178   5.386   2.594   6.079 -1.7085 -0.6764  1.2441
    2SAPS   C26  179   5.414   2.799   6.028  0.1693  0.2954 -0.4701
    2SAPS   H6R  180   5.406   2.775   5.920 -0.6416 -2.6430  0.1396
    2SAPS   C27  181   5.455   2.939   6.055  0.0492 -0.4223 -0.1409
    2SAPS   H7R  182   5.434   2.964   6.161  0.6141 -2.3537  0.4749
    2SAPS   H7S  183   5.392   3.014   6.003  1.8228  0.1678 -1.5429
    2SAPS   C28  184   5.598   2.984   6.027 -0.4008 -0.1676 -0.2171
    2SAPS   H8R  185   5.673   2.996   6.107  0.6739  0.2560 -1.2660
    2SAPS   C29  186   5.640   3.015   5.905  0.5829 -0.3451 -0.4541
    2SAPS   H9R  187   5.742   3.054   5.891  1.3572 -2.4517 -1.2222
    2SAPS  C210  188   5.555   3.019   5.776 -0.4864  0.0819 -0.1036
    2SAPS  H10R  189   5.446   3.023   5.800 -1.0085 -1.7697 -1.9285
    2SAPS  H10S  190   5.580   2.925   5.724  1.6508 -1.3150  3.1202
    2SAPS  C211  191   5.579   3.142   5.687  0.7104  0.4574  0.3528
    2SAPS  H11R  192   5.621   3.231   5.735 -0.7699  2.6427 -2.1080
    2SAPS  C212  193   5.553   3.144   5.555 -0.0739  0.3657 -0.4324
    2SAPS  H12R  194   5.598   3.226   5.497 -0.5163  2.0661  1.4997
    2SAPS  C213  195   5.511   3.027   5.473  0.0509  0.8253  0.2318
    2SAPS  H13R  196   5.419   3.067   5.424  1.4125 -0.1029 -3.4599
    2SAPS  H13S  197   5.484   2.942   5.538  1.3621 -0.9053 -1.3893
    2SAPS  C214  198   5.624   2.977   5.381  0.1163 -0.4718  0.1133
    2SAPS  H14R  199   5.715   2.942   5.431  0.7339 -0.7920 -1.1862
    2SAPS  C215  200   5.608   2.993   5.246  0.6469  0.0966  0.6420
    2SAPS  H15R  201   5.682   2.945   5.180  0.0409 -0.8429  0.6228
    2SAPS  C216  202   5.475   3.027   5.175 -0.1973  0.5168 -1.0538
    2SAPS  H16R  203   5.432   3.121   5.216 -0.3688  0.6046 -1.4332
    2SAPS  H16S  204   5.390   2.956   5.175  1.1022 -1.0876 -1.1372
    2SAPS  C217  205   5.496   3.061   5.030  0.2122  0.2246  0.3643
    2SAPS  H17R  206   5.525   2.968   4.976 -2.1000 -0.6385  0.5101
    2SAPS  H17S  207   5.578   3.135   5.017 -0.0966  0.4609 -0.2960
    2SAPS  C218  208   5.372   3.128   4.961  0.5754 -0.5882  0.6146
    2SAPS  H18R  209   5.315   3.198   5.025 -2.5426 -0.9299 -1.5810
    2SAPS  H18S  210   5.286   3.063   4.937  1.2483 -1.3035  0.0920
    2SAPS  C219  211   5.415   3.195   4.823  0.5756  0.2820 -0.0224
    2SAPS  H19R  212   5.471   3.288   4.847 -1.8002  1.8600 -0.2703
    2SAPS  H19S  213   5.323   3.231   4.772  1.4714 -0.9272 -2.6352
    2SAPS  C220  214   5.487   3.106   4.718  0.2676 -0.0205 -0.2957
    2SAPS  H20R  215   5.510   3.162   4.625  2.9929  1.4384  1.1370
    2SAPS  H20S  216   5.428   3.015   4.694  0.8438 -0.3033 -0.6791
    2SAPS  H20T  217   5.583   3.068   4.759 -0.5432 -1.5036  0.3269
    2SAPS   C33  218   4.577   2.946   6.181  0.4498  0.6673  0.1897
    2SAPS   H3X  219   4.492   2.989   6.124 -2.8465 -5.0630 -0.0062
    2SAPS   H3Y  220   4.543   2.840   6.184 -1.6641  1.3100  2.6131
    2SAPS   C34  221   4.707   2.952   6.113 -0.1411 -0.1606 -0.1809
    2SAPS   H4X  222   4.784   2.900   6.174  0.8421 -0.0941 -1.3500
    2SAPS   H4Y  223   4.742   3.056   6.098  0.0038 -0.3253 -1.0162
    2SAPS   C35  224   4.714   2.864   5.994 -0.0198 -0.4893 -0.0365
    2SAPS   H5X  225   4.674   2.762   6.011 -2.5079 -0.4066 -3.8810
    2SAPS   H5Y  226   4.818   2.856   5.956  0.6648  3.4491  0.5650
    2SAPS   C36  227   4.635   2.907   5.870  0.5853  0.7916  0.4947
    2SAPS   H6X  228   4.669   3.011   5.847 -0.8179  1.1853  0.1295
    2SAPS   H6Y  229   4.525   2.896   5.877  0.4909  0.3783 -1.1873
    2SAPS   C37  230   4.684   2.828   5.747 -0.0671 -0.0182 -0.0421
    2SAPS   H7X  231   4.670   2.720   5.764  0.8081 -0.2062 -0.4524
    2SAPS   H7Y  232   4.794   2.844   5.741 -0.0721  0.4716  1.0073
    2SAPS   C38  233   4.606   2.870   5.622 -0.0732 -0.4477  0.0589
    2SAPS   H8X  234   4.621   2.979   5.610  0.8484 -0.1100  3.3517
    2SAPS   H8Y  235   4.498   2.844   5.626 -1.5011  4.5226 -0.1452
    2SAPS   C39  236   4.653   2.794   5.501  0.6873 -0.4727 -0.3747
    2SAPS   H9X  237   4.626   2.686   5.501 -0.2274 -0.2744 -1.6774
    2SAPS   H9Y  238   4.764   2.793   5.491  0.8345 -0.0315  1.0582
    2SAPS  C310  239   4.593   2.859   5.376 -0.6775  0.6817  1.2079
    2SAPS  H10X  240   4.639   2.960   5.366 -1.5834  0.8744 -2.4466
    2SAPS  H10Y  241   4.485   2.871   5.400 -0.9812 -0.2507  0.3626
    2SAPS  C311  242   4.609   2.777   5.246 -1.0069  0.1288  0.4049
    2SAPS  H11X  243   4.585   2.670   5.264  1.9979 -0.2751  3.0082
    2SAPS  H11Y  244   4.719   2.777   5.229 -0.9857  1.2242  0.4648
    2SAPS  C312  245   4.545   2.826   5.115 -0.1445 -0.1329  0.3269
    2SAPS  H12X  246   4.584   2.930   5.108 -1.2364  0.3066  0.5726
    2SAPS  H12Y  247   4.436   2.821   5.137  0.1141  0.1348  1.8245
    2SAPS  C313  248   4.582   2.743   4.994  0.2702 -0.3366  1.0282
    2SAPS  H13X  249   4.574   2.636   5.020 -1.2714 -0.3629  0.5743
    2SAPS  H13Y  250   4.686   2.773   4.970 -0.8349  1.1663 -2.5888
    2SAPS  C314  251   4.488   2.772   4.880  0.4407  0.0154 -0.1016
    2SAPS  H14X  252   4.492   2.876   4.844 -3.7070  0.5207  0.3302
    2SAPS  H14Y  253   4.388   2.749   4.923 -0.1115 -0.6108 -1.6627
    2SAPS  C315  254   4.505   2.678   4.765  0.4106  0.0130  0.3894
    2SAPS  H15X  255   4.408   2.673   4.711  1.7317 -0.6240 -2.0580
    2SAPS  H15Y  256   4.523   2.577   4.808  0.0052 -0.0503  0.4146
    2SAPS  C316  257   4.617   2.715   4.661 -0.0152 -0.4109 -0.4058
    2SAPS  H16X  258   4.718   2.724   4.707 -0.5746 -2.4313  1.3667
    2SAPS  H16Y  259   4.593   2.820   4.633  2.0067  1.1883  3.1555
    2SAPS  C317  260   4.625   2.623   4.536  0.1255  0.5080 -0.2239
    2SAPS  H17X  261   4.532   2.614   4.476  0.2023  1.8286 -0.5717
    2SAPS  H17Y  262   4.647   2.520   4.572  2.3503  2.4087  4.7643
    2SAPS  C318  263   4.734   2.685   4.444 -0.3582  0.0423 -0.0832
    2SAPS  H18X  264   4.688   2.783   4.416 -2.1438 -0.2708  1.5762
    2SAPS  H18Y  265   4.744   2.615   4.358 -0.9484 -1.2555  0.8760
    2SAPS  H18Z  266   4.829   2.700   4.500 -1.6246 -0.0403  2.1926
    3SAPS     N  267   6.449   0.970   6.747  1.0207 -0.6487 -0.0525
    3SAPS   HN1  268   6.415   1.048   6.688  0.3052 -0.9582 -0.0570
    3SAPS   HN2  269   6.525   0.920   6.697  1.5091  0.6535 -0.6622
    3SAPS   HN3  270   6.368   0.906   6.759  0.6799 -0.2389 -0.1278
    3SAPS   C12  271   6.494   1.009   6.878  0.1213 -0.6960 -0.0519
    3SAPS  H12A  272   6.413   1.058   6.929 -0.4564 -0.2472 -1.3469
    3SAPS   C13  273   6.542   0.893   6.976 -0.5521 -0.5503  0.1914
    3SAPS  O13A  274   6.547   0.775   6.932 -0.2795  0.4393  0.0529
    3SAPS  O13B  275   6.569   0.927   7.093  0.3765  0.6062  0.1280
    3SAPS   C11  276   6.609   1.118   6.872 -0.1626 -0.0414 -0.6712
    3SAPS  H11A  277   6.652   1.140   6.972 -2.3460 -1.7146  0.7483
    3SAPS  H11B  278   6.554   1.211   6.846 -0.0335 -0.0411 -0.9415
    3SAPS     P  279   6.792   1.216   6.708 -0.2505  0.5444  0.2368
    3SAPS   O13  280   6.772   1.346   6.765  0.1442 -0.1476 -0.1012
    3SAPS   O14  281   6.931   1.163   6.702 -0.4769 -0.6288 -0.4028
    3SAPS   O12  282   6.714   1.101   6.779  0.0656 -0.5415  0.3487
    3SAPS   O11  283   6.728   1.216   6.567 -0.0758  0.7426 -0.3333
    3SAPS    C1  284   6.716   1.086   6.498  0.0077  0.1708  0.2160
    3SAPS    HA  285   6.722   1.009   6.577  0.6140  0.9970  1.0069
    3SAPS    HB  286   6.622   1.082   6.439  0.5891 -3.2305 -0.6598
    3SAPS    C2  287   6.835   1.065   6.404 -0.1671  0.5075  0.2275
    3SAPS    HS  288   6.925   1.037   6.462  0.5861 -1.1353 -1.6337
    3SAPS   O21  289   6.844   1.185   6.327 -0.0459  0.5076 -0.4564
    3SAPS   C21  290   6.953   1.251   6.316 -0.0105  0.7145  0.1914
    3SAPS   O22  291   7.064   1.233   6.366  0.3802 -0.2731 -0.4389
    3SAPS   C22  292   6.928   1.353   6.201 -0.0227 -0.0704 -0.2861
    3SAPS   H2R  293   6.882   1.301   6.114 -1.4529  0.9941 -0.2086
    3SAPS   H2S  294   6.853   1.422   6.246  2.2495  1.6080  1.1247
    3SAPS    C3  295   6.825   0.947   6.309 -0.3681  0.5074  0.4424
    3SAPS    HX  296   6.814   0.853   6.369 -0.2793  1.0799  1.3733
    3SAPS    HY  297   6.917   0.929   6.250 -0.2069 -3.5894  1.6233
    3SAPS   O31  298   6.695   0.957   6.236 -0.3830 -0.7067  1.0281
    3SAPS   C31  299   6.702   0.997   6.109  0.8067  0.2020  0.0085
    3SAPS   O32  300   6.798   1.023   6.043  0.0334  0.6455  1.0631
    3SAPS   C32  301   6.555   1.003   6.063  0.5404  0.4441 -0.0778
    3SAPS   H2X  302   6.487   1.060   6.130 -0.8188  1.2635 -2.0641
    3SAPS   H2Y  303   6.528   0.895   6.055 -0.4088  0.6404  0.2661
    3SAPS   C23  304   7.055   1.425   6.143 -0.5273  0.5295 -0.2553
    3SAPS   H3R  305   7.119   1.345   6.098 -1.0893  0.0292 -0.1779
    3SAPS   H3S  306   7.112   1.464   6.230 -0.5009  3.5736 -1.5514
    3SAPS   C24  307   7.052   1.532   6.034 -0.5576 -0.2325  0.5590
    3SAPS   H4R  308   7.153   1.579   6.036 -0.6500  0.0301 -0.5009
    3SAPS   H4S  309   6.978   1.609   6.065  0.2922 -0.0687  2.3367
    3SAPS   C25  310   7.021   1.466   5.899 -0.0709 -0.0783 -0.0636
    3SAPS   H5R  311   6.953   1.380   5.910 -1.5177  1.0675  0.2100
    3SAPS   C26  312   7.068   1.491   5.776  0.0038  0.1735 -0.3325
    3SAPS   H6R  313   7.044   1.416   5.699  0.4396 -0.5999  0.2627
    3SAPS   C27  314   7.145   1.610   5.732 -0.1811 -0.6081 -0.3643
    3SAPS   H7R  315   7.132   1.700   5.796 -1.5031 -0.2876 -1.0355
    3SAPS   H7S  316   7.108   1.642   5.632  1.3281  0.8154 -0.5060
    3SAPS   C28  317   7.289   1.588   5.736 -0.1493 -0.0518 -0.2100
    3SAPS   H8R  318   7.339   1.607   5.833 -0.9291  0.6013  0.0755
    3SAPS   C29  319   7.369   1.556   5.633  0.2015 -0.1359  0.5621
    3SAPS   H9R  320   7.475   1.548   5.660 -0.1229  1.2750  2.4534
    3SAPS  C210  321   7.321   1.522   5.494  0.3210 -0.6018  0.3203
    3SAPS  H10R  322   7.299   1.609   5.429 -0.0304 -2.0776 -1.5974
    3SAPS  H10S  323   7.224   1.469   5.507 -0.7579  1.2194  0.0732
    3SAPS  C211  324   7.423   1.436   5.422 -0.1274 -0.0541 -0.3244
    3SAPS  H11R  325   7.483   1.369   5.485 -0.6774 -0.1931  0.0553
    3SAPS  C212  326   7.474   1.447   5.299  0.2610 -0.3906  0.1094
    3SAPS  H12R  327   7.539   1.366   5.263  2.5375  1.6231 -0.5622
    3SAPS  C213  328   7.422   1.538   5.197 -0.3015 -0.1374  0.4226
    3SAPS  H13R  329   7.380   1.631   5.240 -1.5270 -0.5157  0.0777
    3SAPS  H13S  330   7.348   1.481   5.137 -1.1410  0.3916  0.9455
    3SAPS  C214  331   7.526   1.578   5.094  0.2308 -0.2547  0.7085
    3SAPS  H14R  332   7.609   1.641   5.129  1.3330  0.7975 -3.3541
    3SAPS  C215  333   7.513   1.559   4.958 -0.0839  0.4157  0.5564
    3SAPS  H15R  334   7.596   1.597   4.897 -0.0313  1.1714  1.0892
    3SAPS  C216  335   7.413   1.492   4.873  0.5706 -0.2519 -0.2016
    3SAPS  H16R  336   7.416   1.547   4.777 -0.2032  0.4133  0.1439
    3SAPS  H16S  337   7.313   1.512   4.917 -0.5334 -1.9388 -1.8009
    3SAPS  C217  338   7.424   1.345   4.829  0.5629 -0.9036 -1.1259
    3SAPS  H17R  339   7.430   1.284   4.921 -0.9475 -0.4855 -0.7217
    3SAPS  H17S  340   7.522   1.341   4.778  0.3742  1.3186 -1.7842
    3SAPS  C218  341   7.312   1.302   4.734  0.3973 -0.4654 -0.0806
    3SAPS  H18R  342   7.239   1.385   4.721  1.6699  0.5735 -0.8618
    3SAPS  H18S  343   7.256   1.220   4.783  1.5989 -1.0387  0.3564
    3SAPS  C219  344   7.365   1.260   4.588 -0.2110 -0.4134  0.4038
    3SAPS  H19R  345   7.450   1.319   4.547 -0.4342 -1.0665 -1.0474
    3SAPS  H19S  346   7.409   1.159   4.603  0.2305 -0.0845  1.4216
    3SAPS  C220  347   7.255   1.265   4.482 -0.0934 -0.8400 -0.3618
    3SAPS  H20R  348   7.223   1.365   4.446 -0.3946 -1.4829 -1.9562
    3SAPS  H20S  349   7.158   1.223   4.517 -1.7965  1.3721 -2.1270
    3SAPS  H20T  350   7.283   1.216   4.387  0.8181  0.0008 -0.5490
    3SAPS   C33  351   6.538   1.048   5.917  0.2411  0.3291 -0.4710
    3SAPS   H3X  352   6.619   1.021   5.846 -0.1580  2.5393 -1.8656
    3SAPS   H3Y  353   6.546   1.159   5.925 -1.4516  0.3599  2.2012
    3SAPS   C34  354   6.396   1.014   5.864  0.3713 -0.2686 -0.5908
    3SAPS   H4X  355   6.321   1.089   5.898  0.1465  0.2557 -2.1625
    3SAPS   H4Y  356   6.360   0.913   5.895 -1.2712 -0.7413 -3.6141
    3SAPS   C35  357   6.388   1.026   5.712  0.3852 -0.2527 -0.0985
    3SAPS   H5X  358   6.282   1.037   5.680  0.2379  1.4939  0.9230
    3SAPS   H5Y  359   6.453   1.111   5.683  0.5113  0.5642  2.4260
    3SAPS   C36  360   6.444   0.898   5.631 -0.1119 -0.0484  0.2652
    3SAPS   H6X  361   6.416   0.804   5.682 -1.1004 -1.3881 -2.5882
    3SAPS   H6Y  362   6.555   0.907   5.634 -0.1278  0.3787  3.0004
    3SAPS   C37  363   6.382   0.886   5.486 -0.7186  0.1853  0.6707
    3SAPS   H7X  364   6.272   0.904   5.485 -0.4048  2.3914 -1.4382
    3SAPS   H7Y  365   6.401   0.784   5.447  0.5578  1.1076 -1.2205
    3SAPS   C38  366   6.446   0.985   5.384  0.5471  0.1132  0.2807
    3SAPS   H8X  367   6.552   0.959   5.366  1.1677  1.7198  1.4604
    3SAPS   H8Y  368   6.450   1.088   5.425  3.9075 -0.2805  1.1541
    3SAPS   C39  369   6.359   1.003   5.252  0.6878  0.7581 -0.7514
    3SAPS   H9X  370   6.257   1.026   5.289  1.2506 -0.3542  1.7284
    3SAPS   H9Y  371   6.348   0.901   5.208 -1.9589  0.5258  0.2782
    3SAPS  C310  372   6.419   1.102   5.153 -0.2391  0.2917 -0.3023
    3SAPS  H10X  373   6.529   1.090   5.153  0.0638  2.2921 -1.9999
    3SAPS  H10Y  374   6.406   1.209   5.179  2.0494  0.5736 -0.1381
    3SAPS  C311  375   6.363   1.079   5.015 -0.5753  0.4816  0.4904
    3SAPS  H11X  376   6.258   1.113   5.019 -1.4311 -1.9516 -0.0245
    3SAPS  H11Y  377   6.360   0.971   4.991  0.5529  1.0131 -2.4832
    3SAPS  C312  378   6.453   1.151   4.913 -0.0719 -0.2174  0.6143
    3SAPS  H12X  379   6.555   1.108   4.921 -0.3695 -1.6158 -2.0834
    3SAPS  H12Y  380   6.446   1.258   4.943 -1.4697 -0.4675  1.2722
    3SAPS  C313  381   6.406   1.131   4.768  0.2641 -0.7024  0.2092
    3SAPS  H13X  382   6.303   1.172   4.762 -0.5365 -2.7920 -1.8943
    3SAPS  H13Y  383   6.400   1.020   4.761 -0.0765 -0.6448 -0.5686
    3SAPS  C314  384   6.508   1.196   4.667 -0.2821  1.9599  0.0610
    3SAPS  H14X  385   6.479   1.148   4.571  0.1637  1.5789  0.1163
    3SAPS  H14Y  386   6.612   1.167   4.690 -0.0864  1.6120 -1.2181
    3SAPS  C315  387   6.486   1.346   4.635  0.5376 -0.7564 -0.0602
    3SAPS  H15X  388   6.494   1.403   4.730  1.2955  2.7013 -2.0532
    3SAPS  H15Y  389   6.386   1.346   4.586  0.6656 -1.1423 -0.3256
    3SAPS  C316  390   6.582   1.406   4.541 -0.3319  0.0153 -0.6322
    3SAPS  H16X  391   6.590   1.360   4.440 -0.1929  0.5341 -0.8614
    3SAPS  H16Y  392   6.677   1.397   4.597 -0.9132 -1.9072  0.1494
    3SAPS  C317  393   6.553   1.557   4.521  0.4659 -0.3248 -0.0356
    3SAPS  H17X  394   6.575   1.608   4.618  0.2290 -1.0121  0.3822
    3SAPS  H17Y  395   6.445   1.576   4.504  0.6258  1.9968  1.1018
    3SAPS  C318  396   6.631   1.614   4.398  0.7082  0.1290 -0.7817
    3SAPS  H18X  397   6.604   1.721   4.384  0.2402 -0.3310 -4.6523
    3SAPS  H18Y  398   6.603   1.562   4.304  1.9357  0.6587 -1.4686
    3SAPS  H18Z  399   6.741   1.603   4.412  0.8605  1.5093 -0.7378
    4SAPS     N  400   5.562   1.364   6.724 -0.1329 -0.0612  0.3166
    4SAPS   HN1  401   5.640   1.311   6.681  0.4008  0.3550  0.7532
    4SAPS   HN2  402   5.559   1.324   6.820  0.4595 -3.5456 -0.9527
    4SAPS   HN3  403   5.473   1.345   6.673 -0.2915 -0.0861  0.6001
    4SAPS   C12  404   5.571   1.512   6.722 -0.7404  0.1393 -0.2618
    4SAPS  H12A  405   5.544   1.535   6.620  1.8882  3.3194 -0.4029
    4SAPS   C13  406   5.480   1.582   6.831  0.8218 -0.0977  0.4089
    4SAPS  O13A  407   5.390   1.514   6.896  0.6365  0.2338  0.3392
    4SAPS  O13B  408   5.482   1.709   6.839 -0.6026  0.2640 -0.2278
    4SAPS   C11  409   5.717   1.549   6.753 -0.0871  0.1335  0.1656
    4SAPS  H11A  410   5.739   1.535   6.861  0.4564  0.3143  0.0777
    4SAPS  H11B  411   5.728   1.657   6.732 -2.4095  1.1219  3.2709
    4SAPS     P  412   5.954   1.474   6.689 -0.1918 -0.0209  0.3148
    4SAPS   O13  413   5.974   1.489   6.834  0.2584 -0.1274 -0.2252
    4SAPS   O14  414   6.008   1.354   6.627 -0.2589  0.1311 -0.7371
    4SAPS   O12  415   5.804   1.479   6.665 -0.1414 -0.5297  0.0047
    4SAPS   O11  416   6.002   1.603   6.617  0.1657  0.1105  0.0307
    4SAPS    C1  417   5.946   1.640   6.493 -0.0096 -0.4384 -0.3254
    4SAPS    HA  418   5.835   1.647   6.496  0.0783  0.9879  0.2440
    4SAPS    HB  419   5.980   1.743   6.469 -2.0766 -0.0731 -1.9922
    4SAPS    C2  420   5.976   1.551   6.370 -0.2487 -0.3625 -0.7145
    4SAPS    HS  421   5.927   1.454   6.392 -0.6488  0.0551  0.2674
    4SAPS   O21  422   6.117   1.546   6.357 -0.9658 -0.7541 -0.1086
    4SAPS   C21  423   6.169   1.438   6.299  0.4537 -0.3525 -0.7086
    4SAPS   O22  424   6.108   1.336   6.264  0.2386  0.3493 -0.1907
    4SAPS   C22  425   6.324   1.454   6.307  0.2054 -0.5291  0.3344
    4SAPS   H2R  426   6.336   1.562   6.286  0.0816 -0.7057 -0.6872
    4SAPS   H2S  427   6.352   1.418   6.409 -1.1126  0.1345  0.9544
    4SAPS    C3  428   5.915   1.610   6.249 -0.2900  0.0252  0.5557
    4SAPS    HX  429   5.967   1.707   6.233 -0.5883  0.1052  0.0374
    4SAPS    HY  430   5.808   1.637   6.263 -0.5280 -1.6538  2.3812
    4SAPS   O31  431   5.942   1.527   6.140  0.5179  0.1864  0.3164
    4SAPS   C31  432   5.838   1.440   6.118 -1.3174  0.2468  0.6464
    4SAPS   O32  433   5.751   1.419   6.194 -0.1186  0.1874  0.3497
    4SAPS   C32  434   5.852   1.370   5.982  1.1573 -0.1395  0.5624
    4SAPS   H2X  435   5.798   1.277   6.010 -1.0899  0.3911 -1.6374
    4SAPS   H2Y  436   5.959   1.344   5.964  0.8427 -1.5653  0.6327
    4SAPS   C23  437   6.393   1.363   6.201  0.1525  0.2079 -0.1429
    4SAPS   H3R  438   6.343   1.380   6.103 -1.1618 -1.5098  0.1732
    4SAPS   H3S  439   6.367   1.258   6.227  0.8606  0.3244  1.0956
    4SAPS   C24  440   6.547   1.389   6.178  0.1081 -0.2523 -0.5136
    4SAPS   H4R  441   6.576   1.318   6.098 -1.4146 -0.7973 -0.6186
    4SAPS   H4S  442   6.608   1.376   6.270  1.6852  0.0712 -1.4787
    4SAPS   C25  443   6.565   1.534   6.130 -0.2602 -0.9102  0.0500
    4SAPS   H5R  444   6.544   1.611   6.206 -2.3216 -2.2345  0.8860
    4SAPS   C26  445   6.585   1.584   6.008 -0.6136 -0.5646  0.4055
    4SAPS   H6R  446   6.594   1.692   5.987  0.0923 -0.9585 -1.5968
    4SAPS   C27  447   6.608   1.507   5.881  0.4775 -0.6250  1.0829
    4SAPS   H7R  448   6.504   1.477   5.855  0.9053 -0.8277 -0.4587
    4SAPS   H7S  449   6.660   1.413   5.909  2.6776 -0.0384 -0.7544
    4SAPS   C28  450   6.695   1.581   5.777  0.5937 -0.2816  0.0406
    4SAPS   H8R  451   6.735   1.679   5.811  0.5813 -0.4624  0.5911
    4SAPS   C29  452   6.714   1.546   5.651 -0.0030 -0.0027  1.2350
    4SAPS   H9R  453   6.772   1.611   5.583  1.0124 -0.1914  1.9021
    4SAPS  C210  454   6.651   1.431   5.582  0.4286 -0.1815  0.1807
    4SAPS  H10R  455   6.588   1.476   5.502  3.3526  3.7727 -0.1968
    4SAPS  H10S  456   6.594   1.372   5.657 -1.9576 -0.1351 -1.4792
    4SAPS  C211  457   6.747   1.336   5.521 -0.4704 -1.1241  0.2983
    4SAPS  H11R  458   6.733   1.231   5.552 -2.9718 -1.2744 -1.0882
    4SAPS  C212  459   6.842   1.355   5.424  0.3335  0.4029 -0.3564
    4SAPS  H12R  460   6.902   1.268   5.393 -0.5454 -0.2146 -0.3657
    4SAPS  C213  461   6.858   1.484   5.346 -0.4934 -0.0862  0.9892
    4SAPS  H13R  462   6.832   1.573   5.406 -1.7416  0.1723  0.0909
    4SAPS  H13S  463   6.785   1.485   5.263 -2.3613  0.5040  2.5813
    4SAPS  C214  464   7.001   1.508   5.288 -0.4242 -0.3294 -0.6600
    4SAPS  H14R  465   7.076   1.503   5.367  1.5581  0.4083 -2.3980
    4SAPS  C215  466   7.041   1.551   5.170 -0.0797  0.3215 -1.0122
    4SAPS  H15R  467   7.149   1.560   5.152  0.0038  1.5217 -0.0401
    4SAPS  C216  468   6.952   1.570   5.048 -0.3186  0.2052 -0.0317
    4SAPS  H16R  469   6.938   1.671   5.005 -1.3520  0.6897  1.3686
    4SAPS  H16S  470   6.846   1.543   5.069 -0.2539 -0.1914 -0.2195
    4SAPS  C217  471   6.997   1.473   4.935  0.3534  0.2287 -0.2173
    4SAPS  H17R  472   7.030   1.377   4.981  1.1814  1.5581  2.1404
    4SAPS  H17S  473   7.088   1.499   4.876  1.6782 -0.9701  1.2131
    4SAPS  C218  474   6.886   1.431   4.842 -0.4212  0.1662 -0.1622
    4SAPS  H18R  475   6.862   1.516   4.775 -0.1034 -1.1145 -1.9752
    4SAPS  H18S  476   6.795   1.393   4.892  0.6177 -2.7326 -0.2605
    4SAPS  C219  477   6.918   1.309   4.751 -0.0532  0.7328  0.2595
    4SAPS  H19R  478   7.020   1.316   4.708 -0.1762  0.0275 -0.1566
    4SAPS  H19S  479   6.845   1.314   4.667 -0.4469  0.3162  0.5743
    4SAPS  C220  480   6.901   1.172   4.812  0.2877  0.3026 -0.3554
    4SAPS  H20R  481   6.805   1.158   4.866 -0.5388  1.6123 -1.4272
    4SAPS  H20S  482   6.975   1.164   4.894 -0.5714  2.7496  0.7718
    4SAPS  H20T  483   6.919   1.083   4.749  0.5183 -1.0328  1.5170
    4SAPS   C33  484   5.783   1.435   5.861 -0.2636  0.3628  0.1476
    4SAPS   H3X  485   5.826   1.537   5.848  0.6832  0.0584  0.7367
    4SAPS   H3Y  486   5.674   1.448   5.875  0.0583  0.7447  2.9716
    4SAPS   C34  487   5.811   1.357   5.730 -0.3048 -0.4826 -0.0283
    4SAPS   H4X  488   5.761   1.260   5.749 -1.1458 -0.0197  0.1853
    4SAPS   H4Y  489   5.919   1.345   5.706 -0.2410 -1.8150  0.8539
    4SAPS   C35  490   5.737   1.401   5.599 -0.3926 -0.0839  0.1305
    4SAPS   H5X  491   5.635   1.438   5.622 -0.5076 -0.6738  0.6100
    4SAPS   H5Y  492   5.734   1.311   5.534 -1.4413  1.5290 -2.1506
    4SAPS   C36  493   5.803   1.516   5.527 -0.4350 -0.5696 -0.0229
    4SAPS   H6X  494   5.912   1.504   5.506 -0.3718  0.0047 -0.0511
    4SAPS   H6Y  495   5.801   1.605   5.593  2.2482 -1.3141  1.2174
    4SAPS   C37  496   5.733   1.547   5.399  0.3817  0.6818  0.0797
    4SAPS   H7X  497   5.626   1.547   5.430  0.6259  0.8803  0.9455
    4SAPS   H7Y  498   5.739   1.463   5.327  2.3503  3.3978 -3.2326
    4SAPS   C38  499   5.771   1.681   5.335  0.1422  0.4152 -0.1994
    4SAPS   H8X  500   5.879   1.686   5.310  1.0897 -1.1528  3.1383
    4SAPS   H8Y  501   5.752   1.770   5.399 -0.2192 -0.5942  1.1190
    4SAPS   C39  502   5.697   1.712   5.206 -0.4932  0.6100  1.0274
    4SAPS   H9X  503   5.712   1.820   5.185 -0.4918  0.1314 -1.7113
    4SAPS   H9Y  504   5.588   1.697   5.222 -1.0171  1.5673 -1.2721
    4SAPS  C310  505   5.749   1.616   5.102  0.2953 -0.6280  0.1849
    4SAPS  H10X  506   5.711   1.519   5.140  0.0937  0.3652  2.6992
    4SAPS  H10Y  507   5.859   1.632   5.095  0.2078 -0.5855 -2.0138
    4SAPS  C311  508   5.681   1.638   4.959  0.1657 -0.0101 -0.2922
    4SAPS  H11X  509   5.725   1.580   4.876 -1.8458  1.8977 -2.8541
    4SAPS  H11Y  510   5.700   1.745   4.937 -0.8029  0.0451 -0.8997
    4SAPS  C312  511   5.538   1.600   4.953  0.4245  0.4601  0.0401
    4SAPS  H12X  512   5.471   1.637   5.034 -0.8123  0.9110 -1.1535
    4SAPS  H12Y  513   5.522   1.490   4.948 -0.8949  0.6907 -1.2016
    4SAPS  C313  514   5.463   1.637   4.820 -0.4940  0.8280  0.0139
    4SAPS  H13X  515   5.514   1.587   4.735 -1.0585 -1.0768  0.7661
    4SAPS  H13Y  516   5.446   1.743   4.790 -1.6197  0.6571  0.0386
    4SAPS  C314  517   5.325   1.578   4.828 -0.0739 -0.4558 -0.5448
    4SAPS  H14X  518   5.280   1.614   4.923  0.5433 -0.2454 -0.3300
    4SAPS  H14Y  519   5.338   1.467   4.833 -2.5509 -0.8050 -0.1232
    4SAPS  C315  520   5.243   1.612   4.704 -0.3776  0.1523 -0.2838
    4SAPS  H15X  521   5.270   1.716   4.672 -1.0925 -0.7414 -4.3826
    4SAPS  H15Y  522   5.135   1.617   4.726 -0.6353  0.4110 -1.5416
    4SAPS  C316  523   5.262   1.514   4.584 -0.8024  0.5138 -0.2247
    4SAPS  H16X  524   5.220   1.420   4.624  1.7814 -0.6419 -0.0079
    4SAPS  H16Y  525   5.369   1.495   4.563 -0.5969  0.9427  0.3957
    4SAPS  C317  526   5.191   1.562   4.456 -0.0357 -0.3211 -0.8310
    4SAPS  H17X  527   5.242   1.651   4.412 -0.4734 -0.4503 -1.6203
    4SAPS  H17Y  528   5.087   1.593   4.478 -0.5134 -1.6169 -1.1755
    4SAPS  C318  529   5.172   1.455   4.353  0.4220 -0.3448  0.3025
    4SAPS  H18X  530   5.112   1.372   4.398  0.3233  1.3557  3.5856
    4SAPS  H18Y  531   5.266   1.412   4.313 -1.2233 -2.0233 -2.0746
    4SAPS  H18Z  532   5.124   1.490   4.260 -0.0311 -0.0491  0.6404
    5SAPS     N  533   0.756   2.519   6.684 -0.2673 -0.7413 -0.6075
    5SAPS   HN1  534   0.793   2.566   6.770 -2.1949 -0.2216 -0.0193
    5SAPS   HN2  535   0.814   2.551   6.604 -0.0787  0.1410 -0.1281
    5SAPS   HN3  536   0.667   2.568   6.661 -0.0942 -0.1556 -0.0686
    5SAPS   C12  537   0.762   2.370   6.688 -0.6488 -0.6108  0.6967
    5SAPS  H12A  538   0.847   2.331   6.743  0.7060  0.9973 -0.1352
    5SAPS   C13  539   0.646   2.306   6.763 -0.1545 -0.1088 -0.2818
    5SAPS  O13A  540   0.568   2.376   6.832  0.6831  0.6598  0.0845
    5SAPS  O13B  541   0.645   2.183   6.777 -0.5802 -0.0536  0.4695
    5SAPS   C11  542   0.770   2.315   6.543  0.3552  0.4837  0.6561
    5SAPS  H11A  543   0.680   2.352   6.490 -0.2802 -0.3965  1.0846
    5SAPS  H11B  544   0.756   2.205   6.555  0.6122  0.2131 -1.1869
    5SAPS     P  545   1.011   2.262   6.425  0.3445 -0.0095 -0.0110
    5SAPS   O13  546   1.111   2.348   6.349 -0.0263  0.5024  0.0738
    5SAPS   O14  547   1.063   2.199   6.550 -0.5385 -1.0131 -0.7931
    5SAPS   O12  548   0.891   2.357   6.473  0.5510 -0.5344  0.2388
    5SAPS   O11  549   0.927   2.167   6.324  0.7073 -0.6106 -0.3616
    5SAPS    C1  550   0.896   2.213   6.191  0.3472  0.0975  0.5831
    5SAPS    HA  551   0.795   2.178   6.164 -0.2437  0.2685  2.4437
    5SAPS    HB  552   0.895   2.323   6.179  0.8477  0.2663  1.9055
    5SAPS    C2  553   1.000   2.176   6.085  0.8306 -0.2105  0.6368
    5SAPS    HS  554   1.077   2.256   6.091 -0.3564  1.1921 -1.7465
    5SAPS   O21  555   0.958   2.181   5.947  0.3696  0.3899 -0.0461
    5SAPS   C21  556   0.939   2.303   5.894  0.2609  0.6314  0.0044
    5SAPS   O22  557   0.960   2.408   5.949  0.5687  0.1844 -0.0478
    5SAPS   C22  558   0.895   2.287   5.753  0.3397  0.1457  0.0138
    5SAPS   H2R  559   0.919   2.180   5.732 -1.9307 -0.8481  2.0293
    5SAPS   H2S  560   0.785   2.283   5.740  0.4103 -1.1068 -0.3365
    5SAPS    C3  561   1.065   2.038   6.111 -0.1967  0.8151  0.4449
    5SAPS    HX  562   0.986   1.964   6.139 -0.5756  1.4457  1.0823
    5SAPS    HY  563   1.135   2.043   6.196  0.1823 -0.1630  0.2101
    5SAPS   O31  564   1.131   1.982   5.992  0.2673  0.0622  0.2078
    5SAPS   C31  565   1.250   2.031   5.964 -0.1402  0.1341  0.2011
    5SAPS   O32  566   1.299   2.132   6.013 -0.4421 -0.4402 -0.8226
    5SAPS   C32  567   1.309   1.952   5.841 -0.4571 -0.0977 -0.2414
    5SAPS   H2X  568   1.284   1.845   5.855  0.9412 -0.4237 -0.0406
    5SAPS   H2Y  569   1.419   1.960   5.852 -0.3026  0.2541 -1.8174
    5SAPS   C23  570   0.964   2.382   5.655  0.2353 -0.7144  0.5508
    5SAPS   H3R  571   1.074   2.361   5.655  0.5225  0.6687 -0.1856
    5SAPS   H3S  572   0.943   2.483   5.695 -0.3299 -1.5465  2.4297
    5SAPS   C24  573   0.915   2.378   5.504 -0.2858  0.2994  0.3360
    5SAPS   H4R  574   0.977   2.453   5.451 -2.2608  1.1649 -0.8580
    5SAPS   H4S  575   0.809   2.410   5.508 -0.7042 -1.1044  2.2816
    5SAPS   C25  576   0.928   2.237   5.449 -1.1817 -0.1816  0.1249
    5SAPS   H5R  577   1.029   2.215   5.413 -0.0347  2.6453  1.3551
    5SAPS   C26  578   0.832   2.152   5.423 -1.0289 -0.2448  0.1399
    5SAPS   H6R  579   0.866   2.057   5.380 -0.5583  0.8539 -2.0573
    5SAPS   C27  580   0.688   2.170   5.453 -0.2491 -0.8100 -0.8291
    5SAPS   H7R  581   0.636   2.184   5.356  0.7793  1.8269 -1.1006
    5SAPS   H7S  582   0.663   2.265   5.505  0.8413 -0.6749 -0.5256
    5SAPS   C28  583   0.621   2.073   5.536  0.3840  0.7209 -0.4274
    5SAPS   H8R  584   0.644   2.079   5.643 -0.0056  1.2166 -0.3655
    5SAPS   C29  585   0.559   1.960   5.492 -0.6631  0.2738 -0.2961
    5SAPS   H9R  586   0.516   1.884   5.558 -1.0998  0.1384 -0.7324
    5SAPS  C210  587   0.545   1.917   5.347 -0.3294  0.7128 -0.1917
    5SAPS  H10R  588   0.613   1.829   5.340 -1.2541 -0.0196 -0.2306
    5SAPS  H10S  589   0.570   2.002   5.280  3.6766 -1.2633 -1.4948
    5SAPS  C211  590   0.404   1.872   5.310  0.1305  0.1652  0.2526
    5SAPS  H11R  591   0.345   1.837   5.396 -2.9307  0.9447 -1.3626
    5SAPS  C212  592   0.351   1.862   5.181  0.1386 -0.4661 -0.9569
    5SAPS  H12R  593   0.243   1.841   5.173  0.3487 -1.6256 -0.9028
    5SAPS  C213  594   0.411   1.886   5.043  0.4183  0.5720 -0.3852
    5SAPS  H13R  595   0.398   1.792   4.984 -3.3292  1.0655 -0.5914
    5SAPS  H13S  596   0.516   1.916   5.060  0.3343  0.1427  0.9643
    5SAPS  C214  597   0.327   1.981   4.961 -0.3365 -0.9529 -0.3287
    5SAPS  H14R  598   0.292   2.068   5.019 -1.8956 -0.5955 -1.7478
    5SAPS  C215  599   0.280   1.963   4.835  0.1879 -0.9930 -0.2823
    5SAPS  H15R  600   0.230   2.045   4.781  2.9402  0.8508 -0.2863
    5SAPS  C216  601   0.303   1.844   4.755 -0.3884 -0.5644 -0.6001
    5SAPS  H16R  602   0.278   1.752   4.811  2.3874 -1.6921 -1.0483
    5SAPS  H16S  603   0.411   1.833   4.732  0.1774 -0.2919  1.6720
    5SAPS  C217  604   0.209   1.825   4.630  0.1240  0.2409  0.5205
    5SAPS  H17R  605   0.238   1.731   4.577  2.2801  0.6942  0.8017
    5SAPS  H17S  606   0.227   1.915   4.568  0.4258 -0.1951 -0.0347
    5SAPS  C218  607   0.053   1.823   4.667 -0.4112  0.3905  0.2895
    5SAPS  H18R  608   0.029   1.909   4.733 -1.1793  0.1075  0.3910
    5SAPS  H18S  609   0.040   1.738   4.738  1.5358  1.3222  1.8977
    5SAPS  C219  610  -0.025   1.820   4.545  0.1600 -0.2897  0.1396
    5SAPS  H19R  611  -0.127   1.786   4.575 -0.2040  0.7447  0.1181
    5SAPS  H19S  612   0.014   1.752   4.465 -0.5685  0.0741 -0.5467
    5SAPS  C220  613  -0.037   1.961   4.482 -0.5825  0.5492 -0.7076
    5SAPS  H20R  614  -0.074   2.029   4.561 -1.2698 -0.6271  0.0025
    5SAPS  H20S  615  -0.104   1.953   4.393  0.8976  0.4085 -1.8650
    5SAPS  H20T  616   0.064   1.993   4.448 -0.4699 -0.5833 -1.4962
    5SAPS   C33  617   1.256   2.027   5.716 -0.8563 -0.4261  0.0951
    5SAPS   H3X  618   1.286   2.132   5.735 -0.2760 -0.4023 -0.9092
    5SAPS   H3Y  619   1.146   2.011   5.705 -0.7751 -0.4714 -0.6754
    5SAPS   C34  620   1.313   1.973   5.585 -0.1285 -0.4112 -0.4433
    5SAPS   H4X  621   1.266   1.874   5.564 -1.1433 -0.5930  2.2376
    5SAPS   H4Y  622   1.420   1.952   5.606 -0.4073  0.5084  2.3152
    5SAPS   C35  623   1.289   2.066   5.461 -0.0737  0.8011 -1.2007
    5SAPS   H5X  624   1.329   2.168   5.485  0.4543  0.1929  0.6976
    5SAPS   H5Y  625   1.178   2.069   5.458 -0.1426 -1.5445 -2.9106
    5SAPS   C36  626   1.341   2.003   5.331 -0.6965  0.2692 -0.5557
    5SAPS   H6X  627   1.297   2.064   5.249  2.0072  2.0681 -0.7898
    5SAPS   H6Y  628   1.318   1.895   5.318 -0.0701  0.2534 -1.6660
    5SAPS   C37  629   1.502   2.024   5.314  0.5663 -0.6783  0.4782
    5SAPS   H7X  630   1.562   1.969   5.390  1.3594 -1.1265 -0.4460
    5SAPS   H7Y  631   1.522   2.133   5.317 -2.1766 -0.0787  0.0853
    5SAPS   C38  632   1.553   1.956   5.184 -0.2152 -0.1844 -0.6599
    5SAPS   H8X  633   1.502   1.973   5.087  0.0742 -1.4282 -1.0360
    5SAPS   H8Y  634   1.561   1.847   5.204  2.8054 -0.0712 -0.8341
    5SAPS   C39  635   1.704   1.997   5.162 -0.4348  0.4987 -0.5549
    5SAPS   H9X  636   1.759   1.920   5.103 -2.8115  0.4911 -2.9596
    5SAPS   H9Y  637   1.739   1.980   5.266  0.2217 -0.8277 -0.9769
    5SAPS  C310  638   1.735   2.137   5.115  0.7323 -0.6290  0.4920
    5SAPS  H10X  639   1.839   2.134   5.078  0.0148 -0.6810 -1.6775
    5SAPS  H10Y  640   1.728   2.212   5.197 -0.9346 -0.6772  0.4355
    5SAPS  C311  641   1.638   2.176   5.003 -0.3704 -0.0504  0.3797
    5SAPS  H11X  642   1.531   2.182   5.032 -0.0219  1.7686  1.4535
    5SAPS  H11Y  643   1.652   2.106   4.918  2.4790 -1.0088  1.5350
    5SAPS  C312  644   1.668   2.320   4.948  0.2806 -0.1728  0.0756
    5SAPS  H12X  645   1.696   2.392   5.028 -0.0683 -1.4492  1.3790
    5SAPS  H12Y  646   1.580   2.372   4.905  0.0981 -0.8530 -0.3816
    5SAPS  C313  647   1.776   2.320   4.831 -0.2386 -0.0393 -0.0282
    5SAPS  H13X  648   1.870   2.269   4.862 -0.8956 -0.6470  1.0214
    5SAPS  H13Y  649   1.797   2.429   4.820 -0.9765  0.6232  3.7523
    5SAPS  C314  650   1.723   2.273   4.700 -0.1069 -0.0375 -0.3074
    5SAPS  H14X  651   1.658   2.357   4.666  0.9056  0.2803 -1.5435
    5SAPS  H14Y  652   1.659   2.183   4.711  0.6040 -0.3902  1.2524
    5SAPS  C315  653   1.829   2.239   4.598  0.5130 -0.4766  0.0293
    5SAPS  H15X  654   1.879   2.146   4.630 -0.7554 -1.3450 -0.4304
    5SAPS  H15Y  655   1.902   2.322   4.606 -0.0305  0.0806 -0.6675
    5SAPS  C316  656   1.763   2.235   4.456  0.0661 -0.1093  0.0594
    5SAPS  H16X  657   1.747   2.339   4.420  1.3421 -0.4767 -1.6773
    5SAPS  H16Y  658   1.665   2.185   4.444  0.4538 -0.2891 -3.2114
    5SAPS  C317  659   1.868   2.177   4.363 -0.0590 -0.3102 -0.2704
    5SAPS  H17X  660   1.969   2.210   4.397  0.3296 -1.1444 -0.5970
    5SAPS  H17Y  661   1.851   2.218   4.261  0.5392  2.3250  0.5919
    5SAPS  C318  662   1.856   2.025   4.361 -0.5078 -0.0367 -0.3310
    5SAPS  H18X  663   1.766   1.990   4.307  0.1581  0.9823 -2.1694
    5SAPS  H18Y  664   1.839   1.993   4.466  2.5740  0.5165  0.4202
    5SAPS  H18Z  665   1.944   1.971   4.320 -0.4833 -0.1469 -0.1378
    6SAPS     N  666   4.353   2.051   7.035  0.3020  0.5632  0.0761
    6SAPS   HN1  667   4.380   2.076   7.132  2.3222 -0.9288 -0.0361
    6SAPS   HN2  668   4.417   1.978   6.997 -1.5740 -1.3783  0.4365
    6SAPS   HN3  669   4.361   2.136   6.976 -1.1292  0.2711 -0.5844
    6SAPS   C12  670   4.208   1.994   7.038 -0.0517 -0.3415  0.2511
    6SAPS  H12A  671   4.208   1.908   7.103  1.0619 -0.3272  0.2901
    6SAPS   C13  672   4.096   2.088   7.081  0.2545 -0.2593  0.5316
    6SAPS  O13A  673   4.122   2.210   7.082 -0.3669 -0.7608 -0.0369
    6SAPS  O13B  674   3.977   2.050   7.075 -0.1179  0.0283 -0.4030
    6SAPS   C11  675   4.180   1.958   6.888  0.3864 -0.3499 -0.4059
    6SAPS  H11A  676   4.191   2.058   6.840  0.0739  0.0963  0.4419
    6SAPS  H11B  677   4.072   1.934   6.880  0.7562 -1.8172 -1.3404
    6SAPS     P  678   4.210   1.758   6.726  0.0742 -0.1974 -0.4934
    6SAPS   O13  679   4.312   1.707   6.631 -0.2514 -0.3403 -0.1213
    6SAPS   O14  680   4.134   1.653   6.800 -0.5132  0.0280  0.0486
    6SAPS   O12  681   4.271   1.856   6.837  0.0330  0.2677  0.0766
    6SAPS   O11  682   4.109   1.845   6.647 -0.0054  0.0631 -0.3543
    6SAPS    C1  683   4.144   1.979   6.599  0.7671  0.4171  0.2879
    6SAPS    HA  684   4.077   2.052   6.648  1.5740  0.7471  0.9313
    6SAPS    HB  685   4.248   2.008   6.625  0.3294  1.3846  0.9792
    6SAPS    C2  686   4.133   1.994   6.444 -0.1780 -0.0923 -0.0327
    6SAPS    HS  687   4.025   1.981   6.420 -0.7135  0.5534  1.8362
    6SAPS   O21  688   4.225   1.909   6.378 -0.0180 -0.1056  0.3041
    6SAPS   C21  689   4.204   1.785   6.347  0.5273 -0.0542  0.1693
    6SAPS   O22  690   4.096   1.726   6.361  0.2047  0.7960  0.1052
    6SAPS   C22  691   4.344   1.727   6.311 -0.1852 -0.5778 -0.2573
    6SAPS   H2R  692   4.388   1.689   6.405 -1.1450  0.6414  0.7140
    6SAPS   H2S  693   4.331   1.643   6.238 -0.8754 -0.2274 -0.5489
    6SAPS    C3  694   4.162   2.141   6.392 -0.3682  0.8041 -0.3109
    6SAPS    HX  695   4.270   2.150   6.418  0.3291 -1.2994 -2.1803
    6SAPS    HY  696   4.087   2.208   6.441  1.1486  0.7440  2.2765
    6SAPS   O31  697   4.146   2.142   6.246 -0.8157  0.6882 -0.4930
    6SAPS   C31  698   4.024   2.153   6.188 -0.2914 -0.0635  0.2739
    6SAPS   O32  699   3.923   2.181   6.248 -0.3918 -0.5785 -0.0028
    6SAPS   C32  700   4.036   2.143   6.036 -0.2482  0.1135 -0.2890
    6SAPS   H2X  701   4.117   2.077   5.998  0.7266  0.6821  0.7668
    6SAPS   H2Y  702   4.070   2.246   6.013  0.3883  0.1451  0.7517
    6SAPS   C23  703   4.440   1.838   6.258 -0.2675  0.2505  0.7548
    6SAPS   H3R  704   4.542   1.795   6.246 -0.4755 -0.1043  0.2315
    6SAPS   H3S  705   4.464   1.921   6.328 -3.4293  3.1511 -1.2671
    6SAPS   C24  706   4.376   1.911   6.133 -0.7354  0.4418  0.0611
    6SAPS   H4R  707   4.272   1.946   6.153 -1.0053  1.0770 -2.2241
    6SAPS   H4S  708   4.374   1.825   6.062  1.5143  2.7115 -2.9807
    6SAPS   C25  709   4.463   2.026   6.091 -0.2587 -0.0122  0.4656
    6SAPS   H5R  710   4.494   2.098   6.167 -0.2154 -0.1363  0.5663
    6SAPS   C26  711   4.503   2.055   5.967  0.2122  0.3560 -0.0833
    6SAPS   H6R  712   4.583   2.129   5.956  0.7636 -0.2485 -0.1856
    6SAPS   C27  713   4.469   1.980   5.829  0.6822 -0.6810 -0.6213
    6SAPS   H7R  714   4.397   1.898   5.849 -0.7407  0.4236 -1.0666
    6SAPS   H7S  715   4.566   1.945   5.786  2.5384 -0.0951  2.7484
    6SAPS   C28  716   4.401   2.090   5.744  0.0541 -0.5689  0.0353
    6SAPS   H8R  717   4.344   2.158   5.809  0.8467 -0.7686  0.9611
    6SAPS   C29  718   4.378   2.098   5.612 -0.2227  0.5314 -0.1262
    6SAPS   H9R  719   4.331   2.191   5.575  1.6245  2.6289  2.4206
    6SAPS  C210  720   4.423   1.999   5.512 -0.4615 -0.0219  0.7402
    6SAPS  H10R  721   4.509   1.935   5.544 -0.6217 -1.3072 -1.2550
    6SAPS  H10S  722   4.455   2.055   5.422 -0.3736 -0.4199  0.5195
    6SAPS  C211  723   4.321   1.896   5.481  0.4724  0.2373 -0.3711
    6SAPS  H11R  724   4.286   1.829   5.561  0.4752  1.9234  1.1062
    6SAPS  C212  725   4.269   1.882   5.359  0.0062  0.7044 -0.1197
    6SAPS  H12R  726   4.186   1.812   5.339 -1.0613  2.7013 -3.6204
    6SAPS  C213  727   4.297   1.959   5.236 -0.9409 -0.9221  0.1712
    6SAPS  H13R  728   4.321   2.066   5.253  0.8441 -1.6558  2.9213
    6SAPS  H13S  729   4.203   1.965   5.177  1.0657  1.3942 -3.1276
    6SAPS  C214  730   4.404   1.890   5.155 -0.2612  0.0239 -0.2611
    6SAPS  H14R  731   4.477   1.846   5.224 -1.2918 -0.1798  0.7428
    6SAPS  C215  732   4.412   1.872   5.021 -0.2551  0.5084  1.3098
    6SAPS  H15R  733   4.495   1.810   4.985 -1.4999 -0.5057  0.0725
    6SAPS  C216  734   4.326   1.926   4.909 -0.0610  0.2024 -0.6182
    6SAPS  H16R  735   4.234   1.946   4.967 -0.5347  0.9231 -1.5832
    6SAPS  H16S  736   4.298   1.838   4.847 -0.4232 -1.3427  1.6480
    6SAPS  C217  737   4.382   2.054   4.843 -0.0356 -0.1821 -0.0246
    6SAPS  H17R  738   4.409   2.127   4.922  1.3363  1.3755 -1.8403
    6SAPS  H17S  739   4.304   2.090   4.773  0.8375  2.4017  0.2444
    6SAPS  C218  740   4.512   2.030   4.763 -0.9429 -0.0178 -0.1560
    6SAPS  H18R  741   4.496   1.940   4.699  1.6233 -0.2382 -0.6142
    6SAPS  H18S  742   4.596   2.005   4.833 -1.7270  2.3173  1.7476
    6SAPS  C219  743   4.563   2.153   4.684 -0.5109  0.1898 -0.1702
    6SAPS  H19R  744   4.574   2.237   4.756 -1.3912  3.4502 -3.4838
    6SAPS  H19S  745   4.483   2.180   4.612 -0.1923 -2.4024 -1.6148
    6SAPS  C220  746   4.689   2.116   4.609 -0.0793  0.1665  0.2889
    6SAPS  H20R  747   4.741   2.201   4.559  1.5277 -0.6616  0.4715
    6SAPS  H20S  748   4.664   2.045   4.528 -0.3419  0.7206 -0.1215
    6SAPS  H20T  749   4.758   2.064   4.679 -0.5270  1.0475  1.4075
    6SAPS   C33  750   3.901   2.110   5.969  0.1156  0.1896 -0.3434
    6SAPS   H3X  751   3.806   2.163   5.994  0.7400  2.0828 -1.7267
    6SAPS   H3Y  752   3.878   2.002   5.974 -0.8296  0.3826 -0.2872
    6SAPS   C34  753   3.918   2.130   5.819 -0.5834 -0.9371 -0.0547
    6SAPS   H4X  754   4.007   2.067   5.798 -0.6010 -1.0362  0.1573
    6SAPS   H4Y  755   3.952   2.233   5.793  1.3567 -1.5589 -0.1217
    6SAPS   C35  756   3.807   2.092   5.718  0.2035  0.7622  0.0059
    6SAPS   H5X  757   3.713   2.137   5.756 -0.7346 -2.0972  1.3720
    6SAPS   H5Y  758   3.791   1.982   5.731 -0.6073  1.1081  2.3055
    6SAPS   C36  759   3.827   2.130   5.579 -0.1510 -0.6110  0.0005
    6SAPS   H6X  760   3.805   2.238   5.564  1.0609 -0.3310  0.1233
    6SAPS   H6Y  761   3.756   2.084   5.506 -0.1315 -0.2995 -0.2187
    6SAPS   C37  762   3.977   2.117   5.521  0.6632  0.3629 -0.2811
    6SAPS   H7X  763   3.990   2.007   5.517 -0.3684  0.1577  1.2981
    6SAPS   H7Y  764   4.043   2.173   5.590  0.0005  2.6271 -1.3871
    6SAPS   C38  765   3.987   2.166   5.378  0.0229  0.4726 -0.1023
    6SAPS   H8X  766   4.097   2.168   5.360 -0.0345 -0.8271 -0.6687
    6SAPS   H8Y  767   3.946   2.268   5.361 -1.1530 -0.1538 -1.2233
    6SAPS   C39  768   3.921   2.071   5.280  0.1857 -0.2007  0.2313
    6SAPS   H9X  769   3.815   2.057   5.311  0.5492 -0.8804  1.2117
    6SAPS   H9Y  770   3.969   1.971   5.288  0.4973 -0.3034 -2.2227
    6SAPS  C310  771   3.923   2.115   5.137  0.6419  0.3594  0.7772
    6SAPS  H10X  772   4.030   2.142   5.127  0.5127  1.0686  1.2455
    6SAPS  H10Y  773   3.860   2.204   5.118  0.0411 -0.2040  0.0580
    6SAPS  C311  774   3.886   2.011   5.025  0.2128  0.2620 -0.2197
    6SAPS  H11X  775   3.778   1.989   5.037 -0.1793  1.1278 -1.8687
    6SAPS  H11Y  776   3.957   1.926   5.037  0.6018  0.7425  0.9826
    6SAPS  C312  777   3.913   2.070   4.887  0.2491 -0.5533  0.6580
    6SAPS  H12X  778   4.019   2.104   4.879 -0.5271  2.1477  0.7540
    6SAPS  H12Y  779   3.850   2.161   4.879 -1.3089 -1.7501 -1.6081
    6SAPS  C313  780   3.873   1.978   4.774  0.4604 -1.0916  0.3613
    6SAPS  H13X  781   3.783   1.919   4.800 -0.5742  1.2842  2.6612
    6SAPS  H13Y  782   3.966   1.918   4.759  1.1234  0.2780 -1.2473
    6SAPS  C314  783   3.836   2.058   4.647  0.0945  0.2546 -0.3420
    6SAPS  H14X  784   3.925   2.105   4.601 -0.3171 -2.1675 -4.0104
    6SAPS  H14Y  785   3.762   2.140   4.663  1.0114  1.5824 -2.5244
    6SAPS  C315  786   3.793   1.948   4.544 -0.3593  0.1906  0.6471
    6SAPS  H15X  787   3.694   1.903   4.564 -1.3427  1.3230 -1.4029
    6SAPS  H15Y  788   3.876   1.875   4.539 -1.2960 -0.9639  1.6288
    6SAPS  C316  789   3.777   2.016   4.405 -0.1336 -0.6160  0.2901
    6SAPS  H16X  790   3.866   2.077   4.379 -0.2830  0.9654  3.0374
    6SAPS  H16Y  791   3.695   2.092   4.405  0.3859  0.0337 -2.3241
    6SAPS  C317  792   3.749   1.933   4.279  0.2760 -0.9404 -0.0399
    6SAPS  H17X  793   3.740   1.999   4.190  2.1716 -0.2617  0.2268
    6SAPS  H17Y  794   3.649   1.885   4.290  0.1238 -0.0831  3.6775
    6SAPS  C318  795   3.858   1.824   4.249 -0.2639 -0.8011 -0.3770
    6SAPS  H18X  796   3.857   1.742   4.324  1.2472 -0.5945 -0.1013
    6SAPS  H18Y  797   3.961   1.864   4.242 -0.1197 -0.8283  1.2092
    6SAPS  H18Z  798   3.842   1.774   4.151 -0.7078 -0.6615 -0.3761
    7SAPS     N  799   5.095   3.424   6.920 -0.0212  0.1748  0.4079
    7SAPS   HN1  800   5.142   3.401   7.010  1.8888 -1.7507 -0.9713
    7SAPS   HN2  801   4.999   3.458   6.941  0.3268  1.2149  0.3314
    7SAPS   HN3  802   5.095   3.338   6.860 -1.2522 -0.7599  1.6702
    7SAPS   C12  803   5.168   3.529   6.850 -1.0824  0.6658  0.3679
    7SAPS  H12A  804   5.114   3.540   6.757 -2.8312  0.5250  1.3405
    7SAPS   C13  805   5.172   3.668   6.918 -0.1083  0.6751 -0.2069
    7SAPS  O13A  806   5.079   3.703   6.995  0.4035 -0.2750  0.5823
    7SAPS  O13B  807   5.235   3.758   6.860  0.3168 -0.3876 -0.4511
    7SAPS   C11  808   5.318   3.483   6.816  0.6272 -0.0344 -0.2912
    7SAPS  H11A  809   5.377   3.476   6.910  1.2117 -3.5980 -0.7807
    7SAPS  H11B  810   5.373   3.552   6.749 -1.1944 -0.3085 -2.1945
    7SAPS     P  811   5.432   3.296   6.671  0.1757 -0.1486  0.0459
    7SAPS   O13  812   5.562   3.353   6.714  0.1756 -0.1064 -0.0927
    7SAPS   O14  813   5.426   3.151   6.655  0.7718 -1.3852 -0.5400
    7SAPS   O12  814   5.318   3.349   6.763  0.2192  0.8222 -0.3575
    7SAPS   O11  815   5.391   3.352   6.528  0.0551  1.2798 -0.4416
    7SAPS    C1  816   5.269   3.316   6.467  0.5331  0.2744 -0.2469
    7SAPS    HA  817   5.282   3.217   6.418 -2.3030 -0.4622  0.2580
    7SAPS    HB  818   5.196   3.293   6.548  1.3676 -0.0909  0.4197
    7SAPS    C2  819   5.225   3.418   6.374 -0.2094 -0.1703  0.3262
    7SAPS    HS  820   5.139   3.375   6.318 -1.1160  2.1852 -0.1779
    7SAPS   O21  821   5.337   3.458   6.285  1.1214 -0.0368  0.0872
    7SAPS   C21  822   5.361   3.376   6.188 -0.2707  0.1225  0.0564
    7SAPS   O22  823   5.291   3.284   6.155 -0.2602 -0.3416  0.2530
    7SAPS   C22  824   5.496   3.414   6.131  0.7508  0.0996 -0.6791
    7SAPS   H2R  825   5.507   3.522   6.155  0.1224 -0.0851  0.5536
    7SAPS   H2S  826   5.574   3.356   6.184  1.4886 -0.6651 -2.5432
    7SAPS    C3  827   5.172   3.546   6.437 -0.9146  0.1047 -1.0634
    7SAPS    HX  828   5.246   3.571   6.516 -0.2109  2.1360 -2.2635
    7SAPS    HY  829   5.084   3.521   6.499  0.7388 -2.2911  0.4630
    7SAPS   O31  830   5.158   3.663   6.354  0.3272  0.0950  0.4030
    7SAPS   C31  831   5.046   3.669   6.285 -0.1781 -0.3418  0.0527
    7SAPS   O32  832   4.965   3.581   6.269  0.4357 -0.1993 -0.3723
    7SAPS   C32  833   5.032   3.810   6.216  0.0871 -0.3633 -0.6567
    7SAPS   H2X  834   5.127   3.868   6.220 -0.7930  1.5649 -3.8735
    7SAPS   H2Y  835   4.956   3.866   6.274  0.8006 -0.6340  0.5708
    7SAPS   C23  836   5.506   3.375   5.984  0.6693 -0.6001  0.7198
    7SAPS   H3R  837   5.476   3.271   5.958  1.9858 -0.9111  0.4092
    7SAPS   H3S  838   5.607   3.396   5.943  1.0258 -1.4187  1.1605
    7SAPS   C24  839   5.408   3.456   5.886 -0.3092 -0.3072 -0.1611
    7SAPS   H4R  840   5.304   3.434   5.917  0.5172 -1.7448  1.8266
    7SAPS   H4S  841   5.427   3.417   5.784  1.4664  0.5131 -0.1810
    7SAPS   C25  842   5.435   3.607   5.881 -0.2614 -0.0961 -0.2320
    7SAPS   H5R  843   5.417   3.672   5.967  2.4122 -1.6137  1.6402
    7SAPS   C26  844   5.465   3.675   5.772 -0.6116 -0.2602 -0.0545
    7SAPS   H6R  845   5.472   3.785   5.768  2.1199 -0.2719  2.0927
    7SAPS   C27  846   5.504   3.620   5.633 -0.4886  0.3934  0.2844
    7SAPS   H7R  847   5.556   3.522   5.641 -2.2218 -0.6042 -0.1865
    7SAPS   H7S  848   5.576   3.693   5.590 -1.0116  0.4048 -0.5999
    7SAPS   C28  849   5.394   3.569   5.536  0.2215  0.2980  0.0878
    7SAPS   H8R  850   5.293   3.571   5.579  0.2745  3.4905  0.3176
    7SAPS   C29  851   5.417   3.535   5.408 -0.3694  0.6854 -0.2336
    7SAPS   H9R  852   5.323   3.512   5.358 -2.1698 -3.4105  4.1888
    7SAPS  C210  853   5.544   3.535   5.335  0.0436  0.3825 -0.7238
    7SAPS  H10R  854   5.622   3.501   5.406  0.7075 -0.8175 -1.9952
    7SAPS  H10S  855   5.568   3.637   5.299  0.8207 -0.1268 -1.6819
    7SAPS  C211  856   5.568   3.435   5.224 -0.1661 -0.4543 -0.9029
    7SAPS  H11R  857   5.633   3.352   5.254  1.9811  0.1402 -3.4909
    7SAPS  C212  858   5.547   3.457   5.089  0.5887  0.1396 -0.3408
    7SAPS  H12R  859   5.569   3.375   5.019  0.8098  1.6361 -2.1085
    7SAPS  C213  860   5.483   3.586   5.047 -0.5756 -0.6114  0.3323
    7SAPS  H13R  861   5.550   3.669   5.078 -0.2720 -0.4767 -0.6311
    7SAPS  H13S  862   5.391   3.602   5.107 -0.7301 -2.5936  0.7088
    7SAPS  C214  863   5.456   3.591   4.895 -0.6723  0.6004  0.3622
    7SAPS  H14R  864   5.537   3.552   4.831  0.4080  1.7746  0.9861
    7SAPS  C215  865   5.344   3.624   4.835 -0.3936  0.1738  0.4806
    7SAPS  H15R  866   5.344   3.629   4.725  0.3128 -2.0768  0.3182
    7SAPS  C216  867   5.216   3.663   4.906 -0.5941  0.4555 -0.3517
    7SAPS  H16R  868   5.215   3.774   4.916 -0.9170  0.3030  1.7968
    7SAPS  H16S  869   5.220   3.628   5.012  2.4146 -0.0417 -0.5279
    7SAPS  C217  870   5.090   3.617   4.838  0.7645  0.2234  0.0268
    7SAPS  H17R  871   5.007   3.651   4.904  0.3024  0.2616 -0.5531
    7SAPS  H17S  872   5.086   3.506   4.839  1.7407  0.1846  0.2394
    7SAPS  C218  873   5.058   3.676   4.702  0.5093 -0.6703  0.6907
    7SAPS  H18R  874   5.142   3.656   4.632  0.4080  2.2507 -0.4144
    7SAPS  H18S  875   5.044   3.785   4.717  0.2105 -0.9492  2.6978
    7SAPS  C219  876   4.933   3.620   4.633  0.3952 -0.7861 -0.2394
    7SAPS  H19R  877   4.935   3.666   4.532  1.9132 -1.3058 -0.4794
    7SAPS  H19S  878   4.839   3.631   4.691  1.2318  0.9635  0.8635
    7SAPS  C220  879   4.946   3.472   4.605  0.3314  0.8813 -0.2176
    7SAPS  H20R  880   5.046   3.445   4.566 -0.6816 -0.9117 -1.7235
    7SAPS  H20S  881   4.859   3.436   4.547  0.7123  0.0990 -0.3140
    7SAPS  H20T  882   4.921   3.420   4.700  0.0428  0.3528 -0.5784
    7SAPS   C33  883   4.977   3.800   6.073 -0.3615  0.7550  0.5207
    7SAPS   H3X  884   4.939   3.899   6.039 -0.8194  1.0462  1.8308
    7SAPS   H3Y  885   4.897   3.723   6.068 -0.7372  1.0153  2.0695
    7SAPS   C34  886   5.090   3.756   5.972 -0.4154 -0.2828  0.1183
    7SAPS   H4X  887   5.126   3.662   6.018  0.8034  0.7922  1.4608
    7SAPS   H4Y  888   5.179   3.822   5.970  0.1223 -1.0037 -0.2421
    7SAPS   C35  889   5.037   3.752   5.826  0.1794 -0.1784  0.2629
    7SAPS   H5X  890   5.113   3.793   5.756 -0.8201  1.8014  0.2623
    7SAPS   H5Y  891   4.943   3.810   5.831 -0.3094 -0.9063 -0.2783
    7SAPS   C36  892   5.000   3.605   5.791 -0.4596 -0.8296  0.3948
    7SAPS   H6X  893   4.914   3.572   5.853 -1.5188 -0.1067 -0.6361
    7SAPS   H6Y  894   5.088   3.540   5.809  0.6295  0.7535  1.0194
    7SAPS   C37  895   4.956   3.591   5.648 -0.0209 -0.2327  0.3864
    7SAPS   H7X  896   4.945   3.481   5.631  3.0141 -0.4726 -0.5739
    7SAPS   H7Y  897   5.027   3.629   5.573 -2.6555  1.7026 -1.2935
    7SAPS   C38  898   4.825   3.668   5.622 -0.4602 -1.0780 -0.4575
    7SAPS   H8X  899   4.854   3.772   5.647  0.2598 -1.1179 -1.0744
    7SAPS   H8Y  900   4.744   3.634   5.690  0.6627  0.7319  1.9349
    7SAPS   C39  901   4.774   3.651   5.476  0.1402 -0.0524 -0.8685
    7SAPS   H9X  902   4.775   3.541   5.464  2.2622 -0.3826  1.5436
    7SAPS   H9Y  903   4.853   3.691   5.409  1.3333  0.7073  0.9096
    7SAPS  C310  904   4.645   3.722   5.426  0.7391 -0.2338  0.0358
    7SAPS  H10X  905   4.667   3.827   5.456 -0.9530 -0.0557  0.7283
    7SAPS  H10Y  906   4.561   3.704   5.496  0.3885  1.3570  0.0665
    7SAPS  C311  907   4.603   3.706   5.279  0.2446  0.5811 -0.4554
    7SAPS  H11X  908   4.505   3.758   5.267  1.0424  2.4234  0.5887
    7SAPS  H11Y  909   4.593   3.599   5.252  0.2477  0.5684 -0.4052
    7SAPS  C312  910   4.695   3.751   5.170 -0.0650  0.1546  0.1021
    7SAPS  H12X  911   4.789   3.691   5.173  0.0790  0.3825  0.2405
    7SAPS  H12Y  912   4.740   3.848   5.199 -1.9324  0.2581  3.0169
    7SAPS  C313  913   4.643   3.768   5.026 -0.5271 -0.1079  0.1439
    7SAPS  H13X  914   4.724   3.808   4.962  1.3548 -0.4934  2.1422
    7SAPS  H13Y  915   4.556   3.836   5.034 -0.0619  0.3779  1.4127
    7SAPS  C314  916   4.558   3.649   4.968 -0.3021  0.0704 -0.5594
    7SAPS  H14X  917   4.496   3.604   5.048 -0.3117 -1.0237 -1.1576
    7SAPS  H14Y  918   4.634   3.570   4.950  0.0080 -0.0361  1.0778
    7SAPS  C315  919   4.471   3.697   4.850 -0.6474 -0.0225 -0.2466
    7SAPS  H15X  920   4.429   3.799   4.863 -1.9715  0.0191 -3.7469
    7SAPS  H15Y  921   4.389   3.622   4.844  0.9342 -1.8807  0.3219
    7SAPS  C316  922   4.558   3.701   4.729 -0.0536 -1.0331  0.6133
    7SAPS  H16X  923   4.619   3.609   4.722  1.8980  0.3053 -1.8530
    7SAPS  H16Y  924   4.631   3.784   4.746 -2.1861  0.9680  0.4619
    7SAPS  C317  925   4.500   3.745   4.598 -0.5618 -0.0611  0.0611
    7SAPS  H17X  926   4.456   3.846   4.594 -0.2000  0.0740 -0.8144
    7SAPS  H17Y  927   4.413   3.678   4.581  0.0120 -1.3971  2.0654
    7SAPS  C318  928   4.601   3.732   4.475 -0.1418  0.2886 -0.1785
    7SAPS  H18X  929   4.549   3.776   4.387 -3.1674 -1.4573  0.5882
    7SAPS  H18Y  930   4.637   3.630   4.453 -0.9269 -0.2653  1.0407
    7SAPS  H18Z  931   4.695   3.787   4.496  0.1215 -0.1920 -0.0942
    8SAPS     N  932   4.723   5.711   6.752 -0.3500 -0.4269  0.2556
    8SAPS   HN1  933   4.785   5.702   6.669 -0.8935 -0.4399 -0.1575
    8SAPS   HN2  934   4.638   5.750   6.706  0.2456  1.2273  0.4862
    8SAPS   HN3  935   4.771   5.780   6.813  1.8292 -2.1368  0.5961
    8SAPS   C12  936   4.707   5.564   6.800 -0.2991 -0.2839 -0.4876
    8SAPS  H12A  937   4.803   5.536   6.839 -0.2953 -0.1243 -0.3814
    8SAPS   C13  938   4.595   5.559   6.907  0.5115  0.5252 -0.1004
    8SAPS  O13A  939   4.542   5.667   6.950 -0.2019 -0.5852  0.0521
    8SAPS  O13B  940   4.595   5.459   6.985 -0.2170 -0.4255  0.3680
    8SAPS   C11  941   4.676   5.473   6.684  0.9064 -0.0326 -0.3530
    8SAPS  H11A  942   4.574   5.490   6.645 -0.4685 -3.0060  1.5595
    8SAPS  H11B  943   4.672   5.368   6.722  0.3533 -0.2102 -0.8963
    8SAPS     P  944   4.850   5.374   6.517 -0.3791  0.1141  0.1672
    8SAPS   O13  945   4.881   5.288   6.630 -0.3538  0.5125  0.7649
    8SAPS   O14  946   4.773   5.313   6.409  0.1848  0.1975 -0.1856
    8SAPS   O12  947   4.770   5.496   6.578  0.2864 -0.5361 -0.6748
    8SAPS   O11  948   4.982   5.424   6.454  0.1157  0.3046 -0.5797
    8SAPS    C1  949   4.987   5.556   6.406  0.0845 -0.1882 -0.1434
    8SAPS    HA  950   4.955   5.639   6.473 -1.2083  0.0161 -0.9727
    8SAPS    HB  951   5.097   5.575   6.398  0.5312 -2.6699 -0.5104
    8SAPS    C2  952   4.913   5.588   6.270 -0.1159  0.0376  0.5577
    8SAPS    HS  953   4.813   5.626   6.299  0.7728  2.2366  0.9717
    8SAPS   O21  954   4.912   5.468   6.187  0.6207 -0.1591 -0.0062
    8SAPS   C21  955   4.799   5.454   6.126  0.8690  0.7773  0.3024
    8SAPS   O22  956   4.696   5.524   6.132 -1.0336  0.5592 -0.0597
    8SAPS   C22  957   4.796   5.325   6.037 -0.8893  0.3573  0.0942
    8SAPS   H2R  958   4.904   5.312   6.014 -0.4503 -1.1680  2.6068
    8SAPS   H2S  959   4.759   5.235   6.091 -1.6182 -0.1635 -1.2460
    8SAPS    C3  960   4.977   5.710   6.193 -0.6297 -0.5431  0.0708
    8SAPS    HX  961   5.083   5.685   6.169 -0.4103 -2.4505  2.5573
    8SAPS    HY  962   4.987   5.789   6.271  1.6660  1.2017 -1.8277
    8SAPS   O31  963   4.911   5.755   6.072 -0.6166  0.8090 -0.5707
    8SAPS   C31  964   4.798   5.823   6.094 -0.3372  0.4830  1.0397
    8SAPS   O32  965   4.760   5.858   6.200  0.2697  0.3181  0.3234
    8SAPS   C32  966   4.713   5.851   5.966 -0.0397  0.3057  0.4804
    8SAPS   H2X  967   4.667   5.952   5.971 -2.9715 -0.8076 -0.9995
    8SAPS   H2Y  968   4.636   5.771   5.971 -1.0967  1.3210  0.8733
    8SAPS   C23  969   4.721   5.337   5.901 -0.5176 -0.0351  0.1005
    8SAPS   H3R  970   4.616   5.360   5.929 -0.8066 -0.9435 -0.2165
    8SAPS   H3S  971   4.719   5.240   5.848  0.1574  0.7194 -1.3612
    8SAPS   C24  972   4.773   5.445   5.802 -0.0326  0.2776  0.1294
    8SAPS   H4R  973   4.747   5.547   5.839 -0.0898  1.2624 -2.4383
    8SAPS   H4S  974   4.726   5.436   5.702  0.0553  3.5292 -0.3355
    8SAPS   C25  975   4.927   5.456   5.795  0.6116 -0.4575  0.2228
    8SAPS   H5R  976   4.981   5.518   5.868  1.4846  0.7789 -1.4044
    8SAPS   C26  977   4.989   5.390   5.698 -0.4062  0.1735  0.5557
    8SAPS   H6R  978   5.099   5.391   5.697 -0.3845  1.5383 -1.4928
    8SAPS   C27  979   4.931   5.316   5.586 -0.2707  0.2641  0.1895
    8SAPS   H7R  980   5.002   5.315   5.501 -0.8038 -0.2125 -0.2557
    8SAPS   H7S  981   4.841   5.362   5.539 -0.0400 -2.0649 -2.8108
    8SAPS   C28  982   4.892   5.171   5.622  0.0732 -0.5966  0.5677
    8SAPS   H8R  983   4.890   5.147   5.729 -1.9633 -1.4343  0.3890
    8SAPS   C29  984   4.846   5.079   5.531  0.3972 -0.2159  0.3467
    8SAPS   H9R  985   4.814   4.978   5.560  0.3130 -0.6813 -1.3012
    8SAPS  C210  986   4.824   5.091   5.385 -0.0092  0.0007  0.9562
    8SAPS  H10R  987   4.830   5.198   5.356  0.2779 -0.5407 -1.1782
    8SAPS  H10S  988   4.726   5.054   5.349  0.4627 -1.7341  1.3563
    8SAPS  C211  989   4.924   5.009   5.307  0.1193  0.0190  0.2620
    8SAPS  H11R  990   4.904   4.903   5.328 -1.0113  0.6965  3.1264
    8SAPS  C212  991   5.029   5.049   5.230 -0.7473 -0.1946  0.3369
    8SAPS  H12R  992   5.095   4.966   5.201  0.0683  0.4717  0.2359
    8SAPS  C213  993   5.070   5.189   5.198 -0.4939  0.3911  0.0838
    8SAPS  H13R  994   5.016   5.264   5.259 -0.4649 -0.1437  0.7881
    8SAPS  H13S  995   5.040   5.218   5.096  0.3387  0.6569 -0.0940
    8SAPS  C214  996   5.218   5.206   5.238 -0.0876 -0.4526  0.2488
    8SAPS  H14R  997   5.241   5.230   5.343  2.5064  0.4072 -0.4473
    8SAPS  C215  998   5.320   5.204   5.146  0.7478 -0.7874 -0.2132
    8SAPS  H15R  999   5.422   5.229   5.179  2.2298 -0.7539 -4.2074
    8SAPS  C216 1000   5.300   5.184   4.998 -0.9032 -0.0574 -0.3431
    8SAPS  H16R 1001   5.374   5.246   4.943 -1.3716  2.5534  1.7722
    8SAPS  H16S 1002   5.194   5.214   4.982 -1.4624 -1.4069  0.6813
    8SAPS  C217 1003   5.304   5.027   4.960 -0.6390 -1.0391  0.5746
    8SAPS  H17R 1004   5.221   4.968   5.006 -0.8369 -1.0778  0.1725
    8SAPS  H17S 1005   5.403   4.989   4.993 -0.6089  0.1628  1.9342
    8SAPS  C218 1006   5.303   5.023   4.806 -0.6408  0.6267 -0.1402
    8SAPS  H18R 1007   5.327   4.917   4.785 -1.0132  0.0939  1.8667
    8SAPS  H18S 1008   5.384   5.087   4.766 -0.0277  0.6224  1.0438
    8SAPS  C219 1009   5.168   5.056   4.743 -0.0278  0.2680 -0.2452
    8SAPS  H19R 1010   5.156   5.162   4.773 -0.2796  1.0183 -2.7700
    8SAPS  H19S 1011   5.101   4.987   4.799 -0.7652 -1.1987 -2.7518
    8SAPS  C220 1012   5.167   5.026   4.591  0.2118 -0.3583 -0.8749
    8SAPS  H20R 1013   5.075   5.062   4.540  0.2868 -0.1380 -0.8520
    8SAPS  H20S 1014   5.191   4.920   4.563 -0.0044 -0.7869  0.4971
    8SAPS  H20T 1015   5.236   5.097   4.540  0.0748 -0.9301 -1.9009
    8SAPS   C33 1016   4.797   5.841   5.834 -0.2897  0.4254  0.0554
    8SAPS   H3X 1017   4.835   5.737   5.820  0.6290  0.4247  2.1694
    8SAPS   H3Y 1018   4.878   5.916   5.830 -3.0116  3.6338 -4.7580
    8SAPS   C34 1019   4.713   5.883   5.715  0.1802 -0.1247  0.0716
    8SAPS   H4X 1020   4.692   5.991   5.730 -0.1278  0.0554 -1.4372
    8SAPS   H4Y 1021   4.616   5.831   5.726 -1.2899  2.6861  1.6042
    8SAPS   C35 1022   4.781   5.860   5.581 -0.2073 -0.4957 -0.8195
    8SAPS   H5X 1023   4.880   5.907   5.600  0.3340 -2.8168  3.4005
    8SAPS   H5Y 1024   4.717   5.921   5.513 -0.5556  0.4638  0.3293
    8SAPS   C36 1025   4.817   5.716   5.539  0.4666  0.6627 -0.2765
    8SAPS   H6X 1026   4.732   5.655   5.576  0.5410  0.0373 -1.1024
    8SAPS   H6Y 1027   4.917   5.690   5.582  0.8504  1.0560 -0.9168
    8SAPS   C37 1028   4.830   5.719   5.386  0.6714 -0.0000  0.5283
    8SAPS   H7X 1029   4.901   5.796   5.349 -0.4273  0.5128 -0.5655
    8SAPS   H7Y 1030   4.733   5.757   5.349  1.2153 -0.6046 -1.6685
    8SAPS   C38 1031   4.859   5.588   5.312  0.2853  0.7275  0.5718
    8SAPS   H8X 1032   4.799   5.506   5.355 -1.5598  0.9523 -1.4096
    8SAPS   H8Y 1033   4.964   5.552   5.317 -0.0636 -1.2062 -2.7989
    8SAPS   C39 1034   4.823   5.596   5.164 -0.0185 -0.1100 -0.5762
    8SAPS   H9X 1035   4.899   5.656   5.109 -0.3027  2.6672  1.8178
    8SAPS   H9Y 1036   4.731   5.651   5.135 -0.9745 -0.0772  2.2094
    8SAPS  C310 1037   4.828   5.459   5.106  0.0518 -0.1128  0.0300
    8SAPS  H10X 1038   4.762   5.386   5.159  0.1174  0.7762  1.3760
    8SAPS  H10Y 1039   4.932   5.426   5.128  0.5199  0.5596 -1.0974
    8SAPS  C311 1040   4.786   5.434   4.962  0.0279  0.0661  0.3525
    8SAPS  H11X 1041   4.850   5.487   4.888 -0.9841 -0.6113 -1.0524
    8SAPS  H11Y 1042   4.684   5.478   4.958 -0.4646 -1.0112  0.7166
    8SAPS  C312 1043   4.785   5.289   4.919 -0.0631  0.1854 -0.2789
    8SAPS  H12X 1044   4.888   5.252   4.902 -0.2270  0.6760 -2.8028
    8SAPS  H12Y 1045   4.752   5.281   4.813  1.1207  0.4856 -0.6814
    8SAPS  C313 1046   4.707   5.186   5.000 -0.3334 -0.3398 -0.5413
    8SAPS  H13X 1047   4.602   5.222   4.997 -0.0719  0.4857 -0.1626
    8SAPS  H13Y 1048   4.739   5.194   5.106  0.0653 -1.2509 -0.5881
    8SAPS  C314 1049   4.738   5.032   4.980  0.6292 -0.2883 -0.1727
    8SAPS  H14X 1050   4.667   4.973   5.043 -0.5138 -0.4035 -1.5013
    8SAPS  H14Y 1051   4.842   5.015   5.015  0.7088 -1.6778 -1.0180
    8SAPS  C315 1052   4.745   4.984   4.836 -0.3129  0.7389  0.6266
    8SAPS  H15X 1053   4.849   4.992   4.797 -0.7330  3.0309 -0.1532
    8SAPS  H15Y 1054   4.671   5.048   4.784 -1.4703 -1.1749 -0.2234
    8SAPS  C316 1055   4.689   4.846   4.801 -0.2681 -0.6175 -0.0965
    8SAPS  H16X 1056   4.684   4.841   4.690  0.0264  2.4628 -0.3436
    8SAPS  H16Y 1057   4.581   4.835   4.827 -0.8097 -1.1231 -2.3595
    8SAPS  C317 1058   4.765   4.731   4.862 -0.5045  0.1545  0.7118
    8SAPS  H17X 1059   4.695   4.647   4.840 -1.1213  1.0340 -0.7622
    8SAPS  H17Y 1060   4.765   4.736   4.973 -0.4495 -2.4338  0.8919
    8SAPS  C318 1061   4.908   4.697   4.815 -0.6268 -1.3195  0.4236
    8SAPS  H18X 1062   4.984   4.748   4.877 -0.3175  0.9528 -1.6573
    8SAPS  H18Y 1063   4.927   4.745   4.716  0.6503  1.1021  1.7686
    8SAPS  H18Z 1064   4.930   4.588   4.808 -0.1007 -1.2911  1.4882
    9SAPS     N 1065   3.270   4.482   7.085 -0.0945  0.0156 -0.2959
    9SAPS   HN1 1066   3.348   4.545   7.113  0.9292  0.1197 -3.0200
    9SAPS   HN2 1067   3.211   4.542   7.024  0.9816  4.4343  2.5188
    9SAPS   HN3 1068   3.216   4.440   7.163  1.3987  0.6577  1.1496
    9SAPS   C12 1069   3.329   4.370   7.010 -0.6893  0.1261 -0.0324
    9SAPS  H12A 1070   3.389   4.314   7.080 -1.1400 -2.0744 -1.3377
    9SAPS   C13 1071   3.227   4.276   6.941  0.5189  0.0958 -0.1058
    9SAPS  O13A 1072   3.102   4.285   6.959  1.4758 -0.4692  0.3380
    9SAPS  O13B 1073   3.277   4.187   6.871  0.3331  1.1935 -0.3568
    9SAPS   C11 1074   3.409   4.426   6.894 -0.1464 -0.7193  0.2412
    9SAPS  H11A 1075   3.344   4.483   6.825  0.6335  1.0638  0.8823
    9SAPS  H11B 1076   3.451   4.349   6.826 -0.6917  1.8537 -3.2697
    9SAPS     P 1077   3.666   4.512   6.892  0.3147 -0.1447  0.0653
    9SAPS   O13 1078   3.715   4.649   6.914 -0.2769 -0.0015  0.0205
    9SAPS   O14 1079   3.740   4.402   6.957  0.0794 -0.4163  0.5092
    9SAPS   O12 1080   3.514   4.514   6.940  0.0472 -0.5537  0.3621
    9SAPS   O11 1081   3.660   4.479   6.736  0.4389 -0.8252 -0.0602
    9SAPS    C1 1082   3.585   4.570   6.655 -0.1271 -0.2423 -0.0955
    9SAPS    HA 1083   3.478   4.545   6.643 -0.3550 -0.4108  1.9927
    9SAPS    HB 1084   3.573   4.674   6.692 -2.7064  0.9536 -3.6792
    9SAPS    C2 1085   3.662   4.598   6.514  0.7522 -0.7684 -0.2185
    9SAPS    HS 1086   3.598   4.670   6.458  1.6824  0.5504  0.3551
    9SAPS   O21 1087   3.684   4.485   6.430 -0.1126 -0.3057  0.3005
    9SAPS   C21 1088   3.577   4.447   6.378  0.1548 -0.0029  0.5275
    9SAPS   O22 1089   3.466   4.502   6.373  0.3286 -0.0319 -0.2425
    9SAPS   C22 1090   3.585   4.302   6.329  0.7327 -0.0385  0.3049
    9SAPS   H2R 1091   3.585   4.241   6.422  2.3514 -0.4146  0.0996
    9SAPS   H2S 1092   3.494   4.277   6.271  0.5332 -0.3263  0.7366
    9SAPS    C3 1093   3.794   4.680   6.548 -0.0855 -0.3981  0.4295
    9SAPS    HX 1094   3.853   4.612   6.614 -1.0362  0.2826  2.0382
    9SAPS    HY 1095   3.774   4.771   6.608 -0.3509 -0.0767 -0.1361
    9SAPS   O31 1096   3.856   4.718   6.425  0.4734  0.3164  0.2850
    9SAPS   C31 1097   3.968   4.651   6.395  0.1736  0.1103 -0.8033
    9SAPS   O32 1098   4.010   4.556   6.463 -0.3530  0.3244  0.0794
    9SAPS   C32 1099   4.034   4.707   6.278  0.0109 -0.0603  0.1680
    9SAPS   H2X 1100   4.054   4.814   6.301 -0.7966 -0.1147  1.2313
    9SAPS   H2Y 1101   3.956   4.709   6.199  0.1428  0.4066  0.0490
    9SAPS   C23 1102   3.715   4.287   6.248 -0.2146 -0.4254  0.7823
    9SAPS   H3R 1103   3.720   4.178   6.230  1.0929  0.0842 -2.6236
    9SAPS   H3S 1104   3.803   4.308   6.312  0.9615  0.4437 -1.0426
    9SAPS   C24 1105   3.730   4.376   6.122 -0.1440 -0.4254 -0.2587
    9SAPS   H4R 1106   3.838   4.386   6.096 -0.1084 -0.9335 -0.3134
    9SAPS   H4S 1107   3.695   4.477   6.150 -0.7993 -0.1379 -1.9585
    9SAPS   C25 1108   3.637   4.321   6.012 -0.0272  0.1827  0.4528
    9SAPS   H5R 1109   3.529   4.335   6.030 -0.1437  0.4351 -0.3616
    9SAPS   C26 1110   3.674   4.256   5.904 -0.1936 -0.1758  0.3237
    9SAPS   H6R 1111   3.590   4.232   5.837 -2.0324 -0.5197  2.6144
    9SAPS   C27 1112   3.815   4.225   5.860  0.0327  1.1257  0.0088
    9SAPS   H7R 1113   3.879   4.247   5.948  0.7725  1.0654 -0.5060
    9SAPS   H7S 1114   3.841   4.286   5.771  2.1026 -1.7866 -1.5341
    9SAPS   C28 1115   3.841   4.079   5.817 -1.1999  0.5352 -0.5257
    9SAPS   H8R 1116   3.851   4.007   5.899  0.9678 -0.1084 -1.2803
    9SAPS   C29 1117   3.853   4.042   5.682 -0.0240 -0.3029  1.1617
    9SAPS   H9R 1118   3.864   3.935   5.658 -0.5166  0.0555 -0.8839
    9SAPS  C210 1119   3.850   4.133   5.560  0.1290  0.3968  0.2485
    9SAPS  H10R 1120   3.785   4.220   5.581  0.4425  1.1414 -1.7024
    9SAPS  H10S 1121   3.782   4.088   5.485 -0.8915 -0.2504  1.5125
    9SAPS  C211 1122   3.987   4.177   5.506 -0.4240  0.0869  0.4497
    9SAPS  H11R 1123   4.054   4.222   5.580 -0.7808  2.3200 -0.5251
    9SAPS  C212 1124   4.029   4.181   5.376 -0.3635 -0.7455 -0.2210
    9SAPS  H12R 1125   4.130   4.221   5.359 -0.3403 -0.8613 -0.3552
    9SAPS  C213 1126   3.954   4.135   5.256  0.0424 -0.4527  0.5814
    9SAPS  H13R 1127   3.860   4.083   5.284 -1.2273  1.2036 -0.4062
    9SAPS  H13S 1128   4.011   4.069   5.188  0.1647  1.1519 -0.9507
    9SAPS  C214 1129   3.921   4.257   5.166 -0.7504 -0.6738 -0.6898
    9SAPS  H14R 1130   3.828   4.306   5.197  0.8178  0.4295  2.7832
    9SAPS  C215 1131   3.989   4.294   5.057  1.0148  0.6193  0.2598
    9SAPS  H15R 1132   3.959   4.387   5.008 -2.0598  0.6906  2.0188
    9SAPS  C216 1133   4.111   4.228   5.000 -1.2297  0.2713 -0.3953
    9SAPS  H16R 1134   4.185   4.202   5.078 -2.1241  0.6258  0.5998
    9SAPS  H16S 1135   4.171   4.298   4.938  1.7593 -0.8846  1.0314
    9SAPS  C217 1136   4.079   4.113   4.918  0.2378  0.0973  0.7071
    9SAPS  H17R 1137   4.019   4.154   4.834  0.2669 -0.5178  0.3838
    9SAPS  H17S 1138   4.018   4.033   4.966 -1.3505  0.5999 -0.4048
    9SAPS  C218 1139   4.202   4.045   4.858 -0.7434  0.0481 -0.5435
    9SAPS  H18R 1140   4.267   4.015   4.943 -1.2505 -3.2789 -1.1966
    9SAPS  H18S 1141   4.251   4.129   4.804 -0.7707  0.8028  0.5649
    9SAPS  C219 1142   4.169   3.928   4.770 -0.3793 -0.0263  0.3441
    9SAPS  H19R 1143   4.101   3.856   4.821 -0.8455 -0.5717 -1.0050
    9SAPS  H19S 1144   4.263   3.876   4.745  0.6817  2.5324 -1.4361
    9SAPS  C220 1145   4.107   3.981   4.645 -0.2052  0.7917 -0.0988
    9SAPS  H20R 1146   4.164   4.067   4.604  3.1948 -1.1835  0.1351
    9SAPS  H20S 1147   3.999   4.008   4.649 -0.5646 -0.5686 -0.2137
    9SAPS  H20T 1148   4.111   3.899   4.571 -0.5677 -0.8749  1.6528
    9SAPS   C33 1149   4.156   4.634   6.234 -0.7033 -0.2617 -0.1856
    9SAPS   H3X 1150   4.174   4.645   6.125  1.1155  0.0893  0.1141
    9SAPS   H3Y 1151   4.153   4.524   6.247  0.2522  0.0398  4.0649
    9SAPS   C34 1152   4.283   4.681   6.315  0.0742 -0.1649 -0.2933
    9SAPS   H4X 1153   4.274   4.641   6.418  1.7817 -0.1480 -0.0932
    9SAPS   H4Y 1154   4.287   4.789   6.341 -1.3376 -0.7918  3.0285
    9SAPS   C35 1155   4.410   4.631   6.255  0.5573  0.0212 -0.2823
    9SAPS   H5X 1156   4.398   4.529   6.214  1.3424  0.1830 -0.9515
    9SAPS   H5Y 1157   4.484   4.626   6.338 -2.5806 -1.1119  2.7033
    9SAPS   C36 1158   4.470   4.725   6.148 -0.5701  0.3700 -0.8864
    9SAPS   H6X 1159   4.574   4.744   6.180 -0.5621  1.2066 -1.3669
    9SAPS   H6Y 1160   4.419   4.824   6.147  0.0163  0.6999  0.3696
    9SAPS   C37 1161   4.467   4.670   6.001 -0.4155 -0.6837  0.7291
    9SAPS   H7X 1162   4.369   4.638   5.961 -2.0381  3.2015  1.1944
    9SAPS   H7Y 1163   4.540   4.588   5.982  1.5746  1.1978 -0.1068
    9SAPS   C38 1164   4.505   4.790   5.905 -0.5120  0.3873 -1.1266
    9SAPS   H8X 1165   4.605   4.824   5.937  0.2861 -2.1499 -0.6633
    9SAPS   H8Y 1166   4.442   4.879   5.930 -0.3218  0.2790 -0.2094
    9SAPS   C39 1167   4.499   4.765   5.753 -0.3087 -0.5356 -0.7981
    9SAPS   H9X 1168   4.395   4.734   5.730 -0.1099 -0.3657 -1.9913
    9SAPS   H9Y 1169   4.566   4.683   5.720  2.2842  1.7845 -1.7176
    9SAPS  C310 1170   4.538   4.886   5.663  0.1783  0.0992 -0.1393
    9SAPS  H10X 1171   4.640   4.927   5.681  0.1179  1.0796 -1.8065
    9SAPS  H10Y 1172   4.465   4.965   5.691  0.5706  1.0412 -1.6523
    9SAPS  C311 1173   4.521   4.847   5.513  0.5889 -0.5151  0.2959
    9SAPS  H11X 1174   4.524   4.935   5.446  1.4507 -1.1457 -0.5009
    9SAPS  H11Y 1175   4.422   4.797   5.512  2.1295 -3.7835 -1.0269
    9SAPS  C312 1176   4.617   4.750   5.453 -0.2578 -0.1683 -0.6646
    9SAPS  H12X 1177   4.589   4.648   5.487 -0.4191  0.1367  0.1439
    9SAPS  H12Y 1178   4.722   4.766   5.484 -1.0718  0.4578  1.9960
    9SAPS  C313 1179   4.612   4.749   5.302 -0.7698 -0.4578 -0.2710
    9SAPS  H13X 1180   4.660   4.841   5.261 -1.3105 -0.8941 -1.9425
    9SAPS  H13Y 1181   4.507   4.749   5.268 -0.3158  0.0512 -1.7317
    9SAPS  C314 1182   4.688   4.626   5.245  0.3226 -0.6105  0.7222
    9SAPS  H14X 1183   4.655   4.620   5.139 -1.5983  0.4905  1.2111
    9SAPS  H14Y 1184   4.662   4.529   5.293  1.5192 -1.5995 -0.5235
    9SAPS  C315 1185   4.843   4.632   5.243 -0.3602  0.3097  0.9975
    9SAPS  H15X 1186   4.885   4.643   5.346  2.7121  1.1864 -0.2417
    9SAPS  H15Y 1187   4.862   4.726   5.187 -0.5686  0.8021  1.7272
    9SAPS  C316 1188   4.903   4.510   5.166  0.1396 -0.4534  0.2311
    9SAPS  H16X 1189   4.848   4.491   5.071  1.9092  0.2823 -1.0006
    9SAPS  H16Y 1190   4.897   4.417   5.227 -1.0922 -1.7009 -1.6717
    9SAPS  C317 1191   5.043   4.535   5.131 -0.5830 -0.8878  0.3781
    9SAPS  H17X 1192   5.088   4.566   5.228 -1.8507  2.1991  0.1107
    9SAPS  H17Y 1193   5.046   4.615   5.054 -1.3943  0.2496  1.4832
    9SAPS  C318 1194   5.124   4.413   5.083 -0.1462 -0.0536  0.4313
    9SAPS  H18X 1195   5.230   4.429   5.056  0.4939 -2.0516  1.5936
    9SAPS  H18Y 1196   5.062   4.350   5.017 -0.0455 -0.8454  1.0774
    9SAPS  H18Z 1197   5.139   4.354   5.176  1.6224 -1.3894 -0.6614
   10SAPS     N 1198   3.692   3.739   6.723  0.2596  0.3847 -0.9708
   10SAPS   HN1 1199   3.608   3.798   6.709 -0.1472  0.4953  1.5179
   10SAPS   HN2 1200   3.766   3.795   6.770 -1.5549  2.0577  0.0237
   10SAPS   HN3 1201   3.714   3.696   6.630 -0.4843 -1.7172 -0.2364
   10SAPS   C12 1202   3.645   3.633   6.809  0.2576  0.0367 -0.1989
   10SAPS  H12A 1203   3.716   3.552   6.809  1.0210  0.6992 -0.0967
   10SAPS   C13 1204   3.634   3.675   6.957 -1.1426  0.7467 -0.6809
   10SAPS  O13A 1205   3.663   3.792   6.992 -0.6054  0.1195 -0.0093
   10SAPS  O13B 1206   3.615   3.585   7.043  0.1007  0.1818  0.3020
   10SAPS   C11 1207   3.510   3.556   6.757  0.0585 -0.5229  0.0716
   10SAPS  H11A 1208   3.434   3.637   6.759  1.7952  1.2514 -1.4031
   10SAPS  H11B 1209   3.487   3.490   6.843  0.9686  0.2171  0.9082
   10SAPS     P 1210   3.503   3.333   6.607 -0.0345  0.0594  0.3139
   10SAPS   O13 1211   3.466   3.264   6.726 -0.2727  0.0981 -0.3154
   10SAPS   O14 1212   3.394   3.342   6.504  0.2666  0.9967 -0.3077
   10SAPS   O12 1213   3.535   3.485   6.634 -0.5000  0.1009  0.5135
   10SAPS   O11 1214   3.636   3.265   6.552 -0.0251  0.3901 -0.1462
   10SAPS    C1 1215   3.697   3.319   6.431  0.7938 -0.3412 -0.0395
   10SAPS    HA 1216   3.668   3.423   6.404  2.4311 -0.3063 -1.8558
   10SAPS    HB 1217   3.806   3.319   6.449  0.6140  0.9907  1.2300
   10SAPS    C2 1218   3.667   3.226   6.306 -0.0333  0.0323 -0.6458
   10SAPS    HS 1219   3.757   3.234   6.241  1.2731  0.4188  1.1361
   10SAPS   O21 1220   3.547   3.270   6.245 -0.1538  0.2761 -0.1529
   10SAPS   C21 1221   3.547   3.390   6.189 -0.0923  0.1434 -0.2671
   10SAPS   O22 1222   3.647   3.460   6.176 -0.2699  0.8738 -0.1881
   10SAPS   C22 1223   3.401   3.416   6.126 -0.8025  0.1592 -0.0158
   10SAPS   H2R 1224   3.330   3.355   6.185 -0.1499  0.7471  1.4214
   10SAPS   H2S 1225   3.379   3.524   6.143  1.8879  0.8975 -0.7552
   10SAPS    C3 1226   3.641   3.086   6.355 -0.4300 -0.0142 -0.1784
   10SAPS    HX 1227   3.560   3.085   6.431 -0.2540  1.9757  0.0831
   10SAPS    HY 1228   3.735   3.054   6.406 -0.9502  1.1185  1.5481
   10SAPS   O31 1229   3.631   2.992   6.246  0.4444 -0.5917 -0.2174
   10SAPS   C31 1230   3.511   2.935   6.226  0.2655 -0.1080  0.2494
   10SAPS   O32 1231   3.411   2.949   6.297 -0.4656  0.2888 -0.0806
   10SAPS   C32 1232   3.522   2.858   6.097  0.3359 -0.1303  0.7213
   10SAPS   H2X 1233   3.459   2.767   6.111  1.7978 -1.2271  0.4548
   10SAPS   H2Y 1234   3.625   2.818   6.083  0.5930  0.2470  1.4693
   10SAPS   C23 1235   3.387   3.375   5.980 -0.1985  0.0250  0.2596
   10SAPS   H3R 1236   3.400   3.265   5.973 -0.1231 -0.0029  0.7799
   10SAPS   H3S 1237   3.463   3.417   5.911  1.2660 -2.1788  0.4362
   10SAPS   C24 1238   3.237   3.388   5.941 -0.5720  0.5081  0.6280
   10SAPS   H4R 1239   3.204   3.494   5.936  0.2611  0.7652  0.2683
   10SAPS   H4S 1240   3.171   3.335   6.012 -0.5116 -1.7581 -0.9207
   10SAPS   C25 1241   3.213   3.321   5.802 -0.6056 -0.2493 -0.4751
   10SAPS   H5R 1242   3.245   3.216   5.806  1.6795  0.4245  1.3422
   10SAPS   C26 1243   3.186   3.374   5.684  0.2554 -0.1690  0.0630
   10SAPS   H6R 1244   3.174   3.307   5.597 -1.0511 -0.2439  0.2922
   10SAPS   C27 1245   3.161   3.523   5.647  0.6028 -0.1069 -0.1680
   10SAPS   H7R 1246   3.161   3.579   5.743 -0.6032 -1.0389  0.4060
   10SAPS   H7S 1247   3.060   3.531   5.600  0.2575 -3.3384 -0.1927
   10SAPS   C28 1248   3.273   3.566   5.554 -0.3594 -0.0225 -0.4168
   10SAPS   H8R 1249   3.374   3.573   5.598 -0.6746 -3.5839  1.2243
   10SAPS   C29 1250   3.255   3.589   5.421  0.0872 -0.0709  0.1821
   10SAPS   H9R 1251   3.335   3.631   5.359  1.3811 -2.4265  0.1482
   10SAPS  C210 1252   3.128   3.582   5.345  0.3578  0.0603 -0.3757
   10SAPS  H10R 1253   3.060   3.505   5.388 -0.1079  0.3472 -0.6008
   10SAPS  H10S 1254   3.154   3.540   5.246  1.0498  0.2713 -0.2892
   10SAPS  C211 1255   3.052   3.712   5.343  0.2731  0.0775  0.4271
   10SAPS  H11R 1256   3.009   3.739   5.440 -1.6636 -1.5712  0.1117
   10SAPS  C212 1257   3.043   3.799   5.240 -0.4762  0.1741 -0.9987
   10SAPS  H12R 1258   3.002   3.900   5.253  0.1995  0.4601 -1.0636
   10SAPS  C213 1259   3.085   3.760   5.103  0.2722 -0.8018  0.7776
   10SAPS  H13R 1260   2.993   3.757   5.041  1.5849  0.8382 -1.4369
   10SAPS  H13S 1261   3.133   3.660   5.091 -1.0923 -1.4467  0.5300
   10SAPS  C214 1262   3.178   3.863   5.044  0.1663  0.0562 -0.3153
   10SAPS  H14R 1263   3.263   3.883   5.111 -0.1008 -0.6899  0.2702
   10SAPS  C215 1264   3.185   3.906   4.917  0.7069  0.7584 -0.1167
   10SAPS  H15R 1265   3.253   3.989   4.892 -1.5624  2.6875 -0.2302
   10SAPS  C216 1266   3.091   3.861   4.807  0.9062 -1.2650 -0.1729
   10SAPS  H16R 1267   3.002   3.926   4.818  2.1655  0.7215 -1.0958
   10SAPS  H16S 1268   3.071   3.752   4.813 -1.0117 -0.8937  1.4857
   10SAPS  C217 1269   3.148   3.888   4.673 -0.7802 -0.0664 -0.0065
   10SAPS  H17R 1270   3.091   3.836   4.594  1.6204 -1.9891 -0.6132
   10SAPS  H17S 1271   3.250   3.844   4.664 -0.7137  0.4569 -2.4100
   10SAPS  C218 1272   3.170   4.037   4.645 -0.2444  0.2817  0.1802
   10SAPS  H18R 1273   3.259   4.069   4.704 -0.5698  1.4808  0.0594
   10SAPS  H18S 1274   3.077   4.093   4.667 -0.4854  1.0290 -2.4250
   10SAPS  C219 1275   3.217   4.058   4.494  0.8118  0.2128 -0.2009
   10SAPS  H19R 1276   3.153   4.003   4.422 -0.0330 -0.6020  1.1277
   10SAPS  H19S 1277   3.320   4.015   4.492 -0.0183 -1.8816 -0.4453
   10SAPS  C220 1278   3.225   4.205   4.442  0.2008 -0.5965  0.8816
   10SAPS  H20R 1279   3.132   4.266   4.433  0.4498 -0.4559 -1.3392
   10SAPS  H20S 1280   3.279   4.217   4.346 -1.7351 -0.7611 -0.2736
   10SAPS  H20T 1281   3.283   4.263   4.517  2.0987  0.1330 -1.0603
   10SAPS   C33 1282   3.482   2.945   5.979  0.5081 -0.1391 -0.1754
   10SAPS   H3X 1283   3.542   3.038   5.988  1.9772 -1.0058 -0.7023
   10SAPS   H3Y 1284   3.374   2.970   5.982  0.5327  0.0408 -0.6704
   10SAPS   C34 1285   3.517   2.874   5.849 -0.4692 -0.3625  0.0202
   10SAPS   H4X 1286   3.522   2.766   5.875  0.8927 -0.4610 -0.5509
   10SAPS   H4Y 1287   3.619   2.888   5.809 -1.1062 -1.7850 -2.2770
   10SAPS   C35 1288   3.419   2.897   5.736  0.3505  0.4990  0.5425
   10SAPS   H5X 1289   3.310   2.900   5.757 -0.1728  3.9163 -1.9152
   10SAPS   H5Y 1290   3.433   2.809   5.669 -0.9056 -0.1977  1.1413
   10SAPS   C36 1291   3.450   3.023   5.659 -0.5752  0.0529 -0.3308
   10SAPS   H6X 1292   3.550   3.012   5.612 -0.5334  2.3143 -0.9280
   10SAPS   H6Y 1293   3.437   3.117   5.717  2.3121 -1.0002  2.2920
   10SAPS   C37 1294   3.350   3.044   5.542 -0.4888  0.1203  0.1153
   10SAPS   H7X 1295   3.245   3.060   5.574  0.8477  1.2200  4.6699
   10SAPS   H7Y 1296   3.354   2.948   5.487 -1.1945  0.7545 -1.0892
   10SAPS   C38 1297   3.398   3.147   5.444  0.8396 -0.0691 -0.0025
   10SAPS   H8X 1298   3.501   3.124   5.411  0.8655  0.8785 -0.6145
   10SAPS   H8Y 1299   3.393   3.246   5.494  0.1325  0.3877 -0.9315
   10SAPS   C39 1300   3.311   3.157   5.316 -0.4120 -0.7120  0.1409
   10SAPS   H9X 1301   3.211   3.197   5.344 -0.7863 -1.1919 -0.5191
   10SAPS   H9Y 1302   3.299   3.061   5.263  1.7259 -0.5334 -0.7821
   10SAPS  C310 1303   3.368   3.266   5.219 -0.2653  0.3071  0.4704
   10SAPS  H10X 1304   3.469   3.237   5.183  0.5240  0.8898  2.1305
   10SAPS  H10Y 1305   3.401   3.354   5.278 -1.2864  0.9623  0.0855
   10SAPS  C311 1306   3.272   3.302   5.106  0.6351  0.4243  0.0044
   10SAPS  H11X 1307   3.182   3.355   5.144  1.1762  1.6824 -0.4058
   10SAPS  H11Y 1308   3.246   3.209   5.052  0.1567  0.6425 -0.1485
   10SAPS  C312 1309   3.328   3.406   5.007  1.0945  0.6755 -0.1100
   10SAPS  H12X 1310   3.434   3.378   4.990  0.6484 -1.1353 -0.0901
   10SAPS  H12Y 1311   3.340   3.508   5.050  1.2278  0.5605  0.1320
   10SAPS  C313 1312   3.269   3.398   4.868  0.1342  0.3265  0.3199
   10SAPS  H13X 1313   3.158   3.399   4.864  0.1599  0.3565 -0.6094
   10SAPS  H13Y 1314   3.309   3.306   4.821  2.8290 -0.2602  3.3403
   10SAPS  C314 1315   3.309   3.511   4.772  0.7654  0.0710 -0.6077
   10SAPS  H14X 1316   3.419   3.517   4.783  0.6957  1.9223 -0.5869
   10SAPS  H14Y 1317   3.276   3.611   4.809 -1.4352 -1.0782  0.7704
   10SAPS  C315 1318   3.291   3.489   4.620  0.4915 -0.1955  0.4205
   10SAPS  H15X 1319   3.316   3.381   4.607 -1.5246 -0.6863  0.3366
   10SAPS  H15Y 1320   3.349   3.560   4.558 -2.5023  1.5136 -0.6399
   10SAPS  C316 1321   3.141   3.491   4.579 -0.1510  0.0884 -0.0650
   10SAPS  H16X 1322   3.089   3.557   4.652 -0.9310 -1.9358  1.2883
   10SAPS  H16Y 1323   3.101   3.390   4.599  2.2860 -1.0585 -0.5785
   10SAPS  C317 1324   3.116   3.538   4.433 -0.3182 -0.1243  0.2618
   10SAPS  H17X 1325   3.155   3.642   4.429  1.6717 -0.8548 -0.8273
   10SAPS  H17Y 1326   3.005   3.543   4.421 -0.3723 -0.4494  0.5902
   10SAPS  C318 1327   3.189   3.455   4.324 -0.2624 -0.0788  0.8688
   10SAPS  H18X 1328   3.298   3.457   4.342 -0.2627  0.0967  0.8527
   10SAPS  H18Y 1329   3.180   3.496   4.221  1.9377  1.1898  1.1282
   10SAPS  H18Z 1330   3.152   3.350   4.321 -1.6812  0.4125 -0.3129
   11SAPS     N 1331   2.223   5.678   2.417 -0.2752 -0.0559 -0.3351
   11SAPS   HN1 1332   2.195   5.726   2.329  1.4276  2.6271  0.4862
   11SAPS   HN2 1333   2.139   5.640   2.465 -0.2438  0.8548  0.4654
   11SAPS   HN3 1334   2.270   5.749   2.476  0.3290 -0.9580  0.2986
   11SAPS   C12 1335   2.305   5.552   2.383  0.3801  0.2745  0.0380
   11SAPS  H12A 1336   2.273   5.522   2.284  1.8541  2.3413 -1.1585
   11SAPS   C13 1337   2.457   5.581   2.376 -0.1036 -0.0912  0.2614
   11SAPS  O13A 1338   2.501   5.690   2.330  0.7442  0.4680  0.7192
   11SAPS  O13B 1339   2.534   5.479   2.384 -0.4370 -0.5129  0.0104
   11SAPS   C11 1340   2.281   5.431   2.474 -0.9135 -0.0411 -0.3649
   11SAPS  H11A 1341   2.317   5.447   2.578  0.5141  2.2979 -1.1501
   11SAPS  H11B 1342   2.343   5.349   2.430  0.5946  1.5129 -1.2407
   11SAPS     P 1343   2.014   5.414   2.522 -0.1852 -0.0755  0.0513
   11SAPS   O13 1344   2.006   5.562   2.506 -0.2445  1.0186 -0.5973
   11SAPS   O14 1345   1.908   5.331   2.457 -0.0416 -0.0211  0.0655
   11SAPS   O12 1346   2.149   5.373   2.455  0.1600  0.3308 -0.2473
   11SAPS   O11 1347   2.034   5.376   2.672  0.0779 -0.0552  0.0190
   11SAPS    C1 1348   2.060   5.231   2.694 -0.1369  0.1875  0.0944
   11SAPS    HA 1349   1.961   5.184   2.710 -0.5442  0.7136 -0.8222
   11SAPS    HB 1350   2.111   5.177   2.612  1.4612  1.0136  0.4907
   11SAPS    C2 1351   2.147   5.213   2.824  0.1630 -0.7284 -0.3627
   11SAPS    HS 1352   2.159   5.103   2.829 -0.5197 -0.9200 -2.3382
   11SAPS   O21 1353   2.073   5.258   2.935 -0.4715  0.0776  0.1480
   11SAPS   C21 1354   1.987   5.164   2.981 -0.3783  0.0978 -0.2929
   11SAPS   O22 1355   1.987   5.046   2.951 -0.0011  0.5657  0.1993
   11SAPS   C22 1356   1.907   5.233   3.094  0.1921 -0.4298  1.0546
   11SAPS   H2R 1357   1.907   5.343   3.080 -0.6758 -0.5455 -0.0351
   11SAPS   H2S 1358   1.804   5.195   3.078 -0.0377 -0.0799  1.6927
   11SAPS    C3 1359   2.291   5.273   2.808 -0.0849 -0.0977 -0.2942
   11SAPS    HX 1360   2.290   5.372   2.759  1.7062 -0.6135 -1.4933
   11SAPS    HY 1361   2.338   5.220   2.722 -0.2448  1.9983 -1.7419
   11SAPS   O31 1362   2.373   5.281   2.929 -0.2306  0.1397 -0.1971
   11SAPS   C31 1363   2.434   5.169   2.950 -0.3638 -0.3316 -0.6931
   11SAPS   O32 1364   2.414   5.062   2.895 -0.1316 -0.1526 -0.6702
   11SAPS   C32 1365   2.515   5.184   3.085  0.3152  0.5082  0.0138
   11SAPS   H2X 1366   2.472   5.279   3.123  0.0199 -0.0613  1.1406
   11SAPS   H2Y 1367   2.626   5.185   3.077  0.3581 -1.0210  0.0489
   11SAPS   C23 1368   1.955   5.182   3.236  0.0249 -0.1616 -0.2221
   11SAPS   H3R 1369   1.920   5.077   3.248  0.4536 -0.1440  1.4130
   11SAPS   H3S 1370   1.908   5.240   3.318 -0.3612 -0.7932  0.0096
   11SAPS   C24 1371   2.106   5.192   3.268 -0.0088  0.5521  0.0157
   11SAPS   H4R 1372   2.160   5.111   3.215  0.2010 -0.2826  1.4550
   11SAPS   H4S 1373   2.124   5.160   3.373 -0.1173  2.7177  0.7635
   11SAPS   C25 1374   2.167   5.323   3.236 -1.0283 -1.1644 -0.0892
   11SAPS   H5R 1375   2.181   5.358   3.133  2.0897  0.3417  0.7322
   11SAPS   C26 1376   2.227   5.411   3.321 -0.1324  0.8241  0.2139
   11SAPS   H6R 1377   2.260   5.506   3.275 -0.3101 -0.3136 -2.4697
   11SAPS   C27 1378   2.237   5.415   3.467 -0.0834  0.2051  0.4305
   11SAPS   H7R 1379   2.142   5.370   3.503 -0.5444  1.8497  1.3862
   11SAPS   H7S 1380   2.242   5.523   3.492  1.1773  0.4219 -0.6236
   11SAPS   C28 1381   2.354   5.339   3.535  0.6908  1.3820  0.1955
   11SAPS   H8R 1382   2.401   5.260   3.474  2.6075  0.9832  2.0588
   11SAPS   C29 1383   2.399   5.333   3.667  0.6990 -0.0740  0.1038
   11SAPS   H9R 1384   2.485   5.267   3.689 -1.1136 -2.9343 -0.8173
   11SAPS  C210 1385   2.355   5.431   3.777 -0.0917 -0.3963 -0.7978
   11SAPS  H10R 1386   2.246   5.451   3.791  0.2546  0.7215  0.4270
   11SAPS  H10S 1387   2.393   5.533   3.756  0.6715  0.0258  2.1837
   11SAPS  C211 1388   2.417   5.396   3.912  0.7755  0.1703 -0.8777
   11SAPS  H11R 1389   2.518   5.354   3.921  0.1707 -1.0255  0.7788
   11SAPS  C212 1390   2.362   5.443   4.027 -0.7891 -0.2189 -0.1660
   11SAPS  H12R 1391   2.418   5.410   4.116 -0.2040  1.3766  0.0801
   11SAPS  C213 1392   2.227   5.515   4.045  0.1684 -0.1159 -0.3650
   11SAPS  H13R 1393   2.145   5.477   3.979  0.3368  1.1426 -1.3405
   11SAPS  H13S 1394   2.244   5.621   4.016  1.3231 -0.5045 -1.1869
   11SAPS  C214 1395   2.183   5.510   4.188 -0.4738  0.1809 -0.6566
   11SAPS  H14R 1396   2.250   5.567   4.255 -1.6374 -1.2813  1.9112
   11SAPS  C215 1397   2.097   5.430   4.253  0.9664  0.6009 -0.2535
   11SAPS  H15R 1398   2.077   5.435   4.361 -1.0706  0.0113 -0.5695
   11SAPS  C216 1399   2.003   5.336   4.184 -0.3703 -0.3741  0.8106
   11SAPS  H16R 1400   2.030   5.228   4.186 -0.4461 -0.4129  0.1370
   11SAPS  H16S 1401   1.979   5.373   4.082  1.4116 -0.3138  0.3815
   11SAPS  C217 1402   1.862   5.350   4.245  0.3125  0.5866  0.1998
   11SAPS  H17R 1403   1.791   5.311   4.168  2.8538 -1.8990 -1.0730
   11SAPS  H17S 1404   1.855   5.461   4.252  1.5469  0.6645  0.3390
   11SAPS  C218 1405   1.855   5.274   4.384  0.5645 -0.3618  0.2529
   11SAPS  H18R 1406   1.926   5.304   4.464 -1.2447  1.1380  1.4053
   11SAPS  H18S 1407   1.862   5.165   4.368  0.2929 -0.5486  1.3356
   11SAPS  C219 1408   1.716   5.307   4.443 -0.0565  0.3633 -0.4382
   11SAPS  H19R 1409   1.638   5.274   4.371 -0.9000  0.0420  0.5801
   11SAPS  H19S 1410   1.714   5.416   4.461  2.5502  0.3100  0.5715
   11SAPS  C220 1411   1.685   5.227   4.573  0.0131 -0.2401  0.4068
   11SAPS  H20R 1412   1.673   5.119   4.553 -0.8637 -0.2767  1.0761
   11SAPS  H20S 1413   1.596   5.263   4.629  1.1220  0.0757  2.0744
   11SAPS  H20T 1414   1.773   5.242   4.640 -0.2785  0.6491  0.6109
   11SAPS   C33 1415   2.479   5.063   3.187 -0.3777 -0.8468 -0.0154
   11SAPS   H3X 1416   2.510   4.966   3.142  0.8671  0.2963 -1.7256
   11SAPS   H3Y 1417   2.369   5.060   3.203 -0.6863  0.8964 -1.4841
   11SAPS   C34 1418   2.564   5.074   3.311 -0.4934 -0.6129  0.5783
   11SAPS   H4X 1419   2.557   5.181   3.342 -0.8875 -0.8189  1.2259
   11SAPS   H4Y 1420   2.669   5.066   3.275  0.1636 -3.1246  2.6932
   11SAPS   C35 1421   2.528   4.972   3.416 -0.5208 -0.3534 -0.6712
   11SAPS   H5X 1422   2.537   4.869   3.374  0.3812 -0.0788 -1.1839
   11SAPS   H5Y 1423   2.424   4.991   3.449  0.4596  1.2109  1.6981
   11SAPS   C36 1424   2.627   4.971   3.534  0.9603 -0.1005 -0.0679
   11SAPS   H6X 1425   2.633   5.075   3.570 -1.2006  1.4430 -3.6139
   11SAPS   H6Y 1426   2.725   4.936   3.493  1.9289  0.3432  1.7835
   11SAPS   C37 1427   2.575   4.887   3.656  0.3744  0.2946  0.2185
   11SAPS   H7X 1428   2.552   4.783   3.623  0.8914 -0.0533  0.9274
   11SAPS   H7Y 1429   2.489   4.937   3.706  1.8876  2.6977  0.6051
   11SAPS   C38 1430   2.690   4.874   3.760 -0.0269  0.1025  0.1856
   11SAPS   H8X 1431   2.739   4.973   3.768  0.4793  0.1318 -2.3740
   11SAPS   H8Y 1432   2.772   4.809   3.723  0.2380  1.6875 -2.1974
   11SAPS   C39 1433   2.641   4.828   3.900 -0.5410  0.1961  0.1809
   11SAPS   H9X 1434   2.595   4.730   3.875 -2.0894  1.1825 -1.0951
   11SAPS   H9Y 1435   2.546   4.879   3.928 -0.8023 -0.2099  0.0408
   11SAPS  C310 1436   2.754   4.797   4.001 -0.1875  0.2634 -0.4583
   11SAPS  H10X 1437   2.799   4.890   4.041  1.5868 -1.5861  2.1959
   11SAPS  H10Y 1438   2.834   4.745   3.945 -1.7849  0.1831 -2.8092
   11SAPS  C311 1439   2.704   4.722   4.123 -0.0399  0.0499  0.0311
   11SAPS  H11X 1440   2.624   4.647   4.105 -1.8209  1.7016  0.6485
   11SAPS  H11Y 1441   2.636   4.792   4.175 -0.9695 -0.9972  0.2739
   11SAPS  C312 1442   2.804   4.665   4.229 -0.5113  0.5071  0.0260
   11SAPS  H12X 1443   2.863   4.585   4.178  2.5939  3.2574 -1.0394
   11SAPS  H12Y 1444   2.742   4.611   4.303  0.6270  0.5712  1.0523
   11SAPS  C313 1445   2.904   4.755   4.290 -0.2803  0.1452  0.3038
   11SAPS  H13X 1446   2.850   4.850   4.313 -1.0637  0.7042 -3.2346
   11SAPS  H13Y 1447   2.979   4.779   4.212  0.3011  0.7810  1.0366
   11SAPS  C314 1448   2.965   4.700   4.414  0.2211  0.0286  0.7739
   11SAPS  H14X 1449   2.886   4.678   4.488  0.0178 -1.3883  0.1609
   11SAPS  H14Y 1450   3.034   4.778   4.454  0.0131  0.5208  0.1882
   11SAPS  C315 1451   3.054   4.577   4.387  0.2563 -0.4651 -0.8679
   11SAPS  H15X 1452   3.012   4.514   4.306 -2.2077  0.0214 -0.0488
   11SAPS  H15Y 1453   3.041   4.521   4.482 -1.1891  0.9531 -0.2006
   11SAPS  C316 1454   3.214   4.608   4.373  0.1439  0.4233  1.3181
   11SAPS  H16X 1455   3.234   4.654   4.274  0.0686 -0.6608  0.7847
   11SAPS  H16Y 1456   3.250   4.503   4.370 -1.2655 -0.0665  0.2348
   11SAPS  C317 1457   3.277   4.673   4.495  0.2405 -0.3285  0.4380
   11SAPS  H17X 1458   3.249   4.620   4.589  0.1636  0.7992  1.0729
   11SAPS  H17Y 1459   3.251   4.778   4.517  1.1404 -0.3265  1.5896
   11SAPS  C318 1460   3.428   4.664   4.479 -0.2839 -0.6515  1.2394
   11SAPS  H18X 1461   3.490   4.703   4.563 -0.5307  1.8518  0.3558
   11SAPS  H18Y 1462   3.457   4.718   4.387  0.2873 -0.2960  1.6180
   11SAPS  H18Z 1463   3.459   4.562   4.447 -0.1043  0.3392 -2.0963
   12SAPS     N 1464   2.132   1.180   2.149 -0.9660  0.0044 -0.1474
   12SAPS   HN1 1465   2.071   1.096   2.149 -2.3385  0.9021 -2.1698
   12SAPS   HN2 1466   2.103   1.231   2.235  0.5547  0.2274  0.2509
   12SAPS   HN3 1467   2.125   1.241   2.064 -1.3946 -0.4005 -0.4082
   12SAPS   C12 1468   2.276   1.158   2.173  0.4875  0.0904 -0.5492
   12SAPS  H12A 1469   2.279   1.107   2.268  1.4288 -1.2171 -1.2468
   12SAPS   C13 1470   2.350   1.070   2.074  0.3171 -0.4499  0.2174
   12SAPS  O13A 1471   2.307   1.044   1.956  0.6071 -0.2050  0.2524
   12SAPS  O13B 1472   2.471   1.036   2.106 -0.1363 -0.2499  0.3968
   12SAPS   C11 1473   2.350   1.297   2.189 -0.1963 -0.1270 -0.5608
   12SAPS  H11A 1474   2.456   1.284   2.219 -0.1175 -1.4753 -1.3730
   12SAPS  H11B 1475   2.301   1.346   2.276  2.4761 -0.0465  1.0284
   12SAPS     P 1476   2.401   1.527   2.074  0.0991 -0.0493 -0.1128
   12SAPS   O13 1477   2.546   1.518   2.076  0.7429 -0.5481 -0.4433
   12SAPS   O14 1478   2.346   1.623   1.974  0.4181 -0.1405 -0.3356
   12SAPS   O12 1479   2.327   1.380   2.069 -0.1638  0.4964 -0.2049
   12SAPS   O11 1480   2.355   1.583   2.213  0.0854 -0.0686 -0.1257
   12SAPS    C1 1481   2.214   1.607   2.246 -0.1377  0.6173  0.3820
   12SAPS    HA 1482   2.186   1.711   2.217 -2.1108 -0.1245 -0.4905
   12SAPS    HB 1483   2.149   1.533   2.196  0.0061 -1.1845  2.7278
   12SAPS    C2 1484   2.187   1.575   2.394 -0.0274  0.9846 -0.3654
   12SAPS    HS 1485   2.243   1.484   2.422 -0.7631  0.4419 -0.6228
   12SAPS   O21 1486   2.045   1.558   2.416 -0.0465  0.5072 -0.6953
   12SAPS   C21 1487   1.990   1.448   2.373 -0.0973  0.4328  0.9471
   12SAPS   O22 1488   2.048   1.354   2.319 -0.0779  0.3387  0.6281
   12SAPS   C22 1489   1.845   1.443   2.406 -0.1683  0.6334  0.6901
   12SAPS   H2R 1490   1.791   1.522   2.350 -0.6164 -0.9402 -1.2530
   12SAPS   H2S 1491   1.825   1.341   2.365  1.0872  0.3909  0.6342
   12SAPS    C3 1492   2.251   1.691   2.479  0.1062 -1.0995  0.2018
   12SAPS    HX 1493   2.230   1.776   2.410  0.6382 -0.6394  0.5990
   12SAPS    HY 1494   2.359   1.695   2.501 -0.4290 -0.2771  3.0202
   12SAPS   O31 1495   2.176   1.708   2.607  0.2308  0.0667  0.8970
   12SAPS   C31 1496   2.235   1.649   2.715  0.4018 -0.0155 -0.1871
   12SAPS   O32 1497   2.333   1.578   2.714 -0.6944  0.2078 -0.0551
   12SAPS   C32 1498   2.166   1.703   2.836 -0.6245  0.1361 -0.3298
   12SAPS   H2X 1499   2.060   1.734   2.824 -0.6377 -0.4210 -1.9086
   12SAPS   H2Y 1500   2.229   1.791   2.860 -0.9748  0.9884 -2.3549
   12SAPS   C23 1501   1.800   1.437   2.554  0.0596  0.0618 -0.1236
   12SAPS   H3R 1502   1.874   1.374   2.607  1.6189  0.4548 -1.7639
   12SAPS   H3S 1503   1.699   1.392   2.566 -0.4575  0.8347 -1.3765
   12SAPS   C24 1504   1.798   1.576   2.612 -0.0653 -0.0468  0.0036
   12SAPS   H4R 1505   1.717   1.633   2.561 -4.0765 -2.5123  2.9385
   12SAPS   H4S 1506   1.896   1.623   2.592 -0.6401  1.7145  0.9924
   12SAPS   C25 1507   1.770   1.577   2.758  0.7204  0.3114  0.0188
   12SAPS   H5R 1508   1.801   1.486   2.811 -1.0411  0.5741  1.6048
   12SAPS   C26 1509   1.709   1.673   2.823  0.0683  0.0841 -0.5230
   12SAPS   H6R 1510   1.695   1.665   2.932  2.0099 -0.5175 -0.2775
   12SAPS   C27 1511   1.678   1.805   2.757  0.4169 -0.6103 -0.3885
   12SAPS   H7R 1512   1.609   1.866   2.819 -0.2585  1.4653 -3.0017
   12SAPS   H7S 1513   1.617   1.787   2.666 -0.7177  1.2369 -0.0292
   12SAPS   C28 1514   1.787   1.902   2.719 -0.0245  0.2338  0.1911
   12SAPS   H8R 1515   1.842   1.899   2.624 -0.8728  2.1646 -0.4116
   12SAPS   C29 1516   1.830   1.993   2.812 -0.1682 -0.4557  0.2031
   12SAPS   H9R 1517   1.912   2.059   2.780 -1.7350  0.3004 -2.5790
   12SAPS  C210 1518   1.783   2.007   2.949 -0.4977  0.3654 -0.2338
   12SAPS  H10R 1519   1.796   1.910   3.002 -0.6103  0.7276  0.4798
   12SAPS  H10S 1520   1.673   2.023   2.950 -0.6664 -0.7154  0.4937
   12SAPS  C211 1521   1.847   2.119   3.029 -0.1317 -0.4539 -0.1597
   12SAPS  H11R 1522   1.874   2.204   2.964  1.3268 -1.2704 -0.6503
   12SAPS  C212 1523   1.880   2.116   3.157 -0.8119  0.3867  0.6907
   12SAPS  H12R 1524   1.903   2.215   3.199 -3.1447  0.5108  1.8547
   12SAPS  C213 1525   1.854   2.012   3.266  0.2661 -0.4405 -0.1874
   12SAPS  H13R 1526   1.822   1.914   3.224 -1.0982  0.1071 -0.4706
   12SAPS  H13S 1527   1.768   2.052   3.323 -0.9973 -0.0896 -2.2164
   12SAPS  C214 1528   1.981   1.988   3.340  0.0278  0.6090 -0.4868
   12SAPS  H14R 1529   2.073   1.983   3.280 -0.7779 -0.0653 -1.6923
   12SAPS  C215 1530   2.006   1.964   3.479  0.2620  0.0552  0.2714
   12SAPS  H15R 1531   2.105   1.935   3.516  0.8703  1.5967 -0.0785
   12SAPS  C216 1532   1.899   1.969   3.587  0.2870 -0.4237  0.8617
   12SAPS  H16R 1533   1.832   1.882   3.566 -0.0596  0.4463 -2.2683
   12SAPS  H16S 1534   1.825   2.052   3.576 -1.0129 -1.5504  0.7241
   12SAPS  C217 1535   1.947   1.957   3.729 -0.6844  0.2608  0.2869
   12SAPS  H17R 1536   1.972   2.055   3.774 -1.1039  0.7793 -0.5698
   12SAPS  H17S 1537   2.037   1.894   3.722  0.0875  1.4018 -0.4821
   12SAPS  C218 1538   1.847   1.883   3.813  0.3025 -0.0963 -0.1934
   12SAPS  H18R 1539   1.834   1.782   3.768  1.7486 -0.6702  0.6090
   12SAPS  H18S 1540   1.752   1.938   3.828  0.6146  0.0044  1.6854
   12SAPS  C219 1541   1.897   1.857   3.955  0.7081  0.0000 -0.0339
   12SAPS  H19R 1542   1.924   1.952   4.005  0.9945 -0.7297  1.2349
   12SAPS  H19S 1543   1.990   1.796   3.948  1.8980  1.5826  1.1701
   12SAPS  C220 1544   1.800   1.783   4.056  0.8282 -0.1464 -0.2348
   12SAPS  H20R 1545   1.755   1.696   4.002  1.9275 -2.3812  2.1982
   12SAPS  H20S 1546   1.719   1.850   4.090 -1.3560 -0.0705 -4.8190
   12SAPS  H20T 1547   1.856   1.746   4.145 -0.1230  1.4022  1.0416
   12SAPS   C33 1548   2.175   1.602   2.961 -0.5528 -0.6815 -0.4237
   12SAPS   H3X 1549   2.272   1.547   2.958 -0.9809 -1.4486 -2.4559
   12SAPS   H3Y 1550   2.093   1.526   2.956 -2.2324  1.1068 -1.5720
   12SAPS   C34 1551   2.157   1.687   3.088  0.0168 -0.0810 -0.1271
   12SAPS   H4X 1552   2.053   1.718   3.109 -0.8932 -1.5342 -2.2374
   12SAPS   H4Y 1553   2.214   1.783   3.084 -3.1412  2.0425  1.5513
   12SAPS   C35 1554   2.208   1.615   3.211  0.0855  0.6225 -0.8277
   12SAPS   H5X 1555   2.317   1.602   3.198  0.0853  1.0308 -1.2783
   12SAPS   H5Y 1556   2.165   1.513   3.218  1.1010  0.2729  0.9004
   12SAPS   C36 1557   2.167   1.680   3.347 -0.2663 -0.2663 -0.4235
   12SAPS   H6X 1558   2.064   1.719   3.358 -0.0506  0.2674 -0.2783
   12SAPS   H6Y 1559   2.237   1.766   3.359 -0.8316  0.1656 -0.2123
   12SAPS   C37 1560   2.206   1.588   3.463  0.0953  0.2359 -0.8453
   12SAPS   H7X 1561   2.309   1.553   3.439  0.5551  2.4166 -2.3358
   12SAPS   H7Y 1562   2.134   1.503   3.453 -3.0529  2.4651  1.1069
   12SAPS   C38 1563   2.191   1.661   3.594 -0.0928 -0.8864  0.1247
   12SAPS   H8X 1564   2.097   1.720   3.597  0.1680 -0.3528 -1.1743
   12SAPS   H8Y 1565   2.259   1.748   3.607 -2.3023  1.3199 -1.9244
   12SAPS   C39 1566   2.196   1.562   3.708 -0.9310  0.0328 -0.8455
   12SAPS   H9X 1567   2.202   1.624   3.800  1.1694 -3.1770  1.4249
   12SAPS   H9Y 1568   2.297   1.517   3.725  0.6763  3.5204 -0.3387
   12SAPS  C310 1569   2.079   1.457   3.726  0.0726 -0.7662 -0.1056
   12SAPS  H10X 1570   2.068   1.385   3.643  0.2782 -0.4644 -0.3965
   12SAPS  H10Y 1571   1.980   1.509   3.723  1.7186  2.6190 -1.9045
   12SAPS  C311 1572   2.085   1.371   3.856  0.2522 -0.2145  0.5876
   12SAPS  H11X 1573   2.192   1.340   3.851  0.7320  1.4598 -1.4474
   12SAPS  H11Y 1574   2.016   1.284   3.855 -1.2657  0.9422 -0.2661
   12SAPS  C312 1575   2.067   1.453   3.982 -0.4803 -0.0370  0.7298
   12SAPS  H12X 1576   1.969   1.506   3.973 -0.1451  0.2948 -1.8098
   12SAPS  H12Y 1577   2.154   1.522   3.992  0.8880 -1.8072  1.4955
   12SAPS  C313 1578   2.083   1.364   4.097  1.1871  0.1751 -0.4505
   12SAPS  H13X 1579   2.178   1.306   4.091  0.7946 -0.5882  0.4059
   12SAPS  H13Y 1580   2.007   1.286   4.078  2.0203 -1.2095  1.4864
   12SAPS  C314 1581   2.050   1.446   4.230  0.0803 -0.2412  0.1485
   12SAPS  H14X 1582   1.953   1.493   4.204  1.0096  0.3314 -2.5342
   12SAPS  H14Y 1583   2.125   1.519   4.268 -1.4276  0.8837  1.0607
   12SAPS  C315 1584   2.033   1.346   4.346 -0.0979 -0.5221  0.0368
   12SAPS  H15X 1585   2.133   1.300   4.359 -0.1892 -0.8244 -0.3179
   12SAPS  H15Y 1586   1.955   1.272   4.319  0.1232  0.0013 -2.2128
   12SAPS  C316 1587   1.995   1.410   4.478 -0.2413 -0.1838 -0.2681
   12SAPS  H16X 1588   2.030   1.348   4.563  3.5635  3.6574  1.3427
   12SAPS  H16Y 1589   1.885   1.427   4.477 -0.4027 -1.1686 -0.8598
   12SAPS  C317 1590   2.081   1.531   4.522 -0.0190  0.0186  0.2127
   12SAPS  H17X 1591   2.053   1.558   4.626  0.3507  2.9582 -0.3434
   12SAPS  H17Y 1592   2.059   1.611   4.447 -0.8049  0.4651  0.8943
   12SAPS  C318 1593   2.235   1.502   4.529 -0.0605 -0.0714  1.0306
   12SAPS  H18X 1594   2.297   1.573   4.588  1.2889 -1.1666  0.9835
   12SAPS  H18Y 1595   2.271   1.482   4.426  0.0791  0.6315  0.9369
   12SAPS  H18Z 1596   2.248   1.405   4.580  1.0778 -0.9860 -0.8872
   13SAPS     N 1597   3.134   4.112   2.225  0.2462 -0.1523 -0.0901
   13SAPS   HN1 1598   3.149   4.019   2.180 -0.4869  0.6309 -2.0959
   13SAPS   HN2 1599   3.227   4.155   2.239 -1.0986  2.5542  1.3273
   13SAPS   HN3 1600   3.083   4.094   2.314 -2.8429  1.2273 -1.4124
   13SAPS   C12 1601   3.062   4.189   2.127 -0.1599 -0.1882 -0.4531
   13SAPS  H12A 1602   3.126   4.199   2.041 -1.3026  0.3752 -1.2592
   13SAPS   C13 1603   2.928   4.129   2.084 -0.4352 -0.1722  0.4355
   13SAPS  O13A 1604   2.895   4.016   2.128  0.6577  0.8939  0.4712
   13SAPS  O13B 1605   2.860   4.180   1.988  0.1141  0.8522 -0.3410
   13SAPS   C11 1606   3.033   4.334   2.176 -0.3912 -0.2819  0.2943
   13SAPS  H11A 1607   2.978   4.318   2.271 -2.2116 -3.1233 -1.0810
   13SAPS  H11B 1608   2.969   4.391   2.106  0.5044  0.0327 -0.2899
   13SAPS     P 1609   3.154   4.520   2.312  0.3813  0.3215 -0.3366
   13SAPS   O13 1610   3.288   4.584   2.336  0.2377  0.8140  0.0063
   13SAPS   O14 1611   3.050   4.618   2.273  0.0704  0.3161 -0.3869
   13SAPS   O12 1612   3.161   4.404   2.198 -0.3416  0.4207 -0.0313
   13SAPS   O11 1613   3.116   4.432   2.437 -0.0416 -0.3953  0.6642
   13SAPS    C1 1614   2.990   4.454   2.498 -0.3811  0.8669 -0.4567
   13SAPS    HA 1615   2.912   4.483   2.425 -0.3961  1.7191 -0.1109
   13SAPS    HB 1616   2.966   4.359   2.551  1.1289  0.8490  0.2572
   13SAPS    C2 1617   3.000   4.566   2.613  0.3798 -0.0216 -0.2551
   13SAPS    HS 1618   3.026   4.657   2.555  3.3041 -0.0479  0.8564
   13SAPS   O21 1619   3.111   4.535   2.703  0.0352  0.4254 -0.2829
   13SAPS   C21 1620   3.171   4.645   2.752 -0.3263 -0.6300 -0.3363
   13SAPS   O22 1621   3.156   4.761   2.716  0.6791 -0.4918 -0.2696
   13SAPS   C22 1622   3.276   4.612   2.852 -0.0107 -0.1881  0.3220
   13SAPS   H2R 1623   3.334   4.526   2.812 -0.1263 -0.0504 -0.1485
   13SAPS   H2S 1624   3.351   4.693   2.847  0.4195 -0.5510  0.8568
   13SAPS    C3 1625   2.873   4.579   2.686  0.4103  0.1718  0.5242
   13SAPS    HX 1626   2.863   4.481   2.738  0.9082  0.4154  1.0964
   13SAPS    HY 1627   2.785   4.584   2.619  0.7899 -2.5391 -0.2920
   13SAPS   O31 1628   2.875   4.681   2.789 -0.6973  0.3047 -0.2308
   13SAPS   C31 1629   2.762   4.735   2.822  0.3512  0.1421 -1.0819
   13SAPS   O32 1630   2.651   4.713   2.775  0.0594 -0.1334 -0.6941
   13SAPS   C32 1631   2.776   4.853   2.917 -0.4553  0.0485 -0.3176
   13SAPS   H2X 1632   2.709   4.925   2.864 -0.8263 -2.7843 -4.0904
   13SAPS   H2Y 1633   2.881   4.885   2.898 -1.2562  2.2536 -1.4287
   13SAPS   C23 1634   3.230   4.590   2.994  0.3021 -0.2558 -0.1702
   13SAPS   H3R 1635   3.140   4.525   2.991  1.0460 -1.2790 -0.6899
   13SAPS   H3S 1636   3.217   4.683   3.055  1.2960 -0.7034  0.7474
   13SAPS   C24 1637   3.337   4.511   3.078  0.0764 -0.1040  0.6048
   13SAPS   H4R 1638   3.324   4.404   3.052 -1.5159  0.1137  0.3927
   13SAPS   H4S 1639   3.306   4.519   3.185  0.7786 -1.9795  0.9802
   13SAPS   C25 1640   3.481   4.558   3.059  0.1207 -0.0370 -0.2528
   13SAPS   H5R 1641   3.542   4.505   2.985  1.1618 -0.7736  1.0829
   13SAPS   C26 1642   3.541   4.665   3.116 -0.0203  0.6160  0.2496
   13SAPS   H6R 1643   3.648   4.678   3.098  0.0652 -0.9264 -0.5504
   13SAPS   C27 1644   3.494   4.767   3.214  0.3139 -0.2336 -0.2498
   13SAPS   H7R 1645   3.384   4.776   3.218  0.4212  1.3497 -0.1351
   13SAPS   H7S 1646   3.540   4.865   3.188  1.5554 -1.3647 -2.5920
   13SAPS   C28 1647   3.543   4.735   3.348  0.8518 -0.1083 -0.3147
   13SAPS   H8R 1648   3.628   4.664   3.355 -0.4640 -1.5791  2.0382
   13SAPS   C29 1649   3.502   4.792   3.461  0.7233  0.9166 -0.3360
   13SAPS   H9R 1650   3.522   4.745   3.558  0.8149 -2.2958 -1.7737
   13SAPS  C210 1651   3.389   4.888   3.474  0.4204 -0.0679  0.3038
   13SAPS  H10R 1652   3.293   4.834   3.488 -0.2284  1.0613  0.3827
   13SAPS  H10S 1653   3.371   4.941   3.378  0.2159  0.9029  0.8589
   13SAPS  C211 1654   3.411   4.987   3.586  0.3763  0.5106  0.3472
   13SAPS  H11R 1655   3.476   5.070   3.556  0.1608  0.4629 -0.2488
   13SAPS  C212 1656   3.363   4.993   3.708  0.0868 -0.2671 -0.1380
   13SAPS  H12R 1657   3.396   5.078   3.770 -1.7305 -0.9348  1.8942
   13SAPS  C213 1658   3.269   4.896   3.778 -0.5879  1.1074  0.0795
   13SAPS  H13R 1659   3.193   4.866   3.703 -0.7467  0.8276  0.3500
   13SAPS  H13S 1660   3.213   4.940   3.863 -2.0483  1.1770 -0.8839
   13SAPS  C214 1661   3.352   4.775   3.822  0.6807  0.5406 -0.3517
   13SAPS  H14R 1662   3.460   4.777   3.800  0.6893 -1.2687 -0.6150
   13SAPS  C215 1663   3.302   4.666   3.891 -0.4645 -0.8205 -0.4127
   13SAPS  H15R 1664   3.373   4.593   3.932 -1.6038 -0.9585  1.4481
   13SAPS  C216 1665   3.156   4.656   3.937 -0.6343 -0.1183 -0.1612
   13SAPS  H16R 1666   3.087   4.685   3.855  1.9517 -0.9126 -2.7793
   13SAPS  H16S 1667   3.152   4.728   4.022 -1.1434  0.5997 -0.7807
   13SAPS  C217 1668   3.138   4.505   3.981  1.0354  0.0675 -0.1751
   13SAPS  H17R 1669   3.049   4.515   4.047  1.2828 -1.6839  0.4657
   13SAPS  H17S 1670   3.225   4.485   4.046  1.4162 -1.1418 -1.0339
   13SAPS  C218 1671   3.110   4.398   3.867  0.2821  0.0484  0.5101
   13SAPS  H18R 1672   3.186   4.404   3.785  1.5064 -0.1237  1.5940
   13SAPS  H18S 1673   3.010   4.413   3.822  0.8253  0.2110 -0.7116
   13SAPS  C219 1674   3.122   4.253   3.928  0.3076  1.1061 -0.1558
   13SAPS  H19R 1675   3.054   4.250   4.015 -0.7164  2.9610 -0.8429
   13SAPS  H19S 1676   3.229   4.241   3.956  0.0991  1.3500  0.7823
   13SAPS  C220 1677   3.093   4.148   3.819 -0.4342 -0.5041  0.8797
   13SAPS  H20R 1678   3.135   4.047   3.840 -0.0614 -0.7374 -0.8017
   13SAPS  H20S 1679   3.136   4.177   3.720  4.3792  0.0850  2.8506
   13SAPS  H20T 1680   2.985   4.126   3.811 -0.2457 -0.6531 -2.7568
   13SAPS   C33 1681   2.762   4.823   3.068 -0.0541  0.4362 -0.0066
   13SAPS   H3X 1682   2.667   4.771   3.092  0.3901 -0.0716  0.7068
   13SAPS   H3Y 1683   2.754   4.922   3.118 -0.6899  1.6249 -2.3221
   13SAPS   C34 1684   2.889   4.756   3.125 -0.1490 -0.2326  0.1698
   13SAPS   H4X 1685   2.975   4.817   3.090  0.2248  0.0847  1.5990
   13SAPS   H4Y 1686   2.904   4.658   3.075  0.6640  0.6849 -1.4681
   13SAPS   C35 1687   2.902   4.750   3.282 -0.8175  0.4274  1.0738
   13SAPS   H5X 1688   2.835   4.676   3.331  0.2243 -0.9204  0.5167
   13SAPS   H5Y 1689   2.894   4.855   3.316  1.8074  1.4467 -1.1131
   13SAPS   C36 1690   3.039   4.689   3.315  0.5306 -0.6722 -0.5339
   13SAPS   H6X 1691   3.109   4.772   3.289 -0.1300 -0.0856 -0.4808
   13SAPS   H6Y 1692   3.068   4.605   3.248 -0.3512 -0.3285 -1.3563
   13SAPS   C37 1693   3.051   4.655   3.466  0.5021 -0.4589 -0.0370
   13SAPS   H7X 1694   2.951   4.634   3.510  0.1637  1.6366  0.3066
   13SAPS   H7Y 1695   3.070   4.749   3.522  1.5584  0.5563 -1.9967
   13SAPS   C38 1696   3.168   4.559   3.504  0.2691 -0.1263 -0.6702
   13SAPS   H8X 1697   3.205   4.575   3.607 -0.5802 -0.1427 -0.3539
   13SAPS   H8Y 1698   3.259   4.581   3.444  1.5209 -0.9350  0.8488
   13SAPS   C39 1699   3.137   4.406   3.495  0.2614 -0.1345  0.3894
   13SAPS   H9X 1700   3.069   4.359   3.569 -0.7245 -0.0513 -0.4399
   13SAPS   H9Y 1701   3.229   4.344   3.504 -0.5604 -1.4450  0.1348
   13SAPS  C310 1702   3.080   4.354   3.361  0.4874  0.4420 -0.7311
   13SAPS  H10X 1703   3.137   4.402   3.279 -0.6989  0.6023 -1.4863
   13SAPS  H10Y 1704   2.978   4.397   3.344 -0.9170 -1.3609  2.3084
   13SAPS  C311 1705   3.072   4.200   3.355 -0.0271 -0.8283 -0.0965
   13SAPS  H11X 1706   3.010   4.174   3.267 -0.2096 -0.2234 -0.1500
   13SAPS  H11Y 1707   3.013   4.174   3.446 -1.2093  1.0011 -0.2958
   13SAPS  C312 1708   3.198   4.119   3.348 -1.0840 -0.1433  0.7076
   13SAPS  H12X 1709   3.182   4.011   3.329 -0.2107  0.0780 -1.5503
   13SAPS  H12Y 1710   3.259   4.135   3.440 -2.4779  2.2497  1.3319
   13SAPS  C313 1711   3.300   4.170   3.246 -0.3735 -0.0595 -0.3637
   13SAPS  H13X 1712   3.328   4.272   3.280 -1.3976  0.3577 -0.7335
   13SAPS  H13Y 1713   3.250   4.195   3.150 -1.5679  0.6992  0.4289
   13SAPS  C314 1714   3.424   4.082   3.234  0.7657  0.3905  0.3773
   13SAPS  H14X 1715   3.387   3.979   3.214 -0.8989  1.1061 -0.4611
   13SAPS  H14Y 1716   3.468   4.085   3.336  3.1909  0.7051 -0.6101
   13SAPS  C315 1717   3.530   4.129   3.125  0.7044 -0.1488 -0.1311
   13SAPS  H15X 1718   3.629   4.103   3.167  0.9807 -0.3329 -0.8823
   13SAPS  H15Y 1719   3.524   4.238   3.103  0.6367  0.2284  1.5833
   13SAPS  C316 1720   3.500   4.049   2.995  0.1609 -0.2328 -0.5041
   13SAPS  H16X 1721   3.396   4.063   2.957 -0.6415  0.9117  1.8894
   13SAPS  H16Y 1722   3.515   3.940   3.010  1.9358  0.1694  0.9368
   13SAPS  C317 1723   3.581   4.106   2.884  0.8158  0.2483  0.2529
   13SAPS  H17X 1724   3.690   4.093   2.903  0.7474  1.5927  1.7932
   13SAPS  H17Y 1725   3.562   4.215   2.879 -1.3199  0.0386  2.2157
   13SAPS  C318 1726   3.541   4.046   2.751  0.8410 -0.5338 -0.4953
   13SAPS  H18X 1727   3.564   3.938   2.744  0.3519 -0.7178  0.6371
   13SAPS  H18Y 1728   3.577   4.109   2.666  0.1903  0.2376 -0.2126
   13SAPS  H18Z 1729   3.431   4.035   2.745  0.8374 -0.2558 -1.1116
   14SAPS     N 1730   4.396   2.603   2.012  0.4581 -0.0312  0.3396
   14SAPS   HN1 1731   4.395   2.500   2.021 -2.5545 -0.1090  0.3635
   14SAPS   HN2 1732   4.422   2.638   2.107 -2.7396 -1.7502  2.0124
   14SAPS   HN3 1733   4.300   2.636   1.988 -0.1574 -0.0382  2.5424
   14SAPS   C12 1734   4.492   2.653   1.912  0.2126  0.6010 -0.3030
   14SAPS  H12A 1735   4.567   2.575   1.918  0.6257  0.9932 -0.3314
   14SAPS   C13 1736   4.434   2.658   1.768  0.0396 -0.9626 -0.3251
   14SAPS  O13A 1737   4.313   2.668   1.745  0.0672 -0.2165  0.4688
   14SAPS  O13B 1738   4.518   2.677   1.673  0.5470 -0.1013 -0.0652
   14SAPS   C11 1739   4.539   2.797   1.948  0.3886  0.4623  0.2407
   14SAPS  H11A 1740   4.446   2.851   1.975  0.0003 -0.2277  0.3256
   14SAPS  H11B 1741   4.588   2.848   1.862  0.8734 -1.0006 -0.3967
   14SAPS     P 1742   4.570   2.803   2.206 -0.3277 -0.5411  0.0149
   14SAPS   O13 1743   4.466   2.909   2.204  0.2654  0.2395 -0.5414
   14SAPS   O14 1744   4.521   2.669   2.242 -0.3182 -0.5170 -0.2456
   14SAPS   O12 1745   4.627   2.799   2.063  0.0086  0.3090  0.1101
   14SAPS   O11 1746   4.685   2.843   2.300  0.3463 -0.3393 -0.1638
   14SAPS    C1 1747   4.706   2.980   2.343  0.0655 -0.0841 -0.2584
   14SAPS    HA 1748   4.812   3.004   2.321 -0.0936  1.0513  0.1469
   14SAPS    HB 1749   4.648   3.055   2.285 -0.6908 -1.9299 -1.9933
   14SAPS    C2 1750   4.656   2.998   2.492 -0.5113  0.2821 -0.1139
   14SAPS    HS 1751   4.686   3.099   2.528  2.2587 -0.5812  0.1946
   14SAPS   O21 1752   4.708   2.898   2.578 -0.3724 -0.2745  0.0323
   14SAPS   C21 1753   4.828   2.925   2.616  0.1203 -0.5040  0.0377
   14SAPS   O22 1754   4.886   3.032   2.595 -0.3842  0.1875 -0.4381
   14SAPS   C22 1755   4.871   2.803   2.699  0.1018  0.4680 -0.7313
   14SAPS   H2R 1756   4.798   2.795   2.783 -0.1328  1.9477 -0.7662
   14SAPS   H2S 1757   4.870   2.707   2.643  1.9491 -0.8428  1.2845
   14SAPS    C3 1758   4.497   3.006   2.492 -0.0327 -0.0546 -0.5972
   14SAPS    HX 1759   4.457   2.915   2.443 -0.4306 -0.5340  0.6001
   14SAPS    HY 1760   4.461   3.087   2.424 -0.2673 -0.6724 -1.2196
   14SAPS   O31 1761   4.455   3.016   2.628 -0.6918 -0.1260 -0.1372
   14SAPS   C31 1762   4.363   3.107   2.657 -0.3769 -0.0777  0.1924
   14SAPS   O32 1763   4.312   3.182   2.576  0.1095 -0.3151  0.3350
   14SAPS   C32 1764   4.340   3.108   2.809  0.2888  0.5395  1.1103
   14SAPS   H2X 1765   4.316   3.214   2.835 -1.0939  0.5698 -0.1220
   14SAPS   H2Y 1766   4.440   3.092   2.856  0.9926  2.0712  0.2155
   14SAPS   C23 1767   5.008   2.823   2.773  0.8033 -0.4960 -0.0776
   14SAPS   H3R 1768   5.002   2.910   2.843 -1.4784 -0.7009  0.0705
   14SAPS   H3S 1769   5.084   2.847   2.696  1.2917 -0.6568  0.3414
   14SAPS   C24 1770   5.039   2.692   2.847 -0.2092  0.2565 -0.4377
   14SAPS   H4R 1771   5.044   2.614   2.768  1.5667  0.7251 -0.8343
   14SAPS   H4S 1772   4.959   2.661   2.917  0.8120  0.1065  0.6868
   14SAPS   C25 1773   5.170   2.707   2.921  0.4691  0.7470  0.2919
   14SAPS   H5R 1774   5.261   2.698   2.860 -0.3858 -2.1239 -0.7177
   14SAPS   C26 1775   5.187   2.732   3.055  0.4700  1.0327  0.1166
   14SAPS   H6R 1776   5.292   2.734   3.087  0.9273 -1.3907 -0.9553
   14SAPS   C27 1777   5.077   2.727   3.159 -1.0626  0.1686  0.0449
   14SAPS   H7R 1778   5.111   2.657   3.238 -1.4452 -0.1228 -0.0481
   14SAPS   H7S 1779   4.984   2.676   3.128 -0.2253 -1.8491  0.6707
   14SAPS   C28 1780   5.038   2.859   3.215 -0.9827 -0.3394 -0.4801
   14SAPS   H8R 1781   5.055   2.946   3.149  0.1281 -0.8396 -0.8828
   14SAPS   C29 1782   5.018   2.897   3.346 -0.0018 -0.4555 -0.2200
   14SAPS   H9R 1783   4.975   2.997   3.363 -0.8748 -1.1463  2.1084
   14SAPS  C210 1784   4.989   2.796   3.459  0.5554 -0.3917 -0.4175
   14SAPS  H10R 1785   4.975   2.691   3.425  1.6397 -0.8760  0.5294
   14SAPS  H10S 1786   4.889   2.829   3.493  0.6480 -1.2264  0.7437
   14SAPS  C211 1787   5.091   2.785   3.566  0.5951  0.3434  1.0800
   14SAPS  H11R 1788   5.193   2.765   3.531 -0.4707 -1.2850 -1.3614
   14SAPS  C212 1789   5.076   2.793   3.697  0.1319  0.4922 -1.3003
   14SAPS  H12R 1790   5.161   2.776   3.765 -2.0262  1.7682  1.9812
   14SAPS  C213 1791   4.948   2.797   3.770 -0.3976 -0.0021  0.8085
   14SAPS  H13R 1792   4.969   2.770   3.876 -0.0165 -0.4415  0.6201
   14SAPS  H13S 1793   4.880   2.718   3.733 -1.7661  0.9234  1.2279
   14SAPS  C214 1794   4.863   2.925   3.764 -0.1281 -0.0533  0.5152
   14SAPS  H14R 1795   4.865   2.977   3.667 -0.3421 -0.8615  0.0713
   14SAPS  C215 1796   4.787   2.971   3.865  0.0071  0.7235 -0.4961
   14SAPS  H15R 1797   4.725   3.059   3.841  1.4422  1.8317 -0.3266
   14SAPS  C216 1798   4.780   2.928   4.012 -0.2242  0.4222 -0.2029
   14SAPS  H16R 1799   4.798   3.022   4.069 -0.3808  0.0331  0.4940
   14SAPS  H16S 1800   4.855   2.850   4.036  2.2658  1.8900 -2.6319
   14SAPS  C217 1801   4.642   2.871   4.058  0.4713  0.4194 -0.7730
   14SAPS  H17R 1802   4.549   2.925   4.028 -1.3012 -1.6512  0.6440
   14SAPS  H17S 1803   4.637   2.860   4.168 -2.1012 -2.3572 -1.0305
   14SAPS  C218 1804   4.630   2.729   4.002 -0.2381  1.0618 -0.3169
   14SAPS  H18R 1805   4.714   2.660   4.024 -2.1915 -2.4759 -2.8253
   14SAPS  H18S 1806   4.616   2.740   3.893 -0.1862  1.9870 -0.2359
   14SAPS  C219 1807   4.512   2.649   4.058  0.0183  0.3894 -0.2658
   14SAPS  H19R 1808   4.426   2.702   4.013  0.4124 -1.9359 -4.2920
   14SAPS  H19S 1809   4.508   2.659   4.168  0.8924 -0.1617 -0.1717
   14SAPS  C220 1810   4.500   2.506   4.010  0.1112  0.4565  0.2359
   14SAPS  H20R 1811   4.589   2.445   4.039  0.3092  0.8181  0.3932
   14SAPS  H20S 1812   4.508   2.500   3.899  2.6144 -2.5780  0.4183
   14SAPS  H20T 1813   4.410   2.447   4.036  1.1890 -0.9229  0.9978
   14SAPS   C33 1814   4.236   3.002   2.870  0.2987  0.0321 -0.6873
   14SAPS   H3X 1815   4.240   2.901   2.826  2.4039 -1.2497  2.1232
   14SAPS   H3Y 1816   4.133   3.044   2.864  0.8819  1.7940  0.4641
   14SAPS   C34 1817   4.280   2.982   3.014 -0.6620  0.1498  0.4324
   14SAPS   H4X 1818   4.279   3.078   3.069 -0.6102  0.7885 -0.6455
   14SAPS   H4Y 1819   4.384   2.946   3.023 -0.8474 -0.6337 -0.3404
   14SAPS   C35 1820   4.187   2.889   3.087  0.4636 -0.5729  0.5788
   14SAPS   H5X 1821   4.193   2.791   3.036 -1.3843 -0.0492 -0.7611
   14SAPS   H5Y 1822   4.090   2.938   3.064  1.6958  1.8177  0.1469
   14SAPS   C36 1823   4.223   2.880   3.239 -0.2910 -0.3933  0.3941
   14SAPS   H6X 1824   4.201   2.972   3.297  1.9598 -1.7617  3.7491
   14SAPS   H6Y 1825   4.333   2.865   3.246 -0.0654  0.4502 -1.0204
   14SAPS   C37 1826   4.148   2.772   3.310  0.5453 -0.1714 -1.1431
   14SAPS   H7X 1827   4.144   2.674   3.257 -0.0447 -0.7358 -0.0971
   14SAPS   H7Y 1828   4.044   2.811   3.314  0.8766  0.6940 -0.6319
   14SAPS   C38 1829   4.197   2.740   3.449 -0.5352 -0.1603 -0.6242
   14SAPS   H8X 1830   4.200   2.834   3.509  0.4554 -0.4918 -0.1409
   14SAPS   H8Y 1831   4.304   2.712   3.444 -0.7235 -0.9085 -0.5961
   14SAPS   C39 1832   4.107   2.636   3.525  0.0322 -0.2676  0.0358
   14SAPS   H9X 1833   4.134   2.537   3.483 -0.8713 -0.7849  0.6492
   14SAPS   H9Y 1834   3.999   2.657   3.508  0.3440 -0.1607 -2.0718
   14SAPS  C310 1835   4.125   2.628   3.677  0.2058  0.9178 -0.7733
   14SAPS  H10X 1836   4.091   2.725   3.719 -0.1854  1.2403 -1.7986
   14SAPS  H10Y 1837   4.233   2.613   3.697 -0.3000 -1.2376  0.7265
   14SAPS  C311 1838   4.054   2.510   3.750  0.1440 -0.0791  0.5679
   14SAPS  H11X 1839   4.127   2.427   3.741 -0.0326 -0.2334  0.5377
   14SAPS  H11Y 1840   3.957   2.474   3.708 -0.8855 -0.0796  2.8357
   14SAPS  C312 1841   4.022   2.529   3.893 -0.3583 -0.2836 -1.1777
   14SAPS  H12X 1842   3.932   2.592   3.912  0.3082  0.4323 -0.2802
   14SAPS  H12Y 1843   4.101   2.591   3.940 -0.3875  1.0419 -2.7519
   14SAPS  C313 1844   4.021   2.398   3.969  0.5575 -0.3623  0.6365
   14SAPS  H13X 1845   4.086   2.318   3.928 -0.4803 -0.5942 -0.6470
   14SAPS  H13Y 1846   3.920   2.351   3.969  0.5204 -0.2887  0.1748
   14SAPS  C314 1847   4.067   2.418   4.114  0.0147  0.1876 -0.2227
   14SAPS  H14X 1848   4.005   2.496   4.163  0.9743  0.9519 -0.2164
   14SAPS  H14Y 1849   4.175   2.442   4.115 -0.1596  1.0133 -0.6439
   14SAPS  C315 1850   4.023   2.295   4.190 -0.0074  0.4235 -0.5473
   14SAPS  H15X 1851   4.081   2.211   4.146  1.3785  1.0337  0.0551
   14SAPS  H15Y 1852   3.913   2.287   4.177 -0.0168  2.1342 -1.8471
   14SAPS  C316 1853   4.061   2.297   4.343 -0.0004  0.0295 -0.1549
   14SAPS  H16X 1854   3.970   2.257   4.392  1.3301  0.2393  2.6935
   14SAPS  H16Y 1855   4.072   2.398   4.388 -0.4021 -1.4587  3.6842
   14SAPS  C317 1856   4.188   2.217   4.370 -0.4334  0.4889  0.0046
   14SAPS  H17X 1857   4.174   2.112   4.336 -0.8864  0.0710  1.4329
   14SAPS  H17Y 1858   4.201   2.193   4.478 -0.2521 -1.6932 -0.4517
   14SAPS  C318 1859   4.309   2.275   4.312  0.3216  0.1505 -0.1278
   14SAPS  H18X 1860   4.316   2.379   4.350  3.0200 -0.3593  0.9881
   14SAPS  H18Y 1861   4.300   2.258   4.203  0.5547 -1.9641  0.1451
   14SAPS  H18Z 1862   4.395   2.220   4.355  1.0424  0.1168 -1.5377
   15SAPS     N 1863   2.943   3.774   2.008  0.5620 -0.2744  0.2131
   15SAPS   HN1 1864   2.969   3.785   1.908  2.5651  1.1516  0.8476
   15SAPS   HN2 1865   2.845   3.737   2.004  0.2221  0.5200  1.0324
   15SAPS   HN3 1866   2.947   3.868   2.050  2.6769  0.1521 -0.8132
   15SAPS   C12 1867   3.040   3.676   2.067  1.5254  0.0735  0.8268
   15SAPS  H12A 1868   3.064   3.609   1.986 -3.1515 -0.5872 -0.3055
   15SAPS   C13 1869   3.170   3.727   2.130  0.9973 -0.8412  0.1506
   15SAPS  O13A 1870   3.190   3.851   2.137 -0.3647  0.2906  0.2490
   15SAPS  O13B 1871   3.250   3.646   2.182 -0.0079  0.8243  0.0516
   15SAPS   C11 1872   2.964   3.594   2.172  0.7494  0.0764 -0.3103
   15SAPS  H11A 1873   2.953   3.653   2.265 -0.7359 -1.5118  0.5756
   15SAPS  H11B 1874   3.026   3.504   2.192 -0.4201 -0.6991 -0.0693
   15SAPS     P 1875   2.746   3.469   2.229  0.4428  0.1332 -0.2193
   15SAPS   O13 1876   2.615   3.472   2.162  0.2969 -0.3317  0.9161
   15SAPS   O14 1877   2.798   3.338   2.280  0.4227 -0.0035 -0.1688
   15SAPS   O12 1878   2.842   3.538   2.125 -0.0133  0.2527  0.2561
   15SAPS   O11 1879   2.750   3.569   2.348  0.3384  0.1877  0.1311
   15SAPS    C1 1880   2.747   3.517   2.482 -0.2390 -0.1649  0.0297
   15SAPS    HA 1881   2.638   3.513   2.500 -0.1217 -1.2466  0.5941
   15SAPS    HB 1882   2.782   3.413   2.500 -0.5118 -0.0018  1.6079
   15SAPS    C2 1883   2.814   3.608   2.590 -0.0272  1.1090  0.8613
   15SAPS    HS 1884   2.771   3.574   2.687 -3.3102  0.0907 -0.7764
   15SAPS   O21 1885   2.777   3.740   2.571 -0.2680  0.5554 -0.2933
   15SAPS   C21 1886   2.665   3.784   2.627  0.9278 -0.3880 -0.8750
   15SAPS   O22 1887   2.576   3.718   2.674  0.1230  0.2301  0.5861
   15SAPS   C22 1888   2.675   3.934   2.634  0.2922 -0.7812  0.6478
   15SAPS   H2R 1889   2.729   3.980   2.549 -1.8688  0.5897 -0.0672
   15SAPS   H2S 1890   2.577   3.986   2.634  0.7259  0.0690  1.2996
   15SAPS    C3 1891   2.969   3.591   2.585  0.3897 -0.2047 -0.2629
   15SAPS    HX 1892   3.013   3.632   2.492 -2.3229  1.6548 -0.8311
   15SAPS    HY 1893   2.987   3.482   2.571  2.1945  0.0052  0.0962
   15SAPS   O31 1894   3.035   3.633   2.706  0.1833  0.6576  0.8196
   15SAPS   C31 1895   3.106   3.744   2.697  0.2146  0.2683 -0.9180
   15SAPS   O32 1896   3.099   3.825   2.606  0.1235 -0.5434  0.3228
   15SAPS   C32 1897   3.204   3.753   2.813  0.2162  0.6392  0.1289
   15SAPS   H2X 1898   3.298   3.793   2.770 -0.0186  0.0523 -0.9594
   15SAPS   H2Y 1899   3.219   3.654   2.860 -0.2162  1.4422  2.0600
   15SAPS   C23 1900   2.757   3.967   2.757 -0.3809  0.6369 -0.6243
   15SAPS   H3R 1901   2.855   3.915   2.754 -1.3152 -1.4039  1.4610
   15SAPS   H3S 1902   2.709   3.930   2.850  0.4846  0.5197 -0.2039
   15SAPS   C24 1903   2.769   4.123   2.785 -0.1986 -0.3526  0.0757
   15SAPS   H4R 1904   2.838   4.168   2.711 -1.3567  2.1295  0.3969
   15SAPS   H4S 1905   2.827   4.125   2.880  0.8015 -0.6271 -0.5133
   15SAPS   C25 1906   2.640   4.202   2.787 -1.7251  0.3454 -0.9809
   15SAPS   H5R 1907   2.595   4.211   2.688  2.2343 -0.2785 -3.0237
   15SAPS   C26 1908   2.592   4.274   2.893 -0.5148  0.5231 -0.6185
   15SAPS   H6R 1909   2.496   4.324   2.873 -1.1604  0.0858  1.1790
   15SAPS   C27 1910   2.639   4.263   3.034  0.5976  0.7367 -0.5425
   15SAPS   H7R 1911   2.668   4.158   3.053  0.5570  1.1345  2.0692
   15SAPS   H7S 1912   2.555   4.289   3.102  2.1538  0.5401  1.5484
   15SAPS   C28 1913   2.759   4.345   3.065 -0.3419 -0.1946  0.4557
   15SAPS   H8R 1914   2.831   4.362   2.984 -1.6205  1.2775 -0.4202
   15SAPS   C29 1915   2.778   4.407   3.180  0.1666  0.2756 -0.2780
   15SAPS   H9R 1916   2.870   4.467   3.179  1.0527 -0.8150 -4.2512
   15SAPS  C210 1917   2.683   4.419   3.299 -0.4220 -0.0318 -0.1199
   15SAPS  H10R 1918   2.577   4.425   3.264 -0.4948  1.9202  0.3456
   15SAPS  H10S 1919   2.698   4.525   3.331 -1.7220  0.1649 -0.1071
   15SAPS  C211 1920   2.701   4.318   3.409 -0.1080 -0.3959 -0.3374
   15SAPS  H11R 1921   2.746   4.223   3.377  1.8905  0.9719 -1.8626
   15SAPS  C212 1922   2.658   4.332   3.527  0.1828 -0.1687 -0.7118
   15SAPS  H12R 1923   2.671   4.257   3.606 -0.4237 -0.1305 -0.5700
   15SAPS  C213 1924   2.590   4.459   3.580  0.5688 -0.4540 -0.0502
   15SAPS  H13R 1925   2.533   4.512   3.500 -2.8907 -1.6446  1.4120
   15SAPS  H13S 1926   2.670   4.527   3.617  0.6199 -0.7567  0.4099
   15SAPS  C214 1927   2.480   4.447   3.682  0.4442 -0.2152 -0.4935
   15SAPS  H14R 1928   2.373   4.462   3.658 -0.5567 -0.3000  3.2477
   15SAPS  C215 1929   2.511   4.428   3.818  0.0125 -0.0583 -0.1771
   15SAPS  H15R 1930   2.434   4.419   3.896 -0.5789 -0.9144 -0.8430
   15SAPS  C216 1931   2.647   4.405   3.882  0.7089 -0.8175  0.0294
   15SAPS  H16R 1932   2.687   4.506   3.903 -1.7300 -0.2613  2.7209
   15SAPS  H16S 1933   2.715   4.349   3.815  0.5751 -0.1219 -0.6869
   15SAPS  C217 1934   2.619   4.334   4.014 -0.2578 -0.2292 -0.5363
   15SAPS  H17R 1935   2.549   4.249   3.998 -1.2254  0.8915 -2.6769
   15SAPS  H17S 1936   2.577   4.414   4.078  1.0404 -0.5175  0.7247
   15SAPS  C218 1937   2.744   4.267   4.083  0.1429 -0.7585  0.1235
   15SAPS  H18R 1938   2.829   4.336   4.069  0.3147 -1.5240 -3.3723
   15SAPS  H18S 1939   2.774   4.171   4.036  0.3915 -0.0295 -1.2598
   15SAPS  C219 1940   2.720   4.250   4.230 -0.2943 -0.6571 -0.1035
   15SAPS  H19R 1941   2.635   4.180   4.246  1.2531 -2.2280  1.6937
   15SAPS  H19S 1942   2.696   4.349   4.275  2.0747 -1.0076  2.1389
   15SAPS  C220 1943   2.845   4.209   4.309 -0.1007  0.3354  0.1979
   15SAPS  H20R 1944   2.821   4.178   4.413 -0.4981  0.0535  0.0253
   15SAPS  H20S 1945   2.920   4.289   4.296  0.4689 -0.4766 -1.9283
   15SAPS  H20T 1946   2.879   4.114   4.261 -1.3168  0.7762 -1.6312
   15SAPS   C33 1947   3.140   3.858   2.913 -0.3996 -0.1393 -0.4166
   15SAPS   H3X 1948   3.113   3.958   2.872 -0.6129 -0.7065 -1.6797
   15SAPS   H3Y 1949   3.207   3.872   3.000 -1.1966 -0.9115  0.3441
   15SAPS   C34 1950   3.015   3.799   2.979  0.1208  0.5329  0.2048
   15SAPS   H4X 1951   3.021   3.696   3.020 -2.2255 -0.3414 -1.4539
   15SAPS   H4Y 1952   2.938   3.792   2.899  1.0497  2.5858 -0.9468
   15SAPS   C35 1953   2.970   3.883   3.093 -0.4264 -0.3773 -0.4553
   15SAPS   H5X 1954   2.965   3.992   3.073 -0.7150 -0.5752 -1.5332
   15SAPS   H5Y 1955   3.045   3.878   3.175 -0.1282  1.0364 -0.6270
   15SAPS   C36 1956   2.836   3.854   3.153  0.2757  0.2270 -0.1545
   15SAPS   H6X 1957   2.822   3.746   3.177 -1.3597  0.5724  0.5961
   15SAPS   H6Y 1958   2.752   3.872   3.083 -0.1599 -0.3364  0.2076
   15SAPS   C37 1959   2.801   3.944   3.271  0.0759  0.0615 -0.6632
   15SAPS   H7X 1960   2.793   4.049   3.236 -2.3712 -0.2352 -1.1118
   15SAPS   H7Y 1961   2.885   3.926   3.342 -1.1467 -1.1149  0.5509
   15SAPS   C38 1962   2.669   3.896   3.348  0.0045 -0.6492  0.2809
   15SAPS   H8X 1963   2.665   3.787   3.368 -2.3007 -0.4148  1.5381
   15SAPS   H8Y 1964   2.579   3.923   3.289  0.6915  2.2311  0.3635
   15SAPS   C39 1965   2.639   3.960   3.481  0.6363 -0.2262  0.4871
   15SAPS   H9X 1966   2.552   3.913   3.532  0.9155 -0.1391  1.0614
   15SAPS   H9Y 1967   2.606   4.064   3.465 -2.4862 -1.1834  0.1048
   15SAPS  C310 1968   2.752   3.939   3.585  0.1473  0.6817  0.2448
   15SAPS  H10X 1969   2.836   4.005   3.555  0.9508  0.7655  2.4644
   15SAPS  H10Y 1970   2.786   3.834   3.583 -1.6672  0.0630 -0.1787
   15SAPS  C311 1971   2.705   3.964   3.731  0.0562 -0.1452  0.4480
   15SAPS  H11X 1972   2.637   4.051   3.743 -1.5548 -1.4619  1.2706
   15SAPS  H11Y 1973   2.797   3.968   3.793  0.6099 -1.1382 -0.2946
   15SAPS  C312 1974   2.626   3.850   3.783  0.6006 -0.6150  0.3084
   15SAPS  H12X 1975   2.696   3.764   3.794  4.6788  2.4867  1.0753
   15SAPS  H12Y 1976   2.543   3.835   3.711 -0.6276 -0.6047  1.6654
   15SAPS  C313 1977   2.561   3.872   3.919 -0.2419 -0.0076 -0.2812
   15SAPS  H13X 1978   2.522   3.975   3.929  0.1418  0.2016 -0.9034
   15SAPS  H13Y 1979   2.637   3.875   4.000 -1.7230 -1.1815  1.2475
   15SAPS  C314 1980   2.442   3.773   3.940 -0.5785 -0.0959 -0.2006
   15SAPS  H14X 1981   2.471   3.671   3.909  0.6136 -0.1806  1.1134
   15SAPS  H14Y 1982   2.344   3.799   3.894 -0.7025  0.3529  0.3093
   15SAPS  C315 1983   2.410   3.760   4.091  0.0399  0.4314 -0.2314
   15SAPS  H15X 1984   2.411   3.864   4.131  0.6061 -0.2531  1.6486
   15SAPS  H15Y 1985   2.479   3.694   4.147  0.4653  0.4669 -0.7122
   15SAPS  C316 1986   2.258   3.715   4.111 -0.0336  0.6873  0.2326
   15SAPS  H16X 1987   2.228   3.615   4.074  0.0711  0.8149 -0.2040
   15SAPS  H16Y 1988   2.188   3.782   4.057 -0.4049 -1.4716 -2.1772
   15SAPS  C317 1989   2.215   3.696   4.254 -0.3336  0.5700 -1.0424
   15SAPS  H17X 1990   2.108   3.666   4.253  0.2162 -1.6067 -0.3766
   15SAPS  H17Y 1991   2.238   3.792   4.305  1.5867  0.1475 -1.0380
   15SAPS  C318 1992   2.288   3.581   4.328 -0.4850  0.4165  1.1228
   15SAPS  H18X 1993   2.261   3.590   4.436  0.3858  1.2870  1.2772
   15SAPS  H18Y 1994   2.397   3.596   4.316 -0.2755 -1.8081 -0.3128
   15SAPS  H18Z 1995   2.257   3.484   4.284  4.2116 -0.9828  0.3915
   16SAPS     N 1996   6.297   0.165   1.822 -0.6903  0.7882 -0.0193
   16SAPS   HN1 1997   6.302   0.139   1.721 -1.0605  2.6500 -0.5615
   16SAPS   HN2 1998   6.381   0.224   1.837  0.8530 -0.4571 -2.9710
   16SAPS   HN3 1999   6.307   0.077   1.876  0.2376 -0.2564 -1.7786
   16SAPS   C12 2000   6.154   0.211   1.838 -0.8589  0.2232  0.4206
   16SAPS  H12A 2001   6.137   0.296   1.773  0.6997  0.1680 -0.0974
   16SAPS   C13 2002   6.052   0.099   1.790  0.4084 -0.7953 -0.5077
   16SAPS  O13A 2003   6.099  -0.010   1.763  0.0837 -0.4084  0.8198
   16SAPS  O13B 2004   5.929   0.132   1.788  0.0689  0.1532  0.0986
   16SAPS   C11 2005   6.136   0.252   1.987  0.7310 -0.1859 -0.6349
   16SAPS  H11A 2006   6.134   0.158   2.047  1.7746 -0.2411 -0.6750
   16SAPS  H11B 2007   6.033   0.292   1.982  0.4323 -0.7847  0.3427
   16SAPS     P 2008   6.203   0.496   2.049  0.4511  0.3352  0.6602
   16SAPS   O13 2009   6.325   0.562   2.084  0.2836  0.7249 -0.0762
   16SAPS   O14 2010   6.135   0.536   1.924 -0.6844  0.5635 -0.9334
   16SAPS   O12 2011   6.237   0.340   2.047 -0.2102  0.4304  0.4990
   16SAPS   O11 2012   6.094   0.514   2.169  0.2455  0.5796  0.2810
   16SAPS    C1 2013   6.125   0.445   2.292  0.6639 -0.4609  0.1669
   16SAPS    HA 2014   6.232   0.420   2.313  0.7697  0.1204  0.3429
   16SAPS    HB 2015   6.091   0.512   2.375 -3.1454 -1.5556 -0.3303
   16SAPS    C2 2016   6.052   0.311   2.322  0.3823  0.7507  0.0616
   16SAPS    HS 2017   6.054   0.234   2.242 -0.6626  0.2560  0.5032
   16SAPS   O21 2018   5.919   0.342   2.364  0.0294  0.3452  0.9031
   16SAPS   C21 2019   5.830   0.367   2.268 -0.7811  0.3480 -0.4318
   16SAPS   O22 2020   5.829   0.318   2.155  0.0426 -0.0509  0.5700
   16SAPS   C22 2021   5.737   0.476   2.322  0.2670  0.4891 -0.0999
   16SAPS   H2R 2022   5.689   0.443   2.417 -0.5644 -1.9922 -1.3054
   16SAPS   H2S 2023   5.816   0.547   2.357  0.3957  0.3748 -0.1561
   16SAPS    C3 2024   6.115   0.252   2.450 -0.6872 -0.1040  0.5430
   16SAPS    HX 2025   6.119   0.333   2.526 -1.3545  3.6891 -3.0766
   16SAPS    HY 2026   6.219   0.227   2.419 -0.6169 -0.4948  1.0871
   16SAPS   O31 2027   6.045   0.139   2.494  0.1686  0.5622 -0.4023
   16SAPS   C31 2028   6.081   0.019   2.440  0.3900 -0.3080  0.0458
   16SAPS   O32 2029   6.168   0.014   2.356 -0.0230  0.0710 -0.2441
   16SAPS   C32 2030   6.008  -0.087   2.514  0.3600 -0.2495  0.6167
   16SAPS   H2X 2031   6.076  -0.174   2.504  2.2231  1.2693 -0.6615
   16SAPS   H2Y 2032   5.921  -0.103   2.448 -0.3076 -0.7245  1.5890
   16SAPS   C23 2033   5.643   0.538   2.224  0.0027 -0.3959 -0.0485
   16SAPS   H3R 2034   5.556   0.474   2.198 -0.7491  0.9761 -1.0785
   16SAPS   H3S 2035   5.696   0.574   2.133  2.2498 -0.0073  1.3352
   16SAPS   C24 2036   5.559   0.652   2.292  0.5326  0.0144 -0.2009
   16SAPS   H4R 2037   5.503   0.613   2.379  2.6750  0.1756  1.3131
   16SAPS   H4S 2038   5.497   0.681   2.204 -0.2975 -1.6572 -0.1917
   16SAPS   C25 2039   5.636   0.776   2.333  0.5470 -0.4189  0.2161
   16SAPS   H5R 2040   5.654   0.847   2.250  0.8122  0.8991  1.3614
   16SAPS   C26 2041   5.677   0.812   2.460  0.4928 -0.2404 -0.0968
   16SAPS   H6R 2042   5.740   0.901   2.473  1.7373 -1.3975  2.3340
   16SAPS   C27 2043   5.643   0.747   2.590  0.5200  0.4455  0.1625
   16SAPS   H7R 2044   5.609   0.641   2.583  1.6940  0.0168  0.7379
   16SAPS   H7S 2045   5.555   0.793   2.639  0.6442  0.0009  0.8148
   16SAPS   C28 2046   5.756   0.739   2.683 -0.2480  0.3026  0.4207
   16SAPS   H8R 2047   5.818   0.831   2.681  0.8282 -0.4140 -1.6407
   16SAPS   C29 2048   5.801   0.643   2.757 -0.2589  0.3930  0.0295
   16SAPS   H9R 2049   5.897   0.657   2.809 -0.0232  0.7150 -0.4865
   16SAPS  C210 2050   5.740   0.504   2.784  0.2439 -0.2094  0.2663
   16SAPS  H10R 2051   5.639   0.491   2.740 -0.0129 -2.4888  1.3984
   16SAPS  H10S 2052   5.737   0.498   2.894  1.5657  2.4854  0.5389
   16SAPS  C211 2053   5.819   0.381   2.733 -0.2764  0.0476  0.1021
   16SAPS  H11R 2054   5.834   0.377   2.625  0.0728 -0.6550  0.1676
   16SAPS  C212 2055   5.893   0.300   2.811 -0.4210 -0.1405  0.4276
   16SAPS  H12R 2056   5.960   0.225   2.767  0.1818  1.1009 -0.8132
   16SAPS  C213 2057   5.899   0.299   2.955 -0.2229  0.3410 -0.7796
   16SAPS  H13R 2058   5.828   0.369   3.003  1.7852  1.9662 -0.0525
   16SAPS  H13S 2059   6.000   0.328   2.990 -1.2143  2.8492  0.2159
   16SAPS  C214 2060   5.861   0.160   3.008  0.1087 -0.8413  0.1124
   16SAPS  H14R 2061   5.846   0.080   2.934 -1.2148  0.3696 -1.0047
   16SAPS  C215 2062   5.839   0.143   3.138 -0.0031  0.8384  0.0730
   16SAPS  H15R 2063   5.814   0.045   3.179  3.2479 -0.3019 -0.3275
   16SAPS  C216 2064   5.867   0.243   3.240 -0.4113  0.1861 -0.2316
   16SAPS  H16R 2065   5.784   0.317   3.244  0.7702  1.5414  0.2946
   16SAPS  H16S 2066   5.960   0.303   3.229 -0.7283  0.9529  0.9799
   16SAPS  C217 2067   5.868   0.200   3.393 -0.1663  0.3546 -0.5506
   16SAPS  H17R 2068   5.951   0.129   3.410  1.2449  2.4870  2.2271
   16SAPS  H17S 2069   5.768   0.153   3.402 -2.3266  3.8228 -3.5948
   16SAPS  C218 2070   5.872   0.314   3.502 -0.2084 -0.1662  0.0804
   16SAPS  H18R 2071   5.793   0.389   3.479 -2.6705 -2.5758  0.0992
   16SAPS  H18S 2072   5.975   0.353   3.493 -0.8054  1.7227  0.9398
   16SAPS  C219 2073   5.864   0.267   3.649 -0.0806  0.0077 -0.1730
   16SAPS  H19R 2074   5.761   0.247   3.687 -0.4665  0.9908 -0.6458
   16SAPS  H19S 2075   5.875   0.361   3.707  0.2013  0.3542 -0.7783
   16SAPS  C220 2076   5.968   0.160   3.675  0.4607  0.2374 -0.4289
   16SAPS  H20R 2077   6.009   0.152   3.778  0.7244 -2.6181 -0.6766
   16SAPS  H20S 2078   6.062   0.172   3.617  0.3944 -0.4990 -0.7005
   16SAPS  H20T 2079   5.920   0.060   3.671  2.3494 -0.7721  0.8620
   16SAPS   C33 2080   5.968  -0.075   2.661  0.0898 -0.5812 -0.1386
   16SAPS   H3X 2081   5.899   0.010   2.678  1.1293 -0.1450  2.2368
   16SAPS   H3Y 2082   6.054  -0.062   2.730 -0.7907 -0.9977  1.0620
   16SAPS   C34 2083   5.885  -0.202   2.685  0.1015  0.9466 -0.5297
   16SAPS   H4X 2084   5.949  -0.293   2.678  0.2205  0.9461  0.4604
   16SAPS   H4Y 2085   5.808  -0.207   2.605 -0.1412 -0.5099 -0.2446
   16SAPS   C35 2086   5.832  -0.198   2.828  0.2914 -0.1698 -0.0775
   16SAPS   H5X 2087   5.750  -0.272   2.826  0.5106 -0.4368  0.5634
   16SAPS   H5Y 2088   5.779  -0.101   2.839  0.0467 -0.3668  0.5079
   16SAPS   C36 2089   5.941  -0.228   2.934 -0.1489  0.7308  0.1254
   16SAPS   H6X 2090   6.016  -0.148   2.920 -2.0154  2.3396 -1.3413
   16SAPS   H6Y 2091   5.986  -0.328   2.916  0.4148  0.9634  0.2482
   16SAPS   C37 2092   5.875  -0.226   3.074 -0.1028 -0.4646  0.3342
   16SAPS   H7X 2093   5.786  -0.293   3.077 -1.2486  0.9658 -0.2336
   16SAPS   H7Y 2094   5.835  -0.123   3.072 -0.3813 -0.5693 -1.4758
   16SAPS   C38 2095   5.968  -0.263   3.189  0.5581 -1.1004 -0.7525
   16SAPS   H8X 2096   6.060  -0.202   3.177 -1.1886  2.4486  1.8880
   16SAPS   H8Y 2097   5.991  -0.371   3.201  0.3007 -1.0641  0.1168
   16SAPS   C39 2098   5.903  -0.228   3.324 -0.0194 -0.1995 -0.3727
   16SAPS   H9X 2099   5.808  -0.283   3.342  1.8494 -2.8866  2.1299
   16SAPS   H9Y 2100   5.890  -0.118   3.328  2.3129  0.1250 -0.3756
   16SAPS  C310 2101   5.990  -0.261   3.451 -0.5836  0.2421 -0.2139
   16SAPS  H10X 2102   6.091  -0.214   3.442 -1.0809  2.0542  2.4299
   16SAPS  H10Y 2103   5.997  -0.372   3.451  1.3518  0.3274  0.0215
   16SAPS  C311 2104   5.933  -0.212   3.584  0.2024  0.8059 -0.1380
   16SAPS  H11X 2105   5.859  -0.289   3.616  0.6893  0.6562  0.6530
   16SAPS  H11Y 2106   5.886  -0.111   3.578 -0.1684  0.6832  0.5910
   16SAPS  C312 2107   6.039  -0.226   3.696 -0.0237 -1.1367  0.4813
   16SAPS  H12X 2108   6.137  -0.177   3.679 -0.2069 -0.8790  0.1674
   16SAPS  H12Y 2109   6.069  -0.333   3.700 -2.7063 -2.1363 -2.0626
   16SAPS  C313 2110   5.981  -0.173   3.832 -0.6662  0.3512 -0.3285
   16SAPS  H13X 2111   5.895  -0.241   3.849  0.3966 -1.4708 -1.8255
   16SAPS  H13Y 2112   5.936  -0.072   3.830 -0.5266  0.4373  0.5904
   16SAPS  C314 2113   6.083  -0.190   3.942 -0.4872 -0.3265 -0.4185
   16SAPS  H14X 2114   6.162  -0.113   3.938  3.0195 -3.4534  2.2640
   16SAPS  H14Y 2115   6.143  -0.282   3.924 -0.0481 -0.4843  1.6835
   16SAPS  C315 2116   6.016  -0.190   4.079  0.2829  0.3280  0.5826
   16SAPS  H15X 2117   5.945  -0.105   4.080  0.9437  0.8936  0.2817
   16SAPS  H15Y 2118   6.090  -0.174   4.160  2.1063 -0.3577 -0.8600
   16SAPS  C316 2119   5.932  -0.318   4.119 -0.2276 -0.4295  0.3387
   16SAPS  H16X 2120   5.871  -0.338   4.028 -1.0534  1.4927  0.4164
   16SAPS  H16Y 2121   5.857  -0.289   4.195 -1.0231 -4.2343  1.1842
   16SAPS  C317 2122   6.010  -0.434   4.167 -0.0219 -0.0712  0.0514
   16SAPS  H17X 2123   6.062  -0.410   4.262  0.9537 -0.4976 -0.3569
   16SAPS  H17Y 2124   6.100  -0.456   4.105 -0.0665 -0.0087 -0.0363
   16SAPS  C318 2125   5.924  -0.560   4.182 -0.4101 -1.4414 -0.1613
   16SAPS  H18X 2126   5.980  -0.641   4.232  1.3412 -0.0997  0.1701
   16SAPS  H18Y 2127   5.884  -0.603   4.088  0.1933 -2.1884 -0.0860
   16SAPS  H18Z 2128   5.828  -0.543   4.235  0.3432  1.4377  0.4603
   17SAPS     N 2129   5.857   4.770   2.427 -0.0874 -0.1581 -0.2159
   17SAPS   HN1 2130   5.897   4.674   2.429 -0.4981 -0.3225  1.2977
   17SAPS   HN2 2131   5.922   4.840   2.466 -0.1558 -0.9933  1.4900
   17SAPS   HN3 2132   5.771   4.773   2.486  0.5405  1.6995  0.6801
   17SAPS   C12 2133   5.806   4.793   2.290  0.1130  0.3073  0.0284
   17SAPS  H12A 2134   5.870   4.733   2.227 -1.2686 -1.6433  0.3763
   17SAPS   C13 2135   5.668   4.734   2.255 -0.0606 -0.3693  0.2209
   17SAPS  O13A 2136   5.597   4.680   2.343  0.1729  0.6487  1.0174
   17SAPS  O13B 2137   5.627   4.751   2.136  0.4109  0.5244 -0.0412
   17SAPS   C11 2138   5.821   4.941   2.261  0.2064 -0.2613 -0.3713
   17SAPS  H11A 2139   5.760   4.986   2.342 -0.0356 -2.1636  0.5609
   17SAPS  H11B 2140   5.779   4.971   2.163  3.0833  0.1928 -1.5554
   17SAPS     P 2141   6.015   5.121   2.240  0.1949  0.3281  0.1122
   17SAPS   O13 2142   6.164   5.112   2.250  0.5949 -0.2540 -0.1045
   17SAPS   O14 2143   5.968   5.166   2.112  0.4183 -0.6176  0.5965
   17SAPS   O12 2144   5.962   4.979   2.270 -0.5232  0.2700 -0.3044
   17SAPS   O11 2145   5.959   5.208   2.343 -0.5184 -0.1314  0.2249
   17SAPS    C1 2146   6.028   5.327   2.388  0.0646 -0.4020  0.2982
   17SAPS    HA 2147   6.138   5.321   2.403  0.4464  2.7391 -0.4378
   17SAPS    HB 2148   6.005   5.408   2.315  0.4276 -1.5519 -1.1451
   17SAPS    C2 2149   5.965   5.362   2.532  0.8366  0.0082  0.8220
   17SAPS    HS 2150   5.983   5.469   2.553  0.3171  0.4962 -1.0690
   17SAPS   O21 2151   6.024   5.268   2.627 -0.3178  0.1269 -0.0781
   17SAPS   C21 2152   6.134   5.303   2.681  0.1708  0.7349 -0.2032
   17SAPS   O22 2153   6.190   5.408   2.660 -0.0337  0.5222 -0.0568
   17SAPS   C22 2154   6.171   5.199   2.787 -0.0323 -0.4291 -0.3378
   17SAPS   H2R 2155   6.082   5.141   2.817  1.0039 -2.0079 -0.2006
   17SAPS   H2S 2156   6.230   5.120   2.736 -1.8436 -1.4821 -0.8821
   17SAPS    C3 2157   5.808   5.347   2.519  0.9800 -0.1612 -0.5712
   17SAPS    HX 2158   5.773   5.252   2.472  1.5034 -0.2954 -0.6909
   17SAPS    HY 2159   5.766   5.427   2.454  0.8313 -0.5539 -0.9616
   17SAPS   O31 2160   5.747   5.361   2.651 -0.1724  0.1379 -0.3086
   17SAPS   C31 2161   5.732   5.257   2.734  0.2340  0.2831  1.2223
   17SAPS   O32 2162   5.746   5.139   2.702  0.4283  0.7563  0.4415
   17SAPS   C32 2163   5.663   5.315   2.860  0.7649 -0.1525  0.2821
   17SAPS   H2X 2164   5.554   5.304   2.839  1.4062  0.8247 -5.1571
   17SAPS   H2Y 2165   5.680   5.424   2.858 -1.6805  0.2991  1.1008
   17SAPS   C23 2166   6.234   5.256   2.916 -0.0772  0.1490 -0.7322
   17SAPS   H3R 2167   6.168   5.334   2.959  0.3980  0.8969 -1.3496
   17SAPS   H3S 2168   6.338   5.290   2.901  0.9210 -2.0560  0.6446
   17SAPS   C24 2169   6.240   5.136   3.018  0.2961 -0.0058 -0.2690
   17SAPS   H4R 2170   6.134   5.110   3.040  0.5521  0.0301  1.1112
   17SAPS   H4S 2171   6.287   5.187   3.105  1.7984 -1.0035 -0.4480
   17SAPS   C25 2172   6.331   5.017   2.985 -0.9094 -0.4474  0.9712
   17SAPS   H5R 2173   6.385   5.021   2.890 -1.5467 -1.7289  0.5298
   17SAPS   C26 2174   6.341   4.903   3.053 -0.6190 -0.3796  0.1231
   17SAPS   H6R 2175   6.404   4.829   3.002 -0.3056 -0.0512  0.0274
   17SAPS   C27 2176   6.278   4.859   3.178 -0.9976  0.4443  0.2972
   17SAPS   H7R 2177   6.197   4.784   3.166  0.7826 -1.5726  0.1848
   17SAPS   H7S 2178   6.231   4.946   3.229 -0.5513  1.8838 -1.6421
   17SAPS   C28 2179   6.390   4.812   3.273  0.0884  0.3801  0.0004
   17SAPS   H8R 2180   6.493   4.834   3.242  1.1124 -0.9304  2.2948
   17SAPS   C29 2181   6.372   4.744   3.391  0.5135 -0.4893 -0.0252
   17SAPS   H9R 2182   6.464   4.731   3.450  0.4311  1.4235  0.5909
   17SAPS  C210 2183   6.243   4.687   3.446  0.1605  0.0863  0.2355
   17SAPS  H10R 2184   6.159   4.743   3.400  0.1096 -0.1302  0.0612
   17SAPS  H10S 2185   6.221   4.712   3.552 -1.8633 -1.2981  0.2043
   17SAPS  C211 2186   6.217   4.533   3.421 -0.1064 -1.0850  0.0732
   17SAPS  H11R 2187   6.173   4.511   3.322  3.3404 -1.7766 -1.4267
   17SAPS  C212 2188   6.218   4.442   3.519 -0.4622 -0.3946  0.3177
   17SAPS  H12R 2189   6.199   4.338   3.489  1.8004 -0.8940  0.4640
   17SAPS  C213 2190   6.284   4.465   3.655  0.1749 -0.0334 -0.5496
   17SAPS  H13R 2191   6.232   4.549   3.705 -0.4538 -0.6707 -0.0982
   17SAPS  H13S 2192   6.388   4.500   3.637  0.5255 -0.6452  0.2192
   17SAPS  C214 2193   6.272   4.344   3.741  0.3630  0.7143 -0.2586
   17SAPS  H14R 2194   6.258   4.250   3.686 -0.3343  0.5782  0.1437
   17SAPS  C215 2195   6.285   4.338   3.880  0.4854  0.4041 -0.1626
   17SAPS  H15R 2196   6.269   4.241   3.930 -1.1771  0.5549 -0.3495
   17SAPS  C216 2197   6.311   4.446   3.978 -0.3094 -0.4927 -0.0551
   17SAPS  H16R 2198   6.218   4.506   3.971 -0.0242 -0.1025 -0.6604
   17SAPS  H16S 2199   6.404   4.505   3.963 -1.0323  0.4397 -1.1134
   17SAPS  C217 2200   6.307   4.404   4.125  0.8115 -0.1906 -0.1901
   17SAPS  H17R 2201   6.208   4.355   4.129 -0.6365  2.2972 -2.3134
   17SAPS  H17S 2202   6.294   4.497   4.185 -3.3332  0.7367 -2.1493
   17SAPS  C218 2203   6.429   4.317   4.169  1.0178  0.3873 -0.0919
   17SAPS  H18R 2204   6.433   4.233   4.097 -3.0790 -0.1499  0.0614
   17SAPS  H18S 2205   6.413   4.276   4.272  0.5168  1.5762  0.3253
   17SAPS  C219 2206   6.561   4.389   4.169  0.5631  0.8234 -0.2535
   17SAPS  H19R 2207   6.539   4.478   4.232 -3.0981 -1.2286  1.6959
   17SAPS  H19S 2208   6.595   4.417   4.067  1.3993  0.6015 -0.0410
   17SAPS  C220 2209   6.661   4.294   4.236 -0.0086 -0.1219  0.1531
   17SAPS  H20R 2210   6.766   4.330   4.245 -0.2727  0.1661  2.4994
   17SAPS  H20S 2211   6.660   4.195   4.185 -2.0476 -0.6907  1.1760
   17SAPS  H20T 2212   6.624   4.277   4.339  0.7503  0.8402  0.5994
   17SAPS   C33 2213   5.703   5.246   2.998 -0.3494 -1.0279  0.7739
   17SAPS   H3X 2214   5.684   5.137   2.986 -0.2572 -0.9571 -0.1488
   17SAPS   H3Y 2215   5.627   5.290   3.066 -1.5502 -0.8557 -0.6296
   17SAPS   C34 2216   5.849   5.271   3.030  0.3602  0.1140  0.2754
   17SAPS   H4X 2217   5.886   5.355   2.968  1.0884 -0.3661  0.0458
   17SAPS   H4Y 2218   5.917   5.192   2.994 -0.4642 -0.2904 -0.4269
   17SAPS   C35 2219   5.874   5.303   3.180 -0.5257  0.0343  0.3584
   17SAPS   H5X 2220   5.852   5.202   3.221 -1.5435 -0.9088 -2.2969
   17SAPS   H5Y 2221   5.801   5.374   3.224 -1.6161 -1.3645  0.8974
   17SAPS   C36 2222   6.018   5.342   3.216  0.1843 -0.2987 -0.1872
   17SAPS   H6X 2223   6.042   5.437   3.164 -1.5676 -0.1054 -0.6811
   17SAPS   H6Y 2224   6.088   5.259   3.192  1.0651 -0.3384  2.2400
   17SAPS   C37 2225   6.040   5.359   3.369  0.3932 -0.5952 -0.4832
   17SAPS   H7X 2226   6.032   5.258   3.415  2.1936 -0.7277 -0.3708
   17SAPS   H7Y 2227   5.966   5.430   3.412  1.4494  0.8996 -1.0401
   17SAPS   C38 2228   6.187   5.413   3.393  0.1290 -0.2838 -0.4409
   17SAPS   H8X 2229   6.211   5.436   3.499  1.1305 -2.0915 -0.2445
   17SAPS   H8Y 2230   6.187   5.512   3.343 -2.0512 -0.2810 -0.5342
   17SAPS   C39 2231   6.307   5.315   3.369 -0.6056 -0.2424  0.9394
   17SAPS   H9X 2232   6.399   5.371   3.396 -0.6756  0.4593 -0.2287
   17SAPS   H9Y 2233   6.318   5.299   3.260 -0.8195  0.8356  0.7511
   17SAPS  C310 2234   6.301   5.177   3.430  0.0637  0.0104 -0.4230
   17SAPS  H10X 2235   6.384   5.111   3.396 -1.1463 -1.6889 -0.2214
   17SAPS  H10Y 2236   6.210   5.123   3.396  1.9734 -1.3597 -3.7734
   17SAPS  C311 2237   6.322   5.176   3.581 -0.0725  0.3267 -0.1194
   17SAPS  H11X 2238   6.319   5.069   3.611 -0.6017  0.5424  0.6452
   17SAPS  H11Y 2239   6.238   5.230   3.631 -0.6884 -0.5835 -0.1392
   17SAPS  C312 2240   6.452   5.233   3.634  0.1373 -0.4800  0.1816
   17SAPS  H12X 2241   6.460   5.344   3.628  0.1757 -0.4389  0.9434
   17SAPS  H12Y 2242   6.542   5.189   3.587  0.2139  1.8237 -2.1154
   17SAPS  C313 2243   6.459   5.186   3.778  0.1381 -0.3775 -0.0118
   17SAPS  H13X 2244   6.443   5.077   3.788 -0.5739 -0.1771  1.1122
   17SAPS  H13Y 2245   6.376   5.234   3.834  0.1740  0.1130 -0.3655
   17SAPS  C314 2246   6.588   5.230   3.851 -0.2731  0.7445 -0.7083
   17SAPS  H14X 2247   6.592   5.341   3.862  0.6980  0.4704  2.9468
   17SAPS  H14Y 2248   6.663   5.182   3.785 -1.3180  0.5621 -1.7932
   17SAPS  C315 2249   6.600   5.160   3.988 -0.3263  0.6202 -0.2192
   17SAPS  H15X 2250   6.704   5.181   4.021 -1.0054  2.5402  0.8154
   17SAPS  H15Y 2251   6.601   5.050   3.968 -0.6309  0.6362 -0.3295
   17SAPS  C316 2252   6.508   5.215   4.091 -0.0434 -0.0716  0.5153
   17SAPS  H16X 2253   6.407   5.192   4.050 -2.7646  3.8885  4.1333
   17SAPS  H16Y 2254   6.512   5.326   4.100 -2.8554  0.0999  0.6646
   17SAPS  C317 2255   6.528   5.160   4.233 -0.5901  0.0888 -0.3722
   17SAPS  H17X 2256   6.624   5.193   4.278 -0.2581 -0.4551 -0.6714
   17SAPS  H17Y 2257   6.515   5.050   4.235  0.2456 -0.0411 -1.1499
   17SAPS  C318 2258   6.433   5.233   4.322 -0.9417 -0.2281  0.1724
   17SAPS  H18X 2259   6.467   5.218   4.426  1.1471 -0.1138 -0.4581
   17SAPS  H18Y 2260   6.328   5.195   4.312 -1.5390  0.4349  3.0397
   17SAPS  H18Z 2261   6.440   5.343   4.317 -1.4788 -0.2476 -1.9729
   18SAPS     N 2262   3.554   1.899   2.018 -0.7615 -0.2999  0.6697
   18SAPS   HN1 2263   3.512   1.811   2.057 -0.2641 -0.3663  1.0727
   18SAPS   HN2 2264   3.622   1.866   1.947 -0.4396  0.1106  0.7868
   18SAPS   HN3 2265   3.609   1.944   2.094 -0.8047 -0.1252  0.5961
   18SAPS   C12 2266   3.448   1.985   1.963  0.6609 -0.9758  0.0038
   18SAPS  H12A 2267   3.494   2.080   1.939  0.3971 -1.2302 -1.5665
   18SAPS   C13 2268   3.392   1.934   1.831 -0.1232 -1.2886 -0.3069
   18SAPS  O13A 2269   3.443   1.840   1.770  0.4577 -0.1409  0.3594
   18SAPS  O13B 2270   3.302   2.005   1.781 -0.5976 -0.0374  0.3788
   18SAPS   C11 2271   3.343   2.019   2.068 -0.3052  0.1139  1.0385
   18SAPS  H11A 2272   3.318   1.926   2.123  1.0687 -1.1995 -0.4567
   18SAPS  H11B 2273   3.253   2.060   2.018  0.9965  0.0292 -1.5697
   18SAPS     P 2274   3.293   2.205   2.244  0.0852  0.1325 -0.1431
   18SAPS   O13 2275   3.268   2.335   2.172  0.1961 -0.3387  0.1780
   18SAPS   O14 2276   3.171   2.129   2.287 -0.3561  0.4784  0.2860
   18SAPS   O12 2277   3.388   2.116   2.164 -0.6298  0.1577  0.2298
   18SAPS   O11 2278   3.377   2.237   2.368  0.1025 -0.4946 -0.5031
   18SAPS    C1 2279   3.437   2.133   2.446 -0.6966 -0.0923 -0.2119
   18SAPS    HA 2280   3.488   2.062   2.378  0.7568  2.1528 -1.6116
   18SAPS    HB 2281   3.507   2.189   2.512 -1.6539 -0.7708  1.4504
   18SAPS    C2 2282   3.341   2.042   2.534  0.1895  0.6969  0.2990
   18SAPS    HS 2283   3.290   1.967   2.471 -0.4364  1.6408 -0.3278
   18SAPS   O21 2284   3.248   2.126   2.615 -0.0946 -0.2821  0.1966
   18SAPS   C21 2285   3.145   2.064   2.665 -0.1301  0.5236 -0.1249
   18SAPS   O22 2286   3.094   1.959   2.625 -0.3620  0.3094  0.0389
   18SAPS   C22 2287   3.079   2.155   2.768 -0.6024  0.7192 -0.3141
   18SAPS   H2R 2288   3.141   2.246   2.780 -1.0573  1.2982 -2.0026
   18SAPS   H2S 2289   2.989   2.202   2.721 -2.2814 -1.4798  0.5070
   18SAPS    C3 2290   3.430   1.952   2.621 -0.2006  0.0422  0.3330
   18SAPS    HX 2291   3.363   1.886   2.681 -1.0609  1.7830  1.3675
   18SAPS    HY 2292   3.477   2.016   2.698  1.0845 -0.8240  0.2951
   18SAPS   O31 2293   3.534   1.884   2.548 -0.7786  0.1751  0.0400
   18SAPS   C31 2294   3.503   1.762   2.517 -0.2102  0.6145 -0.4677
   18SAPS   O32 2295   3.390   1.711   2.521 -0.5565  0.5795  0.2372
   18SAPS   C32 2296   3.626   1.687   2.475 -0.4034  0.3992  0.0292
   18SAPS   H2X 2297   3.721   1.741   2.499 -0.5376  0.6612 -0.0248
   18SAPS   H2Y 2298   3.608   1.690   2.365 -2.5453  0.7651  0.3492
   18SAPS   C23 2299   3.050   2.073   2.890  0.3380  0.4503 -0.6645
   18SAPS   H3R 2300   2.963   2.010   2.860 -1.9863  2.5646  1.2076
   18SAPS   H3S 2301   3.005   2.124   2.977  0.7927  0.0124 -0.1648
   18SAPS   C24 2302   3.169   1.995   2.950  0.5854  0.2561 -0.3654
   18SAPS   H4R 2303   3.199   1.904   2.893 -0.7573 -1.5476  1.6199
   18SAPS   H4S 2304   3.127   1.936   3.035  0.0450 -1.5050 -1.7752
   18SAPS   C25 2305   3.272   2.102   2.986  0.1254 -0.3455 -0.0538
   18SAPS   H5R 2306   3.309   2.156   2.898 -0.9320 -2.6296 -1.9946
   18SAPS   C26 2307   3.287   2.158   3.110 -0.8663  0.0197  1.2894
   18SAPS   H6R 2308   3.359   2.240   3.124 -0.3931 -0.6448  2.9301
   18SAPS   C27 2309   3.214   2.122   3.236 -0.2356 -0.0718  0.2996
   18SAPS   H7R 2310   3.288   2.131   3.318  0.2615  3.2663 -0.3699
   18SAPS   H7S 2311   3.190   2.013   3.231 -1.8809  0.2102  1.2595
   18SAPS   C28 2312   3.081   2.198   3.263 -0.5464 -0.1612 -0.3147
   18SAPS   H8R 2313   3.009   2.164   3.188  0.9815 -1.1496 -1.3821
   18SAPS   C29 2314   3.045   2.293   3.352  0.4976  0.0878 -0.3331
   18SAPS   H9R 2315   2.947   2.342   3.350  0.2690 -0.3163  0.4103
   18SAPS  C210 2316   3.120   2.359   3.463 -0.5646  0.2260 -0.6132
   18SAPS  H10R 2317   3.171   2.452   3.431 -1.4876  0.5878 -1.0325
   18SAPS  H10S 2318   3.198   2.288   3.500 -1.5027  0.6135  2.4101
   18SAPS  C211 2319   3.028   2.393   3.586 -0.3764  0.7153 -0.0659
   18SAPS  H11R 2320   2.924   2.415   3.558  0.3219  0.9933 -2.7368
   18SAPS  C212 2321   3.052   2.379   3.708 -0.3994  0.0750  0.0796
   18SAPS  H12R 2322   2.974   2.404   3.782  1.0746  0.1384  1.6804
   18SAPS  C213 2323   3.177   2.336   3.778 -0.0101 -0.4828  0.3213
   18SAPS  H13R 2324   3.217   2.431   3.819 -1.3892  0.1145  0.3578
   18SAPS  H13S 2325   3.247   2.290   3.705  0.8958  0.2738  0.6972
   18SAPS  C214 2326   3.153   2.229   3.886 -0.5883 -0.2294  0.7231
   18SAPS  H14R 2327   3.083   2.147   3.864 -1.2464  0.6640 -0.6185
   18SAPS  C215 2328   3.211   2.230   4.008  0.0063 -0.8407 -0.2839
   18SAPS  H15R 2329   3.183   2.149   4.076  0.5089  0.3857  1.4623
   18SAPS  C216 2330   3.303   2.325   4.071  1.2261 -0.0461  0.7441
   18SAPS  H16R 2331   3.283   2.308   4.179 -0.7740  0.2576  0.4629
   18SAPS  H16S 2332   3.273   2.429   4.046  1.6021 -0.3188 -0.9796
   18SAPS  C217 2333   3.450   2.278   4.047  0.5512 -0.2018 -0.6863
   18SAPS  H17R 2334   3.485   2.311   3.947 -0.5729 -1.3872 -1.5127
   18SAPS  H17S 2335   3.461   2.168   4.065  1.3135  0.5195  5.3327
   18SAPS  C218 2336   3.555   2.343   4.140 -0.1619 -0.8487  0.0785
   18SAPS  H18R 2337   3.661   2.321   4.112  0.2834  1.0959  0.0850
   18SAPS  H18S 2338   3.549   2.312   4.246  0.6622  0.2260  0.4587
   18SAPS  C219 2339   3.536   2.490   4.148  0.1956 -0.7427 -0.0017
   18SAPS  H19R 2340   3.446   2.517   4.208  0.5976  1.3919 -0.3067
   18SAPS  H19S 2341   3.506   2.530   4.049  0.2099 -0.4142  0.1277
   18SAPS  C220 2342   3.659   2.577   4.197 -0.0021  0.0697 -0.0133
   18SAPS  H20R 2343   3.757   2.554   4.151  0.5456  0.4901  0.9215
   18SAPS  H20S 2344   3.672   2.556   4.305  2.0397 -1.0433 -0.4144
   18SAPS  H20T 2345   3.633   2.685   4.189  0.3589  0.2021  0.5811
   18SAPS   C33 2346   3.615   1.539   2.518  0.0664  0.6333 -0.2274
   18SAPS   H3X 2347   3.712   1.491   2.493 -1.0094 -1.7439 -0.0528
   18SAPS   H3Y 2348   3.537   1.488   2.458  0.2457  1.2310 -0.9795
   18SAPS   C34 2349   3.581   1.514   2.660 -0.2604 -0.1737  0.8976
   18SAPS   H4X 2350   3.609   1.407   2.667 -2.8512 -1.3552 -3.1668
   18SAPS   H4Y 2351   3.470   1.509   2.669 -0.5490 -1.7626 -2.2253
   18SAPS   C35 2352   3.665   1.585   2.769 -0.2898 -0.6817 -0.1734
   18SAPS   H5X 2353   3.643   1.693   2.763  2.0773  0.0670  2.3587
   18SAPS   H5Y 2354   3.772   1.571   2.741 -0.1922  0.5919 -0.5101
   18SAPS   C36 2355   3.649   1.529   2.910 -0.0978  0.6026  0.3045
   18SAPS   H6X 2356   3.648   1.419   2.894  0.6552  0.3403  1.9119
   18SAPS   H6Y 2357   3.541   1.536   2.934  0.0444  0.5399  0.9678
   18SAPS   C37 2358   3.740   1.568   3.021  0.3322  1.3643 -0.3637
   18SAPS   H7X 2359   3.745   1.677   3.045 -1.4416  0.9570  2.2390
   18SAPS   H7Y 2360   3.842   1.542   2.986 -0.7443 -2.7396 -0.9005
   18SAPS   C38 2361   3.702   1.505   3.155 -0.3354 -0.5846  0.2126
   18SAPS   H8X 2362   3.708   1.395   3.163  1.4336 -0.4142  1.9755
   18SAPS   H8Y 2363   3.600   1.541   3.177  0.6436 -0.0044  4.8346
   18SAPS   C39 2364   3.791   1.550   3.272  0.1478 -0.8175 -0.0975
   18SAPS   H9X 2365   3.784   1.659   3.287  0.4630 -0.8157  0.0400
   18SAPS   H9Y 2366   3.896   1.533   3.239  0.0773 -2.2150  0.3244
   18SAPS  C310 2367   3.754   1.474   3.403  0.5015  0.3074  0.0644
   18SAPS  H10X 2368   3.792   1.370   3.390 -0.6080 -0.2917  1.3405
   18SAPS  H10Y 2369   3.645   1.456   3.409  0.6928 -0.5731  1.1677
   18SAPS  C311 2370   3.798   1.540   3.531  0.1208 -0.2150 -0.4241
   18SAPS  H11X 2371   3.739   1.633   3.545 -0.0837 -0.2597 -0.9681
   18SAPS  H11Y 2372   3.905   1.572   3.531  0.3094 -0.6590  1.9780
   18SAPS  C312 2373   3.795   1.441   3.654 -0.0429 -0.2232  0.2242
   18SAPS  H12X 2374   3.834   1.339   3.635  2.4271  0.1778  2.5894
   18SAPS  H12Y 2375   3.687   1.431   3.678 -0.3108 -0.1838 -0.9222
   18SAPS  C313 2376   3.880   1.501   3.772  0.7690 -0.1110  0.9050
   18SAPS  H13X 2377   3.860   1.611   3.776 -0.2019 -0.2671  0.5552
   18SAPS  H13Y 2378   3.985   1.490   3.735  0.6233  0.9584  0.1042
   18SAPS  C314 2379   3.844   1.443   3.911  0.3604 -0.2227 -0.0228
   18SAPS  H14X 2380   3.871   1.335   3.916 -0.2229 -0.3303  1.1009
   18SAPS  H14Y 2381   3.737   1.456   3.937  0.0983 -1.2648 -0.5406
   18SAPS  C315 2382   3.920   1.515   4.027  0.4582  0.5803 -0.3304
   18SAPS  H15X 2383   3.875   1.616   4.029 -1.3166 -0.1547 -1.2252
   18SAPS  H15Y 2384   4.030   1.513   4.014  0.2132  2.4670 -3.9274
   18SAPS  C316 2385   3.869   1.443   4.160 -0.0323 -0.0308 -0.2098
   18SAPS  H16X 2386   3.878   1.334   4.139  1.5649  0.0799 -0.2319
   18SAPS  H16Y 2387   3.767   1.470   4.195  0.8297  0.5653  2.0615
   18SAPS  C317 2388   3.972   1.489   4.268 -1.0537 -0.0684  0.2726
   18SAPS  H17X 2389   4.013   1.592   4.260  0.4532 -0.5896  1.1017
   18SAPS  H17Y 2390   4.062   1.426   4.254 -1.4097 -0.1166 -2.3855
   18SAPS  C318 2391   3.920   1.466   4.409 -0.0773 -0.1627  0.3410
   18SAPS  H18X 2392   3.855   1.378   4.428 -0.2642  0.3824  2.4892
   18SAPS  H18Y 2393   3.848   1.546   4.435 -0.9321 -1.1541  1.1269
   18SAPS  H18Z 2394   4.003   1.460   4.483 -0.8889 -0.9869  1.2205
   19SAPS     N 2395   5.265   1.856   1.483  0.4437 -0.2894 -0.7354
   19SAPS   HN1 2396   5.219   1.784   1.424 -4.3652  2.9726 -1.5738
   19SAPS   HN2 2397   5.330   1.919   1.431  1.0241  1.4220  1.8993
   19SAPS   HN3 2398   5.313   1.815   1.565 -1.1103 -1.7862 -0.5218
   19SAPS   C12 2399   5.154   1.946   1.528  0.0820  0.3621  0.1114
   19SAPS  H12A 2400   5.195   2.044   1.510  0.3244  0.3876  0.7780
   19SAPS   C13 2401   5.026   1.928   1.448  0.7317 -0.0304  0.1084
   19SAPS  O13A 2402   5.018   1.833   1.364 -0.2906 -0.3468 -0.0236
   19SAPS  O13B 2403   4.924   1.997   1.459 -0.1497  0.0772 -0.0302
   19SAPS   C11 2404   5.129   1.926   1.682 -0.4226 -0.0205  0.3571
   19SAPS  H11A 2405   5.119   1.819   1.711  2.0594 -0.2237  0.6581
   19SAPS  H11B 2406   5.030   1.969   1.710  0.1009 -0.1692  2.6466
   19SAPS     P 2407   5.352   1.903   1.818 -0.0429  0.1364 -0.0181
   19SAPS   O13 2408   5.390   1.802   1.715 -0.5415 -0.4182 -0.0440
   19SAPS   O14 2409   5.458   1.993   1.847  0.0613 -0.0225 -0.3233
   19SAPS   O12 2410   5.234   1.977   1.765 -0.0237 -0.0805 -0.1977
   19SAPS   O11 2411   5.308   1.840   1.957  0.5687 -0.1635  0.0508
   19SAPS    C1 2412   5.180   1.764   1.972 -0.0496 -0.2188  0.2741
   19SAPS    HA 2413   5.089   1.825   1.956 -0.9148 -1.2661  1.0432
   19SAPS    HB 2414   5.171   1.691   1.889  0.7980 -0.9871  0.8384
   19SAPS    C2 2415   5.171   1.703   2.118 -0.1822  0.4008 -0.0528
   19SAPS    HS 2416   5.076   1.645   2.115 -0.8460  1.4085  0.7569
   19SAPS   O21 2417   5.164   1.814   2.223 -0.4650  0.0656  0.3515
   19SAPS   C21 2418   5.082   1.787   2.320  0.0974  0.0335  0.2942
   19SAPS   O22 2419   5.015   1.683   2.328  0.6191 -0.0605 -0.4419
   19SAPS   C22 2420   5.090   1.892   2.429 -0.0559  0.0536 -0.0625
   19SAPS   H2R 2421   5.197   1.921   2.434  0.1793 -0.7859 -0.1010
   19SAPS   H2S 2422   5.040   1.984   2.391 -0.0767 -0.8318 -2.3178
   19SAPS    C3 2423   5.297   1.613   2.149  0.3613  0.1251  0.6139
   19SAPS    HX 2424   5.384   1.678   2.130  2.0639 -2.2889 -0.3739
   19SAPS    HY 2425   5.303   1.532   2.073 -1.4739  0.9566 -0.4973
   19SAPS   O31 2426   5.288   1.559   2.285  0.5691 -0.4486  0.0925
   19SAPS   C31 2427   5.239   1.436   2.293  0.4722  0.5474 -0.2289
   19SAPS   O32 2428   5.192   1.371   2.196  0.1085 -0.7416 -0.0368
   19SAPS   C32 2429   5.223   1.388   2.434 -0.5658 -0.2401 -0.2175
   19SAPS   H2X 2430   5.289   1.445   2.503 -1.7240  1.1251 -0.2106
   19SAPS   H2Y 2431   5.265   1.285   2.432 -1.5849 -0.7597  1.8271
   19SAPS   C23 2432   5.032   1.841   2.562 -0.3671 -0.7197  0.2626
   19SAPS   H3R 2433   5.080   1.751   2.605 -2.8240 -2.5902 -0.6934
   19SAPS   H3S 2434   4.927   1.808   2.548 -0.2928 -0.9747  0.3043
   19SAPS   C24 2435   5.024   1.957   2.660  0.3809 -0.2022 -0.0691
   19SAPS   H4R 2436   4.980   2.042   2.604 -0.7673 -0.3167  0.6433
   19SAPS   H4S 2437   5.122   1.998   2.694 -0.2548  0.9542  0.4114
   19SAPS   C25 2438   4.946   1.911   2.783 -0.3940  0.2112  0.7155
   19SAPS   H5R 2439   4.838   1.927   2.771 -0.1806  1.2411  0.1168
   19SAPS   C26 2440   4.998   1.859   2.903  0.3891 -0.6137  0.1851
   19SAPS   H6R 2441   4.928   1.816   2.975  1.7701 -2.2156  0.6440
   19SAPS   C27 2442   5.144   1.829   2.937  0.4836  0.5807  0.7081
   19SAPS   H7R 2443   5.196   1.856   2.843 -2.3930 -0.5655 -1.3645
   19SAPS   H7S 2444   5.156   1.719   2.948 -1.3234  0.3567  0.8407
   19SAPS   C28 2445   5.194   1.918   3.046  0.6277 -0.6242  0.3098
   19SAPS   H8R 2446   5.199   2.023   3.013 -1.1520 -0.3441  0.8170
   19SAPS   C29 2447   5.210   1.875   3.174  0.2818  0.0394  0.3233
   19SAPS   H9R 2448   5.252   1.948   3.245  2.0142  0.1638 -0.7704
   19SAPS  C210 2449   5.192   1.737   3.229 -0.0350  0.0674  0.1537
   19SAPS  H10R 2450   5.124   1.680   3.162  0.1745 -0.0326  0.0275
   19SAPS  H10S 2451   5.127   1.735   3.320  1.6493 -0.5617  1.4048
   19SAPS  C211 2452   5.333   1.686   3.251  0.1456  0.2009  0.4658
   19SAPS  H11R 2453   5.385   1.659   3.158  0.8820 -0.5564  1.0831
   19SAPS  C212 2454   5.390   1.671   3.373  0.1812  0.4296  0.0896
   19SAPS  H12R 2455   5.492   1.634   3.389 -0.4524 -1.0944  0.8089
   19SAPS  C213 2456   5.319   1.686   3.504  0.0303 -0.1170 -0.0496
   19SAPS  H13R 2457   5.380   1.632   3.579  0.7901 -1.3288 -1.5003
   19SAPS  H13S 2458   5.217   1.641   3.508 -0.6594  1.4704  2.4790
   19SAPS  C214 2459   5.318   1.830   3.554  0.5070 -0.0021  0.1044
   19SAPS  H14R 2460   5.345   1.917   3.491  3.5978 -0.6147  0.3926
   19SAPS  C215 2461   5.301   1.860   3.682  0.5682 -0.0297  0.1589
   19SAPS  H15R 2462   5.310   1.962   3.723  0.9021  0.4618 -1.1098
   19SAPS  C216 2463   5.260   1.762   3.792  0.2677  0.3931  0.8070
   19SAPS  H16R 2464   5.298   1.658   3.780  0.7061  0.1212  3.7680
   19SAPS  H16S 2465   5.150   1.751   3.782  0.2797  0.0241  1.0640
   19SAPS  C217 2466   5.275   1.798   3.942  0.8492 -0.5413  0.2495
   19SAPS  H17R 2467   5.381   1.825   3.966 -0.0854  1.9710  2.0751
   19SAPS  H17S 2468   5.252   1.706   3.999  0.6234 -0.9145 -0.4435
   19SAPS  C218 2469   5.184   1.921   3.985 -0.7481 -0.2322 -0.1423
   19SAPS  H18R 2470   5.080   1.891   3.964 -0.2823 -1.0576 -1.3392
   19SAPS  H18S 2471   5.211   2.008   3.921  1.3405 -0.7659 -0.0772
   19SAPS  C219 2472   5.216   1.968   4.129 -0.1390  0.2903 -0.1787
   19SAPS  H19R 2473   5.158   2.059   4.156 -0.6249 -0.0488 -0.0686
   19SAPS  H19S 2474   5.325   1.982   4.146  0.2282  0.2615 -2.2670
   19SAPS  C220 2475   5.169   1.863   4.234  0.0736  0.2966 -0.4226
   19SAPS  H20R 2476   5.186   1.904   4.336  0.5842 -0.5380 -0.1600
   19SAPS  H20S 2477   5.248   1.786   4.223  0.1990  0.5118 -1.0551
   19SAPS  H20T 2478   5.063   1.833   4.222  0.4605 -1.3108 -0.0167
   19SAPS   C33 2479   5.087   1.374   2.491  0.2905  0.1244 -0.2213
   19SAPS   H3X 2480   5.019   1.320   2.421 -1.5883  1.2291  0.6678
   19SAPS   H3Y 2481   5.036   1.472   2.508 -3.7011 -1.8821  0.5351
   19SAPS   C34 2482   5.092   1.290   2.618 -0.0116  0.2565 -0.5194
   19SAPS   H4X 2483   5.145   1.193   2.607 -1.2333 -0.1428 -3.7784
   19SAPS   H4Y 2484   4.989   1.265   2.649  0.9197 -1.3791  1.5341
   19SAPS   C35 2485   5.159   1.366   2.740 -0.2419  0.5722 -0.1453
   19SAPS   H5X 2486   5.100   1.460   2.751 -2.7701 -0.7794 -1.2204
   19SAPS   H5Y 2487   5.264   1.396   2.721  0.0921 -1.0357 -0.9939
   19SAPS   C36 2488   5.162   1.281   2.868  0.0799 -0.5128 -0.2650
   19SAPS   H6X 2489   5.220   1.189   2.846 -0.9719 -0.8573 -1.7554
   19SAPS   H6Y 2490   5.060   1.252   2.898  0.4475  0.2262  1.8299
   19SAPS   C37 2491   5.220   1.350   2.995 -0.4823  0.0970  0.0073
   19SAPS   H7X 2492   5.177   1.453   3.001 -0.0886  0.2811 -0.2880
   19SAPS   H7Y 2493   5.330   1.359   2.998 -0.3512 -0.4715 -1.9669
   19SAPS   C38 2494   5.175   1.272   3.122  0.1427 -0.1759 -0.2185
   19SAPS   H8X 2495   5.189   1.164   3.101 -1.3058 -0.3050 -0.6370
   19SAPS   H8Y 2496   5.067   1.296   3.137 -0.2883 -1.7372 -0.6350
   19SAPS   C39 2497   5.251   1.306   3.250  0.1621 -0.5409  0.3397
   19SAPS   H9X 2498   5.242   1.416   3.268  0.8047 -0.6222  1.1833
   19SAPS   H9Y 2499   5.358   1.285   3.229 -0.1722 -1.2871 -0.7208
   19SAPS  C310 2500   5.201   1.233   3.374 -0.2095  0.4662  0.4962
   19SAPS  H10X 2501   5.220   1.128   3.343  0.6996  1.3153 -2.0539
   19SAPS  H10Y 2502   5.092   1.254   3.379 -0.4424 -0.7190  0.7491
   19SAPS  C311 2503   5.276   1.277   3.498  0.0688  0.8680 -0.4370
   19SAPS  H11X 2504   5.230   1.356   3.562  0.7619  1.7226 -0.9775
   19SAPS  H11Y 2505   5.373   1.322   3.468 -0.1530 -0.1513 -2.8557
   19SAPS  C312 2506   5.322   1.153   3.575  0.6311 -0.7655 -0.2248
   19SAPS  H12X 2507   5.379   1.088   3.505  0.5976  1.1478 -2.1084
   19SAPS  H12Y 2508   5.232   1.095   3.606 -1.2268  1.2104 -1.6862
   19SAPS  C313 2509   5.403   1.176   3.700  0.9913  0.2842  0.3638
   19SAPS  H13X 2510   5.361   1.266   3.750  0.6768  1.6029 -2.0862
   19SAPS  H13Y 2511   5.509   1.191   3.671  0.1093  1.2817 -2.7500
   19SAPS  C314 2512   5.391   1.054   3.798  0.2624  0.4884 -0.8004
   19SAPS  H14X 2513   5.448   0.964   3.768 -1.3159 -1.5219  1.7916
   19SAPS  H14Y 2514   5.286   1.016   3.801  0.1549  0.7815 -0.8040
   19SAPS  C315 2515   5.422   1.100   3.942 -0.2038  0.7666  0.7229
   19SAPS  H15X 2516   5.360   1.189   3.967 -0.5291  0.1204  2.2949
   19SAPS  H15Y 2517   5.529   1.130   3.943  0.3098 -0.7689 -1.3798
   19SAPS  C316 2518   5.403   0.982   4.045  0.0618  0.1190  0.3641
   19SAPS  H16X 2519   5.473   1.002   4.129  1.9260 -2.7120 -0.3592
   19SAPS  H16Y 2520   5.446   0.900   3.983 -1.7520  0.2705 -1.2039
   19SAPS  C317 2521   5.260   0.958   4.097  0.0860  0.8574 -0.0998
   19SAPS  H17X 2522   5.263   0.857   4.143 -1.9791  0.0641 -1.5964
   19SAPS  H17Y 2523   5.189   0.955   4.012 -0.9109  2.1340  0.6518
   19SAPS  C318 2524   5.216   1.058   4.211 -0.2591  0.8326 -0.3531
   19SAPS  H18X 2525   5.236   1.160   4.171  1.6251  0.2336 -1.0967
   19SAPS  H18Y 2526   5.272   1.027   4.302 -3.2943 -0.6787  1.1116
   19SAPS  H18Z 2527   5.110   1.041   4.239 -0.1288  0.8307  0.1404
   20SAPS     N 2528   4.648   1.449   2.006  0.1540  0.3551  0.1054
   20SAPS   HN1 2529   4.575   1.389   2.049  0.1391 -0.8731 -1.5827
   20SAPS   HN2 2530   4.696   1.504   2.080  0.3039  1.8858 -1.0720
   20SAPS   HN3 2531   4.594   1.520   1.953  1.2440  2.9199  2.1705
   20SAPS   C12 2532   4.733   1.366   1.926 -0.5998 -0.2086 -0.2722
   20SAPS  H12A 2533   4.671   1.334   1.843 -1.1009  1.3491 -0.5335
   20SAPS   C13 2534   4.866   1.413   1.858 -0.2937 -0.3700  0.0208
   20SAPS  O13A 2535   4.885   1.538   1.846 -0.3837 -0.0950  0.3095
   20SAPS  O13B 2536   4.925   1.330   1.786 -0.1107 -0.3334 -0.4305
   20SAPS   C11 2537   4.762   1.235   2.010  0.0632  0.1358  0.1017
   20SAPS  H11A 2538   4.818   1.278   2.096 -0.3156  1.5513 -0.3311
   20SAPS  H11B 2539   4.818   1.165   1.944 -1.1207  0.4519 -1.2851
   20SAPS     P 2540   4.607   1.028   2.083  0.3299  0.2361  0.3133
   20SAPS   O13 2541   4.462   1.011   2.049  0.1685  0.6639 -0.2337
   20SAPS   O14 2542   4.712   0.947   2.018 -0.1598 -0.1892 -0.2346
   20SAPS   O12 2543   4.636   1.179   2.057 -0.2034 -0.1558  0.3051
   20SAPS   O11 2544   4.623   1.019   2.241  0.4182 -0.0269  0.0178
   20SAPS    C1 2545   4.735   1.048   2.327 -0.2925 -0.5971  0.3574
   20SAPS    HA 2546   4.769   1.151   2.302 -0.9080 -0.2660  0.8429
   20SAPS    HB 2547   4.698   1.050   2.432 -2.5755 -1.3165 -0.3629
   20SAPS    C2 2548   4.845   0.940   2.323 -0.0118  0.2267 -0.0957
   20SAPS    HS 2549   4.880   0.938   2.218 -0.9262 -0.8982 -0.4056
   20SAPS   O21 2550   4.782   0.822   2.373  0.2681  0.0908  0.2256
   20SAPS   C21 2551   4.851   0.714   2.343 -0.4386  0.4420 -0.1791
   20SAPS   O22 2552   4.955   0.714   2.278  0.2196 -0.2887  0.5318
   20SAPS   C22 2553   4.792   0.602   2.425  0.0534  0.0427  0.2259
   20SAPS   H2R 2554   4.695   0.576   2.377  1.9453 -3.6489 -2.0194
   20SAPS   H2S 2555   4.857   0.514   2.413  0.2398  0.0779  0.9094
   20SAPS    C3 2556   4.977   0.976   2.404 -1.0208 -0.1262 -0.0489
   20SAPS    HX 2557   5.029   1.067   2.369  1.1723 -0.3478  2.2589
   20SAPS    HY 2558   5.058   0.901   2.392 -2.1421 -1.3362 -0.2971
   20SAPS   O31 2559   4.941   0.991   2.541  0.0091 -0.3700 -0.2240
   20SAPS   C31 2560   5.000   0.918   2.636  0.2429  0.4729 -0.2120
   20SAPS   O32 2561   5.077   0.825   2.601  0.1099 -0.0281  0.1312
   20SAPS   C32 2562   4.965   0.970   2.774 -0.2721  0.0172  0.0009
   20SAPS   H2X 2563   4.865   0.937   2.808  0.2105  0.6307  2.1796
   20SAPS   H2Y 2564   4.971   1.081   2.772 -0.4480  0.0316  0.2233
   20SAPS   C23 2565   4.774   0.642   2.569  0.4500  0.0917 -0.5323
   20SAPS   H3R 2566   4.706   0.729   2.575  0.4592  0.1010 -0.5588
   20SAPS   H3S 2567   4.873   0.666   2.612  1.2587 -1.6762 -1.2658
   20SAPS   C24 2568   4.707   0.528   2.657 -0.2651 -0.1322 -0.3353
   20SAPS   H4R 2569   4.606   0.523   2.609  1.0214 -0.6232 -3.2080
   20SAPS   H4S 2570   4.689   0.561   2.761  1.8428  3.1729 -0.8694
   20SAPS   C25 2571   4.784   0.402   2.648 -0.1010 -0.3326  0.2864
   20SAPS   H5R 2572   4.798   0.356   2.549  0.2146  1.7973 -0.7165
   20SAPS   C26 2573   4.827   0.325   2.750  0.1508 -0.3437 -0.4599
   20SAPS   H6R 2574   4.883   0.236   2.716  1.7072  0.2442  0.4784
   20SAPS   C27 2575   4.828   0.359   2.898  0.4194  1.4268  0.0918
   20SAPS   H7R 2576   4.848   0.261   2.947 -0.3322  1.1952 -0.0423
   20SAPS   H7S 2577   4.723   0.367   2.934  1.4340  0.7419  3.5784
   20SAPS   C28 2578   4.915   0.471   2.948  0.0100 -0.2135 -0.8542
   20SAPS   H8R 2579   4.966   0.525   2.866  3.0954 -1.6545 -0.0406
   20SAPS   C29 2580   4.933   0.511   3.077  0.4618 -0.3847  0.1795
   20SAPS   H9R 2581   4.985   0.607   3.090 -1.0377  0.6908 -1.3206
   20SAPS  C210 2582   4.879   0.457   3.209  0.0579  0.1371 -0.4861
   20SAPS  H10R 2583   4.928   0.504   3.296 -1.8557 -0.3129  0.8990
   20SAPS  H10S 2584   4.904   0.349   3.215  1.6532  0.4260 -1.4007
   20SAPS  C211 2585   4.725   0.468   3.222  0.1072  0.4254  0.0177
   20SAPS  H11R 2586   4.676   0.521   3.139  0.8495  3.1211  1.1789
   20SAPS  C212 2587   4.655   0.409   3.316 -0.3353  0.3746 -0.1889
   20SAPS  H12R 2588   4.552   0.444   3.331  0.2522  1.8234  0.7700
   20SAPS  C213 2589   4.703   0.334   3.440  0.0980 -0.4687  0.5003
   20SAPS  H13R 2590   4.766   0.245   3.418 -1.7271 -1.8055  0.4354
   20SAPS  H13S 2591   4.613   0.288   3.485 -1.1630  2.5527  1.3218
   20SAPS  C214 2592   4.765   0.420   3.545  0.2513 -0.2618 -0.7185
   20SAPS  H14R 2593   4.848   0.484   3.513  0.3847  0.8984  1.7048
   20SAPS  C215 2594   4.731   0.430   3.677  1.5009 -0.4590 -0.2938
   20SAPS  H15R 2595   4.780   0.515   3.727 -0.7016  1.0899 -0.6342
   20SAPS  C216 2596   4.605   0.361   3.730 -0.0357 -0.1631  0.2630
   20SAPS  H16R 2597   4.624   0.252   3.736 -2.1483 -0.5782  0.2004
   20SAPS  H16S 2598   4.525   0.359   3.653  1.1045 -2.1070 -0.9686
   20SAPS  C217 2599   4.551   0.419   3.859 -0.7458  0.4035  0.4079
   20SAPS  H17R 2600   4.451   0.372   3.871 -0.3768 -0.1198  1.6671
   20SAPS  H17S 2601   4.530   0.527   3.854  0.2051  0.7424  2.4390
   20SAPS  C218 2602   4.643   0.381   3.977 -0.4474 -0.0340 -0.3905
   20SAPS  H18R 2603   4.748   0.406   3.951 -0.6347  1.9860  0.5688
   20SAPS  H18S 2604   4.634   0.273   4.001 -4.0719 -0.0689 -1.4227
   20SAPS  C219 2605   4.594   0.462   4.108  0.0509  0.3146 -1.0320
   20SAPS  H19R 2606   4.492   0.429   4.138  0.8163 -1.3530 -0.1391
   20SAPS  H19S 2607   4.596   0.571   4.089  1.5908  0.6110  0.6174
   20SAPS  C220 2608   4.674   0.432   4.236  0.7710  0.1127  0.7943
   20SAPS  H20R 2609   4.765   0.495   4.250  0.1164  0.8736  1.7655
   20SAPS  H20S 2610   4.697   0.324   4.231  1.0776  0.2190 -1.0264
   20SAPS  H20T 2611   4.606   0.452   4.321  0.4754  0.9519  0.3786
   20SAPS   C33 2612   5.054   0.903   2.879 -0.4841 -0.4936 -0.4688
   20SAPS   H3X 2613   5.160   0.930   2.858 -0.7149 -0.4050 -1.5828
   20SAPS   H3Y 2614   5.036   0.793   2.876 -0.0572 -0.5515 -1.8730
   20SAPS   C34 2615   5.016   0.946   3.015 -0.2264  0.5891  0.4811
   20SAPS   H4X 2616   4.911   0.912   3.023 -0.2657  0.6307  0.1233
   20SAPS   H4Y 2617   5.027   1.055   3.033  1.0915  0.2453  2.0785
   20SAPS   C35 2618   5.098   0.875   3.120 -0.3357  1.0030  0.3885
   20SAPS   H5X 2619   5.170   0.952   3.156 -1.1810  3.6811 -3.0431
   20SAPS   H5Y 2620   5.142   0.774   3.107  0.2585  1.3649 -0.5358
   20SAPS   C36 2621   5.004   0.862   3.240 -0.2116  0.2895  0.0885
   20SAPS   H6X 2622   4.921   0.796   3.207 -1.9582  2.2993  0.2226
   20SAPS   H6Y 2623   4.953   0.961   3.246  1.0000  0.9274  0.2084
   20SAPS   C37 2624   5.067   0.826   3.378 -0.4830  0.3503 -0.2417
   20SAPS   H7X 2625   5.143   0.907   3.384  1.0768 -0.6720 -3.6073
   20SAPS   H7Y 2626   5.128   0.734   3.366 -0.9113  0.0340 -0.0551
   20SAPS   C38 2627   4.978   0.827   3.500  0.4225  0.3260  0.2531
   20SAPS   H8X 2628   4.877   0.790   3.470  0.4429 -0.6137  1.3029
   20SAPS   H8Y 2629   4.956   0.930   3.535  0.5936 -0.4285  2.8284
   20SAPS   C39 2630   5.030   0.746   3.620 -0.5729 -0.1627  0.5002
   20SAPS   H9X 2631   5.016   0.642   3.583 -1.7465  1.2440 -3.4981
   20SAPS   H9Y 2632   4.970   0.765   3.712  2.8195 -0.0080  2.9033
   20SAPS  C310 2633   5.179   0.770   3.645  0.2214  0.4266 -0.6271
   20SAPS  H10X 2634   5.192   0.880   3.636 -0.2196  0.4166 -1.4015
   20SAPS  H10Y 2635   5.238   0.729   3.560 -0.2982  0.3031 -0.9350
   20SAPS  C311 2636   5.226   0.710   3.775  0.0177  0.3451 -0.0718
   20SAPS  H11X 2637   5.169   0.774   3.845  1.9196  2.2716 -0.1838
   20SAPS  H11Y 2638   5.336   0.729   3.783  0.2242 -1.0501  0.8294
   20SAPS  C312 2639   5.188   0.568   3.809 -0.5476 -0.3043  0.2923
   20SAPS  H12X 2640   5.237   0.503   3.733  0.4997  1.7244 -0.8716
   20SAPS  H12Y 2641   5.079   0.556   3.797 -0.5555  0.1498 -0.0945
   20SAPS  C313 2642   5.225   0.520   3.944 -0.0613  0.0780  0.2304
   20SAPS  H13X 2643   5.233   0.612   4.006 -0.0094  0.3613 -0.1914
   20SAPS  H13Y 2644   5.327   0.477   3.955  0.9173  2.2452  0.2134
   20SAPS  C314 2645   5.116   0.436   4.005  0.1047  0.3913 -0.6340
   20SAPS  H14X 2646   5.056   0.373   3.937  0.2708 -2.7842  1.9140
   20SAPS  H14Y 2647   5.050   0.519   4.039  0.3839  0.9959 -1.5296
   20SAPS  C315 2648   5.168   0.354   4.132  0.6293 -0.4074 -0.6260
   20SAPS  H15X 2649   5.174   0.425   4.218 -2.7542  0.8880 -1.3082
   20SAPS  H15Y 2650   5.266   0.305   4.116  0.7180 -0.5542  0.2901
   20SAPS  C316 2651   5.074   0.236   4.178 -0.0061 -0.0782 -0.5621
   20SAPS  H16X 2652   4.978   0.289   4.198  0.7367  1.0686  0.0716
   20SAPS  H16Y 2653   5.109   0.203   4.278  0.4521  1.4613 -0.1948
   20SAPS  C317 2654   5.041   0.127   4.081  0.1154 -0.7499  0.2896
   20SAPS  H17X 2655   4.993   0.175   3.993  0.7441 -1.5049 -0.4956
   20SAPS  H17Y 2656   4.969   0.059   4.132  0.9687  0.0631  2.6805
   20SAPS  C318 2657   5.161   0.045   4.027  0.6589 -1.2678 -0.4022
   20SAPS  H18X 2658   5.243   0.113   3.997 -0.2763  0.3321  0.5464
   20SAPS  H18Y 2659   5.139  -0.030   3.948  1.1817  0.0190 -1.8136
   20SAPS  H18Z 2660   5.204  -0.010   4.113 -0.1932 -1.5230 -0.1233
   21CHL1    C3 2661   3.328   1.186   5.911 -0.0102  0.1123  0.0530
   21CHL1    H3 2662   3.258   1.131   5.844  0.0621 -0.8144  0.7164
   21CHL1    O3 2663   3.288   1.181   6.043  0.1681  0.2086  0.1055
   21CHL1   H3' 2664   3.217   1.246   6.052 -1.1184 -0.9862 -0.9197
   21CHL1    C4 2665   3.460   1.116   5.905 -0.0465  0.6289 -0.4087
   21CHL1   H4A 2666   3.526   1.179   5.967 -0.7637  1.7339 -0.7493
   21CHL1   H4B 2667   3.453   1.015   5.951  1.8736 -0.0094 -1.3842
   21CHL1    C5 2668   3.501   1.104   5.765 -0.4981  0.2499  0.1307
   21CHL1    C6 2669   3.532   0.982   5.713 -0.1539 -0.3548  0.6445
   21CHL1    H6 2670   3.511   0.901   5.784 -0.6994  0.6581  1.6638
   21CHL1    C7 2671   3.583   0.957   5.571  0.2223 -0.4631 -0.0329
   21CHL1   H7A 2672   3.661   0.878   5.575  2.0224  1.2192 -0.3870
   21CHL1   H7B 2673   3.499   0.911   5.515 -0.2302 -0.6501  0.7816
   21CHL1    C8 2674   3.629   1.090   5.506 -0.3678  0.2362 -0.1942
   21CHL1    H8 2675   3.727   1.115   5.551  0.2372 -1.4831 -0.4636
   21CHL1   C14 2676   3.637   1.055   5.356  0.4331  0.1835  0.1805
   21CHL1   H14 2677   3.528   1.048   5.334  0.1127 -0.8068  1.8384
   21CHL1   C15 2678   3.697   0.922   5.299  0.1708  0.1265  0.7455
   21CHL1  H15A 2679   3.798   0.906   5.342  0.6246  0.0184 -0.3426
   21CHL1  H15B 2680   3.630   0.833   5.311  0.1776 -0.0864 -0.7037
   21CHL1   C16 2681   3.721   0.955   5.152 -0.3162  0.3159  0.7090
   21CHL1  H16A 2682   3.831   0.961   5.140 -0.4598 -0.0194 -1.0888
   21CHL1  H16B 2683   3.693   0.876   5.079 -0.2564  0.6774  0.2913
   21CHL1   C17 2684   3.678   1.105   5.127  0.3494  0.9109 -0.1474
   21CHL1   H17 2685   3.577   1.103   5.081  0.5686  0.2704 -0.6277
   21CHL1   C13 2686   3.673   1.171   5.264  0.5737  0.4487 -0.0563
   21CHL1   C18 2687   3.811   1.224   5.284  0.2788 -0.6669 -0.9625
   21CHL1  H18A 2688   3.827   1.250   5.390 -1.7734 -1.5236 -0.3986
   21CHL1  H18B 2689   3.887   1.149   5.254 -0.4239 -0.8942 -2.2544
   21CHL1  H18C 2690   3.827   1.319   5.228  1.6061 -0.7983 -0.8406
   21CHL1   C12 2691   3.566   1.280   5.293  0.0095 -0.5173 -0.2493
   21CHL1  H12A 2692   3.604   1.368   5.237 -0.6537  0.7236  1.1963
   21CHL1  H12B 2693   3.465   1.253   5.255 -0.8123  0.9921  0.7869
   21CHL1   C11 2694   3.564   1.315   5.441  0.3629 -0.1003  0.0072
   21CHL1  H11A 2695   3.654   1.372   5.472 -0.7254  1.7533 -0.0995
   21CHL1  H11B 2696   3.486   1.392   5.455 -0.0466 -0.7432  1.4768
   21CHL1    C9 2697   3.535   1.196   5.531 -0.4310 -0.2423  0.0949
   21CHL1    H9 2698   3.434   1.163   5.499  0.1779 -0.6744 -1.4864
   21CHL1   C10 2699   3.509   1.235   5.680 -0.3016 -0.5753 -0.1670
   21CHL1   C19 2700   3.624   1.321   5.733 -0.1593 -0.6290 -0.2537
   21CHL1  H19A 2701   3.607   1.425   5.698  2.5905 -0.4136 -1.2244
   21CHL1  H19B 2702   3.630   1.313   5.844  1.3925 -2.4098 -0.4029
   21CHL1  H19C 2703   3.718   1.273   5.699  0.1969 -1.4100  1.7174
   21CHL1    C1 2704   3.381   1.321   5.704 -0.4587 -0.4960  0.0586
   21CHL1   H1A 2705   3.401   1.417   5.652  1.3515 -1.4368 -1.0759
   21CHL1   H1B 2706   3.296   1.274   5.650 -1.1095  1.3460 -0.5646
   21CHL1    C2 2707   3.347   1.331   5.860 -0.5133  0.1160  0.2323
   21CHL1   H2A 2708   3.250   1.381   5.880 -0.6999  0.4555 -1.3890
   21CHL1   H2B 2709   3.424   1.389   5.915  0.4717  0.6135 -1.6111
   21CHL1   C20 2710   3.760   1.159   5.014  0.1617  0.2793  0.3024
   21CHL1   H20 2711   3.868   1.170   5.039  0.2920  1.2630 -0.6150
   21CHL1   C21 2712   3.713   1.305   4.974 -1.0684 -0.3367  0.2217
   21CHL1  H21A 2713   3.701   1.371   5.063 -3.2164 -1.3879  0.7628
   21CHL1  H21B 2714   3.613   1.293   4.927 -0.9804 -0.9777  0.1951
   21CHL1  H21C 2715   3.787   1.341   4.899 -0.3532 -2.4801 -0.1662
   21CHL1   C22 2716   3.759   1.064   4.888  0.3482  0.2829 -0.1224
   21CHL1  H22A 2717   3.826   0.975   4.899  0.2053  0.0438 -1.1110
   21CHL1  H22B 2718   3.656   1.023   4.885  0.3568  0.1260  1.3014
   21CHL1   C23 2719   3.797   1.124   4.756  0.8675 -0.3812 -0.3501
   21CHL1  H23A 2720   3.728   1.209   4.737  0.8014 -0.2215  0.5796
   21CHL1  H23B 2721   3.894   1.177   4.766 -0.2545  1.6655  0.4501
   21CHL1   C24 2722   3.791   1.026   4.631  0.1250 -0.1879 -0.2216
   21CHL1  H24A 2723   3.855   0.936   4.640 -0.1237 -0.2386  1.3504
   21CHL1  H24B 2724   3.688   0.987   4.620  0.3791 -1.5887  1.7405
   21CHL1   C25 2725   3.836   1.103   4.508  0.3502 -0.9529  0.2861
   21CHL1   H25 2726   3.772   1.193   4.514  3.0872  1.0673  1.1765
   21CHL1   C26 2727   3.985   1.126   4.498  0.1528 -0.5178 -0.3052
   21CHL1  H26A 2728   4.006   1.195   4.414  2.2253 -1.1369 -0.3303
   21CHL1  H26B 2729   4.022   1.171   4.592 -1.3414  0.2655 -0.0640
   21CHL1  H26C 2730   4.054   1.043   4.473  1.3772  0.6793 -1.0187
   21CHL1   C27 2731   3.793   1.033   4.386 -0.2618 -0.0128 -0.3413
   21CHL1  H27A 2732   3.844   0.935   4.374 -0.0730 -0.2255  1.8096
   21CHL1  H27B 2733   3.686   1.004   4.381  0.0658 -1.1589 -1.2310
   21CHL1  H27C 2734   3.812   1.102   4.300 -3.3125  0.7048 -0.5700
   22CHL1    C3 2735   0.485   0.451   5.939  0.2500  0.3897 -0.6750
   22CHL1    H3 2736   0.489   0.344   5.969 -1.2950  0.7450  0.9807
   22CHL1    O3 2737   0.527   0.541   6.039  0.2135  0.7698 -0.8071
   22CHL1   H3' 2738   0.455   0.557   6.101  0.4411  0.7362 -0.5336
   22CHL1    C4 2739   0.569   0.484   5.809 -0.1461  0.3136  0.2819
   22CHL1   H4A 2740   0.558   0.592   5.786 -0.2059  0.5762  1.4564
   22CHL1   H4B 2741   0.676   0.458   5.825 -0.2585 -1.7946 -1.9287
   22CHL1    C5 2742   0.523   0.406   5.685 -0.0167  0.5031 -0.2435
   22CHL1    C6 2743   0.595   0.330   5.608  0.3126 -0.0158  0.4607
   22CHL1    H6 2744   0.703   0.319   5.624  0.3559  0.5457  0.5831
   22CHL1    C7 2745   0.547   0.261   5.487  0.1602  0.2965 -0.1209
   22CHL1   H7A 2746   0.613   0.292   5.403  0.5850  3.1630  1.1782
   22CHL1   H7B 2747   0.556   0.150   5.487  1.8048  0.4032  0.1910
   22CHL1    C8 2748   0.407   0.301   5.440  0.0401 -0.7071  0.8100
   22CHL1    H8 2749   0.420   0.400   5.392 -1.2631 -1.9126 -2.3522
   22CHL1   C14 2750   0.342   0.208   5.339  0.2648  0.4720 -0.6383
   22CHL1   H14 2751   0.323   0.112   5.391 -0.7605  2.0237  2.0480
   22CHL1   C15 2752   0.436   0.177   5.218 -0.0308  0.1658  0.3051
   22CHL1  H15A 2753   0.488   0.268   5.181  2.0062 -1.4799 -1.0461
   22CHL1  H15B 2754   0.506   0.094   5.243 -0.5060  0.1380  1.6715
   22CHL1   C16 2755   0.335   0.103   5.131 -0.1612  0.4932  0.8049
   22CHL1  H16A 2756   0.349   0.153   5.033 -0.6934 -0.3963  0.2647
   22CHL1  H16B 2757   0.354  -0.006   5.128 -0.0257  0.5186  0.7602
   22CHL1   C17 2758   0.192   0.135   5.177 -0.0125 -0.0895  0.1455
   22CHL1   H17 2759   0.167   0.041   5.230 -1.2797 -0.1635 -0.5625
   22CHL1   C13 2760   0.207   0.244   5.278 -0.9188 -0.3410 -0.2325
   22CHL1   C18 2761   0.208   0.378   5.207 -0.3398 -0.1887  0.0705
   22CHL1  H18A 2762   0.228   0.460   5.280 -2.0536  0.1010  0.2542
   22CHL1  H18B 2763   0.283   0.386   5.126 -0.0156  3.2588  0.5548
   22CHL1  H18C 2764   0.118   0.408   5.149  0.1117  1.8792  0.3261
   22CHL1   C12 2765   0.110   0.245   5.400  0.4233 -0.3145  0.7291
   22CHL1  H12A 2766   0.010   0.281   5.367 -0.6449 -2.2812  1.6016
   22CHL1  H12B 2767   0.088   0.141   5.433 -2.3517 -0.4007 -1.0375
   22CHL1   C11 2768   0.159   0.333   5.516  0.4318 -0.0822  0.7251
   22CHL1  H11A 2769   0.152   0.438   5.479 -2.3320  0.0096  1.2935
   22CHL1  H11B 2770   0.092   0.318   5.604  0.2630  0.8537  0.7653
   22CHL1    C9 2771   0.306   0.313   5.560  0.5268 -0.3857  0.9907
   22CHL1    H9 2772   0.303   0.214   5.609 -1.7835 -0.9505 -0.1289
   22CHL1   C10 2773   0.367   0.411   5.663  0.3557 -0.1047  0.0766
   22CHL1   C19 2774   0.348   0.557   5.609  0.8416  0.5359 -0.1837
   22CHL1  H19A 2775   0.242   0.586   5.596  1.2816  1.6477 -1.4387
   22CHL1  H19B 2776   0.389   0.626   5.686  2.0524 -1.2436  0.8397
   22CHL1  H19C 2777   0.398   0.578   5.512  0.0111 -0.1030 -0.7598
   22CHL1    C1 2778   0.293   0.394   5.798 -0.6012 -0.0922 -0.9039
   22CHL1   H1A 2779   0.186   0.419   5.783 -1.1165 -2.3018 -1.1890
   22CHL1   H1B 2780   0.273   0.288   5.826 -0.7108  0.5229  1.5796
   22CHL1    C2 2781   0.338   0.483   5.912 -0.3171 -0.1107  0.3068
   22CHL1   H2A 2782   0.278   0.457   6.001 -0.9284 -0.5940 -0.2343
   22CHL1   H2B 2783   0.320   0.586   5.874  0.8716  0.2926  0.7860
   22CHL1   C20 2784   0.091   0.153   5.059  0.0993  0.1227  0.8112
   22CHL1   H20 2785   0.119   0.243   5.000 -3.1997  0.6189 -0.1815
   22CHL1   C21 2786  -0.053   0.179   5.104  0.4093  0.1808 -0.3025
   22CHL1  H21A 2787  -0.083   0.092   5.167  1.6340  0.6717  1.0063
   22CHL1  H21B 2788  -0.125   0.178   5.019 -2.1080 -0.7861  1.7050
   22CHL1  H21C 2789  -0.056   0.273   5.162  1.9071  1.2532 -1.8921
   22CHL1   C22 2790   0.101   0.034   4.954  0.2002 -0.1441  0.1457
   22CHL1  H22A 2791   0.207   0.006   4.934  0.0941 -0.8621  0.5565
   22CHL1  H22B 2792   0.042  -0.044   5.006 -1.3241 -0.0394 -1.3435
   22CHL1   C23 2793   0.026   0.049   4.825  0.0231 -0.2955 -0.3059
   22CHL1  H23A 2794   0.032  -0.036   4.754  0.1796  0.1867 -0.8779
   22CHL1  H23B 2795  -0.082   0.053   4.853 -0.6340  0.1247 -2.6626
   22CHL1   C24 2796   0.070   0.174   4.745  0.4431  0.5791 -0.3473
   22CHL1  H24A 2797   0.085   0.266   4.806  1.7248 -0.6845  1.3244
   22CHL1  H24B 2798   0.167   0.144   4.701  0.0884  1.6862 -1.9653
   22CHL1   C25 2799  -0.016   0.203   4.613 -0.3229  0.4730 -0.0307
   22CHL1   H25 2800   0.015   0.116   4.550  1.5863  0.8673  0.3057
   22CHL1   C26 2801  -0.166   0.220   4.629  0.4284 -0.5911 -0.2029
   22CHL1  H26A 2802  -0.228   0.226   4.537 -2.6190 -5.1822  1.1729
   22CHL1  H26B 2803  -0.206   0.127   4.675  1.3105 -0.8868 -0.0235
   22CHL1  H26C 2804  -0.190   0.304   4.697  1.7259 -1.0645  0.8832
   22CHL1   C27 2805   0.052   0.322   4.533 -0.3768 -0.5742 -0.2335
   22CHL1  H27A 2806   0.161   0.305   4.516  0.1475  1.2127  1.0990
   22CHL1  H27B 2807   0.006   0.332   4.432 -0.9147 -1.1084 -0.0460
   22CHL1  H27C 2808   0.046   0.413   4.597  0.5580 -0.5075 -0.2302
   23CHL1    C3 2809   4.015   1.139   5.918 -0.3864  0.2039 -0.0615
   23CHL1    H3 2810   3.916   1.114   5.875  0.0026 -0.8877 -0.3565
   23CHL1    O3 2811   4.006   1.166   6.056 -0.3832  0.3640 -0.4950
   23CHL1   H3' 2812   4.086   1.210   6.086 -0.5915 -0.8047  1.9214
   23CHL1    C4 2813   4.107   1.016   5.893 -0.3098 -0.3353 -0.1512
   23CHL1   H4A 2814   4.213   1.035   5.919 -0.4068  0.7427 -0.5171
   23CHL1   H4B 2815   4.082   0.924   5.951  2.8184 -0.2463  1.5736
   23CHL1    C5 2816   4.107   0.984   5.748 -0.1583 -0.8268  0.3533
   23CHL1    C6 2817   4.054   0.870   5.692 -0.9950  0.3251 -0.2738
   23CHL1    H6 2818   4.004   0.800   5.762 -1.4177  0.9898  0.0994
   23CHL1    C7 2819   4.053   0.845   5.548 -0.3265 -0.2230 -0.0283
   23CHL1   H7A 2820   4.057   0.735   5.531 -1.4970 -0.4643  1.1006
   23CHL1   H7B 2821   3.951   0.880   5.524 -0.2516  0.2537  0.3374
   23CHL1    C8 2822   4.149   0.922   5.466 -0.8429  0.1428  0.3266
   23CHL1    H8 2823   4.241   0.865   5.492 -0.0638  0.9335 -0.6139
   23CHL1   C14 2824   4.117   0.921   5.321  0.0543  0.5820 -0.2482
   23CHL1   H14 2825   4.018   0.968   5.304  0.0699 -0.1648 -2.7091
   23CHL1   C15 2826   4.102   0.782   5.254  0.1030  0.7292  0.4830
   23CHL1  H15A 2827   4.160   0.704   5.310  0.0648 -0.3707 -0.9586
   23CHL1  H15B 2828   3.998   0.744   5.265  0.3514  0.0785  0.6294
   23CHL1   C16 2829   4.137   0.803   5.110  0.2185 -0.3435  0.5904
   23CHL1  H16A 2830   4.234   0.750   5.101 -0.2217 -1.2734  1.1634
   23CHL1  H16B 2831   4.063   0.759   5.040  1.5145 -0.0145 -1.0486
   23CHL1   C17 2832   4.156   0.951   5.097 -0.2488 -0.3839  0.6614
   23CHL1   H17 2833   4.057   1.000   5.088  0.9516  2.0302 -0.1997
   23CHL1   C13 2834   4.216   0.998   5.233  0.3512 -0.1848  0.7020
   23CHL1   C18 2835   4.355   0.942   5.257 -0.1797  0.2771 -0.3913
   23CHL1  H18A 2836   4.424   0.964   5.173 -0.2961 -0.3687 -0.6623
   23CHL1  H18B 2837   4.403   0.976   5.352 -0.2154  0.1473 -0.3253
   23CHL1  H18C 2838   4.350   0.831   5.261  2.1549  0.0129 -2.3108
   23CHL1   C12 2839   4.200   1.144   5.269 -0.1166 -0.5492 -0.1484
   23CHL1  H12A 2840   4.270   1.215   5.219 -1.4066 -0.1062 -1.4168
   23CHL1  H12B 2841   4.097   1.173   5.238 -1.0130 -0.4932  2.6763
   23CHL1   C11 2842   4.217   1.170   5.418 -0.1356  0.4256 -0.8570
   23CHL1  H11A 2843   4.326   1.173   5.435  0.0004 -1.4810 -1.2219
   23CHL1  H11B 2844   4.176   1.271   5.439  0.2391  0.8606 -2.1256
   23CHL1    C9 2845   4.151   1.069   5.508  1.0629  0.5864 -0.4987
   23CHL1    H9 2846   4.043   1.090   5.496  0.9772 -0.1001 -0.9752
   23CHL1   C10 2847   4.172   1.092   5.666  0.5112  0.3280  0.0262
   23CHL1   C19 2848   4.323   1.093   5.688 -0.7459  1.4194 -0.5185
   23CHL1  H19A 2849   4.359   1.099   5.793  1.5604  0.5247 -1.1742
   23CHL1  H19B 2850   4.355   0.991   5.655 -3.0491  0.2269  0.7550
   23CHL1  H19C 2851   4.383   1.163   5.625  1.0933  0.6660  0.2998
   23CHL1    C1 2852   4.099   1.231   5.703 -0.6952 -0.3411  0.5539
   23CHL1   H1A 2853   4.160   1.314   5.661 -1.2187  0.7780  1.9593
   23CHL1   H1B 2854   3.999   1.237   5.654 -0.2440  0.8478 -0.2813
   23CHL1    C2 2855   4.089   1.266   5.857  1.1045 -0.5792 -0.1502
   23CHL1   H2A 2856   4.025   1.357   5.865  1.5677 -0.0009 -2.2979
   23CHL1   H2B 2857   4.181   1.277   5.918 -0.0162 -1.2178  1.7346
   23CHL1   C20 2858   4.230   0.991   4.967  0.1059 -0.5473  0.9853
   23CHL1   H20 2859   4.333   0.949   4.964  0.1077 -0.5482  1.0585
   23CHL1   C21 2860   4.236   1.150   4.939 -0.1036 -1.1839  0.5941
   23CHL1  H21A 2861   4.293   1.204   5.018  1.9716 -1.4883 -0.6199
   23CHL1  H21B 2862   4.135   1.195   4.930  0.3782  0.0042  0.9559
   23CHL1  H21C 2863   4.289   1.160   4.841  0.7366 -1.4672  1.0097
   23CHL1   C22 2864   4.164   0.939   4.841 -0.0093 -0.3607  0.2813
   23CHL1  H22A 2865   4.076   0.876   4.868 -0.1615 -2.2314 -3.8164
   23CHL1  H22B 2866   4.127   1.017   4.772  3.6958  1.8394  0.5492
   23CHL1   C23 2867   4.263   0.842   4.776  0.2461  0.4148  0.9134
   23CHL1  H23A 2868   4.331   0.916   4.728 -0.3501 -0.5529 -1.5769
   23CHL1  H23B 2869   4.319   0.787   4.855 -0.7118  2.3594  3.0669
   23CHL1   C24 2870   4.213   0.746   4.659  0.3090 -0.5711  0.6536
   23CHL1  H24A 2871   4.128   0.691   4.705  0.9871 -0.2020  2.4405
   23CHL1  H24B 2872   4.173   0.806   4.574  1.6267  0.1657  0.5361
   23CHL1   C25 2873   4.324   0.656   4.599 -0.6695  0.6368  0.6986
   23CHL1   H25 2874   4.353   0.596   4.688 -2.7214 -0.3567  0.7563
   23CHL1   C26 2875   4.272   0.561   4.494  0.9306  0.2023 -0.4548
   23CHL1  H26A 2876   4.352   0.484   4.482  0.0747 -1.1183  1.7565
   23CHL1  H26B 2877   4.193   0.498   4.540  0.0947  1.1080 -0.6438
   23CHL1  H26C 2878   4.232   0.611   4.403 -0.5051 -1.3245 -0.7247
   23CHL1   C27 2879   4.441   0.740   4.547 -0.1852 -0.7959  0.0911
   23CHL1  H27A 2880   4.525   0.677   4.512  1.2719 -0.3201  2.4779
   23CHL1  H27B 2881   4.398   0.812   4.475 -1.1898 -0.6678  0.8062
   23CHL1  H27C 2882   4.488   0.808   4.622  1.8741  0.3921 -2.1079
   24CHL1    C3 2883   4.788   2.455   5.903 -0.0720  0.1560  0.5178
   24CHL1    H3 2884   4.737   2.550   5.879  1.2118  0.5146 -0.9179
   24CHL1    O3 2885   4.792   2.433   6.046  0.0961 -0.3040  0.3211
   24CHL1   H3' 2886   4.826   2.518   6.076  0.3167 -0.1957 -0.2126
   24CHL1    C4 2887   4.728   2.335   5.830 -0.8034  0.0649  0.3033
   24CHL1   H4A 2888   4.789   2.249   5.862  2.8156  2.8502  1.5924
   24CHL1   H4B 2889   4.624   2.314   5.864 -1.0651 -0.7965 -0.9470
   24CHL1    C5 2890   4.728   2.352   5.671  0.0378  0.4755 -0.9235
   24CHL1    C6 2891   4.618   2.339   5.589  0.2573  0.3231  0.0686
   24CHL1    H6 2892   4.518   2.320   5.630 -0.3977  1.7986 -0.7689
   24CHL1    C7 2893   4.620   2.336   5.438  0.4175 -0.0648  0.0178
   24CHL1   H7A 2894   4.571   2.242   5.405  1.3594 -1.0065  1.1825
   24CHL1   H7B 2895   4.566   2.422   5.392 -0.3434  0.7953  2.3507
   24CHL1    C8 2896   4.760   2.336   5.387 -0.4885  0.3919 -0.0127
   24CHL1    H8 2897   4.787   2.229   5.378 -2.5574 -0.0815 -1.1266
   24CHL1   C14 2898   4.771   2.390   5.244 -0.1084  0.1338 -0.0674
   24CHL1   H14 2899   4.732   2.494   5.241  0.1300  0.2099 -0.8938
   24CHL1   C15 2900   4.678   2.327   5.140 -0.0054 -0.2034 -0.2181
   24CHL1  H15A 2901   4.691   2.218   5.158  0.8970 -0.3036 -1.3836
   24CHL1  H15B 2902   4.570   2.351   5.151  0.2839  0.5550  1.2828
   24CHL1   C16 2903   4.738   2.357   5.004 -0.3490 -0.3314  0.3990
   24CHL1  H16A 2904   4.752   2.260   4.952 -1.5825  0.2387 -1.0633
   24CHL1  H16B 2905   4.667   2.411   4.940 -1.3808 -1.1011  0.8604
   24CHL1   C17 2906   4.868   2.439   5.039  0.9605  0.0711 -0.2916
   24CHL1   H17 2907   4.837   2.544   5.054 -0.2258 -0.1890 -0.8086
   24CHL1   C13 2908   4.909   2.389   5.180  0.1488  0.0832  0.0966
   24CHL1   C18 2909   4.953   2.239   5.177  0.1430  0.3882 -0.0074
   24CHL1  H18A 2910   5.054   2.233   5.131  1.0405  1.2736  1.7392
   24CHL1  H18B 2911   4.955   2.194   5.279 -0.6396 -0.7299 -0.4754
   24CHL1  H18C 2912   4.890   2.163   5.127 -1.0582  1.0020  0.5202
   24CHL1   C12 2913   5.000   2.475   5.264 -0.0669  0.1774  0.1175
   24CHL1  H12A 2914   5.097   2.479   5.210 -0.6169 -1.0735 -1.0463
   24CHL1  H12B 2915   4.964   2.579   5.248  1.8133  0.8139 -0.1325
   24CHL1   C11 2916   5.008   2.429   5.410  0.5522 -1.0334 -0.7653
   24CHL1  H11A 2917   5.075   2.340   5.418  1.8713 -0.0063  0.0416
   24CHL1  H11B 2918   5.057   2.510   5.468 -1.0159  0.7240 -1.7995
   24CHL1    C9 2919   4.864   2.412   5.480  0.0836 -0.3592  0.4227
   24CHL1    H9 2920   4.820   2.513   5.478 -0.1311 -0.3791  2.6239
   24CHL1   C10 2921   4.870   2.373   5.627 -0.6443  0.5191 -0.5187
   24CHL1   C19 2922   4.955   2.246   5.646  0.0394 -0.3101  0.2010
   24CHL1  H19A 2923   4.911   2.162   5.588 -0.6078 -1.0714  1.7500
   24CHL1  H19B 2924   5.064   2.246   5.624  0.2610  1.2177  1.1582
   24CHL1  H19C 2925   4.945   2.212   5.751 -0.8972  0.0610  0.2445
   24CHL1    C1 2926   4.941   2.491   5.708  0.9016 -0.3166 -0.6068
   24CHL1   H1A 2927   5.048   2.491   5.677  0.7551 -1.7160 -1.1826
   24CHL1   H1B 2928   4.886   2.585   5.683 -1.8048 -1.2485  1.3474
   24CHL1    C2 2929   4.935   2.472   5.860 -0.0557 -0.5043  0.0123
   24CHL1   H2A 2930   4.979   2.561   5.910  0.1645 -0.8309  0.4027
   24CHL1   H2B 2931   4.990   2.383   5.897 -0.2170 -1.7331 -2.5046
   24CHL1   C20 2932   4.974   2.448   4.925  0.0353  0.3709 -0.5871
   24CHL1   H20 2933   5.061   2.486   4.982  0.1847 -0.5076 -0.2050
   24CHL1   C21 2934   4.912   2.549   4.830  0.2544  0.0527  0.2557
   24CHL1  H21A 2935   4.875   2.639   4.883  0.7150 -0.4926  1.5570
   24CHL1  H21B 2936   4.827   2.508   4.771  2.8770 -1.1592 -2.9780
   24CHL1  H21C 2937   4.987   2.582   4.755  1.3324  0.7775  1.6090
   24CHL1   C22 2938   5.003   2.318   4.849 -0.0323 -0.0027 -0.6289
   24CHL1  H22A 2939   5.047   2.235   4.909  1.7860  0.2906 -1.4691
   24CHL1  H22B 2940   4.924   2.287   4.778  2.0631  2.3970 -4.3518
   24CHL1   C23 2941   5.119   2.341   4.752  0.4072 -0.8351 -0.3633
   24CHL1  H23A 2942   5.082   2.415   4.678 -0.3180 -0.0541  0.7484
   24CHL1  H23B 2943   5.203   2.388   4.807 -1.7824  2.1646  0.7220
   24CHL1   C24 2944   5.163   2.209   4.685  0.3314 -0.0588  0.3767
   24CHL1  H24A 2945   5.176   2.126   4.758  0.6499 -0.1989  0.1612
   24CHL1  H24B 2946   5.081   2.184   4.615 -0.0097  1.3672  0.2449
   24CHL1   C25 2947   5.295   2.228   4.606 -0.0562 -0.6769  0.4610
   24CHL1   H25 2948   5.372   2.263   4.678  0.5401 -0.6920 -0.1719
   24CHL1   C26 2949   5.338   2.088   4.542  0.4813 -0.1176 -0.4744
   24CHL1  H26A 2950   5.269   2.045   4.466 -0.5185  0.7212 -0.0558
   24CHL1  H26B 2951   5.435   2.090   4.487  1.3268 -0.7886  0.9284
   24CHL1  H26C 2952   5.357   2.013   4.622  0.0597  1.1822  0.8912
   24CHL1   C27 2953   5.291   2.327   4.484 -0.3205  0.4077  1.3854
   24CHL1  H27A 2954   5.391   2.340   4.438  0.4863 -2.2572  2.1760
   24CHL1  H27B 2955   5.225   2.278   4.410  0.9203 -1.0581  1.2029
   24CHL1  H27C 2956   5.250   2.425   4.518  2.7391  2.1073  0.5188
   25CHL1    C3 2957   0.196   1.003   5.895 -0.3019  0.0691 -0.2332
   25CHL1    H3 2958   0.307   0.996   5.886 -0.0197  3.4057 -0.9339
   25CHL1    O3 2959   0.175   1.018   6.037 -0.3993 -0.4451  0.3243
   25CHL1   H3' 2960   0.084   0.993   6.051  0.0039 -1.4295  1.3216
   25CHL1    C4 2961   0.159   1.122   5.810  0.2611 -0.0585 -0.1203
   25CHL1   H4A 2962   0.049   1.135   5.820  0.1671  0.1846 -1.3414
   25CHL1   H4B 2963   0.208   1.213   5.850 -2.6810  1.3692  0.5342
   25CHL1    C5 2964   0.200   1.091   5.663 -0.5724 -0.1538  0.1451
   25CHL1    C6 2965   0.289   1.167   5.597  0.2263 -0.0601 -0.4664
   25CHL1    H6 2966   0.326   1.251   5.659 -2.0898  0.5977  0.1605
   25CHL1    C7 2967   0.332   1.146   5.457  0.0229  0.6199 -0.3233
   25CHL1   H7A 2968   0.351   1.243   5.406 -2.0145  2.3205  1.9332
   25CHL1   H7B 2969   0.422   1.082   5.467 -1.5346 -1.5954  0.1744
   25CHL1    C8 2970   0.239   1.053   5.377 -0.5145 -0.3945 -0.3256
   25CHL1    H8 2971   0.143   1.107   5.364 -1.4559 -1.5458  1.3610
   25CHL1   C14 2972   0.306   1.021   5.247 -0.6574  0.0758  0.5897
   25CHL1   H14 2973   0.392   0.961   5.284 -2.1457 -1.2293  2.1175
   25CHL1   C15 2974   0.351   1.138   5.159  0.3828 -0.3000 -0.6008
   25CHL1  H15A 2975   0.270   1.214   5.165 -0.9628 -1.7597  0.7118
   25CHL1  H15B 2976   0.443   1.193   5.188 -0.6617  1.1308  0.1453
   25CHL1   C16 2977   0.356   1.069   5.021  0.3277 -0.2170  0.3910
   25CHL1  H16A 2978   0.283   1.122   4.956  0.8811  0.1794  0.0738
   25CHL1  H16B 2979   0.457   1.072   4.976 -0.3303 -0.1162 -1.1334
   25CHL1   C17 2980   0.311   0.923   5.038  0.7451  0.2481 -0.4240
   25CHL1   H17 2981   0.404   0.867   5.060 -0.4940 -1.8574 -0.3363
   25CHL1   C13 2982   0.214   0.927   5.167 -0.2312 -0.4291 -0.2072
   25CHL1   C18 2983   0.073   0.994   5.129 -0.4750  0.1171 -0.4594
   25CHL1  H18A 2984   0.011   0.993   5.221 -0.3064 -4.3176 -0.1982
   25CHL1  H18B 2985   0.086   1.099   5.094 -0.7596  0.3493  0.1118
   25CHL1  H18C 2986   0.019   0.932   5.055  0.1113  1.1619 -1.8095
   25CHL1   C12 2987   0.184   0.795   5.231 -0.0057  0.3072  0.4979
   25CHL1  H12A 2988   0.102   0.744   5.175 -1.1733  1.6062  0.9686
   25CHL1  H12B 2989   0.275   0.732   5.221  0.2977  0.7404  0.5133
   25CHL1   C11 2990   0.132   0.822   5.377 -0.6483 -0.0823  0.3155
   25CHL1  H11A 2991   0.022   0.836   5.374 -0.7479 -0.6777  0.9433
   25CHL1  H11B 2992   0.130   0.725   5.432  0.1584 -0.3909 -0.1712
   25CHL1    C9 2993   0.207   0.926   5.459 -0.1503 -0.3655 -0.3577
   25CHL1    H9 2994   0.305   0.885   5.490 -0.0990 -0.1108 -0.1835
   25CHL1   C10 2995   0.143   0.964   5.599 -0.2472 -1.0870  0.0959
   25CHL1   C19 2996  -0.009   0.995   5.575 -0.4587  0.1743  0.2102
   25CHL1  H19A 2997  -0.052   1.039   5.668  1.2512  1.7787  0.3217
   25CHL1  H19B 2998  -0.024   1.067   5.491 -0.1926 -0.2943 -0.2425
   25CHL1  H19C 2999  -0.065   0.902   5.554 -0.4027  0.3195 -0.6314
   25CHL1    C1 3000   0.165   0.839   5.702  0.7126 -0.4109  0.5237
   25CHL1   H1A 3001   0.100   0.753   5.677  0.9225 -0.1742 -0.9796
   25CHL1   H1B 3002   0.269   0.803   5.691  0.3740 -0.8833 -1.6845
   25CHL1    C2 3003   0.132   0.875   5.848  0.5085 -0.1519  0.2492
   25CHL1   H2A 3004   0.155   0.787   5.911  1.5844 -0.1543 -0.1159
   25CHL1   H2B 3005   0.023   0.893   5.848  0.5764  0.3361  1.2828
   25CHL1   C20 3006   0.253   0.849   4.911 -0.2118  0.0160  0.3960
   25CHL1   H20 3007   0.155   0.899   4.896  0.2422  1.3346  1.6224
   25CHL1   C21 3008   0.239   0.687   4.930  0.0228 -0.6843  0.0053
   25CHL1  H21A 3009   0.337   0.642   4.955  0.6777  0.4493 -0.4657
   25CHL1  H21B 3010   0.211   0.647   4.830 -2.4996  2.0905 -0.5359
   25CHL1  H21C 3011   0.146   0.661   4.986 -0.7039 -0.1693 -0.9413
   25CHL1   C22 3012   0.353   0.881   4.796  0.3494 -0.0320 -0.6296
   25CHL1  H22A 3013   0.306   0.835   4.707 -0.9265  0.9390 -0.4797
   25CHL1  H22B 3014   0.352   0.988   4.767  0.0160  0.5762  1.4482
   25CHL1   C23 3015   0.501   0.837   4.810 -0.0360  0.4221 -0.3286
   25CHL1  H23A 3016   0.552   0.857   4.907  0.4247 -0.1689 -0.4423
   25CHL1  H23B 3017   0.501   0.726   4.802  2.5100  0.4307 -1.3212
   25CHL1   C24 3018   0.588   0.899   4.704 -0.5430  0.1615  0.4526
   25CHL1  H24A 3019   0.541   0.877   4.606  1.4603  2.2547 -1.0836
   25CHL1  H24B 3020   0.582   1.008   4.727  0.0660 -0.0975  1.9965
   25CHL1   C25 3021   0.736   0.848   4.714  0.5300 -0.0606  0.2983
   25CHL1   H25 3022   0.772   0.855   4.819  1.8608 -0.3898 -0.1241
   25CHL1   C26 3023   0.740   0.704   4.670  0.6418  0.1459 -0.1622
   25CHL1  H26A 3024   0.667   0.647   4.731  0.1455  0.8454 -0.0806
   25CHL1  H26B 3025   0.693   0.693   4.570  1.8499  0.9932 -0.8556
   25CHL1  H26C 3026   0.839   0.656   4.684  0.7925  0.0794 -1.3846
   25CHL1   C27 3027   0.829   0.935   4.628 -0.9125  0.1520  0.0291
   25CHL1  H27A 3028   0.933   0.896   4.622 -0.2723  1.4247  1.8351
   25CHL1  H27B 3029   0.783   0.935   4.527 -1.8987 -2.4802  0.4267
   25CHL1  H27C 3030   0.839   1.036   4.675 -0.7184  0.6347 -1.0216
   26CHL1    C3 3031   5.448   1.178   6.203 -0.1124 -0.0108  0.0631
   26CHL1    H3 3032   5.466   1.287   6.210 -4.0614  0.7670  0.3544
   26CHL1    O3 3033   5.470   1.108   6.325  0.0541  0.3358  0.1299
   26CHL1   H3' 3034   5.380   1.074   6.327 -0.3200  1.2506 -0.4234
   26CHL1    C4 3035   5.302   1.174   6.178  0.4735  0.0374  0.0634
   26CHL1   H4A 3036   5.257   1.072   6.181 -0.6476  0.5257  0.4596
   26CHL1   H4B 3037   5.252   1.229   6.260 -0.2074 -0.5795  0.0764
   26CHL1    C5 3038   5.257   1.240   6.050 -0.6754 -0.2020 -0.4220
   26CHL1    C6 3039   5.176   1.343   6.039 -0.5081 -0.2956  0.0686
   26CHL1    H6 3040   5.125   1.389   6.126  1.0671  0.5947  0.5677
   26CHL1    C7 3041   5.135   1.402   5.912  0.2799  0.8570 -0.3425
   26CHL1   H7A 3042   5.029   1.436   5.909  0.6105  2.0554  0.7176
   26CHL1   H7B 3043   5.185   1.500   5.899  0.7738  0.6382 -0.1355
   26CHL1    C8 3044   5.169   1.312   5.790  0.2252  0.0072  0.4617
   26CHL1    H8 3045   5.101   1.224   5.792  0.2643 -0.2160 -2.9865
   26CHL1   C14 3046   5.159   1.385   5.652  0.4073  1.0794 -0.8033
   26CHL1   H14 3047   5.218   1.478   5.664  1.0786  0.7849 -1.7212
   26CHL1   C15 3048   5.008   1.433   5.614  0.9410  0.3859  0.0714
   26CHL1  H15A 3049   4.930   1.356   5.628 -0.0826  1.7066  1.9943
   26CHL1  H15B 3050   4.975   1.511   5.685  1.1407 -0.8363  1.5541
   26CHL1   C16 3051   5.023   1.469   5.467 -0.0474 -0.4028  0.0606
   26CHL1  H16A 3052   4.935   1.420   5.421 -1.3511 -0.1808  2.2153
   26CHL1  H16B 3053   5.028   1.580   5.455  1.7016 -0.5728 -1.1920
   26CHL1   C17 3054   5.153   1.398   5.417  0.2257  0.1433 -0.7749
   26CHL1   H17 3055   5.234   1.472   5.436 -0.5864  0.1176  3.7853
   26CHL1   C13 3056   5.194   1.302   5.534 -0.9233  0.5323 -0.4256
   26CHL1   C18 3057   5.110   1.167   5.527 -0.4350  0.0139  0.5006
   26CHL1  H18A 3058   5.137   1.123   5.429 -2.4400  3.1911 -1.6588
   26CHL1  H18B 3059   5.123   1.096   5.612  0.2635 -0.3801  0.0715
   26CHL1  H18C 3060   5.003   1.195   5.515  0.4675  4.2377  0.9353
   26CHL1   C12 3061   5.345   1.273   5.546  0.3373  0.0660  0.0904
   26CHL1  H12A 3062   5.379   1.224   5.452 -1.9656 -1.2097 -0.1659
   26CHL1  H12B 3063   5.386   1.376   5.543  0.2243  0.2484  2.7386
   26CHL1   C11 3064   5.386   1.196   5.671 -0.2138  0.4573  0.3187
   26CHL1  H11A 3065   5.354   1.091   5.654  0.9833  0.1021  0.1139
   26CHL1  H11B 3066   5.497   1.194   5.675 -0.1792  1.3134 -0.0009
   26CHL1    C9 3067   5.317   1.265   5.800 -0.0817  0.1349 -0.5032
   26CHL1    H9 3068   5.376   1.356   5.823  0.6747 -0.5207  0.2363
   26CHL1   C10 3069   5.336   1.176   5.932  0.1739  0.2867  0.5397
   26CHL1   C19 3070   5.272   1.031   5.890  0.4357  0.5030 -0.0389
   26CHL1  H19A 3071   5.333   0.982   5.812  0.7813  0.0030  0.5321
   26CHL1  H19B 3072   5.273   0.963   5.978 -0.6582 -1.4977 -1.4752
   26CHL1  H19C 3073   5.170   1.037   5.845  0.4540 -0.5636 -0.2706
   26CHL1    C1 3074   5.485   1.170   5.956 -0.0229 -0.3368 -0.0731
   26CHL1   H1A 3075   5.541   1.107   5.883  0.3531  0.6425 -0.6351
   26CHL1   H1B 3076   5.530   1.271   5.959 -0.6725  0.0290 -1.6628
   26CHL1    C2 3077   5.526   1.110   6.090  0.4310 -0.7149  0.7030
   26CHL1   H2A 3078   5.636   1.125   6.099  0.5590 -0.1459 -1.4281
   26CHL1   H2B 3079   5.507   1.001   6.101 -1.1231 -0.6509 -0.9072
   26CHL1   C20 3080   5.165   1.354   5.270  0.5980  0.6596 -0.0342
   26CHL1   H20 3081   5.241   1.274   5.269 -0.7099 -0.6602  1.0516
   26CHL1   C21 3082   5.206   1.464   5.167  0.8035  1.1544 -0.4743
   26CHL1  H21A 3083   5.296   1.522   5.196  0.9907  1.5946 -1.8903
   26CHL1  H21B 3084   5.124   1.538   5.156  2.0537  2.3985 -1.7710
   26CHL1  H21C 3085   5.217   1.412   5.070 -1.8199  2.2866 -1.4566
   26CHL1   C22 3086   5.033   1.277   5.223 -0.1880  0.1199  0.0202
   26CHL1  H22A 3087   5.003   1.203   5.300  1.0993  1.3248  1.7687
   26CHL1  H22B 3088   4.948   1.347   5.224  1.0469  1.6646  1.6545
   26CHL1   C23 3089   5.030   1.217   5.082 -0.2895  0.1365 -0.9045
   26CHL1  H23A 3090   4.928   1.194   5.045  0.3414 -1.4314 -1.7624
   26CHL1  H23B 3091   5.062   1.298   5.012 -0.9952  1.1547 -0.0736
   26CHL1   C24 3092   5.110   1.093   5.042 -0.3353  0.0811  1.1737
   26CHL1  H24A 3093   5.213   1.082   5.081 -0.0786 -1.3817  0.1395
   26CHL1  H24B 3094   5.062   1.007   5.094 -0.5734 -0.2566  0.4098
   26CHL1   C25 3095   5.114   1.073   4.884 -0.6726 -0.5815  0.1717
   26CHL1   H25 3096   5.015   1.090   4.836 -0.1197  0.7835 -0.5377
   26CHL1   C26 3097   5.204   1.178   4.825 -0.1016 -0.2142 -0.6057
   26CHL1  H26A 3098   5.158   1.279   4.828  4.1753  1.9226  0.0009
   26CHL1  H26B 3099   5.301   1.202   4.873 -0.2115  0.5085 -0.7324
   26CHL1  H26C 3100   5.233   1.164   4.719  1.5549  1.3121 -0.4050
   26CHL1   C27 3101   5.170   0.933   4.859 -0.3390  0.3484  0.4844
   26CHL1  H27A 3102   5.106   0.857   4.909 -0.3648 -0.3495 -0.5730
   26CHL1  H27B 3103   5.176   0.907   4.751 -0.8650 -1.0532  0.7728
   26CHL1  H27C 3104   5.264   0.923   4.918  2.2361  3.3634 -2.7044
   27CHL1    C3 3105   5.247   6.809   5.733 -0.1042 -0.0728  0.6812
   27CHL1    H3 3106   5.155   6.764   5.690  1.1771 -0.4478 -1.8126
   27CHL1    O3 3107   5.231   6.821   5.874  0.0571 -0.1402  0.4576
   27CHL1   H3' 3108   5.314   6.860   5.904  0.6837 -1.8238  0.9974
   27CHL1    C4 3109   5.366   6.718   5.691  0.6975 -0.5973 -0.2778
   27CHL1   H4A 3110   5.463   6.735   5.743 -0.1402  1.8754  0.6345
   27CHL1   H4B 3111   5.328   6.621   5.730  1.4907 -0.7114  0.2443
   27CHL1    C5 3112   5.376   6.719   5.541 -0.0514 -0.0428 -0.8954
   27CHL1    C6 3113   5.369   6.612   5.465  0.5914 -0.0791 -0.6003
   27CHL1    H6 3114   5.344   6.521   5.523  1.1137  2.0783  3.3785
   27CHL1    C7 3115   5.375   6.613   5.316  0.1636 -0.1397 -0.0907
   27CHL1   H7A 3116   5.411   6.519   5.270 -1.6548  0.4706 -2.9963
   27CHL1   H7B 3117   5.270   6.630   5.285 -0.7286  1.1653  3.2349
   27CHL1    C8 3118   5.455   6.732   5.259  0.2996 -0.2726  0.1706
   27CHL1    H8 3119   5.562   6.735   5.290  0.4752 -0.1733 -0.4239
   27CHL1   C14 3120   5.448   6.737   5.104  0.3034 -0.3499  0.9079
   27CHL1   H14 3121   5.346   6.771   5.078  0.2180 -1.8493 -0.9029
   27CHL1   C15 3122   5.464   6.612   5.015 -0.2618  0.2672  0.3984
   27CHL1  H15A 3123   5.567   6.584   5.044  0.7976 -0.4368 -3.4289
   27CHL1  H15B 3124   5.400   6.522   5.029 -0.1872 -0.1715 -1.7500
   27CHL1   C16 3125   5.482   6.668   4.874  0.7912 -0.1646 -0.4604
   27CHL1  H16A 3126   5.581   6.621   4.851 -0.1944 -1.8759 -1.4410
   27CHL1  H16B 3127   5.402   6.629   4.808 -0.8087 -0.8587  1.7783
   27CHL1   C17 3128   5.481   6.821   4.891  0.3304  0.6947  0.5662
   27CHL1   H17 3129   5.374   6.849   4.877 -0.1605 -1.3040  0.0393
   27CHL1   C13 3130   5.522   6.852   5.036 -0.1023  0.1090  0.3827
   27CHL1   C18 3131   5.677   6.840   5.053  0.2945 -0.6026  0.4280
   27CHL1  H18A 3132   5.702   6.733   5.033 -2.5400 -1.2051 -0.4654
   27CHL1  H18B 3133   5.728   6.913   4.987  1.9915 -0.2480  2.0689
   27CHL1  H18C 3134   5.700   6.868   5.157  0.0091 -0.9771  0.5946
   27CHL1   C12 3135   5.465   6.981   5.090 -0.4783  0.2586  0.5311
   27CHL1  H12A 3136   5.511   7.072   5.045 -0.2502  0.6324  1.4875
   27CHL1  H12B 3137   5.362   6.991   5.050 -0.4616 -0.2741  0.3485
   27CHL1   C11 3138   5.466   6.984   5.250  0.3300 -0.0665  0.0708
   27CHL1  H11A 3139   5.572   7.001   5.279  1.4060 -3.5357 -1.2308
   27CHL1  H11B 3140   5.401   7.071   5.272 -2.8199 -2.0697 -0.7210
   27CHL1    C9 3141   5.390   6.861   5.313  0.1784  0.0745 -0.3701
   27CHL1    H9 3142   5.290   6.862   5.265  0.6501 -3.6188 -1.7263
   27CHL1   C10 3143   5.399   6.860   5.476 -0.5599  0.0855 -0.3312
   27CHL1   C19 3144   5.535   6.916   5.519 -0.3549  0.3845 -0.3614
   27CHL1  H19A 3145   5.612   6.846   5.480 -2.5241 -1.5174 -1.4530
   27CHL1  H19B 3146   5.559   7.022   5.493 -4.5152  1.9676  1.3640
   27CHL1  H19C 3147   5.533   6.914   5.630  0.5649  3.4483 -0.1795
   27CHL1    C1 3148   5.292   6.956   5.527 -0.2001  0.5969  0.1944
   27CHL1   H1A 3149   5.328   7.059   5.504 -0.8826  1.0659  1.1792
   27CHL1   H1B 3150   5.202   6.951   5.462 -0.1945 -0.6412  0.2618
   27CHL1    C2 3151   5.266   6.957   5.682  0.3868 -0.6125 -0.1659
   27CHL1   H2A 3152   5.179   7.024   5.694  3.9036  5.0148 -2.3238
   27CHL1   H2B 3153   5.348   7.013   5.732 -0.0748  0.3421 -0.4569
   27CHL1   C20 3154   5.558   6.883   4.767 -0.5085 -0.3788 -0.5277
   27CHL1   H20 3155   5.668   6.864   4.770 -0.5786 -0.7295  1.0151
   27CHL1   C21 3156   5.539   7.031   4.765 -0.0970 -1.3231  0.2695
   27CHL1  H21A 3157   5.586   7.079   4.854 -0.5455  0.2766 -0.3230
   27CHL1  H21B 3158   5.437   7.071   4.783  0.5447  0.1982  0.6924
   27CHL1  H21C 3159   5.578   7.075   4.671 -1.7571  0.9523  0.5530
   27CHL1   C22 3160   5.511   6.823   4.628  0.5312 -0.0331  0.2968
   27CHL1  H22A 3161   5.596   6.845   4.559 -0.3801  4.1499  0.2576
   27CHL1  H22B 3162   5.503   6.712   4.635 -2.8542  0.1533  1.1194
   27CHL1   C23 3163   5.384   6.879   4.548  0.3216 -0.0972  0.4803
   27CHL1  H23A 3164   5.296   6.834   4.598  0.9012 -2.0412 -0.1602
   27CHL1  H23B 3165   5.382   6.988   4.567  1.0179 -0.1495  0.8962
   27CHL1   C24 3166   5.382   6.848   4.389  0.0348  0.2496 -0.6858
   27CHL1  H24A 3167   5.287   6.884   4.345 -0.0006  1.7439  0.5337
   27CHL1  H24B 3168   5.462   6.905   4.337 -0.3369  4.2411  2.6078
   27CHL1   C25 3169   5.397   6.697   4.365  0.5741 -0.7713  0.9175
   27CHL1   H25 3170   5.434   6.643   4.456  1.9525 -2.1719 -0.4112
   27CHL1   C26 3171   5.264   6.635   4.321  0.8631 -0.5167 -0.7929
   27CHL1  H26A 3172   5.278   6.527   4.299 -1.0798 -1.0977  0.5190
   27CHL1  H26B 3173   5.196   6.634   4.409 -0.0746 -0.8688 -1.5021
   27CHL1  H26C 3174   5.226   6.689   4.232  0.9575  1.0729  0.0992
   27CHL1   C27 3175   5.491   6.657   4.247 -0.4428 -0.3197 -0.0562
   27CHL1  H27A 3176   5.491   6.546   4.239  2.0994 -0.5401  1.7833
   27CHL1  H27B 3177   5.595   6.691   4.265 -0.1736 -1.0616 -0.1738
   27CHL1  H27C 3178   5.455   6.708   4.156 -0.0129 -0.4354 -0.2910
   28CHL1    C3 3179   1.562   1.316   6.041  1.0688  0.0425  0.9990
   28CHL1    H3 3180   1.652   1.379   6.024 -0.2728  1.2733 -2.7110
   28CHL1    O3 3181   1.562   1.295   6.176 -0.4111  0.1370 -0.0819
   28CHL1   H3' 3182   1.476   1.322   6.209 -0.6535  0.3697 -0.8946
   28CHL1    C4 3183   1.445   1.399   5.998  0.4936  0.6834 -0.2017
   28CHL1   H4A 3184   1.358   1.342   6.037  0.7279  0.5789  0.1681
   28CHL1   H4B 3185   1.455   1.491   6.059  0.9068 -0.1863  1.0834
   28CHL1    C5 3186   1.458   1.427   5.851 -0.0605 -0.5628 -0.5354
   28CHL1    C6 3187   1.469   1.553   5.808  0.9114 -1.2567 -0.6957
   28CHL1    H6 3188   1.466   1.626   5.890 -2.8690 -3.2929  1.2459
   28CHL1    C7 3189   1.464   1.596   5.660 -0.2828 -0.3323  0.5636
   28CHL1   H7A 3190   1.389   1.675   5.638 -0.6261 -1.5194 -3.3064
   28CHL1   H7B 3191   1.560   1.628   5.616 -0.7154 -1.1272 -1.0250
   28CHL1    C8 3192   1.413   1.467   5.571  0.1644  0.7662 -0.8956
   28CHL1    H8 3193   1.304   1.454   5.585  0.5494 -1.0781  0.7101
   28CHL1   C14 3194   1.441   1.490   5.418  0.1103  0.0237  0.7509
   28CHL1   H14 3195   1.551   1.502   5.408  0.0048  1.5442  1.1967
   28CHL1   C15 3196   1.391   1.621   5.354 -0.5605 -0.3254  0.2676
   28CHL1  H15A 3197   1.283   1.645   5.356 -0.9111 -1.8132  0.0674
   28CHL1  H15B 3198   1.450   1.707   5.393 -0.2619  0.6680 -2.2005
   28CHL1   C16 3199   1.411   1.596   5.204  0.4835 -0.0480 -0.8163
   28CHL1  H16A 3200   1.314   1.613   5.152 -0.5108 -0.0846  0.9580
   28CHL1  H16B 3201   1.482   1.672   5.165  0.4911  1.6598  2.2148
   28CHL1   C17 3202   1.462   1.449   5.188  0.1850 -0.0103 -0.3231
   28CHL1   H17 3203   1.572   1.449   5.203  0.1136  0.8794  0.2626
   28CHL1   C13 3204   1.420   1.377   5.320 -0.1749 -0.6582 -0.5401
   28CHL1   C18 3205   1.269   1.348   5.308 -0.2868 -0.2850 -0.0850
   28CHL1  H18A 3206   1.241   1.293   5.215  0.2671  0.4411 -0.6990
   28CHL1  H18B 3207   1.220   1.298   5.394  0.0546  0.2389  0.4147
   28CHL1  H18C 3208   1.209   1.441   5.299 -2.4388 -1.6184 -0.2345
   28CHL1   C12 3209   1.503   1.258   5.371 -0.1706 -0.6370 -0.2599
   28CHL1  H12A 3210   1.472   1.171   5.309  0.1778  0.2826 -1.7809
   28CHL1  H12B 3211   1.610   1.280   5.353 -0.6274  1.3908 -0.6938
   28CHL1   C11 3212   1.475   1.219   5.516 -0.2933 -0.1271  0.7473
   28CHL1  H11A 3213   1.367   1.194   5.518 -0.9998  2.4802 -0.5150
   28CHL1  H11B 3214   1.542   1.138   5.551 -0.2391  0.4823  2.1397
   28CHL1    C9 3215   1.487   1.344   5.610 -0.2122 -0.6257  0.0979
   28CHL1    H9 3216   1.590   1.384   5.601 -2.3846  5.7466 -1.7513
   28CHL1   C10 3217   1.451   1.314   5.759  0.0766  0.4307 -0.4893
   28CHL1   C19 3218   1.307   1.256   5.775 -0.0670 -0.4599  0.0766
   28CHL1  H19A 3219   1.253   1.248   5.872 -2.7083 -1.2635 -1.3597
   28CHL1  H19B 3220   1.238   1.318   5.714  0.5486 -1.9190 -2.2036
   28CHL1  H19C 3221   1.315   1.159   5.723 -3.1669  0.3900 -2.2464
   28CHL1    C1 3222   1.554   1.208   5.812 -0.6708  0.6859 -0.0336
   28CHL1   H1A 3223   1.535   1.111   5.761  1.4031  1.5508 -2.6785
   28CHL1   H1B 3224   1.657   1.236   5.784 -0.5955 -0.6269 -1.1343
   28CHL1    C2 3225   1.560   1.181   5.966  0.0695 -0.1792  0.6878
   28CHL1   H2A 3226   1.647   1.118   5.991  0.0012 -0.2594  0.7250
   28CHL1   H2B 3227   1.469   1.127   6.001  1.3538 -0.6610  3.5281
   28CHL1   C20 3228   1.429   1.392   5.056  0.2498 -0.3728  0.2777
   28CHL1   H20 3229   1.322   1.404   5.028  0.9044  2.0692 -1.5217
   28CHL1   C21 3230   1.481   1.248   5.052  0.5464 -0.4295  0.3396
   28CHL1  H21A 3231   1.480   1.229   4.942 -1.2700  1.9241 -0.1311
   28CHL1  H21B 3232   1.395   1.189   5.092 -1.1028  2.0839  0.7342
   28CHL1  H21C 3233   1.572   1.223   5.110  1.3903  0.0658 -0.7568
   28CHL1   C22 3234   1.496   1.471   4.939 -1.1367  0.2095 -0.3310
   28CHL1  H22A 3235   1.457   1.410   4.855 -0.6654 -1.1949  0.4411
   28CHL1  H22B 3236   1.459   1.576   4.935 -1.9034 -0.0586 -0.3724
   28CHL1   C23 3237   1.649   1.463   4.937  0.1422  0.5487  0.0672
   28CHL1  H23A 3238   1.694   1.515   5.024  1.8445 -0.0397 -0.4201
   28CHL1  H23B 3239   1.671   1.354   4.943 -0.4514  0.5246  2.6557
   28CHL1   C24 3240   1.716   1.516   4.807 -0.4865  0.5239  0.1411
   28CHL1  H24A 3241   1.818   1.474   4.799 -1.1489 -0.8386 -2.1515
   28CHL1  H24B 3242   1.649   1.474   4.728  0.5520  0.0886 -0.5194
   28CHL1   C25 3243   1.726   1.673   4.795  0.1680  0.2393 -0.2166
   28CHL1   H25 3244   1.634   1.709   4.846  1.3839  1.8137  1.0017
   28CHL1   C26 3245   1.840   1.730   4.889  0.6112 -0.3718 -0.1729
   28CHL1  H26A 3246   1.932   1.672   4.866  1.4335  1.6872 -2.4494
   28CHL1  H26B 3247   1.857   1.839   4.885  0.9039 -0.3289  1.4465
   28CHL1  H26C 3248   1.818   1.700   4.994  2.9598 -0.1387  0.4346
   28CHL1   C27 3249   1.740   1.701   4.647 -0.1782 -0.1280 -0.2333
   28CHL1  H27A 3250   1.825   1.645   4.603  0.3128 -0.6755  1.3257
   28CHL1  H27B 3251   1.649   1.666   4.594 -0.2641  0.2680 -0.3529
   28CHL1  H27C 3252   1.752   1.808   4.619  0.7551  0.1135  0.9917
   29CHL1    C3 3253   2.553   1.670   6.242  0.3592  0.1206 -0.8644
   29CHL1    H3 3254   2.492   1.763   6.250 -0.4905 -0.3643 -1.5539
   29CHL1    O3 3255   2.582   1.618   6.372  0.4355 -0.0700 -0.0894
   29CHL1   H3' 3256   2.617   1.529   6.364 -0.3006 -0.4621  0.7975
   29CHL1    C4 3257   2.476   1.555   6.165  0.0744  0.0565  0.1761
   29CHL1   H4A 3258   2.530   1.460   6.183 -1.1176 -0.8436 -0.8160
   29CHL1   H4B 3259   2.382   1.536   6.221 -1.7282  2.4782 -1.7871
   29CHL1    C5 3260   2.454   1.576   6.019  0.4825  0.3534  0.1040
   29CHL1    C6 3261   2.338   1.559   5.959  0.2904 -0.4465  1.5325
   29CHL1    H6 3262   2.248   1.535   6.017 -1.1588  0.2884 -0.3149
   29CHL1    C7 3263   2.317   1.562   5.808  0.6735  0.2232 -0.2916
   29CHL1   H7A 3264   2.280   1.462   5.777 -0.2250  0.2706  0.5899
   29CHL1   H7B 3265   2.238   1.638   5.786  0.4748  0.1115  0.0320
   29CHL1    C8 3266   2.449   1.578   5.718 -0.3489 -0.7329  0.4380
   29CHL1    H8 3267   2.497   1.478   5.710  1.1739  0.1107 -3.1128
   29CHL1   C14 3268   2.421   1.630   5.577  0.5942  0.0443 -0.0929
   29CHL1   H14 3269   2.382   1.731   5.600  1.6603  1.3894 -3.6162
   29CHL1   C15 3270   2.318   1.560   5.490  0.1751  0.0231  0.1023
   29CHL1  H15A 3271   2.327   1.449   5.490  0.0525  0.0132  0.1031
   29CHL1  H15B 3272   2.214   1.584   5.520 -0.0207 -0.7253  0.0535
   29CHL1   C16 3273   2.348   1.610   5.345 -0.6454 -0.0024 -0.4054
   29CHL1  H16A 3274   2.364   1.516   5.288 -0.6412 -1.0802  1.3147
   29CHL1  H16B 3275   2.264   1.657   5.290  0.2495 -0.2756 -2.0922
   29CHL1   C17 3276   2.470   1.697   5.359  0.5122  0.5049  0.1387
   29CHL1   H17 3277   2.435   1.801   5.378 -1.1670 -0.2014  1.1517
   29CHL1   C13 3278   2.540   1.660   5.493  0.3114 -0.5585 -0.0969
   29CHL1   C18 3279   2.618   1.528   5.458 -0.1302  0.3716 -0.5553
   29CHL1  H18A 3280   2.657   1.481   5.551  0.0944  0.0769 -0.7942
   29CHL1  H18B 3281   2.556   1.457   5.400  0.4653  1.0652 -2.1213
   29CHL1  H18C 3282   2.703   1.539   5.386  1.1938 -0.5895  0.8069
   29CHL1   C12 3283   2.630   1.759   5.560 -0.3889 -0.2363 -0.6383
   29CHL1  H12A 3284   2.734   1.758   5.522  0.1986 -1.2616  0.9096
   29CHL1  H12B 3285   2.579   1.858   5.554  0.6708  0.3893  0.1570
   29CHL1   C11 3286   2.660   1.731   5.712 -0.1139  0.6320 -1.1281
   29CHL1  H11A 3287   2.744   1.658   5.708  0.3320  1.0467  0.2541
   29CHL1  H11B 3288   2.696   1.823   5.763 -0.3473 -0.8335  1.9032
   29CHL1    C9 3289   2.541   1.671   5.793 -0.3706  0.8742 -0.6798
   29CHL1    H9 3290   2.474   1.759   5.804 -2.2575 -0.4509 -1.2074
   29CHL1   C10 3291   2.577   1.623   5.938 -0.8504 -0.2277  0.0289
   29CHL1   C19 3292   2.668   1.498   5.916  0.1504 -0.0193  0.3572
   29CHL1  H19A 3293   2.616   1.413   5.867 -0.3649 -1.0493  2.5869
   29CHL1  H19B 3294   2.758   1.522   5.856 -0.2553 -1.7024 -0.9852
   29CHL1  H19C 3295   2.710   1.464   6.013 -1.1063  1.5829  1.5174
   29CHL1    C1 3296   2.660   1.732   6.018 -0.0669  0.2131  0.1459
   29CHL1   H1A 3297   2.753   1.746   5.959 -0.5570  0.5331 -0.5762
   29CHL1   H1B 3298   2.616   1.834   6.017  0.9728  0.6773  0.4203
   29CHL1    C2 3299   2.687   1.693   6.164 -0.3926  0.1603 -0.0329
   29CHL1   H2A 3300   2.740   1.768   6.227 -0.7577 -0.6592  1.2773
   29CHL1   H2B 3301   2.736   1.594   6.169 -0.2578  0.2530  0.6209
   29CHL1   C20 3302   2.543   1.702   5.229  0.1947  0.2771 -0.0669
   29CHL1   H20 3303   2.585   1.600   5.213  1.2892  0.7835 -0.4990
   29CHL1   C21 3304   2.656   1.807   5.225 -0.8669 -0.9769  0.2518
   29CHL1  H21A 3305   2.737   1.800   5.300  0.8645 -1.5087 -1.5555
   29CHL1  H21B 3306   2.626   1.911   5.247  2.5066  0.6636 -1.9207
   29CHL1  H21C 3307   2.702   1.814   5.124  0.5526 -2.1881  0.7720
   29CHL1   C22 3308   2.460   1.727   5.099  0.5865 -0.3208  0.1187
   29CHL1  H22A 3309   2.526   1.705   5.013  1.3842 -0.3415  0.7277
   29CHL1  H22B 3310   2.369   1.663   5.100 -0.3509  0.8945 -1.5497
   29CHL1   C23 3311   2.401   1.873   5.091 -0.3081  0.1217 -0.4224
   29CHL1  H23A 3312   2.334   1.885   5.179 -0.3283 -1.3539 -0.2247
   29CHL1  H23B 3313   2.481   1.950   5.093  1.1081 -1.3272  1.5999
   29CHL1   C24 3314   2.306   1.884   4.966 -0.1874  0.6401  0.4975
   29CHL1  H24A 3315   2.357   1.846   4.876 -1.3681 -0.8850  0.4412
   29CHL1  H24B 3316   2.229   1.807   4.987 -0.7604  0.9684 -0.3765
   29CHL1   C25 3317   2.239   2.025   4.949 -0.6460 -0.6529  0.4936
   29CHL1   H25 3318   2.320   2.100   4.943 -0.7809 -0.4529  1.0948
   29CHL1   C26 3319   2.158   2.022   4.812 -0.1532 -0.5726 -0.1091
   29CHL1  H26A 3320   2.113   2.122   4.793  0.1373 -0.4884 -0.3592
   29CHL1  H26B 3321   2.223   1.989   4.728 -0.9434  1.6994 -1.7147
   29CHL1  H26C 3322   2.080   1.942   4.816  2.5208 -3.3941 -0.3928
   29CHL1   C27 3323   2.152   2.065   5.068 -0.1097  0.5125  0.3384
   29CHL1  H27A 3324   2.083   1.985   5.101 -0.3318  0.6454  0.2010
   29CHL1  H27B 3325   2.213   2.094   5.156  2.2081 -0.5510 -0.8383
   29CHL1  H27C 3326   2.092   2.157   5.051  0.2023  0.3672 -1.8225
   30CHL1    C3 3327   5.550   1.683   6.121  0.5919 -0.2702  0.7962
   30CHL1    H3 3328   5.653   1.669   6.082 -0.0307 -3.3895 -0.0258
   30CHL1    O3 3329   5.543   1.644   6.256 -0.0310  0.7243  0.1796
   30CHL1   H3' 3330   5.451   1.645   6.285 -0.0842  2.3352  0.0199
   30CHL1    C4 3331   5.503   1.833   6.105  0.2348 -0.0777  0.0743
   30CHL1   H4A 3332   5.414   1.842   6.170 -2.0265  2.0482 -3.0543
   30CHL1   H4B 3333   5.584   1.889   6.157 -1.7809  1.4897  1.6856
   30CHL1    C5 3334   5.488   1.887   5.966 -0.6320  0.3559  0.1376
   30CHL1    C6 3335   5.545   1.999   5.919 -0.3924  0.4586 -0.0382
   30CHL1    H6 3336   5.609   2.066   5.978  0.4309  1.2895 -1.7891
   30CHL1    C7 3337   5.536   2.053   5.781 -0.1494 -0.5445  0.1374
   30CHL1   H7A 3338   5.509   2.161   5.784 -0.6822 -0.6567 -0.3883
   30CHL1   H7B 3339   5.632   2.049   5.726 -0.4338 -0.0267 -0.4053
   30CHL1    C8 3340   5.424   1.983   5.697 -0.0903  0.3802 -1.3778
   30CHL1    H8 3341   5.328   2.024   5.736  0.4496  2.1319 -1.7845
   30CHL1   C14 3342   5.430   2.014   5.549 -0.1500  0.5958 -0.3352
   30CHL1   H14 3343   5.533   1.989   5.516 -0.1510 -0.1955  0.2549
   30CHL1   C15 3344   5.421   2.165   5.512  0.3891 -0.3444  0.6638
   30CHL1  H15A 3345   5.332   2.204   5.565  0.8909  4.5697 -1.5394
   30CHL1  H15B 3346   5.508   2.231   5.537  0.8540 -0.1725 -1.2669
   30CHL1   C16 3347   5.388   2.164   5.368  1.0495  0.4303 -0.0729
   30CHL1  H16A 3348   5.287   2.207   5.349  0.9887  0.0944 -0.5324
   30CHL1  H16B 3349   5.471   2.213   5.312  0.2551 -0.8069 -2.5064
   30CHL1   C17 3350   5.369   2.011   5.327 -1.2404 -0.3983  0.7984
   30CHL1   H17 3351   5.467   1.964   5.303 -1.6076 -1.0632  0.5578
   30CHL1   C13 3352   5.337   1.935   5.459  1.0019  0.1519  0.7571
   30CHL1   C18 3353   5.193   1.964   5.498  0.7914  0.6193 -0.4950
   30CHL1  H18A 3354   5.168   1.938   5.603 -0.2018  0.4114 -0.7801
   30CHL1  H18B 3355   5.150   2.052   5.445 -1.2409  0.2039  0.3886
   30CHL1  H18C 3356   5.134   1.886   5.446 -0.5136  1.0441  0.3109
   30CHL1   C12 3357   5.369   1.783   5.470  0.3178 -0.1942  0.3575
   30CHL1  H12A 3358   5.297   1.722   5.411  0.3251  0.6426 -0.5342
   30CHL1  H12B 3359   5.467   1.763   5.421 -0.1007 -0.8288 -0.2384
   30CHL1   C11 3360   5.363   1.741   5.626  0.3680  0.1790  0.0757
   30CHL1  H11A 3361   5.255   1.750   5.649  0.2078 -0.3058 -0.4777
   30CHL1  H11B 3362   5.391   1.634   5.636 -0.6584 -0.1501 -0.4497
   30CHL1    C9 3363   5.436   1.831   5.729  0.0081  0.1592  0.2968
   30CHL1    H9 3364   5.544   1.810   5.710  0.2835  1.1960  0.6213
   30CHL1   C10 3365   5.408   1.792   5.872 -0.1370 -0.1321 -0.0432
   30CHL1   C19 3366   5.257   1.812   5.917 -0.0983 -0.2680 -0.0607
   30CHL1  H19A 3367   5.210   1.913   5.918  1.4688  0.7505 -4.4601
   30CHL1  H19B 3368   5.187   1.751   5.856 -3.2302  1.9792  0.9903
   30CHL1  H19C 3369   5.234   1.772   6.018 -2.1046  0.3026 -0.2570
   30CHL1    C1 3370   5.452   1.645   5.894  0.2772 -0.1370 -0.6790
   30CHL1   H1A 3371   5.389   1.578   5.832  0.1036  0.2382 -0.9111
   30CHL1   H1B 3372   5.552   1.620   5.853  1.0544  0.1531  0.9273
   30CHL1    C2 3373   5.444   1.605   6.038 -1.1105  0.3763 -0.2188
   30CHL1   H2A 3374   5.476   1.500   6.055  1.4698  1.4200  2.0112
   30CHL1   H2B 3375   5.342   1.627   6.075 -1.2978 -0.7137 -0.0766
   30CHL1   C20 3376   5.273   1.996   5.207  0.1785 -0.4657  0.1243
   30CHL1   H20 3377   5.169   2.027   5.231 -0.2348 -0.9554 -0.9616
   30CHL1   C21 3378   5.258   1.842   5.163 -0.0410  0.0003 -0.3926
   30CHL1  H21A 3379   5.215   1.782   5.245  1.7377  0.3751  0.8704
   30CHL1  H21B 3380   5.358   1.814   5.123 -1.2396 -2.0464 -2.2126
   30CHL1  H21C 3381   5.185   1.834   5.079  0.1894 -4.6769 -0.4292
   30CHL1   C22 3382   5.316   2.077   5.081 -0.0230 -0.3610 -0.1840
   30CHL1  H22A 3383   5.240   2.060   5.001 -1.2137  1.2309  0.5334
   30CHL1  H22B 3384   5.302   2.183   5.111  0.5629 -0.2481 -0.2981
   30CHL1   C23 3385   5.460   2.046   5.030 -0.9019 -0.0119  0.1619
   30CHL1  H23A 3386   5.532   2.059   5.114 -1.1398 -0.7044  0.4776
   30CHL1  H23B 3387   5.473   1.939   5.002  2.1744 -0.0908  1.4932
   30CHL1   C24 3388   5.498   2.156   4.926 -0.3783  0.3196  0.2299
   30CHL1  H24A 3389   5.413   2.155   4.854 -1.9141 -3.9541  1.7951
   30CHL1  H24B 3390   5.501   2.256   4.975 -0.4603  0.9224 -0.9496
   30CHL1   C25 3391   5.631   2.131   4.854  0.1049  0.0506  0.1071
   30CHL1   H25 3392   5.705   2.125   4.936 -0.5269  2.5956  0.9332
   30CHL1   C26 3393   5.628   1.999   4.763  0.1602  0.4721 -0.1233
   30CHL1  H26A 3394   5.729   1.983   4.720  0.9926 -0.9762  2.1776
   30CHL1  H26B 3395   5.604   1.910   4.824  1.6415  1.8617  2.7059
   30CHL1  H26C 3396   5.547   2.024   4.691 -0.6775  1.4728  1.1297
   30CHL1   C27 3397   5.671   2.245   4.766  0.4033 -0.1602  0.5111
   30CHL1  H27A 3398   5.615   2.270   4.673  1.8026 -0.3077 -0.3949
   30CHL1  H27B 3399   5.684   2.331   4.834 -0.4267 -1.1326  1.9434
   30CHL1  H27C 3400   5.776   2.221   4.737  1.5317  0.9911  3.3336
   31CHL1    C3 3401   2.986   2.222   6.370 -0.8481 -0.2959  0.8721
   31CHL1    H3 3402   3.064   2.288   6.414  0.0714 -0.8148  0.0828
   31CHL1    O3 3403   2.921   2.170   6.485 -0.1088  0.0790 -0.2164
   31CHL1   H3' 3404   2.847   2.116   6.456  0.6712 -1.3812  0.3580
   31CHL1    C4 3405   2.891   2.295   6.270  0.2848 -0.1289  0.6961
   31CHL1   H4A 3406   2.795   2.241   6.282  1.5133 -1.8423  4.2805
   31CHL1   H4B 3407   2.874   2.401   6.298  1.6984  0.5055 -0.6620
   31CHL1    C5 3408   2.927   2.288   6.115 -0.1041  0.1743  0.2273
   31CHL1    C6 3409   2.927   2.405   6.041 -0.1457 -0.1418  0.4553
   31CHL1    H6 3410   2.919   2.503   6.089  2.5932 -0.2022  1.2201
   31CHL1    C7 3411   2.948   2.407   5.892 -0.0826  0.3238  0.0356
   31CHL1   H7A 3412   2.879   2.485   5.854 -0.8613  0.2869  1.3039
   31CHL1   H7B 3413   3.055   2.434   5.877 -0.0381  0.5915  0.7776
   31CHL1    C8 3414   2.911   2.270   5.830 -0.1921 -0.1130  0.0035
   31CHL1    H8 3415   2.802   2.250   5.836 -0.2060 -0.0781 -0.1249
   31CHL1   C14 3416   2.951   2.273   5.687 -0.4085  0.4065  0.0630
   31CHL1   H14 3417   3.061   2.284   5.699 -0.3442 -1.9189  2.5331
   31CHL1   C15 3418   2.901   2.389   5.602 -0.0707  0.9202 -0.5036
   31CHL1  H15A 3419   2.793   2.410   5.615 -0.2526  0.8790 -1.8226
   31CHL1  H15B 3420   2.953   2.482   5.631 -0.1589  0.5501  0.9109
   31CHL1   C16 3421   2.935   2.337   5.466 -0.7229 -0.2341 -0.4124
   31CHL1  H16A 3422   2.843   2.353   5.404 -0.8055  0.9216 -0.0089
   31CHL1  H16B 3423   3.016   2.402   5.428  0.7567 -1.1052  1.1204
   31CHL1   C17 3424   2.991   2.192   5.472 -0.3068  0.0944 -0.0780
   31CHL1   H17 3425   3.101   2.207   5.486 -0.2787  0.2802 -0.4942
   31CHL1   C13 3426   2.936   2.144   5.616 -0.0283 -0.4796  0.3191
   31CHL1   C18 3427   2.784   2.113   5.602 -0.0339  0.1463  0.1354
   31CHL1  H18A 3428   2.729   2.112   5.698  1.2715 -3.3967  1.0187
   31CHL1  H18B 3429   2.736   2.186   5.534  0.4043 -1.6783 -2.2912
   31CHL1  H18C 3430   2.771   2.015   5.551  0.5256  0.6275 -0.9598
   31CHL1   C12 3431   3.012   2.033   5.685  0.2537 -0.5853 -0.1636
   31CHL1  H12A 3432   3.004   1.940   5.625  2.2417 -0.1333 -1.2296
   31CHL1  H12B 3433   3.121   2.051   5.695  0.3975  0.4780 -2.7965
   31CHL1   C11 3434   2.962   2.022   5.832  0.2726 -0.0634  0.4759
   31CHL1  H11A 3435   2.852   2.007   5.834  0.1914  0.5643  1.7490
   31CHL1  H11B 3436   3.006   1.932   5.880  1.2197  0.3057  0.3075
   31CHL1    C9 3437   2.986   2.155   5.905 -0.9614 -0.6539 -0.1621
   31CHL1    H9 3438   3.094   2.180   5.897 -0.7192 -1.2679  0.9080
   31CHL1   C10 3439   2.957   2.151   6.061  0.1602  0.6752  0.3357
   31CHL1   C19 3440   2.834   2.061   6.082 -0.0492 -0.1362 -0.5021
   31CHL1  H19A 3441   2.814   2.062   6.191 -0.1051 -0.4721 -0.5089
   31CHL1  H19B 3442   2.751   2.108   6.024 -0.1775  1.2191  0.7355
   31CHL1  H19C 3443   2.835   1.955   6.048  1.8928 -0.1168 -0.5999
   31CHL1    C1 3444   3.075   2.098   6.144 -0.2879 -0.1368  0.3347
   31CHL1   H1A 3445   3.083   1.993   6.111 -1.4518  0.2050 -1.1531
   31CHL1   H1B 3446   3.172   2.147   6.122 -0.4211 -0.2533 -0.5734
   31CHL1    C2 3447   3.046   2.097   6.296 -0.7479 -0.4262 -0.5504
   31CHL1   H2A 3448   3.129   2.054   6.356 -1.0022  1.0859  0.9575
   31CHL1   H2B 3449   2.966   2.021   6.306  0.5003 -1.8132 -0.8023
   31CHL1   C20 3450   2.966   2.113   5.347  0.5891 -0.2473 -0.3934
   31CHL1   H20 3451   2.855   2.117   5.338  0.6457  4.2550 -1.5841
   31CHL1   C21 3452   3.009   1.965   5.371  0.0204  0.1304  0.1578
   31CHL1  H21A 3453   3.108   1.954   5.421 -0.1145 -1.9713  0.0601
   31CHL1  H21B 3454   3.009   1.899   5.282 -1.6046  0.9931 -0.5364
   31CHL1  H21C 3455   2.931   1.917   5.435  0.3827 -1.1349 -0.3177
   31CHL1   C22 3456   3.024   2.171   5.219  0.3694  0.2118  0.2611
   31CHL1  H22A 3457   2.979   2.271   5.203  0.7357  0.3244 -0.0713
   31CHL1  H22B 3458   3.130   2.192   5.243  0.1673  1.4107  0.1886
   31CHL1   C23 3459   3.012   2.089   5.083 -0.1292 -0.0757 -0.4820
   31CHL1  H23A 3460   3.077   2.137   5.007  1.4241 -1.0390  0.1858
   31CHL1  H23B 3461   3.048   1.985   5.099 -0.8506 -0.2866 -0.1572
   31CHL1   C24 3462   2.869   2.065   5.043 -0.4796 -0.2833  0.6364
   31CHL1  H24A 3463   2.844   1.974   5.102  0.1174 -1.0098 -0.2011
   31CHL1  H24B 3464   2.804   2.150   5.071  2.3525  1.8251  1.3230
   31CHL1   C25 3465   2.859   2.030   4.894  0.5686 -0.4555  0.0136
   31CHL1   H25 3466   2.887   2.115   4.829 -2.1240  0.8452  0.3962
   31CHL1   C26 3467   2.937   1.907   4.850  0.2860 -0.1456  0.9633
   31CHL1  H26A 3468   2.905   1.891   4.745 -2.1338  0.8550  1.4763
   31CHL1  H26B 3469   3.044   1.938   4.845  0.3703 -0.2588  1.8921
   31CHL1  H26C 3470   2.925   1.817   4.913  0.5971  0.9596  2.6805
   31CHL1   C27 3471   2.707   2.000   4.862  0.1257  0.1802  0.6243
   31CHL1  H27A 3472   2.654   2.097   4.863  0.6888  0.4974  0.1891
   31CHL1  H27B 3473   2.710   1.960   4.758  0.2962  2.9541 -0.5354
   31CHL1  H27C 3474   2.656   1.935   4.936 -0.8863  0.9342  0.6114
   32CHL1    C3 3475   5.107   0.643   5.956  0.6636  0.1229  0.0936
   32CHL1    H3 3476   5.214   0.657   5.930  0.1358  0.4340 -2.2173
   32CHL1    O3 3477   5.079   0.671   6.091 -0.2949  0.5949  0.1656
   32CHL1   H3' 3478   5.110   0.759   6.116  2.1562 -0.1673  0.0631
   32CHL1    C4 3479   5.025   0.733   5.857  0.5994  0.4650 -0.8550
   32CHL1   H4A 3480   4.918   0.732   5.888  0.8059  2.5146  0.1307
   32CHL1   H4B 3481   5.049   0.838   5.886 -0.1981  0.2510  0.6871
   32CHL1    C5 3482   5.052   0.701   5.712 -0.3230  0.0635 -0.4397
   32CHL1    C6 3483   5.086   0.795   5.626 -0.0568 -0.6943  0.3477
   32CHL1    H6 3484   5.095   0.897   5.667 -1.7055 -1.0805  1.7833
   32CHL1    C7 3485   5.099   0.782   5.471  0.1543  0.3076  0.1280
   32CHL1   H7A 3486   5.050   0.858   5.407 -0.0400 -1.7189 -2.2756
   32CHL1   H7B 3487   5.205   0.788   5.440 -0.6865  0.2110 -3.2125
   32CHL1    C8 3488   5.050   0.640   5.435  0.0442 -0.2417  0.5262
   32CHL1    H8 3489   4.940   0.653   5.425 -0.0011 -1.4697 -1.0662
   32CHL1   C14 3490   5.107   0.609   5.297 -0.3287 -0.6833 -1.0629
   32CHL1   H14 3491   5.215   0.603   5.320 -0.6736  0.2813  1.0815
   32CHL1   C15 3492   5.088   0.703   5.185  0.4248 -0.9643 -0.0577
   32CHL1  H15A 3493   4.981   0.731   5.174  0.4577 -0.3200  1.0938
   32CHL1  H15B 3494   5.152   0.794   5.186  0.2780 -0.7881 -1.8241
   32CHL1   C16 3495   5.122   0.620   5.059 -0.0440  0.4273  0.1448
   32CHL1  H16A 3496   5.033   0.620   4.993  1.0153  0.7964 -1.3500
   32CHL1  H16B 3497   5.205   0.658   4.994 -0.8274 -1.8472 -2.3953
   32CHL1   C17 3498   5.140   0.471   5.101  0.1733  0.6644 -0.5513
   32CHL1   H17 3499   5.249   0.451   5.111  0.2043  0.0913 -1.8332
   32CHL1   C13 3500   5.076   0.464   5.241  0.0056  0.4869 -0.1008
   32CHL1   C18 3501   4.918   0.451   5.231  0.5571 -0.6804 -0.0502
   32CHL1  H18A 3502   4.883   0.359   5.180 -2.8612  1.3396 -1.6928
   32CHL1  H18B 3503   4.859   0.462   5.325  0.6991 -2.0590  0.2178
   32CHL1  H18C 3504   4.878   0.533   5.167 -0.5855  0.1919  1.6877
   32CHL1   C12 3505   5.143   0.371   5.344 -0.3072 -0.2309  0.5309
   32CHL1  H12A 3506   5.127   0.264   5.321  1.2841 -0.5756  0.9579
   32CHL1  H12B 3507   5.253   0.384   5.347 -0.3902  0.4449  1.0162
   32CHL1   C11 3508   5.076   0.389   5.481 -0.6301 -1.1362 -0.1905
   32CHL1  H11A 3509   4.968   0.363   5.495 -2.2693  3.9525 -1.0785
   32CHL1  H11B 3510   5.115   0.309   5.547 -2.6510 -0.7449  1.6111
   32CHL1    C9 3511   5.093   0.532   5.541 -0.0242  1.5998  0.8247
   32CHL1    H9 3512   5.202   0.554   5.548 -0.0616  1.5277  1.7403
   32CHL1   C10 3513   5.032   0.551   5.678 -0.4821  0.6861 -0.4702
   32CHL1   C19 3514   4.881   0.518   5.680 -0.1865 -0.1601 -0.2309
   32CHL1  H19A 3515   4.823   0.587   5.615 -1.4953 -0.9935  0.0218
   32CHL1  H19B 3516   4.853   0.418   5.640  1.8678  0.1192 -2.6109
   32CHL1  H19C 3517   4.842   0.513   5.784  0.3636 -1.7762 -0.0695
   32CHL1    C1 3518   5.106   0.458   5.784  0.0953 -0.7678  0.4365
   32CHL1   H1A 3519   5.074   0.352   5.779 -0.6403 -0.5429  0.3013
   32CHL1   H1B 3520   5.216   0.471   5.781 -0.1059  1.4209 -2.6921
   32CHL1    C2 3521   5.078   0.500   5.927  0.0215 -0.3083 -0.0735
   32CHL1   H2A 3522   5.135   0.426   5.987 -0.4208 -0.8390 -0.2990
   32CHL1   H2B 3523   4.970   0.482   5.950 -1.0529  2.7620 -2.0769
   32CHL1   C20 3524   5.096   0.364   5.004 -0.0735 -1.1692  0.1263
   32CHL1   H20 3525   4.990   0.369   4.974  0.1667  0.4052 -0.5784
   32CHL1   C21 3526   5.107   0.219   5.064  0.7385  0.1763 -0.3740
   32CHL1  H21A 3527   5.017   0.202   5.126 -1.3606 -0.2379 -3.3408
   32CHL1  H21B 3528   5.199   0.196   5.122 -0.7635 -1.4389  1.4549
   32CHL1  H21C 3529   5.103   0.143   4.983  1.5197 -0.6185  0.3127
   32CHL1   C22 3530   5.176   0.376   4.867  0.1446 -0.6572  0.0995
   32CHL1  H22A 3531   5.141   0.470   4.820  1.2538  0.8766  2.2113
   32CHL1  H22B 3532   5.285   0.381   4.887  0.3928 -0.3231 -1.2271
   32CHL1   C23 3533   5.152   0.271   4.762 -0.3383  0.1294 -0.0935
   32CHL1  H23A 3534   5.208   0.291   4.669 -0.2460 -0.3555 -0.1451
   32CHL1  H23B 3535   5.181   0.167   4.788  2.2034  0.7614 -0.1243
   32CHL1   C24 3536   5.006   0.276   4.714  0.4802  0.0504 -0.3970
   32CHL1  H24A 3537   4.942   0.201   4.765 -1.6944  0.7220 -1.9599
   32CHL1  H24B 3538   4.962   0.378   4.724 -2.0923 -1.1362  1.9554
   32CHL1   C25 3539   4.989   0.229   4.573 -0.6685  0.0295  0.1104
   32CHL1   H25 3540   5.062   0.287   4.513 -0.8834 -0.8302 -1.0020
   32CHL1   C26 3541   5.021   0.083   4.558  0.2026 -0.3412 -0.5033
   32CHL1  H26A 3542   4.983   0.040   4.463  0.1339 -0.4905 -0.4071
   32CHL1  H26B 3543   5.131   0.076   4.576 -0.4166  0.0137  4.9739
   32CHL1  H26C 3544   4.981   0.032   4.648  1.3797  1.5215  1.1846
   32CHL1   C27 3545   4.848   0.255   4.521 -0.4784 -0.3243  0.3203
   32CHL1  H27A 3546   4.782   0.186   4.576 -1.3997 -0.6584 -1.1526
   32CHL1  H27B 3547   4.817   0.362   4.532  0.5490  0.1225 -0.8091
   32CHL1  H27C 3548   4.841   0.220   4.415 -2.1918  1.0331 -0.0598
   33CHL1    C3 3549   5.141   6.453   5.939 -0.4511 -0.2248  0.2405
   33CHL1    H3 3550   5.196   6.537   5.892  0.8346  0.0382  2.0958
   33CHL1    O3 3551   5.137   6.481   6.074 -0.4480  0.0864  0.2538
   33CHL1   H3' 3552   5.122   6.392   6.106 -1.8635 -0.8796 -2.6462
   33CHL1    C4 3553   4.997   6.446   5.885  0.5563 -0.1728 -0.7306
   33CHL1   H4A 3554   4.933   6.376   5.942 -1.2709  0.8048 -1.4854
   33CHL1   H4B 3555   4.954   6.548   5.894  0.7648  0.0039 -1.6972
   33CHL1    C5 3556   5.007   6.407   5.737 -0.3528  0.2935 -0.0488
   33CHL1    C6 3557   4.942   6.476   5.640 -0.1538 -0.5176 -0.5341
   33CHL1    H6 3558   4.886   6.565   5.675 -2.0160 -2.2344  1.0824
   33CHL1    C7 3559   4.947   6.460   5.496  0.1282  0.1281  0.0555
   33CHL1   H7A 3560   4.846   6.458   5.448 -1.1160  0.6234  2.5061
   33CHL1   H7B 3561   4.998   6.544   5.444 -1.6427  0.1895 -1.7085
   33CHL1    C8 3562   5.015   6.315   5.452 -0.1899 -0.7889  0.2901
   33CHL1    H8 3563   4.941   6.233   5.460  1.8449 -2.5936  1.7803
   33CHL1   C14 3564   5.076   6.319   5.310 -0.0159 -0.3193  0.1645
   33CHL1   H14 3565   5.164   6.386   5.319 -0.8684  0.6799  1.5441
   33CHL1   C15 3566   4.994   6.375   5.200  0.2765 -0.2721  0.2788
   33CHL1  H15A 3567   4.900   6.318   5.209 -1.0894  1.9040  0.3986
   33CHL1  H15B 3568   4.980   6.485   5.209  3.4155  0.3750 -1.1770
   33CHL1   C16 3569   5.071   6.333   5.071  0.6805  0.1548  0.5929
   33CHL1  H16A 3570   5.005   6.285   4.995  0.8274  2.3257 -1.0082
   33CHL1  H16B 3571   5.111   6.425   5.023 -1.1501  0.9824  0.5482
   33CHL1   C17 3572   5.185   6.235   5.116  0.5870 -0.0589 -0.8423
   33CHL1   H17 3573   5.270   6.305   5.131  1.5240 -1.4058  0.4367
   33CHL1   C13 3574   5.133   6.187   5.252  0.0234 -0.3295  0.2240
   33CHL1   C18 3575   5.021   6.074   5.240 -0.4390 -0.4320  0.0129
   33CHL1  H18A 3576   4.937   6.116   5.181 -2.0421  0.5869  2.8269
   33CHL1  H18B 3577   5.058   5.981   5.192  0.3246 -0.9639  1.5977
   33CHL1  H18C 3578   4.979   6.045   5.339 -0.2963  2.6756  1.0973
   33CHL1   C12 3579   5.238   6.138   5.359 -0.0549  0.0836  0.5946
   33CHL1  H12A 3580   5.259   6.030   5.341 -1.3405 -0.4383  1.9770
   33CHL1  H12B 3581   5.330   6.201   5.360 -0.3193  0.5259 -0.9313
   33CHL1   C11 3582   5.182   6.141   5.503 -0.3799  0.1771 -0.5372
   33CHL1  H11A 3583   5.110   6.058   5.523 -1.4874  1.5377  1.5714
   33CHL1  H11B 3584   5.270   6.126   5.569 -0.5423  1.8289  0.1137
   33CHL1    C9 3585   5.128   6.278   5.546  0.1121  0.0960 -0.2982
   33CHL1    H9 3586   5.215   6.347   5.541 -0.7635  1.2561  0.0470
   33CHL1   C10 3587   5.095   6.281   5.699 -0.8696  0.3119  0.3961
   33CHL1   C19 3588   5.013   6.150   5.730 -0.3470  0.0731  0.2625
   33CHL1  H19A 3589   4.975   6.154   5.834 -0.8747  3.3972  0.0525
   33CHL1  H19B 3590   4.925   6.142   5.663 -0.1559 -1.7075  0.1908
   33CHL1  H19C 3591   5.061   6.050   5.719 -2.5220 -1.4587  3.1491
   33CHL1    C1 3592   5.228   6.284   5.780 -0.4765  0.3792  0.5633
   33CHL1   H1A 3593   5.280   6.188   5.761  0.6299  1.1776 -0.6284
   33CHL1   H1B 3594   5.304   6.354   5.739 -0.9420 -0.0821 -1.1905
   33CHL1    C2 3595   5.216   6.317   5.923  0.3943 -0.8899 -0.3819
   33CHL1   H2A 3596   5.310   6.347   5.974 -0.3329 -1.8986  1.6528
   33CHL1   H2B 3597   5.171   6.232   5.979  0.4329 -0.7160 -0.0889
   33CHL1   C20 3598   5.220   6.125   5.018  0.0033  0.4606 -0.0941
   33CHL1   H20 3599   5.136   6.052   5.011  0.0737  0.0367  2.4492
   33CHL1   C21 3600   5.350   6.056   5.061  0.8770  0.7262 -0.5264
   33CHL1  H21A 3601   5.426   6.136   5.073  1.5036  0.3215 -1.6331
   33CHL1  H21B 3602   5.389   5.987   4.983 -0.8143  0.0019 -0.7626
   33CHL1  H21C 3603   5.339   5.994   5.152 -2.7952 -2.9534 -3.0897
   33CHL1   C22 3604   5.242   6.185   4.873  0.5868  0.0816 -0.7659
   33CHL1  H22A 3605   5.173   6.269   4.847 -0.8388 -0.9438 -0.4498
   33CHL1  H22B 3606   5.343   6.230   4.880  0.5279  0.1408 -0.2589
   33CHL1   C23 3607   5.229   6.082   4.766  0.0174 -0.1862  0.4413
   33CHL1  H23A 3608   5.314   6.016   4.794 -0.2652  0.1992  2.3631
   33CHL1  H23B 3609   5.136   6.025   4.785  0.1545 -0.6860 -0.3418
   33CHL1   C24 3610   5.235   6.117   4.619 -0.4387  0.0195 -0.1585
   33CHL1  H24A 3611   5.244   6.023   4.561  3.5328  1.1859 -1.7344
   33CHL1  H24B 3612   5.147   6.177   4.586 -0.4847  0.9936  1.6037
   33CHL1   C25 3613   5.363   6.201   4.591  0.2113 -0.3379  0.3354
   33CHL1   H25 3614   5.436   6.190   4.674  0.4483  3.6575  0.8213
   33CHL1   C26 3615   5.426   6.156   4.458 -0.6496 -0.5104 -0.0690
   33CHL1  H26A 3616   5.518   6.213   4.432 -0.5843  0.6808  2.5184
   33CHL1  H26B 3617   5.460   6.050   4.460  3.5787  0.6203 -0.9691
   33CHL1  H26C 3618   5.344   6.175   4.386 -0.3100  0.6456 -0.1669
   33CHL1   C27 3619   5.328   6.352   4.598 -0.2633  0.0231  0.0366
   33CHL1  H27A 3620   5.290   6.389   4.500 -0.2541  1.3418  0.5078
   33CHL1  H27B 3621   5.240   6.369   4.664 -2.7237  0.3894 -3.0659
   33CHL1  H27C 3622   5.415   6.415   4.626 -1.5463  3.4275 -2.8374
   34CHL1    C3 3623   2.728   3.629   5.905 -0.0850  0.4534 -0.1604
   34CHL1    H3 3624   2.791   3.712   5.944 -0.6256  0.4662  0.7125
   34CHL1    O3 3625   2.714   3.534   6.008  0.3385  0.4218  0.2360
   34CHL1   H3' 3626   2.794   3.547   6.059 -0.0945 -1.6049  1.5592
   34CHL1    C4 3627   2.587   3.692   5.875  0.6463 -0.3582 -0.2291
   34CHL1   H4A 3628   2.517   3.606   5.870 -1.4652  1.2872 -0.6164
   34CHL1   H4B 3629   2.558   3.746   5.967  4.6770  3.2859 -0.7267
   34CHL1    C5 3630   2.581   3.776   5.749  1.2137  0.4951 -0.1875
   34CHL1    C6 3631   2.533   3.898   5.751  0.3029 -1.2215  0.6029
   34CHL1    H6 3632   2.506   3.953   5.842  0.7162  1.0947 -0.6009
   34CHL1    C7 3633   2.538   3.985   5.630  1.1031 -0.4917  0.5547
   34CHL1   H7A 3634   2.443   4.042   5.629  2.3412  1.7014  1.0505
   34CHL1   H7B 3635   2.624   4.055   5.630  0.5635  0.3244 -2.2419
   34CHL1    C8 3636   2.544   3.907   5.497  0.7269  0.3192  0.2460
   34CHL1    H8 3637   2.453   3.845   5.482  1.2754 -0.5387  0.3568
   34CHL1   C14 3638   2.552   4.003   5.378 -0.0673  0.8237 -0.8143
   34CHL1   H14 3639   2.639   4.071   5.383  0.0941  0.6158 -0.8069
   34CHL1   C15 3640   2.427   4.084   5.362 -0.1861 -0.2630  0.6345
   34CHL1  H15A 3641   2.335   4.023   5.360 -1.1968  1.2077 -0.6436
   34CHL1  H15B 3642   2.414   4.166   5.437  0.7355  0.1169  0.3941
   34CHL1   C16 3643   2.448   4.141   5.216 -0.2277  0.4624 -0.5415
   34CHL1  H16A 3644   2.349   4.120   5.172 -1.0890  0.1602  1.4283
   34CHL1  H16B 3645   2.465   4.250   5.221  0.2027  0.3420  2.2956
   34CHL1   C17 3646   2.565   4.056   5.153  0.7590  0.8971 -0.6664
   34CHL1   H17 3647   2.665   4.105   5.167  0.1996  1.5794  1.2143
   34CHL1   C13 3648   2.571   3.932   5.246 -1.1574 -0.3756 -0.0621
   34CHL1   C18 3649   2.459   3.841   5.202  0.1410  0.1001  0.0225
   34CHL1  H18A 3650   2.368   3.897   5.170 -1.0629 -1.2907  0.8704
   34CHL1  H18B 3651   2.497   3.778   5.119  2.2939  0.2494  0.8458
   34CHL1  H18C 3652   2.409   3.777   5.278  0.6444 -0.8497 -0.4295
   34CHL1   C12 3653   2.699   3.853   5.254  0.9629  0.6127  0.4020
   34CHL1  H12A 3654   2.707   3.795   5.160 -0.1864 -0.7655  1.1119
   34CHL1  H12B 3655   2.795   3.906   5.272  2.2894 -1.5639  0.1650
   34CHL1   C11 3656   2.683   3.745   5.361 -0.4429 -0.2299  0.1331
   34CHL1  H11A 3657   2.595   3.683   5.335 -0.2615 -0.0941 -0.8405
   34CHL1  H11B 3658   2.770   3.676   5.362 -0.4557 -0.2652 -0.6761
   34CHL1    C9 3659   2.659   3.808   5.500 -0.0580  0.2986 -0.6515
   34CHL1    H9 3660   2.750   3.871   5.512  1.1847 -1.0945 -2.2914
   34CHL1   C10 3661   2.642   3.709   5.625  0.5225  0.3443 -0.2208
   34CHL1   C19 3662   2.570   3.585   5.577  0.4786  0.8045  0.0231
   34CHL1  H19A 3663   2.468   3.614   5.543  0.4708 -1.0455 -1.6973
   34CHL1  H19B 3664   2.625   3.537   5.494 -1.3935  0.3622 -1.0172
   34CHL1  H19C 3665   2.557   3.513   5.661  0.3674  1.9926  1.0650
   34CHL1    C1 3666   2.787   3.658   5.657 -0.9807  0.0526 -0.2305
   34CHL1   H1A 3667   2.822   3.608   5.564 -1.8761 -0.5099 -0.2815
   34CHL1   H1B 3668   2.857   3.743   5.669 -1.6917  0.6757 -0.4535
   34CHL1    C2 3669   2.800   3.570   5.780 -0.6245 -0.0176  0.0204
   34CHL1   H2A 3670   2.898   3.533   5.815  0.2907  1.6442 -0.6519
   34CHL1   H2B 3671   2.749   3.474   5.757 -1.1359 -0.2398  1.9780
   34CHL1   C20 3672   2.558   4.047   5.000 -0.6278 -0.0367 -0.4000
   34CHL1   H20 3673   2.480   3.974   4.972 -2.0798  1.2311  0.2078
   34CHL1   C21 3674   2.697   3.992   4.951  0.8161 -0.2840  0.2152
   34CHL1  H21A 3675   2.781   4.059   4.980 -1.0467  0.9180  3.4123
   34CHL1  H21B 3676   2.696   3.984   4.840  0.0639  2.7491 -0.0932
   34CHL1  H21C 3677   2.708   3.886   4.983  0.7881 -0.1952  0.5196
   34CHL1   C22 3678   2.532   4.180   4.937 -0.3914 -0.7273  0.1284
   34CHL1  H22A 3679   2.430   4.215   4.963 -0.6829 -1.7259  0.3675
   34CHL1  H22B 3680   2.600   4.249   4.991  1.9844 -2.4013 -0.5321
   34CHL1   C23 3681   2.534   4.197   4.782 -0.0507 -0.1512 -0.3471
   34CHL1  H23A 3682   2.638   4.212   4.746  0.4760  0.3003  1.2689
   34CHL1  H23B 3683   2.487   4.105   4.742 -0.0646 -0.2778 -0.0398
   34CHL1   C24 3684   2.456   4.327   4.735  0.4789 -0.7499  0.7102
   34CHL1  H24A 3685   2.354   4.332   4.780 -0.1734  2.7618 -0.8581
   34CHL1  H24B 3686   2.506   4.419   4.772 -0.9111  0.9081 -1.2989
   34CHL1   C25 3687   2.439   4.322   4.580 -0.6155  0.1245 -0.1634
   34CHL1   H25 3688   2.529   4.279   4.531 -1.9318 -1.2363 -1.4987
   34CHL1   C26 3689   2.316   4.236   4.543 -0.1738  0.0365  0.8551
   34CHL1  H26A 3690   2.330   4.236   4.433 -1.6199 -0.0054  0.6477
   34CHL1  H26B 3691   2.313   4.128   4.570 -1.9118 -1.4161 -4.0229
   34CHL1  H26C 3692   2.215   4.276   4.566 -1.5010 -2.9324  0.7136
   34CHL1   C27 3693   2.415   4.453   4.506 -0.6152  0.3243 -0.1583
   34CHL1  H27A 3694   2.317   4.498   4.535  0.4628  1.8293  1.4076
   34CHL1  H27B 3695   2.493   4.527   4.536 -1.5074  1.4010 -0.4103
   34CHL1  H27C 3696   2.417   4.442   4.396  2.3837  0.4572 -0.1997
   35CHL1    C3 3697   6.308   3.897   5.841 -0.2082 -0.3516  0.0099
   35CHL1    H3 3698   6.410   3.865   5.812  0.0979 -0.4783  1.1527
   35CHL1    O3 3699   6.275   3.835   5.965 -0.4149 -0.1436 -0.4126
   35CHL1   H3' 3700   6.258   3.911   6.021  2.0648 -0.0870  0.3944
   35CHL1    C4 3701   6.276   4.045   5.856 -0.4965 -0.5315  0.2428
   35CHL1   H4A 3702   6.167   4.049   5.877 -0.9051  1.2098 -1.9106
   35CHL1   H4B 3703   6.322   4.096   5.943 -1.5012  0.7575  0.0533
   35CHL1    C5 3704   6.293   4.127   5.733  0.3218 -0.1214 -0.2268
   35CHL1    C6 3705   6.380   4.231   5.733 -0.9253  0.1124  1.1179
   35CHL1    H6 3706   6.440   4.268   5.817  0.3903 -1.1640  0.7926
   35CHL1    C7 3707   6.406   4.314   5.609 -0.0604  0.8405  0.7574
   35CHL1   H7A 3708   6.396   4.418   5.645  4.1298  1.2431  1.2090
   35CHL1   H7B 3709   6.504   4.270   5.580 -0.5908 -0.4698  0.8491
   35CHL1    C8 3710   6.306   4.292   5.495 -0.7865  0.0625 -0.5364
   35CHL1    H8 3711   6.210   4.344   5.510 -1.0647 -0.4527 -0.4956
   35CHL1   C14 3712   6.382   4.345   5.372  0.1719 -0.4378 -0.1016
   35CHL1   H14 3713   6.475   4.286   5.358  1.6315  1.7094  0.0507
   35CHL1   C15 3714   6.441   4.480   5.379 -0.2237 -0.2452 -0.4288
   35CHL1  H15A 3715   6.371   4.561   5.408  0.2861 -0.2975  1.0392
   35CHL1  H15B 3716   6.527   4.472   5.449 -0.7366 -0.9836  0.1253
   35CHL1   C16 3717   6.464   4.510   5.225 -0.5375 -0.3693 -0.9737
   35CHL1  H16A 3718   6.432   4.609   5.186 -1.9165 -0.4059 -0.0112
   35CHL1  H16B 3719   6.574   4.500   5.216 -0.1782  2.6917 -0.9583
   35CHL1   C17 3720   6.401   4.395   5.139 -0.7911 -0.2957  0.5530
   35CHL1   H17 3721   6.482   4.321   5.122 -0.3556  0.3978 -0.5159
   35CHL1   C13 3722   6.301   4.329   5.243 -0.2718  0.5316  0.1115
   35CHL1   C18 3723   6.163   4.406   5.253  0.5200 -0.3308 -0.4078
   35CHL1  H18A 3724   6.189   4.509   5.284 -2.2189 -0.3520  2.5170
   35CHL1  H18B 3725   6.121   4.404   5.150  0.8427  0.3808 -0.5607
   35CHL1  H18C 3726   6.087   4.362   5.320 -0.6264  1.2335 -0.6208
   35CHL1   C12 3727   6.281   4.172   5.228 -0.0298 -0.2456  0.0362
   35CHL1  H12A 3728   6.220   4.153   5.137  2.9281 -3.4950 -1.5064
   35CHL1  H12B 3729   6.376   4.118   5.210 -0.3226  0.0930 -2.9612
   35CHL1   C11 3730   6.203   4.103   5.348 -0.1032 -0.8864  0.0100
   35CHL1  H11A 3731   6.098   4.138   5.343  0.2149  0.1477  0.3689
   35CHL1  H11B 3732   6.202   3.992   5.335  1.9443 -1.5010  3.7714
   35CHL1    C9 3733   6.280   4.137   5.481 -0.0264 -0.7448  0.2662
   35CHL1    H9 3734   6.383   4.103   5.456 -0.0462  0.2636 -1.3617
   35CHL1   C10 3735   6.227   4.070   5.610 -0.1584  0.2238  1.2335
   35CHL1   C19 3736   6.074   4.112   5.619 -0.6971  0.1774 -0.2201
   35CHL1  H19A 3737   6.060   4.222   5.633 -0.6716  0.5090 -2.3654
   35CHL1  H19B 3738   6.017   4.082   5.528 -0.0307  2.0007 -1.3002
   35CHL1  H19C 3739   6.021   4.060   5.701 -0.5196  2.9450  1.7987
   35CHL1    C1 3740   6.246   3.919   5.602 -0.5565 -0.2620 -0.2291
   35CHL1   H1A 3741   6.173   3.877   5.530 -1.0497 -0.5323  0.4129
   35CHL1   H1B 3742   6.348   3.904   5.561  0.5416  0.6045  2.0020
   35CHL1    C2 3743   6.217   3.842   5.735  0.2144 -0.5177  0.3921
   35CHL1   H2A 3744   6.230   3.732   5.727  1.0747 -0.3812 -0.2607
   35CHL1   H2B 3745   6.110   3.860   5.756 -0.6336 -1.7295 -2.4344
   35CHL1   C20 3746   6.359   4.430   4.995  0.0271 -0.2204 -0.3223
   35CHL1   H20 3747   6.285   4.512   4.996 -0.1069 -0.3237 -1.0021
   35CHL1   C21 3748   6.302   4.303   4.931 -0.6049 -0.4645  0.1237
   35CHL1  H21A 3749   6.200   4.290   4.971 -1.3556 -1.1943 -1.8763
   35CHL1  H21B 3750   6.368   4.217   4.957  0.8588  0.0974 -1.5449
   35CHL1  H21C 3751   6.298   4.317   4.821  3.3909 -1.1472 -0.2570
   35CHL1   C22 3752   6.469   4.494   4.907 -0.5589  0.2347 -0.2591
   35CHL1  H22A 3753   6.427   4.497   4.804 -0.3716  1.4647 -0.3175
   35CHL1  H22B 3754   6.486   4.596   4.948 -0.8778  0.5656 -0.9347
   35CHL1   C23 3755   6.604   4.416   4.904  0.5239  0.3975 -0.0732
   35CHL1  H23A 3756   6.645   4.414   5.007  1.4780 -0.2546 -0.4532
   35CHL1  H23B 3757   6.579   4.311   4.876 -3.2229  0.9531  0.6720
   35CHL1   C24 3758   6.704   4.467   4.799  0.1447 -0.0502 -0.3782
   35CHL1  H24A 3759   6.706   4.578   4.792 -0.0935 -0.0966 -1.3791
   35CHL1  H24B 3760   6.807   4.457   4.841  1.0066  3.7413 -1.2234
   35CHL1   C25 3761   6.690   4.399   4.664 -0.1606  0.2501  0.5026
   35CHL1   H25 3762   6.580   4.395   4.650 -0.2453  0.4433  1.0665
   35CHL1   C26 3763   6.744   4.482   4.554 -0.1481  0.4689  0.1609
   35CHL1  H26A 3764   6.749   4.430   4.456 -0.3977 -0.3734  0.5853
   35CHL1  H26B 3765   6.693   4.581   4.552 -0.7639  0.1407 -1.1615
   35CHL1  H26C 3766   6.851   4.511   4.570  0.1364  1.3339 -2.6780
   35CHL1   C27 3767   6.744   4.255   4.665 -0.2224  0.5577 -0.2218
   35CHL1  H27A 3768   6.738   4.213   4.562  0.8569 -0.9865  0.3012
   35CHL1  H27B 3769   6.848   4.238   4.698 -0.1719  2.2687  0.5697
   35CHL1  H27C 3770   6.683   4.198   4.738  0.6384 -0.1602 -0.0512
   36CHL1    C3 3771   2.265   1.123   6.241 -0.1057  0.2853 -0.0975
   36CHL1    H3 3772   2.315   1.028   6.211  1.0541  1.0225 -0.5599
   36CHL1    O3 3773   2.299   1.166   6.374 -0.4522  0.2326 -0.3978
   36CHL1   H3' 3774   2.253   1.119   6.444  0.0073  1.2484  0.6185
   36CHL1    C4 3775   2.318   1.235   6.151  0.0457  0.3151 -0.2414
   36CHL1   H4A 3776   2.273   1.334   6.176 -0.4448 -0.0671  0.4498
   36CHL1   H4B 3777   2.425   1.239   6.180 -0.6671  0.6959  2.7575
   36CHL1    C5 3778   2.281   1.205   6.012  1.0472  0.0631 -0.6931
   36CHL1    C6 3779   2.377   1.203   5.921  0.7151 -0.6366  0.3838
   36CHL1    H6 3780   2.480   1.237   5.942  1.1288  0.5013 -2.8588
   36CHL1    C7 3781   2.348   1.178   5.777  0.0380  0.0698  0.3398
   36CHL1   H7A 3782   2.406   1.237   5.703  1.5802 -0.5198  1.0448
   36CHL1   H7B 3783   2.393   1.081   5.746 -1.1539 -0.2631 -0.4293
   36CHL1    C8 3784   2.197   1.184   5.734 -0.1316  0.1815  0.0660
   36CHL1    H8 3785   2.164   1.290   5.730  0.3851  0.3076 -1.4727
   36CHL1   C14 3786   2.160   1.122   5.600 -0.3574 -0.3242  0.7795
   36CHL1   H14 3787   2.184   1.015   5.616  2.1636  0.4126  2.6398
   36CHL1   C15 3788   2.243   1.164   5.479  0.4492 -0.5047  0.3853
   36CHL1  H15A 3789   2.231   1.275   5.477 -1.9124 -0.6816  1.4412
   36CHL1  H15B 3790   2.348   1.129   5.486  1.2567  0.9690 -2.6147
   36CHL1   C16 3791   2.164   1.112   5.364  0.0841  1.0448  0.0568
   36CHL1  H16A 3792   2.131   1.189   5.290 -0.6718  0.6104 -0.0764
   36CHL1  H16B 3793   2.223   1.027   5.323  0.0505  1.4825 -0.9443
   36CHL1   C17 3794   2.027   1.049   5.414 -0.6715 -0.3660  1.0234
   36CHL1   H17 3795   2.056   0.943   5.434 -0.1576 -0.5383 -0.5407
   36CHL1   C13 3796   2.014   1.109   5.548 -0.0004 -0.0362 -1.5802
   36CHL1   C18 3797   1.964   1.256   5.537  0.0817 -0.3001  0.6860
   36CHL1  H18A 3798   1.873   1.266   5.474  1.7493  0.0968 -1.8200
   36CHL1  H18B 3799   1.952   1.303   5.637  1.2358  1.0435  0.2286
   36CHL1  H18C 3800   2.029   1.324   5.478  1.9371 -2.6810 -0.1602
   36CHL1   C12 3801   1.939   1.021   5.659  0.4209 -0.1477  0.1887
   36CHL1  H12A 3802   1.830   1.007   5.640  0.6159 -2.7675  0.5566
   36CHL1  H12B 3803   1.970   0.915   5.665 -0.9388 -0.7156 -1.8773
   36CHL1   C11 3804   1.958   1.082   5.801 -0.9345  0.0194  0.3225
   36CHL1  H11A 3805   1.903   1.179   5.796 -1.3612 -0.2820 -1.7366
   36CHL1  H11B 3806   1.901   1.030   5.880 -2.1444  3.1569  1.6865
   36CHL1    C9 3807   2.109   1.117   5.844  0.3709 -0.4971  0.8424
   36CHL1    H9 3808   2.147   1.015   5.862  0.4353 -0.9222 -1.4658
   36CHL1   C10 3809   2.128   1.174   5.989  0.0345 -1.2496 -0.9021
   36CHL1   C19 3810   2.056   1.313   5.990  0.3665 -0.3016  0.2259
   36CHL1  H19A 3811   2.090   1.371   5.902 -0.7766  0.8911  0.5356
   36CHL1  H19B 3812   1.948   1.297   5.971  0.2456  0.8275 -0.0782
   36CHL1  H19C 3813   2.068   1.377   6.080 -0.5605  0.2781 -0.0501
   36CHL1    C1 3814   2.077   1.077   6.091 -0.0555  0.2104  0.2672
   36CHL1   H1A 3815   1.967   1.066   6.081 -0.3127 -0.8755  3.1327
   36CHL1   H1B 3816   2.119   0.979   6.061  0.1675  0.5608 -0.5897
   36CHL1    C2 3817   2.121   1.101   6.229 -0.1914  0.4910 -0.3405
   36CHL1   H2A 3818   2.073   1.021   6.289 -0.5251 -0.1298 -1.4063
   36CHL1   H2B 3819   2.082   1.198   6.265  0.8334  0.4013  1.0741
   36CHL1   C20 3820   1.910   1.062   5.316  0.4044 -0.1454 -0.3825
   36CHL1   H20 3821   1.868   1.165   5.311  0.8075  0.1807  1.7620
   36CHL1   C21 3822   1.790   0.972   5.356 -0.8294  0.5994  0.4458
   36CHL1  H21A 3823   1.726   0.945   5.270 -2.0310  0.2020  1.4340
   36CHL1  H21B 3824   1.718   1.033   5.414 -0.6712 -0.6859  2.0677
   36CHL1  H21C 3825   1.817   0.885   5.419 -1.8860 -2.0378 -2.4855
   36CHL1   C22 3826   1.948   1.022   5.173 -0.6519  0.0721 -0.1633
   36CHL1  H22A 3827   2.040   1.071   5.136  1.3950 -3.0402  0.4036
   36CHL1  H22B 3828   1.983   0.916   5.175  0.5070  0.3786 -1.8436
   36CHL1   C23 3829   1.843   1.049   5.063  0.3558  0.0609  0.4350
   36CHL1  H23A 3830   1.761   0.974   5.070  0.3173  0.2161  1.9858
   36CHL1  H23B 3831   1.817   1.157   5.071  2.7854  0.7767 -0.5609
   36CHL1   C24 3832   1.904   1.020   4.930 -0.2847 -0.8877 -0.4629
   36CHL1  H24A 3833   1.993   1.085   4.915  2.2001 -3.6260  1.3440
   36CHL1  H24B 3834   1.950   0.919   4.930  1.1916 -0.2406 -0.6698
   36CHL1   C25 3835   1.808   1.043   4.807 -0.5626 -0.7566  0.1401
   36CHL1   H25 3836   1.763   1.144   4.807 -1.2497 -1.0533  0.9426
   36CHL1   C26 3837   1.898   1.024   4.680  0.1066  0.8012  0.3785
   36CHL1  H26A 3838   1.953   0.929   4.667 -4.0581 -1.6428 -1.3459
   36CHL1  H26B 3839   1.831   1.031   4.592  1.4957 -1.9947 -0.9968
   36CHL1  H26C 3840   1.972   1.104   4.660  1.4676 -0.8385 -1.4937
   36CHL1   C27 3841   1.701   0.939   4.814 -0.1810 -0.3675  0.7842
   36CHL1  H27A 3842   1.640   0.970   4.902 -1.9890  1.6922 -1.0457
   36CHL1  H27B 3843   1.642   0.955   4.721  3.1763  4.4883 -0.9427
   36CHL1  H27C 3844   1.746   0.839   4.833  1.2318 -0.2415 -1.5438
   37CHL1    C3 3845   5.770   6.133   6.023  0.1582  0.1673  0.2691
   37CHL1    H3 3846   5.860   6.197   6.033  0.0084  0.3084  0.7321
   37CHL1    O3 3847   5.726   6.084   6.152 -0.2487 -0.1076  0.3112
   37CHL1   H3' 3848   5.651   6.025   6.143 -0.0907 -0.0723 -1.5272
   37CHL1    C4 3849   5.647   6.203   5.962 -0.2691 -0.3907 -0.1332
   37CHL1   H4A 3850   5.554   6.143   5.968 -1.2119  1.0015 -0.1185
   37CHL1   H4B 3851   5.612   6.287   6.026 -0.2539 -1.1064  0.8273
   37CHL1    C5 3852   5.677   6.248   5.822 -0.4655  0.3426  0.0137
   37CHL1    C6 3853   5.682   6.374   5.789 -0.3679 -0.4398  0.4732
   37CHL1    H6 3854   5.658   6.448   5.867  0.0371 -0.6144  0.7612
   37CHL1    C7 3855   5.719   6.438   5.659 -0.4025  0.2635 -0.4119
   37CHL1   H7A 3856   5.664   6.531   5.630 -3.2634 -1.4191 -0.7696
   37CHL1   H7B 3857   5.827   6.461   5.666  0.5605 -3.0117 -2.5255
   37CHL1    C8 3858   5.720   6.332   5.541 -0.3485 -0.0899  0.1296
   37CHL1    H8 3859   5.616   6.304   5.513 -0.3669  0.1115 -0.0095
   37CHL1   C14 3860   5.802   6.376   5.415  0.1134  0.0547  0.1232
   37CHL1   H14 3861   5.903   6.384   5.460 -0.3375  0.9675  0.9964
   37CHL1   C15 3862   5.777   6.516   5.351  0.2623  0.0792 -0.2225
   37CHL1  H15A 3863   5.668   6.527   5.334 -0.0046  0.8497  1.8178
   37CHL1  H15B 3864   5.832   6.592   5.409 -3.2720  2.6656  0.0548
   37CHL1   C16 3865   5.839   6.506   5.211  0.4444 -0.0183 -0.2159
   37CHL1  H16A 3866   5.763   6.540   5.137 -0.3153  3.4860  1.9460
   37CHL1  H16B 3867   5.920   6.581   5.200  0.7558  0.3062  3.3186
   37CHL1   C17 3868   5.885   6.359   5.188  0.5477  1.0688 -0.6284
   37CHL1   H17 3869   5.991   6.359   5.223 -0.0967  0.3991  1.4325
   37CHL1   C13 3870   5.804   6.283   5.296 -0.0355  0.0129  0.3740
   37CHL1   C18 3871   5.658   6.263   5.232  0.0622 -0.4451 -0.9724
   37CHL1  H18A 3872   5.625   6.365   5.204 -0.6915  0.0264  1.3850
   37CHL1  H18B 3873   5.643   6.192   5.147 -0.2298 -0.8236 -0.6095
   37CHL1  H18C 3874   5.584   6.224   5.304  0.4107 -0.1767 -0.4641
   37CHL1   C12 3875   5.858   6.150   5.349  0.4948  0.4453 -0.1323
   37CHL1  H12A 3876   5.854   6.075   5.268  0.8547 -1.1425  1.2655
   37CHL1  H12B 3877   5.965   6.158   5.380  0.4716  0.5303 -0.0719
   37CHL1   C11 3878   5.782   6.093   5.473  0.2573 -0.3957  0.0182
   37CHL1  H11A 3879   5.677   6.075   5.443 -0.8845  3.1421  1.3398
   37CHL1  H11B 3880   5.813   5.995   5.516 -1.9083 -1.2004 -0.1552
   37CHL1    C9 3881   5.783   6.202   5.586  0.0415 -0.3033 -0.1078
   37CHL1    H9 3882   5.892   6.222   5.596  0.3277 -0.1812 -2.6789
   37CHL1   C10 3883   5.727   6.148   5.720  0.0672 -0.1716  0.1014
   37CHL1   C19 3884   5.608   6.054   5.697  1.2727  0.7315  0.5579
   37CHL1  H19A 3885   5.526   6.094   5.635  0.5412 -0.1606  0.9254
   37CHL1  H19B 3886   5.651   5.962   5.653 -1.5375 -1.2890  1.7136
   37CHL1  H19C 3887   5.576   6.016   5.797 -0.0747  1.1745  0.3155
   37CHL1    C1 3888   5.847   6.067   5.788 -0.7855  0.1225 -0.5557
   37CHL1   H1A 3889   5.869   5.979   5.723  0.3886  0.0749 -0.1273
   37CHL1   H1B 3890   5.941   6.125   5.790 -0.8711  0.2798  2.1261
   37CHL1    C2 3891   5.819   6.016   5.931  0.3478 -0.0786  0.3495
   37CHL1   H2A 3892   5.903   5.959   5.977 -1.9470 -1.6849  2.8352
   37CHL1   H2B 3893   5.743   5.935   5.937 -0.9639  1.1473  0.8907
   37CHL1   C20 3894   5.874   6.312   5.040  0.5591  0.1160  0.0094
   37CHL1   H20 3895   5.768   6.288   5.016  0.6097  0.4007 -0.5134
   37CHL1   C21 3896   5.961   6.188   5.028 -0.3962 -0.7413 -0.0864
   37CHL1  H21A 3897   6.067   6.222   5.025 -0.5873 -0.2209 -1.7530
   37CHL1  H21B 3898   5.937   6.119   4.945 -0.1249  0.8214 -1.5089
   37CHL1  H21C 3899   5.950   6.122   5.118 -1.8751 -0.9562 -0.3910
   37CHL1   C22 3900   5.901   6.421   4.933 -0.8739 -0.5159  0.1827
   37CHL1  H22A 3901   5.877   6.517   4.982  2.5898 -0.2454  1.6653
   37CHL1  H22B 3902   6.009   6.432   4.909 -0.9797  1.7365  0.5185
   37CHL1   C23 3903   5.817   6.400   4.806  0.2003  0.0626 -0.4387
   37CHL1  H23A 3904   5.837   6.298   4.767 -0.2629 -0.6147  0.9992
   37CHL1  H23B 3905   5.713   6.400   4.844  0.3828 -1.5487  0.1270
   37CHL1   C24 3906   5.856   6.514   4.711 -0.0633 -0.3213  0.1863
   37CHL1  H24A 3907   5.847   6.606   4.773 -2.8840 -1.1616  1.2340
   37CHL1  H24B 3908   5.960   6.503   4.673 -0.1479  0.1379 -0.1785
   37CHL1   C25 3909   5.761   6.539   4.595  0.2620  0.4633  0.2572
   37CHL1   H25 3910   5.676   6.587   4.648 -1.0971 -1.7235  0.1865
   37CHL1   C26 3911   5.818   6.644   4.497 -0.3986  0.2809 -0.3264
   37CHL1  H26A 3912   5.834   6.745   4.540 -1.7747  0.5273 -0.3646
   37CHL1  H26B 3913   5.912   6.600   4.456 -1.4499 -2.5299  0.0381
   37CHL1  H26C 3914   5.750   6.662   4.411 -0.4230  1.0610 -0.1478
   37CHL1   C27 3915   5.708   6.420   4.526  0.1381  0.2367 -0.6620
   37CHL1  H27A 3916   5.639   6.458   4.447 -0.7647  0.2254  0.0968
   37CHL1  H27B 3917   5.784   6.350   4.485 -1.6561 -1.6125 -1.0144
   37CHL1  H27C 3918   5.652   6.349   4.590  1.2214 -1.5918 -1.6465
   38CHL1    C3 3919   6.550   6.184   6.054 -0.7529 -0.7515  0.3668
   38CHL1    H3 3920   6.529   6.292   6.064 -1.9418 -1.0520  1.2708
   38CHL1    O3 3921   6.580   6.133   6.180  0.3367  0.1424  0.2098
   38CHL1   H3' 3922   6.513   6.169   6.238 -0.7547 -1.4084 -0.0343
   38CHL1    C4 3923   6.443   6.105   5.982 -0.0721  0.4078  0.3182
   38CHL1   H4A 3924   6.459   5.996   5.998 -0.7381  0.4468  1.4132
   38CHL1   H4B 3925   6.351   6.133   6.039  0.3115  2.3050  0.0684
   38CHL1    C5 3926   6.429   6.131   5.831  0.0024 -0.1657  0.7035
   38CHL1    C6 3927   6.305   6.168   5.783 -0.2623 -0.0172 -0.7860
   38CHL1    H6 3928   6.217   6.165   5.849  0.1288 -0.3331 -0.2776
   38CHL1    C7 3929   6.284   6.203   5.640 -0.1771 -0.4151  0.0877
   38CHL1   H7A 3930   6.202   6.147   5.591 -1.1840  1.0936 -0.0043
   38CHL1   H7B 3931   6.273   6.313   5.633  0.2279 -0.4908 -3.1040
   38CHL1    C8 3932   6.402   6.170   5.547  0.0575 -0.3305  0.3164
   38CHL1    H8 3933   6.399   6.059   5.537 -0.4255 -0.1888 -1.2882
   38CHL1   C14 3934   6.388   6.232   5.405  0.5401 -0.4457  0.0244
   38CHL1   H14 3935   6.376   6.341   5.422  1.5169 -0.3753  0.3501
   38CHL1   C15 3936   6.263   6.193   5.321 -0.0654  0.3665 -0.6488
   38CHL1  H15A 3937   6.256   6.082   5.320  0.8169  0.2322  1.5561
   38CHL1  H15B 3938   6.171   6.235   5.367  0.2158  0.1942  0.0866
   38CHL1   C16 3939   6.303   6.251   5.183 -0.0469  0.1400 -0.0305
   38CHL1  H16A 3940   6.278   6.170   5.110  0.2543 -2.0246  2.1283
   38CHL1  H16B 3941   6.232   6.335   5.169 -0.6018 -0.2541  0.3740
   38CHL1   C17 3942   6.451   6.288   5.194 -0.5551 -0.0042 -0.3232
   38CHL1   H17 3943   6.445   6.396   5.220 -1.9262  0.3151 -1.8080
   38CHL1   C13 3944   6.509   6.214   5.317  0.1684 -0.0628  0.1888
   38CHL1   C18 3945   6.522   6.060   5.277 -0.0920  0.4334  0.4824
   38CHL1  H18A 3946   6.513   5.997   5.367 -4.9683 -0.3854 -0.2751
   38CHL1  H18B 3947   6.447   6.017   5.206 -0.9697 -2.5769  3.0290
   38CHL1  H18C 3948   6.625   6.035   5.245  0.9699  0.9675  3.2546
   38CHL1   C12 3949   6.631   6.277   5.392  0.3534  0.2524  0.8421
   38CHL1  H12A 3950   6.723   6.254   5.335  0.0915 -1.6489  1.1106
   38CHL1  H12B 3951   6.621   6.387   5.395 -0.9120  0.1284  2.8910
   38CHL1   C11 3952   6.655   6.200   5.520 -0.3081  0.4610 -0.1606
   38CHL1  H11A 3953   6.666   6.095   5.485 -1.9006  0.2192 -0.0180
   38CHL1  H11B 3954   6.751   6.230   5.566  0.1801  1.6805 -1.8584
   38CHL1    C9 3955   6.534   6.213   5.611 -0.5806  0.3237 -0.4059
   38CHL1    H9 3956   6.519   6.319   5.639 -0.9341  0.5637 -1.4756
   38CHL1   C10 3957   6.561   6.143   5.746  0.3493  0.2398 -0.9254
   38CHL1   C19 3958   6.611   5.995   5.722  0.0803  0.3094 -0.2180
   38CHL1  H19A 3959   6.585   5.934   5.811  0.9486  1.8728  1.1727
   38CHL1  H19B 3960   6.554   5.955   5.635 -3.2458 -1.8640  2.7022
   38CHL1  H19C 3961   6.720   6.000   5.701 -0.1070 -1.7800 -2.0100
   38CHL1    C1 3962   6.665   6.221   5.832  0.1204  0.0978 -0.1269
   38CHL1   H1A 3963   6.757   6.209   5.770 -0.6642  1.2761 -1.6012
   38CHL1   H1B 3964   6.635   6.327   5.819 -3.0294 -0.9136 -2.4035
   38CHL1    C2 3965   6.681   6.176   5.976 -0.1254  0.1237 -0.3662
   38CHL1   H2A 3966   6.760   6.236   6.026 -0.0170 -1.5199  1.5828
   38CHL1   H2B 3967   6.703   6.067   5.981  0.5060  0.1559 -1.8960
   38CHL1   C20 3968   6.523   6.272   5.063  0.4690 -1.6816  0.3728
   38CHL1   H20 3969   6.502   6.170   5.025 -1.9849 -1.0642 -0.1138
   38CHL1   C21 3970   6.674   6.288   5.072 -0.3108 -0.3389  0.1316
   38CHL1  H21A 3971   6.696   6.389   5.110  2.5393 -1.2285  1.0564
   38CHL1  H21B 3972   6.725   6.281   4.974 -2.6863 -1.6345 -1.1074
   38CHL1  H21C 3973   6.715   6.205   5.134  1.8892  0.2011 -0.5415
   38CHL1   C22 3974   6.460   6.361   4.945 -0.3864  0.3453 -0.1279
   38CHL1  H22A 3975   6.390   6.442   4.976 -1.3322  0.2260 -1.8525
   38CHL1  H22B 3976   6.555   6.404   4.907 -1.3834  0.9583 -2.0508
   38CHL1   C23 3977   6.379   6.272   4.850 -0.0652 -0.7061  0.8854
   38CHL1  H23A 3978   6.440   6.190   4.807 -0.9884 -0.6488 -0.6197
   38CHL1  H23B 3979   6.292   6.236   4.908 -1.6566  1.9750  0.3642
   38CHL1   C24 3980   6.327   6.343   4.734  0.0431 -0.4991  0.1211
   38CHL1  H24A 3981   6.257   6.416   4.781  0.2967 -0.4914  0.4886
   38CHL1  H24B 3982   6.411   6.407   4.701  0.3555 -0.1156  1.5650
   38CHL1   C25 3983   6.247   6.262   4.626 -0.1250 -0.7655  0.8921
   38CHL1   H25 3984   6.317   6.189   4.580  0.2360  0.0954  0.0427
   38CHL1   C26 3985   6.129   6.193   4.687  0.2500  0.3541 -0.3294
   38CHL1  H26A 3986   6.154   6.114   4.760 -0.3860  1.4212  1.0741
   38CHL1  H26B 3987   6.059   6.274   4.716 -1.2572  0.8608 -4.6101
   38CHL1  H26C 3988   6.072   6.135   4.611  1.5997 -2.4416  0.6667
   38CHL1   C27 3989   6.200   6.358   4.507  0.5716 -0.0059 -0.2481
   38CHL1  H27A 3990   6.113   6.413   4.548  2.2734  2.7070 -0.0119
   38CHL1  H27B 3991   6.277   6.434   4.480  0.1546  0.6286  0.3203
   38CHL1  H27C 3992   6.163   6.295   4.424 -0.0377  0.1712 -0.1148
   39CHL1    C3 3993   5.605   0.611   5.829  0.0595 -0.1790 -0.8713
   39CHL1    H3 3994   5.673   0.698   5.845 -0.4362  0.1983 -0.7905
   39CHL1    O3 3995   5.569   0.553   5.952 -0.8014 -0.7928  0.1391
   39CHL1   H3' 3996   5.652   0.516   5.983 -1.4246 -4.7482 -2.2090
   39CHL1    C4 3997   5.484   0.664   5.746 -0.9803 -0.2783 -0.3793
   39CHL1   H4A 3998   5.418   0.575   5.745 -0.0005 -1.1540  2.3406
   39CHL1   H4B 3999   5.442   0.750   5.802  1.8973  1.2922 -0.4074
   39CHL1    C5 4000   5.508   0.709   5.605 -0.7541 -0.8447 -0.0985
   39CHL1    C6 4001   5.480   0.834   5.560  0.1504 -0.1949  0.6054
   39CHL1    H6 4002   5.441   0.903   5.636  1.1930 -0.8063  1.7316
   39CHL1    C7 4003   5.494   0.878   5.414  0.6475  0.5168  0.5861
   39CHL1   H7A 4004   5.408   0.932   5.370 -0.8995 -2.2010  0.0804
   39CHL1   H7B 4005   5.585   0.942   5.417  0.9859  0.1090 -0.5542
   39CHL1    C8 4006   5.528   0.755   5.322 -0.6627 -0.3318 -0.0414
   39CHL1    H8 4007   5.432   0.700   5.308  0.1796 -2.3556  1.6050
   39CHL1   C14 4008   5.584   0.805   5.193  0.3220 -0.0895  0.3015
   39CHL1   H14 4009   5.678   0.858   5.219  1.5885 -1.6397 -0.9300
   39CHL1   C15 4010   5.500   0.908   5.114 -0.1662  0.4819 -0.0563
   39CHL1  H15A 4011   5.402   0.855   5.103  0.7712 -0.8747 -2.5034
   39CHL1  H15B 4012   5.508   1.004   5.168  0.4693  1.2109 -1.4112
   39CHL1   C16 4013   5.558   0.906   4.972 -0.2921  0.4120  0.4312
   39CHL1  H16A 4014   5.485   0.882   4.892  1.0645 -0.9316 -0.4696
   39CHL1  H16B 4015   5.612   1.000   4.948  0.8989 -0.4037 -0.1986
   39CHL1   C17 4016   5.659   0.780   4.982 -0.6767 -0.0993 -0.1913
   39CHL1   H17 4017   5.748   0.836   5.019  0.4267 -0.9846 -1.4039
   39CHL1   C13 4018   5.618   0.694   5.100 -0.0422 -0.1438 -0.2600
   39CHL1   C18 4019   5.494   0.612   5.073 -0.1029  0.3468 -0.3034
   39CHL1  H18A 4020   5.450   0.578   5.170  0.3185  3.0631  0.9335
   39CHL1  H18B 4021   5.420   0.673   5.016 -0.7692  0.5659  0.7541
   39CHL1  H18C 4022   5.528   0.516   5.029 -0.6722 -0.2377  0.4974
   39CHL1   C12 4023   5.735   0.611   5.155  0.2537  0.3159 -0.3513
   39CHL1  H12A 4024   5.764   0.533   5.082  1.1782  0.7134 -0.4305
   39CHL1  H12B 4025   5.815   0.683   5.185 -0.5707  0.6187  1.2609
   39CHL1   C11 4026   5.697   0.559   5.295 -0.4254 -0.1803 -0.3528
   39CHL1  H11A 4027   5.636   0.470   5.271  1.4787 -1.5121 -0.4141
   39CHL1  H11B 4028   5.785   0.522   5.351 -0.9691 -1.5865 -0.3900
   39CHL1    C9 4029   5.629   0.660   5.393 -0.5822 -0.1932 -0.3190
   39CHL1    H9 4030   5.711   0.732   5.415 -0.5538  0.4239 -2.2996
   39CHL1   C10 4031   5.583   0.602   5.524 -0.0639  0.4406 -0.9221
   39CHL1   C19 4032   5.487   0.486   5.506  0.5257 -0.4205 -0.2771
   39CHL1  H19A 4033   5.393   0.522   5.458 -1.1342 -0.3916  2.7286
   39CHL1  H19B 4034   5.522   0.399   5.446  0.0876 -1.2610  0.6593
   39CHL1  H19C 4035   5.452   0.432   5.597 -1.3252 -0.7230 -1.1193
   39CHL1    C1 4036   5.708   0.564   5.608 -0.4376  0.0430 -0.3505
   39CHL1   H1A 4037   5.772   0.492   5.553  0.0725 -0.9566  1.4672
   39CHL1   H1B 4038   5.777   0.649   5.626 -1.4263  0.3955  2.0320
   39CHL1    C2 4039   5.682   0.507   5.746  0.8144  0.7892  0.3158
   39CHL1   H2A 4040   5.774   0.482   5.803 -0.4285  1.8233  2.9467
   39CHL1   H2B 4041   5.618   0.416   5.746  1.3138  0.4324  0.9889
   39CHL1   C20 4042   5.696   0.715   4.856 -0.3316 -0.3851 -0.5022
   39CHL1   H20 4043   5.755   0.624   4.882 -1.2398 -0.8911 -0.1556
   39CHL1   C21 4044   5.782   0.810   4.770  0.1361  0.1362 -0.5726
   39CHL1  H21A 4045   5.873   0.844   4.825  0.4143  0.2843 -1.1125
   39CHL1  H21B 4046   5.736   0.907   4.740 -1.7347 -0.6658 -0.3864
   39CHL1  H21C 4047   5.826   0.767   4.677  0.5643  0.7281 -0.6524
   39CHL1   C22 4048   5.577   0.662   4.774 -1.0400 -0.3111  0.0346
   39CHL1  H22A 4049   5.538   0.572   4.825 -0.6993  0.9905  2.7879
   39CHL1  H22B 4050   5.497   0.739   4.768  0.2356  1.0380 -0.3398
   39CHL1   C23 4051   5.593   0.625   4.628 -0.2334 -0.3565  0.3281
   39CHL1  H23A 4052   5.584   0.718   4.568 -1.8440 -0.2469  0.6728
   39CHL1  H23B 4053   5.694   0.582   4.616 -1.7740 -4.0212 -1.0464
   39CHL1   C24 4054   5.487   0.527   4.584 -0.0509  0.6095 -0.5357
   39CHL1  H24A 4055   5.499   0.430   4.638  0.5773  0.8928 -0.1528
   39CHL1  H24B 4056   5.389   0.557   4.626 -1.4843 -1.4984 -2.1044
   39CHL1   C25 4057   5.481   0.504   4.431 -0.4745 -0.2880 -0.2954
   39CHL1   H25 4058   5.582   0.483   4.388 -0.8598  0.0128 -1.3724
   39CHL1   C26 4059   5.394   0.381   4.403  0.5206  0.0480 -0.9070
   39CHL1  H26A 4060   5.299   0.375   4.459  0.0343 -4.2327 -1.8406
   39CHL1  H26B 4061   5.390   0.356   4.295 -0.5804  0.1235 -0.8954
   39CHL1  H26C 4062   5.444   0.294   4.451  0.1386  1.0774  1.5108
   39CHL1   C27 4063   5.430   0.623   4.347  0.4931 -0.2986 -0.6662
   39CHL1  H27A 4064   5.334   0.659   4.389 -0.4315 -1.0655 -2.0473
   39CHL1  H27B 4065   5.507   0.702   4.356  0.0539 -0.0918  2.3094
   39CHL1  H27C 4066   5.406   0.581   4.247 -1.5715 -1.4616  0.2389
   40CHL1    C3 4067   6.122   2.768   6.083 -0.9112 -0.3261 -0.2718
   40CHL1    H3 4068   6.085   2.664   6.094 -0.6298 -0.3840  0.1759
   40CHL1    O3 4069   6.154   2.801   6.215 -0.3950  0.0865  0.1799
   40CHL1   H3' 4070   6.071   2.801   6.263  0.3794  1.1724  1.6104
   40CHL1    C4 4071   6.256   2.765   5.997  0.6050  0.5906 -0.1590
   40CHL1   H4A 4072   6.290   2.869   5.983 -1.8664  1.7060  1.4841
   40CHL1   H4B 4073   6.328   2.704   6.056 -1.2899 -1.8502 -0.2012
   40CHL1    C5 4074   6.233   2.710   5.858 -0.1351  0.0448  0.2421
   40CHL1    C6 4075   6.292   2.601   5.812 -0.2127  0.3646 -0.8818
   40CHL1    H6 4076   6.367   2.541   5.866 -0.7902 -1.8985 -2.4618
   40CHL1    C7 4077   6.273   2.543   5.678 -0.1429 -0.0871  0.5275
   40CHL1   H7A 4078   6.370   2.512   5.634 -0.7182 -1.3448  0.0892
   40CHL1   H7B 4079   6.216   2.449   5.693  2.2260 -1.3868  2.0527
   40CHL1    C8 4080   6.194   2.634   5.582  0.5735  0.0263  0.0992
   40CHL1    H8 4081   6.272   2.704   5.543  0.9299 -0.6777 -0.4734
   40CHL1   C14 4082   6.142   2.556   5.461 -0.1363 -0.2789  0.1680
   40CHL1   H14 4083   6.063   2.493   5.507  0.1163 -0.0550  0.9296
   40CHL1   C15 4084   6.255   2.480   5.384  0.9513 -0.2665  0.2316
   40CHL1  H15A 4085   6.340   2.544   5.353  0.3965  1.1368  1.4733
   40CHL1  H15B 4086   6.286   2.393   5.445 -1.0472 -0.8287  0.5303
   40CHL1   C16 4087   6.168   2.430   5.266 -0.7459 -0.0321  0.4275
   40CHL1  H16A 4088   6.237   2.429   5.179  0.6891 -0.3037  1.5333
   40CHL1  H16B 4089   6.141   2.322   5.272 -0.9978 -0.1050 -1.4769
   40CHL1   C17 4090   6.045   2.526   5.257 -0.9224  0.4684  0.8926
   40CHL1   H17 4091   5.957   2.473   5.298 -1.9329 -0.8497 -2.6412
   40CHL1   C13 4092   6.072   2.639   5.360 -0.1595  0.0988  0.2421
   40CHL1   C18 4093   6.165   2.748   5.296  0.1550  0.9955 -0.6432
   40CHL1  H18A 4094   6.112   2.806   5.218  0.2729 -0.2255 -1.6626
   40CHL1  H18B 4095   6.192   2.824   5.372  1.0362 -0.9501  1.0614
   40CHL1  H18C 4096   6.255   2.709   5.244 -0.2971 -1.5794  0.3587
   40CHL1   C12 4097   5.944   2.704   5.427  0.0927 -0.3048 -0.4180
   40CHL1  H12A 4098   5.891   2.770   5.355 -1.7085  0.7764  1.7699
   40CHL1  H12B 4099   5.871   2.627   5.458 -2.1345  1.9770  0.4029
   40CHL1   C11 4100   5.985   2.783   5.553  0.1400 -0.0627  0.0137
   40CHL1  H11A 4101   6.045   2.870   5.520 -0.5397  0.5627  0.4007
   40CHL1  H11B 4102   5.897   2.818   5.611 -0.9275 -0.6752 -1.1835
   40CHL1    C9 4103   6.072   2.705   5.655 -0.4363 -0.1812 -0.0907
   40CHL1    H9 4104   6.009   2.623   5.695  1.6198 -1.3908  0.8101
   40CHL1   C10 4105   6.121   2.782   5.774 -0.1248  0.0829  0.8704
   40CHL1   C19 4106   6.191   2.917   5.725  0.4134  0.4306  0.1101
   40CHL1  H19A 4107   6.235   2.976   5.808 -2.8568  1.3954  1.3191
   40CHL1  H19B 4108   6.272   2.896   5.651 -1.6456  1.7732 -2.7119
   40CHL1  H19C 4109   6.110   2.976   5.677 -0.3413 -2.1530 -2.0768
   40CHL1    C1 4110   5.998   2.819   5.866  0.4468  1.4235 -0.4429
   40CHL1   H1A 4111   5.944   2.897   5.809 -1.0544 -0.3656 -1.5805
   40CHL1   H1B 4112   5.934   2.728   5.869 -1.4537  2.7169  0.9364
   40CHL1    C2 4113   6.016   2.858   6.021 -0.5394  0.1710 -0.4099
   40CHL1   H2A 4114   5.923   2.843   6.079 -0.6870  0.0883 -0.6657
   40CHL1   H2B 4115   6.050   2.963   6.032  0.9924 -0.2186 -1.1753
   40CHL1   C20 4116   6.013   2.566   5.112  0.1994  0.5106  0.1333
   40CHL1   H20 4117   6.102   2.623   5.076  0.0935  0.9420  0.5503
   40CHL1   C21 4118   5.891   2.655   5.091  0.5223  0.0957 -0.0055
   40CHL1  H21A 4119   5.798   2.612   5.135  0.9465  0.7016  1.5542
   40CHL1  H21B 4120   5.877   2.676   4.983  0.3115  0.2082  0.0421
   40CHL1  H21C 4121   5.899   2.755   5.140 -0.0738  0.3476 -0.4118
   40CHL1   C22 4122   5.996   2.446   5.017 -0.0633  0.2441  0.3530
   40CHL1  H22A 4123   6.072   2.370   5.041  0.3144 -0.0426 -1.5346
   40CHL1  H22B 4124   5.899   2.396   5.038  0.9704 -0.8938  2.6750
   40CHL1   C23 4125   6.026   2.487   4.872 -0.1762  0.2180  0.3245
   40CHL1  H23A 4126   5.952   2.553   4.821 -1.5199 -1.7327 -0.3985
   40CHL1  H23B 4127   6.114   2.554   4.874  0.0177 -0.0345  3.0271
   40CHL1   C24 4128   6.072   2.371   4.782  0.6137  0.1548 -0.4421
   40CHL1  H24A 4129   6.178   2.344   4.801  0.4257 -3.5388 -3.5796
   40CHL1  H24B 4130   6.013   2.282   4.813  0.1307  0.9187  0.9300
   40CHL1   C25 4131   6.052   2.407   4.639  0.2828  0.5033  0.1428
   40CHL1   H25 4132   5.948   2.439   4.616  0.3224  1.0035  0.6340
   40CHL1   C26 4133   6.152   2.506   4.588  0.0669  0.4152 -0.3942
   40CHL1  H26A 4134   6.138   2.609   4.628  0.8387  0.0687  0.8148
   40CHL1  H26B 4135   6.257   2.481   4.616  0.0390  0.3321 -0.3657
   40CHL1  H26C 4136   6.152   2.504   4.477 -1.0283  1.9722 -0.4547
   40CHL1   C27 4137   6.068   2.269   4.563  0.1852 -0.4649  1.2103
   40CHL1  H27A 4138   5.985   2.203   4.596 -0.9400  0.5370  0.5227
   40CHL1  H27B 4139   6.046   2.284   4.455 -2.6455  0.2986  1.8009
   40CHL1  H27C 4140   6.165   2.216   4.575  0.1057 -1.4203 -1.4867
   41CHL1    C3 4141   1.653   3.495   5.952 -0.4910 -0.0246  0.3782
   41CHL1    H3 4142   1.565   3.562   5.944 -0.4125 -0.1613 -3.4568
   41CHL1    O3 4143   1.687   3.476   6.092 -0.4726  0.1380 -0.6996
   41CHL1   H3' 4144   1.653   3.556   6.132 -0.7254 -0.1871 -0.2513
   41CHL1    C4 4145   1.632   3.350   5.899 -0.6103  0.0916  0.8740
   41CHL1   H4A 4146   1.729   3.301   5.926 -1.3093 -1.4561  0.6931
   41CHL1   H4B 4147   1.553   3.299   5.959 -1.1890  1.3837  1.2453
   41CHL1    C5 4148   1.609   3.350   5.748  0.4583  0.2192 -0.1789
   41CHL1    C6 4149   1.494   3.301   5.711 -0.4788  0.0553  0.5289
   41CHL1    H6 4150   1.426   3.255   5.784 -1.1877  1.8406  1.0455
   41CHL1    C7 4151   1.443   3.319   5.570  0.3064  0.0378 -0.7811
   41CHL1   H7A 4152   1.399   3.221   5.540 -0.0248 -0.2178  0.4782
   41CHL1   H7B 4153   1.373   3.405   5.571  0.5676  0.2499 -0.5100
   41CHL1    C8 4154   1.554   3.358   5.477 -0.7567  0.2846  0.0121
   41CHL1    H8 4155   1.619   3.268   5.471 -1.1012  0.0370 -0.0075
   41CHL1   C14 4156   1.497   3.392   5.340  0.2002 -0.2955 -0.0403
   41CHL1   H14 4157   1.431   3.481   5.351  0.0587 -0.4653  0.4933
   41CHL1   C15 4158   1.407   3.286   5.274  0.6471  0.6786  0.1699
   41CHL1  H15A 4159   1.446   3.182   5.272  1.8297  1.1096 -1.7195
   41CHL1  H15B 4160   1.303   3.275   5.309  0.3901  2.1146 -0.1033
   41CHL1   C16 4161   1.404   3.340   5.127 -0.0465 -0.0283  0.1739
   41CHL1  H16A 4162   1.396   3.247   5.067 -0.9834 -0.1507  0.4778
   41CHL1  H16B 4163   1.310   3.399   5.136  0.4214  0.9579 -1.1688
   41CHL1   C17 4164   1.530   3.432   5.108 -0.6523  0.4487  0.4057
   41CHL1   H17 4165   1.482   3.532   5.102 -1.0082  0.2581  0.0255
   41CHL1   C13 4166   1.609   3.421   5.241  0.0788  0.0816  0.3296
   41CHL1   C18 4167   1.708   3.297   5.233  0.0918 -0.9631 -0.1666
   41CHL1  H18A 4168   1.763   3.275   5.327  0.0130  1.0404  0.3965
   41CHL1  H18B 4169   1.656   3.209   5.190 -1.3789 -0.0471 -0.3258
   41CHL1  H18C 4170   1.780   3.334   5.157 -0.5093  2.5170  0.7554
   41CHL1   C12 4171   1.688   3.546   5.283  0.3870 -0.2441 -0.0076
   41CHL1  H12A 4172   1.768   3.574   5.211  0.6089  1.4869  0.8371
   41CHL1  H12B 4173   1.612   3.626   5.280 -0.1729 -0.7264  0.8305
   41CHL1   C11 4174   1.736   3.541   5.423  0.5534  0.0340 -0.0631
   41CHL1  H11A 4175   1.836   3.494   5.423  0.1642 -0.9134 -2.2818
   41CHL1  H11B 4176   1.757   3.642   5.463 -0.7191  0.8460 -1.3404
   41CHL1    C9 4177   1.639   3.478   5.526 -0.1605 -0.1142  0.9318
   41CHL1    H9 4178   1.560   3.552   5.546 -0.7491 -0.4006 -0.2136
   41CHL1   C10 4179   1.701   3.442   5.665  0.0042 -0.3708  0.0519
   41CHL1   C19 4180   1.828   3.355   5.640 -0.2635  0.5560  0.3683
   41CHL1  H19A 4181   1.808   3.268   5.573 -1.0122 -2.1298  3.7814
   41CHL1  H19B 4182   1.908   3.417   5.594 -1.6800  1.7802 -0.5214
   41CHL1  H19C 4183   1.863   3.325   5.741 -2.2921  3.2820  1.9954
   41CHL1    C1 4184   1.737   3.575   5.741  0.5589  0.9776  0.3008
   41CHL1   H1A 4185   1.826   3.611   5.686  0.1813 -0.6560 -1.4980
   41CHL1   H1B 4186   1.654   3.644   5.714 -0.5237 -0.4835 -0.2312
   41CHL1    C2 4187   1.777   3.565   5.893  0.7722  0.3192  0.5396
   41CHL1   H2A 4188   1.783   3.664   5.943  0.0841 -0.4369  2.2005
   41CHL1   H2B 4189   1.864   3.499   5.911  0.2607 -1.2938 -2.2563
   41CHL1   C20 4190   1.595   3.396   4.972  0.0873  0.4229 -0.3402
   41CHL1   H20 4191   1.644   3.297   4.987 -0.2798  0.3778  0.6308
   41CHL1   C21 4192   1.696   3.506   4.945 -0.5720  0.7260 -0.4125
   41CHL1  H21A 4193   1.742   3.499   4.844 -0.8078  0.5999 -0.5125
   41CHL1  H21B 4194   1.781   3.488   5.014 -0.5968  1.1385 -0.2702
   41CHL1  H21C 4195   1.648   3.604   4.967 -0.5091  0.7279 -0.2826
   41CHL1   C22 4196   1.489   3.379   4.858  0.5434 -0.0072 -0.4850
   41CHL1  H22A 4197   1.415   3.301   4.884  0.1213  0.3368 -0.6540
   41CHL1  H22B 4198   1.437   3.477   4.854  0.4729  0.0597  1.3459
   41CHL1   C23 4199   1.547   3.325   4.723 -0.0730 -0.4325  0.1784
   41CHL1  H23A 4200   1.620   3.402   4.691 -2.3476  1.0078 -1.8926
   41CHL1  H23B 4201   1.594   3.224   4.725 -0.1527 -0.5137 -1.0245
   41CHL1   C24 4202   1.439   3.308   4.620 -0.6401 -0.2713  0.0882
   41CHL1  H24A 4203   1.348   3.265   4.666  0.2264  0.1799  2.3791
   41CHL1  H24B 4204   1.420   3.408   4.576  4.5185  1.1224  0.3784
   41CHL1   C25 4205   1.487   3.218   4.501 -0.1709 -0.2228  0.1788
   41CHL1   H25 4206   1.552   3.139   4.544  1.2827  1.1782  0.6810
   41CHL1   C26 4207   1.369   3.159   4.414 -0.0984 -0.1865  0.8301
   41CHL1  H26A 4208   1.304   3.241   4.378  1.4135  0.2107 -1.1738
   41CHL1  H26B 4209   1.411   3.119   4.319  0.2409  1.1290  0.4078
   41CHL1  H26C 4210   1.303   3.080   4.457 -0.7234 -1.1747 -1.7606
   41CHL1   C27 4211   1.573   3.305   4.413  0.3903 -0.8266  0.0224
   41CHL1  H27A 4212   1.623   3.240   4.338 -0.0092 -0.4242 -0.6058
   41CHL1  H27B 4213   1.501   3.369   4.356  0.1790 -1.4716 -0.4474
   41CHL1  H27C 4214   1.643   3.377   4.460 -0.6912  0.4591 -0.2721
   42CHL1    C3 4215   6.582   3.232   5.758 -0.1653 -0.0605  0.5720
   42CHL1    H3 4216   6.631   3.331   5.769 -1.0063  0.5155 -0.6063
   42CHL1    O3 4217   6.590   3.154   5.872 -0.9422  0.2541  0.1229
   42CHL1   H3' 4218   6.533   3.192   5.940 -0.3443  1.9082 -0.2770
   42CHL1    C4 4219   6.439   3.260   5.728  0.1866 -0.3463  0.0127
   42CHL1   H4A 4220   6.395   3.164   5.693  2.5209 -1.0048 -1.3080
   42CHL1   H4B 4221   6.401   3.292   5.828  2.2869 -0.3184  0.8492
   42CHL1    C5 4222   6.435   3.361   5.616 -0.0309 -0.6478 -0.1795
   42CHL1    C6 4223   6.380   3.481   5.639 -0.2721 -0.9594 -0.3184
   42CHL1    H6 4224   6.327   3.506   5.732  1.1178  1.6872 -0.1247
   42CHL1    C7 4225   6.377   3.594   5.535 -0.5558  0.0345 -0.2454
   42CHL1   H7A 4226   6.275   3.637   5.527 -0.9076 -0.6050  0.6455
   42CHL1   H7B 4227   6.450   3.673   5.563 -0.0256 -0.5229 -0.0074
   42CHL1    C8 4228   6.409   3.526   5.399  0.7339  0.1777  0.0037
   42CHL1    H8 4229   6.320   3.468   5.367 -0.8653  1.3577  2.0653
   42CHL1   C14 4230   6.436   3.632   5.296  0.6145 -0.2817  0.1119
   42CHL1   H14 4231   6.514   3.697   5.341  0.1789  1.2384 -1.2310
   42CHL1   C15 4232   6.314   3.723   5.268 -0.1591  0.2399  0.4083
   42CHL1  H15A 4233   6.223   3.662   5.252  1.2743 -1.5522 -1.4516
   42CHL1  H15B 4234   6.303   3.804   5.344 -0.1299 -0.4149  1.1228
   42CHL1   C16 4235   6.347   3.795   5.128  0.2758 -0.4136 -1.2972
   42CHL1  H16A 4236   6.271   3.763   5.054 -1.0695  0.2394 -0.2508
   42CHL1  H16B 4237   6.344   3.906   5.135 -0.6782 -0.4969  0.2211
   42CHL1   C17 4238   6.482   3.732   5.087 -0.0005  0.1535  0.5294
   42CHL1   H17 4239   6.554   3.801   5.136 -0.3678 -0.3414  1.8101
   42CHL1   C13 4240   6.493   3.594   5.161  0.8367  0.1305  0.3999
   42CHL1   C18 4241   6.401   3.498   5.087  0.2131 -0.1335  0.6538
   42CHL1  H18A 4242   6.309   3.541   5.043 -0.8271 -1.2118  1.6634
   42CHL1  H18B 4243   6.456   3.447   5.006 -0.9048  3.4632 -2.6578
   42CHL1  H18C 4244   6.363   3.418   5.155 -1.1857  0.1376  0.2338
   42CHL1   C12 4245   6.623   3.525   5.188 -0.0580  0.0568  0.5042
   42CHL1  H12A 4246   6.677   3.501   5.095 -0.1682  0.0926  0.4308
   42CHL1  H12B 4247   6.692   3.597   5.238  0.7582 -0.3259 -0.0624
   42CHL1   C11 4248   6.597   3.401   5.266 -0.3539  0.0139 -0.1921
   42CHL1  H11A 4249   6.536   3.331   5.205  0.6137  0.3861 -1.6462
   42CHL1  H11B 4250   6.698   3.356   5.276  0.6018  1.6641 -1.8276
   42CHL1    C9 4251   6.537   3.434   5.399 -0.2541  0.0813  0.5946
   42CHL1    H9 4252   6.616   3.497   5.443  2.3839 -1.6052 -1.4226
   42CHL1   C10 4253   6.515   3.313   5.496 -0.4524  0.6607  0.5055
   42CHL1   C19 4254   6.422   3.204   5.438 -0.5774  0.9134  0.7232
   42CHL1  H19A 4255   6.325   3.253   5.419 -0.3640  1.6805  1.5387
   42CHL1  H19B 4256   6.467   3.166   5.343 -1.9517 -1.4079  0.9392
   42CHL1  H19C 4257   6.415   3.112   5.500 -0.7579  0.5127  0.1286
   42CHL1    C1 4258   6.650   3.242   5.519 -0.3222 -0.0711 -0.4473
   42CHL1   H1A 4259   6.682   3.183   5.430 -0.0357  0.1186 -0.4736
   42CHL1   H1B 4260   6.728   3.321   5.530  0.4981 -0.5547 -2.3172
   42CHL1    C2 4261   6.658   3.157   5.652 -0.5213 -0.3345  0.6013
   42CHL1   H2A 4262   6.762   3.130   5.678  0.1019 -0.4032 -1.7622
   42CHL1   H2B 4263   6.601   3.062   5.640  1.2689 -1.3557 -0.1658
   42CHL1   C20 4264   6.513   3.743   4.935  0.0213 -0.3065  0.4753
   42CHL1   H20 4265   6.444   3.675   4.882  1.4614 -0.3661 -1.4074
   42CHL1   C21 4266   6.666   3.713   4.912 -0.4683  0.2111 -0.4852
   42CHL1  H21A 4267   6.694   3.607   4.931 -0.5433  0.4104  0.8565
   42CHL1  H21B 4268   6.721   3.780   4.982  1.4391  0.9395 -2.5564
   42CHL1  H21C 4269   6.699   3.743   4.811  1.2917  0.1701  0.0524
   42CHL1   C22 4270   6.470   3.878   4.878 -0.0112  0.7987  0.9732
   42CHL1  H22A 4271   6.377   3.922   4.919 -1.4965 -1.2260 -0.0632
   42CHL1  H22B 4272   6.549   3.953   4.898  2.0738 -0.9844 -0.1561
   42CHL1   C23 4273   6.443   3.865   4.721 -0.5943  0.6600  0.0436
   42CHL1  H23A 4274   6.532   3.862   4.655 -1.3170 -1.0790 -0.9187
   42CHL1  H23B 4275   6.378   3.776   4.713 -0.1729  0.1842  1.5304
   42CHL1   C24 4276   6.362   3.989   4.675  0.2684 -0.4144  0.1174
   42CHL1  H24A 4277   6.274   3.992   4.742  1.8510  2.0605  2.2641
   42CHL1  H24B 4278   6.417   4.082   4.698 -1.3716  0.8633 -0.9364
   42CHL1   C25 4279   6.318   3.976   4.525 -0.0297  0.1208 -0.4727
   42CHL1   H25 4280   6.403   3.937   4.465 -0.6011  0.1295 -1.2976
   42CHL1   C26 4281   6.191   3.881   4.512 -0.3323 -0.6774 -0.1765
   42CHL1  H26A 4282   6.223   3.777   4.535  1.7542 -0.3882 -1.4987
   42CHL1  H26B 4283   6.106   3.913   4.576  0.7434 -0.3829  1.1592
   42CHL1  H26C 4284   6.162   3.883   4.405  1.7818 -1.4018 -0.8300
   42CHL1   C27 4285   6.282   4.118   4.470  0.5779  0.3910 -0.7862
   42CHL1  H27A 4286   6.181   4.160   4.492  0.9056  1.5437 -1.3948
   42CHL1  H27B 4287   6.358   4.196   4.490  0.1281  0.5379  0.4808
   42CHL1  H27C 4288   6.279   4.111   4.359 -0.5067 -0.6038 -0.7164
   43CHL1    C3 4289   2.256   6.488   6.123 -0.7670 -0.1499 -0.8431
   43CHL1    H3 4290   2.354   6.540   6.123 -1.7860  1.8910  0.6399
   43CHL1    O3 4291   2.215   6.479   6.261  0.3767  0.0413  0.2612
   43CHL1   H3' 4292   2.195   6.570   6.284 -2.3981 -0.8025  1.6238
   43CHL1    C4 4293   2.158   6.552   6.033  0.8132 -0.0148 -0.4727
   43CHL1   H4A 4294   2.057   6.510   6.052 -0.0474  1.8848 -0.6167
   43CHL1   H4B 4295   2.142   6.657   6.067  0.5992 -0.9892  2.7926
   43CHL1    C5 4296   2.193   6.536   5.887 -0.9332  0.0329 -0.3473
   43CHL1    C6 4297   2.202   6.648   5.817 -0.8780 -0.0907  0.2376
   43CHL1    H6 4298   2.172   6.742   5.865  0.6884  0.5091  0.1001
   43CHL1    C7 4299   2.234   6.644   5.670 -0.1259 -0.2821  0.2344
   43CHL1   H7A 4300   2.161   6.706   5.613  1.0706  1.3248  0.3687
   43CHL1   H7B 4301   2.334   6.688   5.650 -0.7907  0.5581 -1.4785
   43CHL1    C8 4302   2.234   6.506   5.597 -0.5263 -0.7066 -0.0411
   43CHL1    H8 4303   2.128   6.472   5.585 -1.7833  1.8153  2.6732
   43CHL1   C14 4304   2.312   6.505   5.462  0.3377  0.1304 -0.4704
   43CHL1   H14 4305   2.414   6.539   5.488 -0.5223  2.7216 -0.2416
   43CHL1   C15 4306   2.268   6.600   5.358  0.0596 -1.0152 -0.6841
   43CHL1  H15A 4307   2.160   6.617   5.342 -0.3547 -1.1515  1.5822
   43CHL1  H15B 4308   2.323   6.695   5.376  1.9810 -1.7556 -2.2006
   43CHL1   C16 4309   2.326   6.542   5.220  0.2658 -0.3451  0.7508
   43CHL1  H16A 4310   2.237   6.522   5.156  0.7272  1.0438 -0.3725
   43CHL1  H16B 4311   2.391   6.622   5.177  0.8887 -1.2446 -0.0293
   43CHL1   C17 4312   2.399   6.411   5.252  0.5240  0.0473 -0.2887
   43CHL1   H17 4313   2.500   6.443   5.285 -0.3944  0.3012  2.5133
   43CHL1   C13 4314   2.335   6.367   5.384  0.1448 -0.1714 -0.8093
   43CHL1   C18 4315   2.191   6.314   5.354 -0.0597  0.0076 -0.4472
   43CHL1  H18A 4316   2.123   6.303   5.441  0.5475  0.8232  0.1511
   43CHL1  H18B 4317   2.140   6.391   5.293 -1.4392  0.3179  1.0259
   43CHL1  H18C 4318   2.199   6.217   5.300  0.3362  0.3754 -1.0623
   43CHL1   C12 4319   2.411   6.272   5.489  0.4222 -0.2909 -0.3935
   43CHL1  H12A 4320   2.441   6.175   5.445  0.2769 -0.1099 -0.9013
   43CHL1  H12B 4321   2.505   6.328   5.510  0.2047 -0.5390  1.4032
   43CHL1   C11 4322   2.334   6.263   5.623  0.5851 -0.1831 -0.0844
   43CHL1  H11A 4323   2.240   6.212   5.592  0.3751  0.0834  0.1135
   43CHL1  H11B 4324   2.391   6.202   5.696 -0.3923 -1.6642 -0.5180
   43CHL1    C9 4325   2.301   6.398   5.690  0.1982  0.5869  0.2832
   43CHL1    H9 4326   2.405   6.435   5.700  0.0235  0.7602  1.7054
   43CHL1   C10 4327   2.234   6.397   5.830 -0.3926 -0.0759 -0.4475
   43CHL1   C19 4328   2.108   6.304   5.827 -0.7654 -0.1500 -0.5842
   43CHL1  H19A 4329   2.060   6.295   5.927  0.6183  1.7187  0.3076
   43CHL1  H19B 4330   2.037   6.338   5.749  1.2433  0.7641 -2.0895
   43CHL1  H19C 4331   2.136   6.200   5.800  1.4185 -0.0252  0.9269
   43CHL1    C1 4332   2.337   6.343   5.928  0.2224  0.2157 -0.2233
   43CHL1   H1A 4333   2.357   6.234   5.913 -1.0155  0.2399 -2.4744
   43CHL1   H1B 4334   2.436   6.390   5.912  0.1441 -0.2458 -2.3504
   43CHL1    C2 4335   2.294   6.346   6.079 -0.2613  1.0589  0.0828
   43CHL1   H2A 4336   2.372   6.305   6.147 -2.1370 -0.0495  1.6766
   43CHL1   H2B 4337   2.196   6.295   6.094 -1.1217  2.0453 -1.8761
   43CHL1   C20 4338   2.406   6.308   5.139  0.0974  0.0465  0.8155
   43CHL1   H20 4339   2.321   6.236   5.134  1.2264 -1.5270  2.5732
   43CHL1   C21 4340   2.529   6.213   5.161  0.0851  0.1411 -0.4024
   43CHL1  H21A 4341   2.534   6.178   5.267  0.1979  0.5266 -0.2803
   43CHL1  H21B 4342   2.621   6.268   5.134  0.4460  0.1286  0.7349
   43CHL1  H21C 4343   2.534   6.122   5.098  2.3759  1.7350 -2.7156
   43CHL1   C22 4344   2.414   6.379   5.002  0.9474 -0.3298 -0.3145
   43CHL1  H22A 4345   2.330   6.450   4.990 -1.0723 -2.3257  1.0607
   43CHL1  H22B 4346   2.510   6.434   5.000  1.8863 -1.8580  0.5329
   43CHL1   C23 4347   2.417   6.279   4.882 -0.1481 -0.7016  0.0841
   43CHL1  H23A 4348   2.515   6.228   4.887 -1.4606 -3.3938  0.1683
   43CHL1  H23B 4349   2.349   6.198   4.914 -0.7539 -0.0368  0.5214
   43CHL1   C24 4350   2.393   6.339   4.744 -0.1964 -0.1289 -0.1604
   43CHL1  H24A 4351   2.298   6.395   4.740  0.5950  1.1828 -1.7659
   43CHL1  H24B 4352   2.476   6.409   4.720 -0.1421 -0.3473 -0.6314
   43CHL1   C25 4353   2.396   6.224   4.633  0.2456 -1.1807 -0.2021
   43CHL1   H25 4354   2.376   6.274   4.536 -2.3002 -1.1187  0.2942
   43CHL1   C26 4355   2.544   6.171   4.618 -0.2503  0.8690 -0.2771
   43CHL1  H26A 4356   2.617   6.245   4.581  0.4464 -0.5645 -1.9141
   43CHL1  H26B 4357   2.574   6.135   4.719 -0.8152  0.9197 -0.0872
   43CHL1  H26C 4358   2.549   6.094   4.537  0.6527  2.3861 -1.7121
   43CHL1   C27 4359   2.290   6.107   4.665 -0.3098 -0.2689 -0.2588
   43CHL1  H27A 4360   2.186   6.144   4.674 -0.6134 -1.4992  2.3234
   43CHL1  H27B 4361   2.290   6.044   4.574  0.4128 -1.1604  0.3434
   43CHL1  H27C 4362   2.314   6.049   4.757 -2.5135 -0.4983  0.2335
   44CHL1    C3 4363   4.366   0.662   5.788  0.4976 -0.6669 -0.2172
   44CHL1    H3 4364   4.281   0.721   5.747 -0.4440 -2.3226 -0.7483
   44CHL1    O3 4365   4.383   0.705   5.923  0.1529  0.0791 -0.4224
   44CHL1   H3' 4366   4.445   0.642   5.960 -3.5408 -3.2632  0.8117
   44CHL1    C4 4367   4.318   0.515   5.782 -0.0948 -0.6342  0.7482
   44CHL1   H4A 4368   4.391   0.450   5.834  1.7498  1.4908  0.9574
   44CHL1   H4B 4369   4.225   0.499   5.841 -1.7413 -0.3737 -1.6146
   44CHL1    C5 4370   4.305   0.463   5.637  0.4214  0.0069 -0.8243
   44CHL1    C6 4371   4.196   0.408   5.587 -0.7184  0.0941  0.8166
   44CHL1    H6 4372   4.101   0.406   5.643 -1.3847  0.9136 -0.2378
   44CHL1    C7 4373   4.187   0.348   5.445  0.0765 -0.3818 -1.4083
   44CHL1   H7A 4374   4.134   0.251   5.452  0.4426 -0.5423 -0.8857
   44CHL1   H7B 4375   4.126   0.415   5.380 -0.0623 -0.9154 -1.8365
   44CHL1    C8 4376   4.328   0.333   5.389 -0.3583  0.6469  0.5102
   44CHL1    H8 4377   4.382   0.246   5.430  1.2395  1.0204 -0.7141
   44CHL1   C14 4378   4.317   0.286   5.237  0.3959 -0.0533  0.5468
   44CHL1   H14 4379   4.261   0.368   5.188  0.8457  0.3532  0.7032
   44CHL1   C15 4380   4.238   0.166   5.201  0.7527 -0.1910 -0.1395
   44CHL1  H15A 4381   4.258   0.084   5.273  1.6874 -0.8103 -1.0687
   44CHL1  H15B 4382   4.129   0.187   5.204  0.8211  0.4463 -1.3719
   44CHL1   C16 4383   4.287   0.132   5.057  0.3900 -0.2390 -0.4108
   44CHL1  H16A 4384   4.328   0.029   5.054 -1.1135 -0.9190  1.0269
   44CHL1  H16B 4385   4.204   0.152   4.986  0.5110 -1.5094 -0.9305
   44CHL1   C17 4386   4.408   0.222   5.030 -0.4116 -0.3296 -0.4391
   44CHL1   H17 4387   4.373   0.317   4.985  1.3044  0.2471 -0.6151
   44CHL1   C13 4388   4.459   0.271   5.170  0.2980  0.1383  0.3407
   44CHL1   C18 4389   4.542   0.156   5.233 -0.2198 -0.2702 -0.4375
   44CHL1  H18A 4390   4.481   0.064   5.243 -2.2001  0.6275 -3.0803
   44CHL1  H18B 4391   4.630   0.140   5.168 -0.0883  0.4515 -0.4487
   44CHL1  H18C 4392   4.578   0.168   5.338  0.7847 -0.7097 -0.7306
   44CHL1   C12 4393   4.526   0.413   5.173 -0.5408 -0.5135 -0.1997
   44CHL1  H12A 4394   4.629   0.401   5.133  0.2708 -2.9475  2.2914
   44CHL1  H12B 4395   4.466   0.488   5.117 -2.1307 -1.3891  0.2801
   44CHL1   C11 4396   4.543   0.448   5.323  0.2393 -0.1734  0.4675
   44CHL1  H11A 4397   4.618   0.378   5.366  0.1307 -0.5057  0.1282
   44CHL1  H11B 4398   4.604   0.541   5.323 -1.5065  1.0488 -1.3547
   44CHL1    C9 4399   4.409   0.457   5.400  0.3027  0.1485 -0.4837
   44CHL1    H9 4400   4.341   0.534   5.358 -0.6147 -0.4826 -0.1901
   44CHL1   C10 4401   4.424   0.487   5.552  0.4702  0.0041  0.3105
   44CHL1   C19 4402   4.529   0.396   5.612  0.2327  0.0796 -0.1115
   44CHL1  H19A 4403   4.508   0.287   5.601 -1.3638  0.2567  0.9347
   44CHL1  H19B 4404   4.634   0.411   5.580  1.0359  0.2253  2.3294
   44CHL1  H19C 4405   4.547   0.414   5.720 -0.9470 -3.7906  0.9200
   44CHL1    C1 4406   4.470   0.642   5.562  0.0256  0.0581 -0.1057
   44CHL1   H1A 4407   4.560   0.653   5.498 -1.1859  0.1659 -1.8828
   44CHL1   H1B 4408   4.393   0.701   5.507 -0.7157 -0.2502  0.5750
   44CHL1    C2 4409   4.487   0.692   5.708  0.0236  0.4450  0.1009
   44CHL1   H2A 4410   4.514   0.800   5.706  1.3372  0.1337 -2.0311
   44CHL1   H2B 4411   4.577   0.641   5.749 -1.2500 -0.8899  1.3511
   44CHL1   C20 4412   4.505   0.159   4.926  0.0014  0.2098 -0.7340
   44CHL1   H20 4413   4.561   0.078   4.976 -0.8908  0.7258  1.2137
   44CHL1   C21 4414   4.609   0.266   4.876  0.0648 -0.3345 -0.3531
   44CHL1  H21A 4415   4.629   0.245   4.769  0.1296 -0.1209 -0.3838
   44CHL1  H21B 4416   4.698   0.261   4.942 -1.3970 -0.2584  1.7323
   44CHL1  H21C 4417   4.564   0.367   4.885 -0.0235 -0.4569  0.6838
   44CHL1   C22 4418   4.436   0.092   4.802  0.0260 -0.3589 -0.0408
   44CHL1  H22A 4419   4.515   0.060   4.731  0.1669 -0.6188  0.2302
   44CHL1  H22B 4420   4.393  -0.000   4.849  1.7240  0.2030  2.8669
   44CHL1   C23 4421   4.340   0.189   4.729  0.2527 -0.4047 -0.3194
   44CHL1  H23A 4422   4.249   0.207   4.790  1.2797  0.7217  0.9669
   44CHL1  H23B 4423   4.406   0.279   4.723  1.7235 -1.4208  0.0661
   44CHL1   C24 4424   4.289   0.146   4.598  0.3504  0.4426 -0.0638
   44CHL1  H24A 4425   4.205   0.207   4.559 -0.7094 -1.4124 -0.8213
   44CHL1  H24B 4426   4.361   0.144   4.514  0.0529  2.5828 -0.4085
   44CHL1   C25 4427   4.216   0.008   4.595 -0.2941 -0.4798 -0.8045
   44CHL1   H25 4428   4.296  -0.067   4.616  0.5914  0.6145 -0.1438
   44CHL1   C26 4429   4.108  -0.020   4.704  0.3319 -0.6566  0.2925
   44CHL1  H26A 4430   4.026   0.053   4.688 -0.1871 -0.8392  1.9351
   44CHL1  H26B 4431   4.074  -0.126   4.703  0.1802 -0.6171  0.8746
   44CHL1  H26C 4432   4.149   0.015   4.802 -0.0321 -0.8549  0.5185
   44CHL1   C27 4433   4.158  -0.022   4.455 -0.4621  0.4106  0.0782
   44CHL1  H27A 4434   4.238  -0.032   4.379 -1.8536 -0.0987 -1.3731
   44CHL1  H27B 4435   4.097  -0.115   4.464  2.2302 -1.5608 -0.8492
   44CHL1  H27C 4436   4.082   0.048   4.413 -0.9940 -1.4581 -2.3550
   45CHL1    C3 4437   3.092   0.695   5.773 -0.2694  0.4143  0.2490
   45CHL1    H3 4438   3.075   0.592   5.734  1.8466 -0.3964  1.3271
   45CHL1    O3 4439   3.070   0.694   5.913  0.0866 -0.8439 -0.2893
   45CHL1   H3' 4440   3.099   0.782   5.941 -3.1695  0.7591 -1.4855
   45CHL1    C4 4441   3.233   0.735   5.748 -0.4345  0.3104 -0.0350
   45CHL1   H4A 4442   3.263   0.836   5.785  0.3897  0.5548 -1.3032
   45CHL1   H4B 4443   3.308   0.666   5.792  1.2590  1.7563 -0.5050
   45CHL1    C5 4444   3.253   0.733   5.596  0.6614  0.2498  0.3494
   45CHL1    C6 4445   3.347   0.652   5.541 -0.1692  0.1566 -0.2446
   45CHL1    H6 4446   3.405   0.586   5.607 -0.5183  0.0525 -0.0435
   45CHL1    C7 4447   3.364   0.634   5.393 -0.0685  0.4972 -0.4258
   45CHL1   H7A 4448   3.469   0.616   5.359 -0.2254 -0.3633 -0.4860
   45CHL1   H7B 4449   3.313   0.539   5.369 -1.7141  0.6933  1.9862
   45CHL1    C8 4450   3.299   0.746   5.310 -0.4058 -0.9142 -0.2565
   45CHL1    H8 4451   3.368   0.831   5.329  0.1386 -0.9938 -1.7497
   45CHL1   C14 4452   3.304   0.712   5.165  0.1188 -0.6370  0.1582
   45CHL1   H14 4453   3.239   0.622   5.165 -0.5514 -0.1584 -0.1920
   45CHL1   C15 4454   3.440   0.677   5.099  0.3430  0.3558 -0.2976
   45CHL1  H15A 4455   3.520   0.747   5.130 -0.5026  1.9214 -1.5348
   45CHL1  H15B 4456   3.462   0.569   5.117 -2.4127  0.0503  1.9690
   45CHL1   C16 4457   3.423   0.708   4.948 -0.2694  0.3737 -0.3673
   45CHL1  H16A 4458   3.493   0.789   4.917 -1.7434  1.6011 -0.5889
   45CHL1  H16B 4459   3.449   0.628   4.875 -3.1697  0.9269 -2.1573
   45CHL1   C17 4460   3.277   0.752   4.934 -0.4466 -1.1654 -0.5009
   45CHL1   H17 4461   3.218   0.658   4.936 -0.2276 -1.2847  1.2070
   45CHL1   C13 4462   3.240   0.811   5.071  0.5489 -0.4504  0.3863
   45CHL1   C18 4463   3.299   0.956   5.090  0.3495 -0.2056  0.7988
   45CHL1  H18A 4464   3.405   0.972   5.059  0.5394 -1.2400  0.8723
   45CHL1  H18B 4465   3.237   1.020   5.024  1.9410  0.0743 -0.4873
   45CHL1  H18C 4466   3.285   0.996   5.192 -1.5773 -2.1109  1.3519
   45CHL1   C12 4467   3.088   0.829   5.107 -0.9943  0.3804 -0.0252
   45CHL1  H12A 4468   3.043   0.906   5.041 -0.1539  0.0750 -0.9911
   45CHL1  H12B 4469   3.045   0.729   5.085  3.1472 -1.3049 -1.6645
   45CHL1   C11 4470   3.078   0.860   5.252 -0.1107  0.2140  0.0578
   45CHL1  H11A 4471   3.102   0.968   5.268  1.8080 -0.3647  1.4726
   45CHL1  H11B 4472   2.971   0.851   5.280 -0.5942 -0.3999 -1.8795
   45CHL1    C9 4473   3.157   0.770   5.356 -0.0424  0.0718  0.2902
   45CHL1    H9 4474   3.111   0.669   5.345 -2.2816  1.1740 -1.1897
   45CHL1   C10 4475   3.151   0.815   5.508 -0.3204 -0.9451  1.1708
   45CHL1   C19 4476   3.174   0.971   5.520 -0.2664  0.5178 -0.2452
   45CHL1  H19A 4477   3.164   1.001   5.627 -0.4316  0.9488 -0.3784
   45CHL1  H19B 4478   3.274   1.001   5.483 -0.3828  0.4632 -0.6067
   45CHL1  H19C 4479   3.094   1.024   5.463 -0.9065 -1.3517 -1.1592
   45CHL1    C1 4480   3.008   0.785   5.557  0.0924  0.4813 -0.4657
   45CHL1   H1A 4481   2.932   0.848   5.505 -0.2813 -0.4116 -1.0159
   45CHL1   H1B 4482   2.996   0.678   5.530 -1.5077  0.2147  1.0993
   45CHL1    C2 4483   2.997   0.793   5.708  0.5405 -0.0864 -0.1590
   45CHL1   H2A 4484   2.895   0.761   5.740  0.5180  1.1141  1.0848
   45CHL1   H2B 4485   3.015   0.899   5.738  0.0591  0.0250 -0.2575
   45CHL1   C20 4486   3.238   0.836   4.804  0.3165 -0.3410  0.1502
   45CHL1   H20 4487   3.139   0.884   4.821 -0.2735 -1.8674  1.2733
   45CHL1   C21 4488   3.225   0.729   4.695 -0.1639 -0.3649  0.1132
   45CHL1  H21A 4489   3.156   0.657   4.745 -1.1170  0.7593  0.4644
   45CHL1  H21B 4490   3.324   0.695   4.659 -1.1259 -0.3968 -2.7399
   45CHL1  H21C 4491   3.177   0.768   4.603  0.5874  0.2691 -0.0166
   45CHL1   C22 4492   3.344   0.935   4.752  0.1802  0.0693  0.2329
   45CHL1  H22A 4493   3.378   0.985   4.846  2.8468 -1.9515  0.4768
   45CHL1  H22B 4494   3.435   0.882   4.715  0.0670  0.8932 -1.2696
   45CHL1   C23 4495   3.296   1.040   4.653 -0.3319  0.3104  0.1198
   45CHL1  H23A 4496   3.211   1.012   4.588  1.2483 -1.6383 -1.2115
   45CHL1  H23B 4497   3.258   1.123   4.717  1.2280  1.8441 -0.8298
   45CHL1   C24 4498   3.405   1.093   4.563 -0.2137 -0.1902 -0.1047
   45CHL1  H24A 4499   3.488   1.131   4.626  1.4859  1.6657 -3.2363
   45CHL1  H24B 4500   3.432   1.000   4.510 -1.3072 -0.2980 -0.5041
   45CHL1   C25 4501   3.367   1.212   4.473  0.0603 -0.4199  0.2111
   45CHL1   H25 4502   3.281   1.181   4.410  0.0343  3.2285 -1.8454
   45CHL1   C26 4503   3.309   1.339   4.531 -0.3938  0.1515  0.2132
   45CHL1  H26A 4504   3.207   1.323   4.573 -1.2511 -0.7025 -2.0624
   45CHL1  H26B 4505   3.374   1.381   4.610 -1.0541  2.2069 -0.2582
   45CHL1  H26C 4506   3.289   1.412   4.449  0.3197  1.4672  1.1751
   45CHL1   C27 4507   3.481   1.250   4.374 -0.1376 -0.2910 -0.1930
   45CHL1  H27A 4508   3.505   1.164   4.307 -0.4810 -1.1417  0.7420
   45CHL1  H27B 4509   3.454   1.335   4.308 -1.0494 -1.3194 -1.2015
   45CHL1  H27C 4510   3.572   1.279   4.431 -0.3655 -0.8211  0.4653
   46CHL1    C3 4511   1.311   3.782   6.165 -0.6635 -0.9694  0.0112
   46CHL1    H3 4512   1.379   3.695   6.155  0.8690 -0.1222  2.2677
   46CHL1    O3 4513   1.245   3.789   6.293 -0.2456  0.0258 -0.1909
   46CHL1   H3' 4514   1.314   3.808   6.357  0.1637 -2.4758  0.2195
   46CHL1    C4 4515   1.379   3.913   6.134 -0.4956 -0.0096  0.1626
   46CHL1   H4A 4516   1.305   3.994   6.157 -0.6561 -0.3511  0.8665
   46CHL1   H4B 4517   1.462   3.922   6.207 -0.5518 -3.6025  0.8486
   46CHL1    C5 4518   1.433   3.925   5.996  0.0895  0.1597 -0.1961
   46CHL1    C6 4519   1.557   3.968   5.973 -0.2002  0.6636  0.1822
   46CHL1    H6 4520   1.627   3.987   6.056  0.8679 -0.5013 -0.4058
   46CHL1    C7 4521   1.620   3.979   5.842 -0.2737  0.1465 -0.3077
   46CHL1   H7A 4522   1.668   4.079   5.831 -1.1166  0.5475 -0.3740
   46CHL1   H7B 4523   1.691   3.897   5.816  0.2460  0.5606 -0.2317
   46CHL1    C8 4524   1.517   3.979   5.728  0.6444 -0.5514  0.2254
   46CHL1    H8 4525   1.464   4.076   5.740  0.6224 -0.3031 -1.5897
   46CHL1   C14 4526   1.570   3.965   5.593 -0.4513  0.1195 -0.0555
   46CHL1   H14 4527   1.598   3.858   5.580  4.6458  1.2283 -0.4198
   46CHL1   C15 4528   1.697   4.052   5.559  0.3070 -0.4681 -0.9448
   46CHL1  H15A 4529   1.676   4.160   5.572  0.2986 -0.2623 -2.5005
   46CHL1  H15B 4530   1.789   4.030   5.617 -0.7567 -1.1795  0.5312
   46CHL1   C16 4531   1.718   4.009   5.413 -0.1603 -0.3614  0.0584
   46CHL1  H16A 4532   1.763   4.095   5.360  0.7187 -3.1570 -4.2449
   46CHL1  H16B 4533   1.793   3.927   5.419 -0.4987 -0.8150 -1.5988
   46CHL1   C17 4534   1.582   3.958   5.355  0.5886  0.2323 -0.1048
   46CHL1   H17 4535   1.597   3.848   5.355  1.3408  0.3010 -1.8739
   46CHL1   C13 4536   1.480   3.986   5.471  0.2136  0.1877  0.1661
   46CHL1   C18 4537   1.424   4.128   5.458  0.2174  0.2275 -0.7002
   46CHL1  H18A 4538   1.499   4.209   5.468 -0.5742  0.9177 -0.2679
   46CHL1  H18B 4539   1.359   4.150   5.370 -1.3330 -1.0950  0.0730
   46CHL1  H18C 4540   1.354   4.149   5.542 -1.9660  1.4263 -2.6834
   46CHL1   C12 4541   1.371   3.874   5.490  0.6737 -0.4875 -0.0854
   46CHL1  H12A 4542   1.286   3.888   5.420 -1.2427 -0.3353  2.1600
   46CHL1  H12B 4543   1.419   3.774   5.486  1.5745 -0.1129  0.8036
   46CHL1   C11 4544   1.304   3.876   5.626  0.5534 -0.0855 -0.4654
   46CHL1  H11A 4545   1.248   3.972   5.638 -0.5672 -0.7190 -0.4935
   46CHL1  H11B 4546   1.239   3.787   5.640  0.8758 -0.0177  1.8502
   46CHL1    C9 4547   1.408   3.874   5.746 -0.3328  1.0096 -0.5885
   46CHL1    H9 4548   1.458   3.775   5.750 -1.0445  0.5602 -1.9089
   46CHL1   C10 4549   1.333   3.894   5.883 -0.0211  0.1711 -0.3650
   46CHL1   C19 4550   1.227   4.014   5.873 -0.2391 -0.1552  0.0602
   46CHL1  H19A 4551   1.142   3.979   5.811  0.1539  0.8930 -1.1028
   46CHL1  H19B 4552   1.190   4.047   5.972  0.3893  3.1287 -0.6791
   46CHL1  H19C 4553   1.273   4.104   5.827  0.4412  0.4678  1.8467
   46CHL1    C1 4554   1.255   3.763   5.925  0.4369 -0.2843 -0.2517
   46CHL1   H1A 4555   1.175   3.759   5.848 -1.3009  0.5338  1.4248
   46CHL1   H1B 4556   1.312   3.668   5.913  0.0705 -0.2714 -2.7225
   46CHL1    C2 4557   1.193   3.773   6.066  0.2883 -0.0503  1.0595
   46CHL1   H2A 4558   1.154   3.670   6.083  1.3066 -0.6160  0.0923
   46CHL1   H2B 4559   1.127   3.860   6.085 -1.2535 -1.0886  0.6925
   46CHL1   C20 4560   1.548   3.996   5.207 -0.1494  0.3235  0.0687
   46CHL1   H20 4561   1.529   4.105   5.196 -1.7521  0.1843  1.1343
   46CHL1   C21 4562   1.407   3.941   5.173 -0.5520  0.5182  0.0275
   46CHL1  H21A 4563   1.370   3.968   5.072  1.0527 -0.2428 -0.8058
   46CHL1  H21B 4564   1.332   3.982   5.244 -0.5463 -2.1200  1.7104
   46CHL1  H21C 4565   1.386   3.832   5.180  0.3717  0.3222 -0.1364
   46CHL1   C22 4566   1.651   3.946   5.110 -0.6871 -0.3144  0.8543
   46CHL1  H22A 4567   1.754   3.966   5.147  0.7139 -1.3152 -2.2224
   46CHL1  H22B 4568   1.646   3.835   5.114  1.6645 -0.5287 -0.3265
   46CHL1   C23 4569   1.646   3.995   4.964  0.2198  0.0011 -0.3645
   46CHL1  H23A 4570   1.544   3.979   4.923  0.4744 -1.7455 -0.3998
   46CHL1  H23B 4571   1.671   4.102   4.955  0.4223 -0.0340 -0.2376
   46CHL1   C24 4572   1.744   3.918   4.873 -0.1491 -0.6372 -0.4009
   46CHL1  H24A 4573   1.843   3.945   4.916 -0.7466  0.3879  0.3609
   46CHL1  H24B 4574   1.726   3.809   4.881 -1.7138 -0.2698  1.7878
   46CHL1   C25 4575   1.744   3.952   4.722 -0.2552 -0.1977 -0.1127
   46CHL1   H25 4576   1.640   3.947   4.681 -0.4937  0.8800  0.3291
   46CHL1   C26 4577   1.800   4.094   4.685  0.4660 -0.4760 -0.3957
   46CHL1  H26A 4578   1.807   4.116   4.576 -1.4298 -1.7950 -0.8459
   46CHL1  H26B 4579   1.737   4.170   4.737  1.6405  0.0220  0.3278
   46CHL1  H26C 4580   1.901   4.098   4.729  0.5212 -0.2986 -0.5359
   46CHL1   C27 4581   1.827   3.859   4.639 -1.0259 -0.1789  0.4527
   46CHL1  H27A 4582   1.820   3.885   4.532  2.0754  0.2040  0.2715
   46CHL1  H27B 4583   1.936   3.857   4.657 -0.8745 -1.6103 -0.5029
   46CHL1  H27C 4584   1.789   3.755   4.638 -1.3984 -0.1418 -3.6569
   47CHL1    C3 4585   5.010   3.117   6.036 -0.1190  0.0286  0.0539
   47CHL1    H3 4586   4.952   3.022   6.038  0.2328 -0.2541 -1.7668
   47CHL1    O3 4587   5.045   3.147   6.169 -0.0524 -0.0682  0.4249
   47CHL1   H3' 4588   5.136   3.171   6.149 -0.7202  1.5787 -0.8102
   47CHL1    C4 4589   5.136   3.080   5.953 -0.3537  0.1038  0.1055
   47CHL1   H4A 4590   5.208   3.165   5.960 -1.0776  0.5956  3.4996
   47CHL1   H4B 4591   5.181   2.994   6.007  2.2996 -0.2588 -2.4264
   47CHL1    C5 4592   5.103   3.041   5.812  0.3328 -0.8173 -0.7729
   47CHL1    C6 4593   5.129   2.921   5.754 -0.1943 -0.1534  0.0309
   47CHL1    H6 4594   5.186   2.847   5.812 -0.6105 -0.9484 -0.5600
   47CHL1    C7 4595   5.115   2.892   5.610  0.5820 -0.1101  0.3381
   47CHL1   H7A 4596   5.207   2.846   5.569 -0.9804 -0.6553 -2.8327
   47CHL1   H7B 4597   5.029   2.824   5.591 -0.9430  2.5224 -3.2675
   47CHL1    C8 4598   5.085   3.017   5.526 -0.0895 -0.7152 -1.2342
   47CHL1    H8 4599   5.181   3.069   5.507 -0.8994  0.3989 -2.3985
   47CHL1   C14 4600   5.028   2.977   5.392  0.4145  0.0436  0.4119
   47CHL1   H14 4601   4.933   2.924   5.409  0.4779 -0.8850 -1.8463
   47CHL1   C15 4602   5.113   2.878   5.310 -0.4659  0.1282 -0.4679
   47CHL1  H15A 4603   5.221   2.907   5.311 -0.2022 -0.8205  0.3565
   47CHL1  H15B 4604   5.090   2.778   5.352 -0.6324  1.4739  2.9550
   47CHL1   C16 4605   5.058   2.895   5.167 -0.7170  0.0342  0.5769
   47CHL1  H16A 4606   5.149   2.916   5.107 -1.5225 -0.4016 -0.8432
   47CHL1  H16B 4607   5.000   2.807   5.133  0.9485 -0.6695 -0.5422
   47CHL1   C17 4608   4.969   3.024   5.165 -0.6375  0.3700 -0.0371
   47CHL1   H17 4609   4.867   2.981   5.175  0.9253 -3.3021  2.2668
   47CHL1   C13 4610   5.005   3.093   5.295 -0.0472  0.3797 -0.2640
   47CHL1   C18 4611   5.132   3.184   5.270  0.3887  0.4862 -0.1393
   47CHL1  H18A 4612   5.216   3.121   5.233 -1.9047 -2.2771 -0.9726
   47CHL1  H18B 4613   5.098   3.260   5.197  0.1623 -1.7814 -2.5681
   47CHL1  H18C 4614   5.174   3.240   5.357  2.9366 -0.6244 -0.5493
   47CHL1   C12 4615   4.895   3.183   5.358  0.2551  0.3583 -0.2188
   47CHL1  H12A 4616   4.869   3.270   5.294  0.2081  0.4026 -0.1411
   47CHL1  H12B 4617   4.807   3.115   5.367  0.6179  0.1483  2.4422
   47CHL1   C11 4618   4.924   3.230   5.502  0.5761 -0.1856  0.2136
   47CHL1  H11A 4619   5.000   3.311   5.497  2.6396 -1.9173  1.8119
   47CHL1  H11B 4620   4.832   3.266   5.552  1.2872 -0.2952  1.6451
   47CHL1    C9 4621   4.982   3.115   5.596  0.6805  0.5008  0.7523
   47CHL1    H9 4622   4.894   3.048   5.603  0.9613 -0.3988 -2.6283
   47CHL1   C10 4623   5.033   3.155   5.736  0.3886 -0.7812  0.3206
   47CHL1   C19 4624   5.134   3.280   5.716 -0.7641  0.4941  0.4191
   47CHL1  H19A 4625   5.096   3.371   5.664  2.3418  1.0926 -0.9875
   47CHL1  H19B 4626   5.163   3.313   5.818 -1.6377 -2.0713  1.5980
   47CHL1  H19C 4627   5.223   3.245   5.661 -0.6202  1.4624  0.0365
   47CHL1    C1 4628   4.910   3.208   5.820  0.1684 -0.5547 -0.0517
   47CHL1   H1A 4629   4.872   3.299   5.769  2.2555  0.2573 -0.2312
   47CHL1   H1B 4630   4.827   3.136   5.806 -0.7351  0.5669 -0.6256
   47CHL1    C2 4631   4.942   3.236   5.971  0.5561  0.5527 -0.3205
   47CHL1   H2A 4632   4.861   3.273   6.038  0.0689 -3.0954  1.3561
   47CHL1   H2B 4633   5.013   3.321   5.963 -1.4483  2.3444  0.0258
   47CHL1   C20 4634   4.977   3.107   5.032 -0.3200  0.5090 -0.1191
   47CHL1   H20 4635   5.081   3.145   5.031 -0.2981  0.6927  2.3928
   47CHL1   C21 4636   4.871   3.216   5.029 -0.2243 -1.1169  0.2650
   47CHL1  H21A 4637   4.892   3.316   5.072  1.3034  0.3325 -3.4260
   47CHL1  H21B 4638   4.784   3.166   5.076 -0.2234 -0.1422  1.3251
   47CHL1  H21C 4639   4.846   3.250   4.926  0.1425 -0.8030  0.2770
   47CHL1   C22 4640   4.956   3.011   4.910 -0.1028 -0.6311  0.4280
   47CHL1  H22A 4641   5.024   2.923   4.913  0.0713 -0.6666 -2.3598
   47CHL1  H22B 4642   4.849   2.985   4.919 -0.0698 -0.4848  1.3264
   47CHL1   C23 4643   4.995   3.080   4.780  0.2197  0.2259  0.4935
   47CHL1  H23A 4644   4.926   3.165   4.762  1.3779  0.8384 -1.3490
   47CHL1  H23B 4645   5.097   3.125   4.785 -0.9332  2.9673  1.9724
   47CHL1   C24 4646   4.987   2.975   4.669  1.1359 -0.2841  0.0023
   47CHL1  H24A 4647   5.044   2.883   4.695  3.0899  0.6966 -0.6123
   47CHL1  H24B 4648   4.882   2.941   4.671  0.8259  0.7034  1.4147
   47CHL1   C25 4649   5.019   3.025   4.525  0.0345 -0.1305 -0.4120
   47CHL1   H25 4650   5.120   3.071   4.522 -0.0832  0.1144 -0.6239
   47CHL1   C26 4651   5.035   2.913   4.426  0.4496 -0.8563  0.0414
   47CHL1  H26A 4652   5.089   2.941   4.332 -2.5633 -0.3393 -1.6518
   47CHL1  H26B 4653   5.087   2.825   4.469  0.6679 -0.7568 -0.0153
   47CHL1  H26C 4654   4.943   2.864   4.390  0.1283 -1.4950  1.6634
   47CHL1   C27 4655   4.919   3.138   4.482 -0.3281 -0.2766 -0.2513
   47CHL1  H27A 4656   4.917   3.209   4.567  0.2930 -0.0996 -0.3797
   47CHL1  H27B 4657   4.941   3.192   4.388  2.0966  0.2636  0.5469
   47CHL1  H27C 4658   4.825   3.080   4.467 -1.0761  1.5551 -3.5360
   48CHL1    C3 4659   1.110   3.058   5.890  0.8873  0.1224  0.5675
   48CHL1    H3 4660   1.145   3.163   5.888  0.4756  0.3307  2.5768
   48CHL1    O3 4661   1.077   3.027   6.027  0.2481  0.5449 -0.0727
   48CHL1   H3' 4662   1.056   2.933   6.035 -0.5903  0.8404  1.6898
   48CHL1    C4 4663   0.972   3.035   5.820 -0.8185  0.2662 -0.9317
   48CHL1   H4A 4664   0.930   2.938   5.852 -0.7591  1.0517  1.7802
   48CHL1   H4B 4665   0.905   3.114   5.860  1.0921  1.0537  0.9065
   48CHL1    C5 4666   0.984   3.030   5.669 -0.2716 -0.3749 -0.1015
   48CHL1    C6 4667   0.892   3.088   5.595  0.0319 -1.0415  0.9698
   48CHL1    H6 4668   0.812   3.144   5.646  0.6924  1.7950 -0.8560
   48CHL1    C7 4669   0.895   3.092   5.441 -0.0582  0.1742 -0.2665
   48CHL1   H7A 4670   0.791   3.085   5.403  0.6236  0.2945 -2.2840
   48CHL1   H7B 4671   0.924   3.197   5.420  0.7004 -0.0289 -0.2656
   48CHL1    C8 4672   0.986   2.982   5.380 -0.4764 -0.4968 -0.6775
   48CHL1    H8 4673   0.932   2.885   5.392 -0.0831 -0.5760  0.6077
   48CHL1   C14 4674   1.021   3.018   5.241  0.0258  0.4313 -0.2279
   48CHL1   H14 4675   1.072   3.116   5.248  0.7764  0.1208 -1.1788
   48CHL1   C15 4676   0.907   3.062   5.144  0.0181  0.2376  0.1280
   48CHL1  H15A 4677   0.827   2.987   5.157  1.6976 -1.7215 -0.3374
   48CHL1  H15B 4678   0.848   3.155   5.162 -0.6454  0.2065 -1.6977
   48CHL1   C16 4679   0.982   3.058   5.007  0.0277  0.1052 -0.9497
   48CHL1  H16A 4680   0.917   2.987   4.952 -0.7054 -0.8922  1.1064
   48CHL1  H16B 4681   0.989   3.155   4.952 -3.0186  0.1578 -1.4363
   48CHL1   C17 4682   1.125   2.999   5.034  0.0208  0.2966 -0.5504
   48CHL1   H17 4683   1.173   3.097   5.057 -1.9014  1.0605  0.4834
   48CHL1   C13 4684   1.112   2.925   5.168 -0.4173  0.4666  0.0757
   48CHL1   C18 4685   1.037   2.785   5.156  0.4998  0.2485 -0.5760
   48CHL1  H18A 4686   0.936   2.787   5.111 -0.6439 -1.4238  1.7143
   48CHL1  H18B 4687   1.110   2.714   5.110 -0.9816 -0.5067 -1.8395
   48CHL1  H18C 4688   1.021   2.740   5.256  1.7669  1.7639  0.3671
   48CHL1   C12 4689   1.239   2.904   5.250  0.3400  0.1915 -0.2781
   48CHL1  H12A 4690   1.308   2.835   5.197 -0.7626  0.4327 -2.1275
   48CHL1  H12B 4691   1.290   3.002   5.253  0.2559  0.2094  1.1877
   48CHL1   C11 4692   1.216   2.868   5.395 -0.2126  0.0676 -0.3109
   48CHL1  H11A 4693   1.186   2.761   5.397  1.1141 -0.3527 -1.4641
   48CHL1  H11B 4694   1.308   2.876   5.456 -0.7629  0.0709  0.5367
   48CHL1    C9 4695   1.118   2.969   5.465 -0.0286  0.1952  0.2841
   48CHL1    H9 4696   1.164   3.070   5.459 -1.3704  1.0196  2.5468
   48CHL1   C10 4697   1.102   2.951   5.616  0.4372  0.0501 -0.7706
   48CHL1   C19 4698   1.056   2.809   5.645 -0.1017 -0.7374  0.4308
   48CHL1  H19A 4699   0.962   2.788   5.591  0.2404  0.3394 -0.6163
   48CHL1  H19B 4700   1.136   2.739   5.612 -0.4844 -1.0304  0.1150
   48CHL1  H19C 4701   1.039   2.788   5.753  0.4784 -1.0470  0.4673
   48CHL1    C1 4702   1.237   2.987   5.688 -0.1286  0.5527 -0.7541
   48CHL1   H1A 4703   1.314   2.919   5.645  0.8050  0.4347  1.0286
   48CHL1   H1B 4704   1.285   3.082   5.656  1.6603  0.1175  0.4496
   48CHL1    C2 4705   1.224   2.970   5.836  0.1802  0.3233 -0.1368
   48CHL1   H2A 4706   1.319   3.001   5.884  0.9450 -1.4386 -0.4313
   48CHL1   H2B 4707   1.222   2.865   5.873 -0.5978  1.0443  2.0219
   48CHL1   C20 4708   1.190   2.918   4.920  0.4649  0.1557 -0.5876
   48CHL1   H20 4709   1.272   2.850   4.952  1.1166  0.8529 -0.7369
   48CHL1   C21 4710   1.256   3.033   4.832  0.5282  0.1779  0.2288
   48CHL1  H21A 4711   1.174   3.094   4.789  0.9216  0.4953 -0.0828
   48CHL1  H21B 4712   1.316   3.097   4.900  0.9347  0.0021  0.0391
   48CHL1  H21C 4713   1.318   2.977   4.758  1.2956  0.0269  0.9715
   48CHL1   C22 4714   1.097   2.831   4.830  0.6192 -0.5294 -0.5929
   48CHL1  H22A 4715   1.019   2.778   4.889 -0.4233  1.0350 -0.5018
   48CHL1  H22B 4716   1.044   2.894   4.755 -2.1680  0.0404  1.6621
   48CHL1   C23 4717   1.170   2.726   4.739  0.4780  0.5430  0.0141
   48CHL1  H23A 4718   1.260   2.769   4.691  2.6266 -2.3782  1.1159
   48CHL1  H23B 4719   1.219   2.660   4.813 -0.0042 -1.5426 -1.4124
   48CHL1   C24 4720   1.083   2.638   4.645  0.0952  0.7663 -0.0960
   48CHL1  H24A 4721   1.142   2.553   4.602 -0.3238  1.4011 -2.0262
   48CHL1  H24B 4722   1.001   2.591   4.703 -0.1132 -0.8637 -1.6079
   48CHL1   C25 4723   1.036   2.721   4.519  0.2220  0.1428 -0.0081
   48CHL1   H25 4724   0.985   2.814   4.553  0.3580  0.3295 -0.3143
   48CHL1   C26 4725   1.156   2.756   4.433 -1.2632  0.1319 -0.2094
   48CHL1  H26A 4726   1.116   2.799   4.339  1.3620  1.6425 -0.7439
   48CHL1  H26B 4727   1.224   2.826   4.487  0.3121  0.1349 -2.0893
   48CHL1  H26C 4728   1.222   2.668   4.419 -0.5445  0.3995  1.2788
   48CHL1   C27 4729   0.932   2.634   4.441 -0.4345 -0.3941  0.6450
   48CHL1  H27A 4730   0.953   2.525   4.435 -1.7358 -0.6024 -1.1635
   48CHL1  H27B 4731   0.830   2.645   4.483 -0.5584  0.8573  0.0575
   48CHL1  H27C 4732   0.935   2.664   4.334 -0.1770  0.2723  0.8376
   49CHL1    C3 4733   5.277   0.419   2.564  0.2518 -0.3949  0.1500
   49CHL1    H3 4734   5.186   0.481   2.576  0.3893 -0.5315  2.1697
   49CHL1    O3 4735   5.308   0.436   2.427  0.2512  0.8188 -0.5196
   49CHL1   H3' 4736   5.377   0.370   2.418  0.2294  0.5312  1.0841
   49CHL1    C4 4737   5.381   0.477   2.649 -0.1410 -1.5499 -0.1636
   49CHL1   H4A 4738   5.480   0.448   2.606  1.7195  2.2780  1.1416
   49CHL1   H4B 4739   5.383   0.587   2.636 -0.3939 -1.5082  0.1406
   49CHL1    C5 4740   5.352   0.457   2.796 -0.7997 -0.0328  0.5478
   49CHL1    C6 4741   5.335   0.561   2.885  0.6101 -0.6712 -0.4850
   49CHL1    H6 4742   5.341   0.666   2.855 -0.4627  0.2502  2.2727
   49CHL1    C7 4743   5.313   0.552   3.027 -0.0446  0.1579  0.0242
   49CHL1   H7A 4744   5.380   0.619   3.085 -0.3659 -0.6405  1.3468
   49CHL1   H7B 4745   5.207   0.565   3.057  0.4883  0.9798  1.6732
   49CHL1    C8 4746   5.335   0.412   3.070  0.7093  0.7125  0.1146
   49CHL1    H8 4747   5.442   0.389   3.086  0.5256  0.5762  1.1848
   49CHL1   C14 4748   5.273   0.394   3.207  0.4788  0.4965 -0.6798
   49CHL1   H14 4749   5.164   0.415   3.197  0.1871 -1.3105 -1.8098
   49CHL1   C15 4750   5.314   0.500   3.312  0.5146 -0.0535  0.1788
   49CHL1  H15A 4751   5.424   0.498   3.326  0.6130  1.5835 -0.2221
   49CHL1  H15B 4752   5.274   0.601   3.286 -1.1145 -0.5956  0.4353
   49CHL1   C16 4753   5.243   0.445   3.438  0.0468 -0.3502  0.5780
   49CHL1  H16A 4754   5.315   0.445   3.523  1.7129  1.7825 -0.7006
   49CHL1  H16B 4755   5.152   0.496   3.476 -0.9633 -1.5866 -0.0977
   49CHL1   C17 4756   5.216   0.294   3.408  0.1678 -0.0939  0.1817
   49CHL1   H17 4757   5.109   0.301   3.379 -0.2925  0.0017  1.8262
   49CHL1   C13 4758   5.280   0.260   3.273  0.1634  0.1319 -0.4519
   49CHL1   C18 4759   5.426   0.222   3.306  0.0692  0.0483 -0.7064
   49CHL1  H18A 4760   5.478   0.296   3.371  0.6488 -1.1186  0.2047
   49CHL1  H18B 4761   5.431   0.130   3.369 -0.6752  0.3611 -0.1718
   49CHL1  H18C 4762   5.491   0.214   3.216 -1.4777  0.0479 -1.8597
   49CHL1   C12 4763   5.213   0.158   3.182  0.5501  0.6219 -0.1262
   49CHL1  H12A 4764   5.242   0.063   3.232 -0.1406 -0.0488 -0.9589
   49CHL1  H12B 4765   5.103   0.158   3.168  0.5325  1.1568 -0.0197
   49CHL1   C11 4766   5.279   0.157   3.046  0.2957  0.2597  0.0718
   49CHL1  H11A 4767   5.382   0.116   3.039  0.1269  0.1942 -3.3786
   49CHL1  H11B 4768   5.224   0.086   2.980  1.3096  0.8682 -1.4610
   49CHL1    C9 4769   5.274   0.300   2.982 -0.0216  0.3529  0.3560
   49CHL1    H9 4770   5.167   0.324   2.964 -0.2506 -2.3962 -3.0668
   49CHL1   C10 4771   5.337   0.308   2.838  0.0597  0.1979  0.7026
   49CHL1   C19 4772   5.476   0.246   2.830  0.4481  0.5260  0.0568
   49CHL1  H19A 4773   5.466   0.137   2.843 -2.7779  0.6522 -0.3422
   49CHL1  H19B 4774   5.525   0.250   2.730  1.4719 -0.1978  0.5150
   49CHL1  H19C 4775   5.541   0.275   2.915 -0.7077 -0.1704  1.2116
   49CHL1    C1 4776   5.236   0.234   2.741  0.2709  0.0858  0.5603
   49CHL1   H1A 4777   5.218   0.128   2.770 -0.7539  0.0408 -0.1861
   49CHL1   H1B 4778   5.140   0.284   2.766 -0.1418 -0.4273  0.0262
   49CHL1    C2 4779   5.261   0.264   2.595  0.6592 -0.8714 -0.7071
   49CHL1   H2A 4780   5.184   0.229   2.524 -0.8003  2.5685 -1.0528
   49CHL1   H2B 4781   5.353   0.215   2.558  2.7196  1.8842  0.4053
   49CHL1   C20 4782   5.227   0.194   3.528  0.1220  0.3655 -0.0932
   49CHL1   H20 4783   5.234   0.093   3.482  1.2050  0.3019  0.1838
   49CHL1   C21 4784   5.096   0.195   3.602  0.7290  0.3825  0.0496
   49CHL1  H21A 4785   5.092   0.293   3.654 -0.3626  1.2478 -1.5326
   49CHL1  H21B 4786   5.095   0.101   3.660 -0.6452 -2.1423 -3.6567
   49CHL1  H21C 4787   5.019   0.179   3.523  1.5205 -0.5484 -0.5594
   49CHL1   C22 4788   5.339   0.215   3.632 -0.1917 -0.0126 -0.9821
   49CHL1  H22A 4789   5.434   0.249   3.585  0.9612 -0.4525  0.9302
   49CHL1  H22B 4790   5.330   0.283   3.719  1.2334  0.7076 -1.3606
   49CHL1   C23 4791   5.387   0.079   3.702  0.6698 -0.1055 -0.1455
   49CHL1  H23A 4792   5.292   0.039   3.743 -1.0089  2.1062 -1.6241
   49CHL1  H23B 4793   5.417   0.005   3.626  0.7230 -1.4685  1.1646
   49CHL1   C24 4794   5.482   0.097   3.817  0.0482 -0.2065 -0.0090
   49CHL1  H24A 4795   5.576   0.148   3.786  0.7867 -1.1189  0.6599
   49CHL1  H24B 4796   5.444   0.161   3.900  0.5619  0.4071 -0.2404
   49CHL1   C25 4797   5.528  -0.038   3.886  1.0267  0.7064 -0.1443
   49CHL1   H25 4798   5.443  -0.075   3.947  0.7061  0.4348 -0.7605
   49CHL1   C26 4799   5.559  -0.152   3.784  0.7234  0.2079 -0.5176
   49CHL1  H26A 4800   5.622  -0.112   3.703 -0.1783  1.6287 -0.5398
   49CHL1  H26B 4801   5.611  -0.240   3.829  1.7962  0.5512 -1.0585
   49CHL1  H26C 4802   5.467  -0.190   3.736  0.3342  0.3180  0.1335
   49CHL1   C27 4803   5.637  -0.016   3.989  0.4866 -0.4293  1.1073
   49CHL1  H27A 4804   5.665  -0.115   4.029  1.2303 -0.5452  0.3356
   49CHL1  H27B 4805   5.727   0.027   3.940  0.5905 -1.1273  0.6781
   49CHL1  H27C 4806   5.612   0.042   4.081  0.2987  1.6988 -0.2089
   50CHL1    C3 4807   2.046   3.296   2.697 -0.0281  0.1122  0.6047
   50CHL1    H3 4808   2.155   3.315   2.701  0.0198 -0.0723  0.1936
   50CHL1    O3 4809   1.990   3.344   2.576 -0.4610  0.0155 -0.7670
   50CHL1   H3' 4810   1.998   3.438   2.594 -0.0305  0.4234 -2.7888
   50CHL1    C4 4811   2.009   3.145   2.705  0.0876  0.3375  0.7945
   50CHL1   H4A 4812   1.899   3.132   2.694 -0.2759  1.6057  2.3921
   50CHL1   H4B 4813   2.066   3.092   2.626 -0.2091 -0.1139  0.8822
   50CHL1    C5 4814   2.040   3.085   2.840 -0.0176 -0.2575  0.2005
   50CHL1    C6 4815   2.119   2.978   2.859 -0.4323 -0.3262 -0.2758
   50CHL1    H6 4816   2.159   2.918   2.776  0.4168 -1.6164  1.0214
   50CHL1    C7 4817   2.155   2.922   2.992 -0.2772  0.3393  0.0715
   50CHL1   H7A 4818   2.132   2.814   2.997  0.4862  0.2307  2.1594
   50CHL1   H7B 4819   2.266   2.924   2.997 -0.0985 -1.2470 -2.0819
   50CHL1    C8 4820   2.078   2.984   3.113  0.4817  0.9117 -0.4620
   50CHL1    H8 4821   1.977   2.936   3.119 -0.2368  2.4988  0.7127
   50CHL1   C14 4822   2.145   2.960   3.247  0.4815 -0.2172  0.3598
   50CHL1   H14 4823   2.237   3.022   3.235  0.2696  0.0689  0.2027
   50CHL1   C15 4824   2.201   2.821   3.267  0.1258  0.2451 -0.5271
   50CHL1  H15A 4825   2.131   2.744   3.229 -0.7560 -0.3810  2.1212
   50CHL1  H15B 4826   2.298   2.812   3.214 -0.5690 -1.2004 -1.6165
   50CHL1   C16 4827   2.208   2.806   3.421  0.4310  0.3709  0.4937
   50CHL1  H16A 4828   2.147   2.721   3.459  3.8127 -1.5052  2.1879
   50CHL1  H16B 4829   2.310   2.787   3.461  1.2014  1.2918 -0.9515
   50CHL1   C17 4830   2.162   2.937   3.479 -0.1799 -0.2307 -0.7069
   50CHL1   H17 4831   2.242   3.013   3.476  1.1998 -1.5120  1.0372
   50CHL1   C13 4832   2.071   3.004   3.370  0.0180 -0.9250 -0.5623
   50CHL1   C18 4833   1.934   2.928   3.367 -0.1846  0.0108  0.1273
   50CHL1  H18A 4834   1.878   2.959   3.276 -1.4772 -2.1993  0.0932
   50CHL1  H18B 4835   1.942   2.818   3.354  0.2344  0.1185 -0.6013
   50CHL1  H18C 4836   1.862   2.958   3.445 -0.2645  1.4513 -0.4644
   50CHL1   C12 4837   2.067   3.158   3.351  0.9877  0.4719 -0.1606
   50CHL1  H12A 4838   2.003   3.204   3.430 -1.6517  0.8833 -2.3758
   50CHL1  H12B 4839   2.165   3.209   3.341  1.1757  0.2415  0.4321
   50CHL1   C11 4840   1.988   3.191   3.218  0.0631 -0.1936  0.2052
   50CHL1  H11A 4841   1.882   3.160   3.221  0.2224 -0.8754 -0.7054
   50CHL1  H11B 4842   1.996   3.302   3.214  0.3979 -0.2359 -2.8960
   50CHL1    C9 4843   2.056   3.130   3.092  0.1534  0.8181 -0.0899
   50CHL1    H9 4844   2.161   3.164   3.077  0.9485 -1.1969  0.5442
   50CHL1   C10 4845   1.987   3.169   2.959 -0.4179 -0.3931 -0.4246
   50CHL1   C19 4846   1.838   3.120   2.964 -0.2515 -0.2852  0.4789
   50CHL1  H19A 4847   1.842   3.011   2.980  0.5295 -0.3576 -0.1449
   50CHL1  H19B 4848   1.788   3.178   3.045 -0.8557 -0.9564  0.5922
   50CHL1  H19C 4849   1.790   3.156   2.871  3.2356  2.4328 -0.4976
   50CHL1    C1 4850   2.004   3.324   2.949  0.5193 -0.1737 -0.2832
   50CHL1   H1A 4851   1.933   3.377   3.016  0.5173  2.4113 -2.2057
   50CHL1   H1B 4852   2.110   3.345   2.971  0.9610 -0.3941 -2.0440
   50CHL1    C2 4853   1.976   3.378   2.811 -0.6991  0.0073 -0.1438
   50CHL1   H2A 4854   2.021   3.480   2.805  0.1386 -0.4115 -1.2957
   50CHL1   H2B 4855   1.867   3.380   2.788 -0.3421 -0.0533 -1.9590
   50CHL1   C20 4856   2.109   2.921   3.625  0.2137  0.1033  0.6009
   50CHL1   H20 4857   2.032   2.841   3.621  0.1715  0.2041 -2.0846
   50CHL1   C21 4858   2.054   3.051   3.673 -0.1352 -0.6714 -0.1100
   50CHL1  H21A 4859   2.022   3.030   3.777 -1.8967 -0.9001 -0.6556
   50CHL1  H21B 4860   1.962   3.078   3.617 -0.5357 -0.3646  0.6919
   50CHL1  H21C 4861   2.127   3.134   3.681  0.5441 -1.1433 -1.0947
   50CHL1   C22 4862   2.220   2.875   3.718 -0.7357  0.6565  0.2318
   50CHL1  H22A 4863   2.282   2.791   3.680 -1.3564  0.3234 -0.0626
   50CHL1  H22B 4864   2.294   2.958   3.724  0.9527 -0.7192 -0.5557
   50CHL1   C23 4865   2.182   2.850   3.867 -0.1066  0.6692 -0.3528
   50CHL1  H23A 4866   2.139   2.937   3.920  0.1560  0.0700  0.8772
   50CHL1  H23B 4867   2.109   2.767   3.874  1.4036 -0.8679 -1.5437
   50CHL1   C24 4868   2.305   2.825   3.954  0.2109 -0.6482  0.3017
   50CHL1  H24A 4869   2.361   2.741   3.909  1.6513  0.4895 -0.1298
   50CHL1  H24B 4870   2.383   2.904   3.962 -1.0680  1.1112 -2.8606
   50CHL1   C25 4871   2.259   2.789   4.096  0.3932  0.4637 -0.7059
   50CHL1   H25 4872   2.176   2.716   4.090  0.9172 -0.0878 -1.4468
   50CHL1   C26 4873   2.368   2.718   4.179 -0.5836 -0.1404 -0.0675
   50CHL1  H26A 4874   2.387   2.618   4.134  1.9284  0.4318 -0.4323
   50CHL1  H26B 4875   2.467   2.769   4.183 -0.3439 -0.6835  2.1554
   50CHL1  H26C 4876   2.339   2.697   4.284  0.7918 -0.6310  0.2402
   50CHL1   C27 4877   2.206   2.913   4.173 -0.3702  0.2520  0.4001
   50CHL1  H27A 4878   2.102   2.927   4.139  0.1837 -0.4987 -1.7427
   50CHL1  H27B 4879   2.197   2.898   4.283  2.6184 -0.8366  0.6033
   50CHL1  H27C 4880   2.273   3.002   4.173  1.1575 -0.8411  1.6585
   51CHL1    C3 4881   2.382   3.487   2.793 -0.4833  0.1826 -0.8765
   51CHL1    H3 4882   2.298   3.417   2.813  0.3293 -0.5782  0.0145
   51CHL1    O3 4883   2.399   3.525   2.656  0.3622  0.1312 -0.0057
   51CHL1   H3' 4884   2.457   3.601   2.664 -0.5935  1.1314 -1.8187
   51CHL1    C4 4885   2.363   3.617   2.877  0.3062 -0.0247 -0.4005
   51CHL1   H4A 4886   2.445   3.689   2.858 -0.2407  0.5994 -0.4010
   51CHL1   H4B 4887   2.270   3.663   2.836  0.6210  0.6123 -0.4076
   51CHL1    C5 4888   2.353   3.603   3.022  0.3031  0.5189  0.3894
   51CHL1    C6 4889   2.252   3.646   3.095  0.2567  0.3602 -0.1060
   51CHL1    H6 4890   2.175   3.708   3.046 -0.7402  1.4364  2.6291
   51CHL1    C7 4891   2.236   3.629   3.246 -0.6644  0.0280  0.5855
   51CHL1   H7A 4892   2.207   3.719   3.304  1.3958 -0.6074  2.7337
   51CHL1   H7B 4893   2.146   3.564   3.251  0.1892 -1.1279  1.5079
   51CHL1    C8 4894   2.354   3.562   3.320 -0.4829 -0.1456  0.3771
   51CHL1    H8 4895   2.420   3.650   3.336 -1.3851  0.8237 -1.0091
   51CHL1   C14 4896   2.314   3.504   3.446  0.3543 -0.1853 -0.8335
   51CHL1   H14 4897   2.243   3.426   3.411 -1.0756  1.2502 -1.2741
   51CHL1   C15 4898   2.236   3.594   3.545 -0.3056 -0.1466  0.7759
   51CHL1  H15A 4899   2.287   3.693   3.544 -1.0390  0.2666 -1.5585
   51CHL1  H15B 4900   2.135   3.611   3.503 -0.4192 -1.5393  0.4278
   51CHL1   C16 4901   2.232   3.507   3.677 -1.0493 -0.1641  0.7425
   51CHL1  H16A 4902   2.273   3.565   3.762 -1.0736  0.9955 -0.0114
   51CHL1  H16B 4903   2.137   3.461   3.710 -0.2449 -3.0705 -0.6389
   51CHL1   C17 4904   2.338   3.390   3.645 -0.5501  0.4037 -0.1309
   51CHL1   H17 4905   2.290   3.292   3.625 -1.5109  0.6937  0.6820
   51CHL1   C13 4906   2.423   3.437   3.526 -0.8430 -0.1253 -0.0641
   51CHL1   C18 4907   2.532   3.549   3.571  0.2050  0.0492 -0.8288
   51CHL1  H18A 4908   2.620   3.486   3.599 -0.3991 -0.2457  0.4659
   51CHL1  H18B 4909   2.563   3.617   3.489 -2.0982  2.1610 -0.0727
   51CHL1  H18C 4910   2.486   3.614   3.648 -0.1080 -1.4224  0.2726
   51CHL1   C12 4911   2.493   3.322   3.439  0.5217 -0.7439  0.1937
   51CHL1  H12A 4912   2.589   3.308   3.494  1.2601  0.3131 -0.7699
   51CHL1  H12B 4913   2.434   3.229   3.427 -0.9688  0.3682 -1.6262
   51CHL1   C11 4914   2.533   3.387   3.306  0.1661 -0.7229  0.4190
   51CHL1  H11A 4915   2.617   3.456   3.326 -0.3234 -0.0786  0.2856
   51CHL1  H11B 4916   2.579   3.302   3.251  3.3200  0.1840  1.4499
   51CHL1    C9 4917   2.429   3.459   3.230  0.1199 -0.0713 -0.6999
   51CHL1    H9 4918   2.354   3.381   3.206 -1.9103  1.6408 -0.1747
   51CHL1   C10 4919   2.470   3.516   3.087 -0.6034  0.3947 -0.3211
   51CHL1   C19 4920   2.589   3.617   3.091  0.4481  0.2291  0.4352
   51CHL1  H19A 4921   2.630   3.620   2.988 -0.7801  1.8472 -0.0577
   51CHL1  H19B 4922   2.562   3.723   3.113  0.5229  0.0703  1.3212
   51CHL1  H19C 4923   2.666   3.576   3.159  0.2069 -2.1956 -0.6548
   51CHL1    C1 4924   2.511   3.401   2.995 -0.1559  0.1472 -0.1934
   51CHL1   H1A 4925   2.612   3.373   3.031 -0.9530 -2.2409  0.3437
   51CHL1   H1B 4926   2.442   3.316   3.012  0.1906  0.0751  1.0092
   51CHL1    C2 4927   2.519   3.421   2.844 -0.0515  1.2025  0.2462
   51CHL1   H2A 4928   2.513   3.328   2.785  1.2943  1.6299 -0.6031
   51CHL1   H2B 4929   2.607   3.480   2.810 -1.1365  2.7609  0.0438
   51CHL1   C20 4930   2.422   3.351   3.775  0.5267 -0.3951 -0.1068
   51CHL1   H20 4931   2.493   3.433   3.796 -0.6979  0.6625  0.0402
   51CHL1   C21 4932   2.506   3.221   3.752  0.4265  0.1668  0.7526
   51CHL1  H21A 4933   2.583   3.203   3.831  0.5623 -0.6190  0.4498
   51CHL1  H21B 4934   2.571   3.236   3.663  0.2144  0.4959  0.6530
   51CHL1  H21C 4935   2.447   3.129   3.733  0.7677  0.1321 -0.1901
   51CHL1   C22 4936   2.324   3.330   3.896  0.1345 -0.1130  0.4184
   51CHL1  H22A 4937   2.274   3.429   3.904  0.3356 -0.0983  1.9031
   51CHL1  H22B 4938   2.243   3.258   3.871  2.3505 -2.4565 -0.4086
   51CHL1   C23 4939   2.386   3.283   4.024 -0.3859 -0.0929  0.0683
   51CHL1  H23A 4940   2.308   3.279   4.103  0.7736  1.7205  1.3948
   51CHL1  H23B 4941   2.426   3.183   3.999 -1.1426 -0.4593  0.2889
   51CHL1   C24 4942   2.503   3.366   4.081 -0.2406 -0.0544 -0.9309
   51CHL1  H24A 4943   2.584   3.389   4.009  2.5244 -2.4456  1.1683
   51CHL1  H24B 4944   2.461   3.464   4.112  1.1208  0.7685 -1.6058
   51CHL1   C25 4945   2.574   3.301   4.204 -0.1980  0.6049 -0.7233
   51CHL1   H25 4946   2.495   3.275   4.278  1.4767  1.4917  1.5023
   51CHL1   C26 4947   2.653   3.174   4.161  0.2348 -0.4974 -0.4982
   51CHL1  H26A 4948   2.581   3.102   4.117 -0.8102 -0.4579  1.0705
   51CHL1  H26B 4949   2.743   3.190   4.098  0.6903  0.8093  0.4224
   51CHL1  H26C 4950   2.696   3.126   4.251  1.3070 -0.5108 -1.0004
   51CHL1   C27 4951   2.672   3.395   4.287 -0.3764  0.2372 -0.0599
   51CHL1  H27A 4952   2.624   3.494   4.304 -0.7199 -0.0562  0.7523
   51CHL1  H27B 4953   2.696   3.351   4.386 -0.9906 -0.3214 -0.1544
   51CHL1  H27C 4954   2.765   3.406   4.228 -1.0489 -1.7564 -1.6131
   52CHL1    C3 4955   1.693   3.762   2.680 -0.2973 -0.5511 -0.2130
   52CHL1    H3 4956   1.760   3.674   2.670 -1.2386 -1.5513  1.8245
   52CHL1    O3 4957   1.674   3.806   2.544  0.8276  0.5003 -0.6398
   52CHL1   H3' 4958   1.603   3.870   2.556  1.2250  0.6644  1.2515
   52CHL1    C4 4959   1.558   3.717   2.730 -0.0931 -0.6720  0.3971
   52CHL1   H4A 4960   1.481   3.797   2.724 -2.3509 -2.5672  2.2406
   52CHL1   H4B 4961   1.513   3.636   2.670 -1.3959 -1.2801  2.1001
   52CHL1    C5 4962   1.571   3.671   2.872 -0.1585  0.7588  0.1892
   52CHL1    C6 4963   1.551   3.543   2.900 -0.2458  1.1448  1.0213
   52CHL1    H6 4964   1.512   3.474   2.824  0.9903  0.6987  0.7770
   52CHL1    C7 4965   1.572   3.486   3.035 -0.2256 -0.0292  0.1521
   52CHL1   H7A 4966   1.493   3.411   3.056 -0.4977 -0.4079 -2.0012
   52CHL1   H7B 4967   1.671   3.437   3.033  0.3065  0.9589  0.8410
   52CHL1    C8 4968   1.596   3.593   3.148  0.2111 -0.3940 -0.4334
   52CHL1    H8 4969   1.494   3.633   3.167  1.1441  2.0408 -0.1893
   52CHL1   C14 4970   1.657   3.536   3.282 -0.0934 -0.7221 -0.2646
   52CHL1   H14 4971   1.761   3.503   3.261 -0.2959 -2.0628  0.7371
   52CHL1   C15 4972   1.596   3.410   3.349  0.5006 -0.2849 -0.4206
   52CHL1  H15A 4973   1.485   3.406   3.342  0.5117 -0.5546 -0.4380
   52CHL1  H15B 4974   1.619   3.317   3.293  0.2817 -0.4213 -0.2848
   52CHL1   C16 4975   1.645   3.404   3.495 -0.1090 -0.1382 -0.1459
   52CHL1  H16A 4976   1.561   3.403   3.567 -0.6698  1.3297 -0.7406
   52CHL1  H16B 4977   1.707   3.312   3.501  0.6171  0.3771  0.5010
   52CHL1   C17 4978   1.741   3.527   3.505 -0.8891  0.2745 -0.1780
   52CHL1   H17 4979   1.847   3.501   3.487 -0.4687  1.1316  0.9209
   52CHL1   C13 4980   1.688   3.630   3.401  0.4407  0.2323  0.3548
   52CHL1   C18 4981   1.564   3.699   3.456  0.1073  0.3773 -0.6048
   52CHL1  H18A 4982   1.501   3.623   3.506  4.2060 -1.8184  1.6893
   52CHL1  H18B 4983   1.584   3.781   3.528 -1.3119 -0.1084  0.3876
   52CHL1  H18C 4984   1.514   3.745   3.368 -0.8900  0.0696 -0.2102
   52CHL1   C12 4985   1.792   3.725   3.340  0.4610 -0.4070  0.3306
   52CHL1  H12A 4986   1.809   3.809   3.411  1.1950 -0.7163  0.5234
   52CHL1  H12B 4987   1.879   3.670   3.300 -0.5794 -0.3576 -2.2467
   52CHL1   C11 4988   1.726   3.799   3.218 -0.5696  0.5403  0.0348
   52CHL1  H11A 4989   1.640   3.865   3.242 -1.2226  0.6891 -2.4471
   52CHL1  H11B 4990   1.813   3.857   3.180  2.0764 -0.3361  4.0972
   52CHL1    C9 4991   1.685   3.705   3.104  0.2954  0.4036 -0.9379
   52CHL1    H9 4992   1.781   3.660   3.069 -1.2387 -1.3733 -3.1294
   52CHL1   C10 4993   1.646   3.772   2.967  0.7780  0.0002  0.2957
   52CHL1   C19 4994   1.546   3.897   2.985 -0.1218 -0.1206 -0.1960
   52CHL1  H19A 4995   1.493   3.923   2.891 -1.1402  0.6307  0.5663
   52CHL1  H19B 4996   1.479   3.848   3.059 -0.0246  0.6066  0.3836
   52CHL1  H19C 4997   1.600   3.981   3.032 -2.1839  2.0845 -1.5322
   52CHL1    C1 4998   1.776   3.830   2.906 -0.0910  0.3872  0.3578
   52CHL1   H1A 4999   1.813   3.907   2.976  1.7587  0.1854 -0.3305
   52CHL1   H1B 5000   1.858   3.755   2.903  0.5529  1.1045 -1.3440
   52CHL1    C2 5001   1.757   3.874   2.761 -0.2376 -0.1866  0.2233
   52CHL1   H2A 5002   1.853   3.893   2.708  0.7687 -1.5056  1.4921
   52CHL1   H2B 5003   1.697   3.967   2.759 -0.2495 -0.1633 -2.9987
   52CHL1   C20 5004   1.759   3.564   3.650  0.3275 -0.2889 -0.2750
   52CHL1   H20 5005   1.662   3.595   3.695 -0.2870 -1.6217 -0.6339
   52CHL1   C21 5006   1.864   3.679   3.658  0.5717 -0.2183 -0.7289
   52CHL1  H21A 5007   1.902   3.693   3.762 -0.2535  0.8323 -0.5585
   52CHL1  H21B 5008   1.814   3.770   3.620  1.2538  0.2386 -0.5679
   52CHL1  H21C 5009   1.943   3.658   3.583 -1.1301 -0.5364 -2.5115
   52CHL1   C22 5010   1.799   3.441   3.738  1.3695  0.3746 -0.5438
   52CHL1  H22A 5011   1.720   3.364   3.723  0.2482  1.3460  0.1602
   52CHL1  H22B 5012   1.897   3.405   3.700  0.6802 -0.6269 -1.4539
   52CHL1   C23 5013   1.804   3.465   3.888  0.0552 -0.0011  0.3086
   52CHL1  H23A 5014   1.883   3.541   3.905  0.3181 -0.1384 -0.2614
   52CHL1  H23B 5015   1.716   3.522   3.925  0.3817  0.2593  0.6840
   52CHL1   C24 5016   1.828   3.335   3.963 -0.2136 -0.1492 -1.2647
   52CHL1  H24A 5017   1.735   3.276   3.949 -0.9958  0.7382 -0.0086
   52CHL1  H24B 5018   1.913   3.284   3.912 -0.9612 -0.3452 -2.3414
   52CHL1   C25 5019   1.847   3.351   4.111  0.4642  0.0905 -0.8883
   52CHL1   H25 5020   1.770   3.417   4.155  1.5576  0.8757 -0.0946
   52CHL1   C26 5021   1.832   3.214   4.172  0.6897  0.1871 -0.3345
   52CHL1  H26A 5022   1.728   3.178   4.157  0.7507  0.1780 -0.7392
   52CHL1  H26B 5023   1.897   3.140   4.122  0.0333  1.4887 -3.2999
   52CHL1  H26C 5024   1.858   3.198   4.279 -0.0853 -1.3360 -0.3465
   52CHL1   C27 5025   1.993   3.399   4.149  0.0152 -0.7236  0.0681
   52CHL1  H27A 5026   2.017   3.373   4.254 -0.9844 -1.3995  0.1429
   52CHL1  H27B 5027   2.070   3.359   4.080  1.2116  0.6843  0.5271
   52CHL1  H27C 5028   2.006   3.508   4.136 -0.5261 -0.9526 -3.0616
   53CHL1    C3 5029   1.754   4.740   2.981 -0.4576  0.0026 -0.5716
   53CHL1    H3 5030   1.685   4.668   2.932 -0.9239  0.7415 -1.0274
   53CHL1    O3 5031   1.809   4.804   2.871 -0.3671  0.4054 -0.0113
   53CHL1   H3' 5032   1.864   4.874   2.907 -1.3137  0.4898  1.3596
   53CHL1    C4 5033   1.685   4.844   3.068  0.6449  0.0130 -0.2088
   53CHL1   H4A 5034   1.756   4.927   3.091  0.5654 -0.5694  2.4916
   53CHL1   H4B 5035   1.601   4.888   3.010 -0.2494 -1.7550 -0.2999
   53CHL1    C5 5036   1.630   4.785   3.197 -0.7253 -0.2518 -0.4797
   53CHL1    C6 5037   1.512   4.808   3.243  0.4535  0.1151 -0.2557
   53CHL1    H6 5038   1.456   4.886   3.190  0.7346 -0.1271 -0.9135
   53CHL1    C7 5039   1.458   4.770   3.380 -0.3227 -0.3507  0.3024
   53CHL1   H7A 5040   1.414   4.860   3.430  0.0189  0.3141 -0.5635
   53CHL1   H7B 5041   1.372   4.701   3.367 -1.9180  1.5494  0.1043
   53CHL1    C8 5042   1.571   4.717   3.472 -0.0528 -0.1546  0.5223
   53CHL1    H8 5043   1.615   4.804   3.524 -4.0133  2.9284 -0.7661
   53CHL1   C14 5044   1.517   4.629   3.585 -0.8039 -0.0332  0.8524
   53CHL1   H14 5045   1.467   4.542   3.538  1.1889 -0.7779  0.0243
   53CHL1   C15 5046   1.402   4.692   3.666  0.0734  0.1319  0.2575
   53CHL1  H15A 5047   1.400   4.802   3.675  0.7789  0.1421  0.3877
   53CHL1  H15B 5048   1.307   4.655   3.621  1.0039 -3.7697  1.0780
   53CHL1   C16 5049   1.412   4.627   3.804 -0.0991  0.2626  0.1277
   53CHL1  H16A 5050   1.441   4.708   3.874  0.6400  0.7983 -0.7639
   53CHL1  H16B 5051   1.314   4.598   3.847 -2.2628  2.0643 -3.1170
   53CHL1   C17 5052   1.528   4.523   3.798  0.1655  0.1216  0.2761
   53CHL1   H17 5053   1.485   4.431   3.752  0.2693  0.2907 -0.1710
   53CHL1   C13 5054   1.624   4.582   3.696  0.4009 -0.3497 -0.3114
   53CHL1   C18 5055   1.696   4.698   3.764 -0.2215  0.1900 -0.1494
   53CHL1  H18A 5056   1.734   4.769   3.687 -0.1524 -0.8203 -1.0725
   53CHL1  H18B 5057   1.628   4.760   3.826 -0.2959 -0.8962  0.8965
   53CHL1  H18C 5058   1.778   4.661   3.829 -1.0118  1.1521  1.4648
   53CHL1   C12 5059   1.712   4.487   3.617  1.2329  0.3528 -0.6388
   53CHL1  H12A 5060   1.796   4.438   3.671  0.3576  0.2644  0.6646
   53CHL1  H12B 5061   1.648   4.406   3.575 -1.5616  0.3981  3.0216
   53CHL1   C11 5062   1.775   4.565   3.498  0.6433 -0.4824  0.4933
   53CHL1  H11A 5063   1.829   4.650   3.543  0.2974  0.1401 -0.2459
   53CHL1  H11B 5064   1.836   4.494   3.438 -1.0113  1.4419 -3.8748
   53CHL1    C9 5065   1.668   4.630   3.399 -0.5649 -0.1924 -0.5720
   53CHL1    H9 5066   1.613   4.543   3.358 -0.9522 -1.6063  2.6391
   53CHL1   C10 5067   1.735   4.701   3.276 -0.4639 -0.1479  0.7163
   53CHL1   C19 5068   1.831   4.809   3.329 -0.1247 -0.2973  0.3487
   53CHL1  H19A 5069   1.906   4.741   3.375 -2.9872 -1.6267  3.5001
   53CHL1  H19B 5070   1.889   4.869   3.256 -2.6099 -2.0106 -3.4054
   53CHL1  H19C 5071   1.792   4.871   3.411  0.3328 -1.5111  1.5248
   53CHL1    C1 5072   1.798   4.598   3.176  0.3908  0.6335  0.1566
   53CHL1   H1A 5073   1.878   4.544   3.231  0.3230  0.7344  0.3588
   53CHL1   H1B 5074   1.719   4.525   3.148  1.6443 -0.0162 -1.8387
   53CHL1    C2 5075   1.865   4.663   3.053 -0.4013 -0.8510 -0.0527
   53CHL1   H2A 5076   1.918   4.592   2.985 -0.7771  1.3553 -2.8334
   53CHL1   H2B 5077   1.944   4.734   3.086  1.3618 -3.2868  1.2989
   53CHL1   C20 5078   1.581   4.495   3.939  0.2130 -0.9451 -0.1324
   53CHL1   H20 5079   1.618   4.589   3.985 -1.7708 -0.3044  0.2153
   53CHL1   C21 5080   1.696   4.394   3.931  0.0157  0.0013 -0.1436
   53CHL1  H21A 5081   1.729   4.350   4.028  1.4255  1.2439 -0.0220
   53CHL1  H21B 5082   1.784   4.448   3.889 -0.3546  1.0910  0.4311
   53CHL1  H21C 5083   1.670   4.316   3.857 -0.6437  0.8569 -0.8281
   53CHL1   C22 5084   1.472   4.451   4.040 -0.2997 -0.9484 -0.1338
   53CHL1  H22A 5085   1.402   4.536   4.053  0.9256  0.1077 -0.1926
   53CHL1  H22B 5086   1.412   4.361   4.014 -1.4444 -0.6276  1.3068
   53CHL1   C23 5087   1.534   4.441   4.174  0.0130  0.3420 -0.5992
   53CHL1  H23A 5088   1.568   4.337   4.196  1.5765  0.9596 -0.0137
   53CHL1  H23B 5089   1.610   4.521   4.185  1.1860 -0.8601  0.3640
   53CHL1   C24 5090   1.438   4.458   4.286  1.3015 -0.0757  0.6098
   53CHL1  H24A 5091   1.397   4.562   4.292  1.0105 -0.1850  0.5278
   53CHL1  H24B 5092   1.352   4.390   4.272 -0.0465  2.1824 -4.0042
   53CHL1   C25 5093   1.515   4.408   4.413  0.4913 -0.7500 -0.1160
   53CHL1   H25 5094   1.556   4.308   4.386  2.1236 -0.2045  0.2005
   53CHL1   C26 5095   1.630   4.491   4.467  0.7228  0.2264  0.5677
   53CHL1  H26A 5096   1.599   4.585   4.518  4.1043  1.2957  0.9613
   53CHL1  H26B 5097   1.684   4.430   4.543  0.9174  0.0332  0.2778
   53CHL1  H26C 5098   1.700   4.521   4.386 -0.4980  1.2594 -0.1425
   53CHL1   C27 5099   1.416   4.382   4.532 -0.1842 -1.0612 -0.5194
   53CHL1  H27A 5100   1.361   4.474   4.560  0.8086 -0.4700 -0.4655
   53CHL1  H27B 5101   1.334   4.311   4.508  0.1542 -1.7914  0.4201
   53CHL1  H27C 5102   1.473   4.342   4.619 -0.3479  0.3416  0.2679
   54CHL1    C3 5103   1.325   6.118   2.874  0.1950 -0.0694  0.7817
   54CHL1    H3 5104   1.366   6.212   2.832  0.1997 -0.4121  0.0152
   54CHL1    O3 5105   1.347   6.018   2.773 -0.0715 -0.0714  0.4564
   54CHL1   H3' 5106   1.289   5.947   2.800  0.3608 -0.5054  0.2693
   54CHL1    C4 5107   1.405   6.080   3.004  0.0357 -0.4185  0.2415
   54CHL1   H4A 5108   1.391   5.971   3.025  3.0193 -1.0877 -0.8382
   54CHL1   H4B 5109   1.511   6.082   2.972 -0.0857 -0.8486 -0.2150
   54CHL1    C5 5110   1.379   6.176   3.115 -0.6666 -0.1344 -0.3581
   54CHL1    C6 5111   1.478   6.244   3.178  0.6818  0.1064  0.0033
   54CHL1    H6 5112   1.584   6.232   3.148  0.9540 -1.0673  1.3166
   54CHL1    C7 5113   1.461   6.312   3.315 -0.0333 -0.5141  0.2146
   54CHL1   H7A 5114   1.532   6.277   3.393 -1.1540 -0.3724  1.3168
   54CHL1   H7B 5115   1.484   6.420   3.304  0.4347 -0.4708  1.5013
   54CHL1    C8 5116   1.317   6.298   3.372 -0.1255  0.1869  0.2083
   54CHL1    H8 5117   1.314   6.200   3.424  0.8869  0.2948  0.4854
   54CHL1   C14 5118   1.299   6.408   3.483 -0.5332 -0.1076 -0.2359
   54CHL1   H14 5119   1.302   6.507   3.433 -0.7015  0.6531  1.2071
   54CHL1   C15 5120   1.392   6.419   3.601  0.4459  0.2095 -0.0988
   54CHL1  H15A 5121   1.431   6.317   3.619  0.3410  0.0330 -0.8544
   54CHL1  H15B 5122   1.478   6.488   3.587  0.6883 -0.0566  0.0893
   54CHL1   C16 5123   1.304   6.485   3.709 -0.6760 -0.6132  0.6438
   54CHL1  H16A 5124   1.297   6.415   3.795  2.2708 -3.1001 -0.9296
   54CHL1  H16B 5125   1.350   6.578   3.749  0.6667 -1.4960  1.2363
   54CHL1   C17 5126   1.165   6.514   3.650 -0.4231 -0.3511 -0.1364
   54CHL1   H17 5127   1.172   6.611   3.596 -1.9703  0.3260  0.8282
   54CHL1   C13 5128   1.156   6.407   3.539 -0.0158 -0.1775 -0.0472
   54CHL1   C18 5129   1.136   6.266   3.611  0.4132  0.1695 -0.2860
   54CHL1  H18A 5130   1.037   6.254   3.660  0.2321  0.6094 -0.5346
   54CHL1  H18B 5131   1.140   6.181   3.540 -2.1269 -1.0328  0.8878
   54CHL1  H18C 5132   1.217   6.238   3.682  1.0688 -0.1242 -1.1323
   54CHL1   C12 5133   1.055   6.432   3.423  0.5889  0.4945 -0.3126
   54CHL1  H12A 5134   0.954   6.431   3.470  0.8309 -0.7591  0.2298
   54CHL1  H12B 5135   1.058   6.531   3.374 -2.5765  1.3018  0.8576
   54CHL1   C11 5136   1.057   6.318   3.314  0.1175  0.3335  0.0453
   54CHL1  H11A 5137   1.025   6.220   3.355  0.0796 -0.1669 -1.1416
   54CHL1  H11B 5138   0.989   6.339   3.228 -1.1396 -1.3142  0.5863
   54CHL1    C9 5139   1.209   6.298   3.258  0.2558 -0.5461 -0.0076
   54CHL1    H9 5140   1.222   6.396   3.207 -1.4154  0.1566  0.8378
   54CHL1   C10 5141   1.230   6.190   3.147  0.5318 -0.5125 -0.0808
   54CHL1   C19 5142   1.165   6.062   3.203  0.2984 -0.2307  0.3538
   54CHL1  H19A 5143   1.055   6.079   3.200  0.5898  1.7781 -0.7815
   54CHL1  H19B 5144   1.177   5.972   3.139  1.0576 -0.2481  0.5148
   54CHL1  H19C 5145   1.202   6.036   3.304 -0.5573  0.7929  0.9520
   54CHL1    C1 5146   1.149   6.235   3.023  0.4530  0.4109 -0.0806
   54CHL1   H1A 5147   1.042   6.232   3.050  0.3419 -2.6693 -0.4484
   54CHL1   H1B 5148   1.181   6.338   2.995 -0.7191  0.7008 -0.3912
   54CHL1    C2 5149   1.174   6.142   2.901 -0.0339 -0.5357 -0.3329
   54CHL1   H2A 5150   1.145   6.206   2.814  0.4740  2.7301  1.7312
   54CHL1   H2B 5151   1.118   6.047   2.912 -1.6666  0.2488 -1.4452
   54CHL1   C20 5152   1.051   6.541   3.747  0.4397  0.3999 -0.5425
   54CHL1   H20 5153   1.020   6.440   3.781  0.4831  0.2946 -0.8149
   54CHL1   C21 5154   0.937   6.619   3.674 -0.4311  0.3163  0.1186
   54CHL1  H21A 5155   0.972   6.707   3.616 -0.4793  0.2423 -0.0230
   54CHL1  H21B 5156   0.862   6.658   3.747 -0.5941  1.5686 -0.6863
   54CHL1  H21C 5157   0.872   6.548   3.619 -0.6527  1.7117 -1.5239
   54CHL1   C22 5158   1.094   6.619   3.879 -0.3810  0.1790  0.0427
   54CHL1  H22A 5159   1.187   6.565   3.906  0.6845  0.3748 -2.8893
   54CHL1  H22B 5160   1.120   6.722   3.846 -2.3229  0.1880 -1.6869
   54CHL1   C23 5161   0.993   6.601   3.997  0.4559 -0.1419  0.0131
   54CHL1  H23A 5162   0.891   6.623   3.960  0.7900 -0.5236 -1.1919
   54CHL1  H23B 5163   0.992   6.492   4.021  0.2780 -0.0836  0.2728
   54CHL1   C24 5164   1.040   6.675   4.126 -0.7331  0.0652 -0.1042
   54CHL1  H24A 5165   1.137   6.634   4.162  0.2598  0.7824 -1.8453
   54CHL1  H24B 5166   1.047   6.783   4.101 -1.7028  0.3616  0.8408
   54CHL1   C25 5167   0.925   6.671   4.235  0.1528  0.5986 -0.5842
   54CHL1   H25 5168   0.829   6.708   4.193 -1.2391  0.5167  2.3082
   54CHL1   C26 5169   0.904   6.535   4.304 -0.3423  0.8268 -0.2525
   54CHL1  H26A 5170   0.984   6.522   4.380 -0.4971  1.6301  0.0560
   54CHL1  H26B 5171   0.809   6.537   4.361 -0.5417 -1.0833 -0.4389
   54CHL1  H26C 5172   0.903   6.453   4.228  0.7104  2.8370 -2.5767
   54CHL1   C27 5173   0.959   6.764   4.356  0.0917  0.0415 -0.2442
   54CHL1  H27A 5174   0.916   6.741   4.456 -1.0160  0.6064 -0.5751
   54CHL1  H27B 5175   1.067   6.744   4.373 -0.1588 -0.1552  1.2616
   54CHL1  H27C 5176   0.953   6.869   4.320 -1.9131  0.0534 -0.0137
   55CHL1    C3 5177   4.566   1.436   2.532 -0.2694 -0.2443 -0.9883
   55CHL1    H3 5178   4.471   1.393   2.571  0.0532  1.2314  1.5939
   55CHL1    O3 5179   4.564   1.440   2.392  0.5629  0.0995  0.6192
   55CHL1   H3' 5180   4.643   1.492   2.374  1.2278 -0.1279  2.5830
   55CHL1    C4 5181   4.600   1.572   2.603  0.4993 -0.1610 -0.2186
   55CHL1   H4A 5182   4.694   1.616   2.563 -0.4184  1.9882 -0.1471
   55CHL1   H4B 5183   4.525   1.649   2.575 -0.4983 -1.4071 -1.1024
   55CHL1    C5 5184   4.611   1.561   2.752 -0.1159  0.2415  0.6458
   55CHL1    C6 5185   4.530   1.633   2.829  0.4556 -0.0206  0.2896
   55CHL1    H6 5186   4.467   1.706   2.777  0.9101 -0.2363 -0.5797
   55CHL1    C7 5187   4.536   1.633   2.979  0.5464  0.2466 -0.3401
   55CHL1   H7A 5188   4.537   1.733   3.027 -3.0691 -0.4759  1.6091
   55CHL1   H7B 5189   4.447   1.579   3.019  1.3140 -0.1913  0.8463
   55CHL1    C8 5190   4.647   1.544   3.046 -0.2292 -0.6331 -0.2097
   55CHL1    H8 5191   4.734   1.613   3.053  0.9280 -2.0482 -0.1284
   55CHL1   C14 5192   4.606   1.505   3.186 -0.7698 -0.3070  0.9898
   55CHL1   H14 5193   4.510   1.448   3.183  0.0660 -1.9055  2.4580
   55CHL1   C15 5194   4.579   1.613   3.286 -0.2804  0.1236 -0.4767
   55CHL1  H15A 5195   4.660   1.688   3.293 -0.1415 -0.1587  1.4620
   55CHL1  H15B 5196   4.488   1.675   3.269 -0.1672 -0.1153 -2.0852
   55CHL1   C16 5197   4.587   1.539   3.415 -0.1693 -0.1131 -0.0896
   55CHL1  H16A 5198   4.630   1.597   3.499  2.2334 -0.4690 -0.9832
   55CHL1  H16B 5199   4.490   1.511   3.460  1.7947 -0.9421  4.1700
   55CHL1   C17 5200   4.651   1.399   3.392 -0.5844 -0.7723  1.0969
   55CHL1   H17 5201   4.565   1.329   3.383  0.2974 -1.7965  0.2671
   55CHL1   C13 5202   4.718   1.418   3.258 -0.2683  0.2168  0.0534
   55CHL1   C18 5203   4.850   1.493   3.272  0.0776 -0.2992 -0.3872
   55CHL1  H18A 5204   4.889   1.522   3.173 -1.3471  2.6837 -0.2002
   55CHL1  H18B 5205   4.844   1.582   3.339 -1.7693 -0.5217 -0.2026
   55CHL1  H18C 5206   4.923   1.424   3.319 -0.0430 -0.3739 -0.3089
   55CHL1   C12 5207   4.740   1.286   3.169 -0.3790 -0.3081 -0.7966
   55CHL1  H12A 5208   4.828   1.226   3.202  0.2341  0.9076 -0.1466
   55CHL1  H12B 5209   4.649   1.223   3.172 -0.7160  0.1962 -0.2749
   55CHL1   C11 5210   4.778   1.323   3.029 -0.3891 -0.2041  0.2905
   55CHL1  H11A 5211   4.878   1.370   3.021 -1.0139  0.8461 -3.1175
   55CHL1  H11B 5212   4.773   1.232   2.965 -1.0892 -0.4728  0.7079
   55CHL1    C9 5213   4.679   1.425   2.958  0.2895  0.3451 -0.5379
   55CHL1    H9 5214   4.582   1.372   2.951  0.4450  0.2212 -1.9364
   55CHL1   C10 5215   4.711   1.454   2.809  0.4273 -0.0823 -0.2010
   55CHL1   C19 5216   4.852   1.505   2.795 -0.4720 -0.2092  0.0732
   55CHL1  H19A 5217   4.884   1.523   2.690 -2.1115  0.6059 -0.3248
   55CHL1  H19B 5218   4.864   1.601   2.849 -0.3765  1.2941 -2.4422
   55CHL1  H19C 5219   4.921   1.444   2.857 -1.9725  1.3775  3.5755
   55CHL1    C1 5220   4.692   1.323   2.729  0.0111 -0.2902  0.6343
   55CHL1   H1A 5221   4.776   1.256   2.758  0.4910  0.2198  0.4391
   55CHL1   H1B 5222   4.597   1.278   2.766  0.4015 -0.7368  1.1066
   55CHL1    C2 5223   4.675   1.333   2.578 -0.5162  0.0896  0.6790
   55CHL1   H2A 5224   4.667   1.230   2.537  1.5861  0.0940  0.1231
   55CHL1   H2B 5225   4.771   1.383   2.555 -0.7630  0.0365 -0.5310
   55CHL1   C20 5226   4.725   1.337   3.514  0.0730 -0.1408 -0.5602
   55CHL1   H20 5227   4.805   1.407   3.546 -0.0964 -0.8522  1.6233
   55CHL1   C21 5228   4.805   1.206   3.482 -0.5265 -0.7027  0.4539
   55CHL1  H21A 5229   4.851   1.163   3.573 -1.0114 -1.9773  0.1186
   55CHL1  H21B 5230   4.887   1.232   3.412 -1.2968 -2.0231 -1.0177
   55CHL1  H21C 5231   4.732   1.146   3.422  0.2426  1.6886 -3.2460
   55CHL1   C22 5232   4.621   1.308   3.629  0.3544  0.7221 -0.3327
   55CHL1  H22A 5233   4.566   1.399   3.660 -1.8429 -0.7953  0.4104
   55CHL1  H22B 5234   4.540   1.239   3.598 -0.2713  1.9524 -1.5516
   55CHL1   C23 5235   4.680   1.275   3.766 -0.6548  0.6542  0.5796
   55CHL1  H23A 5236   4.606   1.234   3.838  1.0169  0.5748  2.3291
   55CHL1  H23B 5237   4.741   1.185   3.740 -0.5012  1.2099 -1.0948
   55CHL1   C24 5238   4.754   1.393   3.830  0.0852  0.0540  0.3405
   55CHL1  H24A 5239   4.828   1.438   3.761  0.1595 -0.4387  0.0965
   55CHL1  H24B 5240   4.679   1.466   3.867 -0.4683  0.3684 -1.3445
   55CHL1   C25 5241   4.826   1.345   3.964  0.5384  0.0839  0.6471
   55CHL1   H25 5242   4.764   1.265   4.010  1.3356 -0.8930  0.0749
   55CHL1   C26 5243   4.964   1.275   3.933  0.4590  0.3833  0.2000
   55CHL1  H26A 5244   5.038   1.338   3.879 -1.0747 -1.5084 -4.7403
   55CHL1  H26B 5245   5.004   1.225   4.023  1.1137 -1.3643 -1.0121
   55CHL1  H26C 5246   4.943   1.189   3.866 -2.1271  1.4447 -0.5051
   55CHL1   C27 5247   4.852   1.456   4.069  0.3752  0.0486  1.1589
   55CHL1  H27A 5248   4.888   1.410   4.163  1.6470 -2.5485 -0.4895
   55CHL1  H27B 5249   4.927   1.527   4.026  0.0529 -0.5422 -0.4565
   55CHL1  H27C 5250   4.762   1.512   4.103  1.0803  1.6136  0.5943
   56CHL1    C3 5251   6.647   4.408   2.917  0.2553 -0.0095  0.9820
   56CHL1    H3 5252   6.590   4.315   2.937  0.0627  0.4334  2.6523
   56CHL1    O3 5253   6.621   4.465   2.790 -0.2632  0.4318  0.1098
   56CHL1   H3' 5254   6.681   4.538   2.771  1.5587 -1.0114  0.1168
   56CHL1    C4 5255   6.607   4.501   3.031  0.7488 -0.5959 -0.2503
   56CHL1   H4A 5256   6.655   4.600   3.015  2.2304 -1.6843 -3.1859
   56CHL1   H4B 5257   6.503   4.539   3.018  0.6760 -1.4370 -2.3238
   56CHL1    C5 5258   6.642   4.450   3.169  0.1760 -0.3364 -0.5253
   56CHL1    C6 5259   6.555   4.440   3.271 -0.1515 -0.1075  0.1705
   56CHL1    H6 5260   6.452   4.468   3.244 -0.9673 -1.4453  1.7454
   56CHL1    C7 5261   6.585   4.406   3.415 -0.4277  0.0441 -1.0386
   56CHL1   H7A 5262   6.533   4.467   3.491  0.2343  2.0099 -2.1138
   56CHL1   H7B 5263   6.549   4.302   3.432 -1.2864 -0.0174 -2.9011
   56CHL1    C8 5264   6.742   4.411   3.434 -0.0084 -0.4832 -0.3328
   56CHL1    H8 5265   6.777   4.516   3.441 -2.6607  0.4115  1.0682
   56CHL1   C14 5266   6.772   4.336   3.565  0.1463  0.4151  0.0358
   56CHL1   H14 5267   6.738   4.230   3.557 -2.1545  1.1763 -0.9373
   56CHL1   C15 5268   6.692   4.382   3.687  0.0676  0.0653  0.2970
   56CHL1  H15A 5269   6.701   4.491   3.708 -2.5421  0.7567 -1.6406
   56CHL1  H15B 5270   6.584   4.361   3.674  0.1557 -0.0739 -0.2555
   56CHL1   C16 5271   6.757   4.310   3.803  0.0413 -0.2434 -0.7702
   56CHL1  H16A 5272   6.762   4.388   3.882 -0.2211 -0.2176 -0.7777
   56CHL1  H16B 5273   6.692   4.228   3.842 -1.4623  1.4667  0.4891
   56CHL1   C17 5274   6.894   4.258   3.746  0.5398 -1.2905 -0.1689
   56CHL1   H17 5275   6.884   4.152   3.715  2.2112 -1.3574 -0.6011
   56CHL1   C13 5276   6.920   4.335   3.606  0.3929 -0.2495 -0.0839
   56CHL1   C18 5277   6.970   4.477   3.642  0.2194  0.1960  0.7307
   56CHL1  H18A 5278   7.078   4.480   3.666  0.2870  1.6478  0.3014
   56CHL1  H18B 5279   6.943   4.549   3.563 -1.1172 -0.2544  0.7391
   56CHL1  H18C 5280   6.918   4.514   3.733 -1.6191 -2.6410  0.9551
   56CHL1   C12 5281   7.003   4.272   3.495 -0.2057  0.1615 -0.5720
   56CHL1  H12A 5282   7.111   4.286   3.514 -0.2748 -0.5644  0.3900
   56CHL1  H12B 5283   6.981   4.164   3.482 -0.1023  0.2478 -1.5863
   56CHL1   C11 5284   6.977   4.346   3.361 -0.0894  0.1360  0.0660
   56CHL1  H11A 5285   6.997   4.454   3.377  0.5837 -0.1869  1.5717
   56CHL1  H11B 5286   7.042   4.303   3.282  0.1944 -2.7440  1.7053
   56CHL1    C9 5287   6.822   4.347   3.317 -0.2947  0.6241  0.0547
   56CHL1    H9 5288   6.793   4.240   3.311 -0.8813  0.6151  2.3371
   56CHL1   C10 5289   6.794   4.418   3.181 -0.4500 -0.8162 -0.0419
   56CHL1   C19 5290   6.879   4.545   3.174 -0.0575  0.2388  0.3494
   56CHL1  H19A 5291   6.876   4.605   3.267  5.0308 -0.6397  1.3574
   56CHL1  H19B 5292   6.986   4.520   3.157 -0.1136  0.4786 -0.3976
   56CHL1  H19C 5293   6.841   4.597   3.083 -0.0368 -2.7592 -1.4752
   56CHL1    C1 5294   6.842   4.312   3.065  0.5532  0.1074  0.2905
   56CHL1   H1A 5295   6.953   4.308   3.064  0.6116  1.3405  0.1181
   56CHL1   H1B 5296   6.800   4.210   3.079  3.2001 -1.3528 -1.5026
   56CHL1    C2 5297   6.795   4.352   2.929 -0.2529 -0.7179  0.6328
   56CHL1   H2A 5298   6.804   4.295   2.834 -0.3995  3.8496 -2.4397
   56CHL1   H2B 5299   6.857   4.441   2.904 -1.6517 -0.5486 -2.8505
   56CHL1   C20 5300   7.009   4.262   3.848 -0.0860 -0.0661 -0.2254
   56CHL1   H20 5301   7.036   4.369   3.859  0.1337  0.0130 -1.4217
   56CHL1   C21 5302   7.144   4.198   3.790  0.2678 -0.0132 -0.0725
   56CHL1  H21A 5303   7.224   4.221   3.862  0.9133  0.6989 -0.9993
   56CHL1  H21B 5304   7.163   4.246   3.692 -4.9443  1.4413 -0.6632
   56CHL1  H21C 5305   7.129   4.088   3.784 -0.3280 -0.0398  1.4253
   56CHL1   C22 5306   6.981   4.203   3.987  0.6439  0.2256  0.0447
   56CHL1  H22A 5307   6.879   4.237   4.015  0.7548  1.1910 -0.6741
   56CHL1  H22B 5308   6.970   4.093   3.976 -1.7796  0.5049 -1.0561
   56CHL1   C23 5309   7.087   4.246   4.094  0.2528 -0.1857  0.2331
   56CHL1  H23A 5310   7.187   4.200   4.075 -0.2697 -1.6348  0.9054
   56CHL1  H23B 5311   7.104   4.355   4.081 -0.8895  0.1854  1.6149
   56CHL1   C24 5312   7.056   4.207   4.241 -0.2405 -0.4992 -0.2459
   56CHL1  H24A 5313   6.945   4.199   4.235 -0.1594 -0.9819 -1.4291
   56CHL1  H24B 5314   7.104   4.108   4.259 -1.0552 -1.0107 -0.8070
   56CHL1   C25 5315   7.122   4.302   4.341  0.4582  0.1575 -0.6056
   56CHL1   H25 5316   7.109   4.406   4.306 -2.6774 -1.0654 -3.7121
   56CHL1   C26 5317   7.053   4.299   4.484  0.2826 -0.0234  0.5117
   56CHL1  H26A 5318   7.082   4.373   4.562 -2.2912  0.2357  1.3095
   56CHL1  H26B 5319   6.945   4.316   4.467  0.2469  1.2534  1.7953
   56CHL1  H26C 5320   7.076   4.197   4.523  0.7647  0.2419  0.9320
   56CHL1   C27 5321   7.273   4.265   4.352  0.1049 -0.0073 -0.2359
   56CHL1  H27A 5322   7.325   4.354   4.395 -0.6291 -0.2482  1.2112
   56CHL1  H27B 5323   7.296   4.175   4.412  1.9979 -0.4561 -1.5106
   56CHL1  H27C 5324   7.316   4.245   4.251 -1.8124  0.3029 -1.1524
   57CHL1    C3 5325   5.899   1.966   2.759 -0.2718 -0.7525  0.0565
   57CHL1    H3 5326   5.860   1.862   2.765 -1.0156 -0.5175 -0.5132
   57CHL1    O3 5327   5.919   1.987   2.622 -0.0769 -0.0208 -0.3811
   57CHL1   H3' 5328   5.964   2.069   2.601  3.7996 -1.6980  0.3785
   57CHL1    C4 5329   5.805   2.079   2.811 -0.5579 -0.7688 -0.8947
   57CHL1   H4A 5330   5.850   2.180   2.802  1.4560 -1.3023  1.7615
   57CHL1   H4B 5331   5.705   2.067   2.763 -1.8714  3.3183  0.4401
   57CHL1    C5 5332   5.790   2.054   2.963  0.0038 -0.4017 -0.3565
   57CHL1    C6 5333   5.668   2.030   3.014  0.2254 -0.5352 -0.9663
   57CHL1    H6 5334   5.576   2.026   2.954 -0.4808  0.4797  0.0091
   57CHL1    C7 5335   5.654   2.027   3.165 -0.2254  0.3845 -0.3282
   57CHL1   H7A 5336   5.570   2.095   3.191 -1.6831 -1.3560 -0.3271
   57CHL1   H7B 5337   5.624   1.925   3.197 -1.1892  0.3090 -1.4289
   57CHL1    C8 5338   5.776   2.074   3.252  0.0152 -0.5742  0.1359
   57CHL1    H8 5339   5.790   2.184   3.257  2.1984 -0.8592  0.8574
   57CHL1   C14 5340   5.759   2.015   3.391 -0.2853 -0.1628 -0.3343
   57CHL1   H14 5341   5.759   1.904   3.394  0.4420 -0.1537  0.2488
   57CHL1   C15 5342   5.630   2.058   3.465  0.4839 -0.7141 -0.4896
   57CHL1  H15A 5343   5.607   2.167   3.458  1.4955 -0.4079  0.7200
   57CHL1  H15B 5344   5.550   2.007   3.408  0.9074  0.1518 -1.9229
   57CHL1   C16 5345   5.640   2.005   3.603  0.0221 -0.3638  0.0757
   57CHL1  H16A 5346   5.615   2.089   3.672  1.7193  0.5009 -0.3009
   57CHL1  H16B 5347   5.590   1.908   3.620  1.4060 -1.4990 -1.9291
   57CHL1   C17 5348   5.799   1.973   3.618  0.3821  0.2737 -0.1074
   57CHL1   H17 5349   5.819   1.864   3.610  2.5352  0.5467  0.7217
   57CHL1   C13 5350   5.876   2.039   3.488  1.0010  0.0562  0.1420
   57CHL1   C18 5351   5.896   2.194   3.507  0.7336 -0.4039  0.7465
   57CHL1  H18A 5352   5.977   2.188   3.583  0.7595 -0.3652  0.7220
   57CHL1  H18B 5353   5.933   2.242   3.414 -1.6155  0.9534  0.4341
   57CHL1  H18C 5354   5.808   2.257   3.533  0.3357 -1.7259  2.7576
   57CHL1   C12 5355   5.995   1.968   3.429 -0.0495 -0.6414  0.6972
   57CHL1  H12A 5356   6.085   1.984   3.492 -0.4205 -0.8007  1.2839
   57CHL1  H12B 5357   5.974   1.861   3.410  1.2957 -0.7096 -0.5176
   57CHL1   C11 5358   6.020   2.013   3.285 -0.2212  0.9454  0.1659
   57CHL1  H11A 5359   6.083   2.104   3.280 -0.5908  1.2072  0.2133
   57CHL1  H11B 5360   6.091   1.941   3.238 -0.4100 -0.5637  2.0497
   57CHL1    C9 5361   5.897   2.012   3.189 -0.3726 -0.3600 -0.3605
   57CHL1    H9 5362   5.868   1.905   3.180  1.2861 -0.9388  0.8090
   57CHL1   C10 5363   5.916   2.073   3.046 -0.1960  0.3931  0.3662
   57CHL1   C19 5364   5.973   2.214   3.053  0.3200 -0.6334 -0.0609
   57CHL1  H19A 5365   6.073   2.219   3.101  0.0481 -2.0722  0.7165
   57CHL1  H19B 5366   5.971   2.271   2.958  1.5464 -3.4822 -1.9408
   57CHL1  H19C 5367   5.904   2.274   3.116  0.6273 -0.6884  0.3346
   57CHL1    C1 5368   6.020   1.976   2.978 -0.3889 -0.1077 -0.1060
   57CHL1   H1A 5369   6.113   2.012   3.026 -1.5054  0.0408  2.1263
   57CHL1   H1B 5370   5.982   1.876   3.009 -0.5397  0.5726  2.0696
   57CHL1    C2 5371   6.036   1.978   2.826  0.0718 -0.3563  0.0539
   57CHL1   H2A 5372   6.107   1.901   2.792  1.9608  0.8758  1.0490
   57CHL1   H2B 5373   6.085   2.074   2.799 -1.6607  0.4465 -0.4213
   57CHL1   C20 5374   5.845   2.008   3.758 -0.0389 -0.4967  0.0373
   57CHL1   H20 5375   5.825   2.115   3.780  1.1890 -0.3615  0.5659
   57CHL1   C21 5376   5.998   1.968   3.784  0.4375  0.2118  0.9678
   57CHL1  H21A 5377   6.004   1.860   3.763 -2.3678  0.1762 -0.1618
   57CHL1  H21B 5378   6.037   1.992   3.886  2.5153 -1.4375  0.6173
   57CHL1  H21C 5379   6.064   2.010   3.706 -0.0686  0.2203  0.5338
   57CHL1   C22 5380   5.764   1.931   3.873 -0.0279  0.8471 -0.2787
   57CHL1  H22A 5381   5.665   1.919   3.825  0.0106 -1.7792  0.1695
   57CHL1  H22B 5382   5.814   1.832   3.871 -0.8310  0.4253 -0.0482
   57CHL1   C23 5383   5.756   1.989   4.007  0.2355  0.1959 -0.8505
   57CHL1  H23A 5384   5.846   2.039   4.049 -1.5691  0.7942  2.6403
   57CHL1  H23B 5385   5.684   2.071   3.988  1.0128  0.6242 -2.0908
   57CHL1   C24 5386   5.706   1.887   4.111  0.6706 -0.1185 -0.5908
   57CHL1  H24A 5387   5.633   1.819   4.063 -0.3488 -0.3472  1.2111
   57CHL1  H24B 5388   5.795   1.831   4.146  0.1655  0.7076  2.3004
   57CHL1   C25 5389   5.630   1.961   4.233 -0.2837 -0.1716  0.3899
   57CHL1   H25 5390   5.564   2.027   4.173  1.2528  1.1934  0.1147
   57CHL1   C26 5391   5.554   1.853   4.304 -0.0051  0.2142  0.0471
   57CHL1  H26A 5392   5.488   1.896   4.383  0.8482 -0.1121  0.9574
   57CHL1  H26B 5393   5.492   1.786   4.241 -1.7544 -0.1111  1.9935
   57CHL1  H26C 5394   5.625   1.791   4.364 -1.7950  0.0940  2.1641
   57CHL1   C27 5395   5.725   2.034   4.331  1.4283 -0.3918 -0.2577
   57CHL1  H27A 5396   5.814   1.973   4.357 -0.5658 -3.0103  0.9411
   57CHL1  H27B 5397   5.773   2.123   4.284 -1.7519  1.3388 -0.5338
   57CHL1  H27C 5398   5.666   2.071   4.418  0.1864 -0.9503 -0.8278
   58CHL1    C3 5399   4.276   0.423   2.721 -0.2136 -0.1744  0.6401
   58CHL1    H3 5400   4.297   0.317   2.746 -0.3252 -1.5783 -4.1899
   58CHL1    O3 5401   4.306   0.442   2.578 -0.6133  0.6402  0.2338
   58CHL1   H3' 5402   4.281   0.532   2.553 -0.6093  0.3114 -1.0242
   58CHL1    C4 5403   4.134   0.466   2.754 -0.5545 -0.0764 -0.2554
   58CHL1   H4A 5404   4.125   0.571   2.717  0.3264 -0.3457 -1.2916
   58CHL1   H4B 5405   4.066   0.408   2.689 -1.0972 -0.0446  0.2751
   58CHL1    C5 5406   4.103   0.456   2.900 -0.5670 -0.8180 -0.0018
   58CHL1    C6 5407   3.998   0.380   2.940  0.3480  0.2174  0.0599
   58CHL1    H6 5408   3.936   0.326   2.867  0.4877 -1.1101  0.8867
   58CHL1    C7 5409   3.957   0.362   3.092  0.0446 -0.0220 -0.6554
   58CHL1   H7A 5410   3.849   0.354   3.114  0.5418 -0.7005  1.7967
   58CHL1   H7B 5411   3.999   0.271   3.140  1.6430  0.2659 -1.4390
   58CHL1    C8 5412   4.033   0.468   3.180 -0.3114 -0.5411 -0.7526
   58CHL1    H8 5413   3.983   0.568   3.178  1.4670  0.3713 -1.5184
   58CHL1   C14 5414   4.031   0.430   3.336 -0.3122 -0.6969  0.7000
   58CHL1   H14 5415   4.091   0.338   3.352 -0.1977 -0.1599  3.9457
   58CHL1   C15 5416   3.897   0.393   3.400  0.4211 -0.9529 -0.5790
   58CHL1  H15A 5417   3.819   0.463   3.364  1.1303 -0.0488 -0.3968
   58CHL1  H15B 5418   3.859   0.291   3.379 -2.0668 -0.4469  0.9269
   58CHL1   C16 5419   3.914   0.399   3.547  0.1641  0.6789 -0.8197
   58CHL1  H16A 5420   3.844   0.473   3.591  0.2188 -0.7295  1.8658
   58CHL1  H16B 5421   3.892   0.303   3.599  1.4111 -0.0464 -1.5588
   58CHL1   C17 5422   4.058   0.457   3.573 -0.2126  0.1554  0.1772
   58CHL1   H17 5423   4.135   0.377   3.578  0.9445  1.1198 -1.4193
   58CHL1   C13 5424   4.092   0.527   3.431  0.0359 -0.1026  0.5170
   58CHL1   C18 5425   4.026   0.664   3.434 -0.2534 -0.7658 -0.3836
   58CHL1  H18A 5426   3.915   0.662   3.440 -0.2745 -2.5139 -0.8376
   58CHL1  H18B 5427   4.060   0.725   3.521  0.8914  0.5388 -1.7105
   58CHL1  H18C 5428   4.054   0.723   3.345 -0.0884  0.0848  0.2182
   58CHL1   C12 5429   4.242   0.530   3.388  0.1740 -0.4616  0.6031
   58CHL1  H12A 5430   4.306   0.598   3.448  0.4244  0.9786 -1.2084
   58CHL1  H12B 5431   4.292   0.430   3.392  4.1030  1.2631 -0.7171
   58CHL1   C11 5432   4.262   0.577   3.245  0.1662 -0.7441  0.2212
   58CHL1  H11A 5433   4.223   0.680   3.231 -1.4302 -1.0383  2.0982
   58CHL1  H11B 5434   4.369   0.583   3.216 -0.4802  0.5272 -2.1679
   58CHL1    C9 5435   4.181   0.489   3.139  0.1875 -0.7596 -1.1545
   58CHL1    H9 5436   4.225   0.389   3.161  1.1057 -0.1728 -0.2294
   58CHL1   C10 5437   4.205   0.530   2.996 -0.4246  0.4826  0.4482
   58CHL1   C19 5438   4.181   0.683   2.984 -0.2628  0.4192  0.1858
   58CHL1  H19A 5439   4.191   0.706   2.876  3.2832  3.1470  0.8901
   58CHL1  H19B 5440   4.086   0.713   3.033 -0.2157  2.4701 -0.8627
   58CHL1  H19C 5441   4.264   0.746   3.023 -0.5125  2.1613 -1.9130
   58CHL1    C1 5442   4.353   0.503   2.954  0.1471 -0.0928  0.1584
   58CHL1   H1A 5443   4.421   0.574   3.007  0.1066  0.2456 -0.2335
   58CHL1   H1B 5444   4.371   0.402   2.996 -2.0513 -1.1290 -1.2365
   58CHL1    C2 5445   4.377   0.511   2.802 -0.1254  0.3064 -0.3959
   58CHL1   H2A 5446   4.475   0.466   2.778  0.9792  2.2356  0.3435
   58CHL1   H2B 5447   4.363   0.611   2.756 -0.0734  0.0578 -0.9587
   58CHL1   C20 5448   4.071   0.538   3.704 -0.2574  0.8332 -0.5724
   58CHL1   H20 5449   3.989   0.612   3.700 -0.9280  0.0735 -1.4214
   58CHL1   C21 5450   4.211   0.599   3.726 -0.8285 -0.3383 -0.4881
   58CHL1  H21A 5451   4.293   0.526   3.709 -0.7707  0.0567 -2.1280
   58CHL1  H21B 5452   4.214   0.627   3.833  0.5031 -1.6663 -0.1454
   58CHL1  H21C 5453   4.226   0.682   3.655  1.0079 -0.1812  0.0493
   58CHL1   C22 5454   4.031   0.449   3.827  0.7198 -0.5149 -0.6568
   58CHL1  H22A 5455   3.926   0.421   3.802  0.1373  1.6841 -0.9101
   58CHL1  H22B 5456   4.093   0.358   3.836  1.6364  0.1204 -0.4039
   58CHL1   C23 5457   4.016   0.524   3.960  0.5043 -0.0617  0.5046
   58CHL1  H23A 5458   4.118   0.541   4.001  0.7899 -1.7289  0.5426
   58CHL1  H23B 5459   3.950   0.613   3.956  0.8359  0.1865 -3.0254
   58CHL1   C24 5460   3.941   0.424   4.044 -0.2570  0.6959 -0.1009
   58CHL1  H24A 5461   3.833   0.428   4.020 -0.3199 -0.7912 -0.1429
   58CHL1  H24B 5462   3.986   0.325   4.020 -0.5813  0.2114  1.1834
   58CHL1   C25 5463   3.957   0.450   4.200 -0.3746  0.1961  0.3570
   58CHL1   H25 5464   4.065   0.467   4.217 -0.6165  0.6937  1.4757
   58CHL1   C26 5465   3.875   0.574   4.244  0.3432  0.7350 -0.3929
   58CHL1  H26A 5466   3.916   0.662   4.190 -1.7849  0.9347 -1.7906
   58CHL1  H26B 5467   3.771   0.554   4.209 -0.5626 -2.5826  3.4453
   58CHL1  H26C 5468   3.869   0.591   4.354  1.3986  0.9806 -0.3629
   58CHL1   C27 5469   3.921   0.325   4.282  0.0529 -0.2281  0.0025
   58CHL1  H27A 5470   3.814   0.300   4.262 -0.0171  0.5995 -0.6816
   58CHL1  H27B 5471   3.988   0.237   4.274  2.0037  0.7703  3.3645
   58CHL1  H27C 5472   3.924   0.356   4.389  0.1446 -2.9678  0.8565
   59CHL1    C3 5473   3.101   1.473   2.961  0.3661 -0.2885  0.0960
   59CHL1    H3 5474   3.048   1.399   3.024 -0.0495  0.2535  0.3955
   59CHL1    O3 5475   3.075   1.437   2.828 -0.3363  0.0500 -0.4969
   59CHL1   H3' 5476   3.073   1.520   2.779 -1.2602  0.0894 -0.4010
   59CHL1    C4 5477   3.046   1.610   2.999 -0.7956 -0.1222  0.3545
   59CHL1   H4A 5478   3.079   1.685   2.924 -1.5682 -0.2582 -0.1233
   59CHL1   H4B 5479   2.936   1.601   2.987 -0.7057  0.2191 -0.8174
   59CHL1    C5 5480   3.090   1.662   3.134 -0.5140 -0.1921 -0.4050
   59CHL1    C6 5481   3.004   1.728   3.219 -0.5945  0.3607 -0.2064
   59CHL1    H6 5482   2.902   1.749   3.182 -0.4759 -1.1974 -1.5356
   59CHL1    C7 5483   3.037   1.782   3.355  0.3418 -0.6061  0.2255
   59CHL1   H7A 5484   2.997   1.885   3.350 -2.7899 -1.7557 -0.5076
   59CHL1   H7B 5485   2.984   1.729   3.438  0.9851 -1.5402  0.0589
   59CHL1    C8 5486   3.183   1.760   3.385  0.0922  0.1758 -0.2156
   59CHL1    H8 5487   3.233   1.848   3.340  1.0237 -0.4670 -0.4734
   59CHL1   C14 5488   3.198   1.757   3.539  1.4910 -0.3344  0.1589
   59CHL1   H14 5489   3.146   1.666   3.574 -1.6450  1.1538 -0.3538
   59CHL1   C15 5490   3.133   1.873   3.617 -0.3745  0.0178 -0.1836
   59CHL1  H15A 5491   3.156   1.963   3.555 -0.8525  0.7726  0.7114
   59CHL1  H15B 5492   3.023   1.884   3.621 -0.2535  1.5527 -0.4635
   59CHL1   C16 5493   3.212   1.870   3.749 -0.1120  0.6756  0.0039
   59CHL1  H16A 5494   3.256   1.970   3.771  0.4107  0.7654 -1.3580
   59CHL1  H16B 5495   3.148   1.837   3.833 -0.8763  1.2873 -0.3257
   59CHL1   C17 5496   3.315   1.765   3.737  0.1572  0.2980 -0.0988
   59CHL1   H17 5497   3.277   1.667   3.772 -0.9911  0.4755 -0.7759
   59CHL1   C13 5498   3.337   1.736   3.587  0.2451 -0.3918  0.3281
   59CHL1   C18 5499   3.426   1.851   3.536  0.1756 -0.7243  0.3209
   59CHL1  H18A 5500   3.374   1.947   3.560 -1.3172 -0.9946 -1.6141
   59CHL1  H18B 5501   3.528   1.862   3.579  0.1883  0.2311  0.0823
   59CHL1  H18C 5502   3.429   1.851   3.425  0.0506 -0.8201  0.3171
   59CHL1   C12 5503   3.390   1.603   3.536 -0.7126  0.4011 -0.2368
   59CHL1  H12A 5504   3.494   1.592   3.574 -0.7993 -1.4764 -0.4582
   59CHL1  H12B 5505   3.335   1.524   3.591  0.2292 -0.5931 -0.6855
   59CHL1   C11 5506   3.381   1.594   3.384  0.2514  0.9744  0.1948
   59CHL1  H11A 5507   3.457   1.666   3.348 -0.9446  1.7816 -0.7604
   59CHL1  H11B 5508   3.410   1.489   3.362  1.1777  1.0488  0.9857
   59CHL1    C9 5509   3.236   1.627   3.334  0.3222 -0.1661 -0.4217
   59CHL1    H9 5510   3.176   1.544   3.377 -0.1578 -0.4140 -1.5422
   59CHL1   C10 5511   3.233   1.619   3.182  0.6348  0.2236 -0.1951
   59CHL1   C19 5512   3.350   1.708   3.128  0.2379 -0.1100  0.3730
   59CHL1  H19A 5513   3.347   1.812   3.168  0.7933 -0.2295  0.7455
   59CHL1  H19B 5514   3.446   1.657   3.149  1.1552  1.0209 -0.8862
   59CHL1  H19C 5515   3.346   1.714   3.017  1.4968  2.4282  0.3986
   59CHL1    C1 5516   3.275   1.478   3.137  0.2174  0.0354 -0.0755
   59CHL1   H1A 5517   3.380   1.453   3.165  0.3434  2.6903  2.2607
   59CHL1   H1B 5518   3.212   1.411   3.199  0.9835  0.3164  1.0320
   59CHL1    C2 5519   3.248   1.453   2.984 -0.9947 -1.1837 -1.0838
   59CHL1   H2A 5520   3.285   1.353   2.955 -0.1837 -1.8773  1.9845
   59CHL1   H2B 5521   3.307   1.517   2.916 -1.3853 -2.2292 -2.4410
   59CHL1   C20 5522   3.435   1.803   3.822  0.1922  0.5086  0.0165
   59CHL1   H20 5523   3.477   1.898   3.784 -0.4758  1.0637  0.6371
   59CHL1   C21 5524   3.532   1.689   3.808 -0.3794  0.2779  0.8749
   59CHL1  H21A 5525   3.466   1.600   3.799 -3.6536  2.7096 -1.4360
   59CHL1  H21B 5526   3.596   1.682   3.899 -1.2376 -1.9482  1.3868
   59CHL1  H21C 5527   3.596   1.694   3.718 -0.3909  0.5804  0.8827
   59CHL1   C22 5528   3.403   1.833   3.971 -0.2205 -0.6735 -0.6422
   59CHL1  H22A 5529   3.500   1.866   4.015 -0.5786  1.2780 -1.2178
   59CHL1  H22B 5530   3.324   1.911   3.972 -1.1848 -1.6422 -0.6755
   59CHL1   C23 5531   3.336   1.723   4.051 -0.4063 -0.3479  0.3592
   59CHL1  H23A 5532   3.242   1.702   3.995  1.0874 -1.0725 -2.0217
   59CHL1  H23B 5533   3.398   1.631   4.058 -1.3703 -1.1144 -0.7477
   59CHL1   C24 5534   3.302   1.779   4.187  0.2369 -0.5848  0.4183
   59CHL1  H24A 5535   3.394   1.833   4.220 -1.4730  3.6000 -1.0033
   59CHL1  H24B 5536   3.231   1.864   4.176  2.6559  1.4600 -0.4671
   59CHL1   C25 5537   3.274   1.672   4.304  0.4955 -0.1077  0.2305
   59CHL1   H25 5538   3.336   1.581   4.312  0.2005 -0.2428  1.1704
   59CHL1   C26 5539   3.285   1.733   4.445 -0.5466  0.1657 -0.4008
   59CHL1  H26A 5540   3.213   1.818   4.457 -0.6417  0.2899 -1.7275
   59CHL1  H26B 5541   3.279   1.660   4.528 -1.1633  1.8365  1.1065
   59CHL1  H26C 5542   3.389   1.771   4.457  0.9691 -3.5637 -0.4593
   59CHL1   C27 5543   3.129   1.627   4.290  0.4272  0.0562  0.6422
   59CHL1  H27A 5544   3.122   1.528   4.340 -1.9746 -0.7186 -1.0609
   59CHL1  H27B 5545   3.058   1.705   4.327 -0.4509 -0.5829  0.3442
   59CHL1  H27C 5546   3.098   1.619   4.184  0.1603 -2.4999  0.8501
   60CHL1    C3 5547   6.845   0.572   2.794 -0.6974 -0.6509  0.5846
   60CHL1    H3 5548   6.937   0.632   2.814 -1.3104 -0.5617  3.4701
   60CHL1    O3 5549   6.827   0.569   2.658 -0.1050  0.1358 -0.1915
   60CHL1   H3' 5550   6.897   0.517   2.618  0.6453  1.4315 -0.5999
   60CHL1    C4 5551   6.867   0.431   2.845  0.3322  0.1499 -0.1776
   60CHL1   H4A 5552   6.782   0.371   2.806  0.4924 -0.0144 -0.2819
   60CHL1   H4B 5553   6.952   0.371   2.805 -0.0585 -1.4487  1.2574
   60CHL1    C5 5554   6.870   0.422   2.998  0.7623 -0.5906 -0.1456
   60CHL1    C6 5555   6.981   0.388   3.066  0.2464  0.0735 -0.3740
   60CHL1    H6 5556   7.063   0.353   3.002 -0.9764  1.8768 -3.1354
   60CHL1    C7 5557   6.989   0.377   3.219 -0.4523  0.2400  0.0936
   60CHL1   H7A 5558   7.027   0.273   3.231 -1.3570 -0.5085 -2.6200
   60CHL1   H7B 5559   7.073   0.442   3.251  0.4536 -0.9915  0.2762
   60CHL1    C8 5560   6.857   0.409   3.293  0.0253 -0.0675  0.1138
   60CHL1    H8 5561   6.805   0.311   3.292  1.2996 -0.7639 -0.4018
   60CHL1   C14 5562   6.884   0.452   3.432  0.0043 -0.0799 -0.6592
   60CHL1   H14 5563   6.933   0.551   3.420  1.9019 -1.0243 -1.0356
   60CHL1   C15 5564   6.981   0.370   3.516 -0.1431  0.4529  0.4450
   60CHL1  H15A 5565   6.953   0.263   3.509  1.7326  0.0384 -2.0123
   60CHL1  H15B 5566   7.087   0.386   3.484  0.3937  0.0133  1.8933
   60CHL1   C16 5567   6.959   0.424   3.657 -0.0030 -0.1276  0.2269
   60CHL1  H16A 5568   6.933   0.333   3.715  0.3888 -1.5053 -1.6518
   60CHL1  H16B 5569   7.053   0.465   3.698  0.3075  0.5599 -1.1073
   60CHL1   C17 5570   6.838   0.515   3.648 -0.7600  0.1291 -0.1735
   60CHL1   H17 5571   6.874   0.619   3.636 -0.8253  0.0500 -1.1407
   60CHL1   C13 5572   6.760   0.489   3.514 -0.6972  0.7970 -0.1615
   60CHL1   C18 5573   6.668   0.370   3.537 -0.5375 -0.1429  0.8905
   60CHL1  H18A 5574   6.577   0.401   3.594 -0.7762  1.9155 -0.5104
   60CHL1  H18B 5575   6.641   0.327   3.438 -1.9127 -0.2958  1.3066
   60CHL1  H18C 5576   6.721   0.291   3.594 -0.6978 -2.6471 -2.1441
   60CHL1   C12 5577   6.682   0.602   3.449 -0.2841 -0.1619 -0.1714
   60CHL1  H12A 5578   6.595   0.628   3.513  2.2991  2.2831  2.6451
   60CHL1  H12B 5579   6.752   0.687   3.460  0.0238 -0.5446  0.9220
   60CHL1   C11 5580   6.654   0.567   3.306 -0.2557 -0.1673 -0.0111
   60CHL1  H11A 5581   6.584   0.481   3.312 -0.8638  0.2047 -1.4167
   60CHL1  H11B 5582   6.596   0.645   3.252  2.2023  0.9651 -1.1610
   60CHL1    C9 5583   6.781   0.524   3.223  0.2015 -0.0503 -0.2533
   60CHL1    H9 5584   6.847   0.613   3.216  0.4489 -0.3420 -2.1640
   60CHL1   C10 5585   6.756   0.493   3.075  0.1726 -0.0025  0.5477
   60CHL1   C19 5586   6.634   0.397   3.074  0.1995  0.4664 -0.2570
   60CHL1  H19A 5587   6.544   0.454   3.105 -0.2653 -0.8430  0.9205
   60CHL1  H19B 5588   6.615   0.357   2.973 -0.8758  1.2474 -0.3838
   60CHL1  H19C 5589   6.633   0.313   3.147 -3.0082 -0.2149 -0.9453
   60CHL1    C1 5590   6.724   0.629   3.007  0.3409 -0.1659  0.2759
   60CHL1   H1A 5591   6.643   0.678   3.064  0.1020  0.5590 -0.6616
   60CHL1   H1B 5592   6.804   0.703   3.028  1.3379 -0.6117 -1.6869
   60CHL1    C2 5593   6.717   0.634   2.852  0.3194  0.0908 -0.2097
   60CHL1   H2A 5594   6.689   0.734   2.811 -1.2243 -1.2104 -2.5868
   60CHL1   H2B 5595   6.624   0.576   2.833  0.1983  0.3590 -0.4357
   60CHL1   C20 5596   6.763   0.522   3.785  0.2247 -0.5000 -0.8451
   60CHL1   H20 5597   6.712   0.424   3.795  0.3279 -0.5250 -0.5630
   60CHL1   C21 5598   6.652   0.634   3.785 -0.5742 -0.0947  0.4985
   60CHL1  H21A 5599   6.593   0.647   3.878  0.1800  0.0794  0.9552
   60CHL1  H21B 5600   6.577   0.598   3.711 -0.0643 -1.7936  0.7734
   60CHL1  H21C 5601   6.694   0.736   3.772 -1.0627 -0.0720 -1.0912
   60CHL1   C22 5602   6.854   0.543   3.911 -0.4546 -0.2940 -0.5206
   60CHL1  H22A 5603   6.791   0.555   4.002 -0.6605 -1.0310 -0.5609
   60CHL1  H22B 5604   6.923   0.457   3.922  0.4974  0.0178 -3.2403
   60CHL1   C23 5605   6.930   0.673   3.908  0.4221 -0.6364  0.2243
   60CHL1  H23A 5606   6.972   0.689   3.807 -2.8108  1.2562 -0.9875
   60CHL1  H23B 5607   6.867   0.760   3.936  1.7206  1.4103 -2.7473
   60CHL1   C24 5608   7.054   0.669   4.001 -0.0709  0.4815 -0.7934
   60CHL1  H24A 5609   7.121   0.584   3.979  0.8718  1.5507 -2.2259
   60CHL1  H24B 5610   7.108   0.765   3.988  1.4586 -0.0553  1.1331
   60CHL1   C25 5611   7.012   0.678   4.154  0.1922  0.0602 -0.0203
   60CHL1   H25 5612   6.924   0.745   4.165  1.3363  1.4945  0.8080
   60CHL1   C26 5613   6.988   0.541   4.202 -0.6027 -0.1104  0.1339
   60CHL1  H26A 5614   6.903   0.485   4.160  1.2681 -0.4940 -3.5731
   60CHL1  H26B 5615   7.080   0.481   4.185 -0.8970 -0.4624 -0.2122
   60CHL1  H26C 5616   6.971   0.547   4.312 -2.7302  1.3663 -0.2053
   60CHL1   C27 5617   7.119   0.748   4.234 -1.1620  0.9239  0.0421
   60CHL1  H27A 5618   7.121   0.859   4.224  1.5744  1.1336  1.7764
   60CHL1  H27B 5619   7.110   0.735   4.344  0.4164  1.4501  0.2627
   60CHL1  H27C 5620   7.212   0.703   4.195 -1.6380  1.0608 -1.3140
   61CHL1    C3 5621   4.012   1.310   2.589  0.3094 -0.1297  0.7348
   61CHL1    H3 5622   4.009   1.418   2.614  0.7992  0.1774 -0.4924
   61CHL1    O3 5623   3.988   1.299   2.448  0.3791  0.0006 -0.0065
   61CHL1   H3' 5624   3.993   1.207   2.420 -2.0499 -0.2601  0.2005
   61CHL1    C4 5625   4.141   1.245   2.631 -0.4151  0.5245  0.6914
   61CHL1   H4A 5626   4.133   1.142   2.591  1.3724  0.8351 -0.6219
   61CHL1   H4B 5627   4.221   1.296   2.573 -0.5786 -1.5299 -1.4630
   61CHL1    C5 5628   4.152   1.243   2.784  0.5460 -0.1764  1.3483
   61CHL1    C6 5629   4.248   1.310   2.842  0.0126  0.2463 -0.2775
   61CHL1    H6 5630   4.328   1.365   2.790  1.6287  0.0955  1.9464
   61CHL1    C7 5631   4.271   1.310   2.987  0.3224 -0.8123 -0.5501
   61CHL1   H7A 5632   4.377   1.290   3.013  0.5230  1.2645  0.4872
   61CHL1   H7B 5633   4.238   1.412   3.018 -2.0970 -1.7003  0.0249
   61CHL1    C8 5634   4.187   1.214   3.063 -0.2578  0.5534  0.4488
   61CHL1    H8 5635   4.222   1.109   3.061 -2.8954 -0.4640  2.1674
   61CHL1   C14 5636   4.180   1.250   3.221  0.3191 -0.1823  0.5867
   61CHL1   H14 5637   4.133   1.351   3.227 -0.5970 -0.6575  1.8444
   61CHL1   C15 5638   4.313   1.259   3.291 -0.4034  0.2600 -0.0692
   61CHL1  H15A 5639   4.375   1.170   3.269 -1.5426 -0.6038  0.1246
   61CHL1  H15B 5640   4.356   1.359   3.268  0.0091  0.0123 -0.3886
   61CHL1   C16 5641   4.265   1.242   3.436  0.5387  0.3161  0.5872
   61CHL1  H16A 5642   4.318   1.160   3.488 -2.3803 -2.7340 -0.9095
   61CHL1  H16B 5643   4.274   1.335   3.496 -0.0053  1.6261 -1.2668
   61CHL1   C17 5644   4.117   1.195   3.437 -0.4030  0.3288  0.4179
   61CHL1   H17 5645   4.044   1.275   3.461 -2.2605 -1.0948 -0.3132
   61CHL1   C13 5646   4.087   1.153   3.299 -0.1546 -0.1657 -0.5899
   61CHL1   C18 5647   4.136   1.000   3.276  0.0087  0.3308  0.8707
   61CHL1  H18A 5648   4.128   0.968   3.170 -0.3200  1.8184  0.4137
   61CHL1  H18B 5649   4.236   0.980   3.320  0.6242 -0.8693 -0.9792
   61CHL1  H18C 5650   4.066   0.926   3.320  1.4606 -1.8184 -0.3045
   61CHL1   C12 5651   3.945   1.175   3.248 -0.1375  0.7059 -0.8008
   61CHL1  H12A 5652   3.869   1.126   3.311  1.3829 -2.1473 -1.0340
   61CHL1  H12B 5653   3.910   1.280   3.257 -1.4803  0.1777  0.4893
   61CHL1   C11 5654   3.931   1.142   3.098 -0.5845  0.0906 -0.6470
   61CHL1  H11A 5655   3.932   1.030   3.096 -0.4550 -0.0202  2.1565
   61CHL1  H11B 5656   3.829   1.174   3.068 -0.8537  1.5865  1.6687
   61CHL1    C9 5657   4.042   1.214   3.009 -0.2616 -0.4014  0.4545
   61CHL1    H9 5658   4.022   1.323   3.011  2.6945  0.2270  0.4907
   61CHL1   C10 5659   4.032   1.178   2.859  0.4724 -0.4279  0.1105
   61CHL1   C19 5660   4.033   1.028   2.832  0.1930 -0.2821 -0.5686
   61CHL1  H19A 5661   4.115   0.985   2.892 -0.1734 -1.7192 -1.0758
   61CHL1  H19B 5662   3.942   0.984   2.878 -0.4425  0.5044 -1.0345
   61CHL1  H19C 5663   4.042   0.998   2.725  0.3578 -2.9735  0.1382
   61CHL1    C1 5664   3.896   1.241   2.801  0.7147 -0.6896  0.1779
   61CHL1   H1A 5665   3.804   1.199   2.848 -2.5678  3.2151 -2.0255
   61CHL1   H1B 5666   3.881   1.346   2.835  3.4411  0.6452 -2.2890
   61CHL1    C2 5667   3.887   1.240   2.649  0.5076 -0.2935 -0.2662
   61CHL1   H2A 5668   3.807   1.307   2.611  0.5300 -0.7446 -1.1074
   61CHL1   H2B 5669   3.873   1.137   2.612  1.8279  0.1155 -2.0451
   61CHL1   C20 5670   4.100   1.089   3.559 -0.5737  0.1559  0.0899
   61CHL1   H20 5671   4.152   0.994   3.534 -1.7632 -0.0089 -1.8994
   61CHL1   C21 5672   3.948   1.055   3.579  0.1253  0.8567  0.0645
   61CHL1  H21A 5673   3.903   1.153   3.607  1.5507  1.2199  1.1330
   61CHL1  H21B 5674   3.929   0.993   3.669 -0.1172  2.8082  1.4143
   61CHL1  H21C 5675   3.903   1.005   3.490 -0.5727  1.8744 -0.1808
   61CHL1   C22 5676   4.158   1.134   3.696  0.5186  0.1238 -0.3402
   61CHL1  H22A 5677   4.269   1.142   3.696  0.4674  1.1402  1.0035
   61CHL1  H22B 5678   4.120   1.237   3.716 -1.9902 -0.6799 -0.6606
   61CHL1   C23 5679   4.124   1.043   3.815  0.5603 -0.5452  0.4101
   61CHL1  H23A 5680   4.021   1.066   3.848  0.0356 -2.2014  0.0326
   61CHL1  H23B 5681   4.122   0.940   3.774 -1.0135  0.0419 -1.0845
   61CHL1   C24 5682   4.220   1.055   3.928 -0.2015  0.4142 -0.0965
   61CHL1  H24A 5683   4.325   1.027   3.907  0.1187  1.6533 -0.2507
   61CHL1  H24B 5684   4.225   1.159   3.968 -0.1271  0.3407  0.0866
   61CHL1   C25 5685   4.176   0.961   4.045 -0.6027 -0.2063 -0.3276
   61CHL1   H25 5686   4.123   0.871   4.007  1.2197 -1.1119 -0.8374
   61CHL1   C26 5687   4.297   0.928   4.123 -0.2255  0.1831  0.1986
   61CHL1  H26A 5688   4.351   1.024   4.140  0.6275  0.0711 -1.6033
   61CHL1  H26B 5689   4.289   0.868   4.216 -0.1553 -1.6450 -0.9221
   61CHL1  H26C 5690   4.366   0.868   4.061  1.6691  1.5463  0.8942
   61CHL1   C27 5691   4.088   1.027   4.153  0.2154 -0.2565  0.0400
   61CHL1  H27A 5692   4.065   0.946   4.225  0.1716 -0.7806 -0.5607
   61CHL1  H27B 5693   4.144   1.117   4.186 -0.1702  0.9085 -2.2374
   61CHL1  H27C 5694   3.998   1.049   4.092 -0.7100 -2.1950  0.6335
   62CHL1    C3 5695   0.641   1.982   2.423  0.3899 -0.0856  0.4080
   62CHL1    H3 5696   0.619   1.884   2.470 -1.2321  0.2319  0.3680
   62CHL1    O3 5697   0.611   1.973   2.280  0.3381 -0.4057  0.1016
   62CHL1   H3' 5698   0.670   1.906   2.245  1.3788  0.6722 -0.3218
   62CHL1    C4 5699   0.552   2.096   2.495  0.5413  1.0424  0.1719
   62CHL1   H4A 5700   0.600   2.185   2.448  3.5896 -0.0493  1.0054
   62CHL1   H4B 5701   0.445   2.077   2.471  1.3301 -1.2738 -1.8853
   62CHL1    C5 5702   0.586   2.121   2.639  0.3417  0.4510  0.1918
   62CHL1    C6 5703   0.485   2.123   2.726 -0.0584  0.4802  0.0956
   62CHL1    H6 5704   0.382   2.114   2.687  0.5523  0.0949 -1.5041
   62CHL1    C7 5705   0.492   2.147   2.874  0.3102  0.0211 -0.3855
   62CHL1   H7A 5706   0.418   2.224   2.908 -1.3905 -2.0332  0.8043
   62CHL1   H7B 5707   0.475   2.050   2.924  1.1774 -0.9252 -1.8678
   62CHL1    C8 5708   0.637   2.186   2.911  0.4175  0.0602  0.9257
   62CHL1    H8 5709   0.644   2.294   2.886 -2.7129  0.0316 -0.6069
   62CHL1   C14 5710   0.663   2.169   3.059 -0.2191 -0.1146  0.3183
   62CHL1   H14 5711   0.654   2.058   3.066  1.2450 -0.7164 -4.1872
   62CHL1   C15 5712   0.566   2.232   3.153 -0.8644 -0.5556 -0.0099
   62CHL1  H15A 5713   0.550   2.336   3.118  0.1476  0.4979  2.4071
   62CHL1  H15B 5714   0.470   2.178   3.168  1.0138 -4.4497 -0.9086
   62CHL1   C16 5715   0.640   2.239   3.291  0.2204 -0.2898 -0.3255
   62CHL1  H16A 5716   0.658   2.347   3.307 -0.2037 -0.3936  1.0159
   62CHL1  H16B 5717   0.581   2.201   3.377 -0.5977  2.4237  0.3924
   62CHL1   C17 5718   0.785   2.174   3.265 -0.1172 -0.1833  0.4061
   62CHL1   H17 5719   0.766   2.066   3.287  0.4931 -0.2889  0.4167
   62CHL1   C13 5720   0.804   2.198   3.103  0.4433  0.0606 -0.2509
   62CHL1   C18 5721   0.853   2.342   3.086  0.1295 -0.1583 -0.1742
   62CHL1  H18A 5722   0.802   2.419   3.148  1.5714  0.4766  0.2825
   62CHL1  H18B 5723   0.961   2.342   3.113 -0.0063  0.6534  0.4028
   62CHL1  H18C 5724   0.840   2.366   2.979 -2.2325 -0.5565 -0.0219
   62CHL1   C12 5725   0.907   2.106   3.041 -0.2982  0.1946  0.5336
   62CHL1  H12A 5726   1.005   2.142   3.078 -1.5596  1.6014  2.7721
   62CHL1  H12B 5727   0.883   1.999   3.057  2.2378 -0.9546 -2.4390
   62CHL1   C11 5728   0.899   2.119   2.888  0.0821  0.3716  0.2767
   62CHL1  H11A 5729   0.946   2.219   2.873 -0.4761  1.1527  3.1641
   62CHL1  H11B 5730   0.951   2.036   2.836  0.3175 -0.1830  1.3680
   62CHL1    C9 5731   0.744   2.111   2.839  0.0980  0.2131  0.9499
   62CHL1    H9 5732   0.731   2.002   2.860  0.0090 -0.4299 -1.9855
   62CHL1   C10 5733   0.734   2.131   2.686  0.6398  0.2202 -0.3630
   62CHL1   C19 5734   0.799   2.270   2.646  0.4399  0.7956  0.0927
   62CHL1  H19A 5735   0.800   2.299   2.538  3.1534 -0.9080 -0.4268
   62CHL1  H19B 5736   0.749   2.347   2.708  1.4514  1.4232  0.1573
   62CHL1  H19C 5737   0.907   2.273   2.670  0.3582  2.2821  0.3370
   62CHL1    C1 5738   0.822   2.024   2.603  0.0153 -0.4737  0.6769
   62CHL1   H1A 5739   0.930   2.047   2.616  0.1738  0.6989 -2.1073
   62CHL1   H1B 5740   0.811   1.923   2.649 -2.1981 -1.5908 -1.9590
   62CHL1    C2 5741   0.790   2.009   2.451 -0.9275 -0.1846 -0.3317
   62CHL1   H2A 5742   0.844   1.924   2.404 -0.9273  0.2011 -1.0394
   62CHL1   H2B 5743   0.815   2.106   2.402  0.2611 -0.2391  0.1345
   62CHL1   C20 5744   0.892   2.210   3.368 -0.1097 -0.0001  0.3144
   62CHL1   H20 5745   0.931   2.313   3.353  0.3833 -0.3587 -0.9588
   62CHL1   C21 5746   1.008   2.112   3.360  0.5007 -0.0212  0.5802
   62CHL1  H21A 5747   1.067   2.129   3.267 -0.3799  0.4782  0.1051
   62CHL1  H21B 5748   0.970   2.008   3.354 -0.5102  0.2682  1.7002
   62CHL1  H21C 5749   1.076   2.116   3.448  2.7079  1.5728 -1.0591
   62CHL1   C22 5750   0.828   2.217   3.517  0.2344  0.5026  0.3189
   62CHL1  H22A 5751   0.754   2.300   3.511  1.9906  2.1195  0.1810
   62CHL1  H22B 5752   0.764   2.126   3.520  0.9768 -0.1879 -2.0907
   62CHL1   C23 5753   0.928   2.247   3.632  0.3216 -0.2863 -0.1093
   62CHL1  H23A 5754   0.998   2.161   3.634  0.6194 -0.0590 -0.4795
   62CHL1  H23B 5755   0.986   2.338   3.604 -1.2529  0.3879 -1.3827
   62CHL1   C24 5756   0.857   2.274   3.764 -0.3032  0.2705 -0.8845
   62CHL1  H24A 5757   0.755   2.317   3.753 -0.5717 -0.5679 -1.7121
   62CHL1  H24B 5758   0.830   2.177   3.811  1.2139  1.2723  2.4199
   62CHL1   C25 5759   0.942   2.354   3.867 -0.3475 -0.1802 -0.2427
   62CHL1   H25 5760   0.942   2.460   3.832  1.1447 -0.1113 -0.1349
   62CHL1   C26 5761   0.869   2.339   4.004 -0.6856 -1.4338 -0.0202
   62CHL1  H26A 5762   0.765   2.379   4.009  1.2143  4.7652 -1.1883
   62CHL1  H26B 5763   0.874   2.230   4.025 -0.6897 -0.9051  3.2682
   62CHL1  H26C 5764   0.932   2.386   4.083  1.4524 -1.9153 -1.3532
   62CHL1   C27 5765   1.086   2.296   3.875 -0.0082  0.4531  0.4084
   62CHL1  H27A 5766   1.119   2.319   3.978 -0.9898  1.7225  0.4795
   62CHL1  H27B 5767   1.090   2.185   3.876 -0.7998  0.4106  0.0758
   62CHL1  H27C 5768   1.154   2.332   3.795  0.1928  1.7690  1.1477
   63CHL1    C3 5769   6.334   4.136   2.859  0.1088 -0.6293 -0.0721
   63CHL1    H3 5770   6.427   4.197   2.867  2.6097 -4.2089  0.3275
   63CHL1    O3 5771   6.284   4.136   2.729 -1.0551  0.4609  0.8324
   63CHL1   H3' 5772   6.242   4.051   2.715  1.8542 -1.3978  2.3904
   63CHL1    C4 5773   6.394   3.994   2.891  0.6242  0.7409  0.2607
   63CHL1   H4A 5774   6.321   3.912   2.870  0.9781  0.8008 -1.4090
   63CHL1   H4B 5775   6.465   3.968   2.809 -0.4071 -4.1089  0.5685
   63CHL1    C5 5776   6.457   3.981   3.028  0.3932  0.1126 -0.1639
   63CHL1    C6 5777   6.585   3.944   3.042 -0.4549 -0.6224  0.0162
   63CHL1    H6 5778   6.641   3.920   2.951  0.0699 -0.5566  0.3212
   63CHL1    C7 5779   6.648   3.926   3.177  0.0051 -0.0352  0.0550
   63CHL1   H7A 5780   6.695   3.826   3.186 -2.0283 -0.8725  3.9632
   63CHL1   H7B 5781   6.720   4.008   3.198 -2.0638  1.8028  0.4250
   63CHL1    C8 5782   6.539   3.929   3.291 -0.3037  0.1598  0.7344
   63CHL1    H8 5783   6.484   3.833   3.290 -1.8687  0.9139  3.4985
   63CHL1   C14 5784   6.613   3.945   3.420  0.3500  0.0540 -0.3018
   63CHL1   H14 5785   6.658   4.046   3.415 -1.4622  1.0378  1.7338
   63CHL1   C15 5786   6.714   3.832   3.449  0.3405 -0.1144  0.1003
   63CHL1  H15A 5787   6.680   3.730   3.422  1.0173 -0.9341  2.1405
   63CHL1  H15B 5788   6.805   3.843   3.386  0.4341 -1.8854 -0.1371
   63CHL1   C16 5789   6.743   3.855   3.603 -0.4064  0.3524 -0.1297
   63CHL1  H16A 5790   6.764   3.762   3.661  0.6794  0.7833  0.1854
   63CHL1  H16B 5791   6.835   3.916   3.616 -1.2090  2.1648 -2.3560
   63CHL1   C17 5792   6.630   3.946   3.664  0.7338  0.5836  0.6362
   63CHL1   H17 5793   6.663   4.052   3.653 -0.8502  0.8921 -2.0278
   63CHL1   C13 5794   6.521   3.947   3.548  0.5792  0.2810 -0.5603
   63CHL1   C18 5795   6.436   3.816   3.558  0.4115 -0.4298 -0.2967
   63CHL1  H18A 5796   6.368   3.823   3.645  0.2705  0.0909 -0.4450
   63CHL1  H18B 5797   6.373   3.799   3.468 -0.5602  1.6723 -0.0828
   63CHL1  H18C 5798   6.491   3.720   3.562 -1.7404 -1.7128  0.3034
   63CHL1   C12 5799   6.431   4.064   3.531  0.3729 -0.2051  0.0115
   63CHL1  H12A 5800   6.345   4.075   3.602 -0.0228  0.8579 -0.6137
   63CHL1  H12B 5801   6.491   4.157   3.538 -1.7460  1.3414 -1.1942
   63CHL1   C11 5802   6.356   4.076   3.395  0.0354 -0.4672  0.0602
   63CHL1  H11A 5803   6.268   4.009   3.405  0.5445 -0.8780  2.4693
   63CHL1  H11B 5804   6.309   4.177   3.390  0.0061 -0.3260  2.2927
   63CHL1    C9 5805   6.442   4.043   3.270  0.8752  0.1274  0.4814
   63CHL1    H9 5806   6.504   4.135   3.269 -0.2561  0.9606  2.2693
   63CHL1   C10 5807   6.362   4.026   3.139 -0.3037 -0.2782 -0.1170
   63CHL1   C19 5808   6.253   3.920   3.155  0.1982 -0.4614  0.5424
   63CHL1  H19A 5809   6.289   3.827   3.203  1.8754 -1.1110 -1.7840
   63CHL1  H19B 5810   6.163   3.964   3.203 -0.2515 -0.8947  0.1073
   63CHL1  H19C 5811   6.231   3.877   3.054  1.5072 -0.4684  0.2401
   63CHL1    C1 5812   6.292   4.160   3.101  0.2100  1.1753  0.7175
   63CHL1   H1A 5813   6.211   4.178   3.174  0.9234  1.8821  1.3556
   63CHL1   H1B 5814   6.365   4.243   3.111  0.8329  0.6818  0.3591
   63CHL1    C2 5815   6.226   4.165   2.960 -0.1513  0.1407  0.2884
   63CHL1   H2A 5816   6.202   4.273   2.949  2.6925  0.8225 -0.0642
   63CHL1   H2B 5817   6.140   4.097   2.942 -0.0636 -1.4153  4.5853
   63CHL1   C20 5818   6.581   3.910   3.805 -0.2294 -0.4548 -0.2066
   63CHL1   H20 5819   6.532   3.810   3.804 -0.6043 -0.3399  1.8194
   63CHL1   C21 5820   6.474   4.014   3.846 -0.7789 -0.9951  0.6600
   63CHL1  H21A 5821   6.386   4.002   3.780  0.2729 -3.3441 -0.4161
   63CHL1  H21B 5822   6.520   4.115   3.836 -1.0679 -0.8534  0.7598
   63CHL1  H21C 5823   6.444   3.998   3.951  0.3917 -0.4812  1.0965
   63CHL1   C22 5824   6.700   3.914   3.903  0.0171 -0.4444  1.0681
   63CHL1  H22A 5825   6.781   3.841   3.881  0.9318  0.1294  2.3997
   63CHL1  H22B 5826   6.738   4.018   3.904 -1.1235  0.0233 -0.3467
   63CHL1   C23 5827   6.668   3.871   4.051 -0.4523  0.6704  0.0077
   63CHL1  H23A 5828   6.611   3.955   4.096 -1.6382 -0.3643  0.5005
   63CHL1  H23B 5829   6.599   3.785   4.044  1.8090 -1.1103 -2.1467
   63CHL1   C24 5830   6.793   3.846   4.137  0.5947  0.3392  0.3599
   63CHL1  H24A 5831   6.854   3.759   4.103 -0.1031 -1.2896  2.9734
   63CHL1  H24B 5832   6.861   3.933   4.124  0.8867  0.0783  0.1005
   63CHL1   C25 5833   6.764   3.827   4.287  0.5633 -0.8774  0.5606
   63CHL1   H25 5834   6.696   3.740   4.303  0.3544 -1.3539 -2.3375
   63CHL1   C26 5835   6.889   3.784   4.364 -0.0318  0.4074 -0.8588
   63CHL1  H26A 5836   6.923   3.680   4.345  1.3943  1.1058 -2.3723
   63CHL1  H26B 5837   6.971   3.855   4.338 -0.4763  0.5890 -1.7780
   63CHL1  H26C 5838   6.871   3.789   4.474 -1.3366  0.5381 -1.0684
   63CHL1   C27 5839   6.716   3.948   4.361  0.9024 -0.7335  0.0683
   63CHL1  H27A 5840   6.618   3.986   4.324 -0.3036 -1.5593  2.1917
   63CHL1  H27B 5841   6.682   3.902   4.457  1.7332  0.3684  0.9096
   63CHL1  H27C 5842   6.794   4.025   4.374  1.2189 -0.7979 -1.2525
   64CHL1    C3 5843   0.928   4.988   3.028 -0.0447  0.3505  0.5615
   64CHL1    H3 5844   0.894   4.891   3.070  0.1504  0.0834  0.1093
   64CHL1    O3 5845   0.892   4.991   2.892 -0.3919 -0.9439  0.2084
   64CHL1   H3' 5846   0.799   5.013   2.882 -0.5222 -1.5854 -0.0082
   64CHL1    C4 5847   0.858   5.107   3.096  0.4355 -0.0974  1.3415
   64CHL1   H4A 5848   0.885   5.199   3.040  1.3407 -0.3159  1.4030
   64CHL1   H4B 5849   0.749   5.088   3.091  0.2650  0.9951  0.4830
   64CHL1    C5 5850   0.899   5.101   3.242 -0.6448 -0.5420  0.5106
   64CHL1    C6 5851   0.810   5.083   3.339 -0.1834 -0.3883 -0.0413
   64CHL1    H6 5852   0.705   5.067   3.310 -0.0832 -0.5268 -0.3314
   64CHL1    C7 5853   0.842   5.107   3.486  0.8337 -0.0484  0.0302
   64CHL1   H7A 5854   0.760   5.172   3.524 -0.0960 -0.8301 -0.5877
   64CHL1   H7B 5855   0.836   5.010   3.541  1.1269  0.0997  0.3246
   64CHL1    C8 5856   0.981   5.163   3.521 -0.1388 -1.1108 -0.8405
   64CHL1    H8 5857   0.978   5.272   3.498  0.5751 -1.0318 -0.5938
   64CHL1   C14 5858   1.018   5.142   3.669  0.2561 -0.3717 -0.3310
   64CHL1   H14 5859   1.032   5.033   3.683  0.7328  0.0077  2.7553
   64CHL1   C15 5860   0.921   5.192   3.779 -0.0288 -0.7224  0.4048
   64CHL1  H15A 5861   0.892   5.299   3.770 -0.1168 -0.5480  2.2534
   64CHL1  H15B 5862   0.832   5.126   3.782  2.0244 -4.0581 -3.3228
   64CHL1   C16 5863   1.007   5.176   3.902 -0.5059 -0.4879 -0.1082
   64CHL1  H16A 5864   0.993   5.261   3.972  0.0735 -0.6297  0.1900
   64CHL1  H16B 5865   0.974   5.078   3.942 -0.4378  0.4954  2.5769
   64CHL1   C17 5866   1.157   5.157   3.858  0.4286 -0.0988  0.5690
   64CHL1   H17 5867   1.180   5.048   3.861 -0.9082 -0.5072 -1.8001
   64CHL1   C13 5868   1.160   5.198   3.711 -0.1970 -0.2205  0.9287
   64CHL1   C18 5869   1.160   5.352   3.696  0.4953 -0.4752  0.2057
   64CHL1  H18A 5870   1.262   5.390   3.720  0.1261  0.9675 -0.4100
   64CHL1  H18B 5871   1.119   5.383   3.597  0.8687  0.3122  0.2926
   64CHL1  H18C 5872   1.097   5.388   3.779  0.0345 -0.5022 -0.1270
   64CHL1   C12 5873   1.260   5.127   3.617  0.3446  0.3478 -0.0869
   64CHL1  H12A 5874   1.362   5.171   3.627  1.4586 -1.8773 -0.8161
   64CHL1  H12B 5875   1.254   5.017   3.630  0.1545  0.1371 -1.7507
   64CHL1   C11 5876   1.227   5.157   3.469 -0.2410  1.2432 -0.2868
   64CHL1  H11A 5877   1.237   5.264   3.440  1.8383  0.6029 -2.1999
   64CHL1  H11B 5878   1.294   5.106   3.397  0.3508  0.1942  0.9701
   64CHL1    C9 5879   1.085   5.107   3.432  0.9539  0.1132 -0.3846
   64CHL1    H9 5880   1.084   4.999   3.461  2.1698 -0.0389 -0.8302
   64CHL1   C10 5881   1.053   5.115   3.274 -0.5739 -0.4637  0.9478
   64CHL1   C19 5882   1.082   5.259   3.221 -0.1166  0.0594  0.6626
   64CHL1  H19A 5883   1.050   5.268   3.115 -0.1799  0.3124  0.7037
   64CHL1  H19B 5884   1.038   5.340   3.284  1.2725 -0.8760  2.9714
   64CHL1  H19C 5885   1.191   5.281   3.225 -0.0908 -0.2064  1.7396
   64CHL1    C1 5886   1.128   5.006   3.186 -0.0668  0.4971  0.2051
   64CHL1   H1A 5887   1.237   5.025   3.186  0.2529 -1.1279  1.7097
   64CHL1   H1B 5888   1.098   4.908   3.230 -1.4734  0.6090 -0.4428
   64CHL1    C2 5889   1.076   4.995   3.039 -0.1704 -0.9924  0.3609
   64CHL1   H2A 5890   1.120   4.912   2.980 -0.0369 -0.4694 -0.2871
   64CHL1   H2B 5891   1.114   5.081   2.979  1.7611 -2.4017 -0.5365
   64CHL1   C20 5892   1.254   5.231   3.955 -0.1254 -0.2633 -0.3011
   64CHL1   H20 5893   1.238   5.340   3.962 -0.5809 -0.4458  4.2799
   64CHL1   C21 5894   1.406   5.203   3.915 -0.1290  0.4182  0.0340
   64CHL1  H21A 5895   1.424   5.094   3.913 -1.1106  0.2459 -1.8619
   64CHL1  H21B 5896   1.485   5.232   3.987 -0.3051 -0.6774  0.6793
   64CHL1  H21C 5897   1.438   5.236   3.813 -0.3572  1.0731  0.1641
   64CHL1   C22 5898   1.227   5.183   4.105 -0.2722  0.1524  0.3475
   64CHL1  H22A 5899   1.121   5.176   4.139  0.5639 -1.6119  2.9664
   64CHL1  H22B 5900   1.267   5.081   4.123 -1.8149 -0.5754 -0.2191
   64CHL1   C23 5901   1.279   5.281   4.210  0.6553  0.0166  0.3360
   64CHL1  H23A 5902   1.379   5.313   4.174 -0.5728  2.9042 -0.8600
   64CHL1  H23B 5903   1.226   5.379   4.203 -1.6275 -1.1923 -0.2667
   64CHL1   C24 5904   1.271   5.226   4.347 -0.0950 -0.2064  0.4399
   64CHL1  H24A 5905   1.191   5.151   4.363 -1.2848  0.7168 -0.9394
   64CHL1  H24B 5906   1.363   5.168   4.369 -0.6634 -0.8907  1.0785
   64CHL1   C25 5907   1.243   5.339   4.451  0.3039 -0.2270 -0.5112
   64CHL1   H25 5908   1.153   5.393   4.413 -0.4643  0.4200  2.0182
   64CHL1   C26 5909   1.207   5.271   4.590  0.6754 -1.0928  0.6628
   64CHL1  H26A 5910   1.116   5.208   4.577 -1.1256  1.5315 -0.4651
   64CHL1  H26B 5911   1.294   5.214   4.628  0.9834  0.0360  1.7220
   64CHL1  H26C 5912   1.192   5.343   4.674  0.6227 -1.8642  1.3259
   64CHL1   C27 5913   1.354   5.434   4.488 -0.3357 -0.0712 -0.2804
   64CHL1  H27A 5914   1.307   5.524   4.532 -1.8244 -0.7031 -0.5378
   64CHL1  H27B 5915   1.421   5.385   4.562  2.6300  1.3614 -1.8223
   64CHL1  H27C 5916   1.411   5.465   4.397  0.0117 -1.7877 -0.6979
   65CHL1    C3 5917   2.157   4.086   2.673  0.3872 -0.2689 -0.0344
   65CHL1    H3 5918   2.062   4.145   2.674  1.1606  1.3027 -3.2704
   65CHL1    O3 5919   2.207   4.069   2.541 -0.2999 -0.2982 -0.0972
   65CHL1   H3' 5920   2.204   4.161   2.513 -0.0740 -0.0788  0.5891
   65CHL1    C4 5921   2.253   4.176   2.748 -0.3049 -0.0779  0.2344
   65CHL1   H4A 5922   2.361   4.149   2.744 -0.4175 -0.6637  1.0003
   65CHL1   H4B 5923   2.250   4.271   2.692 -1.1404  0.2866  0.8684
   65CHL1    C5 5924   2.230   4.199   2.896  0.0870  0.8776  0.6576
   65CHL1    C6 5925   2.236   4.313   2.960  0.3517  0.0099 -0.2095
   65CHL1    H6 5926   2.253   4.403   2.899 -0.8330 -0.4411 -1.2287
   65CHL1    C7 5927   2.202   4.330   3.111  0.1087 -0.2399  0.2279
   65CHL1   H7A 5928   2.273   4.406   3.151  0.5322 -0.2254 -0.5289
   65CHL1   H7B 5929   2.099   4.370   3.118 -0.2403 -0.6706 -1.6421
   65CHL1    C8 5930   2.212   4.197   3.188  0.0728 -0.0287  0.2846
   65CHL1    H8 5931   2.319   4.168   3.197 -0.1504 -1.0138 -0.0963
   65CHL1   C14 5932   2.141   4.218   3.325 -0.0826  0.5073 -0.0517
   65CHL1   H14 5933   2.034   4.218   3.296 -0.3100  1.1400  0.7517
   65CHL1   C15 5934   2.174   4.340   3.410 -0.1977  0.0523  0.0814
   65CHL1  H15A 5935   2.277   4.365   3.377 -1.3493  0.5892 -3.5524
   65CHL1  H15B 5936   2.102   4.421   3.390 -0.5356 -0.2147  0.2122
   65CHL1   C16 5937   2.162   4.289   3.554  0.6198 -0.7460 -0.3599
   65CHL1  H16A 5938   2.263   4.280   3.601 -0.3227 -0.9854  1.7375
   65CHL1  H16B 5939   2.094   4.353   3.614 -0.0678 -1.6694 -0.1358
   65CHL1   C17 5940   2.105   4.147   3.552  1.2167  0.3361  0.5101
   65CHL1   H17 5941   1.995   4.150   3.537  1.3686 -0.1958 -0.9026
   65CHL1   C13 5942   2.158   4.097   3.413 -0.1884 -0.1204  0.0571
   65CHL1   C18 5943   2.305   4.062   3.444  0.3666 -0.2037  0.9963
   65CHL1  H18A 5944   2.358   4.151   3.485 -0.1205  0.6034 -0.0649
   65CHL1  H18B 5945   2.318   3.979   3.516 -0.2487 -1.7975 -0.6656
   65CHL1  H18C 5946   2.363   4.029   3.355 -2.5400 -1.2095 -0.6718
   65CHL1   C12 5947   2.084   3.978   3.351 -0.0795  0.0399  0.6900
   65CHL1  H12A 5948   2.107   3.885   3.407  2.1418 -0.1982 -0.5178
   65CHL1  H12B 5949   1.974   3.990   3.360 -0.0325  0.7699  0.3530
   65CHL1   C11 5950   2.138   3.957   3.206 -0.3796  0.5846 -0.2090
   65CHL1  H11A 5951   2.242   3.919   3.218 -0.9149 -0.9062 -0.1454
   65CHL1  H11B 5952   2.078   3.876   3.160  0.8173  0.0332 -0.8416
   65CHL1    C9 5953   2.142   4.079   3.109  0.3236 -0.1068 -0.2528
   65CHL1    H9 5954   2.038   4.115   3.091 -0.5833 -1.4277  1.8733
   65CHL1   C10 5955   2.199   4.063   2.964  0.1769 -0.2767 -0.1805
   65CHL1   C19 5956   2.352   4.006   2.980  0.5878  0.8064 -0.3280
   65CHL1  H19A 5957   2.417   4.072   3.041  1.1147 -0.3687  0.4239
   65CHL1  H19B 5958   2.355   3.902   3.020 -0.0216  0.1374 -1.9477
   65CHL1  H19C 5959   2.398   3.997   2.880 -0.9332  0.5014 -1.0287
   65CHL1    C1 5960   2.119   3.966   2.881  0.1989  0.5907 -0.4798
   65CHL1   H1A 5961   2.131   3.872   2.938 -0.3323  0.5668 -0.4029
   65CHL1   H1B 5962   2.013   3.996   2.892  0.1886  0.0103  1.2530
   65CHL1    C2 5963   2.155   3.953   2.734 -0.3586 -0.8962 -0.0496
   65CHL1   H2A 5964   2.091   3.880   2.680  0.3793 -1.4585 -0.1804
   65CHL1   H2B 5965   2.257   3.913   2.712  0.3422  0.8239 -0.0736
   65CHL1   C20 5966   2.133   4.070   3.686  0.6722  0.5152 -0.2094
   65CHL1   H20 5967   2.242   4.079   3.707  0.5483 -1.3889  1.5806
   65CHL1   C21 5968   2.108   3.913   3.673  0.2247  0.0050 -0.5106
   65CHL1  H21A 5969   2.009   3.900   3.623  0.0963  1.6298 -0.7383
   65CHL1  H21B 5970   2.095   3.855   3.767 -0.9534 -0.1056 -0.7205
   65CHL1  H21C 5971   2.196   3.860   3.630  0.5527  1.2276 -1.4009
   65CHL1   C22 5972   2.059   4.133   3.806  0.3833 -0.6001 -0.3866
   65CHL1  H22A 5973   2.102   4.235   3.816  2.5886 -1.3920 -1.1792
   65CHL1  H22B 5974   1.949   4.136   3.789  0.4231 -3.4063 -1.7664
   65CHL1   C23 5975   2.077   4.075   3.941 -0.1836  0.3088 -0.4766
   65CHL1  H23A 5976   2.039   3.971   3.946 -0.1820  0.0580 -3.7414
   65CHL1  H23B 5977   2.187   4.077   3.962 -0.2744  2.0628  0.0326
   65CHL1   C24 5978   2.013   4.160   4.056 -0.4790 -0.2040 -0.9362
   65CHL1  H24A 5979   2.062   4.259   4.069  0.0443 -0.1628 -2.9320
   65CHL1  H24B 5980   1.902   4.166   4.043 -0.9007 -0.5957  1.8007
   65CHL1   C25 5981   2.026   4.089   4.196 -0.1845  0.1884  1.0450
   65CHL1   H25 5982   1.963   4.000   4.176 -1.3475  1.2532 -0.2288
   65CHL1   C26 5983   2.167   4.052   4.241 -0.2082  0.6072  0.1307
   65CHL1  H26A 5984   2.154   3.991   4.333  1.4630 -1.9253 -1.1609
   65CHL1  H26B 5985   2.224   3.991   4.166 -0.8838  0.2631 -0.1082
   65CHL1  H26C 5986   2.228   4.143   4.262  0.9372 -0.1127  0.0428
   65CHL1   C27 5987   1.947   4.175   4.296  0.7436  0.2624 -0.2575
   65CHL1  H27A 5988   1.843   4.175   4.258  0.8321 -0.5650 -0.5164
   65CHL1  H27B 5989   1.940   4.122   4.394 -0.4786  0.4043 -0.2510
   65CHL1  H27C 5990   1.978   4.277   4.330 -2.2201  0.5758  1.8758
   66CHL1    C3 5991   3.862   2.658   2.555  0.3221  0.7927 -0.2887
   66CHL1    H3 5992   3.769   2.717   2.550  0.4212  1.2289  2.0115
   66CHL1    O3 5993   3.927   2.666   2.427  0.6347  0.2342  0.2114
   66CHL1   H3' 5994   4.000   2.604   2.425  1.6049  1.3460 -0.3696
   66CHL1    C4 5995   3.949   2.715   2.664 -0.3563  0.9858  0.1821
   66CHL1   H4A 5996   4.050   2.668   2.664 -0.7426  0.1090  0.9535
   66CHL1   H4B 5997   3.968   2.820   2.635  1.7430  1.3121  2.3559
   66CHL1    C5 5998   3.894   2.707   2.803  0.7152  0.1834  0.0382
   66CHL1    C6 5999   3.875   2.817   2.873  0.2651  0.4726 -0.9582
   66CHL1    H6 6000   3.916   2.912   2.835 -0.1476  0.9965 -0.1271
   66CHL1    C7 6001   3.801   2.812   3.002  0.3198 -0.2197  0.2629
   66CHL1   H7A 6002   3.851   2.874   3.080  0.5431 -1.0337  0.7834
   66CHL1   H7B 6003   3.704   2.862   2.983  0.8792  0.0616 -2.1654
   66CHL1    C8 6004   3.791   2.669   3.067 -0.1752  0.8024 -0.1089
   66CHL1    H8 6005   3.894   2.633   3.089 -0.0050  1.8074  0.7915
   66CHL1   C14 6006   3.699   2.663   3.186 -0.7166  0.8142  0.3611
   66CHL1   H14 6007   3.597   2.685   3.148  0.5601  4.0320 -1.6491
   66CHL1   C15 6008   3.720   2.771   3.286  0.3998  0.1980 -0.9546
   66CHL1  H15A 6009   3.829   2.786   3.298  0.2022  0.9798  0.0054
   66CHL1  H15B 6010   3.659   2.863   3.273 -0.0819  0.2287  1.1977
   66CHL1   C16 6011   3.675   2.712   3.416  0.2679  0.6739 -0.2920
   66CHL1  H16A 6012   3.769   2.709   3.475  1.6422  1.4675 -2.3358
   66CHL1  H16B 6013   3.599   2.780   3.462 -1.7544 -0.6025 -1.5767
   66CHL1   C17 6014   3.613   2.569   3.387  0.1814 -0.1137  0.3267
   66CHL1   H17 6015   3.508   2.588   3.356  0.0952 -2.1621 -0.9058
   66CHL1   C13 6016   3.685   2.533   3.256 -0.0687 -0.4093  0.5654
   66CHL1   C18 6017   3.823   2.468   3.288 -0.0195  0.4600 -0.1298
   66CHL1  H18A 6018   3.896   2.537   3.335  0.1533 -0.6327  1.2758
   66CHL1  H18B 6019   3.805   2.378   3.351  0.9882 -0.1297 -0.6650
   66CHL1  H18C 6020   3.864   2.429   3.193 -3.2672  0.4001 -1.6163
   66CHL1   C12 6021   3.612   2.438   3.166  0.2131 -0.7037  0.3719
   66CHL1  H12A 6022   3.590   2.339   3.211 -2.9598 -0.1201  0.3349
   66CHL1  H12B 6023   3.513   2.488   3.156  1.5721  2.1269  0.1196
   66CHL1   C11 6024   3.681   2.433   3.021 -0.1570 -0.2029  0.1457
   66CHL1  H11A 6025   3.767   2.363   3.032 -0.8293 -1.0394  0.2034
   66CHL1  H11B 6026   3.615   2.395   2.940 -0.1757 -0.3318  0.2202
   66CHL1    C9 6027   3.736   2.571   2.961  0.2729 -0.1773  0.5988
   66CHL1    H9 6028   3.637   2.611   2.930 -0.8164  0.4540  4.3963
   66CHL1   C10 6029   3.834   2.565   2.841 -0.0011 -0.7745  0.0006
   66CHL1   C19 6030   3.955   2.483   2.881 -0.3045 -0.4864 -0.0940
   66CHL1  H19A 6031   3.922   2.380   2.907 -1.7056  0.1129  0.5975
   66CHL1  H19B 6032   4.012   2.475   2.786 -5.1207 -1.9132 -3.2205
   66CHL1  H19C 6033   4.010   2.526   2.967 -0.9811 -0.2121  0.2080
   66CHL1    C1 6034   3.752   2.497   2.719 -0.3388 -0.2959  0.6086
   66CHL1   H1A 6035   3.723   2.392   2.738 -0.7912 -0.5241 -1.1418
   66CHL1   H1B 6036   3.653   2.548   2.717  0.6864  1.7949 -1.3978
   66CHL1    C2 6037   3.818   2.513   2.584 -0.5571 -0.2241 -0.4316
   66CHL1   H2A 6038   3.754   2.464   2.507  3.5950 -3.8588 -2.0294
   66CHL1   H2B 6039   3.907   2.447   2.586  0.1343  0.6234 -1.8148
   66CHL1   C20 6040   3.602   2.472   3.506 -0.5087  0.1955 -0.0562
   66CHL1   H20 6041   3.692   2.409   3.522 -0.7449 -0.0626  0.2716
   66CHL1   C21 6042   3.485   2.375   3.471  0.1771 -0.3742  0.4915
   66CHL1  H21A 6043   3.443   2.406   3.373 -0.7503  0.8647  1.2379
   66CHL1  H21B 6044   3.407   2.379   3.551  0.1513  0.1544  0.4437
   66CHL1  H21C 6045   3.526   2.273   3.461  3.6800  0.9510  0.1246
   66CHL1   C22 6046   3.573   2.545   3.645  0.0326  0.3142  0.3200
   66CHL1  H22A 6047   3.553   2.461   3.713 -1.3464  0.9806  0.7585
   66CHL1  H22B 6048   3.657   2.607   3.683  1.7299 -1.9054  0.3824
   66CHL1   C23 6049   3.447   2.625   3.640 -0.6894 -0.0552 -0.1146
   66CHL1  H23A 6050   3.437   2.700   3.559  2.5977  1.0856  0.3964
   66CHL1  H23B 6051   3.359   2.557   3.632  0.1170 -1.1447  0.1225
   66CHL1   C24 6052   3.435   2.705   3.774  0.6564 -0.0884 -0.1797
   66CHL1  H24A 6053   3.425   2.630   3.855 -1.6801 -0.4378 -0.7150
   66CHL1  H24B 6054   3.530   2.758   3.793  0.0963  1.2929 -1.0881
   66CHL1   C25 6055   3.322   2.814   3.765  0.3980 -0.9731 -0.1153
   66CHL1   H25 6056   3.334   2.880   3.677 -1.6340  0.3234  0.5005
   66CHL1   C26 6057   3.182   2.749   3.745 -0.1038 -0.1789 -0.0972
   66CHL1  H26A 6058   3.167   2.696   3.649  1.6311 -0.3945 -0.2733
   66CHL1  H26B 6059   3.158   2.679   3.828  0.9555 -1.7080 -1.0538
   66CHL1  H26C 6060   3.100   2.824   3.754  0.7883  0.7660  0.3942
   66CHL1   C27 6061   3.314   2.907   3.887 -0.7368  0.2844  0.1896
   66CHL1  H27A 6062   3.228   2.976   3.886 -1.4654 -0.6091 -0.9719
   66CHL1  H27B 6063   3.401   2.978   3.886 -0.1752 -0.3393  1.7631
   66CHL1  H27C 6064   3.293   2.847   3.978 -1.6894 -0.2506 -0.3751
   67CHL1    C3 6065   3.533   6.281   3.163  0.4506 -0.3706  0.3957
   67CHL1    H3 6066   3.631   6.244   3.199  0.5152 -0.4168  0.1728
   67CHL1    O3 6067   3.514   6.235   3.037 -0.2728 -0.0014  0.2083
   67CHL1   H3' 6068   3.478   6.147   3.050 -2.4706  1.0481  1.9359
   67CHL1    C4 6069   3.430   6.224   3.257  0.1263 -0.9119  0.2984
   67CHL1   H4A 6070   3.331   6.245   3.212  0.9638  0.0150 -1.1821
   67CHL1   H4B 6071   3.425   6.114   3.243 -0.3040 -0.9274  0.5378
   67CHL1    C5 6072   3.429   6.272   3.396 -0.4967 -0.4644  0.5650
   67CHL1    C6 6073   3.447   6.184   3.498 -0.2092 -0.5771  0.1684
   67CHL1    H6 6074   3.456   6.075   3.485  2.4531 -0.4669  0.5674
   67CHL1    C7 6075   3.453   6.235   3.637  0.2978 -0.8653  0.3492
   67CHL1   H7A 6076   3.378   6.176   3.695 -0.1140 -0.9859 -0.2856
   67CHL1   H7B 6077   3.553   6.214   3.679 -0.6293 -0.8271  2.7282
   67CHL1    C8 6078   3.406   6.379   3.657  0.1616 -0.1721 -0.4357
   67CHL1    H8 6079   3.295   6.377   3.652  0.0828  0.3527  0.9388
   67CHL1   C14 6080   3.443   6.418   3.796 -0.1167  0.1029  0.6127
   67CHL1   H14 6081   3.553   6.408   3.795 -0.2616 -2.9903  2.9299
   67CHL1   C15 6082   3.399   6.335   3.915  0.2810  0.5120  0.0806
   67CHL1  H15A 6083   3.288   6.331   3.907  0.3986 -0.2217 -1.6859
   67CHL1  H15B 6084   3.440   6.232   3.917 -1.9493 -0.4195  1.1293
   67CHL1   C16 6085   3.438   6.420   4.033 -0.0521 -0.1001  0.4015
   67CHL1  H16A 6086   3.356   6.419   4.109 -2.0431 -0.0602 -1.6260
   67CHL1  H16B 6087   3.531   6.387   4.083  0.1752  0.2216  0.1919
   67CHL1   C17 6088   3.468   6.561   3.979 -0.4763  0.5661  0.1216
   67CHL1   H17 6089   3.579   6.559   3.980 -0.4476  0.9318 -0.9405
   67CHL1   C13 6090   3.422   6.565   3.835 -0.1708  0.3570  0.6547
   67CHL1   C18 6091   3.274   6.599   3.837 -0.0325 -0.0085  0.1510
   67CHL1  H18A 6092   3.218   6.553   3.922 -1.3915 -1.7155 -1.5890
   67CHL1  H18B 6093   3.259   6.709   3.849 -0.4989  0.3283 -2.7920
   67CHL1  H18C 6094   3.222   6.554   3.750 -0.2410 -0.6519  0.5975
   67CHL1   C12 6095   3.489   6.666   3.734 -0.0803 -0.6498  0.4167
   67CHL1  H12A 6096   3.458   6.769   3.761 -0.5277 -1.4231  3.1410
   67CHL1  H12B 6097   3.599   6.658   3.752 -0.1017 -1.9175  0.0793
   67CHL1   C11 6098   3.447   6.630   3.587 -0.3463 -1.0270 -0.0124
   67CHL1  H11A 6099   3.339   6.644   3.567 -0.6498 -4.8179 -1.8546
   67CHL1  H11B 6100   3.511   6.682   3.514 -0.3456 -2.0312 -0.7437
   67CHL1    C9 6101   3.463   6.478   3.557 -0.1942 -0.1264  0.1843
   67CHL1    H9 6102   3.573   6.463   3.554 -0.1367  0.0565  0.9560
   67CHL1   C10 6103   3.430   6.422   3.410  0.4083 -0.0064 -0.0562
   67CHL1   C19 6104   3.285   6.471   3.365  0.1876 -0.5908  0.5064
   67CHL1  H19A 6105   3.215   6.426   3.439 -0.1788  0.7990  1.0527
   67CHL1  H19B 6106   3.275   6.582   3.375  2.4789 -0.2685 -0.1985
   67CHL1  H19C 6107   3.276   6.448   3.257  0.6781  3.9335 -0.6932
   67CHL1    C1 6108   3.541   6.481   3.313 -0.6103  0.3928 -0.4030
   67CHL1   H1A 6109   3.551   6.591   3.316  4.1449  0.2411  3.8002
   67CHL1   H1B 6110   3.639   6.440   3.346 -1.1429  0.2862  1.1268
   67CHL1    C2 6111   3.539   6.432   3.166  0.0131 -0.2090 -0.6380
   67CHL1   H2A 6112   3.639   6.457   3.127 -0.0173 -1.2396 -1.4187
   67CHL1   H2B 6113   3.459   6.474   3.102 -1.0129 -0.4149  0.4688
   67CHL1   C20 6114   3.423   6.673   4.073 -0.1224  0.3780 -0.0231
   67CHL1   H20 6115   3.313   6.688   4.069  0.1264  2.3045 -2.4096
   67CHL1   C21 6116   3.476   6.802   4.024 -0.0530 -0.5682 -0.1454
   67CHL1  H21A 6117   3.435   6.847   3.931 -1.2194  2.2625  1.6035
   67CHL1  H21B 6118   3.587   6.805   4.020  0.0061 -1.2483  0.8116
   67CHL1  H21C 6119   3.446   6.882   4.095 -0.4322  2.1983 -3.1666
   67CHL1   C22 6120   3.448   6.647   4.223 -0.7155 -0.1267 -1.0364
   67CHL1  H22A 6121   3.394   6.555   4.255  0.3701 -0.0617  1.1294
   67CHL1  H22B 6122   3.555   6.618   4.229 -0.8500 -0.7120 -1.3219
   67CHL1   C23 6123   3.423   6.757   4.329  0.5204 -0.1887  1.0025
   67CHL1  H23A 6124   3.427   6.860   4.287 -1.9624 -0.9142 -1.2580
   67CHL1  H23B 6125   3.316   6.740   4.355  1.0294 -1.9567  2.1511
   67CHL1   C24 6126   3.502   6.758   4.459 -0.3388 -0.1733 -0.2804
   67CHL1  H24A 6127   3.449   6.830   4.525  1.4992 -0.3584  1.4800
   67CHL1  H24B 6128   3.499   6.659   4.508 -1.2239  0.2996  0.6630
   67CHL1   C25 6129   3.661   6.778   4.451  0.0319  0.4103  0.1766
   67CHL1   H25 6130   3.696   6.691   4.391 -3.2366  0.0945 -1.4884
   67CHL1   C26 6131   3.712   6.904   4.373 -0.3866  0.5400  0.4275
   67CHL1  H26A 6132   3.675   6.986   4.439 -2.3269  0.0560  0.0039
   67CHL1  H26B 6133   3.823   6.905   4.371 -0.3942  0.4882 -0.1255
   67CHL1  H26C 6134   3.665   6.897   4.273  1.1832 -3.2665 -0.2148
   67CHL1   C27 6135   3.726   6.756   4.593  0.7587 -0.7266 -0.9045
   67CHL1  H27A 6136   3.835   6.774   4.588  0.6108  0.5625 -0.0967
   67CHL1  H27B 6137   3.690   6.836   4.662 -0.2382 -2.2067  0.3890
   67CHL1  H27C 6138   3.708   6.658   4.643  0.2782 -0.3101 -0.2264
   68CHL1    C3 6139   2.372   0.214   2.772 -0.1084  0.2801  0.4848
   68CHL1    H3 6140   2.432   0.308   2.781  0.1672 -0.0239  2.1636
   68CHL1    O3 6141   2.332   0.171   2.645 -0.5282  0.1275 -0.2864
   68CHL1   H3' 6142   2.266   0.102   2.656 -1.8367  1.4159  0.2651
   68CHL1    C4 6143   2.452   0.104   2.849  0.5458 -0.2641  0.6568
   68CHL1   H4A 6144   2.401   0.007   2.836 -0.0033  0.1881 -0.7468
   68CHL1   H4B 6145   2.547   0.098   2.791  0.6545  3.3602  0.2081
   68CHL1    C5 6146   2.483   0.143   2.991 -0.3119 -0.4607  0.7672
   68CHL1    C6 6147   2.608   0.146   3.043  0.4649 -0.5475  1.1374
   68CHL1    H6 6148   2.688   0.110   2.977 -1.4429 -1.9959 -0.5010
   68CHL1    C7 6149   2.649   0.180   3.180  0.6596 -0.2211  0.3102
   68CHL1   H7A 6150   2.736   0.120   3.213 -0.3110 -1.1405  1.2750
   68CHL1   H7B 6151   2.684   0.285   3.185 -1.5637  0.6027 -0.2462
   68CHL1    C8 6152   2.530   0.164   3.271  0.4323 -0.3546  0.2462
   68CHL1    H8 6153   2.504   0.058   3.291 -1.0500  0.0248  0.5028
   68CHL1   C14 6154   2.562   0.230   3.406 -0.0473 -0.0372  0.0034
   68CHL1   H14 6155   2.592   0.335   3.384  2.4339 -0.7951 -0.5449
   68CHL1   C15 6156   2.687   0.179   3.483  0.7882 -0.2721  0.5246
   68CHL1  H15A 6157   2.685   0.068   3.482 -1.4206 -0.3036  2.3228
   68CHL1  H15B 6158   2.788   0.211   3.450  0.8385 -0.1660  0.7859
   68CHL1   C16 6159   2.665   0.221   3.627 -0.6817 -0.8000  0.7948
   68CHL1  H16A 6160   2.676   0.125   3.683  5.0269  0.1389  1.9055
   68CHL1  H16B 6161   2.738   0.293   3.669  0.9190 -2.2441  0.6199
   68CHL1   C17 6162   2.521   0.274   3.641 -1.1636  0.1914  0.0715
   68CHL1   H17 6163   2.534   0.384   3.634 -0.1117 -0.0016 -1.3701
   68CHL1   C13 6164   2.449   0.224   3.510 -0.0965 -0.7908  0.5162
   68CHL1   C18 6165   2.402   0.080   3.538 -0.3962  0.2582 -0.0342
   68CHL1  H18A 6166   2.315   0.074   3.607  0.8379 -0.7656  1.4896
   68CHL1  H18B 6167   2.377   0.024   3.445  1.2019  0.7996 -0.8225
   68CHL1  H18C 6168   2.481   0.021   3.589 -0.9311  1.9149  2.9022
   68CHL1   C12 6169   2.330   0.313   3.455 -0.8410  0.4294  0.3886
   68CHL1  H12A 6170   2.248   0.301   3.530 -0.4586  0.9627  0.9023
   68CHL1  H12B 6171   2.368   0.417   3.455  0.7734 -0.1271 -0.6375
   68CHL1   C11 6172   2.290   0.264   3.316 -0.6992 -0.1429 -0.1581
   68CHL1  H11A 6173   2.222   0.175   3.320  1.4147 -2.0813 -3.0447
   68CHL1  H11B 6174   2.228   0.341   3.266 -1.2142 -0.2608  0.2888
   68CHL1    C9 6175   2.406   0.232   3.210 -0.1824  0.1405 -0.4025
   68CHL1    H9 6176   2.437   0.338   3.193  0.1210  0.4976  1.9859
   68CHL1   C10 6177   2.368   0.172   3.077  0.4291  0.0668 -0.9781
   68CHL1   C19 6178   2.291   0.043   3.104 -0.6467  0.4085 -0.1528
   68CHL1  H19A 6179   2.203   0.051   3.171 -1.9914  1.3403 -1.9458
   68CHL1  H19B 6180   2.246  -0.006   3.015 -1.2553 -4.0245  2.2721
   68CHL1  H19C 6181   2.359  -0.032   3.150  1.1200  1.5979 -0.7139
   68CHL1    C1 6182   2.276   0.272   3.000 -0.5670 -0.1213  0.2270
   68CHL1   H1A 6183   2.179   0.291   3.052 -0.4274  1.4132 -0.0293
   68CHL1   H1B 6184   2.332   0.367   2.995  0.3368 -0.4879  2.3331
   68CHL1    C2 6185   2.247   0.238   2.857  0.5767  0.0302 -0.9991
   68CHL1   H2A 6186   2.190   0.321   2.810 -0.3895 -0.1870 -0.2282
   68CHL1   H2B 6187   2.170   0.158   2.853  1.5365 -0.9341 -0.6588
   68CHL1   C20 6188   2.449   0.252   3.778 -0.1759 -0.9400 -0.4827
   68CHL1   H20 6189   2.398   0.153   3.788 -2.7045  0.3724  0.5976
   68CHL1   C21 6190   2.339   0.363   3.798 -0.5675 -0.0500 -0.2765
   68CHL1  H21A 6191   2.257   0.364   3.723  0.9635  2.0216 -2.0281
   68CHL1  H21B 6192   2.391   0.460   3.785 -1.2176  0.0829 -2.0937
   68CHL1  H21C 6193   2.286   0.362   3.896  0.0763 -0.7382  0.0733
   68CHL1   C22 6194   2.558   0.258   3.888 -0.2821 -0.4168  0.0602
   68CHL1  H22A 6195   2.636   0.181   3.872 -0.1570 -0.6001  1.3719
   68CHL1  H22B 6196   2.614   0.353   3.881  2.9684 -2.1779  0.1740
   68CHL1   C23 6197   2.502   0.226   4.026  1.2853 -0.2561 -0.1006
   68CHL1  H23A 6198   2.441   0.317   4.048 -0.1593 -0.8154 -1.6097
   68CHL1  H23B 6199   2.437   0.136   4.024  3.0943 -1.8871  3.7104
   68CHL1   C24 6200   2.599   0.186   4.138 -0.3033 -0.1260  0.4574
   68CHL1  H24A 6201   2.616   0.076   4.134 -0.7524 -0.2252  1.1541
   68CHL1  H24B 6202   2.692   0.244   4.119 -1.7448  1.9831 -0.5404
   68CHL1   C25 6203   2.555   0.225   4.285  0.7481 -0.0999  0.2514
   68CHL1   H25 6204   2.538   0.334   4.277 -1.0686 -0.4259 -1.0086
   68CHL1   C26 6205   2.414   0.167   4.305  0.2535  0.0059 -0.1424
   68CHL1  H26A 6206   2.370   0.187   4.405 -1.3925 -0.3152 -0.7703
   68CHL1  H26B 6207   2.342   0.206   4.231 -1.3202 -2.2316  0.1010
   68CHL1  H26C 6208   2.414   0.056   4.304 -1.1198 -0.0607  1.9836
   68CHL1   C27 6209   2.650   0.190   4.393 -0.2695 -0.4608  0.3599
   68CHL1  H27A 6210   2.745   0.245   4.379 -0.9947  0.9001  0.5848
   68CHL1  H27B 6211   2.608   0.218   4.493  2.1236  2.5025  0.6781
   68CHL1  H27C 6212   2.660   0.079   4.394  1.2684 -0.3738 -1.4618
   69CHL1    C3 6213   6.217   1.558   2.789  0.1788  1.1504  0.3916
   69CHL1    H3 6214   6.133   1.629   2.803 -1.4732 -0.8262  0.9835
   69CHL1    O3 6215   6.227   1.529   2.653  0.1716 -0.0024 -0.0536
   69CHL1   H3' 6216   6.274   1.447   2.643  1.2169  0.7664 -2.0063
   69CHL1    C4 6217   6.355   1.596   2.842  0.3310  0.3660  0.6176
   69CHL1   H4A 6218   6.431   1.516   2.830  0.3305  0.6126 -1.3989
   69CHL1   H4B 6219   6.386   1.687   2.786 -2.0432  1.3781  0.8118
   69CHL1    C5 6220   6.351   1.615   2.991 -0.6573 -0.2240  0.0868
   69CHL1    C6 6221   6.388   1.734   3.043 -0.6890 -0.4056  0.3308
   69CHL1    H6 6222   6.419   1.816   2.978 -1.0978  0.0956  0.7595
   69CHL1    C7 6223   6.378   1.771   3.187  0.6518  0.5365  0.6304
   69CHL1   H7A 6224   6.474   1.817   3.218  2.4871 -3.1997  1.0798
   69CHL1   H7B 6225   6.305   1.850   3.214  0.0337  1.0421 -2.1561
   69CHL1    C8 6226   6.357   1.647   3.277  0.2943 -0.4795  0.3677
   69CHL1    H8 6227   6.452   1.589   3.273 -0.8643 -2.3748 -1.1388
   69CHL1   C14 6228   6.323   1.685   3.420 -0.7687 -0.2502  0.1783
   69CHL1   H14 6229   6.228   1.742   3.412  0.2289  1.2826 -1.1498
   69CHL1   C15 6230   6.411   1.780   3.495  0.5553  0.5751 -0.2544
   69CHL1  H15A 6231   6.520   1.758   3.504  0.9170  2.3963  0.2634
   69CHL1  H15B 6232   6.396   1.881   3.451 -0.3652 -0.6358 -2.9505
   69CHL1   C16 6233   6.371   1.766   3.644 -0.3233 -0.2188 -0.4604
   69CHL1  H16A 6234   6.452   1.720   3.705 -1.8277  0.9404  2.6463
   69CHL1  H16B 6235   6.326   1.861   3.680  0.5254  0.2543 -0.6293
   69CHL1   C17 6236   6.263   1.651   3.643  0.7124 -0.2150 -0.1979
   69CHL1   H17 6237   6.170   1.705   3.617  1.4395  0.7319 -0.9177
   69CHL1   C13 6238   6.295   1.570   3.518  1.0084 -0.8690  0.5542
   69CHL1   C18 6239   6.420   1.483   3.533  0.7289  0.2684  0.0571
   69CHL1  H18A 6240   6.458   1.448   3.435  0.9023  1.1311 -0.1934
   69CHL1  H18B 6241   6.502   1.545   3.576  1.7331 -0.0577 -1.3361
   69CHL1  H18C 6242   6.416   1.393   3.598 -2.6353  0.4029  0.2077
   69CHL1   C12 6243   6.173   1.489   3.460  0.6013  0.3887  0.3405
   69CHL1  H12A 6244   6.153   1.398   3.521 -1.1733  0.7786  0.4245
   69CHL1  H12B 6245   6.074   1.541   3.467 -2.0065 -3.9198 -0.5722
   69CHL1   C11 6246   6.202   1.443   3.316 -0.5119 -1.0623  0.2954
   69CHL1  H11A 6247   6.274   1.359   3.319  0.5408 -0.1967 -0.0341
   69CHL1  H11B 6248   6.115   1.394   3.269 -0.5255  0.4669 -1.3872
   69CHL1    C9 6249   6.246   1.557   3.217  0.8262 -0.4500 -0.7666
   69CHL1    H9 6250   6.161   1.628   3.204 -0.5201 -1.5838  1.2207
   69CHL1   C10 6251   6.280   1.500   3.077 -0.3265 -0.1548 -0.5674
   69CHL1   C19 6252   6.378   1.379   3.086  0.1049  0.2960  0.0013
   69CHL1  H19A 6253   6.420   1.342   2.990  1.0154 -0.2421  0.5907
   69CHL1  H19B 6254   6.467   1.417   3.141 -0.4657  0.1988  1.0172
   69CHL1  H19C 6255   6.337   1.287   3.133 -1.6872  1.0371 -0.0471
   69CHL1    C1 6256   6.142   1.468   3.008 -0.1251  0.2217  0.2380
   69CHL1   H1A 6257   6.076   1.394   3.058 -0.9140 -0.0730 -1.1775
   69CHL1   H1B 6258   6.089   1.565   3.013  1.8142  1.3495  0.0969
   69CHL1    C2 6259   6.163   1.430   2.864 -0.0920  0.1910 -0.0488
   69CHL1   H2A 6260   6.070   1.388   2.819  0.2353  0.7580 -1.3021
   69CHL1   H2B 6261   6.234   1.346   2.851 -0.3799  0.0440 -0.7423
   69CHL1   C20 6262   6.249   1.587   3.782  0.5202 -0.5419  0.3911
   69CHL1   H20 6263   6.348   1.540   3.802  0.9978  0.3536  0.2012
   69CHL1   C21 6264   6.148   1.478   3.789 -0.1574 -0.0613 -0.2405
   69CHL1  H21A 6265   6.176   1.388   3.730  1.7719  0.1362  0.3053
   69CHL1  H21B 6266   6.049   1.523   3.764  0.5343  1.6024 -0.1299
   69CHL1  H21C 6267   6.136   1.440   3.892 -2.5199  0.1695 -0.3737
   69CHL1   C22 6268   6.222   1.693   3.897 -0.2942  0.6186 -0.1945
   69CHL1  H22A 6269   6.283   1.785   3.883  0.4121  0.2885  0.6211
   69CHL1  H22B 6270   6.115   1.722   3.893 -0.7851 -1.1818 -1.7909
   69CHL1   C23 6271   6.254   1.642   4.040  0.0434 -0.4457  0.0376
   69CHL1  H23A 6272   6.180   1.564   4.069  0.5826 -0.9061  0.1798
   69CHL1  H23B 6273   6.359   1.606   4.039 -0.0749 -0.9745 -2.8785
   69CHL1   C24 6274   6.236   1.754   4.148  0.1836 -0.7047 -0.8081
   69CHL1  H24A 6275   6.280   1.726   4.246 -0.2291  1.4433  0.0362
   69CHL1  H24B 6276   6.296   1.834   4.101 -2.7529  0.8544 -2.2047
   69CHL1   C25 6277   6.090   1.807   4.178 -0.3649 -0.6552 -0.4859
   69CHL1   H25 6278   6.024   1.810   4.089 -1.4721 -0.1705  0.3276
   69CHL1   C26 6279   6.019   1.719   4.285 -0.3734  0.0705  0.2615
   69CHL1  H26A 6280   5.986   1.621   4.246  0.8489  0.0095 -0.6792
   69CHL1  H26B 6281   6.087   1.692   4.368  0.7270  0.0429 -0.6214
   69CHL1  H26C 6282   5.913   1.743   4.308 -0.9126 -1.8733 -0.0442
   69CHL1   C27 6283   6.099   1.952   4.229  0.7891  0.2130  0.5639
   69CHL1  H27A 6284   6.004   2.009   4.241 -0.0388 -1.1199  0.5758
   69CHL1  H27B 6285   6.144   1.945   4.330  0.3489 -2.5103  0.6369
   69CHL1  H27C 6286   6.168   2.009   4.163  2.8245 -2.4195  0.2732
   70CHL1    C3 6287   2.676   1.857   2.900  0.1559  0.2783  0.1336
   70CHL1    H3 6288   2.780   1.827   2.922  0.3352 -1.7397 -2.9065
   70CHL1    O3 6289   2.644   1.864   2.762 -0.0793 -0.3024 -0.0497
   70CHL1   H3' 6290   2.549   1.863   2.751  0.1429  0.1346 -2.3785
   70CHL1    C4 6291   2.586   1.753   2.978 -0.6005  1.0505  0.4635
   70CHL1   H4A 6292   2.480   1.772   2.953 -0.6793 -0.0734 -0.0909
   70CHL1   H4B 6293   2.610   1.651   2.942  1.2990  1.4500  0.5055
   70CHL1    C5 6294   2.606   1.770   3.126  0.5876  0.6580  0.1280
   70CHL1    C6 6295   2.590   1.665   3.210 -0.2227 -0.4527  0.6934
   70CHL1    H6 6296   2.582   1.567   3.163 -1.1516 -0.0855  0.0568
   70CHL1    C7 6297   2.594   1.664   3.356  0.5711 -0.0328  0.1366
   70CHL1   H7A 6298   2.525   1.598   3.413  2.2600 -0.1951  2.0742
   70CHL1   H7B 6299   2.692   1.618   3.377  0.4544 -0.0419  0.6781
   70CHL1    C8 6300   2.598   1.808   3.423 -0.0949 -0.2415 -0.3101
   70CHL1    H8 6301   2.491   1.838   3.426  0.0729  0.3077  0.2904
   70CHL1   C14 6302   2.655   1.814   3.562  0.0694 -0.0587  0.7725
   70CHL1   H14 6303   2.757   1.781   3.533 -0.5327 -0.9906 -0.3841
   70CHL1   C15 6304   2.619   1.708   3.661  0.5833  0.5632 -0.4277
   70CHL1  H15A 6305   2.509   1.721   3.667  0.2245 -1.8133 -0.9155
   70CHL1  H15B 6306   2.634   1.603   3.628  1.4804  0.7445 -0.6282
   70CHL1   C16 6307   2.702   1.752   3.785 -0.3048  0.3740 -0.1672
   70CHL1  H16A 6308   2.656   1.727   3.883 -2.2172 -3.1320 -1.7931
   70CHL1  H16B 6309   2.789   1.684   3.773  0.9071  1.5586  1.3248
   70CHL1   C17 6310   2.734   1.903   3.762  0.3498 -0.3898  0.8585
   70CHL1   H17 6311   2.840   1.926   3.738 -0.2050  1.1682 -0.2447
   70CHL1   C13 6312   2.658   1.944   3.630 -0.2014 -0.1011  0.1103
   70CHL1   C18 6313   2.517   1.997   3.670  0.3725 -0.3919 -0.7352
   70CHL1  H18A 6314   2.444   2.004   3.586 -1.9643 -0.4191  1.1793
   70CHL1  H18B 6315   2.482   1.926   3.748  5.2497 -0.2001  2.0093
   70CHL1  H18C 6316   2.510   2.100   3.709  0.5438 -0.8829  0.6436
   70CHL1   C12 6317   2.732   2.045   3.541  0.2767  0.1250  0.0111
   70CHL1  H12A 6318   2.736   2.142   3.595  2.1123  0.9873 -1.5687
   70CHL1  H12B 6319   2.838   2.012   3.532  0.2053 -0.2955  0.6019
   70CHL1   C11 6320   2.667   2.046   3.401 -0.8213 -1.0214  0.3640
   70CHL1  H11A 6321   2.562   2.081   3.408 -1.0484 -1.3694 -1.0498
   70CHL1  H11B 6322   2.724   2.123   3.345 -0.2116 -1.0884  0.8702
   70CHL1    C9 6323   2.667   1.909   3.328  1.0317  0.0322  0.6669
   70CHL1    H9 6324   2.772   1.877   3.314  1.4580  2.0437 -1.5983
   70CHL1   C10 6325   2.613   1.912   3.184 -0.2472  0.4028  0.3193
   70CHL1   C19 6326   2.467   1.968   3.184  0.2503  0.5564  0.1993
   70CHL1  H19A 6327   2.473   2.074   3.216  2.2450  0.8583 -1.0070
   70CHL1  H19B 6328   2.417   1.963   3.085  1.1041 -0.3675 -0.1951
   70CHL1  H19C 6329   2.402   1.912   3.255 -0.2015 -0.9062 -1.3050
   70CHL1    C1 6330   2.694   2.002   3.099  0.0302 -0.8395  0.1890
   70CHL1   H1A 6331   2.692   2.105   3.140  0.6393  0.3934 -2.6439
   70CHL1   H1B 6332   2.802   1.983   3.115  0.1480 -0.9290 -0.6732
   70CHL1    C2 6333   2.663   2.006   2.952  1.0000  0.3752  0.3202
   70CHL1   H2A 6334   2.737   2.060   2.890  0.9511  1.5095  1.2105
   70CHL1   H2B 6335   2.561   2.049   2.938  1.3965  1.0273 -0.6612
   70CHL1   C20 6336   2.717   1.994   3.893  0.5553  0.4341  0.0050
   70CHL1   H20 6337   2.614   1.966   3.925 -0.1287  1.6891 -0.9809
   70CHL1   C21 6338   2.740   2.144   3.884 -0.4811 -0.6113  0.1973
   70CHL1  H21A 6339   2.663   2.202   3.829 -0.1768  1.5585  1.9456
   70CHL1  H21B 6340   2.839   2.163   3.837 -1.1765 -0.0541 -1.1009
   70CHL1  H21C 6341   2.740   2.198   3.981  1.3950 -0.2656  0.0285
   70CHL1   C22 6342   2.811   1.943   4.012 -0.4234  0.0732  0.5938
   70CHL1  H22A 6343   2.808   1.833   4.020  0.2818  0.0990  1.4083
   70CHL1  H22B 6344   2.914   1.979   3.990 -0.7220 -0.2855 -1.5909
   70CHL1   C23 6345   2.785   1.991   4.151  0.3809  0.0419 -0.3955
   70CHL1  H23A 6346   2.782   2.102   4.152  0.2943  0.0470 -0.9059
   70CHL1  H23B 6347   2.687   1.955   4.188 -0.7408  5.7756  3.6244
   70CHL1   C24 6348   2.898   1.963   4.250 -0.0345 -0.6238 -0.2491
   70CHL1  H24A 6349   2.921   1.854   4.241 -1.1277 -0.8105 -1.0262
   70CHL1  H24B 6350   2.990   2.020   4.226  0.6904 -2.5019 -2.2732
   70CHL1   C25 6351   2.866   2.004   4.396  0.1626 -0.3106 -0.9849
   70CHL1   H25 6352   2.773   1.959   4.438  0.1398  1.3194  0.8647
   70CHL1   C26 6353   2.980   1.966   4.484 -0.0975  0.2493  0.1420
   70CHL1  H26A 6354   2.992   1.857   4.503 -2.2769 -0.0383  0.1101
   70CHL1  H26B 6355   3.073   2.000   4.435  0.6336 -2.7636 -0.7630
   70CHL1  H26C 6356   2.964   2.016   4.582 -0.8882 -0.8379  0.5879
   70CHL1   C27 6357   2.855   2.156   4.427  0.8721  0.3361  0.6522
   70CHL1  H27A 6358   2.763   2.193   4.376  0.2101 -0.3550  1.3174
   70CHL1  H27B 6359   2.831   2.167   4.535 -0.5886 -1.2362  0.5287
   70CHL1  H27C 6360   2.931   2.224   4.383  0.4355  1.3382  1.4009
   71CHL1    C3 6361   5.994   3.262   2.640  1.0331 -0.0028 -0.0046
   71CHL1    H3 6362   6.041   3.362   2.654  1.0210 -0.0315  0.2406
   71CHL1    O3 6363   5.987   3.258   2.497  0.6773  0.3735  0.5542
   71CHL1   H3' 6364   5.928   3.186   2.475 -0.2848  1.5869 -1.0676
   71CHL1    C4 6365   6.054   3.132   2.685  0.1409 -0.2992 -0.5571
   71CHL1   H4A 6366   5.994   3.044   2.655 -0.5771 -0.1213  0.3033
   71CHL1   H4B 6367   6.156   3.132   2.640 -0.1589 -2.5335 -1.3234
   71CHL1    C5 6368   6.062   3.128   2.839  0.2699  1.0016 -0.9744
   71CHL1    C6 6369   6.178   3.110   2.904 -1.2919 -0.6259 -0.1603
   71CHL1    H6 6370   6.267   3.100   2.841 -1.7378  0.3984 -0.9862
   71CHL1    C7 6371   6.199   3.100   3.050  0.1606 -0.0950 -0.5315
   71CHL1   H7A 6372   6.276   3.025   3.077  0.3366 -0.0133 -0.7959
   71CHL1   H7B 6373   6.235   3.198   3.087 -2.7357  1.0009 -0.2856
   71CHL1    C8 6374   6.061   3.085   3.117 -0.3530 -0.1014  0.2146
   71CHL1    H8 6375   6.030   2.980   3.099  1.0285 -0.6204  0.6767
   71CHL1   C14 6376   6.077   3.113   3.268 -0.5637 -1.0431 -0.3892
   71CHL1   H14 6377   6.096   3.222   3.263  0.4559 -1.2421 -1.7796
   71CHL1   C15 6378   6.192   3.047   3.335  0.0206  0.8642 -0.2969
   71CHL1  H15A 6379   6.204   2.941   3.304  2.0776  0.6319  1.0919
   71CHL1  H15B 6380   6.291   3.092   3.312  0.2484  0.1501 -0.7545
   71CHL1   C16 6381   6.156   3.064   3.488  0.0225  0.0775  0.1061
   71CHL1  H16A 6382   6.166   2.966   3.539 -1.7941  0.3825  1.1359
   71CHL1  H16B 6383   6.235   3.136   3.520 -0.3166  0.3386  0.3663
   71CHL1   C17 6384   6.012   3.126   3.494 -0.5214 -0.2083  0.2037
   71CHL1   H17 6385   6.031   3.235   3.500  2.1322 -0.5489 -0.6501
   71CHL1   C13 6386   5.953   3.089   3.356  0.2240 -0.0284  0.4664
   71CHL1   C18 6387   5.920   2.934   3.354  0.1098 -0.4329  0.5852
   71CHL1  H18A 6388   5.899   2.908   3.248 -2.5454 -0.0450  0.9439
   71CHL1  H18B 6389   6.004   2.871   3.390  0.8463 -0.8007 -1.5857
   71CHL1  H18C 6390   5.828   2.913   3.414  0.9230 -1.5600  1.4709
   71CHL1   C12 6391   5.847   3.175   3.296 -0.1999  0.0252 -0.0415
   71CHL1  H12A 6392   5.756   3.149   3.355 -0.5414 -0.2568 -0.6817
   71CHL1  H12B 6393   5.875   3.281   3.315  0.0519 -0.0855  0.2105
   71CHL1   C11 6394   5.824   3.160   3.142 -0.4977  0.7874 -0.6023
   71CHL1  H11A 6395   5.779   3.061   3.120  0.7373  0.3112 -1.0647
   71CHL1  H11B 6396   5.751   3.241   3.119  0.1024  3.0839  4.2026
   71CHL1    C9 6397   5.953   3.174   3.060  0.0995  0.4291  0.0805
   71CHL1    H9 6398   5.994   3.277   3.071  2.4244 -0.4115 -0.1469
   71CHL1   C10 6399   5.924   3.151   2.912 -0.0647  0.5388  0.6770
   71CHL1   C19 6400   5.832   3.029   2.893 -0.1020  0.3131  0.2026
   71CHL1  H19A 6401   5.842   2.979   2.794  0.9606  1.1916 -0.1610
   71CHL1  H19B 6402   5.854   2.947   2.965 -1.1784 -2.3426 -2.2772
   71CHL1  H19C 6403   5.727   3.060   2.911  0.1685  1.1187  0.4363
   71CHL1    C1 6404   5.861   3.280   2.852 -0.4653  0.5649  0.8411
   71CHL1   H1A 6405   5.762   3.307   2.895 -0.7180  0.3075  0.4218
   71CHL1   H1B 6406   5.928   3.361   2.887  1.8749 -1.0095  0.1977
   71CHL1    C2 6407   5.847   3.273   2.694  0.2637 -0.3812  0.0784
   71CHL1   H2A 6408   5.796   3.366   2.660  0.9693 -0.2986 -0.8298
   71CHL1   H2B 6409   5.779   3.190   2.665 -0.1904  0.2550 -0.7150
   71CHL1   C20 6410   5.939   3.083   3.617  1.1540 -0.4642  0.0759
   71CHL1   H20 6411   5.909   2.977   3.609 -0.1606 -0.1615  0.7829
   71CHL1   C21 6412   5.813   3.163   3.645 -0.1003 -0.2846  0.3345
   71CHL1  H21A 6413   5.758   3.125   3.733 -0.2155 -1.1882 -0.1148
   71CHL1  H21B 6414   5.750   3.151   3.554 -0.3651 -1.0753  0.6137
   71CHL1  H21C 6415   5.847   3.268   3.661 -0.7765  0.3350 -1.8806
   71CHL1   C22 6416   6.029   3.088   3.745 -0.5082 -0.3059  0.7488
   71CHL1  H22A 6417   6.108   3.011   3.734 -1.5546 -1.0668 -3.0265
   71CHL1  H22B 6418   6.080   3.186   3.755  0.1431 -0.3329 -1.7246
   71CHL1   C23 6419   5.955   3.065   3.878 -0.1099 -0.5031  0.4672
   71CHL1  H23A 6420   6.026   3.073   3.963 -1.2972 -1.0427  1.5294
   71CHL1  H23B 6421   5.884   3.148   3.897  1.0155  0.0670  2.4515
   71CHL1   C24 6422   5.884   2.932   3.901 -0.5498  0.2676  0.0177
   71CHL1  H24A 6423   5.794   2.942   3.836  0.8372 -0.3137 -2.0920
   71CHL1  H24B 6424   5.941   2.843   3.868  0.0294  0.3064  0.8918
   71CHL1   C25 6425   5.821   2.918   4.040 -0.0922  0.2591  0.7487
   71CHL1   H25 6426   5.910   2.892   4.102  0.6543 -2.2673 -1.2055
   71CHL1   C26 6427   5.764   3.046   4.098  0.3140 -0.1819  0.1429
   71CHL1  H26A 6428   5.688   3.103   4.041  2.0664  0.8939 -1.2314
   71CHL1  H26B 6429   5.713   3.019   4.193  2.1296 -0.5063  1.0728
   71CHL1  H26C 6430   5.845   3.118   4.120 -1.9685  2.1639  1.3272
   71CHL1   C27 6431   5.734   2.795   4.038  0.5911  0.5303  0.3237
   71CHL1  H27A 6432   5.792   2.707   4.003  2.3233  1.5198  0.6032
   71CHL1  H27B 6433   5.690   2.785   4.140 -2.3778 -0.0039 -0.8806
   71CHL1  H27C 6434   5.651   2.825   3.970 -0.0749 -0.1497  0.8164
   72CHL1    C3 6435   6.165   6.477   2.351  0.4589 -0.2205  0.3412
   72CHL1    H3 6436   6.092   6.555   2.383  0.4798  0.4987 -1.2949
   72CHL1    O3 6437   6.157   6.490   2.211  0.0224 -0.8469 -0.8948
   72CHL1   H3' 6438   6.214   6.422   2.173 -3.3843 -2.4591 -3.7410
   72CHL1    C4 6439   6.302   6.515   2.404 -0.0350  0.5501 -0.2492
   72CHL1   H4A 6440   6.368   6.442   2.353  1.3029  0.6220  1.3288
   72CHL1   H4B 6441   6.325   6.614   2.358 -0.4217  0.1972 -1.2212
   72CHL1    C5 6442   6.306   6.507   2.561  0.0314 -0.1359 -0.1548
   72CHL1    C6 6443   6.327   6.610   2.644 -0.0547 -0.3469 -0.9093
   72CHL1    H6 6444   6.355   6.710   2.609 -0.5939  0.5069  0.9377
   72CHL1    C7 6445   6.322   6.588   2.796  0.0573  1.2220  0.3711
   72CHL1   H7A 6446   6.405   6.646   2.841 -0.7115  1.3350  1.6998
   72CHL1   H7B 6447   6.224   6.626   2.830 -2.2106 -1.7695 -2.1878
   72CHL1    C8 6448   6.339   6.439   2.847  0.9317  0.3789 -0.1805
   72CHL1    H8 6449   6.441   6.404   2.819  0.8159  1.3961 -2.0566
   72CHL1   C14 6450   6.327   6.413   2.998  0.6273 -0.4009 -0.6605
   72CHL1   H14 6451   6.224   6.448   3.021  0.5633 -1.3490  0.5509
   72CHL1   C15 6452   6.419   6.496   3.088 -0.1916 -0.6322 -0.1886
   72CHL1  H15A 6453   6.525   6.490   3.056 -0.1741 -0.8334 -0.0955
   72CHL1  H15B 6454   6.401   6.605   3.091 -1.6226 -0.8670  0.4176
   72CHL1   C16 6455   6.387   6.432   3.223  0.1936  0.5187 -0.0425
   72CHL1  H16A 6456   6.487   6.420   3.269  0.2156  2.2890  0.4449
   72CHL1  H16B 6457   6.320   6.488   3.292 -0.9974 -2.4325  1.3840
   72CHL1   C17 6458   6.322   6.296   3.195  0.2876 -0.5118 -0.0455
   72CHL1   H17 6459   6.213   6.297   3.218  0.1218  0.4107 -0.8185
   72CHL1   C13 6460   6.324   6.270   3.044  0.6390  0.6035  1.1685
   72CHL1   C18 6461   6.459   6.203   3.008  0.3526 -0.1520  0.4652
   72CHL1  H18A 6462   6.475   6.208   2.898 -0.2464 -3.1409  0.1745
   72CHL1  H18B 6463   6.543   6.262   3.050  0.7163  0.5494 -1.1764
   72CHL1  H18C 6464   6.456   6.095   3.033 -2.4663 -1.0214 -2.8317
   72CHL1   C12 6465   6.205   6.197   2.976  0.2271 -0.1952 -0.7439
   72CHL1  H12A 6466   6.203   6.091   3.008 -0.6525 -0.2030 -0.8249
   72CHL1  H12B 6467   6.107   6.236   3.010  0.3215  1.7366 -2.4209
   72CHL1   C11 6468   6.213   6.210   2.823 -0.3046  0.3806 -1.0256
   72CHL1  H11A 6469   6.306   6.155   2.796  1.2024  1.1640  2.0931
   72CHL1  H11B 6470   6.128   6.160   2.771  0.5721 -0.3590 -1.7775
   72CHL1    C9 6471   6.235   6.356   2.770 -0.3336 -0.5097  0.1349
   72CHL1    H9 6472   6.138   6.405   2.790 -0.1158 -0.7212  1.8676
   72CHL1   C10 6473   6.261   6.359   2.617 -0.2578 -1.1023 -0.1780
   72CHL1   C19 6474   6.375   6.255   2.569  0.3758 -0.7512  0.2118
   72CHL1  H19A 6475   6.354   6.150   2.599 -1.0942 -1.4657 -2.8999
   72CHL1  H19B 6476   6.365   6.241   2.459  0.7470 -1.8644  0.2985
   72CHL1  H19C 6477   6.475   6.285   2.608  0.1672  0.3755 -0.1044
   72CHL1    C1 6478   6.120   6.327   2.549 -0.2582  0.5420  0.7929
   72CHL1   H1A 6479   6.100   6.217   2.554 -0.1588  0.3490 -1.7550
   72CHL1   H1B 6480   6.030   6.373   2.595 -1.3800 -0.9187  0.1415
   72CHL1    C2 6481   6.124   6.343   2.398  0.3328 -0.2677  0.6893
   72CHL1   H2A 6482   6.032   6.295   2.356 -0.4634 -0.6259  2.7291
   72CHL1   H2B 6483   6.196   6.274   2.349  1.4047  0.8275  0.6859
   72CHL1   C20 6484   6.374   6.186   3.291  0.2673  0.1657 -1.0984
   72CHL1   H20 6485   6.483   6.182   3.275  0.3107 -1.7298 -0.4959
   72CHL1   C21 6486   6.308   6.051   3.267  0.1321 -0.2892 -0.0941
   72CHL1  H21A 6487   6.197   6.055   3.280 -0.1209  2.6664 -2.1653
   72CHL1  H21B 6488   6.334   5.969   3.336  0.8358  0.4967  0.5870
   72CHL1  H21C 6489   6.315   5.999   3.169 -1.3459  0.2198 -0.5065
   72CHL1   C22 6490   6.366   6.222   3.445  1.0766  0.6263  0.5658
   72CHL1  H22A 6491   6.407   6.137   3.503  0.4582  0.3417  0.5896
   72CHL1  H22B 6492   6.425   6.313   3.472  3.0011 -0.2401 -0.5387
   72CHL1   C23 6493   6.221   6.241   3.501 -0.6136  0.4979 -0.8115
   72CHL1  H23A 6494   6.166   6.298   3.424 -0.0399 -1.4888 -2.7882
   72CHL1  H23B 6495   6.165   6.146   3.518 -0.6553  0.7089  0.3489
   72CHL1   C24 6496   6.212   6.313   3.635 -0.0233 -0.2901 -0.0579
   72CHL1  H24A 6497   6.278   6.402   3.628 -1.9336  1.3035  1.2568
   72CHL1  H24B 6498   6.111   6.357   3.649 -0.4265 -0.9130 -0.9482
   72CHL1   C25 6499   6.260   6.228   3.757 -0.2271  0.5182  0.2563
   72CHL1   H25 6500   6.362   6.196   3.726 -0.3741  0.1594  0.1305
   72CHL1   C26 6501   6.257   6.306   3.890  0.4360 -0.0799  0.2035
   72CHL1  H26A 6502   6.160   6.348   3.922 -0.0612 -0.2258 -1.0704
   72CHL1  H26B 6503   6.291   6.243   3.975  0.3356  0.9128  1.0048
   72CHL1  H26C 6504   6.322   6.396   3.880  0.0078  0.1228 -0.7943
   72CHL1   C27 6505   6.184   6.099   3.789 -0.5893  0.7622  0.0828
   72CHL1  H27A 6506   6.082   6.126   3.824 -0.5512  0.9420  0.0561
   72CHL1  H27B 6507   6.170   6.035   3.700  0.9384  0.6205 -0.0762
   72CHL1  H27C 6508   6.242   6.047   3.869  1.9528  0.7251 -1.6988
   73CHL1    C3 6509   2.335   0.607   2.596  0.1401 -0.0979 -0.5126
   73CHL1    H3 6510   2.327   0.496   2.602  1.2928 -0.3864 -3.2647
   73CHL1    O3 6511   2.367   0.642   2.463  0.7945 -0.1665 -0.6891
   73CHL1   H3' 6512   2.460   0.620   2.452  0.7201 -1.6383  1.1847
   73CHL1    C4 6513   2.193   0.668   2.624 -0.2411 -0.3109 -0.5106
   73CHL1   H4A 6514   2.181   0.770   2.581 -1.9770 -0.2194  0.1063
   73CHL1   H4B 6515   2.113   0.615   2.568 -0.9498  0.1213  0.0785
   73CHL1    C5 6516   2.150   0.651   2.773 -0.3045  0.6367  0.0538
   73CHL1    C6 6517   2.037   0.583   2.810 -0.2273  0.7371  0.3675
   73CHL1    H6 6518   1.968   0.530   2.742  1.0573 -1.6704  0.8550
   73CHL1    C7 6519   1.987   0.578   2.951  0.3801  0.0321  1.0068
   73CHL1   H7A 6520   1.881   0.612   2.943 -0.0718 -1.7463 -2.6341
   73CHL1   H7B 6521   1.986   0.474   2.988 -1.2814 -0.3046  0.1212
   73CHL1    C8 6522   2.066   0.669   3.047  0.0281  0.3224  0.0842
   73CHL1    H8 6523   2.022   0.770   3.032 -0.9844 -0.1995 -0.6160
   73CHL1   C14 6524   2.042   0.610   3.188  0.0447  0.7280 -0.0520
   73CHL1   H14 6525   2.068   0.504   3.207 -0.1976  1.3276  5.0001
   73CHL1   C15 6526   1.896   0.604   3.236  0.5190  0.0027 -0.0500
   73CHL1  H15A 6527   1.846   0.701   3.214 -0.2884 -0.7883 -1.9814
   73CHL1  H15B 6528   1.844   0.520   3.183  0.7109 -1.5181  2.0493
   73CHL1   C16 6529   1.903   0.580   3.391 -0.0603  0.5282 -0.4291
   73CHL1  H16A 6530   1.836   0.654   3.439  0.8408  0.1341  1.5402
   73CHL1  H16B 6531   1.873   0.485   3.439  1.7238  0.7385  1.2006
   73CHL1   C17 6532   2.054   0.610   3.428  0.3572  0.3688 -0.4046
   73CHL1   H17 6533   2.098   0.508   3.427 -1.9439 -0.7083 -1.8162
   73CHL1   C13 6534   2.116   0.684   3.302 -0.3944 -0.2381 -0.2667
   73CHL1   C18 6535   2.074   0.834   3.304  0.2631  0.1242 -0.2402
   73CHL1  H18A 6536   2.113   0.899   3.385 -0.0020 -0.7378  0.5851
   73CHL1  H18B 6537   2.108   0.871   3.205 -1.2708 -2.3075 -1.7769
   73CHL1  H18C 6538   1.964   0.850   3.304  0.3978  1.1485 -0.5904
   73CHL1   C12 6539   2.263   0.682   3.261  0.5884  0.4865 -0.1345
   73CHL1  H12A 6540   2.317   0.737   3.341  1.2983  0.6781 -0.7325
   73CHL1  H12B 6541   2.287   0.574   3.246  0.3074 -0.0440  2.6810
   73CHL1   C11 6542   2.297   0.756   3.126  0.0222 -0.4621 -0.2078
   73CHL1  H11A 6543   2.288   0.867   3.126  1.6612 -0.3077 -0.1909
   73CHL1  H11B 6544   2.406   0.740   3.111  0.3030 -0.5059  1.6505
   73CHL1    C9 6545   2.218   0.670   3.013  0.1545 -0.6535 -0.4009
   73CHL1    H9 6546   2.239   0.564   3.038 -4.1981 -0.8174  4.0690
   73CHL1   C10 6547   2.251   0.714   2.871  0.4602  0.3480  0.3457
   73CHL1   C19 6548   2.243   0.867   2.860  0.2367 -0.1519  0.1213
   73CHL1  H19A 6549   2.316   0.914   2.929  0.6817  0.4000 -0.7130
   73CHL1  H19B 6550   2.277   0.892   2.758  2.3180  0.2244  0.8527
   73CHL1  H19C 6551   2.141   0.904   2.887  0.0512 -0.7728  0.2865
   73CHL1    C1 6552   2.401   0.666   2.850  0.4099  0.0318 -0.1951
   73CHL1   H1A 6553   2.465   0.739   2.903 -2.7281  1.3589  2.0647
   73CHL1   H1B 6554   2.427   0.563   2.881  1.6674  0.6481  0.8901
   73CHL1    C2 6555   2.440   0.664   2.696 -0.2806  0.1343  0.0708
   73CHL1   H2A 6556   2.538   0.613   2.690  0.6834  1.9981 -0.9486
   73CHL1   H2B 6557   2.469   0.767   2.667  0.7589 -0.6765 -1.9560
   73CHL1   C20 6558   2.068   0.665   3.572 -0.3511 -0.2521 -0.0660
   73CHL1   H20 6559   2.013   0.760   3.592 -1.7587 -1.3340  1.4283
   73CHL1   C21 6560   2.221   0.714   3.591  0.8371  0.5139 -0.0798
   73CHL1  H21A 6561   2.296   0.633   3.583  1.7509  1.1620  1.4490
   73CHL1  H21B 6562   2.228   0.747   3.697 -1.8318 -0.4312  0.4666
   73CHL1  H21C 6563   2.245   0.798   3.522 -0.1026  0.9863  0.1449
   73CHL1   C22 6564   2.033   0.558   3.681  0.2350  0.0202  0.6010
   73CHL1  H22A 6565   1.925   0.545   3.660 -0.1657  0.2155  2.3819
   73CHL1  H22B 6566   2.089   0.463   3.667 -0.6548 -0.9318  2.9791
   73CHL1   C23 6567   2.043   0.601   3.834  0.4129 -0.0670  0.1178
   73CHL1  H23A 6568   2.149   0.631   3.852  0.0124  1.9920 -0.6604
   73CHL1  H23B 6569   1.983   0.694   3.845  0.9240  0.3246 -0.3314
   73CHL1   C24 6570   1.987   0.502   3.938 -0.2747  0.1062  1.1020
   73CHL1  H24A 6571   1.877   0.492   3.927 -0.0234 -0.8684 -1.0823
   73CHL1  H24B 6572   2.041   0.408   3.912 -1.1823 -0.4118  1.0476
   73CHL1   C25 6573   2.008   0.523   4.089  0.3606 -0.2551 -0.6399
   73CHL1   H25 6574   2.109   0.566   4.105  0.0691 -0.5384  2.4431
   73CHL1   C26 6575   1.905   0.632   4.136 -0.0683 -0.7555 -0.3230
   73CHL1  H26A 6576   1.800   0.623   4.102 -0.5960  3.1386 -0.2233
   73CHL1  H26B 6577   1.923   0.645   4.245  3.4109  0.5084 -0.9065
   73CHL1  H26C 6578   1.945   0.730   4.102  0.1000 -0.8638 -0.4404
   73CHL1   C27 6579   2.005   0.390   4.168 -0.1052  0.7292  0.1388
   73CHL1  H27A 6580   1.998   0.414   4.276 -0.9293 -3.3957  1.1780
   73CHL1  H27B 6581   1.908   0.338   4.151 -0.5736  1.4219  0.6371
   73CHL1  H27C 6582   2.086   0.318   4.142 -1.1038 -0.4762  0.2991
   74CHL1    C3 6583   0.644   1.270   2.793  0.3465 -0.3086 -0.1955
   74CHL1    H3 6584   0.677   1.374   2.817  0.4159  0.1275 -1.9859
   74CHL1    O3 6585   0.619   1.280   2.651 -0.6101 -0.0051  0.0588
   74CHL1   H3' 6586   0.704   1.264   2.609 -1.3515 -0.7547 -1.2465
   74CHL1    C4 6587   0.740   1.161   2.834  0.0619  0.1193  0.2040
   74CHL1   H4A 6588   0.705   1.057   2.813 -1.3000  0.6923 -0.5476
   74CHL1   H4B 6589   0.832   1.168   2.773 -0.8310  1.1719 -1.0877
   74CHL1    C5 6590   0.764   1.165   2.985  0.3081  0.3032 -0.5704
   74CHL1    C6 6591   0.885   1.193   3.034 -0.3786  0.4243 -0.0597
   74CHL1    H6 6592   0.966   1.221   2.965  1.1886  2.0194  2.2562
   74CHL1    C7 6593   0.917   1.203   3.181 -0.2331  0.9188  0.1697
   74CHL1   H7A 6594   0.993   1.123   3.195 -0.6945  0.2728 -0.9331
   74CHL1   H7B 6595   0.988   1.284   3.206  3.6291 -1.4705 -1.9927
   74CHL1    C8 6596   0.800   1.160   3.282  0.4493 -0.1168 -0.1150
   74CHL1    H8 6597   0.800   1.049   3.290 -0.9137 -0.0956  0.4543
   74CHL1   C14 6598   0.816   1.233   3.412  0.0261  0.1470 -0.3948
   74CHL1   H14 6599   0.794   1.339   3.385 -1.4591 -0.0522 -0.0438
   74CHL1   C15 6600   0.949   1.224   3.495  0.4272 -0.1911  0.1706
   74CHL1  H15A 6601   0.985   1.120   3.505  3.3435  0.8560  1.7186
   74CHL1  H15B 6602   1.013   1.296   3.440  1.0310  0.6965  1.9705
   74CHL1   C16 6603   0.905   1.282   3.632  0.4778  0.2445  0.0111
   74CHL1  H16A 6604   0.931   1.211   3.713 -1.3055  0.9061  1.2208
   74CHL1  H16B 6605   0.953   1.377   3.664  0.5860  0.5536 -1.0240
   74CHL1   C17 6606   0.751   1.291   3.637 -0.1408 -0.3505  0.5497
   74CHL1   H17 6607   0.734   1.393   3.597  1.9366 -0.4624 -0.7096
   74CHL1   C13 6608   0.702   1.210   3.515  0.4222  0.0815 -0.2253
   74CHL1   C18 6609   0.704   1.058   3.555  0.6036 -0.4688  0.2648
   74CHL1  H18A 6610   0.625   1.025   3.625  1.5674 -0.1201  1.5756
   74CHL1  H18B 6611   0.692   0.995   3.465  0.8548 -1.7297  1.0866
   74CHL1  H18C 6612   0.799   1.024   3.602  0.5585 -1.8589 -0.6022
   74CHL1   C12 6613   0.569   1.249   3.459  0.5477  0.8744 -0.2796
   74CHL1  H12A 6614   0.483   1.214   3.521  1.4559 -1.1625 -0.1017
   74CHL1  H12B 6615   0.560   1.359   3.452 -0.5042  1.1147  3.0893
   74CHL1   C11 6616   0.546   1.177   3.314 -0.0886  1.6014 -0.4005
   74CHL1  H11A 6617   0.535   1.070   3.342 -0.2739  1.7601  0.1436
   74CHL1  H11B 6618   0.454   1.225   3.276 -0.2240  2.9940  1.5352
   74CHL1    C9 6619   0.663   1.205   3.216  0.2436  0.8121  0.3183
   74CHL1    H9 6620   0.677   1.315   3.213  3.0570  0.5269 -0.5367
   74CHL1   C10 6621   0.641   1.153   3.074 -0.0743  0.4574 -0.6096
   74CHL1   C19 6622   0.591   1.007   3.074 -0.1809  0.8645 -0.5547
   74CHL1  H19A 6623   0.578   0.970   2.970 -2.2100 -1.2503  0.3669
   74CHL1  H19B 6624   0.666   0.946   3.128 -2.4327 -1.3356  0.2572
   74CHL1  H19C 6625   0.498   0.987   3.131  1.0543 -1.0077  0.9420
   74CHL1    C1 6626   0.532   1.243   3.016  0.2914 -0.6967 -0.7479
   74CHL1   H1A 6627   0.432   1.213   3.055 -0.1042  3.0125  1.7245
   74CHL1   H1B 6628   0.549   1.347   3.051 -0.8619 -0.2154 -1.5507
   74CHL1    C2 6629   0.513   1.252   2.866 -0.3952 -0.4379 -0.6113
   74CHL1   H2A 6630   0.444   1.337   2.846 -1.9310 -1.3716  0.4905
   74CHL1   H2B 6631   0.463   1.160   2.831 -4.8576  1.7402 -0.6623
   74CHL1   C20 6632   0.688   1.279   3.780 -0.1123  0.4931 -0.4992
   74CHL1   H20 6633   0.695   1.173   3.811 -2.5616 -0.0400 -1.5338
   74CHL1   C21 6634   0.535   1.310   3.782  0.1117 -0.1435 -0.2756
   74CHL1  H21A 6635   0.509   1.408   3.738 -0.5096 -1.1146 -2.2029
   74CHL1  H21B 6636   0.492   1.306   3.885  0.5745  2.0568  0.0393
   74CHL1  H21C 6637   0.472   1.229   3.737 -1.0299 -0.0855  1.1291
   74CHL1   C22 6638   0.756   1.371   3.893 -0.0417 -0.0686  0.6032
   74CHL1  H22A 6639   0.867   1.368   3.885  0.0943 -1.5608  2.3535
   74CHL1  H22B 6640   0.720   1.476   3.882 -0.0631 -0.2945 -2.2518
   74CHL1   C23 6641   0.728   1.328   4.040 -0.7189  0.6607  0.6362
   74CHL1  H23A 6642   0.619   1.321   4.062 -0.9818  3.3226  0.4792
   74CHL1  H23B 6643   0.778   1.231   4.061  1.9121  1.8175  0.0899
   74CHL1   C24 6644   0.787   1.422   4.144 -0.3326  0.3124  0.0445
   74CHL1  H24A 6645   0.883   1.462   4.104  0.2257 -1.9246 -0.9888
   74CHL1  H24B 6646   0.707   1.498   4.150 -0.8136 -0.1615 -0.3051
   74CHL1   C25 6647   0.791   1.372   4.289  0.6340  0.1202  0.2095
   74CHL1   H25 6648   0.691   1.332   4.316  1.2905 -0.5503  1.8198
   74CHL1   C26 6649   0.877   1.249   4.315  0.7224 -0.4514 -0.1577
   74CHL1  H26A 6650   0.981   1.275   4.285 -0.0258  1.3304 -1.3943
   74CHL1  H26B 6651   0.869   1.221   4.422 -0.0598 -0.4097 -0.2023
   74CHL1  H26C 6652   0.840   1.161   4.258 -1.4278 -0.0285  0.5248
   74CHL1   C27 6653   0.831   1.482   4.385  0.4392 -0.2257 -0.4617
   74CHL1  H27A 6654   0.805   1.456   4.490 -0.2456  1.6196 -0.1214
   74CHL1  H27B 6655   0.939   1.505   4.381  0.8176 -2.0408 -1.5182
   74CHL1  H27C 6656   0.769   1.571   4.359 -2.4467 -1.2464  2.2661
   75CHL1    C3 6657   1.811   0.043   3.020 -0.4072 -0.1287  0.0955
   75CHL1    H3 6658   1.871  -0.051   3.018 -1.4711 -0.8262 -1.9563
   75CHL1    O3 6659   1.774   0.061   2.887 -0.1117  0.2814  0.2827
   75CHL1   H3' 6660   1.838   0.119   2.845  1.1721 -0.8896  0.5281
   75CHL1    C4 6661   1.689   0.014   3.105  0.3607 -0.3132  0.3528
   75CHL1   H4A 6662   1.616   0.098   3.101  1.4115  0.5548 -1.3570
   75CHL1   H4B 6663   1.621  -0.068   3.072 -1.3603 -0.6361  4.1433
   75CHL1    C5 6664   1.733  -0.019   3.251  0.3666  0.0266  0.1990
   75CHL1    C6 6665   1.713  -0.140   3.305  0.5311 -0.7510 -0.4957
   75CHL1    H6 6666   1.657  -0.220   3.254  1.0929 -0.6486 -1.2990
   75CHL1    C7 6667   1.729  -0.170   3.450 -0.0067 -0.2343  0.4953
   75CHL1   H7A 6668   1.637  -0.219   3.490  0.9785 -2.0719  0.6279
   75CHL1   H7B 6669   1.817  -0.237   3.462 -0.6903 -1.7574 -2.1637
   75CHL1    C8 6670   1.764  -0.042   3.536 -0.0627  0.0891 -0.1235
   75CHL1    H8 6671   1.670   0.012   3.558 -0.8439 -2.3408  3.3347
   75CHL1   C14 6672   1.826  -0.098   3.660  0.1482 -0.5409  0.7892
   75CHL1   H14 6673   1.916  -0.156   3.631 -2.0230 -3.9131  0.2076
   75CHL1   C15 6674   1.748  -0.199   3.742  0.2552 -0.4079 -0.4499
   75CHL1  H15A 6675   1.640  -0.178   3.755  0.3310 -1.4779  2.7433
   75CHL1  H15B 6676   1.751  -0.297   3.690 -3.2667 -0.8226 -0.1228
   75CHL1   C16 6677   1.823  -0.203   3.879  0.1969 -0.3889 -0.1412
   75CHL1  H16A 6678   1.750  -0.173   3.957 -3.4954  0.1378 -3.4533
   75CHL1  H16B 6679   1.866  -0.303   3.905  0.6159 -0.0629  0.4584
   75CHL1   C17 6680   1.924  -0.084   3.867 -0.2981 -0.1234  0.1488
   75CHL1   H17 6681   2.012  -0.138   3.825 -0.8985 -0.0989 -1.2074
   75CHL1   C13 6682   1.872   0.010   3.761  0.2511  0.3260  0.0222
   75CHL1   C18 6683   1.756   0.093   3.816 -1.0754  0.1258 -0.4325
   75CHL1  H18A 6684   1.702   0.029   3.888 -0.2554  0.8009  0.8208
   75CHL1  H18B 6685   1.799   0.173   3.879  0.1361  1.3112 -2.6555
   75CHL1  H18C 6686   1.686   0.143   3.745 -2.5053  1.3400  1.7254
   75CHL1   C12 6687   1.975   0.098   3.685 -0.0281  0.4963  0.9725
   75CHL1  H12A 6688   2.018   0.177   3.750  1.2364 -0.0321  0.8050
   75CHL1  H12B 6689   2.063   0.033   3.670 -1.7148 -1.6569 -0.1598
   75CHL1   C11 6690   1.920   0.153   3.555  0.1444  0.0434 -0.5710
   75CHL1  H11A 6691   1.841   0.230   3.571 -0.8276 -1.1676  0.6809
   75CHL1  H11B 6692   2.008   0.205   3.511 -0.7218  2.0377 -0.0720
   75CHL1    C9 6693   1.863   0.048   3.459 -0.1955 -0.6710  0.2149
   75CHL1    H9 6694   1.944  -0.026   3.438 -0.7879 -1.3234  0.2151
   75CHL1   C10 6695   1.808   0.096   3.317  0.0164 -0.5785 -0.2522
   75CHL1   C19 6696   1.721   0.219   3.343  0.8280 -0.0817  0.0413
   75CHL1  H19A 6697   1.782   0.295   3.397  0.5497 -0.6659  1.2057
   75CHL1  H19B 6698   1.692   0.260   3.244  1.2639  0.8027  0.2687
   75CHL1  H19C 6699   1.633   0.204   3.409 -0.1497 -0.8713 -1.4105
   75CHL1    C1 6700   1.926   0.148   3.230 -0.0328  1.0516 -0.1422
   75CHL1   H1A 6701   1.965   0.243   3.271 -0.7534  1.3737 -0.1761
   75CHL1   H1B 6702   2.001   0.068   3.244  0.8939  2.1811  1.7505
   75CHL1    C2 6703   1.889   0.164   3.078 -0.2087  0.3198  0.0544
   75CHL1   H2A 6704   1.977   0.188   3.015 -0.2958  0.2119 -0.1082
   75CHL1   H2B 6705   1.818   0.250   3.078  0.5038  0.9162  0.2605
   75CHL1   C20 6706   1.971  -0.023   4.002  0.4046  0.5567  0.1189
   75CHL1   H20 6707   1.891   0.047   4.034 -1.9112 -1.1081 -1.6569
   75CHL1   C21 6708   2.097   0.059   3.975  0.6534  0.5410  0.1560
   75CHL1  H21A 6709   2.087   0.168   3.956  1.4528  0.5473 -0.3150
   75CHL1  H21B 6710   2.139   0.023   3.878  2.8873 -1.9653  1.8980
   75CHL1  H21C 6711   2.174   0.026   4.048 -1.4055 -0.0045  2.1508
   75CHL1   C22 6712   1.998  -0.131   4.103  0.0403  0.5658 -0.4191
   75CHL1  H22A 6713   1.903  -0.186   4.118  0.3303 -0.1986 -1.3368
   75CHL1  H22B 6714   2.069  -0.208   4.065 -0.6578 -0.4315  0.2354
   75CHL1   C23 6715   2.045  -0.089   4.238  0.2673 -0.7065  0.0261
   75CHL1  H23A 6716   2.064  -0.181   4.297  2.5563 -0.7272 -0.6358
   75CHL1  H23B 6717   2.146  -0.043   4.231 -0.1603  0.1162 -1.0216
   75CHL1   C24 6718   1.947  -0.000   4.315 -0.1407 -0.3397  0.0546
   75CHL1  H24A 6719   1.950   0.093   4.255  0.4689  0.9124  1.9442
   75CHL1  H24B 6720   1.847  -0.045   4.297 -0.2636  0.1364 -0.5076
   75CHL1   C25 6721   1.972   0.031   4.461  0.2792  0.7112 -0.3830
   75CHL1   H25 6722   1.971  -0.066   4.515 -0.9286  0.1955 -1.2936
   75CHL1   C26 6723   2.102   0.110   4.470 -1.1159 -0.2874 -0.2040
   75CHL1  H26A 6724   2.111   0.148   4.574  0.9439  0.4136 -0.5935
   75CHL1  H26B 6725   2.194   0.055   4.442 -0.5122  0.2242  0.7022
   75CHL1  H26C 6726   2.108   0.207   4.417  2.3573  1.2461  2.5921
   75CHL1   C27 6727   1.850   0.103   4.525 -0.1442  0.2292 -0.6945
   75CHL1  H27A 6728   1.831   0.200   4.474 -0.1919  2.8296  3.7620
   75CHL1  H27B 6729   1.760   0.039   4.512  1.3456 -1.8883 -0.9875
   75CHL1  H27C 6730   1.860   0.119   4.634 -0.0811  1.5566 -0.8795
   76CHL1    C3 6731   6.884   1.553   2.844  0.4063  0.2381 -0.3863
   76CHL1    H3 6732   6.953   1.638   2.865  4.2379 -2.0873 -2.3510
   76CHL1    O3 6733   6.874   1.523   2.705  0.4955 -0.0173 -0.1768
   76CHL1   H3' 6734   6.956   1.489   2.668 -0.3358 -0.9453 -1.2027
   76CHL1    C4 6735   6.959   1.434   2.902 -0.6280 -0.3374 -0.0721
   76CHL1   H4A 6736   6.898   1.346   2.874 -3.4432  1.9233 -1.5495
   76CHL1   H4B 6737   7.059   1.427   2.852  0.2975  1.5239  1.3825
   76CHL1    C5 6738   6.975   1.440   3.055 -0.0347  0.2567 -0.9605
   76CHL1    C6 6739   7.100   1.431   3.109  0.1889  0.4173  0.2299
   76CHL1    H6 6740   7.187   1.409   3.046 -0.3838 -1.7390  0.1141
   76CHL1    C7 6741   7.126   1.441   3.260  0.5484  0.1558 -0.3382
   76CHL1   H7A 6742   7.188   1.354   3.290  0.5209  0.0602 -0.5532
   76CHL1   H7B 6743   7.189   1.532   3.271 -1.0393  1.1105  1.4078
   76CHL1    C8 6744   7.008   1.449   3.354 -0.7118  0.2632  0.7909
   76CHL1    H8 6745   6.972   1.344   3.360  1.4151 -0.6863 -1.1510
   76CHL1   C14 6746   7.044   1.512   3.483  0.6583 -0.4017  0.5527
   76CHL1   H14 6747   7.067   1.613   3.444 -1.3850 -0.8156 -2.0085
   76CHL1   C15 6748   7.167   1.471   3.564  0.4855  0.8323  0.7318
   76CHL1  H15A 6749   7.186   1.362   3.574  3.6868  1.2023 -0.2472
   76CHL1  H15B 6750   7.260   1.511   3.520  0.5973  1.3326  1.4098
   76CHL1   C16 6751   7.139   1.532   3.704 -1.0261 -0.3647  0.0636
   76CHL1  H16A 6752   7.141   1.456   3.785  1.5996  0.1200  0.5508
   76CHL1  H16B 6753   7.208   1.616   3.728 -0.1876 -1.0200 -0.0031
   76CHL1   C17 6754   6.995   1.590   3.700  0.7815 -0.7635  0.8194
   76CHL1   H17 6755   7.006   1.697   3.673 -1.3948 -1.0811 -1.7174
   76CHL1   C13 6756   6.927   1.540   3.573 -0.2722  0.3596 -0.5103
   76CHL1   C18 6757   6.862   1.408   3.604  0.6307 -0.8645  0.0237
   76CHL1  H18A 6758   6.780   1.422   3.678 -0.1628 -4.3736 -0.0198
   76CHL1  H18B 6759   6.827   1.354   3.514  0.0163  1.3972 -1.1948
   76CHL1  H18C 6760   6.932   1.347   3.665 -1.4461 -2.5573  0.8525
   76CHL1   C12 6761   6.829   1.631   3.498 -0.2514 -0.4247  0.1028
   76CHL1  H12A 6762   6.740   1.653   3.562  0.3980  0.6695  0.6709
   76CHL1  H12B 6763   6.875   1.732   3.485 -0.4935 -0.6594 -3.4426
   76CHL1   C11 6764   6.772   1.570   3.367  0.3857 -0.2305  0.1049
   76CHL1  H11A 6765   6.725   1.471   3.386  0.6963 -0.2506  0.7866
   76CHL1  H11B 6766   6.699   1.638   3.318  0.9457  1.4018  1.4157
   76CHL1    C9 6767   6.895   1.525   3.279 -0.2157 -0.4499  0.1547
   76CHL1    H9 6768   6.941   1.624   3.261 -0.1890 -1.0041 -3.4330
   76CHL1   C10 6769   6.851   1.469   3.139 -0.1167 -0.1494  0.5820
   76CHL1   C19 6770   6.764   1.343   3.164 -0.0597  0.4875  0.2840
   76CHL1  H19A 6771   6.669   1.366   3.216  0.7965 -0.8914  2.5834
   76CHL1  H19B 6772   6.720   1.302   3.071 -3.3051  1.6156  1.2040
   76CHL1  H19C 6773   6.812   1.260   3.219  0.1033  0.4910  0.1516
   76CHL1    C1 6774   6.759   1.575   3.067  0.1600  0.0860 -0.7207
   76CHL1   H1A 6775   6.658   1.559   3.110  0.2956 -0.2379 -0.5202
   76CHL1   H1B 6776   6.787   1.681   3.085 -2.1618  0.9876 -2.0563
   76CHL1    C2 6777   6.748   1.563   2.916 -0.2381  0.0978 -0.7547
   76CHL1   H2A 6778   6.686   1.647   2.877  0.1012  0.6268 -0.1908
   76CHL1   H2B 6779   6.684   1.475   2.894 -0.0974 -0.2276  0.0982
   76CHL1   C20 6780   6.924   1.587   3.835  0.3087  0.3295  1.0856
   76CHL1   H20 6781   6.907   1.483   3.869 -2.7208 -0.3774 -2.0745
   76CHL1   C21 6782   6.787   1.664   3.837  0.1896 -0.7046  0.3304
   76CHL1  H21A 6783   6.747   1.660   3.941 -1.5393 -1.2974 -0.3175
   76CHL1  H21B 6784   6.706   1.617   3.776 -0.5204 -0.0742  0.7655
   76CHL1  H21C 6785   6.807   1.768   3.803  2.4009 -1.3321 -0.4624
   76CHL1   C22 6786   7.021   1.656   3.942  0.8336 -0.8053 -0.7753
   76CHL1  H22A 6787   7.125   1.624   3.922  1.0669  1.0410 -2.9300
   76CHL1  H22B 6788   7.019   1.766   3.931  4.9103 -0.6627 -1.3895
   76CHL1   C23 6789   6.991   1.624   4.090  0.3823  0.3040 -0.3441
   76CHL1  H23A 6790   6.892   1.662   4.123  0.9972  0.3859  1.5075
   76CHL1  H23B 6791   6.995   1.514   4.099  1.3793  0.2637 -1.1205
   76CHL1   C24 6792   7.096   1.689   4.185  0.4930 -0.9015  0.1037
   76CHL1  H24A 6793   7.119   1.787   4.139 -1.7598  0.0006  0.7320
   76CHL1  H24B 6794   7.052   1.712   4.285  0.2619  1.0866 -0.4188
   76CHL1   C25 6795   7.215   1.598   4.205  0.1772  0.0546 -0.4149
   76CHL1   H25 6796   7.173   1.510   4.258  0.3416  0.4301  0.3495
   76CHL1   C26 6797   7.290   1.556   4.089 -0.0135  0.0665  0.2530
   76CHL1  H26A 6798   7.376   1.496   4.127 -0.5608  0.1423  1.6620
   76CHL1  H26B 6799   7.235   1.485   4.024 -0.6289  0.1951  0.6197
   76CHL1  H26C 6800   7.342   1.634   4.030  3.1961 -1.0686  1.3400
   76CHL1   C27 6801   7.309   1.659   4.313  0.0600  0.1909  0.3693
   76CHL1  H27A 6802   7.375   1.576   4.348  0.6152 -0.3002 -1.7107
   76CHL1  H27B 6803   7.363   1.746   4.272 -3.0820  1.9083 -0.3657
   76CHL1  H27C 6804   7.246   1.683   4.401 -1.0614 -0.1777 -0.3185
   77SOPE     N 6805   6.364   0.588   6.977 -0.3590  0.8588 -0.4305
   77SOPE   HN1 6806   6.413   0.673   6.943 -1.1887  0.7276 -2.0717
   77SOPE   HN2 6807   6.260   0.599   6.977 -0.6795 -1.4364  0.9686
   77SOPE   HN3 6808   6.387   0.580   7.078  0.3686  1.5132 -0.5355
   77SOPE   C12 6809   6.404   0.477   6.883  0.1426  0.2592 -0.1690
   77SOPE  H12A 6810   6.356   0.383   6.917  1.3505 -0.0071  0.8818
   77SOPE  H12B 6811   6.515   0.472   6.891  0.2121  2.1253  0.6745
   77SOPE   C11 6812   6.380   0.524   6.742  0.2076 -0.5158  0.8445
   77SOPE  H11A 6813   6.417   0.458   6.661 -1.0876 -0.0938 -0.1286
   77SOPE  H11B 6814   6.439   0.617   6.724  1.3145 -1.4632 -0.6481
   77SOPE     P 6815   6.190   0.682   6.670 -0.1247 -0.1620  0.2153
   77SOPE   O13 6816   6.256   0.799   6.729 -1.0187  0.1769 -0.4418
   77SOPE   O14 6817   6.042   0.694   6.672 -0.1740 -0.6037 -0.0140
   77SOPE   O12 6818   6.242   0.545   6.722  0.2066 -0.4789 -0.6422
   77SOPE   O11 6819   6.234   0.677   6.517  0.2435  0.1127 -0.3331
   77SOPE    C1 6820   6.195   0.568   6.433  0.1995 -0.0429  0.6292
   77SOPE    HA 6821   6.085   0.553   6.439 -0.0353  0.1014 -1.9399
   77SOPE    HB 6822   6.239   0.473   6.470 -1.9028 -0.8405  1.2226
   77SOPE    C2 6823   6.225   0.612   6.280  0.1654  0.5282  0.3540
   77SOPE    HS 6824   6.335   0.613   6.264  0.0782 -0.6700 -0.4824
   77SOPE   O21 6825   6.169   0.749   6.269 -0.5579  0.3098 -0.6492
   77SOPE   C21 6826   6.213   0.815   6.161 -0.1701 -0.1520  0.3514
   77SOPE   O22 6827   6.286   0.780   6.071 -0.0732 -0.9098  0.3710
   77SOPE   C22 6828   6.162   0.952   6.179  0.0015 -0.5254 -0.1656
   77SOPE   H2R 6829   6.254   1.014   6.181 -1.0791  1.1374  0.4496
   77SOPE   H2S 6830   6.118   0.976   6.278 -0.5074 -2.4135  0.1058
   77SOPE    C3 6831   6.154   0.510   6.180 -0.6810 -0.0779 -0.4867
   77SOPE    HX 6832   6.044   0.517   6.190 -1.0914 -3.7690 -0.8310
   77SOPE    HY 6833   6.182   0.405   6.205  0.6033  0.9229  2.7933
   77SOPE   O31 6834   6.210   0.521   6.046  0.1665  0.1944  0.0593
   77SOPE   C31 6835   6.128   0.554   5.946 -0.1284  0.3497 -0.5669
   77SOPE   O32 6836   6.008   0.557   5.955 -0.5143 -0.1061 -0.3865
   77SOPE   C32 6837   6.207   0.580   5.814  0.2312 -0.5108 -0.2455
   77SOPE   H2X 6838   6.311   0.549   5.838 -0.7530 -2.4804  1.8457
   77SOPE   H2Y 6839   6.204   0.691   5.807 -0.9711 -0.5385 -0.3763
   77SOPE   C23 6840   6.064   1.001   6.073  0.2659  0.5943  0.7770
   77SOPE   H3R 6841   6.103   1.029   5.973 -3.6459 -0.8790 -1.3523
   77SOPE   H3S 6842   6.020   1.097   6.106 -2.8141 -0.4137 -0.0838
   77SOPE   C24 6843   5.946   0.910   6.051  0.7931 -0.4863  0.1869
   77SOPE   H4R 6844   5.991   0.814   6.018  0.6147 -0.1895 -0.9633
   77SOPE   H4S 6845   5.889   0.886   6.143 -0.6458  2.4487  0.1612
   77SOPE   C25 6846   5.851   0.957   5.948  0.2648 -0.8075 -0.8011
   77SOPE   H5R 6847   5.767   0.885   5.948 -0.7962  0.3755 -1.8364
   77SOPE   H5S 6848   5.807   1.058   5.958 -3.4950 -2.3936  0.7165
   77SOPE   C26 6849   5.921   0.965   5.806  0.2042  0.0378 -0.3108
   77SOPE   H6R 6850   5.986   1.055   5.802 -1.8407  1.5249 -2.4565
   77SOPE   H6S 6851   5.970   0.866   5.795 -0.1831  0.0285 -2.5451
   77SOPE   C27 6852   5.818   0.970   5.692 -0.5340 -0.0317 -0.0160
   77SOPE   H7R 6853   5.761   0.874   5.696  0.0490 -0.4462 -1.1335
   77SOPE   H7S 6854   5.742   1.051   5.699  1.9236  2.4484 -0.6867
   77SOPE   C28 6855   5.880   0.967   5.554  0.1308  0.0177  0.1500
   77SOPE   H8R 6856   5.955   0.887   5.540  1.1640  0.6783  1.6024
   77SOPE   H8S 6857   5.798   0.931   5.489 -0.0810 -1.2136  1.0660
   77SOPE   C29 6858   5.941   1.097   5.511 -0.1820 -0.2872  0.0373
   77SOPE   H91 6859   5.943   1.188   5.573  1.6796 -0.4027  0.2024
   77SOPE  C210 6860   5.987   1.108   5.385  1.5251 -0.6388 -0.4155
   77SOPE  H101 6861   6.014   1.211   5.359 -0.4776 -0.1383 -0.7225
   77SOPE  C211 6862   5.987   1.010   5.276 -0.5947 -0.4173  0.5632
   77SOPE  H11R 6863   5.891   0.955   5.278 -2.5473  2.6367 -1.5822
   77SOPE  H11S 6864   6.078   0.946   5.285 -0.9382 -0.5795  4.3703
   77SOPE  C212 6865   5.981   1.079   5.135  0.1565  0.3154 -0.3687
   77SOPE  H12R 6866   5.977   1.000   5.057 -0.5336 -0.5614  0.5232
   77SOPE  H12S 6867   6.078   1.133   5.122  1.0633 -0.9003  0.9380
   77SOPE  C213 6868   5.853   1.180   5.111 -0.7107 -1.0835  0.1312
   77SOPE  H13R 6869   5.868   1.264   5.183 -0.3347 -1.4274  0.4541
   77SOPE  H13S 6870   5.761   1.122   5.134 -0.2699 -1.2666  1.4844
   77SOPE  C214 6871   5.844   1.231   4.963 -0.2506 -0.3475  0.2267
   77SOPE  H14R 6872   5.781   1.323   4.962 -1.0510 -0.8843  0.2233
   77SOPE  H14S 6873   5.798   1.153   4.898  0.8138 -0.2205 -0.7218
   77SOPE  C215 6874   5.970   1.278   4.892 -0.1151  0.7969 -0.1851
   77SOPE  H15R 6875   6.042   1.195   4.874  1.7716  2.4018 -0.2727
   77SOPE  H15S 6876   6.009   1.358   4.957 -0.6631  2.5030 -1.8628
   77SOPE  C216 6877   5.947   1.347   4.755 -0.3087 -0.4983  0.1240
   77SOPE  H16R 6878   5.888   1.440   4.774 -0.1334 -0.3791  0.0795
   77SOPE  H16S 6879   5.889   1.280   4.688 -1.4318  0.3041  0.2586
   77SOPE  C217 6880   6.075   1.386   4.679  0.3548 -0.6054  0.0238
   77SOPE  H17R 6881   6.059   1.379   4.569 -1.7473  1.1612  0.1479
   77SOPE  H17S 6882   6.148   1.303   4.687 -0.8355 -1.7254 -0.2917
   77SOPE  C218 6883   6.129   1.525   4.717 -0.2996 -0.5889 -0.1077
   77SOPE  H18R 6884   6.055   1.608   4.713 -0.9081 -1.0910  0.5692
   77SOPE  H18S 6885   6.220   1.547   4.656 -0.5760 -3.3518 -1.7086
   77SOPE  H18T 6886   6.165   1.529   4.822  0.2524 -0.3498 -0.2975
   77SOPE   C33 6887   6.136   0.526   5.692  0.0601 -0.4166  0.0998
   77SOPE   H3X 6888   6.029   0.549   5.708  0.7711  1.8287  2.4371
   77SOPE   H3Y 6889   6.154   0.416   5.688  0.8842 -0.5400  3.5841
   77SOPE   C34 6890   6.183   0.600   5.562  0.0390  0.2746  0.6840
   77SOPE   H4X 6891   6.294   0.603   5.565 -0.0048  1.3394  3.0485
   77SOPE   H4Y 6892   6.153   0.706   5.576 -1.3211 -0.0716  0.5390
   77SOPE   C35 6893   6.143   0.532   5.434  0.2525 -0.1674  0.0755
   77SOPE   H5X 6894   6.033   0.524   5.430  0.2231 -0.1643  0.8992
   77SOPE   H5Y 6895   6.182   0.428   5.438 -2.0984 -1.2759 -2.3907
   77SOPE   C36 6896   6.204   0.597   5.309  0.3630  0.0034  0.3133
   77SOPE   H6X 6897   6.308   0.560   5.300  0.8069  0.2942  3.1941
   77SOPE   H6Y 6898   6.192   0.708   5.307 -2.3572 -0.2050 -2.2210
   77SOPE   C37 6899   6.138   0.547   5.177 -0.1067 -0.2376 -0.9109
   77SOPE   H7X 6900   6.031   0.579   5.182 -0.4125 -0.6339 -3.5672
   77SOPE   H7Y 6901   6.135   0.436   5.173  0.1574 -0.2598 -0.5537
   77SOPE   C38 6902   6.215   0.614   5.068  0.3694  0.4624  0.4774
   77SOPE   H8X 6903   6.318   0.578   5.050  0.4409  1.5996 -1.6653
   77SOPE   H8Y 6904   6.230   0.723   5.085 -0.3199  0.6452 -0.0387
   77SOPE   C39 6905   6.124   0.600   4.940  0.2836  0.2088  0.6226
   77SOPE   H9X 6906   6.028   0.656   4.946 -0.7131 -1.3011 -0.4459
   77SOPE   H9Y 6907   6.111   0.489   4.943 -0.9233  0.3106 -0.2699
   77SOPE  C310 6908   6.209   0.666   4.829  0.7546  0.4766  0.8592
   77SOPE  H10X 6909   6.306   0.612   4.841  0.1204 -1.6364 -2.4041
   77SOPE  H10Y 6910   6.229   0.771   4.860  1.4953  1.1541 -1.7305
   77SOPE  C311 6911   6.135   0.638   4.699 -0.9234  0.3702  0.6409
   77SOPE  H11X 6912   6.025   0.651   4.707 -1.0552 -0.8102  1.0223
   77SOPE  H11Y 6913   6.159   0.533   4.673  0.1469  0.7676 -0.0119
   77SOPE  C312 6914   6.204   0.722   4.588  0.0466 -0.5601 -0.3354
   77SOPE  H12X 6915   6.187   0.674   4.490  1.5580 -1.9965  0.0622
   77SOPE  H12Y 6916   6.314   0.706   4.600 -0.1080 -0.7107  1.1333
   77SOPE  C313 6917   6.145   0.865   4.582  0.2234 -0.5040 -0.1809
   77SOPE  H13X 6918   6.157   0.906   4.684 -1.1093 -2.1211  0.6724
   77SOPE  H13Y 6919   6.036   0.858   4.563  0.0487 -0.4059  0.7317
   77SOPE  C314 6920   6.215   0.970   4.488 -0.2612 -1.0249  0.1362
   77SOPE  H14X 6921   6.316   0.975   4.534 -1.0716  1.8453  1.8656
   77SOPE  H14Y 6922   6.168   1.068   4.510  0.0998 -0.5360 -1.2067
   77SOPE  C315 6923   6.217   0.929   4.340 -0.4878  0.4067 -0.3537
   77SOPE  H15X 6924   6.115   0.897   4.311 -1.1920  0.4533  1.9215
   77SOPE  H15Y 6925   6.292   0.848   4.331 -1.8104 -0.6475 -2.7217
   77SOPE  C316 6926   6.263   1.035   4.235 -0.3619  0.4471  0.2585
   77SOPE  H16X 6927   6.368   1.061   4.258  0.2124 -1.0824 -0.4964
   77SOPE  H16Y 6928   6.198   1.126   4.239 -2.2155 -0.7733 -0.7225
   77SOPE  C317 6929   6.276   0.990   4.091  0.6388  0.1530 -0.3028
   77SOPE  H17X 6930   6.272   1.079   4.024  0.9983 -1.2072 -2.2115
   77SOPE  H17Y 6931   6.190   0.924   4.067  1.3857 -0.5074 -1.2485
   77SOPE  C318 6932   6.399   0.906   4.072  0.6241  0.2595 -0.0648
   77SOPE  H18X 6933   6.400   0.813   4.133 -0.4032 -3.5787 -5.2463
   77SOPE  H18Y 6934   6.484   0.969   4.106  1.5942 -1.1208  0.1793
   77SOPE  H18Z 6935   6.416   0.873   3.968 -0.1837 -1.8456  0.4150
   78SOPE     N 6936   3.886   2.252   6.927  0.0764  0.4837  0.6938
   78SOPE   HN1 6937   3.960   2.308   6.881 -0.7682  2.0174  1.1177
   78SOPE   HN2 6938   3.930   2.182   6.990 -0.2719 -0.2400  0.1604
   78SOPE   HN3 6939   3.831   2.189   6.864  0.9971 -0.9174  1.2592
   78SOPE   C12 6940   3.792   2.339   6.991  0.1153 -0.8103 -0.1413
   78SOPE  H12A 6941   3.848   2.393   7.071  0.3902 -1.3699  0.0465
   78SOPE  H12B 6942   3.710   2.283   7.041 -1.2941  0.6339 -0.7573
   78SOPE   C11 6943   3.728   2.441   6.890  0.6954 -0.3617 -0.2182
   78SOPE  H11A 6944   3.681   2.387   6.805 -1.2420  2.5077 -1.1006
   78SOPE  H11B 6945   3.805   2.509   6.847 -0.7134  0.1230 -2.1064
   78SOPE     P 6946   3.635   2.667   6.965  0.0943 -0.3679 -0.3645
   78SOPE   O13 6947   3.753   2.698   7.056  0.0387 -0.8275 -0.3093
   78SOPE   O14 6948   3.504   2.715   7.009 -0.2200  0.3079 -0.0033
   78SOPE   O12 6949   3.623   2.510   6.956 -0.0821 -0.5981  0.3153
   78SOPE   O11 6950   3.667   2.722   6.821  0.2946 -0.2620 -0.1421
   78SOPE    C1 6951   3.555   2.750   6.738  0.6857  0.1894  0.0520
   78SOPE    HA 6952   3.562   2.851   6.690 -0.0578  0.7586  1.1071
   78SOPE    HB 6953   3.457   2.733   6.787  0.7577 -0.3402  0.0202
   78SOPE    C2 6954   3.571   2.651   6.616 -0.6183 -0.2629 -0.0034
   78SOPE    HS 6955   3.564   2.547   6.655  0.8378 -0.3009  0.2278
   78SOPE   O21 6956   3.700   2.685   6.558  0.5155  0.0771 -0.8829
   78SOPE   C21 6957   3.774   2.585   6.510  0.4933 -0.7088  0.1294
   78SOPE   O22 6958   3.749   2.469   6.520  0.0235  0.2292 -0.4531
   78SOPE   C22 6959   3.905   2.647   6.455 -0.3196  0.1401  0.2033
   78SOPE   H2R 6960   3.987   2.636   6.530 -0.8883 -1.1411  0.6723
   78SOPE   H2S 6961   3.883   2.755   6.442 -0.3005  0.3218  1.5410
   78SOPE    C3 6962   3.461   2.683   6.511 -0.8431 -0.1617 -0.2195
   78SOPE    HX 6963   3.467   2.789   6.480  0.0691 -0.1239  0.0540
   78SOPE    HY 6964   3.358   2.663   6.549 -0.2193 -1.6027  0.8412
   78SOPE   O31 6965   3.478   2.601   6.395 -0.1517  0.0275 -0.2780
   78SOPE   C31 6966   3.443   2.478   6.404 -0.2985 -0.1998 -0.4361
   78SOPE   O32 6967   3.407   2.425   6.506  0.3891 -0.2843 -0.6175
   78SOPE   C32 6968   3.474   2.399   6.274 -0.4126 -0.1992 -0.1069
   78SOPE   H2X 6969   3.476   2.293   6.308  0.0482  0.2293  1.2560
   78SOPE   H2Y 6970   3.578   2.426   6.245  0.3251 -1.2896  1.3535
   78SOPE   C23 6971   3.942   2.585   6.317  0.0687  0.3222 -0.3023
   78SOPE   H3R 6972   3.919   2.477   6.311  0.2525  0.3194 -1.0344
   78SOPE   H3S 6973   4.050   2.599   6.300  1.0596 -2.6821  2.3745
   78SOPE   C24 6974   3.873   2.654   6.199  0.2825  0.0719 -0.3301
   78SOPE   H4R 6975   3.766   2.630   6.216  0.2560  1.6908  2.4723
   78SOPE   H4S 6976   3.882   2.765   6.209 -0.6981  0.4886 -3.1567
   78SOPE   C25 6977   3.912   2.603   6.058  0.2063 -0.1747  0.1781
   78SOPE   H5R 6978   4.018   2.627   6.033 -0.1607 -0.5010 -1.8320
   78SOPE   H5S 6979   3.900   2.493   6.050  1.9256 -0.3830 -0.0660
   78SOPE   C26 6980   3.834   2.653   5.929  0.2948  0.0505  0.2064
   78SOPE   H6R 6981   3.727   2.627   5.943  0.5766 -1.4773 -0.3468
   78SOPE   H6S 6982   3.847   2.763   5.922  2.3727 -0.1738 -0.1519
   78SOPE   C27 6983   3.884   2.584   5.802 -0.0423 -0.6126 -0.4058
   78SOPE   H7R 6984   3.991   2.610   5.793  0.2383 -1.3711  0.5471
   78SOPE   H7S 6985   3.872   2.474   5.817 -0.4721 -0.7412 -1.5630
   78SOPE   C28 6986   3.815   2.599   5.670 -0.2457  0.0145 -0.1905
   78SOPE   H8R 6987   3.873   2.543   5.594 -1.7778 -1.1105 -0.5860
   78SOPE   H8S 6988   3.711   2.560   5.675  0.0412 -1.1964 -2.5541
   78SOPE   C29 6989   3.821   2.744   5.631  0.1391  0.1645  0.6390
   78SOPE   H91 6990   3.897   2.806   5.681 -1.5998  2.4857  0.5822
   78SOPE  C210 6991   3.743   2.812   5.550 -0.0331  0.5909  0.3457
   78SOPE  H101 6992   3.760   2.917   5.522 -0.8394  0.4618 -0.6994
   78SOPE  C211 6993   3.626   2.754   5.458 -0.4287 -0.1072 -0.0044
   78SOPE  H11R 6994   3.537   2.819   5.474 -1.4881 -1.6674  0.7004
   78SOPE  H11S 6995   3.589   2.656   5.494  0.5467  0.2036  1.9236
   78SOPE  C212 6996   3.662   2.746   5.305 -0.0721 -0.3269 -0.4880
   78SOPE  H12R 6997   3.702   2.845   5.275  1.4615 -0.5682  0.6638
   78SOPE  H12S 6998   3.567   2.717   5.254 -0.5383 -1.2140  0.8330
   78SOPE  C213 6999   3.756   2.629   5.279  0.0596  0.5113 -0.5767
   78SOPE  H13R 7000   3.714   2.533   5.315 -3.6146  1.3345 -2.1150
   78SOPE  H13S 7001   3.849   2.644   5.338 -0.5094 -1.5568  0.9354
   78SOPE  C214 7002   3.800   2.594   5.130 -0.7343 -0.6853 -0.0657
   78SOPE  H14R 7003   3.887   2.525   5.137  1.6513  2.1920  0.9220
   78SOPE  H14S 7004   3.839   2.689   5.086 -2.2034  0.5623  1.2015
   78SOPE  C215 7005   3.691   2.526   5.045 -0.8814 -0.6092 -0.4831
   78SOPE  H15R 7006   3.596   2.585   5.041 -0.9679 -0.6797  0.3599
   78SOPE  H15S 7007   3.657   2.444   5.111 -0.6608 -0.0627  0.3282
   78SOPE  C216 7008   3.732   2.486   4.902  0.2442 -0.8701 -0.4210
   78SOPE  H16R 7009   3.652   2.431   4.849  0.8990  0.9432 -3.5348
   78SOPE  H16S 7010   3.827   2.429   4.894  1.5919  1.3018 -0.9822
   78SOPE  C217 7011   3.755   2.619   4.816  0.6996  0.7353 -0.1204
   78SOPE  H17R 7012   3.851   2.657   4.856  0.0270  1.6955  0.6215
   78SOPE  H17S 7013   3.668   2.688   4.822 -0.2771 -0.5391  1.4738
   78SOPE  C218 7014   3.782   2.587   4.667 -0.0641 -0.3231  0.0897
   78SOPE  H18R 7015   3.819   2.671   4.605  0.0560  0.3721  1.0787
   78SOPE  H18S 7016   3.687   2.550   4.624 -0.7307  0.4516  0.8430
   78SOPE  H18T 7017   3.860   2.508   4.669  0.0486 -0.3267 -1.9880
   78SOPE   C33 7018   3.385   2.432   6.159 -0.2610 -0.3632 -0.8040
   78SOPE   H3X 7019   3.356   2.539   6.150  0.4375  0.1357  1.9658
   78SOPE   H3Y 7020   3.285   2.384   6.171 -0.2542  0.2061  2.9664
   78SOPE   C34 7021   3.450   2.409   6.025  0.5956 -0.7443 -0.1947
   78SOPE   H4X 7022   3.440   2.299   6.011 -0.3786 -0.3882 -2.9843
   78SOPE   H4Y 7023   3.554   2.446   6.022  0.3624 -0.0588  0.0537
   78SOPE   C35 7024   3.360   2.471   5.913 -0.7816  0.5014 -0.8769
   78SOPE   H5X 7025   3.325   2.574   5.932 -2.6319 -0.3763  0.9425
   78SOPE   H5Y 7026   3.261   2.422   5.923 -0.2690 -0.8478 -2.0728
   78SOPE   C36 7027   3.391   2.451   5.767 -0.6008  0.3024  0.3561
   78SOPE   H6X 7028   3.502   2.465   5.764 -0.3154 -1.5276  1.1723
   78SOPE   H6Y 7029   3.348   2.530   5.702  0.5435 -0.1282 -0.9848
   78SOPE   C37 7030   3.363   2.307   5.714 -0.4731  0.3080 -0.3521
   78SOPE   H7X 7031   3.259   2.276   5.734 -0.1877 -1.3872 -1.3253
   78SOPE   H7Y 7032   3.425   2.232   5.767 -1.6760  0.0992  0.7945
   78SOPE   C38 7033   3.371   2.278   5.560  0.4458  0.9853 -0.7270
   78SOPE   H8X 7034   3.299   2.343   5.507  0.2919  1.9070  0.5397
   78SOPE   H8Y 7035   3.349   2.170   5.546  2.0510  0.6065 -0.5141
   78SOPE   C39 7036   3.505   2.307   5.494  0.4416  0.1698 -0.1038
   78SOPE   H9X 7037   3.582   2.271   5.566  0.2654  0.4338  0.2133
   78SOPE   H9Y 7038   3.516   2.416   5.474  1.7193 -0.0295 -0.6425
   78SOPE  C310 7039   3.529   2.234   5.362 -0.1643  0.4347 -0.5916
   78SOPE  H10X 7040   3.497   2.128   5.370  0.1851  0.3114 -0.7677
   78SOPE  H10Y 7041   3.638   2.231   5.342 -0.4342 -2.4029 -2.1232
   78SOPE  C311 7042   3.459   2.300   5.246  0.2479  0.0558 -0.1565
   78SOPE  H11X 7043   3.480   2.409   5.249 -1.0709  0.3174  0.1318
   78SOPE  H11Y 7044   3.352   2.282   5.269  0.0532  0.2800 -0.8631
   78SOPE  C312 7045   3.481   2.231   5.113  0.7347 -0.4990  0.0552
   78SOPE  H12X 7046   3.460   2.123   5.128  0.7508 -0.7919 -1.8575
   78SOPE  H12Y 7047   3.589   2.227   5.090  0.2722  0.9536 -2.7473
   78SOPE  C313 7048   3.403   2.288   4.996  0.2288  0.5045  0.6090
   78SOPE  H13X 7049   3.457   2.378   4.958  1.8949 -0.9005 -0.5366
   78SOPE  H13Y 7050   3.301   2.315   5.030 -0.7841 -0.9990 -1.0156
   78SOPE  C314 7051   3.389   2.184   4.879  0.6544 -0.4496 -0.1106
   78SOPE  H14X 7052   3.346   2.086   4.911  1.5511 -0.3053  1.6616
   78SOPE  H14Y 7053   3.491   2.165   4.841 -0.3797 -4.8144 -1.2930
   78SOPE  C315 7054   3.298   2.228   4.763  0.4927  0.4465  0.3300
   78SOPE  H15X 7055   3.197   2.263   4.793  0.0843  1.2096 -1.7673
   78SOPE  H15Y 7056   3.270   2.137   4.704 -0.5232  0.8285  0.2031
   78SOPE  C316 7057   3.374   2.331   4.676 -0.5943  0.5291 -0.1685
   78SOPE  H16X 7058   3.469   2.278   4.651 -0.3778  0.4099  0.8513
   78SOPE  H16Y 7059   3.397   2.419   4.740  1.5698  1.7390 -2.4280
   78SOPE  C317 7060   3.308   2.373   4.545 -0.3409 -0.2268 -0.4655
   78SOPE  H17X 7061   3.308   2.290   4.471  1.8868 -0.7040  0.0056
   78SOPE  H17Y 7062   3.369   2.456   4.504 -0.7442  0.0849 -0.4411
   78SOPE  C318 7063   3.164   2.418   4.556  0.2684  0.2413  0.3729
   78SOPE  H18X 7064   3.149   2.497   4.480 -1.2616 -0.9508 -0.6396
   78SOPE  H18Y 7065   3.141   2.461   4.656 -0.7415  1.0155 -0.1844
   78SOPE  H18Z 7066   3.091   2.334   4.549  1.5171 -0.9027  0.6806
   79SOPE     N 7067   6.165   5.336   6.063  0.7617 -0.6903  0.3474
   79SOPE   HN1 7068   6.093   5.398   6.022  2.1748  1.1695  0.5559
   79SOPE   HN2 7069   6.230   5.400   6.113  0.6389 -0.5306  0.3044
   79SOPE   HN3 7070   6.220   5.296   5.985  1.2558  2.0204 -0.7873
   79SOPE   C12 7071   6.100   5.223   6.144  0.0641  0.3912  0.3453
   79SOPE  H12A 7072   6.178   5.155   6.185 -1.0755 -1.5087 -0.5352
   79SOPE  H12B 7073   6.053   5.171   6.059 -0.8406 -0.6905  1.4659
   79SOPE   C11 7074   5.999   5.283   6.238 -0.4901 -0.7360  0.3959
   79SOPE  H11A 7075   5.959   5.202   6.303 -0.3010 -0.3111  1.0467
   79SOPE  H11B 7076   5.921   5.326   6.172  0.2538  0.1701  0.0726
   79SOPE     P 7077   5.990   5.460   6.433 -0.0528  0.1452  0.2427
   79SOPE   O13 7078   6.093   5.512   6.529  0.3187 -0.3353 -0.0699
   79SOPE   O14 7079   5.885   5.377   6.483 -0.0379  0.4293 -0.4389
   79SOPE   O12 7080   6.064   5.380   6.318 -0.0158  0.2689 -0.7080
   79SOPE   O11 7081   5.911   5.584   6.360 -0.2804  0.9385  0.6936
   79SOPE    C1 7082   5.984   5.686   6.278 -0.0082 -0.3279 -0.4756
   79SOPE    HA 7083   6.090   5.702   6.307 -0.4864  0.4000  0.9521
   79SOPE    HB 7084   5.939   5.786   6.297  2.9124  0.9656  0.2505
   79SOPE    C2 7085   5.976   5.661   6.127  0.4907  0.2545  0.2727
   79SOPE    HS 7086   6.004   5.556   6.104 -0.0489  0.3999 -1.1281
   79SOPE   O21 7087   6.064   5.753   6.070 -0.5588  0.2172  0.1040
   79SOPE   C21 7088   6.133   5.702   5.964 -0.1268 -0.3807 -0.3275
   79SOPE   O22 7089   6.113   5.591   5.911  0.1083 -0.7162 -0.1396
   79SOPE   C22 7090   6.233   5.806   5.907  0.1507  0.3848 -0.9639
   79SOPE   H2R 7091   6.320   5.802   5.977 -0.9895  0.7872  0.5414
   79SOPE   H2S 7092   6.195   5.909   5.897 -1.3318  0.0256  0.3925
   79SOPE    C3 7093   5.829   5.678   6.069  0.4370  0.5063 -0.3742
   79SOPE    HX 7094   5.802   5.781   6.099 -1.3710 -0.2610  0.8158
   79SOPE    HY 7095   5.764   5.611   6.130 -0.8217  2.0872  0.0916
   79SOPE   O31 7096   5.811   5.679   5.924 -0.0530 -0.9074  0.2726
   79SOPE   C31 7097   5.779   5.559   5.876 -0.0622 -0.1240  0.9106
   79SOPE   O32 7098   5.737   5.463   5.941  0.3307  0.5593 -0.3042
   79SOPE   C32 7099   5.796   5.572   5.726 -0.3767  0.2196 -0.1692
   79SOPE   H2X 7100   5.764   5.474   5.687  0.8342  0.4890 -1.9862
   79SOPE   H2Y 7101   5.903   5.582   5.696 -0.2025  0.4726  0.5243
   79SOPE   C23 7102   6.291   5.761   5.778 -0.7797  0.0823  0.0854
   79SOPE   H3R 7103   6.322   5.654   5.785  0.6238  0.5604  1.6344
   79SOPE   H3S 7104   6.379   5.826   5.759 -1.2846  1.0916  1.1476
   79SOPE   C24 7105   6.189   5.777   5.664 -0.0864 -0.5602 -0.4213
   79SOPE   H4R 7106   6.107   5.706   5.687 -0.5452  0.7799  2.5414
   79SOPE   H4S 7107   6.151   5.881   5.660 -0.4456 -0.6732 -0.0202
   79SOPE   C25 7108   6.253   5.746   5.530 -0.0546  0.3475 -0.1350
   79SOPE   H5R 7109   6.351   5.798   5.526  0.5223 -0.4067  2.3971
   79SOPE   H5S 7110   6.278   5.638   5.529  1.7217  0.7236 -1.3421
   79SOPE   C26 7111   6.167   5.791   5.416  0.3541 -0.1855  1.1879
   79SOPE   H6R 7112   6.084   5.718   5.405 -0.1401  0.4769  0.3594
   79SOPE   H6S 7113   6.131   5.894   5.437 -0.1127  0.1326 -0.9401
   79SOPE   C27 7114   6.240   5.797   5.280 -0.9728  0.0860  0.5019
   79SOPE   H7R 7115   6.314   5.879   5.286 -1.1166  0.2843 -0.2790
   79SOPE   H7S 7116   6.294   5.701   5.272 -0.6459  0.1985  1.2991
   79SOPE   C28 7117   6.146   5.814   5.158 -0.0748 -0.7300 -0.6826
   79SOPE   H8R 7118   6.076   5.728   5.166  0.0057 -0.7017  0.4110
   79SOPE   H8S 7119   6.082   5.903   5.173 -0.0987 -0.7924 -0.4145
   79SOPE   C29 7120   6.212   5.816   5.021 -0.4586  0.3761 -0.2225
   79SOPE   H91 7121   6.264   5.911   5.006  0.2238  0.2722  1.3081
   79SOPE  C210 7122   6.201   5.722   4.927 -0.0178  0.2189 -0.0483
   79SOPE  H101 7123   6.259   5.739   4.835  1.0047  2.0494  0.8723
   79SOPE  C211 7124   6.134   5.583   4.937  0.0542 -0.3448 -0.2043
   79SOPE  H11R 7125   6.024   5.594   4.947  0.2642  0.5953  1.5281
   79SOPE  H11S 7126   6.163   5.525   5.027 -0.5551  0.2569  0.3920
   79SOPE  C212 7127   6.164   5.499   4.813 -0.0360  0.0702  0.6887
   79SOPE  H12R 7128   6.134   5.394   4.834  1.6011 -0.6546 -0.3983
   79SOPE  H12S 7129   6.275   5.499   4.806 -0.0260  1.0270  0.7834
   79SOPE  C213 7130   6.097   5.548   4.686 -0.3305  0.3990  0.5076
   79SOPE  H13R 7131   6.079   5.657   4.673 -2.5761 -0.0867 -0.8719
   79SOPE  H13S 7132   5.995   5.504   4.692  0.8444 -2.3186  2.6632
   79SOPE  C214 7133   6.153   5.471   4.555  0.6185 -1.2824  0.0512
   79SOPE  H14R 7134   6.159   5.361   4.568 -0.0931 -1.3028  0.2466
   79SOPE  H14S 7135   6.253   5.502   4.518 -0.3611 -0.3197 -1.9595
   79SOPE  C215 7136   6.061   5.487   4.433  0.1290  0.5139 -0.0117
   79SOPE  H15R 7137   6.054   5.594   4.405 -3.4710  0.3741 -0.0788
   79SOPE  H15S 7138   5.956   5.461   4.461 -0.2968  1.0010 -1.1091
   79SOPE  C216 7139   6.113   5.406   4.307  0.6775 -0.0222  0.1933
   79SOPE  H16R 7140   6.082   5.301   4.326 -2.2817  0.8465  0.5595
   79SOPE  H16S 7141   6.222   5.420   4.289  0.6779 -0.9033 -0.6365
   79SOPE  C217 7142   6.054   5.438   4.165  0.4344  0.1517  0.5318
   79SOPE  H17R 7143   6.054   5.547   4.142  1.4920  0.0707  0.1054
   79SOPE  H17S 7144   5.946   5.413   4.158  1.0629 -2.8168 -0.2329
   79SOPE  C218 7145   6.123   5.365   4.045  0.0045  0.1630 -0.5476
   79SOPE  H18R 7146   6.079   5.394   3.948  1.4986 -0.7242 -1.5334
   79SOPE  H18S 7147   6.100   5.256   4.052  1.1507 -0.0513  0.3801
   79SOPE  H18T 7148   6.234   5.376   4.051  0.2615 -1.3851 -1.8531
   79SOPE   C33 7149   5.722   5.683   5.663  0.6359 -0.4649 -0.2153
   79SOPE   H3X 7150   5.734   5.770   5.732  1.0112 -2.4304  2.3823
   79SOPE   H3Y 7151   5.616   5.655   5.685  0.8773 -1.2572 -0.0554
   79SOPE   C34 7152   5.741   5.715   5.516 -0.2404 -0.0310  0.1965
   79SOPE   H4X 7153   5.837   5.769   5.507 -1.6361  2.6882  0.6665
   79SOPE   H4Y 7154   5.663   5.784   5.479  1.4280  0.4820 -2.6287
   79SOPE   C35 7155   5.750   5.599   5.425  0.1723  0.2727 -0.6408
   79SOPE   H5X 7156   5.654   5.543   5.416 -0.2775  0.6768  1.1740
   79SOPE   H5Y 7157   5.833   5.529   5.452 -1.3124 -1.3550 -0.0851
   79SOPE   C36 7158   5.809   5.650   5.294 -0.0171  0.1946 -0.2388
   79SOPE   H6X 7159   5.859   5.573   5.231 -0.7409 -1.3870  1.0521
   79SOPE   H6Y 7160   5.887   5.727   5.313 -0.4531  0.2347  1.4923
   79SOPE   C37 7161   5.702   5.705   5.200 -0.4350  0.0048  0.4321
   79SOPE   H7X 7162   5.654   5.783   5.264 -1.1182 -1.0085  1.1872
   79SOPE   H7Y 7163   5.632   5.624   5.171  0.9768 -0.7080 -1.1217
   79SOPE   C38 7164   5.766   5.771   5.070  0.2397 -0.2744 -0.4740
   79SOPE   H8X 7165   5.823   5.693   5.013  2.2388 -0.9839  2.2846
   79SOPE   H8Y 7166   5.844   5.844   5.099  0.1658  0.3939 -1.8566
   79SOPE   C39 7167   5.655   5.834   4.974 -0.6890 -0.4406 -0.1830
   79SOPE   H9X 7168   5.607   5.920   5.026 -3.2634 -0.3626 -2.4565
   79SOPE   H9Y 7169   5.583   5.752   4.952  0.4090 -2.1604  2.1842
   79SOPE  C310 7170   5.727   5.878   4.842  0.1543  0.4746 -0.1849
   79SOPE  H10X 7171   5.767   5.790   4.786 -1.1704 -1.0483  1.1635
   79SOPE  H10Y 7172   5.812   5.941   4.875 -1.3804  2.1216  0.7851
   79SOPE  C311 7173   5.640   5.966   4.746 -0.5300  0.5078 -0.2970
   79SOPE  H11X 7174   5.584   6.034   4.812  0.0328 -1.4005  2.3218
   79SOPE  H11Y 7175   5.575   5.892   4.694 -0.2817  1.9648 -2.8307
   79SOPE  C312 7176   5.726   6.038   4.641  0.0879 -0.1392  0.4504
   79SOPE  H12X 7177   5.785   6.115   4.695  1.3509 -0.4645 -0.4212
   79SOPE  H12Y 7178   5.662   6.100   4.574 -0.6722 -0.3297  0.9918
   79SOPE  C313 7179   5.817   5.940   4.565 -0.2630  0.4328 -0.3603
   79SOPE  H13X 7180   5.899   5.895   4.625 -1.5804 -0.0439  1.1582
   79SOPE  H13Y 7181   5.869   6.002   4.490  2.0264  0.6177  1.2744
   79SOPE  C314 7182   5.756   5.826   4.486 -0.5060  0.2394  0.4316
   79SOPE  H14X 7183   5.652   5.853   4.459 -0.3508 -1.4037 -2.1124
   79SOPE  H14Y 7184   5.749   5.726   4.533 -2.4491  0.0722 -0.1385
   79SOPE  C315 7185   5.822   5.793   4.349 -0.4174  0.7904 -0.2207
   79SOPE  H15X 7186   5.788   5.689   4.331  0.0175  0.8150 -1.2575
   79SOPE  H15Y 7187   5.933   5.790   4.358 -0.3770  0.4105 -0.7997
   79SOPE  C316 7188   5.793   5.889   4.231 -0.3782  0.2101 -0.5220
   79SOPE  H16X 7189   5.843   5.984   4.260  0.5487 -0.5739  0.5554
   79SOPE  H16Y 7190   5.683   5.900   4.218 -0.9285 -3.8010 -0.6140
   79SOPE  C317 7191   5.856   5.836   4.101  0.8747  0.0213 -0.3757
   79SOPE  H17X 7192   5.813   5.734   4.085 -2.8335  1.4710 -0.6656
   79SOPE  H17Y 7193   5.966   5.834   4.110  1.0542  0.2416 -2.1462
   79SOPE  C318 7194   5.830   5.917   3.966  0.4153 -0.3466  0.7290
   79SOPE  H18X 7195   5.916   5.915   3.895 -0.4390 -0.3822 -0.3368
   79SOPE  H18Y 7196   5.825   6.026   3.986  1.4673 -0.2353  0.4431
   79SOPE  H18Z 7197   5.738   5.889   3.909 -0.1240 -1.2734  2.0003
   80SOPE     N 7198   3.090   0.555   6.338  1.0127  0.0340 -0.2249
   80SOPE   HN1 7199   3.021   0.501   6.394  1.2414 -2.0680 -1.8541
   80SOPE   HN2 7200   3.164   0.496   6.297  2.5166  1.6936 -0.0163
   80SOPE   HN3 7201   3.135   0.621   6.404 -1.6576 -0.7313  2.6097
   80SOPE   C12 7202   3.039   0.641   6.231  0.6708  0.6298 -0.1444
   80SOPE  H12A 7203   2.993   0.573   6.156 -3.1356  2.3987  0.3541
   80SOPE  H12B 7204   3.124   0.698   6.187  1.3598  0.0551  0.4406
   80SOPE   C11 7205   2.927   0.736   6.280 -0.2042 -0.8642 -0.1671
   80SOPE  H11A 7206   2.852   0.674   6.332  1.5701 -1.2737  2.0867
   80SOPE  H11B 7207   2.882   0.788   6.193 -1.0271 -1.5890 -0.1867
   80SOPE     P 7208   3.047   0.960   6.350  0.0400  0.5404  0.2191
   80SOPE   O13 7209   3.194   0.933   6.327  0.4017 -0.5019 -0.4320
   80SOPE   O14 7210   3.014   1.060   6.455 -0.0070  0.2228 -0.1056
   80SOPE   O12 7211   2.982   0.822   6.380  0.1483  0.2074 -0.2998
   80SOPE   O11 7212   2.980   1.005   6.215  0.6224 -0.7546  0.0462
   80SOPE    C1 7213   2.855   1.083   6.218  0.2205 -0.1001 -0.0537
   80SOPE    HA 7214   2.816   1.086   6.322  1.8692 -2.3128  0.7140
   80SOPE    HB 7215   2.781   1.032   6.151  1.6740 -2.2899 -0.0774
   80SOPE    C2 7216   2.887   1.231   6.169 -0.7293 -0.0912  0.5109
   80SOPE    HS 7217   2.789   1.283   6.170 -0.8076 -0.2316  0.1962
   80SOPE   O21 7218   2.947   1.240   6.035  0.0072 -0.0470  0.3504
   80SOPE   C21 7219   2.860   1.200   5.939  0.5742 -0.0697 -0.1995
   80SOPE   O22 7220   2.742   1.179   5.956 -0.1973  0.2329  0.5067
   80SOPE   C22 7221   2.930   1.200   5.802  0.2170 -0.0275  0.5020
   80SOPE   H2R 7222   2.905   1.098   5.766 -1.4419  0.2514  0.7681
   80SOPE   H2S 7223   3.038   1.212   5.822  0.6593  0.3238 -1.8184
   80SOPE    C3 7224   2.983   1.298   6.270 -0.0243  0.1989  0.1366
   80SOPE    HX 7225   3.084   1.251   6.277 -0.8230 -1.5753  0.2073
   80SOPE    HY 7226   2.930   1.290   6.367  1.5734 -1.8859  0.9150
   80SOPE   O31 7227   3.001   1.437   6.244  0.0896 -0.1897  0.3675
   80SOPE   C31 7228   3.109   1.492   6.188  0.1602  0.8837  0.2865
   80SOPE   O32 7229   3.212   1.433   6.156  0.6754  0.3259 -0.0563
   80SOPE   C32 7230   3.079   1.646   6.176 -0.2074  0.0326  0.9141
   80SOPE   H2X 7231   3.166   1.706   6.210 -0.9141  0.5787  1.7942
   80SOPE   H2Y 7232   3.006   1.672   6.255 -1.8289 -2.2292  0.2540
   80SOPE   C23 7233   2.875   1.305   5.704  0.2081 -0.3116 -1.1052
   80SOPE   H3R 7234   2.931   1.393   5.740  0.1912 -0.6763 -0.1585
   80SOPE   H3S 7235   2.767   1.320   5.726  0.2772 -0.9031 -0.3311
   80SOPE   C24 7236   2.874   1.281   5.554 -0.1669 -0.5249  0.0309
   80SOPE   H4R 7237   2.817   1.365   5.510 -1.0740 -1.1293  0.0354
   80SOPE   H4S 7238   2.974   1.283   5.506 -0.3457  1.1274 -0.3326
   80SOPE   C25 7239   2.814   1.154   5.498  0.0762  0.3928  0.1377
   80SOPE   H5R 7240   2.858   1.066   5.550 -1.2883 -1.6165 -1.8687
   80SOPE   H5S 7241   2.705   1.144   5.516 -0.3907  0.7356 -2.1714
   80SOPE   C26 7242   2.836   1.127   5.348 -0.1860  0.5255  0.0340
   80SOPE   H6R 7243   2.945   1.127   5.328 -0.3197 -3.6366 -1.7525
   80SOPE   H6S 7244   2.799   1.023   5.340 -1.6125  0.9306  1.0274
   80SOPE   C27 7245   2.758   1.219   5.259  0.0382  0.7061  0.1985
   80SOPE   H7R 7246   2.654   1.203   5.296 -0.4794 -3.3653 -2.2871
   80SOPE   H7S 7247   2.784   1.326   5.273 -0.7290  1.0759 -1.0067
   80SOPE   C28 7248   2.756   1.173   5.116 -0.5364  0.3836 -0.1603
   80SOPE   H8R 7249   2.707   1.074   5.103 -1.6770  1.1433 -2.2686
   80SOPE   H8S 7250   2.686   1.242   5.064 -1.4633 -0.9487 -0.7381
   80SOPE   C29 7251   2.893   1.185   5.051  0.0225  0.8639 -0.5800
   80SOPE   H91 7252   2.970   1.239   5.107 -0.2264  0.0658  0.5681
   80SOPE  C210 7253   2.921   1.127   4.929  0.5820 -0.0878 -0.5229
   80SOPE  H101 7254   3.024   1.126   4.890  1.6435  0.5317  2.0581
   80SOPE  C211 7255   2.836   1.044   4.839 -0.0946  0.5761 -0.3719
   80SOPE  H11R 7256   2.730   1.073   4.858 -0.8700 -1.2219 -1.6861
   80SOPE  H11S 7257   2.854   0.937   4.861  2.5308  1.1137  0.4637
   80SOPE  C212 7258   2.871   1.065   4.689 -0.9698 -0.2556 -0.1849
   80SOPE  H12R 7259   2.980   1.057   4.671 -0.7072  3.8575 -1.7352
   80SOPE  H12S 7260   2.847   1.174   4.682 -1.1228 -0.2991 -0.3489
   80SOPE  C213 7261   2.788   0.997   4.575 -0.7373 -0.1314  0.3368
   80SOPE  H13R 7262   2.682   1.017   4.601 -0.2823  2.6592  0.3762
   80SOPE  H13S 7263   2.820   0.890   4.574 -2.4825 -0.7105 -2.0424
   80SOPE  C214 7264   2.827   1.044   4.437 -0.0903  0.5474  0.5020
   80SOPE  H14R 7265   2.800   1.150   4.419 -0.4976  0.5311  0.9864
   80SOPE  H14S 7266   2.771   0.980   4.366 -1.5413  2.2871 -0.0015
   80SOPE  C215 7267   2.974   1.016   4.401 -0.3966 -0.5704 -0.3592
   80SOPE  H15R 7268   2.999   0.910   4.422 -2.1815 -1.3704 -1.9121
   80SOPE  H15S 7269   3.033   1.080   4.470  1.4738 -1.9997 -0.5618
   80SOPE  C216 7270   3.020   1.057   4.266  0.7480  0.5908 -0.3042
   80SOPE  H16R 7271   3.130   1.057   4.253  0.5331 -0.8265 -2.5893
   80SOPE  H16S 7272   2.984   1.156   4.230  0.0192 -0.4904 -2.7385
   80SOPE  C217 7273   2.967   0.958   4.159 -0.0708  0.1363  0.2286
   80SOPE  H17R 7274   2.858   0.979   4.158 -0.2983 -0.6979 -3.0717
   80SOPE  H17S 7275   3.005   0.859   4.193  0.4890 -0.1964 -1.2754
   80SOPE  C218 7276   3.016   0.988   4.014  0.4316  0.0434  0.3338
   80SOPE  H18R 7277   2.971   0.916   3.943  0.4121 -2.2313  2.4938
   80SOPE  H18S 7278   3.127   0.975   4.008  0.1081 -2.4730 -3.2825
   80SOPE  H18T 7279   2.984   1.090   3.985 -0.3764 -0.6363 -1.2724
   80SOPE   C33 7280   3.022   1.674   6.040 -0.5783  0.4782  0.2745
   80SOPE   H3X 7281   2.975   1.775   6.032 -0.8082  0.7058  3.2346
   80SOPE   H3Y 7282   2.938   1.603   6.026 -1.1151  1.1742 -0.1273
   80SOPE   C34 7283   3.139   1.670   5.927  0.4235  0.3563  0.4049
   80SOPE   H4X 7284   3.206   1.581   5.932 -2.2849 -2.1483 -3.1306
   80SOPE   H4Y 7285   3.208   1.757   5.930  1.8897 -0.7656  0.7922
   80SOPE   C35 7286   3.076   1.666   5.791  0.0402  0.2634  0.0760
   80SOPE   H5X 7287   3.064   1.771   5.756 -0.4090  0.1338 -0.1698
   80SOPE   H5Y 7288   2.974   1.625   5.804  0.3747 -1.2543 -1.6342
   80SOPE   C36 7289   3.155   1.595   5.678  0.0957  0.5989  0.9350
   80SOPE   H6X 7290   3.135   1.486   5.682  1.4001  0.2668 -0.3665
   80SOPE   H6Y 7291   3.262   1.605   5.707  0.3723 -1.8865  0.9633
   80SOPE   C37 7292   3.127   1.647   5.539  0.7109  0.3143 -0.1243
   80SOPE   H7X 7293   3.169   1.749   5.525 -2.7739  2.1174  1.4073
   80SOPE   H7Y 7294   3.018   1.662   5.527  0.5107  0.1609  1.2686
   80SOPE   C38 7295   3.194   1.547   5.434  0.3681 -0.3498 -0.0873
   80SOPE   H8X 7296   3.166   1.442   5.457 -0.5290  0.1145  1.0696
   80SOPE   H8Y 7297   3.304   1.562   5.432  0.2627  1.7056  2.9675
   80SOPE   C39 7298   3.140   1.572   5.293  0.3970 -0.1746  0.5389
   80SOPE   H9X 7299   3.128   1.682   5.277 -1.5565 -0.6089 -1.4389
   80SOPE   H9Y 7300   3.037   1.530   5.292  0.0622  0.6296  0.3917
   80SOPE  C310 7301   3.219   1.503   5.183  0.1406  0.4693  0.0612
   80SOPE  H10X 7302   3.206   1.393   5.180  1.0249  0.3854 -1.8062
   80SOPE  H10Y 7303   3.324   1.520   5.214 -0.0740  0.0586  1.0499
   80SOPE  C311 7304   3.197   1.554   5.037 -0.2187  0.3016  0.1189
   80SOPE  H11X 7305   3.294   1.531   4.989  0.4941  1.3992  0.9873
   80SOPE  H11Y 7306   3.169   1.660   5.050  0.9709  0.8351 -1.3733
   80SOPE  C312 7307   3.095   1.472   4.958 -0.2828  0.2508  0.3707
   80SOPE  H12X 7308   2.992   1.489   4.994 -0.1643  1.0743  0.3493
   80SOPE  H12Y 7309   3.122   1.364   4.964 -0.9330  0.0041 -0.8706
   80SOPE  C313 7310   3.102   1.526   4.816  0.6116 -0.1898 -0.3005
   80SOPE  H13X 7311   3.192   1.486   4.766  1.9704  1.4885  0.7039
   80SOPE  H13Y 7312   3.111   1.636   4.822  0.0403 -0.0648 -1.4426
   80SOPE  C314 7313   2.986   1.492   4.718 -0.3892  0.4885 -0.3961
   80SOPE  H14X 7314   2.980   1.386   4.685  0.7237  0.5890 -0.9811
   80SOPE  H14Y 7315   3.007   1.550   4.626 -0.6722  2.4225  0.7141
   80SOPE  C315 7316   2.852   1.525   4.769 -0.3535 -1.2931  0.0812
   80SOPE  H15X 7317   2.862   1.618   4.827  2.2859 -1.3390 -0.1551
   80SOPE  H15Y 7318   2.812   1.445   4.835 -0.7948 -0.0240  1.4042
   80SOPE  C316 7319   2.741   1.549   4.662  0.8400  0.8203 -0.2294
   80SOPE  H16X 7320   2.767   1.643   4.607 -2.8682  2.0732 -0.1357
   80SOPE  H16Y 7321   2.641   1.562   4.709  0.2294  0.6890 -1.4518
   80SOPE  C317 7322   2.739   1.427   4.565 -0.7138 -0.0760  0.0482
   80SOPE  H17X 7323   2.714   1.342   4.631  1.3707 -1.2256 -0.5573
   80SOPE  H17Y 7324   2.835   1.402   4.515 -0.9422 -0.3823 -0.2389
   80SOPE  C318 7325   2.632   1.442   4.457 -0.9530  0.7921  0.6052
   80SOPE  H18X 7326   2.533   1.458   4.506 -0.8675  2.3258  0.3292
   80SOPE  H18Y 7327   2.631   1.355   4.388 -0.5945 -0.0860  1.6725
   80SOPE  H18Z 7328   2.648   1.534   4.397 -0.6068  1.5199  1.7878
   81SOPE     N 7329   5.701   3.909   6.772  0.2166 -0.2929 -0.2378
   81SOPE   HN1 7330   5.696   3.821   6.716  2.2609 -1.3597  1.1250
   81SOPE   HN2 7331   5.794   3.907   6.817 -0.1370 -3.8779  0.6575
   81SOPE   HN3 7332   5.625   3.909   6.843  2.7866  0.0824  2.7438
   81SOPE   C12 7333   5.693   4.022   6.673 -0.1009 -1.2012 -0.3547
   81SOPE  H12A 7334   5.699   4.114   6.736  2.6758 -1.4879 -0.0781
   81SOPE  H12B 7335   5.594   4.025   6.624 -0.2649 -0.5100 -0.0078
   81SOPE   C11 7336   5.814   4.013   6.572  0.1492  0.2372  0.2976
   81SOPE  H11A 7337   5.816   4.104   6.507 -1.3734  0.0730 -0.0147
   81SOPE  H11B 7338   5.794   3.928   6.504  1.2032 -1.6784  2.2809
   81SOPE     P 7339   6.026   4.098   6.686 -0.2404  0.1598 -0.0104
   81SOPE   O13 7340   6.163   4.054   6.737  0.1533  0.1417  0.1109
   81SOPE   O14 7341   5.944   4.184   6.770 -0.1137  0.1016 -0.3374
   81SOPE   O12 7342   5.935   3.977   6.641  0.1912  0.9307  0.1964
   81SOPE   O11 7343   6.058   4.177   6.554 -0.2938  0.2651  0.4119
   81SOPE    C1 7344   6.075   4.116   6.423 -0.1458  0.0511 -0.8040
   81SOPE    HA 7345   5.979   4.113   6.366 -0.8949  4.3835 -0.0560
   81SOPE    HB 7346   6.139   4.025   6.431  0.2753  0.4683  0.7918
   81SOPE    C2 7347   6.159   4.211   6.334 -0.2604  0.1027  0.4223
   81SOPE    HS 7348   6.127   4.197   6.228  0.1922  1.3563  0.1123
   81SOPE   O21 7349   6.298   4.190   6.364 -0.4110 -0.1865  0.0392
   81SOPE   C21 7350   6.353   4.099   6.288 -0.8633  0.7955  0.2561
   81SOPE   O22 7351   6.298   4.029   6.202  0.0075 -0.0711 -0.1907
   81SOPE   C22 7352   6.504   4.094   6.316  0.4601 -0.0184 -0.1426
   81SOPE   H2R 7353   6.509   4.041   6.414 -0.9186 -0.8244 -0.4746
   81SOPE   H2S 7354   6.545   4.193   6.345 -1.0962  1.2243 -1.9320
   81SOPE    C3 7355   6.121   4.361   6.349  0.0028  0.6131 -0.2860
   81SOPE    HX 7356   6.169   4.378   6.448  0.1550  1.1684 -0.4504
   81SOPE    HY 7357   6.010   4.366   6.363 -0.0685 -2.4873  1.0316
   81SOPE   O31 7358   6.173   4.445   6.245  0.5790 -0.3329  0.4576
   81SOPE   C31 7359   6.095   4.464   6.139  0.3695  0.0534  0.3834
   81SOPE   O32 7360   5.983   4.425   6.123 -0.3534 -0.7117 -0.8711
   81SOPE   C32 7361   6.185   4.527   6.027  0.0542  0.0305 -0.0666
   81SOPE   H2X 7362   6.272   4.460   6.011 -0.6214 -1.4650  2.1214
   81SOPE   H2Y 7363   6.221   4.628   6.056  0.5663  0.3721 -1.7772
   81SOPE   C23 7364   6.590   4.026   6.208  0.3353 -0.3655 -0.7507
   81SOPE   H3R 7365   6.536   3.933   6.180  1.2961 -1.3322  0.4973
   81SOPE   H3S 7366   6.694   4.022   6.246  0.2062  0.1873 -0.3070
   81SOPE   C24 7367   6.602   4.110   6.075 -0.8059 -0.0409  0.5438
   81SOPE   H4R 7368   6.600   4.056   5.978  2.4212 -1.1706  0.9864
   81SOPE   H4S 7369   6.517   4.181   6.063 -0.6837 -0.3991 -4.2466
   81SOPE   C25 7370   6.723   4.202   6.073 -0.4694  1.3979  0.6031
   81SOPE   H5R 7371   6.712   4.279   6.152  3.6853 -0.5005  3.3896
   81SOPE   H5S 7372   6.818   4.147   6.089 -0.2824  1.6251  0.2697
   81SOPE   C26 7373   6.744   4.282   5.940 -0.5012 -0.7732  0.3362
   81SOPE   H6R 7374   6.674   4.368   5.940  2.3653  1.7118  0.0283
   81SOPE   H6S 7375   6.846   4.325   5.951 -0.4306 -0.9465  0.3640
   81SOPE   C27 7376   6.746   4.197   5.815  0.2169  0.0428 -0.4519
   81SOPE   H7R 7377   6.806   4.106   5.834 -1.2325 -0.6252  1.1738
   81SOPE   H7S 7378   6.642   4.172   5.784 -0.9798  1.1388  2.2985
   81SOPE   C28 7379   6.815   4.270   5.693  0.0947  0.1110 -0.5387
   81SOPE   H8R 7380   6.919   4.281   5.730 -0.4331  2.3165  0.3960
   81SOPE   H8S 7381   6.815   4.194   5.611  3.1103 -1.1381  0.4985
   81SOPE   C29 7382   6.756   4.401   5.651  0.2372 -0.0321  0.8799
   81SOPE   H91 7383   6.674   4.433   5.716 -1.9291 -2.2874 -0.5135
   81SOPE  C210 7384   6.789   4.485   5.556 -0.0276  0.5636  0.4018
   81SOPE  H101 7385   6.739   4.583   5.549 -0.4974  0.2293 -1.2919
   81SOPE  C211 7386   6.906   4.459   5.463  0.1444  0.1100  0.2685
   81SOPE  H11R 7387   6.952   4.358   5.458  1.8008  0.6954  2.3103
   81SOPE  H11S 7388   6.995   4.517   5.494  0.4233 -0.7665  1.1771
   81SOPE  C212 7389   6.880   4.494   5.314 -0.2198 -0.1674  0.2728
   81SOPE  H12R 7390   6.845   4.599   5.315 -0.9264 -0.3986  0.1099
   81SOPE  H12S 7391   6.805   4.422   5.276 -0.8211  0.5018  0.1839
   81SOPE  C213 7392   7.013   4.488   5.234  0.1743  0.0339  0.8992
   81SOPE  H13R 7393   7.070   4.394   5.248 -1.0867 -1.0372 -0.6764
   81SOPE  H13S 7394   7.075   4.570   5.275 -1.9598  1.2395  1.9061
   81SOPE  C214 7395   6.984   4.526   5.083 -0.3480 -0.1097  0.0555
   81SOPE  H14R 7396   6.955   4.633   5.077  1.1904  0.3359  0.2169
   81SOPE  H14S 7397   6.904   4.458   5.045 -2.6958  1.2362  2.2682
   81SOPE  C215 7398   7.105   4.521   4.988  0.4506  0.7524  0.3202
   81SOPE  H15R 7399   7.151   4.420   4.990 -2.5318 -0.7109  0.8417
   81SOPE  H15S 7400   7.188   4.583   5.029  0.8579 -1.0762  2.4630
   81SOPE  C216 7401   7.075   4.571   4.839  0.2930  0.3986 -0.0315
   81SOPE  H16R 7402   7.015   4.664   4.829 -0.1977 -0.0145 -1.0634
   81SOPE  H16S 7403   7.006   4.497   4.794 -1.9376  2.0173  0.5075
   81SOPE  C217 7404   7.199   4.597   4.754 -0.2217  0.2171  0.4118
   81SOPE  H17R 7405   7.255   4.502   4.745 -0.6540 -0.1225  1.1933
   81SOPE  H17S 7406   7.271   4.655   4.815 -0.3111  0.5746  0.1837
   81SOPE  C218 7407   7.162   4.654   4.615 -0.7097 -0.0930  0.6769
   81SOPE  H18R 7408   7.130   4.760   4.619 -0.3561  0.0136  0.6911
   81SOPE  H18S 7409   7.072   4.603   4.576 -1.0167  1.9572 -1.5151
   81SOPE  H18T 7410   7.241   4.632   4.539 -2.0994 -0.7335 -0.6279
   81SOPE   C33 7411   6.107   4.539   5.892  0.0084 -0.6508 -1.1656
   81SOPE   H3X 7412   6.004   4.580   5.906 -0.2116 -1.3938 -0.5348
   81SOPE   H3Y 7413   6.091   4.436   5.854  0.0305 -1.5188  1.0168
   81SOPE   C34 7414   6.180   4.626   5.794 -0.6535  0.1044 -0.8269
   81SOPE   H4X 7415   6.277   4.579   5.766  1.3819  2.4037  1.8088
   81SOPE   H4Y 7416   6.195   4.722   5.848 -2.2684 -0.0942  0.0263
   81SOPE   C35 7417   6.106   4.657   5.667  0.3082 -0.5065  0.2480
   81SOPE   H5X 7418   6.012   4.711   5.692  1.0309  0.6415  0.5859
   81SOPE   H5Y 7419   6.091   4.554   5.628  0.5070 -0.2300 -0.5815
   81SOPE   C36 7420   6.186   4.754   5.573  0.2427  0.3816  0.0159
   81SOPE   H6X 7421   6.280   4.697   5.562  0.2784  0.1909  1.1543
   81SOPE   H6Y 7422   6.210   4.852   5.620  1.5509 -0.1475  0.5031
   81SOPE   C37 7423   6.112   4.780   5.439  0.1564  0.5956 -0.0792
   81SOPE   H7X 7424   6.024   4.844   5.465 -0.7727 -1.0783  1.1050
   81SOPE   H7Y 7425   6.083   4.680   5.400  1.3807  0.4472 -0.6489
   81SOPE   C38 7426   6.205   4.850   5.347  0.2731 -0.5017 -0.2230
   81SOPE   H8X 7427   6.302   4.796   5.336  1.1399  0.6158  1.4451
   81SOPE   H8Y 7428   6.235   4.946   5.394  2.6664 -1.9836  1.5101
   81SOPE   C39 7429   6.159   4.865   5.198  0.3162  0.1945  0.2962
   81SOPE   H9X 7430   6.238   4.914   5.139  0.1448 -0.6492 -0.6610
   81SOPE   H9Y 7431   6.073   4.933   5.218  0.8584  1.1107 -0.4245
   81SOPE  C310 7432   6.122   4.739   5.121  0.1666  0.0353  0.7981
   81SOPE  H10X 7433   6.048   4.687   5.185 -0.0876  1.0555  1.3534
   81SOPE  H10Y 7434   6.215   4.678   5.116  0.6488  0.8176 -0.5388
   81SOPE  C311 7435   6.065   4.764   4.975 -0.0326  0.1721  0.0458
   81SOPE  H11X 7436   6.142   4.761   4.895 -0.3667 -0.9495 -0.2523
   81SOPE  H11Y 7437   6.002   4.856   4.970  0.0302  0.1374 -2.7754
   81SOPE  C312 7438   5.958   4.663   4.944 -0.3985  0.1980 -0.7764
   81SOPE  H12X 7439   5.874   4.658   5.016  1.0486 -0.8783  0.9274
   81SOPE  H12Y 7440   6.003   4.563   4.960 -2.2858 -1.4458 -4.4590
   81SOPE  C313 7441   5.893   4.677   4.802  0.0650  0.1264  0.0499
   81SOPE  H13X 7442   5.873   4.785   4.785  0.1102  0.1770  0.3036
   81SOPE  H13Y 7443   5.808   4.605   4.801  1.3137 -1.3839  0.0438
   81SOPE  C314 7444   5.980   4.644   4.680  0.1213  0.6941  0.5867
   81SOPE  H14X 7445   6.026   4.543   4.692  1.1621  1.1490  0.5486
   81SOPE  H14Y 7446   6.068   4.712   4.684 -0.4377  1.3872  1.4246
   81SOPE  C315 7447   5.899   4.634   4.547 -0.3848 -0.3544  0.1383
   81SOPE  H15X 7448   5.884   4.743   4.530 -0.8625 -0.5085 -0.4800
   81SOPE  H15Y 7449   5.794   4.597   4.553 -1.1742  0.9288 -3.1511
   81SOPE  C316 7450   5.971   4.566   4.424 -0.3385  0.1803 -0.2047
   81SOPE  H16X 7451   5.977   4.459   4.454 -0.9606 -1.1658 -4.3202
   81SOPE  H16Y 7452   6.069   4.608   4.392 -1.2316  1.0102 -1.9900
   81SOPE  C317 7453   5.878   4.564   4.302  0.4910 -0.6669 -0.1736
   81SOPE  H17X 7454   5.830   4.664   4.300 -0.5292 -1.1331  0.0223
   81SOPE  H17Y 7455   5.791   4.496   4.312 -0.5296  0.3729 -1.6149
   81SOPE  C318 7456   5.942   4.541   4.169 -0.3302  0.5330  0.3887
   81SOPE  H18X 7457   5.988   4.440   4.179  0.4652  0.7083 -1.2124
   81SOPE  H18Y 7458   6.040   4.592   4.155  0.1738 -0.9094 -1.9071
   81SOPE  H18Z 7459   5.873   4.543   4.083  2.0670 -0.2078 -1.6782
   82SOPE     N 7460   3.926   4.210   6.929  0.1293 -0.3376 -0.3759
   82SOPE   HN1 7461   3.866   4.293   6.944  0.7839  0.2607 -0.9546
   82SOPE   HN2 7462   3.881   4.173   6.843 -1.0560  0.6378 -0.2030
   82SOPE   HN3 7463   3.913   4.147   7.010  0.9011  2.3407  2.0020
   82SOPE   C12 7464   4.070   4.224   6.895  0.3045 -0.2495 -0.3057
   82SOPE  H12A 7465   4.107   4.256   6.995 -0.2343 -0.2339 -0.1130
   82SOPE  H12B 7466   4.093   4.309   6.828  3.0995 -0.2516  0.4872
   82SOPE   C11 7467   4.138   4.090   6.884  0.1637  0.6357  0.1537
   82SOPE  H11A 7468   4.119   4.029   6.975  1.4452 -0.2294 -0.1276
   82SOPE  H11B 7469   4.249   4.103   6.890  0.1533  0.6016  0.4077
   82SOPE     P 7470   4.057   3.886   6.759 -0.0445  0.6010  0.3131
   82SOPE   O13 7471   3.910   3.894   6.766  0.1051  0.5521  0.7364
   82SOPE   O14 7472   4.121   3.801   6.862  0.6965 -0.1530  0.2930
   82SOPE   O12 7473   4.107   4.035   6.761 -0.3110 -0.0089  0.5521
   82SOPE   O11 7474   4.093   3.833   6.615  0.6349  0.1429  0.0988
   82SOPE    C1 7475   4.223   3.877   6.564  0.1621 -0.3958 -0.0543
   82SOPE    HA 7476   4.301   3.877   6.643  0.9227  1.1658 -0.7551
   82SOPE    HB 7477   4.209   3.987   6.554 -0.9227 -0.3110  1.9432
   82SOPE    C2 7478   4.257   3.816   6.432  0.2375 -0.2198  0.2834
   82SOPE    HS 7479   4.361   3.842   6.404  0.4031 -0.5767  0.5700
   82SOPE   O21 7480   4.160   3.853   6.331  0.5438  0.5947  0.7572
   82SOPE   C21 7481   4.191   3.955   6.257  0.2551 -0.1744  0.2655
   82SOPE   O22 7482   4.295   4.016   6.251  0.8547  0.1428 -0.4046
   82SOPE   C22 7483   4.070   4.004   6.185  0.6271  0.0594 -0.1548
   82SOPE   H2R 7484   3.992   4.011   6.264  2.9493  1.7637  2.1359
   82SOPE   H2S 7485   4.033   3.926   6.115  0.5592 -1.2959  1.3378
   82SOPE    C3 7486   4.249   3.661   6.444 -0.1934  0.6340 -0.2493
   82SOPE    HX 7487   4.145   3.642   6.479 -0.1966 -0.4186 -0.7966
   82SOPE    HY 7488   4.317   3.624   6.524 -0.1061 -0.5540 -0.8520
   82SOPE   O31 7489   4.270   3.572   6.326 -1.1352  0.4076  0.0999
   82SOPE   C31 7490   4.392   3.565   6.262  0.3961  0.5330 -0.3538
   82SOPE   O32 7491   4.486   3.635   6.283  0.1124  0.0396 -0.2169
   82SOPE   C32 7492   4.382   3.465   6.153 -0.0189  0.4692  0.6070
   82SOPE   H2X 7493   4.316   3.515   6.078 -2.0797  1.1260  2.7349
   82SOPE   H2Y 7494   4.339   3.367   6.185 -0.0599  0.0690 -0.6294
   82SOPE   C23 7495   4.083   4.147   6.130  0.7863  0.3971 -0.2838
   82SOPE   H3R 7496   4.107   4.221   6.210 -0.2617 -1.2855  1.7125
   82SOPE   H3S 7497   3.979   4.175   6.102  1.3446  0.7945 -2.0457
   82SOPE   C24 7498   4.164   4.160   6.000 -0.0845  0.2688  0.2693
   82SOPE   H4R 7499   4.263   4.111   6.007 -0.3712 -0.8030 -2.2196
   82SOPE   H4S 7500   4.122   4.108   5.912  1.8499  0.8271 -1.0491
   82SOPE   C25 7501   4.196   4.307   5.963 -0.2355 -0.1890 -0.2012
   82SOPE   H5R 7502   4.108   4.372   5.947 -0.9423 -0.8090  1.0188
   82SOPE   H5S 7503   4.245   4.342   6.056  0.6111 -1.4980 -0.1267
   82SOPE   C26 7504   4.297   4.312   5.854  0.1404  0.7545  0.0141
   82SOPE   H6R 7505   4.351   4.409   5.862 -1.4613  1.8413 -1.6827
   82SOPE   H6S 7506   4.375   4.234   5.870 -0.9494 -0.0385  1.7960
   82SOPE   C27 7507   4.247   4.296   5.718  0.6941 -1.1048 -0.8203
   82SOPE   H7R 7508   4.202   4.196   5.702  0.0419 -1.0652  0.6353
   82SOPE   H7S 7509   4.160   4.366   5.712  0.7634 -0.8665  0.7623
   82SOPE   C28 7510   4.345   4.342   5.606  0.2296  0.1359 -0.0066
   82SOPE   H8R 7511   4.287   4.324   5.513 -0.1017 -0.3050  0.2831
   82SOPE   H8S 7512   4.367   4.450   5.620  1.3543 -0.2707  1.7038
   82SOPE   C29 7513   4.470   4.253   5.602  1.4223  0.2285  0.0213
   82SOPE   H91 7514   4.526   4.254   5.696  0.2909 -3.2166  0.8706
   82SOPE  C210 7515   4.511   4.164   5.508  0.1777 -0.1588 -0.1024
   82SOPE  H101 7516   4.604   4.113   5.535  0.8892  1.9264  1.7419
   82SOPE  C211 7517   4.454   4.136   5.365 -0.6504  0.2185 -0.4281
   82SOPE  H11R 7518   4.349   4.172   5.354 -1.6404 -2.0304  1.0147
   82SOPE  H11S 7519   4.445   4.026   5.352 -0.2109  0.2996 -1.5248
   82SOPE  C212 7520   4.541   4.215   5.266  0.0646 -0.2136  1.0997
   82SOPE  H12R 7521   4.649   4.193   5.278  0.5033  1.6813  1.0687
   82SOPE  H12S 7522   4.522   4.325   5.276 -0.2159 -0.1214 -0.2012
   82SOPE  C213 7523   4.501   4.180   5.121  0.3614  0.5280 -0.0972
   82SOPE  H13R 7524   4.394   4.197   5.098  0.1558  1.0051  1.1453
   82SOPE  H13S 7525   4.508   4.070   5.107 -1.4870  0.4244 -0.3599
   82SOPE  C214 7526   4.602   4.240   5.020  0.4773  0.7096 -0.6203
   82SOPE  H14R 7527   4.594   4.350   5.023 -0.2039  0.7354 -2.2302
   82SOPE  H14S 7528   4.561   4.199   4.925  2.1640 -0.6275 -0.8214
   82SOPE  C215 7529   4.750   4.190   5.035 -0.4066  0.2291  0.0484
   82SOPE  H15R 7530   4.747   4.106   5.108 -2.8382  0.5604  0.4199
   82SOPE  H15S 7531   4.824   4.262   5.075  0.2028 -1.3238  1.9181
   82SOPE  C216 7532   4.818   4.133   4.909  0.1639  0.3083 -0.2651
   82SOPE  H16R 7533   4.756   4.050   4.868  0.3939 -0.1044  0.2108
   82SOPE  H16S 7534   4.919   4.091   4.926  2.2933  4.1814 -1.9925
   82SOPE  C217 7535   4.821   4.245   4.802  0.3637  0.7580 -0.2892
   82SOPE  H17R 7536   4.902   4.306   4.847  0.9612 -2.0170  2.7785
   82SOPE  H17S 7537   4.719   4.290   4.804 -0.4192 -0.9102 -0.7953
   82SOPE  C218 7538   4.851   4.178   4.667  0.9098 -0.4683  0.3763
   82SOPE  H18R 7539   4.834   4.248   4.582  0.5688 -3.8474 -2.5480
   82SOPE  H18S 7540   4.782   4.093   4.653 -0.7976  0.9992 -0.6580
   82SOPE  H18T 7541   4.952   4.137   4.646  1.4650  1.0424 -0.0694
   82SOPE   C33 7542   4.525   3.427   6.100  0.6658  0.2365  0.2363
   82SOPE   H3X 7543   4.573   3.394   6.194  1.4039  4.0516  1.3747
   82SOPE   H3Y 7544   4.561   3.523   6.058 -2.4767  1.1281 -0.7674
   82SOPE   C34 7545   4.514   3.318   5.997  0.0771  0.6192 -0.9579
   82SOPE   H4X 7546   4.440   3.245   6.037 -0.1578  1.9214  1.1464
   82SOPE   H4Y 7547   4.609   3.264   5.975  0.0114  0.3104 -0.5077
   82SOPE   C35 7548   4.467   3.374   5.866 -0.3569  0.1311 -0.7822
   82SOPE   H5X 7549   4.535   3.458   5.842 -1.1757  0.7556 -0.9901
   82SOPE   H5Y 7550   4.368   3.426   5.862  0.8384  2.6827  0.4818
   82SOPE   C36 7551   4.473   3.270   5.751  0.1138 -0.9623 -0.1061
   82SOPE   H6X 7552   4.393   3.195   5.768 -1.8549  0.9433 -0.5384
   82SOPE   H6Y 7553   4.577   3.231   5.750  1.1943  1.6051  1.6883
   82SOPE   C37 7554   4.457   3.332   5.613 -1.0869 -0.1609  0.6335
   82SOPE   H7X 7555   4.542   3.403   5.610  1.1725 -2.4350  4.0866
   82SOPE   H7Y 7556   4.361   3.389   5.612 -1.4113 -0.6149  2.7234
   82SOPE   C38 7557   4.474   3.232   5.496 -0.5058 -0.0493  0.3486
   82SOPE   H8X 7558   4.385   3.165   5.494  1.5168 -2.8448 -1.5718
   82SOPE   H8Y 7559   4.570   3.178   5.504 -0.7424 -0.3342  1.5577
   82SOPE   C39 7560   4.455   3.298   5.352 -0.4812 -0.0403  0.0458
   82SOPE   H9X 7561   4.519   3.387   5.337 -2.0138  1.3570  1.4397
   82SOPE   H9Y 7562   4.347   3.313   5.336 -0.3201 -0.8395 -2.1686
   82SOPE  C310 7563   4.498   3.202   5.236 -0.1522  0.4462  0.4045
   82SOPE  H10X 7564   4.425   3.119   5.245 -0.4855  0.9337  3.3287
   82SOPE  H10Y 7565   4.601   3.163   5.249  0.2122  0.4881 -2.0035
   82SOPE  C311 7566   4.488   3.274   5.104 -0.6468  0.5385 -0.1343
   82SOPE  H11X 7567   4.578   3.340   5.099  0.4086 -0.8741 -0.4389
   82SOPE  H11Y 7568   4.390   3.325   5.096 -1.0275  0.0238  1.0708
   82SOPE  C312 7569   4.493   3.178   4.987  0.3973  0.0485 -0.3920
   82SOPE  H12X 7570   4.403   3.114   4.999 -0.5897  1.3454 -0.6843
   82SOPE  H12Y 7571   4.585   3.117   5.002  0.9509  1.0181  0.2552
   82SOPE  C313 7572   4.493   3.258   4.858 -0.4510  0.5844  0.1455
   82SOPE  H13X 7573   4.570   3.337   4.846  1.6205 -1.0223  2.1132
   82SOPE  H13Y 7574   4.395   3.310   4.846 -1.1984 -0.7583  0.2129
   82SOPE  C314 7575   4.503   3.176   4.724 -0.9546 -0.2473  0.2470
   82SOPE  H14X 7576   4.431   3.096   4.751 -0.1734 -0.8201  0.6749
   82SOPE  H14Y 7577   4.601   3.124   4.714 -0.0828  1.4920 -0.6881
   82SOPE  C315 7578   4.479   3.250   4.595 -0.2717 -0.0583 -0.1963
   82SOPE  H15X 7579   4.498   3.186   4.507  0.6854  0.6838 -0.5491
   82SOPE  H15Y 7580   4.561   3.326   4.591  0.9476 -1.3841 -1.6082
   82SOPE  C316 7581   4.334   3.300   4.590  0.9415  0.3043 -0.6184
   82SOPE  H16X 7582   4.328   3.385   4.661  0.6103  0.4316 -0.7967
   82SOPE  H16Y 7583   4.253   3.228   4.614  3.2535 -2.4938 -0.6471
   82SOPE  C317 7584   4.289   3.375   4.459 -0.5008  0.1733 -0.0981
   82SOPE  H17X 7585   4.386   3.410   4.416 -2.5811  2.0871 -3.6825
   82SOPE  H17Y 7586   4.238   3.465   4.499 -2.3633 -0.7681 -0.2347
   82SOPE  C318 7587   4.206   3.285   4.367 -0.6729  0.3266 -0.1154
   82SOPE  H18X 7588   4.263   3.193   4.343 -1.1965 -0.3958  1.3118
   82SOPE  H18Y 7589   4.188   3.338   4.270  2.0929  0.9225 -0.3785
   82SOPE  H18Z 7590   4.112   3.253   4.418  0.1567 -0.7732  0.7487
   83SOPE     N 7591   1.077   5.024   2.591 -0.1604  0.2292  0.2803
   83SOPE   HN1 7592   0.978   4.999   2.570 -0.0411 -1.5996  1.6529
   83SOPE   HN2 7593   1.134   5.043   2.506 -1.7867 -1.3985 -1.2819
   83SOPE   HN3 7594   1.134   4.954   2.644 -0.0725  1.1613  1.4521
   83SOPE   C12 7595   1.079   5.153   2.669  0.1629  0.1066  0.1926
   83SOPE  H12A 7596   1.008   5.152   2.754  1.0077  0.6807  0.9239
   83SOPE  H12B 7597   1.040   5.233   2.603  2.1515  1.3090  0.3849
   83SOPE   C11 7598   1.221   5.192   2.708  0.2295  0.3547 -0.0060
   83SOPE  H11A 7599   1.256   5.119   2.784 -0.6317 -0.0184  0.0460
   83SOPE  H11B 7600   1.221   5.293   2.752 -0.3731  0.2120  0.3223
   83SOPE     P 7601   1.350   5.302   2.506  0.1513 -0.2815 -0.0383
   83SOPE   O13 7602   1.235   5.348   2.427  0.1714  0.1639  0.6889
   83SOPE   O14 7603   1.462   5.262   2.423 -0.3943  0.3436  0.0247
   83SOPE   O12 7604   1.309   5.184   2.591 -0.1469  0.9265 -0.4126
   83SOPE   O11 7605   1.397   5.408   2.615 -0.0404 -0.1599  0.7281
   83SOPE    C1 7606   1.538   5.440   2.638 -0.2801 -0.0889  0.1030
   83SOPE    HA 7607   1.563   5.525   2.570 -2.0889 -0.2516 -0.8471
   83SOPE    HB 7608   1.601   5.360   2.592  2.7982  1.8066  0.7555
   83SOPE    C2 7609   1.577   5.459   2.781 -0.0390  0.0756  0.0534
   83SOPE    HS 7610   1.519   5.545   2.821  1.0664  1.4949 -1.2825
   83SOPE   O21 7611   1.720   5.476   2.803 -0.3768  0.5511 -0.2683
   83SOPE   C21 7612   1.761   5.599   2.829  0.0604  0.8668  0.3497
   83SOPE   O22 7613   1.695   5.701   2.823  0.1804  0.1144 -0.0529
   83SOPE   C22 7614   1.911   5.599   2.854 -0.0594 -0.0280  0.0054
   83SOPE   H2R 7615   1.958   5.659   2.773  1.0473 -0.1831  0.5259
   83SOPE   H2S 7616   1.955   5.497   2.850 -1.8456 -0.8153 -2.5795
   83SOPE    C3 7617   1.539   5.334   2.869  0.4808  0.7772  0.2007
   83SOPE    HX 7618   1.599   5.244   2.845  1.0711  1.3960 -0.7681
   83SOPE    HY 7619   1.436   5.319   2.831  1.4654 -1.7303 -1.8015
   83SOPE   O31 7620   1.535   5.372   3.009  0.4909 -0.4156  0.5355
   83SOPE   C31 7621   1.469   5.285   3.082  0.0874 -0.4265 -0.1010
   83SOPE   O32 7622   1.419   5.182   3.043  0.0717 -0.1013 -0.3005
   83SOPE   C32 7623   1.481   5.332   3.223 -0.1054  0.1984  0.0222
   83SOPE   H2X 7624   1.385   5.330   3.278 -1.5658 -1.8807 -2.3625
   83SOPE   H2Y 7625   1.535   5.429   3.234  0.4063  0.2694 -2.5811
   83SOPE   C23 7626   1.932   5.665   2.997  0.3922 -0.2426  0.0256
   83SOPE   H3R 7627   1.865   5.614   3.069  2.4038 -0.9300  1.5082
   83SOPE   H3S 7628   1.907   5.773   2.994 -1.4783 -0.6612 -1.5092
   83SOPE   C24 7629   2.076   5.658   3.044  0.1902 -0.8793  0.5092
   83SOPE   H4R 7630   2.100   5.551   3.060 -0.4641 -1.2330 -0.8103
   83SOPE   H4S 7631   2.158   5.692   2.978  0.9007  0.6220  2.0849
   83SOPE   C25 7632   2.091   5.748   3.171 -0.6583 -0.2718 -0.6494
   83SOPE   H5R 7633   2.197   5.739   3.203 -0.4020 -1.6063 -1.7774
   83SOPE   H5S 7634   2.072   5.853   3.138  2.0232  0.1258 -1.1881
   83SOPE   C26 7635   2.015   5.709   3.302 -0.2521  1.1285 -0.3233
   83SOPE   H6R 7636   1.904   5.717   3.300 -0.5316 -1.3269  1.2774
   83SOPE   H6S 7637   2.030   5.602   3.326 -0.2984  0.9893 -0.9049
   83SOPE   C27 7638   2.059   5.791   3.426 -0.3993  0.1872  0.3515
   83SOPE   H7R 7639   2.161   5.765   3.462  0.9112  0.9045 -2.5150
   83SOPE   H7S 7640   2.053   5.897   3.394  1.5559  0.3197  0.2815
   83SOPE   C28 7641   1.968   5.781   3.550  0.2041 -0.0404  0.4058
   83SOPE   H8R 7642   1.976   5.878   3.602 -0.8953  0.3504 -0.1288
   83SOPE   H8S 7643   1.864   5.784   3.512 -0.6120  2.4715  2.5689
   83SOPE   C29 7644   2.016   5.666   3.638 -0.3846 -0.5184 -0.1333
   83SOPE   H91 7645   2.003   5.561   3.607 -3.1950 -0.7323  1.4220
   83SOPE  C210 7646   2.067   5.696   3.764 -0.8235 -0.2592 -0.3216
   83SOPE  H101 7647   2.128   5.624   3.820  0.7430  1.8232  0.7876
   83SOPE  C211 7648   2.090   5.825   3.839  0.2725  0.2865  0.0287
   83SOPE  H11R 7649   2.093   5.809   3.948 -2.1019  1.1802  0.2742
   83SOPE  H11S 7650   1.994   5.881   3.837 -0.9241 -1.6629 -1.7230
   83SOPE  C212 7651   2.192   5.929   3.805  0.7549 -0.8382  0.1529
   83SOPE  H12R 7652   2.190   6.021   3.867  2.4685 -1.4379  1.2021
   83SOPE  H12S 7653   2.173   5.966   3.703  2.6729  1.5368  0.5620
   83SOPE  C213 7654   2.335   5.876   3.817  0.0984  0.2468 -0.6565
   83SOPE  H13R 7655   2.349   5.819   3.723 -0.0841 -0.1408 -0.4475
   83SOPE  H13S 7656   2.337   5.808   3.905  1.2191  0.3124 -0.6087
   83SOPE  C214 7657   2.439   5.988   3.832 -0.1764  0.3972 -0.7854
   83SOPE  H14R 7658   2.541   5.942   3.835  0.7747  2.2739  3.5742
   83SOPE  H14S 7659   2.431   6.027   3.935  1.4672 -2.8612  0.7233
   83SOPE  C215 7660   2.428   6.102   3.725 -0.8050  0.1136 -0.0538
   83SOPE  H15R 7661   2.482   6.184   3.778 -0.4034 -0.0651 -0.1850
   83SOPE  H15S 7662   2.326   6.142   3.709 -0.6226  0.5675 -0.0942
   83SOPE  C216 7663   2.484   6.062   3.585  0.1123  0.6172 -0.4135
   83SOPE  H16R 7664   2.437   5.963   3.565 -0.6388  0.3860  2.1618
   83SOPE  H16S 7665   2.595   6.052   3.586  0.1116 -0.3822  2.9792
   83SOPE  C217 7666   2.446   6.152   3.467 -0.2794  0.0468 -0.3560
   83SOPE  H17R 7667   2.528   6.142   3.393 -0.2572  1.6738 -0.5757
   83SOPE  H17S 7668   2.458   6.255   3.506  1.0571 -1.3028  3.2079
   83SOPE  C218 7669   2.300   6.140   3.413  0.2094  0.3494  0.1545
   83SOPE  H18R 7670   2.284   6.033   3.385  2.0843  0.1788 -0.4160
   83SOPE  H18S 7671   2.288   6.199   3.320 -0.2897 -0.5327 -0.3598
   83SOPE  H18T 7672   2.220   6.173   3.483 -0.5346 -1.1111  0.0283
   83SOPE   C33 7673   1.570   5.226   3.297  0.2051  0.0005  0.3469
   83SOPE   H3X 7674   1.662   5.209   3.236  0.1246 -0.7452  0.4239
   83SOPE   H3Y 7675   1.523   5.126   3.307  1.1324 -0.5304 -0.4017
   83SOPE   C34 7676   1.613   5.271   3.434 -0.6042  0.2344 -0.4648
   83SOPE   H4X 7677   1.530   5.306   3.499  1.4675 -0.0650  2.5414
   83SOPE   H4Y 7678   1.699   5.339   3.421 -0.0706 -0.2158  0.6217
   83SOPE   C35 7679   1.677   5.150   3.511  0.1593 -0.3576 -0.0738
   83SOPE   H5X 7680   1.728   5.102   3.425 -1.6933  2.1020 -2.7122
   83SOPE   H5Y 7681   1.587   5.096   3.546 -1.8312  3.0787  0.5406
   83SOPE   C36 7682   1.790   5.195   3.604 -0.6823 -0.0939 -0.0900
   83SOPE   H6X 7683   1.743   5.233   3.698 -0.6785  1.8139 -0.8262
   83SOPE   H6Y 7684   1.850   5.277   3.559 -1.4740 -0.6339 -2.2637
   83SOPE   C37 7685   1.896   5.089   3.617  0.0948  0.1743  0.4272
   83SOPE   H7X 7686   1.952   5.076   3.522  1.6483 -0.2793  1.3533
   83SOPE   H7Y 7687   1.845   4.992   3.634  0.3937 -0.0122  0.2703
   83SOPE   C38 7688   1.999   5.115   3.731  0.2156  0.2938  0.4349
   83SOPE   H8X 7689   2.055   5.209   3.714  1.4001 -0.5295 -0.3450
   83SOPE   H8Y 7690   2.079   5.038   3.724  0.9115  1.1116 -1.1187
   83SOPE   C39 7691   1.924   5.127   3.868  0.4908  0.2552  0.2772
   83SOPE   H9X 7692   1.869   5.224   3.867  1.1005  0.6017 -0.4010
   83SOPE   H9Y 7693   2.008   5.148   3.937  0.4754 -0.1106  0.4073
   83SOPE  C310 7694   1.834   5.017   3.921  0.4127 -0.4066 -1.0551
   83SOPE  H10X 7695   1.896   4.929   3.947  0.5149  0.2274  1.0326
   83SOPE  H10Y 7696   1.754   4.982   3.852 -1.5929  0.3576  0.7626
   83SOPE  C311 7697   1.762   5.055   4.053  0.7746  0.4973 -0.1813
   83SOPE  H11X 7698   1.700   5.144   4.027 -0.3054  0.2555  1.3960
   83SOPE  H11Y 7699   1.837   5.081   4.131  2.9131  0.0065 -1.9805
   83SOPE  C312 7700   1.679   4.931   4.105 -0.2962  0.2555 -0.6401
   83SOPE  H12X 7701   1.743   4.849   4.146 -1.7555 -0.1270  0.9597
   83SOPE  H12Y 7702   1.634   4.892   4.012 -1.0137 -3.3844  1.0449
   83SOPE  C313 7703   1.567   4.968   4.202  0.0950  0.0304 -0.0608
   83SOPE  H13X 7704   1.493   5.037   4.155 -1.0133 -1.4586 -0.5877
   83SOPE  H13Y 7705   1.612   5.018   4.290  2.2770 -0.7213 -0.6946
   83SOPE  C314 7706   1.496   4.840   4.242 -0.1412 -0.0114 -0.1572
   83SOPE  H14X 7707   1.567   4.769   4.290  0.6183 -1.0058 -2.5907
   83SOPE  H14Y 7708   1.452   4.794   4.151 -0.5701 -1.1919  0.6170
   83SOPE  C315 7709   1.382   4.864   4.341 -0.7096  0.3991 -0.0737
   83SOPE  H15X 7710   1.287   4.812   4.319 -2.1285  3.0670 -0.7024
   83SOPE  H15Y 7711   1.342   4.968   4.343 -1.4068  0.1344  1.9973
   83SOPE  C316 7712   1.417   4.821   4.487  0.3295 -0.5993 -0.7148
   83SOPE  H16X 7713   1.515   4.853   4.530  1.2430 -4.4838  0.4829
   83SOPE  H16Y 7714   1.427   4.711   4.481 -0.2575 -0.7677  0.9618
   83SOPE  C317 7715   1.303   4.858   4.585 -0.0467 -0.1584  0.2903
   83SOPE  H17X 7716   1.288   4.967   4.595 -3.8825 -0.2756 -1.9691
   83SOPE  H17Y 7717   1.319   4.815   4.686 -0.3342 -1.6588 -0.2723
   83SOPE  C318 7718   1.165   4.817   4.545  0.0747 -0.4821  0.4466
   83SOPE  H18X 7719   1.097   4.835   4.631 -0.6467  0.0531 -0.2151
   83SOPE  H18Y 7720   1.151   4.709   4.526 -0.6665 -0.4951  1.0148
   83SOPE  H18Z 7721   1.137   4.880   4.457  0.9554  0.7051  0.9855
   84SOPE     N 7722   0.642   4.989   2.337 -0.5541 -0.3535 -0.1396
   84SOPE   HN1 7723   0.569   4.933   2.385 -1.9573  0.2692 -1.4451
   84SOPE   HN2 7724   0.730   4.977   2.391 -0.5799 -0.0359 -0.0208
   84SOPE   HN3 7725   0.625   5.092   2.338  1.7913  0.1065  2.1395
   84SOPE   C12 7726   0.667   4.945   2.193  0.1966  0.5083  0.7916
   84SOPE  H12A 7727   0.573   4.954   2.134  1.1060 -0.6529 -0.9077
   84SOPE  H12B 7728   0.694   4.838   2.200 -1.8191 -0.0637  0.5057
   84SOPE   C11 7729   0.778   5.022   2.124  0.1838  0.8040 -0.1592
   84SOPE  H11A 7730   0.725   5.113   2.087 -1.4630  0.1606  0.5181
   84SOPE  H11B 7731   0.809   4.971   2.031  2.1171 -1.3650  1.5747
   84SOPE     P 7732   1.019   4.969   2.237  0.1926  0.5098  0.0334
   84SOPE   O13 7733   1.124   5.059   2.296  0.3445 -0.4461 -0.1546
   84SOPE   O14 7734   1.058   4.895   2.114 -0.2825  0.0660  0.7697
   84SOPE   O12 7735   0.888   5.058   2.210 -0.0957 -0.1165  0.5031
   84SOPE   O11 7736   0.961   4.871   2.344  0.7396 -0.3068 -0.0391
   84SOPE    C1 7737   0.947   4.731   2.333 -0.1200  0.6354 -0.0347
   84SOPE    HA 7738   0.972   4.699   2.230  0.2931  0.5279  0.0985
   84SOPE    HB 7739   0.840   4.705   2.345 -0.2512  1.4835  0.7400
   84SOPE    C2 7740   1.041   4.655   2.429  0.1386 -0.4930  0.7170
   84SOPE    HS 7741   1.024   4.551   2.394  0.3558 -1.1392  2.4193
   84SOPE   O21 7742   0.999   4.683   2.564 -0.2480  0.0862 -0.3805
   84SOPE   C21 7743   0.915   4.588   2.613 -0.4837 -0.3642 -0.2340
   84SOPE   O22 7744   0.901   4.474   2.568 -0.6236 -0.2356  0.0831
   84SOPE   C22 7745   0.839   4.634   2.742 -0.6633 -0.1868  0.3399
   84SOPE   H2R 7746   0.733   4.601   2.730 -0.9465  0.4823  0.9352
   84SOPE   H2S 7747   0.841   4.744   2.728  1.6760 -0.3523 -1.2430
   84SOPE    C3 7748   1.196   4.685   2.411  0.7935 -0.4124  0.7304
   84SOPE    HX 7749   1.218   4.793   2.399  0.3398 -0.1967  1.7607
   84SOPE    HY 7750   1.229   4.642   2.314  0.8214 -1.4854  1.2013
   84SOPE   O31 7751   1.286   4.635   2.517  0.7167 -0.1392  0.0308
   84SOPE   C31 7752   1.296   4.710   2.628 -0.1591  0.1913  0.1705
   84SOPE   O32 7753   1.253   4.821   2.652 -0.3271  0.1940 -0.3263
   84SOPE   C32 7754   1.395   4.638   2.723  0.2613  0.7120  0.1098
   84SOPE   H2X 7755   1.469   4.712   2.759  0.6595  0.4374 -0.1429
   84SOPE   H2Y 7756   1.448   4.558   2.667  0.7920  0.3988  1.0350
   84SOPE   C23 7757   0.897   4.588   2.872  0.4127 -0.0791  0.5874
   84SOPE   H3R 7758   0.997   4.626   2.899  2.1514 -1.1462 -3.5517
   84SOPE   H3S 7759   0.899   4.478   2.856 -0.6117 -0.3399  2.0553
   84SOPE   C24 7760   0.801   4.608   2.981  0.3355 -0.2222  0.4576
   84SOPE   H4R 7761   0.773   4.715   2.994  1.9608  0.2567  0.2501
   84SOPE   H4S 7762   0.708   4.550   2.962  2.0481 -2.7157 -0.9244
   84SOPE   C25 7763   0.848   4.549   3.108  0.8512 -0.2094  0.2339
   84SOPE   H5R 7764   0.767   4.507   3.172  1.7211 -1.9407  0.2776
   84SOPE   H5S 7765   0.922   4.468   3.088 -0.6523 -0.9570 -2.8985
   84SOPE   C26 7766   0.919   4.642   3.194 -0.2583 -0.4578 -0.1354
   84SOPE   H6R 7767   1.013   4.669   3.141  0.0169 -0.1367  0.5048
   84SOPE   H6S 7768   0.855   4.732   3.210 -1.7653 -1.2416 -1.4703
   84SOPE   C27 7769   0.954   4.568   3.325  0.7163  0.0077  0.6021
   84SOPE   H7R 7770   0.866   4.520   3.373  0.7054 -0.9434 -0.3270
   84SOPE   H7S 7771   1.013   4.478   3.294  1.9184  1.6335 -2.2019
   84SOPE   C28 7772   1.041   4.649   3.427  0.8062 -0.1011 -0.3408
   84SOPE   H8R 7773   1.101   4.584   3.494  1.1769  0.1731 -0.4100
   84SOPE   H8S 7774   1.101   4.716   3.363 -0.8793  0.0582 -1.8556
   84SOPE   C29 7775   0.951   4.747   3.508  0.2580 -0.0465  0.0757
   84SOPE   H91 7776   0.885   4.810   3.447  1.3313  0.5615 -0.4851
   84SOPE  C210 7777   0.926   4.747   3.640 -1.0210  0.0489 -0.2969
   84SOPE  H101 7778   0.862   4.828   3.679 -0.2356  1.2517 -1.4287
   84SOPE  C211 7779   0.989   4.665   3.750 -0.6450 -0.1547  0.5432
   84SOPE  H11R 7780   1.090   4.630   3.717 -1.1371  0.9454 -2.3980
   84SOPE  H11S 7781   0.925   4.578   3.776 -0.3593  0.2910  2.9122
   84SOPE  C212 7782   1.016   4.730   3.889  0.3064  0.2583 -0.6604
   84SOPE  H12R 7783   0.928   4.784   3.931  0.3555 -0.5268  0.5254
   84SOPE  H12S 7784   1.100   4.802   3.885  0.3174  0.2843 -0.1367
   84SOPE  C213 7785   1.043   4.616   3.993  0.0249 -0.4461  0.3211
   84SOPE  H13R 7786   1.136   4.561   3.971 -0.2439 -0.8505  0.1852
   84SOPE  H13S 7787   0.949   4.557   3.982  0.0072 -0.6479  1.4633
   84SOPE  C214 7788   1.044   4.672   4.138  0.6193 -0.6551  0.6405
   84SOPE  H14R 7789   0.958   4.741   4.148 -1.2133 -2.7617  0.3022
   84SOPE  H14S 7790   1.139   4.726   4.160 -0.0678  0.3823  1.1467
   84SOPE  C215 7791   1.028   4.556   4.238 -0.4348  0.6509  0.0150
   84SOPE  H15R 7792   1.062   4.593   4.337 -1.5168  0.3290  0.5140
   84SOPE  H15S 7793   1.098   4.475   4.209 -1.0359  0.5396 -1.1693
   84SOPE  C216 7794   0.893   4.492   4.256 -0.5438 -0.3486  0.3423
   84SOPE  H16R 7795   0.891   4.424   4.167  0.9448 -0.0909  0.0780
   84SOPE  H16S 7796   0.812   4.567   4.245 -1.0400 -0.8790  0.3438
   84SOPE  C217 7797   0.882   4.418   4.381 -0.1401  0.6251 -0.5050
   84SOPE  H17R 7798   0.888   4.493   4.463  1.8074  1.2502 -1.1572
   84SOPE  H17S 7799   0.973   4.355   4.392 -0.4028  0.5382  1.5667
   84SOPE  C218 7800   0.761   4.325   4.391  0.3889 -0.6185 -0.6013
   84SOPE  H18R 7801   0.741   4.265   4.299 -1.2298 -2.3130  0.7643
   84SOPE  H18S 7802   0.667   4.380   4.410 -0.0080 -1.4663 -0.0526
   84SOPE  H18T 7803   0.777   4.255   4.476 -0.4326  0.2956  0.3211
   84SOPE   C33 7804   1.327   4.559   2.838  0.4492 -0.3024  0.8287
   84SOPE   H3X 7805   1.235   4.510   2.798  0.8375 -0.1623 -0.2614
   84SOPE   H3Y 7806   1.290   4.636   2.909 -2.8016  0.3934 -1.3717
   84SOPE   C34 7807   1.416   4.459   2.912 -0.6784  0.5868  0.0933
   84SOPE   H4X 7808   1.511   4.504   2.948  0.4516 -2.4948  1.3496
   84SOPE   H4Y 7809   1.441   4.379   2.838  1.8650  0.5777  0.8619
   84SOPE   C35 7810   1.345   4.390   3.027 -0.0137  0.3966  0.3014
   84SOPE   H5X 7811   1.411   4.312   3.072  1.0529  0.2600 -1.4213
   84SOPE   H5Y 7812   1.261   4.329   2.988 -0.0192  0.2685  0.5147
   84SOPE   C36 7813   1.296   4.479   3.143 -0.0478 -0.4004  0.3441
   84SOPE   H6X 7814   1.205   4.534   3.112  0.1999 -0.1503  0.0540
   84SOPE   H6Y 7815   1.371   4.559   3.163 -1.2553  0.4112  1.8320
   84SOPE   C37 7816   1.280   4.403   3.276  0.3898 -0.2298 -0.3151
   84SOPE   H7X 7817   1.231   4.472   3.349 -0.4030 -0.0030 -1.0374
   84SOPE   H7Y 7818   1.383   4.382   3.311  0.4311  1.4601  0.7175
   84SOPE   C38 7819   1.199   4.269   3.264 -0.1449  0.8215 -0.1120
   84SOPE   H8X 7820   1.241   4.197   3.191 -0.4863  0.5229 -0.0190
   84SOPE   H8Y 7821   1.104   4.310   3.223 -0.2127  1.1837  0.3897
   84SOPE   C39 7822   1.172   4.202   3.403  0.3803  0.1269 -0.6395
   84SOPE   H9X 7823   1.264   4.163   3.452  1.0493 -0.9427 -2.6318
   84SOPE   H9Y 7824   1.106   4.117   3.374  0.3927 -0.1026 -0.0144
   84SOPE  C310 7825   1.088   4.280   3.507  0.0340 -0.1232 -0.4244
   84SOPE  H10X 7826   1.001   4.330   3.460  1.2020  3.1741  0.6404
   84SOPE  H10Y 7827   1.137   4.375   3.539  0.6707 -0.4948 -0.2862
   84SOPE  C311 7828   1.064   4.205   3.638 -0.2776 -0.0550  0.6149
   84SOPE  H11X 7829   1.160   4.157   3.666  0.4879  0.9303 -0.2387
   84SOPE  H11Y 7830   0.994   4.119   3.628  0.3497 -0.2787 -3.2658
   84SOPE  C312 7831   1.017   4.300   3.748 -0.5761 -1.0297 -0.7285
   84SOPE  H12X 7832   0.915   4.334   3.720 -1.6161 -3.5109 -0.2181
   84SOPE  H12Y 7833   1.087   4.385   3.764  0.6867 -2.4391  2.0491
   84SOPE  C313 7834   1.011   4.229   3.884 -0.3986 -1.1791  0.6924
   84SOPE  H13X 7835   0.980   4.123   3.878  3.5728 -2.5147  0.8446
   84SOPE  H13Y 7836   0.924   4.281   3.931 -2.1828 -2.1017 -1.3989
   84SOPE  C314 7837   1.133   4.224   3.963 -0.3972 -0.7939  0.7355
   84SOPE  H14X 7838   1.159   4.324   4.002 -2.1035  0.0806 -0.2597
   84SOPE  H14Y 7839   1.221   4.194   3.902 -1.1635 -1.5497 -0.0444
   84SOPE  C315 7840   1.129   4.125   4.087  1.0135 -0.0388 -0.0709
   84SOPE  H15X 7841   1.211   4.144   4.159 -0.4145  0.4847  1.4863
   84SOPE  H15Y 7842   1.154   4.026   4.041  2.8705  1.0613 -1.6130
   84SOPE  C316 7843   0.996   4.114   4.161 -0.0446  0.0953 -0.1015
   84SOPE  H16X 7844   0.905   4.134   4.101 -0.0619 -4.0781 -1.8030
   84SOPE  H16Y 7845   1.007   4.170   4.256  2.4621 -1.5678  0.7111
   84SOPE  C317 7846   0.961   3.968   4.205 -0.5109 -0.1568 -0.6746
   84SOPE  H17X 7847   1.049   3.906   4.229 -0.7714  0.2779  1.6179
   84SOPE  H17Y 7848   0.910   3.915   4.121  2.9297 -0.1129 -2.9712
   84SOPE  C318 7849   0.873   3.972   4.327 -0.1299  0.0051 -0.9900
   84SOPE  H18X 7850   0.797   4.051   4.309 -2.7231 -1.3857  2.5877
   84SOPE  H18Y 7851   0.936   4.014   4.408 -0.3826  0.3593 -0.9753
   84SOPE  H18Z 7852   0.830   3.870   4.334 -2.3121  0.9677  1.2550
   85SOPE     N 7853   4.542   6.298   2.046  0.5837 -0.0655  0.2423
   85SOPE   HN1 7854   4.593   6.357   1.978  1.0494  1.7569  2.0744
   85SOPE   HN2 7855   4.569   6.197   2.041 -0.1692 -0.3920  2.0548
   85SOPE   HN3 7856   4.440   6.300   2.026 -0.1893  1.1514  3.6708
   85SOPE   C12 7857   4.567   6.355   2.182 -0.3648  0.4638 -0.0827
   85SOPE  H12A 7858   4.504   6.305   2.259 -0.4212 -3.3164 -2.3482
   85SOPE  H12B 7859   4.529   6.459   2.178 -0.8735  0.3286  1.0221
   85SOPE   C11 7860   4.720   6.354   2.204 -0.1578  0.8517 -0.3402
   85SOPE  H11A 7861   4.752   6.250   2.181  1.1423  0.8888  1.1063
   85SOPE  H11B 7862   4.752   6.376   2.308 -0.2004 -2.2848  0.4482
   85SOPE     P 7863   4.793   6.586   2.120 -0.2296  0.1468  0.2600
   85SOPE   O13 7864   4.656   6.634   2.110  0.3949 -0.1499  0.2662
   85SOPE   O14 7865   4.892   6.640   2.024 -0.0781  0.6127  0.2224
   85SOPE   O12 7866   4.795   6.427   2.109 -0.3426 -0.2505 -0.2180
   85SOPE   O11 7867   4.851   6.618   2.261 -0.1178 -0.0381 -0.1455
   85SOPE    C1 7868   4.975   6.565   2.311 -0.4372  0.0441  0.5066
   85SOPE    HA 7869   5.000   6.465   2.270 -2.3599 -0.2763  0.0221
   85SOPE    HB 7870   4.964   6.544   2.419  2.2369 -0.5796  0.7378
   85SOPE    C2 7871   5.088   6.668   2.301 -0.3177  0.1201  0.8102
   85SOPE    HS 7872   5.095   6.715   2.201 -0.1688  1.1443  1.2887
   85SOPE   O21 7873   5.211   6.599   2.333 -0.2228 -0.5102  0.1946
   85SOPE   C21 7874   5.324   6.670   2.333  0.1916  0.1332  0.5122
   85SOPE   O22 7875   5.343   6.779   2.290 -0.0245 -0.0139  0.4784
   85SOPE   C22 7876   5.442   6.583   2.390 -0.0432 -0.0390  0.1662
   85SOPE   H2R 7877   5.510   6.578   2.302 -0.1805  0.9759 -0.0056
   85SOPE   H2S 7878   5.411   6.477   2.407 -0.5607  0.0106 -0.4113
   85SOPE    C3 7879   5.062   6.791   2.394  0.2390 -0.7084  1.3722
   85SOPE    HX 7880   4.955   6.817   2.379  0.7468  0.5867 -0.3903
   85SOPE    HY 7881   5.127   6.877   2.367 -2.1446  0.7938  0.0957
   85SOPE   O31 7882   5.096   6.745   2.527  0.5034  0.1686  0.7239
   85SOPE   C31 7883   5.043   6.820   2.625  0.3762 -0.2070  0.0458
   85SOPE   O32 7884   4.995   6.933   2.610  0.0011 -0.3376  0.1083
   85SOPE   C32 7885   5.078   6.771   2.757 -1.0664 -0.1220  0.3285
   85SOPE   H2X 7886   5.070   6.856   2.828  0.9299  0.4052 -0.0231
   85SOPE   H2Y 7887   5.184   6.740   2.765 -1.1994 -1.0409 -1.0567
   85SOPE   C23 7888   5.513   6.650   2.512  0.1222 -0.6374 -0.3397
   85SOPE   H3R 7889   5.513   6.757   2.481  1.1435 -0.7474 -0.7472
   85SOPE   H3S 7890   5.615   6.608   2.513  0.9125  1.1986 -0.0366
   85SOPE   C24 7891   5.451   6.617   2.646 -0.4323  0.8331  0.0052
   85SOPE   H4R 7892   5.341   6.627   2.634 -0.4976  1.9371  1.2263
   85SOPE   H4S 7893   5.476   6.511   2.671  0.2830  1.4224  1.9979
   85SOPE   C25 7894   5.480   6.702   2.764  0.8140 -0.5587 -0.3184
   85SOPE   H5R 7895   5.587   6.729   2.757  1.0494 -1.6675 -1.6460
   85SOPE   H5S 7896   5.419   6.795   2.761  1.4026 -0.1576  0.1028
   85SOPE   C26 7897   5.458   6.628   2.894  0.2485 -0.5312 -0.6975
   85SOPE   H6R 7898   5.350   6.610   2.910 -0.1258  1.9764  0.0250
   85SOPE   H6S 7899   5.515   6.532   2.900  1.1114 -0.0257 -0.6030
   85SOPE   C27 7900   5.497   6.714   3.021  0.0757 -0.4743 -0.1563
   85SOPE   H7R 7901   5.594   6.767   3.009 -0.6991  1.0242 -0.0211
   85SOPE   H7S 7902   5.424   6.797   3.036  1.0226  0.4327 -0.3952
   85SOPE   C28 7903   5.478   6.639   3.159  0.1146  0.2269 -0.1719
   85SOPE   H8R 7904   5.375   6.598   3.151  0.4022 -0.3805 -0.8610
   85SOPE   H8S 7905   5.547   6.552   3.163  0.4166  0.4938  0.6735
   85SOPE   C29 7906   5.495   6.717   3.286  0.3863 -0.0172 -0.2611
   85SOPE   H91 7907   5.581   6.786   3.287 -1.7575  2.8932 -1.2522
   85SOPE  C210 7908   5.402   6.739   3.386  0.4290  0.3139 -0.4388
   85SOPE  H101 7909   5.429   6.788   3.481 -0.2585 -3.4863  1.9611
   85SOPE  C211 7910   5.274   6.667   3.398  0.1489 -0.2438 -0.7468
   85SOPE  H11R 7911   5.270   6.593   3.315  0.3162 -0.5518 -0.4803
   85SOPE  H11S 7912   5.184   6.732   3.396 -0.8978 -1.6006  0.2423
   85SOPE  C212 7913   5.263   6.587   3.528  0.5863 -0.0587 -0.1394
   85SOPE  H12R 7914   5.268   6.649   3.621 -0.5914  0.3977 -0.3517
   85SOPE  H12S 7915   5.344   6.512   3.534  1.1406  0.2351 -2.7341
   85SOPE  C213 7916   5.137   6.502   3.537 -0.0327 -0.3013 -0.0153
   85SOPE  H13R 7917   5.143   6.433   3.451 -1.1605  0.7401 -0.9522
   85SOPE  H13S 7918   5.041   6.556   3.526 -0.2373 -0.4746  0.8207
   85SOPE  C214 7919   5.113   6.420   3.667  0.0632  0.0749  0.0634
   85SOPE  H14R 7920   5.199   6.351   3.669  0.9960  1.2068  0.5611
   85SOPE  H14S 7921   5.027   6.350   3.662  0.8207 -0.9226  0.5863
   85SOPE  C215 7922   5.114   6.504   3.796 -0.0814  0.4702  0.4648
   85SOPE  H15R 7923   5.039   6.585   3.788  1.5913  1.8762 -3.2712
   85SOPE  H15S 7924   5.211   6.553   3.819 -0.7054  0.9182  2.2998
   85SOPE  C216 7925   5.099   6.401   3.904 -0.7159  0.4963 -0.2789
   85SOPE  H16R 7926   5.186   6.332   3.894  0.5150  1.8435  0.7059
   85SOPE  H16S 7927   5.003   6.351   3.883  0.3465 -1.3159 -1.0887
   85SOPE  C217 7928   5.107   6.466   4.046 -0.1430  0.2722  0.2964
   85SOPE  H17R 7929   5.046   6.560   4.046 -0.3838  0.1393 -1.2270
   85SOPE  H17S 7930   5.212   6.497   4.061  0.3803 -0.4356 -1.5678
   85SOPE  C218 7931   5.058   6.371   4.151 -0.3647  0.5156 -0.3505
   85SOPE  H18R 7932   4.957   6.329   4.129 -1.3193  2.3380  0.3178
   85SOPE  H18S 7933   5.064   6.399   4.258 -1.1412  0.1598 -0.2062
   85SOPE  H18T 7934   5.123   6.282   4.160 -0.6022  0.4493  0.8229
   85SOPE   C33 7935   4.986   6.658   2.807 -0.0548 -0.2758  0.3508
   85SOPE   H3X 7936   5.041   6.598   2.883 -0.9920 -3.1049 -1.0449
   85SOPE   H3Y 7937   4.968   6.590   2.721  0.1636  0.0446  0.0563
   85SOPE   C34 7938   4.851   6.705   2.857 -0.4365 -0.1748  0.2287
   85SOPE   H4X 7939   4.786   6.745   2.776 -1.5153  0.4967  1.3798
   85SOPE   H4Y 7940   4.859   6.807   2.901  0.4389 -0.5091  0.8648
   85SOPE   C35 7941   4.757   6.619   2.939  0.0300  0.1258 -0.0348
   85SOPE   H5X 7942   4.712   6.533   2.884 -1.2382  0.4514  0.4725
   85SOPE   H5Y 7943   4.671   6.683   2.969  0.8467  1.6341 -0.7762
   85SOPE   C36 7944   4.830   6.565   3.058 -0.2259 -0.0020 -1.1517
   85SOPE   H6X 7945   4.921   6.507   3.031  0.4892  0.6958 -0.3158
   85SOPE   H6Y 7946   4.760   6.502   3.117  0.9272  1.3360  1.8484
   85SOPE   C37 7947   4.878   6.670   3.153 -0.5602  0.6631  0.1734
   85SOPE   H7X 7948   4.939   6.756   3.118  0.8996 -0.7994 -1.0285
   85SOPE   H7Y 7949   4.943   6.617   3.226 -1.2287  2.5315  2.2296
   85SOPE   C38 7950   4.753   6.732   3.223 -0.1623  0.2522 -0.1219
   85SOPE   H8X 7951   4.678   6.653   3.245  0.9121 -2.1963 -4.1659
   85SOPE   H8Y 7952   4.716   6.801   3.143  1.2278 -0.7342 -1.6707
   85SOPE   C39 7953   4.801   6.808   3.350 -0.1621  0.0254 -0.5791
   85SOPE   H9X 7954   4.726   6.890   3.347 -0.4878 -0.2657 -0.4430
   85SOPE   H9Y 7955   4.901   6.858   3.347 -0.6640  1.4112  2.4017
   85SOPE  C310 7956   4.770   6.721   3.474 -0.0950 -0.6746  0.0739
   85SOPE  H10X 7957   4.822   6.623   3.462 -0.5263 -1.3866  3.2149
   85SOPE  H10Y 7958   4.662   6.695   3.472  0.0030 -1.2629  1.4445
   85SOPE  C311 7959   4.801   6.797   3.606  0.3868  0.0656  0.1702
   85SOPE  H11X 7960   4.744   6.892   3.612 -0.5773 -0.5698  1.6168
   85SOPE  H11Y 7961   4.910   6.819   3.606  0.5721 -0.6311 -1.6414
   85SOPE  C312 7962   4.766   6.708   3.729  0.2619 -0.6497 -1.0742
   85SOPE  H12X 7963   4.818   6.610   3.724 -0.3063 -0.9147 -2.2489
   85SOPE  H12Y 7964   4.658   6.685   3.741  0.5282 -1.0803  0.8075
   85SOPE  C313 7965   4.800   6.774   3.865  0.6319 -1.1637  1.0050
   85SOPE  H13X 7966   4.751   6.872   3.879 -0.1837 -1.0076 -2.1661
   85SOPE  H13Y 7967   4.908   6.794   3.882  0.4899 -0.2497  0.8680
   85SOPE  C314 7968   4.746   6.696   3.987  0.1489  0.4970 -0.1104
   85SOPE  H14X 7969   4.769   6.588   3.983 -2.1345 -0.1496  1.9687
   85SOPE  H14Y 7970   4.636   6.696   3.996  0.1887 -1.0584  0.6610
   85SOPE  C315 7971   4.792   6.758   4.127  0.4085 -0.0278  0.3193
   85SOPE  H15X 7972   4.786   6.868   4.117  2.1245 -0.0730 -2.1114
   85SOPE  H15Y 7973   4.901   6.740   4.137  0.4794 -1.2160 -1.8556
   85SOPE  C316 7974   4.723   6.698   4.248  0.4180 -0.2702 -0.7533
   85SOPE  H16X 7975   4.736   6.589   4.268  1.2839 -0.4580 -2.1296
   85SOPE  H16Y 7976   4.613   6.708   4.247  0.5771  1.8719 -0.9669
   85SOPE  C317 7977   4.764   6.774   4.374 -0.0190 -1.0619 -0.4059
   85SOPE  H17X 7978   4.734   6.880   4.356  0.4648 -0.8878 -0.1855
   85SOPE  H17Y 7979   4.874   6.770   4.364  0.1229  0.1010  0.4838
   85SOPE  C318 7980   4.716   6.737   4.510  0.5887 -0.4021 -0.5479
   85SOPE  H18X 7981   4.782   6.781   4.588  1.0684 -1.2828 -0.4505
   85SOPE  H18Y 7982   4.719   6.628   4.529 -1.0881 -0.7661 -2.0420
   85SOPE  H18Z 7983   4.612   6.774   4.515  0.5858 -0.2335 -1.5472
   86SOPE     N 7984   5.965   1.474   1.866 -0.1947  0.0822 -0.5648
   86SOPE   HN1 7985   6.028   1.448   1.787  1.3258 -1.3129  1.0054
   86SOPE   HN2 7986   5.914   1.563   1.850  0.5228  0.3959 -1.1823
   86SOPE   HN3 7987   6.025   1.491   1.950  0.2251  0.5889 -0.9578
   86SOPE   C12 7988   5.871   1.360   1.893  0.0926  0.0096 -0.0981
   86SOPE  H12A 7989   5.870   1.296   1.802  1.3529 -3.3864  2.0690
   86SOPE  H12B 7990   5.770   1.400   1.916  0.6858 -0.0888  3.2430
   86SOPE   C11 7991   5.915   1.273   2.019 -0.4850 -0.9380  1.1614
   86SOPE  H11A 7992   5.849   1.184   2.021 -0.1805 -1.2780 -1.0942
   86SOPE  H11B 7993   5.895   1.328   2.113  0.2906  0.7393  0.3855
   86SOPE     P 7994   6.182   1.283   2.073  0.0736 -0.1039 -0.0666
   86SOPE   O13 7995   6.202   1.423   2.040 -0.1657 -0.2689  0.0211
   86SOPE   O14 7996   6.284   1.187   2.028 -0.4317  0.5766  0.1964
   86SOPE   O12 7997   6.054   1.225   2.003 -0.1864  0.5417 -0.0880
   86SOPE   O11 7998   6.158   1.268   2.230  0.3051  0.5974 -0.0515
   86SOPE    C1 7999   6.111   1.146   2.289  0.7421 -0.6331  0.0840
   86SOPE    HA 8000   6.154   1.056   2.241  0.0901 -0.6302 -0.5196
   86SOPE    HB 8001   6.000   1.150   2.289  0.7580  0.1341  0.5924
   86SOPE    C2 8002   6.159   1.159   2.437  0.2401  0.1795  0.0785
   86SOPE    HS 8003   6.113   1.247   2.487 -0.5820  0.8384 -1.7508
   86SOPE   O21 8004   6.306   1.172   2.437 -0.1900 -0.5401  0.0033
   86SOPE   C21 8005   6.367   1.208   2.549  0.6003 -1.0176 -0.1478
   86SOPE   O22 8006   6.310   1.279   2.630  0.2056  0.1447  0.6077
   86SOPE   C22 8007   6.503   1.150   2.555  0.0938 -0.3231  0.3503
   86SOPE   H2R 8008   6.550   1.154   2.454 -1.5190  1.6799 -0.3912
   86SOPE   H2S 8009   6.507   1.041   2.575 -0.6868 -0.6751 -1.2701
   86SOPE    C3 8010   6.113   1.019   2.503 -0.0515  0.7343 -0.1172
   86SOPE    HX 8011   6.158   0.935   2.447  1.7854 -0.1012  2.4011
   86SOPE    HY 8012   6.004   1.006   2.487  0.0137 -2.0895  1.1924
   86SOPE   O31 8013   6.145   1.003   2.640  0.3422 -0.1884 -0.2924
   86SOPE   C31 8014   6.077   1.081   2.722 -0.4041 -0.5746 -0.1019
   86SOPE   O32 8015   5.990   1.156   2.692 -0.6877 -0.4243  0.2210
   86SOPE   C32 8016   6.132   1.050   2.861 -0.2559 -0.0993 -0.2616
   86SOPE   H2X 8017   6.222   1.115   2.872  0.2641 -1.0619  1.6003
   86SOPE   H2Y 8018   6.161   0.944   2.877 -0.0847  0.0276  0.2837
   86SOPE   C23 8019   6.585   1.228   2.662 -0.3326 -0.2034 -0.7557
   86SOPE   H3R 8020   6.554   1.334   2.647 -0.1293 -0.0591 -0.1673
   86SOPE   H3S 8021   6.693   1.222   2.638  0.7337  0.8079  3.0502
   86SOPE   C24 8022   6.563   1.172   2.804 -0.3476 -0.4299 -0.9279
   86SOPE   H4R 8023   6.609   1.245   2.874 -1.2292 -1.0367  0.3192
   86SOPE   H4S 8024   6.454   1.161   2.824 -0.0580 -1.8267  0.0113
   86SOPE   C25 8025   6.638   1.036   2.831 -0.1035  0.0772  0.2030
   86SOPE   H5R 8026   6.606   0.960   2.757  1.8047 -1.7468  1.1567
   86SOPE   H5S 8027   6.745   1.059   2.813  0.1710  0.0400  1.6725
   86SOPE   C26 8028   6.618   0.989   2.972 -0.0128  0.0547 -0.1071
   86SOPE   H6R 8029   6.694   0.918   3.011 -0.6638 -1.7271 -1.8959
   86SOPE   H6S 8030   6.629   1.079   3.036  1.8526 -0.2757  0.0854
   86SOPE   C27 8031   6.478   0.921   2.997  0.2005  0.0126  0.1922
   86SOPE   H7R 8032   6.390   0.974   2.953 -0.1504  1.2735  2.2621
   86SOPE   H7S 8033   6.488   0.821   2.949 -0.8623  0.6541 -1.4642
   86SOPE   C28 8034   6.446   0.902   3.148 -0.4457 -0.2861  0.3518
   86SOPE   H8R 8035   6.345   0.856   3.146 -0.8536  0.6093 -0.7306
   86SOPE   H8S 8036   6.511   0.829   3.201  0.3105  0.3790  0.3513
   86SOPE   C29 8037   6.443   1.029   3.226  0.4902 -0.2746  0.3873
   86SOPE   H91 8038   6.399   1.110   3.166 -1.4076 -2.6798 -1.7185
   86SOPE  C210 8039   6.492   1.057   3.349  0.3901 -0.7536 -0.2013
   86SOPE  H101 8040   6.471   1.156   3.392 -1.8740 -0.4769 -1.7903
   86SOPE  C211 8041   6.567   0.969   3.443  0.5961  0.1650  0.0344
   86SOPE  H11R 8042   6.659   1.014   3.488 -0.0012  0.1330  1.3394
   86SOPE  H11S 8043   6.608   0.877   3.396  3.0965  0.8408  0.7292
   86SOPE  C212 8044   6.470   0.927   3.556 -0.1254 -0.0446 -0.0074
   86SOPE  H12R 8045   6.513   0.847   3.621  1.1174  0.6333  0.0465
   86SOPE  H12S 8046   6.377   0.888   3.509 -0.7002  2.5032 -1.1440
   86SOPE  C213 8047   6.424   1.045   3.644 -0.4146 -0.8238 -0.4241
   86SOPE  H13R 8048   6.345   1.009   3.714 -1.1970  0.4269 -0.6220
   86SOPE  H13S 8049   6.373   1.126   3.587  1.0655 -0.5265 -1.3864
   86SOPE  C214 8050   6.535   1.111   3.732  0.4283 -0.4827 -0.4457
   86SOPE  H14R 8051   6.607   1.160   3.663  1.9531  0.8907  1.9891
   86SOPE  H14S 8052   6.577   1.025   3.788  0.5915  0.1183  0.3714
   86SOPE  C215 8053   6.490   1.206   3.839  0.1535  0.3230 -0.6753
   86SOPE  H15R 8054   6.444   1.144   3.918  1.8028  0.1625  0.2071
   86SOPE  H15S 8055   6.411   1.277   3.806 -2.2591 -1.5294  0.7988
   86SOPE  C216 8056   6.602   1.291   3.898  0.8917  0.2234 -0.4901
   86SOPE  H16R 8057   6.637   1.348   3.810 -0.8217 -0.1422 -1.4524
   86SOPE  H16S 8058   6.684   1.228   3.940 -0.2962 -0.2546  1.1988
   86SOPE  C217 8059   6.558   1.396   4.005 -0.3242 -0.3775  0.1689
   86SOPE  H17R 8060   6.474   1.450   3.956 -0.0840  0.7261  0.9265
   86SOPE  H17S 8061   6.633   1.473   4.034 -0.5232 -1.0362  2.6715
   86SOPE  C218 8062   6.506   1.333   4.132 -0.4987 -0.1950  0.1165
   86SOPE  H18R 8063   6.588   1.282   4.189  0.7492 -0.0557 -1.4838
   86SOPE  H18S 8064   6.431   1.254   4.111  0.4239 -1.2596  0.7173
   86SOPE  H18T 8065   6.454   1.411   4.190  0.9065 -0.4839  1.8605
   86SOPE   C33 8066   6.029   1.076   2.978  0.7061 -0.0115 -0.0088
   86SOPE   H3X 8067   5.945   1.007   2.956  1.4401 -1.2666  1.0325
   86SOPE   H3Y 8068   6.000   1.183   2.976 -1.1806 -0.5031 -1.3545
   86SOPE   C34 8069   6.105   1.056   3.116 -0.0535  0.4937  0.2257
   86SOPE   H4X 8070   6.171   1.145   3.124 -1.0154  1.2328  0.0992
   86SOPE   H4Y 8071   6.170   0.966   3.115 -1.7416 -0.7929 -1.8011
   86SOPE   C35 8072   6.016   1.056   3.234  1.2242  0.3512 -0.4626
   86SOPE   H5X 8073   5.958   0.961   3.227  0.3520  0.8552 -0.2794
   86SOPE   H5Y 8074   5.944   1.140   3.223 -1.0790 -1.2413  1.1946
   86SOPE   C36 8075   6.092   1.058   3.366 -0.3433 -0.5649  0.3230
   86SOPE   H6X 8076   6.152   1.152   3.371  0.2092 -0.9029  0.1028
   86SOPE   H6Y 8077   6.178   0.989   3.353  0.9647  1.0518 -0.0552
   86SOPE   C37 8078   6.006   1.037   3.488  0.9994 -0.8745  0.2864
   86SOPE   H7X 8079   5.946   0.944   3.485 -0.5937  0.1166  0.1543
   86SOPE   H7Y 8080   5.927   1.113   3.467  0.0480 -2.5153 -2.5136
   86SOPE   C38 8081   6.066   1.059   3.628 -0.5499  0.0124  0.4302
   86SOPE   H8X 8082   6.079   1.168   3.644 -1.6156  0.1391  0.5024
   86SOPE   H8Y 8083   6.161   1.000   3.638  0.0874  0.9449 -0.0329
   86SOPE   C39 8084   5.973   1.000   3.726  0.4721  0.7015  0.2469
   86SOPE   H9X 8085   5.976   0.889   3.718 -1.6521  0.5772  0.6519
   86SOPE   H9Y 8086   5.869   1.024   3.697  0.7358 -0.9402 -2.3075
   86SOPE  C310 8087   6.001   1.051   3.869 -0.2050 -0.2021  0.6548
   86SOPE  H10X 8088   6.003   1.162   3.869 -0.1108 -0.1675  2.7046
   86SOPE  H10Y 8089   6.105   1.013   3.883  1.0291  1.4221 -2.8581
   86SOPE  C311 8090   5.891   1.017   3.969  0.5525 -0.3245 -0.0129
   86SOPE  H11X 8091   5.880   0.907   3.968  1.4725 -0.5394 -3.7904
   86SOPE  H11Y 8092   5.795   1.067   3.944  1.0845  0.3775 -0.7491
   86SOPE  C312 8093   5.918   1.058   4.111  0.6105 -0.2751  0.6121
   86SOPE  H12X 8094   5.956   1.162   4.107 -0.9560  0.2927 -0.4768
   86SOPE  H12Y 8095   6.003   0.993   4.141  1.9695 -1.1386 -4.2320
   86SOPE  C313 8096   5.794   1.039   4.200 -0.4614 -0.1951 -0.9966
   86SOPE  H13X 8097   5.764   0.932   4.197 -2.5637  0.3110 -0.0639
   86SOPE  H13Y 8098   5.712   1.110   4.174 -0.2972  1.3536  2.1843
   86SOPE  C314 8099   5.845   1.072   4.343  0.0418  0.6425  0.2597
   86SOPE  H14X 8100   5.861   1.181   4.354  1.0659  0.4354  0.9168
   86SOPE  H14Y 8101   5.940   1.019   4.366 -0.1010  0.5545  0.6656
   86SOPE  C315 8102   5.746   1.026   4.452 -0.0106  0.8657 -0.0230
   86SOPE  H15X 8103   5.780   1.064   4.550  2.8279 -1.7465  0.1681
   86SOPE  H15Y 8104   5.744   0.915   4.446 -0.5883  0.9364 -2.3708
   86SOPE  C316 8105   5.605   1.072   4.422  0.8475  0.6690 -0.0840
   86SOPE  H16X 8106   5.566   1.020   4.331 -0.5377  0.4108  0.6326
   86SOPE  H16Y 8107   5.604   1.181   4.398 -0.6963  0.1802 -2.7890
   86SOPE  C317 8108   5.500   1.063   4.534 -0.2354  0.6843  0.5053
   86SOPE  H17X 8109   5.499   0.960   4.574  0.1279 -0.1124 -1.4452
   86SOPE  H17Y 8110   5.400   1.087   4.493 -1.1989  0.2690  2.4656
   86SOPE  C318 8111   5.531   1.157   4.654  0.0470 -0.2684 -0.6023
   86SOPE  H18X 8112   5.467   1.129   4.740  0.9495 -0.6116 -0.0367
   86SOPE  H18Y 8113   5.513   1.262   4.620  1.1079 -0.4336 -1.7569
   86SOPE  H18Z 8114   5.639   1.148   4.677  0.2109 -0.9374 -1.5604
   87SOPE     N 8115   5.242   2.244   1.869 -0.3254 -0.0563 -0.4699
   87SOPE   HN1 8116   5.240   2.189   1.780 -0.0773 -0.5127 -0.1939
   87SOPE   HN2 8117   5.341   2.266   1.891 -0.3060  1.6651 -1.9679
   87SOPE   HN3 8118   5.215   2.176   1.942 -2.0571  0.3761 -0.6571
   87SOPE   C12 8119   5.160   2.367   1.876 -0.1347  0.4102  0.3441
   87SOPE  H12A 8120   5.056   2.327   1.872  0.5245 -1.3187 -0.8193
   87SOPE  H12B 8121   5.175   2.440   1.794 -1.8400  1.7488  1.1567
   87SOPE   C11 8122   5.173   2.441   2.011 -0.1125  0.8184  0.3784
   87SOPE  H11A 8123   5.135   2.370   2.088  0.8103  0.7933  0.8258
   87SOPE  H11B 8124   5.109   2.532   2.006 -3.0967 -1.1991 -2.5189
   87SOPE     P 8125   5.427   2.432   2.106  0.1638  0.1540  0.4499
   87SOPE   O13 8126   5.527   2.540   2.099 -0.0980 -0.0956  0.4742
   87SOPE   O14 8127   5.465   2.295   2.061 -0.5977 -0.3867 -0.0265
   87SOPE   O12 8128   5.306   2.480   2.026  0.5029  0.2228  0.4069
   87SOPE   O11 8129   5.356   2.413   2.246  0.3259 -0.1695  0.0576
   87SOPE    C1 8130   5.333   2.512   2.346  0.0005 -0.5217  0.2153
   87SOPE    HA 8131   5.318   2.615   2.308  3.2749  0.3797  1.0684
   87SOPE    HB 8132   5.426   2.511   2.406  1.0620  0.2962 -1.3636
   87SOPE    C2 8133   5.204   2.494   2.430  0.3097 -0.5547  1.0693
   87SOPE    HS 8134   5.186   2.589   2.484  0.6835  0.5860 -0.7203
   87SOPE   O21 8135   5.219   2.381   2.512  0.1021  0.1946  0.3217
   87SOPE   C21 8136   5.307   2.391   2.613  0.5530  0.1063 -0.1185
   87SOPE   O22 8137   5.369   2.490   2.645  0.1548 -0.0482  0.1195
   87SOPE   C22 8138   5.308   2.260   2.689  0.0089  0.0066 -0.7318
   87SOPE   H2R 8139   5.362   2.188   2.624  0.8392  1.5013 -1.7396
   87SOPE   H2S 8140   5.203   2.222   2.694 -0.6603  1.7932 -0.4037
   87SOPE    C3 8141   5.069   2.482   2.348 -0.3808 -0.5512  0.1266
   87SOPE    HX 8142   5.081   2.393   2.282 -1.0008 -1.0020  0.5966
   87SOPE    HY 8143   5.072   2.574   2.286  2.1096  0.3226  1.4024
   87SOPE   O31 8144   4.947   2.480   2.425  0.5773 -0.6848 -0.2679
   87SOPE   C31 8145   4.897   2.355   2.449 -0.7219 -0.1820 -0.3738
   87SOPE   O32 8146   4.940   2.251   2.406 -0.0922  0.3528 -0.0958
   87SOPE   C32 8147   4.793   2.360   2.558 -0.1416  0.3485 -0.1508
   87SOPE   H2X 8148   4.718   2.288   2.520  1.6028 -0.1808 -2.8475
   87SOPE   H2Y 8149   4.741   2.459   2.563 -3.2395 -1.1927  0.7016
   87SOPE   C23 8150   5.371   2.264   2.819  0.1141  0.6507 -0.4487
   87SOPE   H3R 8151   5.470   2.314   2.814  0.6319  0.1438  2.7201
   87SOPE   H3S 8152   5.407   2.163   2.849  2.3252  0.7806 -2.3951
   87SOPE   C24 8153   5.276   2.314   2.927  0.0756  0.0789 -0.7153
   87SOPE   H4R 8154   5.238   2.414   2.897 -0.4636  0.3955  0.9273
   87SOPE   H4S 8155   5.186   2.249   2.937 -0.3826  0.4819 -2.0051
   87SOPE   C25 8156   5.332   2.304   3.068 -0.0737  0.6960 -0.2131
   87SOPE   H5R 8157   5.346   2.195   3.087  2.2361  0.2211 -3.6520
   87SOPE   H5S 8158   5.427   2.361   3.071 -0.9074  2.0966  0.2982
   87SOPE   C26 8159   5.225   2.365   3.164 -0.3644 -0.3994  0.0163
   87SOPE   H6R 8160   5.179   2.449   3.108 -1.8075 -1.7479 -0.9324
   87SOPE   H6S 8161   5.133   2.304   3.175 -0.9051  0.4298  0.2227
   87SOPE   C27 8162   5.278   2.403   3.303  0.0599 -0.3146 -0.5998
   87SOPE   H7R 8163   5.367   2.466   3.282 -0.2552 -0.1567 -1.5224
   87SOPE   H7S 8164   5.205   2.472   3.349 -0.9037 -1.5807 -0.1913
   87SOPE   C28 8165   5.342   2.300   3.388 -0.4975  0.5562  0.3655
   87SOPE   H8R 8166   5.403   2.230   3.328 -0.5182 -1.5366  2.5985
   87SOPE   H8S 8167   5.407   2.358   3.457  0.2540  1.0704 -0.7562
   87SOPE   C29 8168   5.239   2.210   3.451  0.0723 -0.8075  0.1457
   87SOPE   H91 8169   5.194   2.135   3.385  2.2211 -2.6321  0.6251
   87SOPE  C210 8170   5.201   2.204   3.578  0.1480  0.9478  0.5621
   87SOPE  H101 8171   5.116   2.143   3.612 -0.0002  0.1731 -1.1200
   87SOPE  C211 8172   5.254   2.304   3.689 -0.8173 -0.0210 -0.1124
   87SOPE  H11R 8173   5.186   2.305   3.777 -0.0244 -0.5355  0.5244
   87SOPE  H11S 8174   5.250   2.407   3.647 -2.9681 -0.1526 -0.3388
   87SOPE  C212 8175   5.403   2.275   3.736  0.0397  0.2546 -0.3013
   87SOPE  H12R 8176   5.463   2.282   3.643 -0.6884  0.2301 -0.7815
   87SOPE  H12S 8177   5.409   2.171   3.776  1.2592 -0.0640 -1.2572
   87SOPE  C213 8178   5.478   2.365   3.830  0.6968  0.3816  0.0102
   87SOPE  H13R 8179   5.513   2.457   3.779 -0.2190  1.1338  0.6914
   87SOPE  H13S 8180   5.573   2.314   3.854  0.2075 -1.1465 -1.1681
   87SOPE  C214 8181   5.411   2.380   3.961  0.4786  0.7901 -0.7644
   87SOPE  H14R 8182   5.361   2.284   3.985  1.3751 -0.0703 -2.2321
   87SOPE  H14S 8183   5.321   2.445   3.960 -1.3128 -1.5588 -0.3634
   87SOPE  C215 8184   5.503   2.434   4.072 -0.3210 -0.2915  0.3188
   87SOPE  H15R 8185   5.556   2.528   4.047 -3.8884  2.1514  1.1999
   87SOPE  H15S 8186   5.565   2.351   4.112 -1.2767 -0.4030  1.6339
   87SOPE  C216 8187   5.423   2.478   4.194 -0.5859 -0.1002  0.2323
   87SOPE  H16R 8188   5.482   2.527   4.275 -0.4615  2.0888 -1.1212
   87SOPE  H16S 8189   5.370   2.388   4.233 -2.1153  0.3865 -0.6334
   87SOPE  C217 8190   5.314   2.580   4.167  0.0092  0.3351  0.2396
   87SOPE  H17R 8191   5.267   2.595   4.267  1.2182  1.0654  0.7117
   87SOPE  H17S 8192   5.234   2.546   4.098 -0.4787 -1.2358  1.5084
   87SOPE  C218 8193   5.369   2.723   4.130  0.5570 -0.1923  0.1782
   87SOPE  H18R 8194   5.444   2.719   4.048  0.9775 -3.4075  0.5946
   87SOPE  H18S 8195   5.418   2.744   4.227  0.7636 -0.1462  0.0645
   87SOPE  H18T 8196   5.286   2.795   4.110  0.5657 -0.2810 -0.1922
   87SOPE   C33 8197   4.867   2.320   2.693 -0.2511  0.6996  0.4089
   87SOPE   H3X 8198   4.959   2.382   2.688  0.1465  0.0841 -0.1555
   87SOPE   H3Y 8199   4.895   2.212   2.696 -0.1840  0.7328  1.1126
   87SOPE   C34 8200   4.790   2.376   2.814  0.1204  0.1976 -0.1944
   87SOPE   H4X 8201   4.688   2.337   2.831  1.0699 -3.1337 -1.3268
   87SOPE   H4Y 8202   4.786   2.487   2.811 -1.2898  0.1939  0.6847
   87SOPE   C35 8203   4.870   2.336   2.946  0.1867 -0.7303  0.5304
   87SOPE   H5X 8204   4.857   2.410   3.028 -1.2195 -2.3107  1.7924
   87SOPE   H5Y 8205   4.980   2.329   2.933  0.1219  1.0699 -1.6539
   87SOPE   C36 8206   4.822   2.198   3.003  0.6096 -0.6079 -0.6061
   87SOPE   H6X 8207   4.843   2.119   2.928  1.6371  0.0900 -1.0863
   87SOPE   H6Y 8208   4.712   2.203   3.019  0.7768  0.6890  0.3278
   87SOPE   C37 8209   4.896   2.171   3.136  0.2879 -0.1427  0.3645
   87SOPE   H7X 8210   4.879   2.257   3.203  0.1284 -0.8145  1.2030
   87SOPE   H7Y 8211   5.004   2.161   3.111  0.7335  3.5496  0.3522
   87SOPE   C38 8212   4.838   2.053   3.197  0.4846 -0.3965 -0.8008
   87SOPE   H8X 8213   4.856   1.960   3.140 -1.1866 -1.3690  0.1516
   87SOPE   H8Y 8214   4.727   2.062   3.204  0.4877 -0.1965 -1.0047
   87SOPE   C39 8215   4.895   2.014   3.337 -0.5785  0.4059  0.1729
   87SOPE   H9X 8216   4.853   2.078   3.418 -0.5456 -0.2031  0.6861
   87SOPE   H9Y 8217   5.005   2.030   3.340 -0.5670  0.3496  0.0581
   87SOPE  C310 8218   4.852   1.871   3.387  0.2220 -0.1410  0.6648
   87SOPE  H10X 8219   4.872   1.805   3.300 -2.1269  2.5922 -2.1954
   87SOPE  H10Y 8220   4.741   1.873   3.391 -0.0627 -1.4803 -2.8323
   87SOPE  C311 8221   4.921   1.820   3.513  0.0944 -0.0436 -0.1120
   87SOPE  H11X 8222   5.028   1.847   3.501  0.3810 -0.5534  1.1132
   87SOPE  H11Y 8223   4.922   1.709   3.516  2.2726 -0.0617  0.3017
   87SOPE  C312 8224   4.862   1.872   3.648 -0.3522  0.1728  0.6258
   87SOPE  H12X 8225   4.844   1.981   3.660  3.2792  0.8861  0.6118
   87SOPE  H12Y 8226   4.942   1.864   3.724 -0.3051 -2.9977  0.3756
   87SOPE  C313 8227   4.755   1.778   3.692  0.0285  0.0600  0.1975
   87SOPE  H13X 8228   4.781   1.670   3.680 -1.7180 -0.1294 -2.8566
   87SOPE  H13Y 8229   4.668   1.791   3.624  0.9195 -0.1655 -1.0043
   87SOPE  C314 8230   4.697   1.795   3.835 -0.6532 -0.5585  0.3306
   87SOPE  H14X 8231   4.650   1.697   3.858  0.1955 -1.1949 -0.5887
   87SOPE  H14Y 8232   4.625   1.878   3.849 -0.1546  0.1941 -1.3675
   87SOPE  C315 8233   4.804   1.817   3.950 -0.0025  0.2203  0.3898
   87SOPE  H15X 8234   4.843   1.919   3.933 -0.8759  0.2978 -1.2974
   87SOPE  H15Y 8235   4.891   1.756   3.918  0.2416  0.9163 -0.3035
   87SOPE  C316 8236   4.747   1.801   4.092 -0.5038 -0.6988  0.3201
   87SOPE  H16X 8237   4.829   1.798   4.167 -0.0432  0.6302 -0.0933
   87SOPE  H16Y 8238   4.697   1.702   4.083 -0.4063 -0.6055 -1.6085
   87SOPE  C317 8239   4.657   1.909   4.143  0.3018  0.6058 -0.3914
   87SOPE  H17X 8240   4.601   1.865   4.229 -0.9206  1.6674 -0.6007
   87SOPE  H17Y 8241   4.585   1.923   4.059  0.6508  2.2565 -0.4547
   87SOPE  C318 8242   4.736   2.034   4.190  0.2279  0.2206  0.0331
   87SOPE  H18X 8243   4.681   2.130   4.205 -1.2993 -0.8819  1.9121
   87SOPE  H18Y 8244   4.796   2.049   4.098 -1.0229 -0.5685 -0.9512
   87SOPE  H18Z 8245   4.805   2.024   4.276  1.5202  0.3078 -0.9535
   88SOPE     N 8246   1.657   1.864   2.269 -0.1251  0.6956 -0.0047
   88SOPE   HN1 8247   1.690   1.925   2.348 -2.0252  2.7833 -0.7191
   88SOPE   HN2 8248   1.750   1.824   2.244 -0.1670  0.3549  0.3752
   88SOPE   HN3 8249   1.616   1.928   2.198 -1.4111 -0.4399 -0.3113
   88SOPE   C12 8250   1.559   1.755   2.304  0.1420  0.4246 -0.1008
   88SOPE  H12A 8251   1.598   1.686   2.383  0.1885 -0.8157 -1.1712
   88SOPE  H12B 8252   1.542   1.689   2.217 -0.2978 -3.5204  2.6977
   88SOPE   C11 8253   1.443   1.823   2.365  0.4607 -0.1760 -1.1429
   88SOPE  H11A 8254   1.478   1.886   2.450 -0.5302 -1.1214  0.0133
   88SOPE  H11B 8255   1.367   1.752   2.405 -1.0397  1.7940 -0.2890
   88SOPE     P 8256   1.231   1.891   2.216  0.1388 -0.1159 -0.2367
   88SOPE   O13 8257   1.199   1.749   2.194  0.0746 -0.3578  0.0065
   88SOPE   O14 8258   1.226   1.979   2.098 -0.3634  0.2948 -0.3279
   88SOPE   O12 8259   1.378   1.904   2.275 -0.4268 -0.1397  0.6279
   88SOPE   O11 8260   1.143   1.950   2.337  0.1074  0.0436 -0.0438
   88SOPE    C1 8261   1.144   2.091   2.368  0.0131  0.5199 -0.2932
   88SOPE    HA 8262   1.041   2.115   2.401  0.5942  3.9655 -0.5552
   88SOPE    HB 8263   1.159   2.152   2.276  1.3537  1.4274  0.4889
   88SOPE    C2 8264   1.241   2.120   2.484  0.2358 -0.3637 -0.2299
   88SOPE    HS 8265   1.341   2.093   2.443  0.4710 -0.0940  0.1549
   88SOPE   O21 8266   1.212   2.039   2.596 -0.3906 -0.5472  0.1750
   88SOPE   C21 8267   1.308   2.018   2.679  0.7791 -0.6716 -0.4193
   88SOPE   O22 8268   1.424   2.039   2.661 -0.5953 -0.2952  0.0544
   88SOPE   C22 8269   1.239   1.967   2.809 -0.8052 -0.2595  0.0500
   88SOPE   H2R 8270   1.161   1.892   2.783 -0.2314 -0.4869 -1.1225
   88SOPE   H2S 8271   1.188   2.051   2.860 -1.6471 -1.3865  1.1269
   88SOPE    C3 8272   1.243   2.274   2.517 -0.3032  0.1872  0.0539
   88SOPE    HX 8273   1.136   2.298   2.540 -1.0999 -1.1269 -2.0100
   88SOPE    HY 8274   1.268   2.322   2.420  0.8606 -2.0292 -0.7939
   88SOPE   O31 8275   1.324   2.318   2.631 -0.2202 -0.1068 -0.8975
   88SOPE   C31 8276   1.454   2.334   2.612  0.2388  0.0650 -0.2568
   88SOPE   O32 8277   1.515   2.309   2.510  0.2554  0.4646  0.0263
   88SOPE   C32 8278   1.513   2.383   2.750 -0.4225 -0.0631 -0.0344
   88SOPE   H2X 8279   1.462   2.477   2.779  1.7447  1.1210  0.0949
   88SOPE   H2Y 8280   1.620   2.402   2.727 -0.6233 -0.7261 -1.6986
   88SOPE   C23 8281   1.338   1.909   2.914  0.2052  0.0006 -0.4055
   88SOPE   H3R 8282   1.421   1.982   2.929 -1.4399  1.7284  0.7193
   88SOPE   H3S 8283   1.383   1.816   2.872  1.4782 -0.5225  1.9153
   88SOPE   C24 8284   1.268   1.883   3.041 -0.1195  0.2377  0.7005
   88SOPE   H4R 8285   1.202   1.969   3.065 -0.3336 -0.2831  2.0492
   88SOPE   H4S 8286   1.197   1.799   3.028  1.6801 -1.5794  2.0526
   88SOPE   C25 8287   1.363   1.863   3.163  0.0035  0.0740  0.6288
   88SOPE   H5R 8288   1.403   1.959   3.201 -0.1950  0.2457  0.4040
   88SOPE   H5S 8289   1.318   1.821   3.256 -1.3332  1.0822  0.4572
   88SOPE   C26 8290   1.471   1.759   3.139  0.1259  0.1418 -0.6582
   88SOPE   H6R 8291   1.435   1.657   3.113  1.3030 -0.0928 -1.4557
   88SOPE   H6S 8292   1.530   1.805   3.057  0.4782 -0.7241 -0.9085
   88SOPE   C27 8293   1.562   1.744   3.261  0.1591 -0.6278  0.0905
   88SOPE   H7R 8294   1.606   1.844   3.281  0.6761 -0.9145  0.4158
   88SOPE   H7S 8295   1.489   1.723   3.342 -1.4473  1.9980 -0.5668
   88SOPE   C28 8296   1.679   1.642   3.248 -0.6586  0.1588  0.9408
   88SOPE   H8R 8297   1.629   1.543   3.237 -0.0967 -0.2803  2.1309
   88SOPE   H8S 8298   1.729   1.660   3.151 -0.6475  1.3757  1.1599
   88SOPE   C29 8299   1.773   1.652   3.364  0.8444  0.1261  0.5334
   88SOPE   H91 8300   1.836   1.742   3.366 -1.0234  1.6329  5.5537
   88SOPE  C210 8301   1.784   1.557   3.455  0.5600  0.1578 -0.9801
   88SOPE  H101 8302   1.855   1.558   3.539  0.4360  0.2810 -0.8757
   88SOPE  C211 8303   1.714   1.419   3.460  0.4479 -0.6802 -0.3291
   88SOPE  H11R 8304   1.779   1.332   3.439 -1.5426 -2.1467 -0.7183
   88SOPE  H11S 8305   1.642   1.403   3.377  0.2928 -2.8600  0.1653
   88SOPE  C212 8306   1.625   1.399   3.579 -0.3924  0.5151  0.0052
   88SOPE  H12R 8307   1.562   1.310   3.558  0.2968  0.1191 -0.4150
   88SOPE  H12S 8308   1.560   1.489   3.580  2.9600  3.1037  0.7008
   88SOPE  C213 8309   1.705   1.377   3.710  0.4618  0.3115  0.2912
   88SOPE  H13R 8310   1.759   1.471   3.734  2.3877 -0.8004  0.5593
   88SOPE  H13S 8311   1.776   1.292   3.703 -0.1944 -0.3833  1.6055
   88SOPE  C214 8312   1.620   1.329   3.832  0.1187  0.1529  0.3879
   88SOPE  H14R 8313   1.592   1.221   3.827 -1.1224  0.5240 -1.6720
   88SOPE  H14S 8314   1.528   1.389   3.840 -0.5348 -0.6363 -0.8280
   88SOPE  C215 8315   1.697   1.367   3.964 -0.2885 -0.5725 -0.7926
   88SOPE  H15R 8316   1.740   1.469   3.954 -3.9570  1.2326  0.0740
   88SOPE  H15S 8317   1.783   1.299   3.985 -1.2839 -2.3777 -2.2227
   88SOPE  C216 8318   1.608   1.365   4.087 -0.1663  0.4670 -0.1157
   88SOPE  H16R 8319   1.593   1.258   4.114  2.3341 -0.0417 -0.4894
   88SOPE  H16S 8320   1.514   1.421   4.071  1.1835  2.2532 -2.4357
   88SOPE  C217 8321   1.682   1.428   4.212  0.1035  0.3036  0.4442
   88SOPE  H17R 8322   1.682   1.537   4.196 -1.6450  0.5689  1.9434
   88SOPE  H17S 8323   1.785   1.386   4.215  0.7319  1.6245 -1.4587
   88SOPE  C218 8324   1.602   1.394   4.340 -0.6933  0.1690 -0.4840
   88SOPE  H18R 8325   1.495   1.421   4.327  0.4104  4.3554 -2.6744
   88SOPE  H18S 8326   1.636   1.454   4.427  0.3563 -3.3446  1.7398
   88SOPE  H18T 8327   1.626   1.289   4.368  0.5082  0.0466 -1.8183
   88SOPE   C33 8328   1.519   2.280   2.869 -0.0752 -0.2359  0.1469
   88SOPE   H3X 8329   1.605   2.306   2.935  0.8266 -1.7989 -0.3517
   88SOPE   H3Y 8330   1.538   2.179   2.827  1.3394 -1.4159  3.3064
   88SOPE   C34 8331   1.398   2.284   2.955 -0.3822  0.2321  0.6131
   88SOPE   H4X 8332   1.378   2.181   2.993 -1.6381  0.1486 -0.2282
   88SOPE   H4Y 8333   1.306   2.309   2.898 -0.5094  0.0315  0.7260
   88SOPE   C35 8334   1.409   2.386   3.071 -0.3263 -0.2293  0.0986
   88SOPE   H5X 8335   1.415   2.486   3.023 -1.9632 -1.0482 -1.9887
   88SOPE   H5Y 8336   1.503   2.370   3.128  0.2979  2.9709  0.1722
   88SOPE   C36 8337   1.277   2.389   3.151  0.4828  0.0562  0.4195
   88SOPE   H6X 8338   1.273   2.288   3.197 -0.1893 -0.4971 -0.7991
   88SOPE   H6Y 8339   1.191   2.408   3.082  1.7084  0.9602 -0.9114
   88SOPE   C37 8340   1.279   2.488   3.266 -0.1463  0.3199 -0.0100
   88SOPE   H7X 8341   1.299   2.591   3.228 -2.6322  0.9526  0.2272
   88SOPE   H7Y 8342   1.350   2.470   3.350 -1.9899 -0.2064  1.4989
   88SOPE   C38 8343   1.140   2.495   3.324  0.0377  0.3231  0.1439
   88SOPE   H8X 8344   1.105   2.399   3.369 -1.8224  0.5041 -0.8141
   88SOPE   H8Y 8345   1.069   2.517   3.241 -1.0777  0.7051  1.1757
   88SOPE   C39 8346   1.125   2.596   3.434 -0.3420 -0.5752  0.0878
   88SOPE   H9X 8347   1.017   2.593   3.460 -0.2744  0.0559  0.4660
   88SOPE   H9Y 8348   1.144   2.693   3.382  2.6416 -0.5896  0.9822
   88SOPE  C310 8349   1.198   2.575   3.565 -0.6282 -0.0092 -0.2841
   88SOPE  H10X 8350   1.304   2.544   3.552 -0.7856 -1.2357  1.1490
   88SOPE  H10Y 8351   1.162   2.485   3.618  1.3939  0.0967  1.4389
   88SOPE  C311 8352   1.201   2.711   3.646 -0.1038 -0.0966  0.6003
   88SOPE  H11X 8353   1.104   2.722   3.700 -0.2414 -0.1997  0.3753
   88SOPE  H11Y 8354   1.215   2.795   3.576 -0.6537  0.9287  1.6835
   88SOPE  C312 8355   1.310   2.707   3.751 -0.0090  0.4250 -0.2609
   88SOPE  H12X 8356   1.305   2.795   3.818  1.0642  0.7886 -0.6398
   88SOPE  H12Y 8357   1.406   2.704   3.696 -0.2151 -2.7952 -0.6330
   88SOPE  C313 8358   1.308   2.582   3.843  0.8661  0.5349  0.3370
   88SOPE  H13X 8359   1.377   2.507   3.800 -3.0534 -2.9525 -0.5412
   88SOPE  H13Y 8360   1.203   2.545   3.837  1.3731 -1.1040  0.9996
   88SOPE  C314 8361   1.340   2.605   3.990 -0.4015 -1.1543 -0.3766
   88SOPE  H14X 8362   1.277   2.683   4.037  0.3819 -0.8818  0.2496
   88SOPE  H14Y 8363   1.443   2.647   3.988 -0.0462 -2.0156 -0.6711
   88SOPE  C315 8364   1.328   2.492   4.084 -0.5397  0.5493 -0.7395
   88SOPE  H15X 8365   1.341   2.399   4.024 -1.1903  0.1716 -0.3057
   88SOPE  H15Y 8366   1.219   2.492   4.108 -0.4356  0.1152 -0.2351
   88SOPE  C316 8367   1.410   2.496   4.216 -0.2711  0.1241 -0.4343
   88SOPE  H16X 8368   1.395   2.595   4.264  1.1581  0.4667 -0.6547
   88SOPE  H16Y 8369   1.518   2.496   4.191  0.3098  1.7296  1.7877
   88SOPE  C317 8370   1.372   2.372   4.300  0.0377 -0.4357 -1.0142
   88SOPE  H17X 8371   1.411   2.276   4.259 -0.1379 -1.7444  1.6807
   88SOPE  H17Y 8372   1.261   2.374   4.297  0.0553  0.5418 -2.8758
   88SOPE  C318 8373   1.416   2.365   4.447 -0.1756  0.4109 -0.2114
   88SOPE  H18X 8374   1.527   2.367   4.448 -0.1520 -0.6441  0.8908
   88SOPE  H18Y 8375   1.380   2.268   4.489  0.4455 -1.3946 -3.4760
   88SOPE  H18Z 8376   1.375   2.450   4.505  0.3430  0.2343  0.4209
   89SAPC     N 8377   0.774   1.421   6.794  0.7563  0.1997 -0.0427
   89SAPC   C12 8378   0.746   1.461   6.646 -0.7263 -0.0021  0.3957
   89SAPC  H12A 8379   0.716   1.565   6.645 -0.7532  0.0126  1.5063
   89SAPC  H12B 8380   0.659   1.404   6.619 -0.4837 -2.9838  4.8364
   89SAPC   C13 8381   0.672   1.496   6.874 -0.3429  0.1333 -0.1100
   89SAPC  H13A 8382   0.667   1.461   6.976 -0.7181 -0.4829 -0.3375
   89SAPC  H13B 8383   0.681   1.604   6.868 -1.1431  0.2608  0.7763
   89SAPC  H13C 8384   0.573   1.472   6.840 -0.9670 -0.5696  2.0203
   89SAPC   C14 8385   0.781   1.278   6.820  0.7646  0.6742  0.5934
   89SAPC  H14A 8386   0.688   1.239   6.783  1.4338  0.5317 -0.9945
   89SAPC  H14B 8387   0.857   1.231   6.760  2.0600  1.6847  1.3683
   89SAPC  H14C 8388   0.818   1.254   6.919  1.3037  1.0702  0.4917
   89SAPC   C15 8389   0.915   1.470   6.832 -0.4077  0.6348 -0.4037
   89SAPC  H15A 8390   0.929   1.574   6.807 -0.3448  1.1368  1.5574
   89SAPC  H15B 8391   0.926   1.447   6.937  0.5959 -1.7910 -0.9681
   89SAPC  H15C 8392   0.990   1.420   6.772 -0.3496  1.1827 -0.8003
   89SAPC   C11 8393   0.859   1.430   6.539  0.2223 -0.5266 -0.6464
   89SAPC  H11A 8394   0.816   1.442   6.437 -1.0730  0.1186 -0.0469
   89SAPC  H11B 8395   0.889   1.323   6.539 -1.4257 -1.0215 -1.3566
   89SAPC     P 8396   0.964   1.671   6.524  0.1363 -0.6531 -0.0180
   89SAPC   O13 8397   0.964   1.733   6.661  0.4896 -0.3550 -0.0657
   89SAPC   O14 8398   1.066   1.720   6.433 -0.0373 -0.5512  0.2008
   89SAPC   O12 8399   0.974   1.514   6.550  0.2572  0.9382  0.4397
   89SAPC   O11 8400   0.818   1.674   6.457  0.1110 -0.3229  0.0871
   89SAPC    C1 8401   0.758   1.804   6.429  0.0654 -0.0643  0.1177
   89SAPC    HA 8402   0.691   1.828   6.515 -1.1634 -1.1414 -0.5044
   89SAPC    HB 8403   0.833   1.885   6.414 -0.4761 -0.0217 -3.0465
   89SAPC    C2 8404   0.674   1.804   6.298 -0.4605 -0.6753 -0.0107
   89SAPC    HS 8405   0.610   1.713   6.294 -1.9462  0.3423 -1.4932
   89SAPC   O21 8406   0.765   1.817   6.190 -0.0040 -0.0523  0.0251
   89SAPC   C21 8407   0.741   1.744   6.087 -0.4835 -0.4289  0.0708
   89SAPC   O22 8408   0.647   1.664   6.067 -0.5872  0.2066  0.2871
   89SAPC   C22 8409   0.849   1.769   5.975  0.1687 -0.5730  0.9662
   89SAPC   H2R 8410   0.877   1.876   5.979 -0.5379 -0.3880  1.1443
   89SAPC   H2S 8411   0.942   1.717   6.004  0.4205 -1.4076 -1.1725
   89SAPC    C3 8412   0.572   1.935   6.300  0.0140 -0.3586 -0.0656
   89SAPC    HX 8413   0.647   2.015   6.318 -0.0915 -0.1084 -0.7142
   89SAPC    HY 8414   0.503   1.922   6.386  0.3815 -0.4074  0.2285
   89SAPC   O31 8415   0.504   1.961   6.176  0.2925 -0.4188  0.6177
   89SAPC   C31 8416   0.418   1.864   6.128 -0.4450  0.2801 -0.6550
   89SAPC   O32 8417   0.375   1.773   6.193 -0.2408 -0.2222 -0.2472
   89SAPC   C32 8418   0.393   1.877   5.979  0.6219  0.4643 -0.3114
   89SAPC   H2X 8419   0.302   1.818   5.953  1.4364 -2.0577  2.0146
   89SAPC   H2Y 8420   0.480   1.826   5.933  1.5487 -0.3161  2.1268
   89SAPC   C23 8421   0.794   1.725   5.835  0.2624  0.1762  0.4395
   89SAPC   H3R 8422   0.685   1.744   5.829  0.3429  0.1690 -3.0180
   89SAPC   H3S 8423   0.801   1.615   5.820  0.3179  0.5934 -3.4645
   89SAPC   C24 8424   0.842   1.809   5.718  0.0366  0.4570 -0.1913
   89SAPC   H4R 8425   0.836   1.919   5.736  0.7756  0.3350  0.8761
   89SAPC   H4S 8426   0.769   1.781   5.639  1.1558 -2.9717 -0.1854
   89SAPC   C25 8427   0.975   1.753   5.680  0.6480  0.4360  0.1823
   89SAPC   H5R 8428   1.042   1.749   5.767 -1.9161  0.4831  2.3171
   89SAPC   C26 8429   1.012   1.710   5.560 -0.1725  0.2646  0.2788
   89SAPC   H6R 8430   1.110   1.663   5.543 -0.3128 -0.2706  0.9211
   89SAPC   C27 8431   0.922   1.698   5.439  0.1053  0.0560 -0.0048
   89SAPC   H7R 8432   0.893   1.793   5.389  0.2629 -0.3568 -0.9026
   89SAPC   H7S 8433   0.819   1.667   5.466  0.0074 -0.9060 -1.3537
   89SAPC   C28 8434   0.973   1.602   5.336  0.5869  0.0004 -0.3337
   89SAPC   H8R 8435   0.981   1.498   5.370 -1.8514 -0.5775 -1.3557
   89SAPC   C29 8436   1.000   1.628   5.204 -0.4401  0.8213  0.4660
   89SAPC   H9R 8437   1.039   1.540   5.149 -2.6296  0.5077 -0.6956
   89SAPC  C210 8438   0.973   1.753   5.123 -0.2921 -0.3731  0.1156
   89SAPC  H10R 8439   0.881   1.804   5.157 -1.6763 -1.2599 -2.1074
   89SAPC  H10S 8440   0.953   1.728   5.017  1.8646  2.4808 -1.0929
   89SAPC  C211 8441   1.086   1.853   5.140  0.0045  0.6517 -0.4780
   89SAPC  H11R 8442   1.106   1.880   5.245  0.3164  0.1830 -0.4138
   89SAPC  C212 8443   1.167   1.908   5.053  0.8340 -0.0567  0.6272
   89SAPC  H12R 8444   1.244   1.978   5.089 -1.0608  1.5149  1.7659
   89SAPC  C213 8445   1.171   1.880   4.905 -0.1341  0.3658  0.0063
   89SAPC  H13R 8446   1.146   1.975   4.853 -2.1147  1.8746  3.3584
   89SAPC  H13S 8447   1.114   1.790   4.877  0.9011 -0.7066  1.2099
   89SAPC  C214 8448   1.320   1.851   4.870 -0.0967 -0.2303 -0.9530
   89SAPC  H14R 8449   1.364   1.767   4.925  1.1340  0.9044 -0.1538
   89SAPC  C215 8450   1.407   1.921   4.799  0.3417 -0.6139  0.1216
   89SAPC  H15R 8451   1.511   1.887   4.809  1.1136  2.1636  3.0335
   89SAPC  C216 8452   1.373   2.042   4.718 -0.3684  0.3101 -0.4497
   89SAPC  H16R 8453   1.457   2.113   4.705  0.5946 -0.3167  1.9120
   89SAPC  H16S 8454   1.300   2.104   4.775  1.5741  1.7189  0.6198
   89SAPC  C217 8455   1.307   2.007   4.585  0.2213 -0.1341 -0.0863
   89SAPC  H17R 8456   1.265   2.097   4.534  1.3203  0.5770  0.2420
   89SAPC  H17S 8457   1.222   1.938   4.606  0.5132 -0.1883  0.9541
   89SAPC  C218 8458   1.402   1.931   4.480  0.5320 -0.7783 -0.5013
   89SAPC  H18R 8459   1.430   1.831   4.521 -0.4842 -0.0685  2.0856
   89SAPC  H18S 8460   1.488   2.000   4.473 -0.6074  0.6569 -0.6699
   89SAPC  C219 8461   1.343   1.918   4.342  0.8046 -0.0277  0.4496
   89SAPC  H19R 8462   1.341   2.018   4.294  1.8437 -0.7423 -1.1801
   89SAPC  H19S 8463   1.241   1.875   4.349  1.1846 -1.1522 -0.6587
   89SAPC  C220 8464   1.429   1.827   4.249  0.3477 -0.1793 -0.7209
   89SAPC  H20R 8465   1.521   1.885   4.224 -0.1278  0.5947 -0.6790
   89SAPC  H20S 8466   1.377   1.800   4.155 -2.1521  1.4908  0.1037
   89SAPC  H20T 8467   1.439   1.730   4.302 -2.4969  0.1544  0.6186
   89SAPC   C33 8468   0.385   2.023   5.931  0.3671  0.5896  0.0253
   89SAPC   H3X 8469   0.469   2.085   5.969 -0.0340  0.2642  1.5203
   89SAPC   H3Y 8470   0.297   2.063   5.987 -0.2948 -0.8354  0.0403
   89SAPC   C34 8471   0.348   2.044   5.787  0.5202 -0.2554 -0.2100
   89SAPC   H4X 8472   0.262   1.977   5.763 -0.0698  0.7667 -1.0320
   89SAPC   H4Y 8473   0.428   2.008   5.718 -0.4751 -0.7999 -1.1102
   89SAPC   C35 8474   0.312   2.188   5.753  0.2010 -0.8162 -0.0316
   89SAPC   H5X 8475   0.405   2.241   5.782  0.2986 -0.8496 -0.2822
   89SAPC   H5Y 8476   0.233   2.223   5.822  1.6315  1.1120  0.7114
   89SAPC   C36 8477   0.267   2.212   5.602 -0.4689  0.1208 -0.0602
   89SAPC   H6X 8478   0.187   2.144   5.565 -0.8377 -0.2941  1.4305
   89SAPC   H6Y 8479   0.355   2.171   5.549 -1.5931 -1.1478 -1.0286
   89SAPC   C37 8480   0.228   2.351   5.575  0.2501 -0.3783 -0.0549
   89SAPC   H7X 8481   0.312   2.422   5.595 -0.2139 -0.2104  1.4285
   89SAPC   H7Y 8482   0.145   2.367   5.647 -0.7567 -2.6731 -0.6181
   89SAPC   C38 8483   0.169   2.383   5.429 -0.0216 -0.2007  0.5950
   89SAPC   H8X 8484   0.123   2.483   5.443  0.0356 -0.1860  0.6813
   89SAPC   H8Y 8485   0.087   2.313   5.400  1.9165 -1.3385 -2.6836
   89SAPC   C39 8486   0.281   2.391   5.326  0.3145  0.1598 -0.1390
   89SAPC   H9X 8487   0.304   2.291   5.282 -1.2221  0.6403 -2.1993
   89SAPC   H9Y 8488   0.369   2.430   5.381 -0.4983  0.6504  0.8391
   89SAPC  C310 8489   0.253   2.471   5.200 -0.0009  0.5808 -0.0097
   89SAPC  H10X 8490   0.344   2.495   5.140  0.3348  1.5750  0.8775
   89SAPC  H10Y 8491   0.203   2.566   5.227 -1.6162 -0.1562 -0.3224
   89SAPC  C311 8492   0.147   2.408   5.114 -0.3023 -0.7250 -0.1816
   89SAPC  H11X 8493   0.042   2.418   5.148 -0.5517  0.2847 -1.1597
   89SAPC  H11Y 8494   0.153   2.298   5.109  1.1725 -0.6319 -4.2813
   89SAPC  C312 8495   0.147   2.462   4.970  0.0145  0.5029  0.9165
   89SAPC  H12X 8496   0.252   2.485   4.943  0.0329  3.4988  3.0255
   89SAPC  H12Y 8497   0.097   2.561   4.963 -0.6819  0.1717  1.0929
   89SAPC  C313 8498   0.069   2.368   4.870 -0.4941  0.2110 -0.1029
   89SAPC  H13X 8499  -0.042   2.365   4.880 -0.5575  0.4723 -0.6956
   89SAPC  H13Y 8500   0.119   2.269   4.861  0.3921  0.7077 -0.8015
   89SAPC  C314 8501   0.104   2.422   4.725  0.2560  0.3401  0.2660
   89SAPC  H14X 8502   0.210   2.452   4.733  1.1949 -3.0271  2.8234
   89SAPC  H14Y 8503   0.037   2.509   4.707 -0.4267 -0.3330 -0.5535
   89SAPC  C315 8504   0.076   2.321   4.603  0.6509  0.1550  0.5697
   89SAPC  H15X 8505  -0.025   2.275   4.609  0.7143  0.0114  0.5364
   89SAPC  H15Y 8506   0.162   2.251   4.602  0.7956  0.3295 -0.3026
   89SAPC  C316 8507   0.088   2.411   4.467 -0.6067 -0.7587 -0.0105
   89SAPC  H16X 8508   0.193   2.446   4.450 -1.7804  2.3526 -1.6604
   89SAPC  H16Y 8509   0.028   2.503   4.485  1.0872  0.1251  1.5194
   89SAPC  C317 8510   0.039   2.341   4.339  0.3699  0.4469 -1.0678
   89SAPC  H17X 8511  -0.070   2.328   4.355  0.2419  1.5289 -0.9765
   89SAPC  H17Y 8512   0.096   2.246   4.329  3.6162  1.8337  1.9860
   89SAPC  C318 8513   0.056   2.418   4.211 -0.5786 -0.5837 -0.1771
   89SAPC  H18X 8514  -0.010   2.508   4.214 -0.5049 -0.4825 -1.3741
   89SAPC  H18Y 8515   0.025   2.349   4.129 -0.2809 -0.8636 -0.0539
   89SAPC  H18Z 8516   0.157   2.457   4.189 -0.7359  0.0571  0.1980
   90SAPC     N 8517   5.202   5.002   6.579  0.0105 -0.1220 -0.0059
   90SAPC   C12 8518   5.129   4.961   6.457 -0.7349 -0.5847  0.3153
   90SAPC  H12A 8519   5.138   4.854   6.451  0.6450 -0.6161  2.1056
   90SAPC  H12B 8520   5.171   5.018   6.375  0.1637 -0.5549  0.7795
   90SAPC   C13 8521   5.139   4.935   6.696 -0.4702  0.2025 -0.4045
   90SAPC  H13A 8522   5.141   5.003   6.779  1.5590 -0.4351  0.1079
   90SAPC  H13B 8523   5.040   4.900   6.672 -0.3085  0.6367 -1.8070
   90SAPC  H13C 8524   5.184   4.841   6.722 -0.6737  0.4418  0.8762
   90SAPC   C14 8525   5.351   4.979   6.578 -0.6130  0.0205  0.3461
   90SAPC  H14A 8526   5.411   5.032   6.506 -0.4389  1.0593  1.2306
   90SAPC  H14B 8527   5.387   5.000   6.678  1.5327 -3.3156  0.4164
   90SAPC  H14C 8528   5.371   4.875   6.559  2.8793  0.5864  0.4037
   90SAPC   C15 8529   5.183   5.154   6.610  0.8781  0.7551 -0.3609
   90SAPC  H15A 8530   5.208   5.202   6.516  0.1739 -1.6519 -1.8686
   90SAPC  H15B 8531   5.081   5.179   6.639  0.6495  0.5200 -0.9440
   90SAPC  H15C 8532   5.250   5.188   6.687 -0.1269  0.5953  0.6111
   90SAPC   C11 8533   4.974   4.970   6.435 -0.6566 -0.1958 -0.8671
   90SAPC  H11A 8534   4.954   4.960   6.326 -1.0736 -2.3988 -0.6281
   90SAPC  H11B 8535   4.946   5.069   6.476  1.7267 -0.3310  1.2941
   90SAPC     P 8536   4.785   4.800   6.478 -0.1929 -0.4228 -0.0848
   90SAPC   O13 8537   4.763   4.675   6.553 -0.4342 -0.1921  0.0818
   90SAPC   O14 8538   4.674   4.900   6.492 -0.3055 -0.1217  0.2463
   90SAPC   O12 8539   4.920   4.863   6.518  0.4125 -0.3188  0.4243
   90SAPC   O11 8540   4.804   4.761   6.323  0.2213  0.2783  0.3580
   90SAPC    C1 8541   4.914   4.672   6.284  0.1369  1.0819  0.7387
   90SAPC    HA 8542   4.994   4.729   6.232  1.2852 -0.6251  0.5789
   90SAPC    HB 8543   4.961   4.620   6.369 -0.4999 -0.0033  0.4414
   90SAPC    C2 8544   4.875   4.570   6.179 -0.1400 -0.0753 -0.1916
   90SAPC    HS 8545   4.970   4.514   6.160 -0.0733  0.0378 -0.1910
   90SAPC   O21 8546   4.829   4.628   6.059  0.3783  0.2426 -0.6433
   90SAPC   C21 8547   4.925   4.675   5.975 -0.2764  0.0446 -0.1591
   90SAPC   O22 8548   5.046   4.654   5.993  0.4808 -0.3739 -0.1123
   90SAPC   C22 8549   4.865   4.744   5.851 -0.1088  0.0472 -0.1267
   90SAPC   H2R 8550   4.766   4.696   5.837  0.8667 -2.2454  0.3610
   90SAPC   H2S 8551   4.840   4.848   5.879  0.1633 -0.0916  0.6774
   90SAPC    C3 8552   4.772   4.478   6.232  0.4036  0.6212  0.2775
   90SAPC    HX 8553   4.682   4.533   6.267 -0.3533  0.5944 -1.5437
   90SAPC    HY 8554   4.820   4.432   6.321  0.2821  2.2945  1.2520
   90SAPC   O31 8555   4.729   4.381   6.135  0.0343 -0.5495  0.1239
   90SAPC   C31 8556   4.735   4.252   6.173  0.4197  1.2665  0.2837
   90SAPC   O32 8557   4.796   4.207   6.269  0.7088  0.2522 -0.0259
   90SAPC   C32 8558   4.652   4.164   6.072 -0.1329 -0.6017  0.1939
   90SAPC   H2X 8559   4.694   4.189   5.972  0.5728  1.0302  0.8755
   90SAPC   H2Y 8560   4.546   4.198   6.079  0.4075  1.6406 -1.4868
   90SAPC   C23 8561   4.948   4.728   5.721 -0.1840 -0.9070 -0.2476
   90SAPC   H3R 8562   5.038   4.794   5.731 -1.0134  0.3561 -0.8139
   90SAPC   H3S 8563   4.895   4.775   5.636 -2.0633  0.8898  1.7764
   90SAPC   C24 8564   4.982   4.579   5.692  0.0216  0.2804  0.0047
   90SAPC   H4R 8565   4.889   4.519   5.700 -0.1667  0.7943  3.1892
   90SAPC   H4S 8566   5.043   4.538   5.775  0.6746 -1.1673 -1.1476
   90SAPC   C25 8567   5.045   4.565   5.552  0.3691 -0.0411 -0.1416
   90SAPC   H5R 8568   4.992   4.499   5.481  1.9376 -0.9982 -0.4839
   90SAPC   C26 8569   5.162   4.614   5.502  0.5116  0.0825 -0.0566
   90SAPC   H6R 8570   5.185   4.577   5.400  1.1700 -0.9062  0.4299
   90SAPC   C27 8571   5.268   4.698   5.559 -0.1978  0.2966 -0.0972
   90SAPC   H7R 8572   5.350   4.629   5.586 -1.8139 -2.0784 -0.9114
   90SAPC   H7S 8573   5.234   4.753   5.650  2.6530  0.2154  1.0943
   90SAPC   C28 8574   5.303   4.802   5.458 -0.1447  0.4908  0.1278
   90SAPC   H8R 8575   5.261   4.898   5.493 -0.4917  0.2683  0.3274
   90SAPC   C29 8576   5.374   4.783   5.342 -0.4106  0.3516  0.5295
   90SAPC   H9R 8577   5.389   4.872   5.280  1.2257 -0.2929 -0.0723
   90SAPC  C210 8578   5.433   4.655   5.293 -0.4019  1.0496  0.3427
   90SAPC  H10R 8579   5.361   4.603   5.226  0.7991 -0.4466  0.1554
   90SAPC  H10S 8580   5.457   4.583   5.374 -1.6695 -0.4076 -0.5100
   90SAPC  C211 8581   5.551   4.694   5.208 -0.4679 -0.2960 -0.0729
   90SAPC  H11R 8582   5.643   4.726   5.260  0.7197  1.9571 -3.2660
   90SAPC  C212 8583   5.551   4.690   5.070  0.1576  0.4359 -0.2989
   90SAPC  H12R 8584   5.645   4.721   5.022  0.5026 -0.7851 -0.4507
   90SAPC  C213 8585   5.444   4.653   4.965 -0.2038 -0.1397 -0.4551
   90SAPC  H13R 8586   5.408   4.747   4.918  1.4723  0.7206 -0.0987
   90SAPC  H13S 8587   5.350   4.614   5.008 -1.1820  2.3833 -0.1270
   90SAPC  C214 8588   5.501   4.559   4.867  0.7052 -0.5300 -0.0167
   90SAPC  H14R 8589   5.528   4.461   4.908  0.9305 -0.3313  0.3173
   90SAPC  C215 8590   5.536   4.581   4.737  0.1624 -0.5247 -0.2236
   90SAPC  H15R 8591   5.578   4.498   4.678  2.0178 -0.4907  0.9600
   90SAPC  C216 8592   5.519   4.716   4.660  0.1148  0.6124  0.2441
   90SAPC  H16R 8593   5.609   4.722   4.594  0.5307 -0.6075  0.6800
   90SAPC  H16S 8594   5.506   4.805   4.725 -0.4908 -0.6710  1.9426
   90SAPC  C217 8595   5.397   4.711   4.568  0.0324 -0.1441  0.1638
   90SAPC  H17R 8596   5.401   4.801   4.504  2.1149 -0.6216 -0.4486
   90SAPC  H17S 8597   5.308   4.700   4.634 -2.7427 -1.1177 -3.4378
   90SAPC  C218 8598   5.387   4.597   4.469  0.1003 -0.2800 -0.3853
   90SAPC  H18R 8599   5.289   4.603   4.416 -0.4210 -0.5557  0.5248
   90SAPC  H18S 8600   5.391   4.500   4.522  1.2214 -0.8773 -1.4963
   90SAPC  C219 8601   5.506   4.579   4.369  0.0325  0.0248  0.5934
   90SAPC  H19R 8602   5.594   4.546   4.429 -0.3836  1.1706  1.9084
   90SAPC  H19S 8603   5.531   4.678   4.326  0.3473  0.2072  1.1754
   90SAPC  C220 8604   5.469   4.473   4.258  0.1032  0.0274  0.5947
   90SAPC  H20R 8605   5.563   4.456   4.201 -0.4638 -0.7877 -0.1111
   90SAPC  H20S 8606   5.398   4.519   4.187 -0.5030  0.2657  1.3487
   90SAPC  H20T 8607   5.426   4.378   4.296 -0.0138 -0.8639 -1.6465
   90SAPC   C33 8608   4.660   4.015   6.096 -0.2803 -1.1896  0.0884
   90SAPC   H3X 8609   4.603   3.990   6.189  0.7214 -2.5830  0.3710
   90SAPC   H3Y 8610   4.767   3.996   6.119  0.4076  0.0865 -1.8895
   90SAPC   C34 8611   4.632   3.923   5.983 -0.1698 -0.2175  0.8618
   90SAPC   H4X 8612   4.645   3.816   6.010  0.3712 -0.3751  0.0308
   90SAPC   H4Y 8613   4.700   3.934   5.895 -0.9675 -0.1068  0.2427
   90SAPC   C35 8614   4.488   3.948   5.931 -0.1948 -0.3427  0.3893
   90SAPC   H5X 8615   4.477   4.037   5.865  1.2064  0.4134  1.1364
   90SAPC   H5Y 8616   4.425   3.981   6.016 -0.3240 -0.1658  0.2274
   90SAPC   C36 8617   4.438   3.829   5.841 -0.6523  0.0040 -0.0153
   90SAPC   H6X 8618   4.415   3.739   5.902 -0.0810  0.7384  1.3222
   90SAPC   H6Y 8619   4.519   3.810   5.767 -0.3301  2.7357 -0.4880
   90SAPC   C37 8620   4.310   3.867   5.766 -0.4598  0.6236  0.1888
   90SAPC   H7X 8621   4.312   3.973   5.731  1.6293 -0.0186 -1.8750
   90SAPC   H7Y 8622   4.229   3.862   5.842 -1.8722  1.6247 -1.1874
   90SAPC   C38 8623   4.277   3.776   5.655  1.0046  0.2040  0.7944
   90SAPC   H8X 8624   4.286   3.667   5.678 -0.5222 -0.2604 -0.6239
   90SAPC   H8Y 8625   4.353   3.796   5.576 -0.5406  0.4975 -0.6786
   90SAPC   C39 8626   4.134   3.803   5.600 -0.3312 -0.3018 -0.1184
   90SAPC   H9X 8627   4.142   3.906   5.558  1.3690  0.0691  1.0219
   90SAPC   H9Y 8628   4.074   3.794   5.693 -0.2955 -2.2382 -0.2550
   90SAPC  C310 8629   4.091   3.715   5.485  0.4294  0.4167  0.5251
   90SAPC  H10X 8630   3.983   3.728   5.464  0.8433  1.6190 -1.0243
   90SAPC  H10Y 8631   4.093   3.606   5.507  3.2078  0.3690  0.3474
   90SAPC  C311 8632   4.176   3.743   5.360  0.1392 -0.1965  0.2614
   90SAPC  H11X 8633   4.285   3.722   5.358  0.2660  0.4840 -1.0842
   90SAPC  H11Y 8634   4.164   3.851   5.336 -0.7500  0.2184  2.3801
   90SAPC  C312 8635   4.128   3.675   5.242 -0.8871 -0.1432  0.4692
   90SAPC  H12X 8636   4.177   3.719   5.152  0.5477  0.5281  1.5492
   90SAPC  H12Y 8637   4.019   3.689   5.226 -0.9634 -0.2482  0.9058
   90SAPC  C313 8638   4.171   3.528   5.231 -0.2092  0.1164 -0.1255
   90SAPC  H13X 8639   4.139   3.477   5.325  2.2727  1.3890  1.5082
   90SAPC  H13Y 8640   4.281   3.513   5.233 -0.3607 -1.0583  0.5717
   90SAPC  C314 8641   4.119   3.445   5.108  0.0592  2.1454 -0.5944
   90SAPC  H14X 8642   4.011   3.421   5.118  0.2816  1.5074  0.4733
   90SAPC  H14Y 8643   4.171   3.348   5.096  0.4748  2.4096 -0.9643
   90SAPC  C315 8644   4.144   3.512   4.970 -0.1064  0.4051  0.5661
   90SAPC  H15X 8645   4.250   3.517   4.937  0.1866 -2.7497  0.7329
   90SAPC  H15Y 8646   4.106   3.616   4.974 -0.6219  0.1867  1.5609
   90SAPC  C316 8647   4.050   3.444   4.870  0.1057 -0.0996 -0.7838
   90SAPC  H16X 8648   3.943   3.454   4.898  0.4141 -2.6206  1.8306
   90SAPC  H16Y 8649   4.060   3.333   4.871  2.1500  0.0405 -1.2043
   90SAPC  C317 8650   4.061   3.491   4.726 -0.7042 -0.4956  0.1401
   90SAPC  H17X 8651   4.059   3.405   4.657 -0.7514 -1.3397  1.1654
   90SAPC  H17Y 8652   4.162   3.537   4.728 -0.4463 -0.9534 -1.3893
   90SAPC  C318 8653   3.966   3.600   4.676  0.3819  0.2907  0.5994
   90SAPC  H18X 8654   3.981   3.684   4.747  0.3973 -0.6730  1.7760
   90SAPC  H18Y 8655   3.863   3.565   4.657  0.8856  0.0424 -2.1410
   90SAPC  H18Z 8656   4.007   3.632   4.578 -0.2059  0.9833  0.5734
   91SAPC     N 8657   0.313   5.141   6.744  0.0562  0.0977  0.1331
   91SAPC   C12 8658   0.303   5.130   6.593 -0.3855 -1.2427  0.5652
   91SAPC  H12A 8659   0.235   5.207   6.559  0.0060 -1.0654  0.1754
   91SAPC  H12B 8660   0.252   5.039   6.567 -0.4442 -0.9715 -0.3135
   91SAPC   C13 8661   0.172   5.157   6.809 -0.1799  0.8265  0.3446
   91SAPC  H13A 8662   0.121   5.062   6.800 -1.8521  1.8182 -1.3252
   91SAPC  H13B 8663   0.178   5.177   6.915 -0.7793 -1.1694  0.8135
   91SAPC  H13C 8664   0.109   5.233   6.767  0.0538  0.3170 -0.9749
   91SAPC   C14 8665   0.374   5.018   6.807 -0.6799  0.0941 -0.7667
   91SAPC  H14A 8666   0.369   5.026   6.915  0.7479 -0.8372 -0.5956
   91SAPC  H14B 8667   0.317   4.931   6.778 -1.5639  0.2317  0.4962
   91SAPC  H14C 8668   0.480   5.005   6.789 -0.5588 -3.8152  1.5759
   91SAPC   C15 8669   0.398   5.250   6.795  0.5208 -0.4371 -0.4608
   91SAPC  H15A 8670   0.392   5.245   6.903  0.6855  1.1082 -0.3606
   91SAPC  H15B 8671   0.501   5.229   6.773 -0.0230 -1.1539 -2.6256
   91SAPC  H15C 8672   0.366   5.343   6.751  2.4099  0.6779  0.4154
   91SAPC   C11 8673   0.444   5.143   6.515  0.4188  0.1302  0.7122
   91SAPC  H11A 8674   0.480   5.244   6.544  0.6151 -0.5790  3.1824
   91SAPC  H11B 8675   0.423   5.148   6.406 -2.0570  1.3862  1.1753
   91SAPC     P 8676   0.691   5.066   6.572  0.1459 -0.0028 -0.1276
   91SAPC   O13 8677   0.699   5.169   6.678 -0.0118  0.1482  0.8143
   91SAPC   O14 8678   0.759   4.939   6.600 -0.0874 -0.0007  0.1371
   91SAPC   O12 8679   0.541   5.040   6.546 -0.1203 -0.3904 -0.0509
   91SAPC   O11 8680   0.751   5.113   6.438 -0.5943 -0.2698 -0.3213
   91SAPC    C1 8681   0.726   5.039   6.323 -0.3743 -0.6623  0.2935
   91SAPC    HA 8682   0.691   4.934   6.332 -1.6103 -0.7940 -3.9686
   91SAPC    HB 8683   0.651   5.084   6.254 -1.1511 -1.3624  0.6666
   91SAPC    C2 8684   0.864   5.021   6.232  0.2424 -0.3313  0.0011
   91SAPC    HS 8685   0.951   4.994   6.296  0.2747 -1.8172 -0.6275
   91SAPC   O21 8686   0.877   5.147   6.167 -0.0756  0.1004  0.2075
   91SAPC   C21 8687   0.997   5.162   6.118 -0.0401 -0.2421 -0.4856
   91SAPC   O22 8688   1.099   5.089   6.138 -0.0830  0.1008 -0.4985
   91SAPC   C22 8689   1.000   5.293   6.042  0.0433 -0.6713 -0.3028
   91SAPC   H2R 8690   0.898   5.336   6.027  0.0788 -0.3971  0.2073
   91SAPC   H2S 8691   1.036   5.373   6.110  0.3717 -1.5364  0.5756
   91SAPC    C3 8692   0.844   4.904   6.135 -0.0743 -0.9252  0.1858
   91SAPC    HX 8693   0.789   4.826   6.192 -0.0383  0.5582  2.3386
   91SAPC    HY 8694   0.942   4.861   6.104 -1.0456 -1.2835 -2.6901
   91SAPC   O31 8695   0.758   4.944   6.024  0.7617 -0.1118 -0.2154
   91SAPC   C31 8696   0.810   4.946   5.908  0.1663  0.5078  0.0007
   91SAPC   O32 8697   0.917   4.894   5.882  0.4955 -0.2459 -0.2357
   91SAPC   C32 8698   0.719   5.029   5.816 -0.4052  0.5691  0.5657
   91SAPC   H2X 8699   0.734   5.138   5.830 -0.3250  0.7530 -0.8391
   91SAPC   H2Y 8700   0.613   4.998   5.825 -0.1130  0.1457  3.5225
   91SAPC   C23 8701   1.089   5.299   5.920 -1.1923  0.1950  0.1158
   91SAPC   H3R 8702   1.184   5.241   5.925 -1.1427  0.1690 -0.8873
   91SAPC   H3S 8703   1.116   5.405   5.903  1.2710 -0.1375  1.4267
   91SAPC   C24 8704   1.015   5.253   5.793  0.0921  0.7187  0.5253
   91SAPC   H4R 8705   0.970   5.152   5.806 -2.9351  1.9260  0.1806
   91SAPC   H4S 8706   1.097   5.241   5.719 -0.2219  1.2454  0.0865
   91SAPC   C25 8707   0.924   5.355   5.734  0.1257 -0.3598  0.3104
   91SAPC   H5R 8708   0.847   5.387   5.806 -0.3659 -0.0244 -0.3564
   91SAPC   C26 8709   0.924   5.402   5.607  0.1140  0.0992 -0.7163
   91SAPC   H6R 8710   0.846   5.476   5.583  1.7478  1.9849 -0.4445
   91SAPC   C27 8711   1.026   5.376   5.504  0.0335  0.1128 -0.0856
   91SAPC   H7R 8712   1.065   5.272   5.502 -1.4902 -0.4820 -1.1060
   91SAPC   H7S 8713   1.116   5.439   5.524  0.6833 -0.9973  0.6054
   91SAPC   C28 8714   0.992   5.413   5.365  0.5187  0.2311 -0.1722
   91SAPC   H8R 8715   0.884   5.416   5.342  0.4254 -1.3487 -0.0601
   91SAPC   C29 8716   1.070   5.432   5.259  0.1466 -0.5099  0.0290
   91SAPC   H9R 8717   1.028   5.453   5.159  1.1800 -0.8915 -0.5074
   91SAPC  C210 8718   1.220   5.434   5.274  0.1977  0.0748 -0.2758
   91SAPC  H10R 8719   1.265   5.425   5.376 -1.7630  2.1037  0.8565
   91SAPC  H10S 8720   1.250   5.533   5.233  1.2303 -0.4534 -0.8180
   91SAPC  C211 8721   1.277   5.325   5.191 -0.2317  0.2810  0.3554
   91SAPC  H11R 8722   1.245   5.224   5.219 -0.0222  0.2946  0.6437
   91SAPC  C212 8723   1.336   5.339   5.071  0.2210  0.2005 -0.6513
   91SAPC  H12R 8724   1.369   5.246   5.023 -2.1187 -2.1092  1.8724
   91SAPC  C213 8725   1.380   5.466   4.999  0.0479 -0.0514 -0.2551
   91SAPC  H13R 8726   1.331   5.560   5.033  0.0195  0.6452 -2.0746
   91SAPC  H13S 8727   1.346   5.454   4.894 -0.4973 -0.7118 -0.0100
   91SAPC  C214 8728   1.532   5.487   5.001 -0.1513  0.1767 -0.2671
   91SAPC  H14R 8729   1.576   5.455   5.096 -1.0756  1.7406  0.7254
   91SAPC  C215 8730   1.611   5.532   4.902 -0.0407  0.2266 -0.3490
   91SAPC  H15R 8731   1.716   5.539   4.933  0.3529 -0.0242 -1.5795
   91SAPC  C216 8732   1.565   5.593   4.769 -0.5273  1.1071 -0.1721
   91SAPC  H16R 8733   1.456   5.577   4.753 -0.7461  2.8188 -0.6746
   91SAPC  H16S 8734   1.612   5.551   4.678 -0.4083  1.3681 -0.2321
   91SAPC  C217 8735   1.593   5.748   4.774  0.5466 -0.0221  0.1578
   91SAPC  H17R 8736   1.704   5.758   4.777  0.3965  2.0972 -0.2461
   91SAPC  H17S 8737   1.548   5.789   4.867  0.8382  0.3622  0.1303
   91SAPC  C218 8738   1.539   5.823   4.649 -0.0749 -0.5146  0.5477
   91SAPC  H18R 8739   1.592   5.920   4.659 -1.1679  0.2011 -0.3193
   91SAPC  H18S 8740   1.431   5.848   4.658 -0.5686 -1.8103 -1.2691
   91SAPC  C219 8741   1.570   5.780   4.506 -0.2013 -0.0952 -0.0639
   91SAPC  H19R 8742   1.503   5.698   4.471  1.9123 -1.4045 -1.3009
   91SAPC  H19S 8743   1.673   5.739   4.492  0.0989 -0.7716  3.3484
   91SAPC  C220 8744   1.524   5.886   4.402  0.4651  0.0305 -0.5629
   91SAPC  H20R 8745   1.530   5.843   4.300  0.0043  0.3277 -0.7148
   91SAPC  H20S 8746   1.601   5.966   4.406  2.3612 -1.7306  1.0852
   91SAPC  H20T 8747   1.421   5.922   4.420  0.6006  0.9165 -1.4734
   91SAPC   C33 8748   0.760   5.019   5.662  0.4905  0.1169 -0.0987
   91SAPC   H3X 8749   0.744   4.914   5.628 -1.7335  0.6084 -0.7074
   91SAPC   H3Y 8750   0.870   5.036   5.663  0.1758  2.5195  1.8723
   91SAPC   C34 8751   0.682   5.110   5.571  0.2984  0.0373 -0.0667
   91SAPC   H4X 8752   0.708   5.216   5.591 -0.7883  0.3905 -0.4485
   91SAPC   H4Y 8753   0.572   5.099   5.588  0.4782 -0.2768  0.9580
   91SAPC   C35 8754   0.709   5.099   5.427  0.4638 -0.0919  1.0180
   91SAPC   H5X 8755   0.694   4.992   5.400  0.5620  0.7431 -2.8226
   91SAPC   H5Y 8756   0.818   5.115   5.416  0.7855 -1.1700  2.3218
   91SAPC   C36 8757   0.627   5.182   5.326  0.6206  0.5076  0.1776
   91SAPC   H6X 8758   0.649   5.290   5.339  1.3762  0.1912  1.7733
   91SAPC   H6Y 8759   0.520   5.161   5.348  0.3461 -0.5474 -1.9291
   91SAPC   C37 8760   0.659   5.141   5.185  0.5471  0.9948  0.7907
   91SAPC   H7X 8761   0.576   5.195   5.136 -0.9662 -1.0858  0.9409
   91SAPC   H7Y 8762   0.644   5.032   5.173 -2.1799  1.2771  1.1154
   91SAPC   C38 8763   0.792   5.187   5.132 -0.3781  0.8904 -0.5464
   91SAPC   H8X 8764   0.870   5.157   5.205 -1.7414  1.1460  1.0853
   91SAPC   H8Y 8765   0.778   5.296   5.146 -1.4643  0.6121  0.8654
   91SAPC   C39 8766   0.807   5.146   4.987 -0.1763 -0.1773  0.1581
   91SAPC   H9X 8767   0.747   5.222   4.934  0.4027  0.5920  0.5843
   91SAPC   H9Y 8768   0.766   5.045   4.966  1.0489 -1.0768  1.8951
   91SAPC  C310 8769   0.942   5.135   4.924 -0.7581 -0.1322 -0.0270
   91SAPC  H10X 8770   1.000   5.227   4.899 -0.7895  0.5015  2.0323
   91SAPC  H10Y 8771   0.936   5.092   4.822  2.6555 -1.6062  0.2526
   91SAPC  C311 8772   1.051   5.048   5.002  0.7196 -0.9581  0.0957
   91SAPC  H11X 8773   1.011   4.945   5.013  2.8465 -2.0020 -1.3420
   91SAPC  H11Y 8774   1.080   5.105   5.092 -0.7681 -1.7868  1.1321
   91SAPC  C312 8775   1.186   5.033   4.925 -0.0020  0.6185 -0.5159
   91SAPC  H12X 8776   1.227   5.127   4.884  0.4448 -0.6326 -3.1661
   91SAPC  H12Y 8777   1.179   4.976   4.829 -1.6131  1.4533 -0.9382
   91SAPC  C313 8778   1.285   4.951   5.019  0.2206 -0.3837 -0.4789
   91SAPC  H13X 8779   1.260   4.842   5.019  0.6780 -0.4911 -0.9310
   91SAPC  H13Y 8780   1.265   4.984   5.124  0.9909 -0.7867 -0.2008
   91SAPC  C314 8781   1.428   4.962   4.968 -0.9530 -0.7168 -0.1989
   91SAPC  H14X 8782   1.446   5.071   4.951 -4.0207  0.5622  3.3157
   91SAPC  H14Y 8783   1.451   4.909   4.873 -0.8410 -0.8672 -0.0888
   91SAPC  C315 8784   1.524   4.905   5.070  0.7080 -0.2044 -0.0718
   91SAPC  H15X 8785   1.516   4.794   5.063 -0.7748 -0.1853  0.7910
   91SAPC  H15Y 8786   1.490   4.920   5.175  0.0924  1.9806 -0.5237
   91SAPC  C316 8787   1.669   4.955   5.043  0.2509 -0.3450 -0.3931
   91SAPC  H16X 8788   1.673   5.059   5.083 -0.3051 -1.1812  2.0072
   91SAPC  H16Y 8789   1.685   4.958   4.933 -1.3937  0.6387 -0.6396
   91SAPC  C317 8790   1.747   4.858   5.127 -0.1617 -0.5226  0.0521
   91SAPC  H17X 8791   1.731   4.756   5.087 -0.5357 -1.0063  1.4195
   91SAPC  H17Y 8792   1.713   4.856   5.232  1.5921  1.9681  0.7802
   91SAPC  C318 8793   1.901   4.880   5.124  0.2001 -0.2807  0.5162
   91SAPC  H18X 8794   1.928   4.986   5.140  1.4972 -0.5220  0.0671
   91SAPC  H18Y 8795   1.940   4.848   5.026  0.6563 -2.1360  1.2587
   91SAPC  H18Z 8796   1.955   4.816   5.197  2.0906 -0.1558 -0.6979
   92SAPC     N 8797   1.123   3.086   6.825 -0.3881 -0.4239  0.2627
   92SAPC   C12 8798   1.125   3.006   6.693  0.3738  0.1113 -0.3069
   92SAPC  H12A 8799   1.051   2.928   6.705 -0.9446  1.4220  0.3270
   92SAPC  H12B 8800   1.223   2.963   6.677 -0.0780 -0.3018 -2.3039
   92SAPC   C13 8801   0.994   3.154   6.861 -0.1998  0.9649  0.2792
   92SAPC  H13A 8802   0.909   3.089   6.846  0.6200 -0.4241  1.3864
   92SAPC  H13B 8803   1.009   3.190   6.962  0.3190  1.7680 -0.0737
   92SAPC  H13C 8804   0.965   3.240   6.801 -1.7269  0.6398  0.5082
   92SAPC   C14 8805   1.164   2.991   6.935 -0.5562 -0.5678 -0.2894
   92SAPC  H14A 8806   1.097   2.906   6.941 -0.2537 -0.9155 -1.4615
   92SAPC  H14B 8807   1.259   2.941   6.930 -0.6543 -1.2043  2.4989
   92SAPC  H14C 8808   1.164   3.045   7.029  0.9271 -0.0375 -0.5683
   92SAPC   C15 8809   1.224   3.191   6.814  0.4367 -0.6459  0.2403
   92SAPC  H15A 8810   1.203   3.271   6.745 -1.3505 -1.7888 -0.6386
   92SAPC  H15B 8811   1.239   3.235   6.912 -1.3677 -2.5602  1.4789
   92SAPC  H15C 8812   1.324   3.161   6.787  0.9235  1.0339  0.0490
   92SAPC   C11 8813   1.074   3.064   6.558  0.0605 -0.7003  0.5313
   92SAPC  H11A 8814   1.074   2.992   6.473  1.1103 -0.1134  0.0059
   92SAPC  H11B 8815   1.139   3.147   6.521 -0.0590 -0.7576  0.1833
   92SAPC     P 8816   0.810   3.037   6.558  0.2031  0.4094 -0.3093
   92SAPC   O13 8817   0.816   2.935   6.666  0.4923 -0.5294 -0.1861
   92SAPC   O14 8818   0.695   3.130   6.567  0.2351 -0.3447  0.1298
   92SAPC   O12 8819   0.948   3.121   6.577 -0.0375  0.1275 -0.2981
   92SAPC   O11 8820   0.810   2.969   6.418 -1.0357  0.1532 -0.2301
   92SAPC    C1 8821   0.821   3.031   6.294  0.1581  0.9938  0.2194
   92SAPC    HA 8822   0.811   3.141   6.306 -0.7372  1.1636 -1.5790
   92SAPC    HB 8823   0.920   3.007   6.252  0.4519  1.9567  0.3230
   92SAPC    C2 8824   0.698   2.994   6.207 -0.2077  0.5485 -0.0297
   92SAPC    HS 8825   0.612   3.031   6.268 -0.5867  0.3381 -0.4299
   92SAPC   O21 8826   0.706   2.853   6.179 -0.8337 -0.2354 -1.0860
   92SAPC   C21 8827   0.596   2.790   6.164 -0.0638 -0.2992  0.0687
   92SAPC   O22 8828   0.479   2.822   6.174  0.2424 -0.3501  0.2525
   92SAPC   C22 8829   0.644   2.647   6.149  1.2132  0.8512  0.4132
   92SAPC   H2R 8830   0.753   2.626   6.162  0.7955 -1.2081  0.9415
   92SAPC   H2S 8831   0.604   2.591   6.236  0.8344  1.9917  0.9956
   92SAPC    C3 8832   0.687   3.083   6.075  0.4701 -0.0733 -0.2554
   92SAPC    HX 8833   0.771   3.040   6.016  0.4528 -0.0364 -0.3065
   92SAPC    HY 8834   0.714   3.189   6.094  0.7812  0.4257 -3.0428
   92SAPC   O31 8835   0.556   3.074   6.022  0.0746 -0.0946 -0.1177
   92SAPC   C31 8836   0.555   3.077   5.887 -0.2787 -0.3135 -1.4569
   92SAPC   O32 8837   0.651   3.102   5.821 -1.1061  0.1379 -0.4505
   92SAPC   C32 8838   0.411   3.032   5.856 -0.6462  0.4192 -0.0683
   92SAPC   H2X 8839   0.342   3.085   5.924 -0.7714 -0.5850  0.6063
   92SAPC   H2Y 8840   0.399   2.923   5.875 -1.8781  0.3828 -0.9505
   92SAPC   C23 8841   0.581   2.582   6.019 -0.5667  0.8373  0.2464
   92SAPC   H3R 8842   0.479   2.624   6.001 -1.7537 -1.3733  1.3732
   92SAPC   H3S 8843   0.565   2.476   6.050  1.5672  0.7786  1.3469
   92SAPC   C24 8844   0.665   2.600   5.897  0.1981 -0.2495 -0.6856
   92SAPC   H4R 8845   0.770   2.579   5.927 -0.1709 -0.5091  0.4398
   92SAPC   H4S 8846   0.670   2.709   5.875  0.5983  0.0600  0.8544
   92SAPC   C25 8847   0.627   2.529   5.778  0.2291  0.3140  0.2143
   92SAPC   H5R 8848   0.669   2.428   5.777  0.8014  0.5496 -0.3058
   92SAPC   C26 8849   0.563   2.566   5.662  0.2023  0.4739 -0.7593
   92SAPC   H6R 8850   0.540   2.490   5.586  0.6309  0.0331 -0.4549
   92SAPC   C27 8851   0.516   2.704   5.635 -0.0396  0.1915 -0.3619
   92SAPC   H7R 8852   0.502   2.754   5.734 -2.0989 -1.0986  0.0675
   92SAPC   H7S 8853   0.416   2.694   5.589 -0.5281 -2.8707  1.1292
   92SAPC   C28 8854   0.599   2.804   5.554 -0.3568  0.4923  0.4419
   92SAPC   H8R 8855   0.620   2.900   5.603  0.3729  2.0200 -2.6429
   92SAPC   C29 8856   0.654   2.790   5.431  0.0805 -0.0577  0.4913
   92SAPC   H9R 8857   0.726   2.866   5.395  1.0071 -0.7074  0.9355
   92SAPC  C210 8858   0.634   2.664   5.345 -0.0199 -0.5151 -0.4963
   92SAPC  H10R 8859   0.524   2.655   5.346 -0.0578 -0.0862  0.2674
   92SAPC  H10S 8860   0.679   2.582   5.405 -0.5888 -0.5053 -0.0530
   92SAPC  C211 8861   0.701   2.681   5.208 -0.2618 -0.3139 -0.2338
   92SAPC  H11R 8862   0.805   2.644   5.201 -0.2512 -0.3834  0.2472
   92SAPC  C212 8863   0.643   2.739   5.103  0.6369 -0.1548  0.0122
   92SAPC  H12R 8864   0.682   2.729   5.000  2.5187  1.6558  0.4785
   92SAPC  C213 8865   0.499   2.785   5.100 -0.1149  0.0671 -0.1915
   92SAPC  H13R 8866   0.507   2.895   5.102  0.0200  0.0724 -0.8213
   92SAPC  H13S 8867   0.442   2.755   5.190  1.6057 -0.8074  0.6486
   92SAPC  C214 8868   0.419   2.744   4.978 -0.6707  0.4200  0.6378
   92SAPC  H14R 8869   0.368   2.647   4.990  1.6676 -0.8236  1.1062
   92SAPC  C215 8870   0.414   2.800   4.855  0.4655 -0.5259 -0.6685
   92SAPC  H15R 8871   0.355   2.753   4.774 -0.8023 -0.5709  0.2386
   92SAPC  C216 8872   0.474   2.932   4.807 -0.6475  0.6802 -0.0568
   92SAPC  H16R 8873   0.497   2.998   4.893  0.4358  2.2431 -1.4905
   92SAPC  H16S 8874   0.400   2.986   4.745 -1.0199  0.2288 -0.0093
   92SAPC  C217 8875   0.612   2.909   4.731  0.6856 -0.0392 -0.4489
   92SAPC  H17R 8876   0.705   2.898   4.792  0.2207 -2.6222 -0.0871
   92SAPC  H17S 8877   0.632   3.003   4.676 -1.3682  0.8867  0.2938
   92SAPC  C218 8878   0.600   2.810   4.610 -0.6441  0.4171 -0.4773
   92SAPC  H18R 8879   0.562   2.719   4.660  0.4256  0.1562 -0.1030
   92SAPC  H18S 8880   0.697   2.803   4.555 -0.3051  0.1061  0.1493
   92SAPC  C219 8881   0.509   2.871   4.499  0.0159  0.6904  0.0698
   92SAPC  H19R 8882   0.548   2.974   4.481  0.2168  0.8525  1.3144
   92SAPC  H19S 8883   0.403   2.873   4.531 -0.1886 -1.2717 -0.3578
   92SAPC  C220 8884   0.506   2.793   4.370  0.2797  0.9624 -0.3838
   92SAPC  H20R 8885   0.497   2.682   4.380 -0.2436  1.1392  1.5774
   92SAPC  H20S 8886   0.602   2.809   4.316 -0.1166  0.3033 -1.3164
   92SAPC  H20T 8887   0.423   2.824   4.303  0.6077  1.1011 -0.7266
   92SAPC   C33 8888   0.354   3.055   5.715  0.4549  0.1755  0.0023
   92SAPC   H3X 8889   0.422   3.021   5.635 -0.9302 -1.5202 -0.5246
   92SAPC   H3Y 8890   0.344   3.166   5.710  1.2882  0.2485 -0.1778
   92SAPC   C34 8891   0.214   2.982   5.695 -0.1831 -0.5625 -0.7341
   92SAPC   H4X 8892   0.156   3.011   5.785  0.4528  0.8993 -0.7733
   92SAPC   H4Y 8893   0.231   2.872   5.700  1.7913 -0.3227 -1.1944
   92SAPC   C35 8894   0.128   3.017   5.572  0.0169  0.8406  0.1595
   92SAPC   H5X 8895   0.111   3.126   5.564  1.7374  1.0527 -1.2307
   92SAPC   H5Y 8896   0.031   2.965   5.588 -0.0616  0.9754  0.1184
   92SAPC   C36 8897   0.200   2.985   5.443 -0.4863  0.6231 -0.6365
   92SAPC   H6X 8898   0.259   2.892   5.452 -0.2486  0.5766 -2.3549
   92SAPC   H6Y 8899   0.283   3.059   5.442 -0.1866  0.5549  3.1940
   92SAPC   C37 8900   0.131   2.988   5.306 -0.1365  0.5177 -0.4820
   92SAPC   H7X 8901   0.040   2.928   5.325 -1.2468  1.6481 -1.9742
   92SAPC   H7Y 8902   0.190   2.945   5.222 -2.2383  2.3974 -3.0870
   92SAPC   C38 8903   0.093   3.135   5.263  0.2417  0.6527 -0.4370
   92SAPC   H8X 8904   0.182   3.201   5.264  0.6481  0.1426 -1.1468
   92SAPC   H8Y 8905   0.013   3.159   5.336 -0.8199  1.7015 -1.8825
   92SAPC   C39 8906   0.035   3.145   5.123 -0.2293 -0.3185  0.3432
   92SAPC   H9X 8907   0.035   3.253   5.096 -0.5787 -0.5283 -0.5617
   92SAPC   H9Y 8908  -0.073   3.120   5.135 -0.4844 -0.5016 -1.8001
   92SAPC  C310 8909   0.101   3.065   5.016  0.9266 -0.3659  0.7524
   92SAPC  H10X 8910   0.100   2.959   5.047 -0.2835 -1.0266 -1.3206
   92SAPC  H10Y 8911   0.207   3.094   5.003  0.4746  1.4535  0.7606
   92SAPC  C311 8912   0.023   3.063   4.881  0.1916 -0.7848 -0.4499
   92SAPC  H11X 8913  -0.068   3.000   4.890  0.8037 -1.7231 -0.6383
   92SAPC  H11Y 8914   0.084   3.006   4.807 -0.9691 -2.4720 -0.1637
   92SAPC  C312 8915  -0.017   3.206   4.843  0.5377  0.2343  0.6176
   92SAPC  H12X 8916   0.056   3.290   4.838 -0.0087  0.7010  0.4045
   92SAPC  H12Y 8917  -0.085   3.244   4.922 -1.0732  0.4796 -0.8288
   92SAPC  C313 8918  -0.097   3.206   4.710  0.2643 -0.2139  0.6404
   92SAPC  H13X 8919  -0.190   3.145   4.714  0.0201  0.2112  2.4575
   92SAPC  H13Y 8920  -0.028   3.175   4.629 -2.3893 -1.0576 -1.4462
   92SAPC  C314 8921  -0.145   3.353   4.682 -0.1553  0.1068 -0.2693
   92SAPC  H14X 8922  -0.074   3.432   4.714 -1.6007  0.5752  2.0138
   92SAPC  H14Y 8923  -0.234   3.375   4.745  0.0586  2.4743 -0.7035
   92SAPC  C315 8924  -0.191   3.380   4.538  0.4853  0.7745  0.4373
   92SAPC  H15X 8925  -0.257   3.295   4.511  0.2608  1.5884 -1.7401
   92SAPC  H15Y 8926  -0.109   3.380   4.463  1.3941  1.7428  1.3927
   92SAPC  C316 8927  -0.250   3.514   4.512 -0.0917  0.8095 -0.3216
   92SAPC  H16X 8928  -0.171   3.592   4.512  2.2430 -1.4030 -0.0898
   92SAPC  H16Y 8929  -0.314   3.531   4.601  0.0138  0.9382 -0.2709
   92SAPC  C317 8930  -0.326   3.516   4.379 -0.4061 -0.8974 -0.1393
   92SAPC  H17X 8931  -0.371   3.417   4.356  1.8165 -1.8427 -0.6001
   92SAPC  H17Y 8932  -0.248   3.530   4.301  1.8376 -2.2059  1.7423
   92SAPC  C318 8933  -0.432   3.630   4.372  0.3721  0.2942  0.3283
   92SAPC  H18X 8934  -0.434   3.672   4.269 -0.2507  0.5122  0.4250
   92SAPC  H18Y 8935  -0.410   3.714   4.441 -1.7612  1.3125 -0.1459
   92SAPC  H18Z 8936  -0.534   3.595   4.398  0.6109 -0.4144  0.3377
   93SAPC     N 8937   3.250   4.999   7.150 -0.0968 -0.3367 -0.6784
   93SAPC   C12 8938   3.340   4.970   7.029 -0.1244 -0.3910 -0.6284
   93SAPC  H12A 8939   3.437   4.955   7.074  0.1015  0.3474 -0.8533
   93SAPC  H12B 8940   3.342   5.056   6.963 -2.0940  0.2675  0.0738
   93SAPC   C13 8941   3.266   4.890   7.252 -0.1808 -0.1747 -0.3827
   93SAPC  H13A 8942   3.368   4.889   7.288 -0.6057  0.3676  0.8945
   93SAPC  H13B 8943   3.209   4.919   7.340 -0.0153 -1.7388  0.2872
   93SAPC  H13C 8944   3.220   4.803   7.207 -0.2739 -0.6285  0.5448
   93SAPC   C14 8945   3.288   5.123   7.229  0.3567 -0.1726 -0.0673
   93SAPC  H14A 8946   3.394   5.134   7.247  0.1333 -1.9308  3.1770
   93SAPC  H14B 8947   3.244   5.204   7.172 -0.5260  0.5211  1.5234
   93SAPC  H14C 8948   3.240   5.126   7.326  0.7347  0.0757  0.1131
   93SAPC   C15 8949   3.111   5.004   7.108  0.4832 -0.3428  0.4274
   93SAPC  H15A 8950   3.088   4.917   7.048 -0.0146 -0.5419  0.8990
   93SAPC  H15B 8951   3.043   5.013   7.191 -0.6055 -0.3290 -0.4401
   93SAPC  H15C 8952   3.106   5.085   7.036 -0.0941  0.1770  1.0356
   93SAPC   C11 8953   3.315   4.854   6.934 -0.6658  0.3342  0.5426
   93SAPC  H11A 8954   3.315   4.769   7.006  1.7141 -0.0113  0.2006
   93SAPC  H11B 8955   3.402   4.843   6.866 -0.3656 -0.6796  1.0629
   93SAPC     P 8956   3.114   4.747   6.813  0.1881  0.1775  0.0392
   93SAPC   O13 8957   3.101   4.652   6.930  0.0402 -0.3406 -0.8856
   93SAPC   O14 8958   2.980   4.804   6.774 -0.3359  0.1991 -0.3042
   93SAPC   O12 8959   3.201   4.872   6.852  0.1519 -0.4541 -0.2371
   93SAPC   O11 8960   3.179   4.676   6.688 -0.0513  0.1308 -0.1630
   93SAPC    C1 8961   3.246   4.758   6.588 -0.0337  0.6327 -0.5566
   93SAPC    HA 8962   3.274   4.861   6.619  2.2255  0.5213 -1.9755
   93SAPC    HB 8963   3.345   4.708   6.577  0.3468  0.8154  1.5899
   93SAPC    C2 8964   3.188   4.779   6.448  0.2691 -0.1064 -0.8690
   93SAPC    HS 8965   3.102   4.847   6.467  1.4656  1.0394  0.7091
   93SAPC   O21 8966   3.139   4.648   6.407  0.1276 -1.0001 -0.1703
   93SAPC   C21 8967   3.023   4.641   6.329  0.1549 -0.0948  0.8701
   93SAPC   O22 8968   2.955   4.738   6.294  0.2651 -0.1168 -0.6995
   93SAPC   C22 8969   2.989   4.499   6.297 -0.3714 -0.1968  0.1399
   93SAPC   H2R 8970   3.022   4.432   6.379 -1.2625  0.7608  1.3276
   93SAPC   H2S 8971   2.878   4.486   6.294 -0.2808 -0.9449 -0.2875
   93SAPC    C3 8972   3.295   4.853   6.350  0.3837  0.1896 -0.8759
   93SAPC    HX 8973   3.384   4.788   6.359  0.2614  0.1582  0.3637
   93SAPC    HY 8974   3.328   4.952   6.388  1.3621 -0.2603 -0.5199
   93SAPC   O31 8975   3.246   4.854   6.216  0.3148 -0.1809  0.0010
   93SAPC   C31 8976   3.266   4.964   6.144  0.3521  0.7807  0.0353
   93SAPC   O32 8977   3.301   5.074   6.182  0.1713 -0.7270  0.4354
   93SAPC   C32 8978   3.232   4.913   6.003 -0.0467 -0.0956  0.4618
   93SAPC   H2X 8979   3.127   4.878   5.997  0.6061 -1.8183 -2.9577
   93SAPC   H2Y 8980   3.293   4.826   5.970 -2.0514 -1.9199  1.3225
   93SAPC   C23 8981   3.069   4.454   6.173  0.2307  0.8290 -0.6251
   93SAPC   H3R 8982   3.014   4.464   6.077 -1.3055  3.5759  0.4199
   93SAPC   H3S 8983   3.088   4.345   6.184  0.8954  0.8061 -1.8622
   93SAPC   C24 8984   3.212   4.508   6.147 -0.9120  0.1823  0.0972
   93SAPC   H4R 8985   3.266   4.511   6.244  2.9404  2.4597 -1.8778
   93SAPC   H4S 8986   3.206   4.618   6.134  0.5199  0.3996  1.0723
   93SAPC   C25 8987   3.275   4.429   6.034 -0.2547 -0.3834  0.4122
   93SAPC   H5R 8988   3.291   4.324   6.060  0.2361 -0.0880  1.3154
   93SAPC   C26 8989   3.257   4.463   5.904  0.3897 -0.9490  0.2027
   93SAPC   H6R 8990   3.280   4.385   5.830 -0.0874 -1.1801  0.2951
   93SAPC   C27 8991   3.202   4.599   5.857 -0.3076 -0.4004 -0.1006
   93SAPC   H7R 8992   3.272   4.637   5.779 -1.0494 -0.1934 -0.6705
   93SAPC   H7S 8993   3.195   4.670   5.943 -1.8542 -1.3211  0.5630
   93SAPC   C28 8994   3.063   4.579   5.807  0.8275  0.7444 -0.2887
   93SAPC   H8R 8995   2.999   4.545   5.890 -0.3697  0.3351 -1.3434
   93SAPC   C29 8996   3.017   4.582   5.680  0.5782  0.1981  1.1346
   93SAPC   H9R 8997   2.909   4.573   5.659  1.0853  1.7810 -3.2280
   93SAPC  C210 8998   3.097   4.617   5.558  0.3751  0.4825  0.3094
   93SAPC  H10R 8999   3.115   4.526   5.497 -2.0545  0.6871 -0.7859
   93SAPC  H10S 9000   3.199   4.648   5.590  1.3753 -0.6119 -1.5869
   93SAPC  C211 9001   3.035   4.725   5.469  1.0133 -0.2654 -0.2944
   93SAPC  H11R 9002   2.937   4.759   5.508  1.1123 -1.1918  0.8260
   93SAPC  C212 9003   3.090   4.777   5.357  0.2627 -0.2246  0.3293
   93SAPC  H12R 9004   3.032   4.852   5.301  0.0098  0.3351  1.3189
   93SAPC  C213 9005   3.226   4.741   5.308  1.0419 -0.4208 -0.0688
   93SAPC  H13R 9006   3.273   4.678   5.386 -0.1184 -0.3410  0.7154
   93SAPC  H13S 9007   3.285   4.833   5.288 -0.0116  0.1041 -0.8832
   93SAPC  C214 9008   3.212   4.648   5.186  0.0636  0.1415 -0.1653
   93SAPC  H14R 9009   3.160   4.554   5.208 -1.2861  0.2870 -2.4471
   93SAPC  C215 9010   3.266   4.660   5.057 -0.3557 -0.0613  0.3184
   93SAPC  H15R 9011   3.246   4.589   4.975  0.7115  2.6316 -2.5115
   93SAPC  C216 9012   3.334   4.780   4.993 -0.0922 -0.4353  0.7257
   93SAPC  H16R 9013   3.349   4.862   5.067  2.7665  1.2563 -1.5326
   93SAPC  H16S 9014   3.269   4.827   4.916 -0.5385 -3.4967 -0.9106
   93SAPC  C217 9015   3.477   4.746   4.937 -0.2671 -0.4854 -0.0349
   93SAPC  H17R 9016   3.525   4.837   4.895 -2.7787  0.5559 -0.8502
   93SAPC  H17S 9017   3.476   4.670   4.855  0.0696  0.7307 -1.1937
   93SAPC  C218 9018   3.561   4.687   5.047  0.2335 -0.1209 -0.0724
   93SAPC  H18R 9019   3.515   4.588   5.068 -4.7992  0.9372 -4.0599
   93SAPC  H18S 9020   3.554   4.756   5.134  0.4809  0.6619 -0.6645
   93SAPC  C219 9021   3.703   4.686   5.003  0.0696 -0.3409 -0.0158
   93SAPC  H19R 9022   3.735   4.792   4.993 -1.3076 -0.1029 -2.8198
   93SAPC  H19S 9023   3.715   4.645   4.901 -0.8376  2.8305 -1.5236
   93SAPC  C220 9024   3.800   4.612   5.092  0.1884 -0.3346 -0.5750
   93SAPC  H20R 9025   3.891   4.674   5.081  1.8776 -2.5722 -0.0121
   93SAPC  H20S 9026   3.812   4.505   5.065  0.5889 -0.2870 -0.5903
   93SAPC  H20T 9027   3.762   4.612   5.197 -0.7844 -2.9332 -0.8406
   93SAPC   C33 9028   3.247   5.020   5.890  0.1984  0.4071  0.0371
   93SAPC   H3X 9029   3.348   5.065   5.904  0.2832 -0.4531  2.7981
   93SAPC   H3Y 9030   3.183   5.111   5.887  2.5505  2.1497 -0.0810
   93SAPC   C34 9031   3.244   4.963   5.748  0.1956  0.0681 -0.1153
   93SAPC   H4X 9032   3.140   4.957   5.712  0.4313  1.4096 -1.1120
   93SAPC   H4Y 9033   3.294   4.864   5.751 -0.2886 -0.1587  2.1874
   93SAPC   C35 9034   3.327   5.052   5.646  0.4475 -0.0461 -0.3723
   93SAPC   H5X 9035   3.425   5.054   5.697  0.1223 -0.1163  0.2735
   93SAPC   H5Y 9036   3.275   5.149   5.635  1.9774  0.8273 -0.0539
   93SAPC   C36 9037   3.361   4.991   5.517  0.1554 -0.0590 -1.0736
   93SAPC   H6X 9038   3.265   4.969   5.466 -1.0508  1.5104  0.3982
   93SAPC   H6Y 9039   3.430   4.905   5.533  1.6667  1.1418 -0.8660
   93SAPC   C37 9040   3.450   5.088   5.436  0.3991 -0.5011  0.0763
   93SAPC   H7X 9041   3.507   5.155   5.504 -0.5461  0.6005 -0.1776
   93SAPC   H7Y 9042   3.382   5.156   5.380  0.1513 -0.3145  0.5979
   93SAPC   C38 9043   3.543   5.023   5.331 -0.0525  0.3076  0.3267
   93SAPC   H8X 9044   3.490   4.949   5.267 -0.1498  0.4343  0.2593
   93SAPC   H8Y 9045   3.628   4.979   5.388  0.6191  0.0553 -0.8245
   93SAPC   C39 9046   3.603   5.121   5.228  0.6251  0.4891 -0.9650
   93SAPC   H9X 9047   3.656   5.192   5.296 -3.3292  1.8638  1.0428
   93SAPC   H9Y 9048   3.527   5.176   5.168  0.0955 -0.4067 -1.1333
   93SAPC  C310 9049   3.703   5.061   5.133 -0.1791 -0.2248  0.4307
   93SAPC  H10X 9050   3.660   4.982   5.068 -0.0774  1.5011 -1.8445
   93SAPC  H10Y 9051   3.790   5.014   5.185  2.1825 -0.7558 -3.5827
   93SAPC  C311 9052   3.758   5.173   5.037 -0.1585 -0.0741  0.1944
   93SAPC  H11X 9053   3.809   5.248   5.100  1.3657 -0.7984 -0.1485
   93SAPC  H11Y 9054   3.675   5.226   4.983  0.2506  1.8407  1.3484
   93SAPC  C312 9055   3.857   5.116   4.933 -0.6950  0.1726 -0.3479
   93SAPC  H12X 9056   3.920   5.035   4.975 -0.1014 -0.3747 -2.1917
   93SAPC  H12Y 9057   3.938   5.186   4.903 -0.1249  0.4957  1.8283
   93SAPC  C313 9058   3.796   5.061   4.809  0.5377 -0.1741  0.3586
   93SAPC  H13X 9059   3.795   5.145   4.737  1.8494 -0.5103 -0.0746
   93SAPC  H13Y 9060   3.692   5.025   4.828  0.6707 -1.0850 -0.5229
   93SAPC  C314 9061   3.878   4.941   4.755  0.3261 -0.5546  0.4374
   93SAPC  H14X 9062   3.881   4.855   4.826  1.3080 -0.9079 -0.0104
   93SAPC  H14Y 9063   3.980   4.984   4.741  0.0124  0.0159 -0.1619
   93SAPC  C315 9064   3.813   4.886   4.623 -0.1305  0.0532 -0.2441
   93SAPC  H15X 9065   3.815   4.973   4.554 -0.0311 -0.0784 -0.4082
   93SAPC  H15Y 9066   3.710   4.857   4.654  0.1294  0.2040  0.8325
   93SAPC  C316 9067   3.879   4.758   4.562  1.0583 -0.9101 -0.0106
   93SAPC  H16X 9068   3.988   4.777   4.552  1.0864 -1.0918 -0.0528
   93SAPC  H16Y 9069   3.838   4.757   4.458 -1.3545  1.6473  0.7963
   93SAPC  C317 9070   3.854   4.622   4.629  0.6244 -0.0706  0.0775
   93SAPC  H17X 9071   3.748   4.590   4.639  0.7680  0.0886  3.7417
   93SAPC  H17Y 9072   3.887   4.626   4.735  1.9440 -0.0754 -0.3230
   93SAPC  C318 9073   3.917   4.503   4.558 -0.4877  0.6995 -0.0854
   93SAPC  H18X 9074   4.027   4.515   4.560 -0.3995  0.0308 -0.6451
   93SAPC  H18Y 9075   3.892   4.498   4.450  1.1188  0.1952 -0.4607
   93SAPC  H18Z 9076   3.895   4.409   4.613 -1.9675  1.7142  1.1688
   94SAPC     N 9077   1.966   3.963   6.966 -0.8161 -0.0551  0.1760
   94SAPC   C12 9078   1.997   3.823   6.898 -0.1443 -0.5646 -0.6909
   94SAPC  H12A 9079   1.902   3.770   6.893 -1.5281  1.4070  2.1483
   94SAPC  H12B 9080   2.058   3.774   6.972 -0.5890 -0.8500 -0.5105
   94SAPC   C13 9081   1.870   3.957   7.082 -0.1299 -0.1556 -0.2819
   94SAPC  H13A 9082   1.920   3.879   7.137 -0.5582  0.0542  0.4099
   94SAPC  H13B 9083   1.865   4.050   7.137  1.3825 -0.6493  0.7492
   94SAPC  H13C 9084   1.772   3.921   7.056  0.5266 -0.5173 -2.4993
   94SAPC   C14 9085   2.088   4.021   7.030 -0.8223 -0.1899 -0.0737
   94SAPC  H14A 9086   2.146   3.959   7.097  1.7132  2.4480  0.3813
   94SAPC  H14B 9087   2.157   4.063   6.958 -0.5056  0.3084  0.5203
   94SAPC  H14C 9088   2.057   4.104   7.091 -1.6894  0.7822 -1.7676
   94SAPC   C15 9089   1.921   4.064   6.866  0.3696 -0.3632  0.4018
   94SAPC  H15A 9090   2.005   4.088   6.802 -0.7951  1.2398 -0.6388
   94SAPC  H15B 9091   1.847   4.024   6.799  0.9872  0.4079 -0.7865
   94SAPC  H15C 9092   1.900   4.154   6.922  0.1656  0.2963 -0.6952
   94SAPC   C11 9093   2.069   3.802   6.756  0.0590 -0.0294 -0.5072
   94SAPC  H11A 9094   2.086   3.693   6.749 -0.3394 -0.1522  0.3076
   94SAPC  H11B 9095   2.167   3.854   6.765  0.8491 -1.1016 -2.2853
   94SAPC     P 9096   1.868   3.808   6.584  0.0288  0.0595  0.4645
   94SAPC   O13 9097   1.795   3.720   6.674  0.1346 -0.7816 -0.5140
   94SAPC   O14 9098   1.802   3.930   6.533  0.2780  0.0880 -0.0963
   94SAPC   O12 9099   2.009   3.855   6.642 -0.1819  0.2539 -0.1831
   94SAPC   O11 9100   1.891   3.720   6.449  0.3430 -0.0927  0.3232
   94SAPC    C1 9101   2.012   3.644   6.450 -0.7625 -0.5038  0.4212
   94SAPC    HA 9102   2.044   3.601   6.547  0.4886 -1.0781 -0.2262
   94SAPC    HB 9103   2.003   3.557   6.382  1.1760  0.0601 -0.6553
   94SAPC    C2 9104   2.136   3.725   6.386 -0.2036  1.2792 -0.7241
   94SAPC    HS 9105   2.138   3.813   6.454  0.5869  0.0472  0.9002
   94SAPC   O21 9106   2.097   3.764   6.249 -0.1899 -0.7279 -0.2391
   94SAPC   C21 9107   2.114   3.893   6.230  0.0547 -0.2078 -0.2998
   94SAPC   O22 9108   2.169   3.970   6.304  0.7419 -0.6799  0.2088
   94SAPC   C22 9109   2.043   3.922   6.095 -0.2165 -0.6918 -0.3980
   94SAPC   H2R 9110   2.026   3.829   6.036 -4.6557  0.9302 -2.1376
   94SAPC   H2S 9111   1.936   3.947   6.114  0.2846  0.9573  0.4200
   94SAPC    C3 9112   2.273   3.649   6.398  0.3258  0.0273 -0.0638
   94SAPC    HX 9113   2.247   3.547   6.365  2.7425 -0.4222 -0.7747
   94SAPC    HY 9114   2.292   3.646   6.508  0.8844 -1.0124 -0.1828
   94SAPC   O31 9115   2.369   3.702   6.307  0.0466  0.3088 -0.0012
   94SAPC   C31 9116   2.479   3.738   6.366  0.3582  1.1044 -0.1547
   94SAPC   O32 9117   2.504   3.707   6.481 -0.9937 -0.3148 -0.2956
   94SAPC   C32 9118   2.561   3.823   6.276 -0.5732 -0.0456 -0.4841
   94SAPC   H2X 9119   2.507   3.916   6.248  1.4575  1.2459 -0.3576
   94SAPC   H2Y 9120   2.587   3.775   6.179  0.5220  0.7627 -0.6139
   94SAPC   C23 9121   2.100   4.040   6.013  0.2956  0.1701 -0.3809
   94SAPC   H3R 9122   2.208   4.023   5.992  0.2316 -1.1814  0.3397
   94SAPC   H3S 9123   2.096   4.133   6.073  0.5082  0.2967 -0.5614
   94SAPC   C24 9124   2.026   4.085   5.885 -0.3912 -0.0673  0.0572
   94SAPC   H4R 9125   2.062   4.187   5.858 -1.3039  0.1620 -0.3687
   94SAPC   H4S 9126   1.917   4.101   5.902 -0.4371  2.6200 -1.9130
   94SAPC   C25 9127   2.048   3.982   5.775  0.1005  0.1200  0.2392
   94SAPC   H5R 9128   2.022   3.877   5.797  0.9885  0.1550  1.6298
   94SAPC   C26 9129   2.088   4.006   5.651 -0.3537  0.2007 -0.4367
   94SAPC   H6R 9130   2.087   3.920   5.581 -1.6618  0.4508 -0.7474
   94SAPC   C27 9131   2.120   4.138   5.600  0.5980 -0.2127 -0.0647
   94SAPC   H7R 9132   2.167   4.129   5.499 -0.3430  0.1958 -0.5496
   94SAPC   H7S 9133   2.206   4.183   5.654  0.6629 -0.7929  0.3144
   94SAPC   C28 9134   2.008   4.243   5.582 -0.6951  0.1296 -0.2468
   94SAPC   H8R 9135   1.946   4.236   5.673 -0.3379 -0.7993 -0.0641
   94SAPC   C29 9136   1.972   4.311   5.470  0.1746  0.8362  0.1365
   94SAPC   H9R 9137   1.887   4.380   5.474 -2.2115 -1.8153 -1.6098
   94SAPC  C210 9138   2.050   4.314   5.341  0.7705  0.6056 -0.0139
   94SAPC  H10R 9139   2.036   4.216   5.290 -1.5841 -0.1278  1.8886
   94SAPC  H10S 9140   2.159   4.316   5.363  1.1580 -2.6747 -1.0927
   94SAPC  C211 9141   2.008   4.438   5.267 -0.0835 -0.4354 -0.2659
   94SAPC  H11R 9142   1.968   4.524   5.322  0.4680  0.9566 -1.9345
   94SAPC  C212 9143   2.017   4.459   5.135  0.2072  0.4112  0.2250
   94SAPC  H12R 9144   1.986   4.549   5.081  1.0131  0.0052 -0.9733
   94SAPC  C213 9145   2.060   4.348   5.033  0.1505 -0.5836  0.1832
   94SAPC  H13R 9146   2.055   4.248   5.083 -3.1137 -0.5419  0.1838
   94SAPC  H13S 9147   2.166   4.360   5.005 -0.4187  1.2030 -1.4030
   94SAPC  C214 9148   1.982   4.344   4.903 -0.2841 -0.8825 -0.8271
   94SAPC  H14R 9149   1.908   4.262   4.903  1.3899 -2.4906  0.5111
   94SAPC  C215 9150   1.999   4.421   4.792 -0.6542  0.6957  0.5767
   94SAPC  H15R 9151   1.933   4.396   4.707  2.7160  0.1782 -2.1077
   94SAPC  C216 9152   2.106   4.528   4.766 -0.0343 -0.3106  0.2180
   94SAPC  H16R 9153   2.144   4.506   4.664 -0.3363 -5.0975  0.9340
   94SAPC  H16S 9154   2.187   4.515   4.841 -2.0773  0.2469  2.6518
   94SAPC  C217 9155   2.037   4.668   4.791  0.1761 -0.2634 -0.2884
   94SAPC  H17R 9156   2.110   4.741   4.830  1.7445 -2.1296  0.4248
   94SAPC  H17S 9157   1.956   4.663   4.867  0.1103 -0.8426 -0.3867
   94SAPC  C218 9158   1.965   4.702   4.661 -0.3531  0.8605 -0.8583
   94SAPC  H18R 9159   1.909   4.612   4.629  1.0060 -1.1531  1.9687
   94SAPC  H18S 9160   2.040   4.729   4.584 -1.5159  4.6620 -0.8589
   94SAPC  C219 9161   1.878   4.828   4.656  0.4930  0.6030  0.8260
   94SAPC  H19R 9162   1.800   4.813   4.734  1.2129 -0.2111  1.4196
   94SAPC  H19S 9163   1.822   4.832   4.560  0.9310 -2.4188  0.3272
   94SAPC  C220 9164   1.948   4.966   4.684  0.0775  1.3909 -0.1341
   94SAPC  H20R 9165   2.025   4.977   4.604 -0.1063  0.9862 -0.3735
   94SAPC  H20S 9166   2.002   4.952   4.780  2.2622  1.7283 -1.2497
   94SAPC  H20T 9167   1.876   5.050   4.690 -1.6663  0.0363 -1.0958
   94SAPC   C33 9168   2.700   3.862   6.343 -0.1062  0.3657  0.4350
   94SAPC   H3X 9169   2.767   3.774   6.348  0.0792  0.5712  2.3110
   94SAPC   H3Y 9170   2.682   3.900   6.446  0.8629  0.8905  0.4190
   94SAPC   C34 9171   2.766   3.977   6.263 -0.5905  0.2865 -0.1131
   94SAPC   H4X 9172   2.856   4.002   6.323  0.0645 -0.2156 -0.8676
   94SAPC   H4Y 9173   2.689   4.058   6.264 -0.1596  0.7029 -0.2223
   94SAPC   C35 9174   2.800   3.946   6.115  0.1186  0.4679 -0.5314
   94SAPC   H5X 9175   2.715   3.912   6.053  0.1227 -0.6594  0.0458
   94SAPC   H5Y 9176   2.876   3.866   6.130 -0.3740  0.1926  0.6961
   94SAPC   C36 9177   2.858   4.069   6.036 -0.2262 -0.2081 -1.3208
   94SAPC   H6X 9178   2.937   4.117   6.099 -0.6324  1.0300 -1.7352
   94SAPC   H6Y 9179   2.790   4.157   6.033  0.5240  0.3778 -1.5559
   94SAPC   C37 9180   2.896   4.037   5.893 -0.6303 -0.9029  0.1626
   94SAPC   H7X 9181   2.807   3.991   5.845 -2.1323  3.5091 -1.8930
   94SAPC   H7Y 9182   2.974   3.959   5.881  1.2149  0.6422  1.4226
   94SAPC   C38 9183   2.935   4.165   5.809  0.2859  0.1751  0.1185
   94SAPC   H8X 9184   3.030   4.201   5.853  0.1080 -0.8956  1.4469
   94SAPC   H8Y 9185   2.848   4.234   5.817 -0.7550 -1.0113 -0.6310
   94SAPC   C39 9186   2.971   4.115   5.673 -0.4978 -0.0672  0.1940
   94SAPC   H9X 9187   2.880   4.082   5.618  0.9168 -1.9650 -1.1487
   94SAPC   H9Y 9188   3.025   4.018   5.673  1.6848  1.0717 -0.3637
   94SAPC  C310 9189   3.064   4.218   5.599 -0.7728 -0.2692  0.2342
   94SAPC  H10X 9190   3.151   4.251   5.659  0.7318 -0.8023 -1.5411
   94SAPC  H10Y 9191   3.025   4.306   5.544  0.9956  0.0072 -0.6552
   94SAPC  C311 9192   3.140   4.149   5.486 -0.7127 -0.0912 -0.3256
   94SAPC  H11X 9193   3.189   4.056   5.523 -0.7374  0.1230  0.2694
   94SAPC  H11Y 9194   3.228   4.209   5.458 -0.8370 -0.0632 -0.6533
   94SAPC  C312 9195   3.059   4.127   5.356 -0.6506  0.2908 -0.8231
   94SAPC  H12X 9196   2.953   4.098   5.372  0.3588 -2.5878  1.5920
   94SAPC  H12Y 9197   3.112   4.042   5.308  0.4967  1.3799 -1.5637
   94SAPC  C313 9198   3.069   4.243   5.260 -0.3071 -0.4974 -0.1159
   94SAPC  H13X 9199   3.176   4.272   5.262 -0.2244 -0.8212  0.1597
   94SAPC  H13Y 9200   3.022   4.334   5.305 -1.1884 -0.1328 -1.6933
   94SAPC  C314 9201   3.017   4.202   5.122  0.2933  0.6767  0.4023
   94SAPC  H14X 9202   2.908   4.182   5.128  0.2506  0.1254 -1.6066
   94SAPC  H14Y 9203   3.066   4.108   5.090  0.1085  1.4514 -2.4501
   94SAPC  C315 9204   3.053   4.313   5.019 -0.4687 -0.3323 -0.4096
   94SAPC  H15X 9205   3.161   4.321   4.998 -0.7384  0.3792 -1.6334
   94SAPC  H15Y 9206   3.021   4.416   5.046  3.1926  0.7024  0.4784
   94SAPC  C316 9207   2.981   4.269   4.884 -0.6904  0.2357 -0.0783
   94SAPC  H16X 9208   2.872   4.251   4.892 -0.3915 -1.2569  1.0192
   94SAPC  H16Y 9209   3.022   4.170   4.855 -0.6990  0.0879  0.4062
   94SAPC  C317 9210   3.000   4.364   4.765 -0.2187  0.3881  0.1985
   94SAPC  H17X 9211   2.968   4.312   4.672 -0.3704 -0.0617  0.4966
   94SAPC  H17Y 9212   3.107   4.392   4.764  0.0014 -0.3890  0.6592
   94SAPC  C318 9213   2.925   4.501   4.772 -0.3697  0.2435 -0.0337
   94SAPC  H18X 9214   2.817   4.475   4.771 -0.3520  0.1195 -1.8342
   94SAPC  H18Y 9215   2.947   4.567   4.685  0.6157  1.0110  0.7630
   94SAPC  H18Z 9216   2.949   4.555   4.866  2.2067  0.5021 -0.7504
   95SAPC     N 9217   3.960   0.724   1.698  0.0263 -0.5256  0.4387
   95SAPC   C12 9218   3.841   0.751   1.787  0.4243 -0.0266 -0.3618
   95SAPC  H12A 9219   3.838   0.672   1.860 -2.7123  0.5889  0.3333
   95SAPC  H12B 9220   3.744   0.732   1.743  0.1484  1.7563 -0.6012
   95SAPC   C13 9221   3.982   0.837   1.595 -0.0595 -0.5220  0.5361
   95SAPC  H13A 9222   3.931   0.802   1.507  2.0418  1.1645 -1.4564
   95SAPC  H13B 9223   3.959   0.938   1.628  3.2350  0.5168  0.0302
   95SAPC  H13C 9224   4.086   0.837   1.567 -0.4486  0.1030 -0.9795
   95SAPC   C14 9225   4.083   0.714   1.779  0.3402 -0.5695 -0.4366
   95SAPC  H14A 9226   4.165   0.684   1.715  0.6123 -3.0877  0.9522
   95SAPC  H14B 9227   4.115   0.811   1.816  0.0044 -0.9117  0.7886
   95SAPC  H14C 9228   4.081   0.649   1.865 -0.0377  0.5692  0.4448
   95SAPC   C15 9229   3.943   0.590   1.639  0.1122 -0.8275 -0.9404
   95SAPC  H15A 9230   4.031   0.566   1.581 -0.6166 -1.3480 -1.8610
   95SAPC  H15B 9231   3.920   0.525   1.722 -1.8207  1.4405  0.4225
   95SAPC  H15C 9232   3.862   0.599   1.569 -0.8322 -0.5821  0.1517
   95SAPC   C11 9233   3.843   0.887   1.850 -0.4536  0.0434 -0.2065
   95SAPC  H11A 9234   3.797   0.949   1.770 -1.5266 -0.8256 -0.2752
   95SAPC  H11B 9235   3.938   0.934   1.885 -0.3638  0.1399 -0.5680
   95SAPC     P 9236   3.766   0.814   2.098  0.0629 -0.7836 -0.4483
   95SAPC   O13 9237   3.651   0.857   2.178  0.2419 -0.5731  0.2453
   95SAPC   O14 9238   3.778   0.668   2.076 -0.2589  0.0568 -1.1389
   95SAPC   O12 9239   3.758   0.891   1.962  0.3359 -0.1135  0.2473
   95SAPC   O11 9240   3.898   0.876   2.160  0.4460 -0.5316 -0.2711
   95SAPC    C1 9241   4.012   0.794   2.155  0.6213  0.3437  0.4741
   95SAPC    HA 9242   4.026   0.736   2.062 -1.5276  0.2901  0.1466
   95SAPC    HB 9243   4.101   0.859   2.168  0.0413  1.2613 -0.0527
   95SAPC    C2 9244   4.010   0.685   2.273 -0.3333  0.1006 -0.2330
   95SAPC    HS 9245   3.930   0.612   2.248  0.9444 -1.3637 -0.1971
   95SAPC   O21 9246   3.977   0.749   2.399 -0.3172  0.0885  0.2211
   95SAPC   C21 9247   3.902   0.677   2.480 -0.4514 -0.4378 -0.0335
   95SAPC   O22 9248   3.845   0.571   2.461 -0.4492 -0.2396  0.1980
   95SAPC   C22 9249   3.916   0.746   2.615 -0.2905 -0.2377  0.3043
   95SAPC   H2R 9250   3.982   0.687   2.683  3.1295  0.1260 -2.4106
   95SAPC   H2S 9251   3.972   0.840   2.597 -0.4345 -0.2647 -0.2745
   95SAPC    C3 9252   4.154   0.618   2.280  0.3604 -0.2362 -0.3093
   95SAPC    HX 9253   4.162   0.561   2.185  0.5640 -0.0378 -0.4116
   95SAPC    HY 9254   4.151   0.550   2.368 -0.5534  0.6332  0.3550
   95SAPC   O31 9255   4.248   0.719   2.290 -0.4566 -0.3171 -0.8714
   95SAPC   C31 9256   4.291   0.741   2.419  0.1254 -0.6724 -0.0951
   95SAPC   O32 9257   4.241   0.692   2.522 -0.1888 -0.2570  0.5659
   95SAPC   C32 9258   4.421   0.799   2.411  0.0362 -0.2270  0.4031
   95SAPC   H2X 9259   4.414   0.893   2.352  0.6605 -1.1132 -1.1478
   95SAPC   H2Y 9260   4.496   0.739   2.355  0.0946 -0.6584  0.9330
   95SAPC   C23 9261   3.777   0.776   2.672 -0.2282 -0.2982 -0.0557
   95SAPC   H3R 9262   3.712   0.828   2.598  1.4319 -0.6059 -1.7956
   95SAPC   H3S 9263   3.800   0.854   2.747  0.6958  1.1418 -1.7589
   95SAPC   C24 9264   3.711   0.652   2.739 -0.2448 -0.1177 -0.4135
   95SAPC   H4R 9265   3.787   0.587   2.787 -1.3496 -1.3561 -0.2639
   95SAPC   H4S 9266   3.669   0.591   2.656 -1.3757 -0.4274  0.3572
   95SAPC   C25 9267   3.603   0.681   2.834  0.4265 -0.1122 -0.1293
   95SAPC   H5R 9268   3.503   0.702   2.793  0.6167  0.6516 -0.2064
   95SAPC   C26 9269   3.604   0.690   2.965  0.1873  0.2690 -0.0187
   95SAPC   H6R 9270   3.505   0.711   3.010  0.1025 -1.7123  0.8530
   95SAPC   C27 9271   3.712   0.667   3.059  0.1266 -0.1836  0.7844
   95SAPC   H7R 9272   3.798   0.632   2.999 -2.4158 -0.9516 -2.7010
   95SAPC   H7S 9273   3.685   0.580   3.123  0.0446  0.1233  1.1767
   95SAPC   C28 9274   3.754   0.789   3.143 -0.1757  0.6101 -0.0074
   95SAPC   H8R 9275   3.853   0.833   3.119  0.0832  0.1680  0.2448
   95SAPC   C29 9276   3.716   0.814   3.265 -0.5860  0.1403 -0.3021
   95SAPC   H9R 9277   3.756   0.904   3.315  1.3815 -2.0637  2.4452
   95SAPC  C210 9278   3.593   0.762   3.332 -0.0955 -0.1702  0.7409
   95SAPC  H10R 9279   3.521   0.725   3.256 -1.9589 -0.9112  2.7609
   95SAPC  H10S 9280   3.533   0.845   3.376 -0.2355  0.6934 -1.0240
   95SAPC  C211 9281   3.591   0.649   3.428  0.0412  0.1127 -0.4383
   95SAPC  H11R 9282   3.588   0.544   3.393  0.1340 -0.1421  0.3007
   95SAPC  C212 9283   3.599   0.661   3.564  0.1512  0.0042  0.0797
   95SAPC  H12R 9284   3.605   0.566   3.619 -1.8047  0.6921  1.5982
   95SAPC  C213 9285   3.604   0.786   3.653  0.3160  0.0397  0.8786
   95SAPC  H13R 9286   3.505   0.798   3.702  0.0414  2.5898 -0.1043
   95SAPC  H13S 9287   3.623   0.881   3.597  3.0912 -0.8251  0.1850
   95SAPC  C214 9288   3.716   0.788   3.752  0.4427 -0.8550 -0.0274
   95SAPC  H14R 9289   3.813   0.789   3.701  1.0215 -0.7592  1.0395
   95SAPC  C215 9290   3.713   0.777   3.888  1.0844  0.1383  0.1458
   95SAPC  H15R 9291   3.807   0.795   3.943  1.1005  0.6935 -0.0666
   95SAPC  C216 9292   3.580   0.768   3.970 -0.7155  0.1266 -0.0512
   95SAPC  H16R 9293   3.568   0.675   4.030 -0.7154  0.9143  1.2147
   95SAPC  H16S 9294   3.493   0.781   3.903 -1.0677 -0.3684  0.3091
   95SAPC  C217 9295   3.576   0.879   4.073  0.5142 -0.4411  0.0284
   95SAPC  H17R 9296   3.610   0.978   4.034 -0.7961  1.1285  2.5955
   95SAPC  H17S 9297   3.646   0.852   4.156 -2.6200 -2.7777  2.1457
   95SAPC  C218 9298   3.439   0.895   4.136 -0.8290  0.3190  0.1938
   95SAPC  H18R 9299   3.372   0.932   4.056  1.0363  1.2287 -1.0145
   95SAPC  H18S 9300   3.443   0.976   4.212 -0.1558 -0.8734  1.4820
   95SAPC  C219 9301   3.401   0.758   4.204  0.1985 -0.8922 -0.0518
   95SAPC  H19R 9302   3.491   0.723   4.259  0.9968  1.8423  0.5461
   95SAPC  H19S 9303   3.364   0.685   4.129 -1.9386  0.5325 -0.4744
   95SAPC  C220 9304   3.289   0.787   4.293 -0.1231 -1.2549 -0.2465
   95SAPC  H20R 9305   3.315   0.870   4.361 -1.4678 -0.3048 -0.8480
   95SAPC  H20S 9306   3.253   0.700   4.352  0.7969 -1.3904  0.1200
   95SAPC  H20T 9307   3.202   0.822   4.233 -0.7263 -0.4531  1.0554
   95SAPC   C33 9308   4.481   0.831   2.550  0.4019 -0.9509 -0.2639
   95SAPC   H3X 9309   4.581   0.876   2.530  0.2845 -0.8231 -0.5739
   95SAPC   H3Y 9310   4.488   0.744   2.618 -0.6527 -0.4861  0.4644
   95SAPC   C34 9311   4.401   0.941   2.630 -0.3458  0.1130 -0.2784
   95SAPC   H4X 9312   4.302   0.901   2.661  1.0989 -4.3674 -0.7378
   95SAPC   H4Y 9313   4.393   1.027   2.561  0.0906  0.1853 -0.2409
   95SAPC   C35 9314   4.479   1.003   2.744  0.2502  0.2414  0.0218
   95SAPC   H5X 9315   4.418   1.089   2.778 -2.7936 -1.4335 -0.8311
   95SAPC   H5Y 9316   4.577   1.036   2.701  0.3022  0.4509  0.2961
   95SAPC   C36 9317   4.500   0.901   2.861  0.4501  0.3547 -0.1720
   95SAPC   H6X 9318   4.568   0.818   2.832 -1.8652 -2.0743  0.9484
   95SAPC   H6Y 9319   4.409   0.845   2.890 -0.4115  1.3906 -0.7750
   95SAPC   C37 9320   4.559   0.977   2.985  1.0670  0.6912 -0.3631
   95SAPC   H7X 9321   4.494   1.060   3.022 -0.6929 -0.0243 -1.6551
   95SAPC   H7Y 9322   4.653   1.023   2.949  2.4914 -1.3665  0.5813
   95SAPC   C38 9323   4.579   0.880   3.109 -0.2088 -0.3400  0.4366
   95SAPC   H8X 9324   4.644   0.797   3.076  1.1117  1.0300 -0.5378
   95SAPC   H8Y 9325   4.476   0.842   3.128 -0.4948  0.2312  0.0591
   95SAPC   C39 9326   4.633   0.943   3.238  0.0011  0.2767  0.3170
   95SAPC   H9X 9327   4.557   1.014   3.278  0.2370  0.0311  1.2133
   95SAPC   H9Y 9328   4.734   0.989   3.239 -0.1003  0.5250  1.8792
   95SAPC  C310 9329   4.626   0.842   3.345 -0.2541 -0.1033  0.5897
   95SAPC  H10X 9330   4.708   0.767   3.343 -1.3928 -1.4449  1.8583
   95SAPC  H10Y 9331   4.530   0.790   3.326 -0.1292 -0.2815  0.4415
   95SAPC  C311 9332   4.607   0.903   3.486  0.1682 -0.7075  0.7007
   95SAPC  H11X 9333   4.552   0.999   3.472  1.9975  0.3386  0.3876
   95SAPC  H11Y 9334   4.706   0.925   3.531  1.9717 -1.3649 -2.6370
   95SAPC  C312 9335   4.524   0.808   3.578  0.4225  0.8728  0.5501
   95SAPC  H12X 9336   4.588   0.731   3.625  0.6247  0.0653 -0.9608
   95SAPC  H12Y 9337   4.444   0.751   3.525 -0.0580  0.7754  1.3699
   95SAPC  C313 9338   4.461   0.886   3.695  0.2709 -0.8031 -0.0892
   95SAPC  H13X 9339   4.393   0.815   3.747 -1.3578  0.8067  0.0837
   95SAPC  H13Y 9340   4.415   0.983   3.667 -1.1636 -0.7134  2.3012
   95SAPC  C314 9341   4.570   0.926   3.803  0.2731 -0.3422 -0.1767
   95SAPC  H14X 9342   4.516   1.004   3.861  0.1492 -2.0054  2.0750
   95SAPC  H14Y 9343   4.661   0.969   3.756 -0.1737  0.0498 -0.6960
   95SAPC  C315 9344   4.603   0.813   3.906  0.3138 -0.2131 -0.1030
   95SAPC  H15X 9345   4.661   0.730   3.859  1.3366 -0.3788  1.3697
   95SAPC  H15Y 9346   4.505   0.773   3.938  0.2458  1.0871  1.4158
   95SAPC  C316 9347   4.671   0.878   4.030 -0.0799  0.0411  0.4421
   95SAPC  H16X 9348   4.646   0.823   4.123 -1.1461 -0.1190  0.0759
   95SAPC  H16Y 9349   4.643   0.984   4.048  3.3386  1.0677  0.5079
   95SAPC  C317 9350   4.826   0.870   4.015 -0.1986  0.3008  0.0027
   95SAPC  H17X 9351   4.873   0.932   4.093  0.8087 -0.6386  0.1720
   95SAPC  H17Y 9352   4.845   0.920   3.918  0.5901  0.2739  0.1324
   95SAPC  C318 9353   4.885   0.732   4.024  0.3751 -0.0907  0.8161
   95SAPC  H18X 9354   4.875   0.679   3.927 -0.4420  1.1789  0.1835
   95SAPC  H18Y 9355   4.829   0.667   4.095 -1.3116  0.5988  0.1530
   95SAPC  H18Z 9356   4.987   0.744   4.066  0.2946  1.1170  0.7056
   96SAPC     N 9357   1.733   3.277   2.065  0.0866 -0.5828 -0.2417
   96SAPC   C12 9358   1.660   3.326   2.192 -0.7320 -0.0133  0.1140
   96SAPC  H12A 9359   1.595   3.409   2.167 -0.3810 -0.4108 -2.3446
   96SAPC  H12B 9360   1.745   3.361   2.249  1.0891 -3.1016 -0.5134
   96SAPC   C13 9361   1.829   3.167   2.094  0.9009 -0.9779  1.3341
   96SAPC  H13A 9362   1.883   3.142   2.003 -0.6142  2.3422 -0.6722
   96SAPC  H13B 9363   1.902   3.198   2.168  0.1645 -0.1765  1.7433
   96SAPC  H13C 9364   1.774   3.079   2.122 -1.6913  0.4543  1.0210
   96SAPC   C14 9365   1.639   3.220   1.964 -0.3817 -0.7400  0.5423
   96SAPC  H14A 9366   1.699   3.185   1.881 -0.3091 -0.7475  0.5983
   96SAPC  H14B 9367   1.576   3.141   2.003 -2.1069  0.5556  0.4922
   96SAPC  H14C 9368   1.577   3.296   1.920 -0.5571 -1.6950 -0.9530
   96SAPC   C15 9369   1.810   3.397   2.012  0.2220  0.1227 -0.3229
   96SAPC  H15A 9370   1.744   3.475   1.977 -0.1648  1.3512  2.8419
   96SAPC  H15B 9371   1.862   3.453   2.087  0.6259 -3.0723  1.9958
   96SAPC  H15C 9372   1.881   3.366   1.937  2.7960  0.8119  1.6862
   96SAPC   C11 9373   1.577   3.225   2.273  0.0569 -1.2627 -1.0147
   96SAPC  H11A 9374   1.564   3.268   2.374  1.6933  1.6298 -1.9330
   96SAPC  H11B 9375   1.629   3.127   2.273  1.1783 -0.7319  1.1866
   96SAPC     P 9376   1.345   3.340   2.235 -0.1680 -0.3414  0.2113
   96SAPC   O13 9377   1.415   3.464   2.191 -0.2489  0.0322 -0.3433
   96SAPC   O14 9378   1.223   3.296   2.161  0.5428 -0.2553  0.1101
   96SAPC   O12 9379   1.445   3.219   2.210  0.0325 -0.1975 -0.3694
   96SAPC   O11 9380   1.339   3.346   2.393  0.2654  0.3601 -0.2871
   96SAPC    C1 9381   1.250   3.257   2.466 -0.1058  0.5250 -0.6647
   96SAPC    HA 9382   1.144   3.279   2.438 -0.8583  0.1913  1.6910
   96SAPC    HB 9383   1.270   3.150   2.442 -0.5456 -0.1875  1.8694
   96SAPC    C2 9384   1.258   3.260   2.620 -0.4177 -0.0573  1.2737
   96SAPC    HS 9385   1.204   3.169   2.654 -0.9984  0.7005  2.4414
   96SAPC   O21 9386   1.196   3.384   2.666 -0.3618 -0.4043 -0.1753
   96SAPC   C21 9387   1.133   3.379   2.782 -0.6847  0.6037  0.0267
   96SAPC   O22 9388   1.112   3.275   2.838 -0.1108  0.9629 -0.6333
   96SAPC   C22 9389   1.086   3.521   2.810 -0.0392  0.4614  0.6911
   96SAPC   H2R 9390   1.172   3.591   2.797  3.3453 -3.6074 -1.0596
   96SAPC   H2S 9391   1.013   3.534   2.728 -0.6439 -2.9393  0.5564
   96SAPC    C3 9392   1.405   3.260   2.658 -0.8059 -0.3638 -1.0129
   96SAPC    HX 9393   1.462   3.350   2.623 -1.0449  1.1800  2.2158
   96SAPC    HY 9394   1.461   3.172   2.619 -2.1356 -0.9346 -1.7038
   96SAPC   O31 9395   1.411   3.254   2.807 -0.0435 -0.2892 -0.2776
   96SAPC   C31 9396   1.395   3.131   2.861  0.1942  0.1059  0.3059
   96SAPC   O32 9397   1.370   3.026   2.805  0.3650  0.0754 -0.4919
   96SAPC   C32 9398   1.440   3.134   3.010 -0.0532  0.4488  0.4263
   96SAPC   H2X 9399   1.366   3.186   3.075  0.8700  1.0077  1.0564
   96SAPC   H2Y 9400   1.537   3.183   3.033  0.0438  0.0750  0.8316
   96SAPC   C23 9401   1.012   3.542   2.947  0.0179  0.0661  0.1619
   96SAPC   H3R 9402   0.938   3.463   2.970  1.8141 -1.1342  2.1775
   96SAPC   H3S 9403   0.952   3.636   2.946  0.0820  0.1472  1.4827
   96SAPC   C24 9404   1.117   3.541   3.066 -0.0610 -0.5470  0.0267
   96SAPC   H4R 9405   1.184   3.453   3.050  0.9564  0.3760 -0.9748
   96SAPC   H4S 9406   1.065   3.522   3.162 -0.4617  3.4198  0.7511
   96SAPC   C25 9407   1.209   3.666   3.062 -0.5167  0.7620 -0.5971
   96SAPC   H5R 9408   1.281   3.659   2.979  0.9171 -0.5758  0.6823
   96SAPC   C26 9409   1.220   3.757   3.155 -0.6685 -0.0570 -0.7838
   96SAPC   H6R 9410   1.303   3.829   3.158 -0.6146 -0.1431  0.4913
   96SAPC   C27 9411   1.138   3.772   3.283  0.1288  0.8841 -0.4056
   96SAPC   H7R 9412   1.042   3.718   3.266  0.3642  0.0901  0.6932
   96SAPC   H7S 9413   1.113   3.877   3.306 -0.8598  0.8544 -1.2968
   96SAPC   C28 9414   1.210   3.711   3.404  0.3585  0.5057  0.1399
   96SAPC   H8R 9415   1.308   3.666   3.381 -0.0712 -0.4940  0.1981
   96SAPC   C29 9416   1.159   3.717   3.523  0.6435  1.2266 -0.0131
   96SAPC   H9R 9417   1.206   3.677   3.614 -2.9921  2.1066  2.4712
   96SAPC  C210 9418   1.037   3.785   3.574 -0.0454  0.8480  0.2431
   96SAPC  H10R 9419   1.004   3.863   3.502  0.0896  1.0473  0.3973
   96SAPC  H10S 9420   1.080   3.840   3.660 -1.2420  2.3521 -0.0734
   96SAPC  C211 9421   0.923   3.705   3.613  0.4620  0.1177  0.6434
   96SAPC  H11R 9422   0.842   3.694   3.538  1.1118 -0.6772  0.0325
   96SAPC  C212 9423   0.894   3.667   3.737  0.4432  0.5174 -0.2291
   96SAPC  H12R 9424   0.808   3.600   3.748  0.6841  0.0833 -0.9212
   96SAPC  C213 9425   0.970   3.684   3.865  0.1342  0.0560 -0.2225
   96SAPC  H13R 9426   0.898   3.734   3.935 -0.5716  1.7994 -2.1038
   96SAPC  H13S 9427   1.055   3.753   3.847  0.1004  0.2725  0.4163
   96SAPC  C214 9428   1.021   3.551   3.906  0.6083  0.7283 -0.6190
   96SAPC  H14R 9429   1.080   3.500   3.828 -2.4568  0.4357 -2.9285
   96SAPC  C215 9430   0.990   3.487   4.025 -0.1198  0.3317 -0.4243
   96SAPC  H15R 9431   1.037   3.389   4.040  2.0920  1.1488 -1.4820
   96SAPC  C216 9432   0.906   3.535   4.142 -0.3532  0.0296  0.8501
   96SAPC  H16R 9433   0.829   3.457   4.157 -0.1163 -0.5010 -0.5467
   96SAPC  H16S 9434   0.855   3.633   4.127  0.4163  0.1808 -1.0123
   96SAPC  C217 9435   1.002   3.543   4.265 -0.2354 -0.1970 -0.3696
   96SAPC  H17R 9436   0.956   3.604   4.345  0.8959  0.0911  0.0897
   96SAPC  H17S 9437   1.100   3.589   4.238 -0.1558 -0.6180 -0.8164
   96SAPC  C218 9438   1.020   3.402   4.322 -0.4291  0.3489 -0.6885
   96SAPC  H18R 9439   1.091   3.342   4.262 -0.6889 -0.0868 -0.5635
   96SAPC  H18S 9440   0.930   3.336   4.325 -1.4207  1.3772 -3.5665
   96SAPC  C219 9441   1.105   3.408   4.453 -0.2285 -0.2507 -0.3056
   96SAPC  H19R 9442   1.202   3.460   4.433  1.1592 -2.2901  0.6866
   96SAPC  H19S 9443   1.121   3.301   4.476 -1.5585 -0.2424  0.7663
   96SAPC  C220 9444   1.035   3.486   4.568  0.0036  0.2138  0.7139
   96SAPC  H20R 9445   1.093   3.495   4.662 -1.2989  0.0770  1.5607
   96SAPC  H20S 9446   0.943   3.428   4.593 -0.2091  1.3619  2.8088
   96SAPC  H20T 9447   0.998   3.588   4.543 -0.8499 -0.2872 -0.1833
   96SAPC   C33 9448   1.461   2.989   3.065  0.2172 -0.0647  0.6376
   96SAPC   H3X 9449   1.536   2.931   3.007 -0.6599  0.1614 -0.7617
   96SAPC   H3Y 9450   1.366   2.931   3.064  0.6253 -0.8748  2.8042
   96SAPC   C34 9451   1.518   2.990   3.212  0.7807  0.1611 -0.0627
   96SAPC   H4X 9452   1.602   3.063   3.218  0.0324  1.2500 -1.9775
   96SAPC   H4Y 9453   1.552   2.888   3.238 -0.3553 -0.5733 -1.3090
   96SAPC   C35 9454   1.399   3.004   3.312 -0.8576 -0.1896 -0.3728
   96SAPC   H5X 9455   1.313   2.940   3.283  0.3266 -1.7371 -0.5909
   96SAPC   H5Y 9456   1.386   3.113   3.298  1.2353  0.1319 -0.1766
   96SAPC   C36 9457   1.431   2.977   3.461  0.6109  0.2551 -0.5077
   96SAPC   H6X 9458   1.444   2.867   3.470  1.0831  0.3172 -0.4189
   96SAPC   H6Y 9459   1.338   2.994   3.519  0.8758  0.6799 -0.1986
   96SAPC   C37 9460   1.541   3.069   3.512  0.4608 -0.4056 -0.5939
   96SAPC   H7X 9461   1.526   3.172   3.471  2.4353 -0.6667 -2.1601
   96SAPC   H7Y 9462   1.636   3.039   3.463  1.6424  1.7438  0.2332
   96SAPC   C38 9463   1.563   3.079   3.663  0.2616  0.0596  0.2990
   96SAPC   H8X 9464   1.461   3.093   3.704 -0.6994  1.0039 -2.2266
   96SAPC   H8Y 9465   1.632   3.164   3.682  0.9013  0.1994 -2.2806
   96SAPC   C39 9466   1.627   2.948   3.713  0.0175 -0.1956  0.1144
   96SAPC   H9X 9467   1.729   2.945   3.669  0.7268  0.1323  1.6776
   96SAPC   H9Y 9468   1.554   2.867   3.690  0.0495  0.0187 -0.7964
   96SAPC  C310 9469   1.652   2.952   3.866 -0.2498  0.0686  0.4313
   96SAPC  H10X 9470   1.556   2.965   3.921  0.5724  1.5348  1.5873
   96SAPC  H10Y 9471   1.714   3.038   3.900 -3.1172  3.0461 -1.2957
   96SAPC  C311 9472   1.716   2.821   3.919 -0.1229  0.1688 -0.0922
   96SAPC  H11X 9473   1.808   2.806   3.858  1.3917  1.3850  1.7623
   96SAPC  H11Y 9474   1.657   2.729   3.898 -3.2430  2.1984 -0.7932
   96SAPC  C312 9475   1.754   2.813   4.069 -0.0444 -0.4623  0.1483
   96SAPC  H12X 9476   1.829   2.893   4.087 -1.2741  0.5895  0.8807
   96SAPC  H12Y 9477   1.806   2.718   4.092 -0.7789 -0.9533 -0.1860
   96SAPC  C313 9478   1.634   2.827   4.166  0.8910  0.0350  0.4635
   96SAPC  H13X 9479   1.552   2.759   4.134 -0.9387  1.4673  1.9260
   96SAPC  H13Y 9480   1.599   2.932   4.159  2.0071  0.3873 -0.0740
   96SAPC  C314 9481   1.667   2.799   4.310 -1.0126 -0.1428  0.9206
   96SAPC  H14X 9482   1.776   2.814   4.328 -0.2949 -1.2090 -1.8500
   96SAPC  H14Y 9483   1.653   2.691   4.332 -0.6565 -0.0303  1.7475
   96SAPC  C315 9484   1.589   2.880   4.412 -0.3615  1.4233 -0.0004
   96SAPC  H15X 9485   1.479   2.872   4.403 -0.5926  2.5231  1.4593
   96SAPC  H15Y 9486   1.621   2.986   4.397  0.2769  1.5610  2.0370
   96SAPC  C316 9487   1.633   2.859   4.556  0.1346 -0.4205  0.3803
   96SAPC  H16X 9488   1.588   2.936   4.622 -0.5250  1.6746 -2.3552
   96SAPC  H16Y 9489   1.744   2.867   4.558  0.1896  0.7756 -2.2501
   96SAPC  C317 9490   1.595   2.715   4.601 -0.0689  0.1685  0.3432
   96SAPC  H17X 9491   1.669   2.645   4.557  2.3409  2.2595  0.8045
   96SAPC  H17Y 9492   1.492   2.699   4.563 -0.1783  0.0267  0.6978
   96SAPC  C318 9493   1.596   2.692   4.751 -0.4978 -0.0754 -0.1341
   96SAPC  H18X 9494   1.546   2.596   4.775 -1.4668 -0.0880 -2.0477
   96SAPC  H18Y 9495   1.543   2.780   4.793 -0.3984  0.1391 -0.4532
   96SAPC  H18Z 9496   1.701   2.696   4.788 -0.8700 -2.3823  1.4047
   97SAPC     N 9497   3.001   0.521   2.038  0.2016  0.3615  0.0604
   97SAPC   C12 9498   2.962   0.420   2.145  1.0340  0.7847 -0.3677
   97SAPC  H12A 9499   2.972   0.460   2.245  1.6187 -0.9850  0.3035
   97SAPC  H12B 9500   3.025   0.334   2.135 -0.2127 -0.1092 -0.8040
   97SAPC   C13 9501   2.904   0.626   2.015  0.0486 -0.0122 -0.4695
   97SAPC  H13A 9502   2.809   0.581   1.990 -0.0576 -0.4487  0.6379
   97SAPC  H13B 9503   2.893   0.693   2.099 -0.8976 -0.9668  0.1970
   97SAPC  H13C 9504   2.917   0.688   1.927 -0.9748  1.1075  0.1306
   97SAPC   C14 9505   3.132   0.586   2.085 -0.3301 -0.5982 -0.2367
   97SAPC  H14A 9506   3.120   0.668   2.154 -2.6586 -1.5930  0.6337
   97SAPC  H14B 9507   3.187   0.508   2.135 -2.7680 -2.8054 -0.7310
   97SAPC  H14C 9508   3.187   0.633   2.005  1.2690 -0.5306  0.8632
   97SAPC   C15 9509   3.022   0.461   1.903  0.5447 -0.3917  0.3868
   97SAPC  H15A 9510   2.940   0.398   1.873  0.6003 -0.2353 -0.1098
   97SAPC  H15B 9511   3.044   0.535   1.827  0.3649 -0.1177  0.5969
   97SAPC  H15C 9512   3.108   0.397   1.902  0.3361 -0.6716 -0.7646
   97SAPC   C11 9513   2.818   0.363   2.137  0.2902 -0.2022 -0.5805
   97SAPC  H11A 9514   2.830   0.260   2.177  0.5178 -0.5331 -1.4743
   97SAPC  H11B 9515   2.774   0.360   2.035 -1.0877 -0.9307  0.0047
   97SAPC     P 9516   2.671   0.432   2.348  0.0307 -0.0633  0.0305
   97SAPC   O13 9517   2.622   0.560   2.404 -0.3658  0.3325 -0.3625
   97SAPC   O14 9518   2.569   0.327   2.339 -0.1024 -0.2034 -0.3969
   97SAPC   O12 9519   2.722   0.442   2.206 -0.6574 -0.2648  1.1303
   97SAPC   O11 9520   2.783   0.364   2.435  0.0749 -0.2106 -0.4152
   97SAPC    C1 9521   2.872   0.457   2.498 -0.0130  0.3943  0.2711
   97SAPC    HA 9522   2.962   0.410   2.542  0.0782 -0.0526 -0.3765
   97SAPC    HB 9523   2.914   0.533   2.428  1.5638  1.8059  2.5961
   97SAPC    C2 9524   2.820   0.522   2.629 -0.4710  0.3524  0.0611
   97SAPC    HS 9525   2.715   0.554   2.616 -1.9199 -2.6519  2.8365
   97SAPC   O21 9526   2.914   0.615   2.670  0.5529 -0.0250 -0.4553
   97SAPC   C21 9527   2.878   0.742   2.645  0.0454  0.3073  0.4326
   97SAPC   O22 9528   2.786   0.784   2.576  0.5335  0.2707  0.1995
   97SAPC   C22 9529   2.980   0.835   2.721  0.6427  0.5584  0.1557
   97SAPC   H2R 9530   3.073   0.814   2.664  0.7853  1.5532  0.0068
   97SAPC   H2S 9531   2.942   0.937   2.701  0.3036  0.5290  0.6096
   97SAPC    C3 9532   2.798   0.427   2.747 -0.1265 -0.2581  0.1251
   97SAPC    HX 9533   2.901   0.390   2.767  2.1115  2.4943 -4.6479
   97SAPC    HY 9534   2.736   0.341   2.713  0.1915 -0.0756 -0.9589
   97SAPC   O31 9535   2.730   0.500   2.855  0.3111  0.0384  0.0292
   97SAPC   C31 9536   2.762   0.475   2.983 -0.0722 -0.0205  0.1651
   97SAPC   O32 9537   2.850   0.399   3.018 -0.4635  0.5053 -0.2311
   97SAPC   C32 9538   2.675   0.550   3.073 -0.4283  0.4326  0.0751
   97SAPC   H2X 9539   2.583   0.488   3.068 -0.6450  0.7645 -0.0743
   97SAPC   H2Y 9540   2.654   0.652   3.037 -1.0063  0.5403  0.7045
   97SAPC   C23 9541   3.006   0.801   2.868 -0.2627 -0.2815  0.0689
   97SAPC   H3R 9542   3.041   0.698   2.889  1.3012  0.3842  0.9212
   97SAPC   H3S 9543   2.918   0.822   2.932 -2.6711 -0.7775 -2.8584
   97SAPC   C24 9544   3.114   0.898   2.922  0.6721  0.8754 -0.0223
   97SAPC   H4R 9545   3.079   1.002   2.906  0.7615  0.9132  0.0248
   97SAPC   H4S 9546   3.206   0.885   2.861  1.7957  1.2792  1.5295
   97SAPC   C25 9547   3.136   0.870   3.067 -0.2976 -0.5080  0.6958
   97SAPC   H5R 9548   3.186   0.774   3.085 -0.3906 -0.3230  2.0605
   97SAPC   C26 9549   3.100   0.945   3.171  0.1901  0.6283 -0.5386
   97SAPC   H6R 9550   3.152   0.928   3.267  0.1113  1.3307 -0.3656
   97SAPC   C27 9551   3.013   1.068   3.164  0.1206 -0.1068 -0.1928
   97SAPC   H7R 9552   2.956   1.081   3.069  0.4280 -2.2419 -0.7158
   97SAPC   H7S 9553   3.084   1.153   3.172  1.3454 -1.1873  0.9492
   97SAPC   C28 9554   2.910   1.068   3.277  0.4090 -0.1231 -0.8254
   97SAPC   H8R 9555   2.846   0.979   3.269  1.8670 -1.2346 -0.5592
   97SAPC   C29 9556   2.901   1.146   3.382  0.3237 -0.0773  0.4114
   97SAPC   H9R 9557   2.805   1.143   3.437 -0.5898  1.3597 -1.0228
   97SAPC  C210 9558   2.999   1.260   3.420  0.4003 -0.4100  0.3535
   97SAPC  H10R 9559   3.088   1.262   3.354  1.0275  1.0087  1.1982
   97SAPC  H10S 9560   3.052   1.228   3.512  1.3132  0.0582  0.0040
   97SAPC  C211 9561   2.920   1.391   3.441 -0.2237  0.5388  0.1310
   97SAPC  H11R 9562   2.859   1.424   3.355 -0.6874 -0.1696  0.1805
   97SAPC  C212 9563   2.908   1.457   3.555  0.8717 -0.3970  0.1008
   97SAPC  H12R 9564   2.854   1.553   3.558  0.8589 -0.3751 -0.6220
   97SAPC  C213 9565   2.980   1.413   3.681  0.1447 -0.1392  1.0415
   97SAPC  H13R 9566   2.990   1.511   3.733 -0.3766  1.5593 -1.8279
   97SAPC  H13S 9567   3.086   1.384   3.662  0.0403  0.5506 -0.8009
   97SAPC  C214 9568   2.927   1.306   3.769  0.5319 -0.4984 -0.9056
   97SAPC  H14R 9569   2.909   1.207   3.726 -1.5774 -0.7605  0.4507
   97SAPC  C215 9570   2.893   1.313   3.895  0.5027 -0.7170  0.0529
   97SAPC  H15R 9571   2.848   1.225   3.943 -1.5526  0.2531 -0.0125
   97SAPC  C216 9572   2.885   1.434   3.983  0.2288  0.1865  0.1987
   97SAPC  H16R 9573   2.902   1.527   3.925  3.0117 -0.7580 -0.6464
   97SAPC  H16S 9574   2.968   1.426   4.056  3.6791  1.5759 -3.2397
   97SAPC  C217 9575   2.745   1.438   4.054  0.1641 -0.3528 -0.0980
   97SAPC  H17R 9576   2.743   1.535   4.107 -0.3213  0.4429 -1.5160
   97SAPC  H17S 9577   2.734   1.365   4.137 -0.1027  1.6242  1.6915
   97SAPC  C218 9578   2.615   1.422   3.962 -0.0970 -0.1957 -0.6276
   97SAPC  H18R 9579   2.637   1.329   3.904  1.6535 -0.2743  0.1091
   97SAPC  H18S 9580   2.609   1.495   3.879 -0.1067  1.1049  0.4888
   97SAPC  C219 9581   2.483   1.421   4.041  0.1947 -0.2314 -0.0132
   97SAPC  H19R 9582   2.491   1.365   4.137 -2.3638  0.6514  0.7977
   97SAPC  H19S 9583   2.404   1.377   3.976  2.2377 -0.4205 -2.5089
   97SAPC  C220 9584   2.424   1.553   4.073 -0.2048  0.1236 -0.4095
   97SAPC  H20R 9585   2.397   1.610   3.982  1.2185  1.2141 -0.1840
   97SAPC  H20S 9586   2.505   1.605   4.128 -1.1063 -1.4457  2.6291
   97SAPC  H20T 9587   2.342   1.553   4.148  2.4794 -1.7991  2.8214
   97SAPC   C33 9588   2.738   0.551   3.213  0.0894 -0.0558  0.0927
   97SAPC   H3X 9589   2.837   0.602   3.214 -0.3967  1.0441  3.0433
   97SAPC   H3Y 9590   2.763   0.451   3.253 -0.5503  0.0096  0.6642
   97SAPC   C34 9591   2.635   0.624   3.304  0.2547  0.9615  0.3266
   97SAPC   H4X 9592   2.550   0.555   3.318  2.4398 -2.1611 -0.7057
   97SAPC   H4Y 9593   2.603   0.725   3.270 -0.0499  1.3381  1.6591
   97SAPC   C35 9594   2.711   0.644   3.431  0.0690  0.3908 -0.4258
   97SAPC   H5X 9595   2.799   0.706   3.404 -0.5690  0.8574 -1.4802
   97SAPC   H5Y 9596   2.760   0.558   3.483 -1.4982 -1.0622 -1.2378
   97SAPC   C36 9597   2.624   0.697   3.543  0.3057 -0.0838  0.2889
   97SAPC   H6X 9598   2.523   0.652   3.536 -0.0947  0.7323  0.6502
   97SAPC   H6Y 9599   2.598   0.804   3.527 -0.2660 -0.0430  1.3995
   97SAPC   C37 9600   2.675   0.658   3.688 -0.1805 -0.1388 -0.5870
   97SAPC   H7X 9601   2.782   0.681   3.708 -0.5200  1.3988 -0.3719
   97SAPC   H7Y 9602   2.671   0.547   3.692  0.8648 -0.2320 -1.7702
   97SAPC   C38 9603   2.594   0.734   3.799  0.6543 -0.1894 -0.1422
   97SAPC   H8X 9604   2.485   0.718   3.788  0.6124  0.3437 -0.5258
   97SAPC   H8Y 9605   2.624   0.839   3.775  3.4447 -1.2129 -1.5510
   97SAPC   C39 9606   2.652   0.706   3.943 -0.1357 -0.0288  0.6022
   97SAPC   H9X 9607   2.758   0.740   3.950 -0.0345 -0.0489 -0.7516
   97SAPC   H9Y 9608   2.645   0.598   3.972 -1.1922 -0.0193  0.3925
   97SAPC  C310 9609   2.554   0.774   4.039  0.0421 -0.3180 -0.0074
   97SAPC  H10X 9610   2.453   0.730   4.026 -1.0509  1.6432  1.3236
   97SAPC  H10Y 9611   2.551   0.883   4.020  0.6348  0.0743  1.9920
   97SAPC  C311 9612   2.592   0.764   4.184  0.1766  0.1299 -0.0931
   97SAPC  H11X 9613   2.506   0.817   4.230  0.2875  0.2696 -0.0476
   97SAPC  H11Y 9614   2.679   0.830   4.203  1.4693 -1.0785 -1.4857
   97SAPC  C312 9615   2.609   0.622   4.230 -1.4692 -0.3265 -0.2302
   97SAPC  H12X 9616   2.713   0.599   4.199 -0.5548  1.3234  1.4354
   97SAPC  H12Y 9617   2.545   0.548   4.177  0.2132 -0.2540 -2.5367
   97SAPC  C313 9618   2.614   0.610   4.380  0.0250 -0.0271 -0.4052
   97SAPC  H13X 9619   2.674   0.698   4.412 -2.6990  2.0583 -0.7188
   97SAPC  H13Y 9620   2.668   0.519   4.413 -1.3508 -0.8923 -0.4777
   97SAPC  C314 9621   2.475   0.618   4.439 -0.0830  0.6213  0.2624
   97SAPC  H14X 9622   2.416   0.697   4.388 -1.8776 -0.4107  0.6637
   97SAPC  H14Y 9623   2.498   0.645   4.544 -1.4309 -0.6885  0.9246
   97SAPC  C315 9624   2.383   0.497   4.443  0.2197 -0.5785  0.5394
   97SAPC  H15X 9625   2.444   0.417   4.489  2.6511 -0.1284 -1.6654
   97SAPC  H15Y 9626   2.367   0.466   4.338 -1.6600  2.1763 -0.1044
   97SAPC  C316 9627   2.252   0.517   4.510  0.4486 -0.0861  0.6046
   97SAPC  H16X 9628   2.265   0.528   4.619 -0.4405 -2.3479  1.0013
   97SAPC  H16Y 9629   2.195   0.421   4.505  1.8561 -1.0293  1.7109
   97SAPC  C317 9630   2.163   0.624   4.452  0.2527 -0.1252 -0.1673
   97SAPC  H17X 9631   2.149   0.610   4.342 -3.3938  0.7209  0.0361
   97SAPC  H17Y 9632   2.218   0.719   4.467  1.1353 -0.6572 -0.0070
   97SAPC  C318 9633   2.022   0.632   4.524  0.3400 -0.6663  0.4356
   97SAPC  H18X 9634   2.021   0.618   4.635  0.6827 -0.4685  0.4667
   97SAPC  H18Y 9635   1.950   0.553   4.495 -0.3545 -0.0264  0.3944
   97SAPC  H18Z 9636   1.968   0.726   4.501  0.8117 -0.5220 -0.1008
   98SAPC     N 9637   4.499   4.222   2.456  0.2928 -0.1667 -0.6240
   98SAPC   C12 9638   4.598   4.194   2.569  0.3916  0.2440  0.5957
   98SAPC  H12A 9639   4.587   4.257   2.656  1.7543  2.5091 -0.7950
   98SAPC  H12B 9640   4.696   4.232   2.547 -0.4354  0.6011 -2.9310
   98SAPC   C13 9641   4.524   4.142   2.332 -0.1024 -0.1393 -1.1589
   98SAPC  H13A 9642   4.447   4.161   2.258 -1.1690 -0.0750 -0.0649
   98SAPC  H13B 9643   4.625   4.171   2.310  0.9808 -0.8023  2.3876
   98SAPC  H13C 9644   4.534   4.035   2.348  1.3966 -0.2622 -2.6344
   98SAPC   C14 9645   4.359   4.192   2.503  0.0276  0.5298 -0.3457
   98SAPC  H14A 9646   4.349   4.087   2.527  0.6254  0.3149 -1.0117
   98SAPC  H14B 9647   4.344   4.245   2.596 -1.0612  0.4661 -0.4692
   98SAPC  H14C 9648   4.281   4.216   2.433 -0.0575 -0.2417 -0.5192
   98SAPC   C15 9649   4.511   4.369   2.427  0.8509 -0.0682  0.3084
   98SAPC  H15A 9650   4.465   4.417   2.512  0.1715 -2.3543  1.3143
   98SAPC  H15B 9651   4.612   4.407   2.423  1.0187 -0.5265  0.1138
   98SAPC  H15C 9652   4.447   4.399   2.346 -2.8816  2.3404  3.8149
   98SAPC   C11 9653   4.590   4.046   2.613 -0.2747  0.4890 -0.3056
   98SAPC  H11A 9654   4.491   4.004   2.639  1.2332 -2.6583  0.8815
   98SAPC  H11B 9655   4.652   4.045   2.706 -0.7575  0.6552  0.0225
   98SAPC     P 9656   4.795   3.921   2.500 -0.2796  0.4380 -0.6866
   98SAPC   O13 9657   4.813   3.897   2.357  0.0776 -0.0139 -0.5388
   98SAPC   O14 9658   4.876   4.034   2.559 -0.0792  0.6441  0.9928
   98SAPC   O12 9659   4.641   3.948   2.526  0.0146  0.2701 -0.5224
   98SAPC   O11 9660   4.829   3.792   2.592 -0.1756 -0.5614 -0.2232
   98SAPC    C1 9661   4.724   3.701   2.633  0.6093 -0.3113 -0.3592
   98SAPC    HA 9662   4.630   3.759   2.648  2.1151  1.9115  0.9378
   98SAPC    HB 9663   4.697   3.629   2.552  1.5671 -0.0724 -0.9040
   98SAPC    C2 9664   4.766   3.615   2.762 -0.1228 -0.2532  0.0259
   98SAPC    HS 9665   4.675   3.592   2.821 -0.2510 -0.4678 -0.2510
   98SAPC   O21 9666   4.870   3.688   2.831  0.8388 -0.4819 -0.1789
   98SAPC   C21 9667   4.817   3.788   2.903  0.5206 -0.3474 -0.3618
   98SAPC   O22 9668   4.698   3.816   2.906 -0.3540  0.2415  0.5141
   98SAPC   C22 9669   4.927   3.873   2.968  0.4015  0.5147  0.0475
   98SAPC   H2R 9670   4.978   3.810   3.044 -1.6675 -1.5503 -0.1862
   98SAPC   H2S 9671   5.004   3.889   2.889 -0.0698  1.4940 -0.2299
   98SAPC    C3 9672   4.827   3.484   2.713 -0.3833 -0.5290 -0.3140
   98SAPC    HX 9673   4.936   3.505   2.703 -0.7222  1.6282  0.1143
   98SAPC    HY 9674   4.794   3.457   2.611  0.4879  0.1095 -0.7723
   98SAPC   O31 9675   4.816   3.373   2.811  0.0344 -0.2816 -0.3583
   98SAPC   C31 9676   4.703   3.291   2.805 -0.0052  0.0056  0.2746
   98SAPC   O32 9677   4.618   3.311   2.722  0.3464  0.0498  0.0034
   98SAPC   C32 9678   4.706   3.183   2.910 -0.5424  0.4974 -0.5181
   98SAPC   H2X 9679   4.810   3.179   2.950 -0.3739 -0.6692 -1.0294
   98SAPC   H2Y 9680   4.680   3.083   2.871 -0.2229 -0.8930  2.5463
   98SAPC   C23 9681   4.877   4.017   3.007 -0.1711  0.1095 -0.6801
   98SAPC   H3R 9682   4.821   4.057   2.919  2.2077  1.3310 -1.7180
   98SAPC   H3S 9683   4.968   4.079   3.022  0.4863 -1.3221  1.7708
   98SAPC   C24 9684   4.800   4.030   3.144 -0.1831 -0.2530  0.2895
   98SAPC   H4R 9685   4.703   3.975   3.143  0.7239 -1.8989  0.0476
   98SAPC   H4S 9686   4.780   4.137   3.167  1.4653  0.7933 -2.6463
   98SAPC   C25 9687   4.881   3.968   3.252 -0.7771 -0.3260 -0.2728
   98SAPC   H5R 9688   4.984   4.005   3.256 -0.0607 -1.9828 -1.9518
   98SAPC   C26 9689   4.854   3.868   3.336  0.2032 -0.5766 -0.4927
   98SAPC   H6R 9690   4.941   3.830   3.392  1.8453 -0.4108 -2.7855
   98SAPC   C27 9691   4.728   3.790   3.349 -0.1034 -0.4202  0.4171
   98SAPC   H7R 9692   4.647   3.828   3.284 -1.1753 -1.2764  1.1974
   98SAPC   H7S 9693   4.674   3.814   3.444 -3.2413  0.1376 -1.3547
   98SAPC   C28 9694   4.741   3.645   3.297  0.1518 -0.5536  0.9329
   98SAPC   H8R 9695   4.795   3.619   3.205  3.1343  0.0207  2.3954
   98SAPC   C29 9696   4.685   3.541   3.359  0.2252  0.0693 -0.3063
   98SAPC   H9R 9697   4.693   3.446   3.304 -0.4795 -1.0626  1.4199
   98SAPC  C210 9698   4.611   3.540   3.494  0.2297 -0.4364 -0.4327
   98SAPC  H10R 9699   4.564   3.439   3.502  3.9544 -2.2541  0.7538
   98SAPC  H10S 9700   4.530   3.616   3.496  2.4965  2.1013  2.4743
   98SAPC  C211 9701   4.697   3.566   3.620  0.0566  0.5855  0.0146
   98SAPC  H11R 9702   4.793   3.616   3.603  0.3423 -0.6430 -2.3634
   98SAPC  C212 9703   4.652   3.533   3.748 -0.2889  0.0241 -0.2024
   98SAPC  H12R 9704   4.724   3.543   3.830 -1.8053  1.5171  1.0357
   98SAPC  C213 9705   4.515   3.488   3.796 -0.2281  0.1368 -0.9763
   98SAPC  H13R 9706   4.524   3.381   3.822  0.7580  0.2879 -0.6537
   98SAPC  H13S 9707   4.453   3.487   3.704  0.3025 -0.9618 -1.3276
   98SAPC  C214 9708   4.448   3.577   3.898 -0.2263 -0.1988  0.1647
   98SAPC  H14R 9709   4.432   3.529   3.996  0.1477 -2.9705 -1.0310
   98SAPC  C215 9710   4.405   3.703   3.884  0.4867 -0.0143 -0.3885
   98SAPC  H15R 9711   4.377   3.759   3.974 -1.2309 -1.2593 -0.0952
   98SAPC  C216 9712   4.400   3.783   3.757 -0.0970 -0.6415 -0.5300
   98SAPC  H16R 9713   4.303   3.836   3.770 -0.2029 -1.2960  1.7581
   98SAPC  H16S 9714   4.401   3.719   3.666 -0.5734  1.9057 -2.4343
   98SAPC  C217 9715   4.530   3.873   3.741  0.2834 -0.3510 -0.0801
   98SAPC  H17R 9716   4.541   3.894   3.633  1.0558 -1.6707 -0.2755
   98SAPC  H17S 9717   4.620   3.814   3.770 -0.0143 -0.1241  1.4100
   98SAPC  C218 9718   4.527   3.997   3.833 -0.3580 -0.6450 -0.5714
   98SAPC  H18R 9719   4.481   3.957   3.926  1.4962  2.2771  1.8259
   98SAPC  H18S 9720   4.462   4.079   3.795  1.7400  1.7223  0.6385
   98SAPC  C219 9721   4.665   4.054   3.860 -0.3871 -0.0525 -0.6727
   98SAPC  H19R 9722   4.722   4.085   3.770  4.6569 -1.8640  1.5431
   98SAPC  H19S 9723   4.734   3.990   3.919  1.0144  0.8591 -1.2693
   98SAPC  C220 9724   4.653   4.182   3.942 -0.4629  0.1479 -0.5774
   98SAPC  H20R 9725   4.760   4.207   3.956  0.0866 -1.9911 -0.6335
   98SAPC  H20S 9726   4.620   4.165   4.047  1.7513  1.6422  0.4611
   98SAPC  H20T 9727   4.594   4.265   3.896  0.7319  1.9987  1.0341
   98SAPC   C33 9728   4.624   3.214   3.037  0.0754  0.5933  0.8222
   98SAPC   H3X 9729   4.515   3.219   3.020 -0.1303 -1.7494  1.1653
   98SAPC   H3Y 9730   4.657   3.313   3.076  0.3988  1.2276 -0.9891
   98SAPC   C34 9731   4.648   3.108   3.148  0.2580  0.5780  0.8766
   98SAPC   H4X 9732   4.759   3.107   3.150  0.3399  0.8318 -1.2183
   98SAPC   H4Y 9733   4.607   3.011   3.113 -2.7150  1.4053  1.8210
   98SAPC   C35 9734   4.600   3.144   3.281 -0.8523 -0.1205  0.3572
   98SAPC   H5X 9735   4.490   3.131   3.291 -0.8360  0.3498  1.1880
   98SAPC   H5Y 9736   4.623   3.251   3.295 -1.1123  0.0405 -0.4063
   98SAPC   C36 9737   4.668   3.052   3.389  0.7816  0.3704  0.2605
   98SAPC   H6X 9738   4.778   3.067   3.386  0.7031  0.7638 -0.8320
   98SAPC   H6Y 9739   4.642   2.950   3.351  0.5533  0.7441 -0.6008
   98SAPC   C37 9740   4.608   3.072   3.533  0.1214 -0.4309  0.1162
   98SAPC   H7X 9741   4.633   3.180   3.547 -0.2809  0.1248 -2.8466
   98SAPC   H7Y 9742   4.671   3.012   3.602  0.7015 -1.1846 -1.0282
   98SAPC   C38 9743   4.455   3.060   3.548 -0.5652  0.1809  0.1204
   98SAPC   H8X 9744   4.422   2.958   3.522  0.8911  0.5211 -3.6697
   98SAPC   H8Y 9745   4.405   3.142   3.492  1.2649  1.5007  0.3010
   98SAPC   C39 9746   4.434   3.076   3.695 -0.2123  0.1659 -0.3692
   98SAPC   H9X 9747   4.474   3.175   3.724  0.6709 -0.2063 -0.2694
   98SAPC   H9Y 9748   4.482   3.000   3.761 -2.1406 -1.2243 -0.4695
   98SAPC  C310 9749   4.284   3.068   3.728 -0.8321 -0.4707  0.0112
   98SAPC  H10X 9750   4.234   2.987   3.671 -0.1943 -0.6108 -0.3648
   98SAPC  H10Y 9751   4.242   3.161   3.684 -1.7155 -2.2154 -3.1785
   98SAPC  C311 9752   4.269   3.044   3.879 -0.1955 -0.7320 -0.3327
   98SAPC  H11X 9753   4.323   3.120   3.940  0.0521 -0.6656 -0.6277
   98SAPC  H11Y 9754   4.320   2.950   3.911 -0.0862  0.4330  3.4719
   98SAPC  C312 9755   4.119   3.039   3.923  0.0791 -0.3176  0.2963
   98SAPC  H12X 9756   4.063   2.956   3.873  3.2119 -2.7790  0.5586
   98SAPC  H12Y 9757   4.076   3.140   3.905  0.7334  0.3915  2.4195
   98SAPC  C313 9758   4.098   3.022   4.077  0.4516  0.3873 -0.7986
   98SAPC  H13X 9759   4.005   3.080   4.095  0.3098  0.9876 -3.1318
   98SAPC  H13Y 9760   4.186   3.078   4.116  0.9136 -0.8093 -0.0919
   98SAPC  C314 9761   4.087   2.873   4.122 -0.5411  0.5982  0.0304
   98SAPC  H14X 9762   4.182   2.818   4.107 -1.8993 -3.1308  3.3971
   98SAPC  H14Y 9763   4.011   2.813   4.068 -1.3978 -0.4479  2.2579
   98SAPC  C315 9764   4.064   2.870   4.270  0.7695 -0.4433  0.0912
   98SAPC  H15X 9765   3.958   2.849   4.299  0.9842 -0.3534  0.9587
   98SAPC  H15Y 9766   4.088   2.967   4.317  0.8374 -0.4823  0.1370
   98SAPC  C316 9767   4.166   2.778   4.336 -0.1414  0.5791  0.4371
   98SAPC  H16X 9768   4.156   2.688   4.272 -1.2836  1.6451 -0.9608
   98SAPC  H16Y 9769   4.143   2.757   4.443  1.7985  0.9721  0.9730
   98SAPC  C317 9770   4.311   2.826   4.339  0.2836 -0.1107 -0.8068
   98SAPC  H17X 9771   4.333   2.873   4.241  2.7917  2.3735  0.8127
   98SAPC  H17Y 9772   4.375   2.736   4.346 -2.1356 -1.9430 -0.6144
   98SAPC  C318 9773   4.350   2.918   4.457 -0.6093  0.2724  0.5205
   98SAPC  H18X 9774   4.336   2.862   4.552  2.5635 -0.5609  0.6052
   98SAPC  H18Y 9775   4.291   3.012   4.466 -0.3256  0.5631 -0.5094
   98SAPC  H18Z 9776   4.460   2.936   4.461 -0.4187 -0.7042 -0.0654
   99SAPC     N 9777   2.201   6.222   2.019 -0.2667  0.6600 -0.1247
   99SAPC   C12 9778   2.208   6.080   2.072  0.1727 -0.0299  0.2385
   99SAPC  H12A 9779   2.283   6.024   2.019 -0.8220 -1.6623  0.5012
   99SAPC  H12B 9780   2.116   6.027   2.050  0.5427 -0.1155 -1.2123
   99SAPC   C13 9781   2.333   6.297   2.033  0.6139  0.8432  0.3731
   99SAPC  H13A 9782   2.410   6.234   1.991 -0.2606 -0.6579  0.9425
   99SAPC  H13B 9783   2.325   6.388   1.976 -1.7297 -0.4313 -1.5403
   99SAPC  H13C 9784   2.357   6.308   2.138 -1.7517  2.0053  0.8676
   99SAPC   C14 9785   2.179   6.215   1.871 -0.1378 -0.1078  0.2302
   99SAPC  H14A 9786   2.102   6.146   1.839 -0.1934  0.5620 -1.1336
   99SAPC  H14B 9787   2.163   6.314   1.831 -0.2122 -0.3546 -0.3708
   99SAPC  H14C 9788   2.265   6.174   1.819 -0.1265 -2.8360  2.1794
   99SAPC   C15 9789   2.094   6.302   2.081  0.6102  0.2877 -0.1321
   99SAPC  H15A 9790   2.110   6.308   2.188 -0.0051  0.7506 -0.0597
   99SAPC  H15B 9791   2.085   6.406   2.056 -0.7978  0.4288  0.7714
   99SAPC  H15C 9792   1.995   6.258   2.077 -0.1551  1.8497  0.5663
   99SAPC   C11 9793   2.228   6.059   2.222  0.6879 -0.9289 -1.2007
   99SAPC  H11A 9794   2.329   6.099   2.247  0.6811 -1.3218 -0.5343
   99SAPC  H11B 9795   2.228   5.952   2.252 -1.1146 -0.2911  1.3469
   99SAPC     P 9796   2.006   6.087   2.367  0.1270 -0.0755 -0.1989
   99SAPC   O13 9797   1.904   6.193   2.356 -0.6919 -0.3791  0.1138
   99SAPC   O14 9798   1.965   5.958   2.307  0.2848 -0.0104  0.0270
   99SAPC   O12 9799   2.137   6.136   2.302  0.2018 -0.5546 -0.0329
   99SAPC   O11 9800   2.056   6.053   2.517 -0.4837 -0.3916  0.2602
   99SAPC    C1 9801   1.983   6.025   2.634  0.1033 -0.2953  0.5348
   99SAPC    HA 9802   1.879   6.059   2.614  1.3709  1.8711 -3.4262
   99SAPC    HB 9803   1.996   5.917   2.656 -2.8563 -0.7102  0.5637
   99SAPC    C2 9804   2.034   6.102   2.760 -0.3002 -0.7982 -0.3796
   99SAPC    HS 9805   2.003   6.207   2.736  0.9661 -0.4978 -0.7900
   99SAPC   O21 9806   2.173   6.077   2.776 -0.1511 -0.5652 -0.0732
   99SAPC   C21 9807   2.242   6.192   2.808  0.1463  0.2653  0.4772
   99SAPC   O22 9808   2.201   6.306   2.792  0.3560 -0.3410 -0.4852
   99SAPC   C22 9809   2.376   6.161   2.862  0.4134 -0.7111  1.1639
   99SAPC   H2R 9810   2.460   6.184   2.793  0.5161  0.4244  1.6488
   99SAPC   H2S 9811   2.397   6.225   2.950  3.2371 -1.5638  1.2135
   99SAPC    C3 9812   1.951   6.042   2.888  0.5501  0.2393  0.0190
   99SAPC    HX 9813   1.973   5.934   2.901  0.2139  0.2104  0.3492
   99SAPC    HY 9814   1.844   6.045   2.858  1.0749  1.0277 -1.9794
   99SAPC   O31 9815   1.980   6.106   3.014 -0.2887 -0.3107  0.1171
   99SAPC   C31 9816   1.905   6.075   3.111  0.2997 -0.8426  0.0541
   99SAPC   O32 9817   1.798   6.017   3.104  0.3116 -0.0232  0.2921
   99SAPC   C32 9818   1.974   6.120   3.239  1.0828  0.2569 -0.0344
   99SAPC   H2X 9819   2.030   6.211   3.208 -0.0367  0.2780 -2.1659
   99SAPC   H2Y 9820   2.042   6.038   3.272 -0.0241 -0.9303 -0.6291
   99SAPC   C23 9821   2.395   6.014   2.908 -0.1272  0.3742 -0.0924
   99SAPC   H3R 9822   2.386   5.938   2.828 -1.7103 -0.5331  0.8953
   99SAPC   H3S 9823   2.314   5.984   2.977 -0.9438  2.5282 -0.0429
   99SAPC   C24 9824   2.538   6.003   2.978  0.7081  0.6440 -1.3356
   99SAPC   H4R 9825   2.551   5.900   3.019  0.9152  0.9253 -0.6754
   99SAPC   H4S 9826   2.543   6.080   3.058 -1.0464  0.8728 -1.4224
   99SAPC   C25 9827   2.651   6.023   2.877 -0.0748  0.4934 -0.2261
   99SAPC   H5R 9828   2.635   5.997   2.771  0.5777  0.8017 -0.4122
   99SAPC   C26 9829   2.769   6.092   2.900 -0.5182  0.1158  0.1096
   99SAPC   H6R 9830   2.840   6.100   2.817 -0.3865  1.9401  0.3593
   99SAPC   C27 9831   2.804   6.168   3.027 -0.2510  0.2706  0.7145
   99SAPC   H7R 9832   2.724   6.160   3.104  0.9299  0.6477  2.0258
   99SAPC   H7S 9833   2.815   6.275   3.000 -0.4343  0.0105 -0.4695
   99SAPC   C28 9834   2.934   6.119   3.092 -0.3240 -0.0961 -0.1881
   99SAPC   H8R 9835   3.025   6.141   3.035  1.5815  0.1783  2.7507
   99SAPC   C29 9836   2.951   6.066   3.214  0.1858 -0.0368  0.5406
   99SAPC   H9R 9837   3.055   6.047   3.247  0.5425 -0.6951 -0.8879
   99SAPC  C210 9838   2.848   6.034   3.317  0.3967  0.1554  0.1034
   99SAPC  H10R 9839   2.765   5.974   3.275 -0.7887  1.6039  0.2802
   99SAPC  H10S 9840   2.796   6.124   3.357 -1.2877 -1.0529  0.7622
   99SAPC  C211 9841   2.893   5.970   3.444  0.1458 -0.1859 -0.0689
   99SAPC  H11R 9842   2.887   5.860   3.443  0.7646 -0.2527  1.1832
   99SAPC  C212 9843   2.934   6.027   3.558 -0.4228  0.7285 -0.3438
   99SAPC  H12R 9844   2.962   5.963   3.643  2.7274 -0.0125 -1.7763
   99SAPC  C213 9845   2.951   6.173   3.578 -0.6535 -0.7105 -0.9489
   99SAPC  H13R 9846   2.849   6.214   3.589 -0.4496 -0.1561 -1.0830
   99SAPC  H13S 9847   2.994   6.224   3.489 -2.2785  0.7376 -0.9453
   99SAPC  C214 9848   3.036   6.205   3.700  0.0253  0.3915  0.4271
   99SAPC  H14R 9849   3.130   6.259   3.682  0.0049  1.1109  2.3246
   99SAPC  C215 9850   3.007   6.187   3.832  0.1274 -0.2000 -0.6255
   99SAPC  H15R 9851   3.088   6.214   3.901  0.0209 -1.8537  0.1964
   99SAPC  C216 9852   2.882   6.127   3.898  0.1200 -0.1081  0.8190
   99SAPC  H16R 9853   2.905   6.019   3.904  2.7019  0.3426  0.4571
   99SAPC  H16S 9854   2.793   6.137   3.832  1.3269  3.2920 -0.5123
   99SAPC  C217 9855   2.851   6.190   4.035 -0.1413 -0.2230 -0.0107
   99SAPC  H17R 9856   2.796   6.287   4.023 -1.3724 -0.9041 -0.0657
   99SAPC  H17S 9857   2.946   6.190   4.093  0.0530  1.4865 -0.2544
   99SAPC  C218 9858   2.768   6.095   4.124  0.3387 -0.4194  0.3401
   99SAPC  H18R 9859   2.824   6.002   4.149 -0.6474 -0.6686  1.7698
   99SAPC  H18S 9860   2.684   6.063   4.060 -2.0703  1.6498  2.2539
   99SAPC  C219 9861   2.721   6.163   4.253  0.2935 -0.3423  0.5957
   99SAPC  H19R 9862   2.665   6.092   4.318 -0.1108  1.1971  1.9890
   99SAPC  H19S 9863   2.646   6.240   4.224  0.3010 -0.7275 -0.5128
   99SAPC  C220 9864   2.837   6.231   4.332  0.1676  0.4147  0.1168
   99SAPC  H20R 9865   2.907   6.158   4.377  1.4548  0.9587 -0.9364
   99SAPC  H20S 9866   2.801   6.299   4.413  1.8657  0.7484  0.6373
   99SAPC  H20T 9867   2.885   6.301   4.260  1.1823 -0.9913 -0.6106
   99SAPC   C33 9868   1.870   6.155   3.351  0.1120  0.7116  0.8210
   99SAPC   H3X 9869   1.798   6.071   3.351 -0.1278  0.7130 -3.4284
   99SAPC   H3Y 9870   1.804   6.240   3.322 -1.3821 -0.1807  1.4798
   99SAPC   C34 9871   1.939   6.188   3.487  0.2365 -0.5973  0.0073
   99SAPC   H4X 9872   1.977   6.291   3.503  0.0262 -0.0391 -2.7415
   99SAPC   H4Y 9873   2.019   6.115   3.512 -0.3405 -1.3242 -0.2542
   99SAPC   C35 9874   1.835   6.175   3.604 -0.6752  0.7796  1.0149
   99SAPC   H5X 9875   1.794   6.072   3.608 -0.3533  0.5378 -1.0344
   99SAPC   H5Y 9876   1.756   6.250   3.583 -1.5728 -0.0442  1.4081
   99SAPC   C36 9877   1.898   6.196   3.745  0.3565 -0.3975 -0.6512
   99SAPC   H6X 9878   1.935   6.301   3.750  0.5409 -0.5242  1.6695
   99SAPC   H6Y 9879   1.995   6.144   3.756  0.5037 -0.1371 -0.6998
   99SAPC   C37 9880   1.810   6.158   3.862  0.1866  0.0150  0.2818
   99SAPC   H7X 9881   1.808   6.047   3.859 -0.9459 -0.0636  2.3085
   99SAPC   H7Y 9882   1.710   6.201   3.838 -0.5260 -1.7343 -0.0280
   99SAPC   C38 9883   1.874   6.207   3.991 -0.3486  0.2310  0.2788
   99SAPC   H8X 9884   1.926   6.305   3.989 -0.0804  0.0987  0.6630
   99SAPC   H8Y 9885   1.954   6.133   4.015 -0.3438  0.8529  2.2913
   99SAPC   C39 9886   1.776   6.202   4.112  0.4450 -0.0853 -0.4023
   99SAPC   H9X 9887   1.695   6.270   4.079 -0.1048  0.6914  2.3068
   99SAPC   H9Y 9888   1.829   6.255   4.193 -1.9052 -0.6896  1.6624
   99SAPC  C310 9889   1.722   6.061   4.145  0.0423  0.7011 -0.0202
   99SAPC  H10X 9890   1.666   6.004   4.068 -0.0940 -2.1750  2.0553
   99SAPC  H10Y 9891   1.651   6.085   4.228  0.2276 -1.0455  0.6861
   99SAPC  C311 9892   1.837   5.964   4.180 -0.2253  0.4902  0.8567
   99SAPC  H11X 9893   1.908   5.937   4.099 -1.7598 -0.5512 -0.1965
   99SAPC  H11Y 9894   1.782   5.870   4.202 -0.9319  1.2543  2.4861
   99SAPC  C312 9895   1.915   5.990   4.305 -0.0144 -0.0490 -0.9412
   99SAPC  H12X 9896   1.840   6.002   4.386  0.1194  1.6370 -1.0344
   99SAPC  H12Y 9897   1.953   6.094   4.298  1.1479 -0.2373  1.6535
   99SAPC  C313 9898   2.024   5.894   4.346  0.0119  0.2812  0.0138
   99SAPC  H13X 9899   2.081   5.955   4.420  0.5781  0.9701 -0.9804
   99SAPC  H13Y 9900   2.089   5.887   4.257 -0.2570  0.5653 -0.2070
   99SAPC  C314 9901   1.983   5.762   4.408 -0.3982  0.9229  0.2132
   99SAPC  H14X 9902   2.060   5.687   4.383 -2.1579  0.0730 -3.2797
   99SAPC  H14Y 9903   1.894   5.729   4.350  0.3017 -0.8559  0.0967
   99SAPC  C315 9904   1.957   5.770   4.562 -0.5710  0.5933  0.1483
   99SAPC  H15X 9905   1.909   5.675   4.593  1.0444 -0.2318  0.2090
   99SAPC  H15Y 9906   1.884   5.851   4.586  0.5718  1.2516  1.6216
   99SAPC  C316 9907   2.081   5.795   4.643 -0.4555  0.0354 -0.0746
   99SAPC  H16X 9908   2.124   5.897   4.634  0.1747 -0.1391  0.7429
   99SAPC  H16Y 9909   2.159   5.731   4.597 -2.3533 -0.6479 -2.5392
   99SAPC  C317 9910   2.056   5.761   4.785 -0.5098  0.1321 -0.3285
   99SAPC  H17X 9911   2.026   5.655   4.799 -2.2201  0.3615 -1.8880
   99SAPC  H17Y 9912   1.961   5.807   4.821 -0.6459 -1.7648  2.0335
   99SAPC  C318 9913   2.177   5.788   4.881 -0.0082  0.3086 -0.3447
   99SAPC  H18X 9914   2.208   5.895   4.881 -1.1623  0.7162 -2.6820
   99SAPC  H18Y 9915   2.262   5.725   4.849  1.3710  0.4898  2.6217
   99SAPC  H18Z 9916   2.158   5.773   4.989  0.4019  3.0108  0.1826
  100SAPC     N 9917   1.216   6.104   1.866  0.1107  0.4113  0.0522
  100SAPC   C12 9918   1.154   6.126   2.003 -0.2397  0.1746  0.0239
  100SAPC  H12A 9919   1.223   6.102   2.083 -1.1059 -2.5517  0.0368
  100SAPC  H12B 9920   1.083   6.046   2.016 -0.7955  0.8497  1.3325
  100SAPC   C13 9921   1.272   5.960   1.859  0.3284 -0.1533 -0.2669
  100SAPC  H13A 9922   1.285   5.934   1.755  0.7876  1.4624 -0.6456
  100SAPC  H13B 9923   1.363   5.950   1.915 -0.2013  0.0859  0.6586
  100SAPC  H13C 9924   1.198   5.888   1.892  1.0527 -0.2767  1.1760
  100SAPC   C14 9925   1.115   6.115   1.756 -0.2606 -0.4381  0.1814
  100SAPC  H14A 9926   1.152   6.084   1.659  0.4125  1.0234 -0.0478
  100SAPC  H14B 9927   1.033   6.050   1.784 -1.7082  1.7488  1.2134
  100SAPC  H14C 9928   1.080   6.217   1.753 -1.5162 -0.8637 -1.8172
  100SAPC   C15 9929   1.323   6.204   1.849 -0.5862 -0.0358 -0.3372
  100SAPC  H15A 9930   1.286   6.305   1.852 -1.1750 -0.2693  1.4346
  100SAPC  H15B 9931   1.399   6.199   1.926 -0.5556 -0.1069 -0.3708
  100SAPC  H15C 9932   1.369   6.181   1.754 -0.9500  1.0766 -0.7949
  100SAPC   C11 9933   1.095   6.262   2.035  0.4999  0.5808 -0.0506
  100SAPC  H11A 9934   1.051   6.250   2.136  1.7440 -1.4289  0.3058
  100SAPC  H11B 9935   1.009   6.281   1.967 -0.3922 -0.3886  0.7705
  100SAPC     P 9936   1.251   6.420   2.162 -0.1302  0.1032 -0.0784
  100SAPC   O13 9937   1.397   6.458   2.139 -0.5228  0.3613 -0.8217
  100SAPC   O14 9938   1.166   6.522   2.221  0.4828 -0.0160  0.9572
  100SAPC   O12 9939   1.188   6.368   2.028  0.1358 -0.6612 -0.2847
  100SAPC   O11 9940   1.247   6.292   2.258 -0.2815 -0.2321 -0.4804
  100SAPC    C1 9941   1.294   6.295   2.394 -0.6113 -0.5299  0.6664
  100SAPC    HA 9942   1.321   6.194   2.433 -0.7500 -0.8812 -0.1318
  100SAPC    HB 9943   1.393   6.345   2.404 -0.6075 -0.7593  1.9831
  100SAPC    C2 9944   1.193   6.351   2.501  0.3867  0.4803  0.8615
  100SAPC    HS 9945   1.138   6.433   2.450 -0.3783 -0.6147 -0.1180
  100SAPC   O21 9946   1.277   6.387   2.617  0.1106 -0.6173 -0.2976
  100SAPC   C21 9947   1.211   6.475   2.691  0.8884  0.2403  0.1801
  100SAPC   O22 9948   1.101   6.518   2.665 -0.1801 -0.0717 -0.0338
  100SAPC   C22 9949   1.297   6.525   2.807 -0.6610 -0.5734  0.1932
  100SAPC   H2R 9950   1.310   6.440   2.877  1.3181 -1.9962 -1.7516
  100SAPC   H2S 9951   1.400   6.541   2.766  0.5179  0.7659  3.3775
  100SAPC    C3 9952   1.086   6.237   2.533 -0.0904 -0.6014  0.5048
  100SAPC    HX 9953   1.146   6.148   2.562  1.9193  0.1609 -1.0231
  100SAPC    HY 9954   1.047   6.209   2.433  3.1396 -2.0146 -0.5085
  100SAPC   O31 9955   0.975   6.277   2.624  0.5027 -0.2170 -0.1744
  100SAPC   C31 9956   0.880   6.346   2.560 -0.0809 -0.3543 -0.1843
  100SAPC   O32 9957   0.884   6.387   2.446 -0.2391  0.7535  0.1510
  100SAPC   C32 9958   0.761   6.372   2.656 -0.7752 -0.0741 -0.0731
  100SAPC   H2X 9959   0.701   6.279   2.665  2.1000 -2.2059 -1.1594
  100SAPC   H2Y 9960   0.713   6.461   2.610  2.8414  2.4294  0.5484
  100SAPC   C23 9961   1.253   6.656   2.880  0.3989  0.5145  0.0902
  100SAPC   H3R 9962   1.158   6.642   2.935 -0.3273 -1.3980 -1.5329
  100SAPC   H3S 9963   1.225   6.725   2.798 -1.8859 -0.9715 -0.4501
  100SAPC   C24 9964   1.369   6.720   2.965  0.2447 -0.5000  0.7938
  100SAPC   H4R 9965   1.350   6.830   2.969  0.2451 -0.5082  1.0304
  100SAPC   H4S 9966   1.466   6.719   2.910  0.6688  1.4181  1.4217
  100SAPC   C25 9967   1.395   6.646   3.092  0.8000  0.9586 -0.4145
  100SAPC   H5R 9968   1.407   6.537   3.087 -2.0770  0.5688 -0.2335
  100SAPC   C26 9969   1.385   6.689   3.214 -0.3129 -0.7419 -0.7177
  100SAPC   H6R 9970   1.407   6.619   3.296  0.7098 -0.6108 -0.8596
  100SAPC   C27 9971   1.354   6.830   3.263  0.2319  0.2522 -0.3373
  100SAPC   H7R 9972   1.391   6.904   3.188  0.2148  0.1245 -0.4712
  100SAPC   H7S 9973   1.415   6.859   3.351 -0.2725  3.9245 -1.0020
  100SAPC   C28 9974   1.212   6.868   3.304  0.2597  0.0240  0.5392
  100SAPC   H8R 9975   1.146   6.897   3.220  0.0183 -1.6591  0.1142
  100SAPC   C29 9976   1.182   6.887   3.430  0.4160 -0.8155 -0.5117
  100SAPC   H9R 9977   1.080   6.918   3.458  1.1363 -0.7001  2.1650
  100SAPC  C210 9978   1.258   6.863   3.560 -0.1093 -0.3880  0.5425
  100SAPC  H10R 9979   1.306   6.764   3.542 -0.7037 -1.1292  2.6867
  100SAPC  H10S 9980   1.182   6.837   3.637 -2.2535  1.4189 -0.8111
  100SAPC  C211 9981   1.351   6.974   3.607  0.0184 -0.1494 -0.0936
  100SAPC  H11R 9982   1.400   7.040   3.534  2.2297 -0.5700  0.9132
  100SAPC  C212 9983   1.397   6.990   3.732 -0.5349 -0.8443  0.0561
  100SAPC  H12R 9984   1.467   7.070   3.760  0.4174 -0.3250 -3.3104
  100SAPC  C213 9985   1.349   6.907   3.850 -0.4873  0.0629  0.0635
  100SAPC  H13R 9986   1.393   6.806   3.863  0.4313  0.7031  2.5505
  100SAPC  H13S 9987   1.243   6.886   3.825  0.2968 -0.6721 -3.0427
  100SAPC  C214 9988   1.339   6.976   3.986  0.5742  0.4845  0.2662
  100SAPC  H14R 9989   1.284   7.071   3.992  0.9456  0.6280  1.8412
  100SAPC  C215 9990   1.422   6.952   4.089 -0.4827  0.6637 -0.3451
  100SAPC  H15R 9991   1.414   7.000   4.187 -0.4104 -1.1011  0.5755
  100SAPC  C216 9992   1.535   6.852   4.098  0.3743  0.3921  0.4592
  100SAPC  H16R 9993   1.619   6.891   4.160  0.5511 -1.6473  1.5762
  100SAPC  H16S 9994   1.575   6.831   3.997 -1.6697  1.0460 -0.5385
  100SAPC  C217 9995   1.502   6.709   4.161 -0.6929  0.7566  0.2464
  100SAPC  H17R 9996   1.501   6.648   4.068  1.5427  1.3280 -0.2208
  100SAPC  H17S 9997   1.399   6.711   4.201 -0.8725 -0.9035 -0.0679
  100SAPC  C218 9998   1.603   6.662   4.270 -0.4725 -0.3181  0.2702
  100SAPC  H18R 9999   1.578   6.723   4.359 -1.1564 -2.4585  1.6220
  100SAPC  H18S10000   1.708   6.685   4.240 -1.6906  2.4760 -2.4027
  100SAPC  C21910001   1.593   6.515   4.303 -0.9836 -0.4468 -0.4128
  100SAPC  H19R10002   1.615   6.441   4.224  0.8978 -1.0721  0.6190
  100SAPC  H19S10003   1.491   6.506   4.346  0.6632 -1.3680  3.8673
  100SAPC  C22010004   1.668   6.465   4.430  0.6500  0.2581  0.2118
  100SAPC  H20R10005   1.650   6.520   4.525  1.6040  0.6419  0.1739
  100SAPC  H20S10006   1.778   6.477   4.420  0.6326  0.9753  0.8204
  100SAPC  H20T10007   1.646   6.358   4.450  0.7244  0.4303  1.2708
  100SAPC   C3310008   0.803   6.415   2.797 -0.6062 -0.4216 -0.4183
  100SAPC   H3X10009   0.899   6.469   2.788  0.1357 -1.6232  0.0601
  100SAPC   H3Y10010   0.821   6.332   2.869  0.0343 -0.8050 -1.0002
  100SAPC   C3410011   0.716   6.527   2.854  0.1315 -0.0862  0.0196
  100SAPC   H4X10012   0.617   6.493   2.892 -0.0548 -0.5163 -0.8333
  100SAPC   H4Y10013   0.689   6.594   2.769 -2.1166 -2.7161 -1.4977
  100SAPC   C3510014   0.779   6.600   2.979 -0.1612  0.7120 -0.1066
  100SAPC   H5X10015   0.704   6.679   3.002 -0.0128  0.3348  1.9589
  100SAPC   H5Y10016   0.874   6.650   2.954  0.8170 -0.3425  1.3018
  100SAPC   C3610017   0.795   6.501   3.095  0.0922 -0.1910  0.2237
  100SAPC   H6X10018   0.836   6.562   3.179  0.3487 -0.7739  0.5291
  100SAPC   H6Y10019   0.866   6.422   3.063  1.7410  1.3907 -0.1920
  100SAPC   C3710020   0.662   6.445   3.150 -0.1338  0.1451 -0.4633
  100SAPC   H7X10021   0.632   6.358   3.089 -0.6559 -0.5010  0.6876
  100SAPC   H7Y10022   0.579   6.518   3.161  0.5612  0.6838  1.8336
  100SAPC   C3810023   0.666   6.384   3.289  0.2776 -0.0539  0.2321
  100SAPC   H8X10024   0.758   6.322   3.294  0.6542  0.5955  2.1514
  100SAPC   H8Y10025   0.588   6.308   3.308  0.1763 -0.0285 -0.0703
  100SAPC   C3910026   0.663   6.479   3.411  0.1326 -0.0823  0.2020
  100SAPC   H9X10027   0.582   6.552   3.390  1.0604 -0.0781 -4.3613
  100SAPC   H9Y10028   0.756   6.541   3.417 -0.4345  0.9047 -0.7628
  100SAPC  C31010029   0.631   6.398   3.533  0.9146 -0.6405  0.2044
  100SAPC  H10X10030   0.535   6.346   3.518  1.1272 -1.0194  0.1425
  100SAPC  H10Y10031   0.624   6.470   3.617  3.5794 -0.0700  0.0341
  100SAPC  C31110032   0.736   6.296   3.580  0.0911 -0.2693  1.0404
  100SAPC  H11X10033   0.838   6.339   3.585 -0.2102  0.4682  0.9987
  100SAPC  H11Y10034   0.744   6.218   3.501  1.2721  0.4310  0.4337
  100SAPC  C31210035   0.694   6.229   3.712  0.1807 -0.1608  0.3164
  100SAPC  H12X10036   0.756   6.142   3.744 -1.0235 -0.0252  3.4160
  100SAPC  H12Y10037   0.592   6.187   3.715  0.4434 -0.7752  0.9327
  100SAPC  C31310038   0.705   6.323   3.835  0.0017  0.3600 -0.1296
  100SAPC  H13X10039   0.628   6.402   3.819 -0.2443  0.5609  1.8010
  100SAPC  H13Y10040   0.803   6.376   3.836  1.0194 -1.2840  3.8896
  100SAPC  C31410041   0.668   6.252   3.964  0.7415  0.4686  0.1411
  100SAPC  H14X10042   0.571   6.199   3.961 -0.7034  2.9380  0.4938
  100SAPC  H14Y10043   0.661   6.320   4.052 -0.3439  0.2277  0.2502
  100SAPC  C31510044   0.784   6.166   4.024  0.1468  0.8157  0.2436
  100SAPC  H15X10045   0.880   6.223   4.023 -0.1057  1.2454 -1.1486
  100SAPC  H15Y10046   0.808   6.088   3.948  1.3614  1.1419  0.2711
  100SAPC  C31610047   0.746   6.113   4.159 -0.5887 -0.0336 -0.3537
  100SAPC  H16X10048   0.639   6.093   4.180 -0.1779 -0.8419  1.1005
  100SAPC  H16Y10049   0.787   6.197   4.220 -0.3111 -0.3191 -0.1425
  100SAPC  C31710050   0.812   5.979   4.205  0.2349  0.3844  0.1197
  100SAPC  H17X10051   0.922   5.996   4.207  0.0806  1.3250  1.4835
  100SAPC  H17Y10052   0.795   5.894   4.135 -1.2786  0.3932  0.4465
  100SAPC  C31810053   0.765   5.952   4.341  0.6211  0.1511  0.0249
  100SAPC  H18X10054   0.795   6.031   4.413  0.2054 -1.1544  1.6808
  100SAPC  H18Y10055   0.822   5.863   4.377  0.4428  0.2579  0.5769
  100SAPC  H18Z10056   0.658   5.929   4.359  0.1191  1.4645 -1.0860
  101OSM      N10057   0.391   0.802   7.006 -0.6615  0.0231  0.7563
  101OSM    C1510058   0.485   0.723   7.094 -0.0153  0.0677  0.0188
  101OSM   H15A10059   0.591   0.725   7.073  0.4155 -2.6015  1.5082
  101OSM   H15B10060   0.449   0.622   7.105 -1.3360  0.7764  3.4039
  101OSM   H15C10061   0.486   0.759   7.196  1.0109 -0.5209  0.2316
  101OSM    C1410062   0.249   0.782   7.063  0.0419  0.1936  0.0951
  101OSM   H14A10063   0.248   0.804   7.168  3.0429 -0.2918  0.3143
  101OSM   H14B10064   0.230   0.676   7.054  2.4829 -0.3234  0.1535
  101OSM   H14C10065   0.177   0.844   7.012 -0.7751  1.5877  2.7884
  101OSM    C1310066   0.433   0.945   7.011 -0.0453  0.6161 -0.3558
  101OSM   H13A10067   0.381   1.010   6.942 -0.4022  1.5179  0.7415
  101OSM   H13B10068   0.537   0.957   6.983  0.6920 -0.9641  1.4954
  101OSM   H13C10069   0.423   0.985   7.110  2.1532  1.8823 -0.5749
  101OSM    C1210070   0.395   0.754   6.863 -0.8062 -0.3816 -0.4952
  101OSM   H12A10071   0.329   0.795   6.788 -0.7076 -3.0294 -2.1894
  101OSM   H12B10072   0.370   0.649   6.873 -1.1456 -0.3296 -0.7885
  101OSM    C1110073   0.522   0.761   6.774  0.2316 -0.4246 -0.5501
  101OSM   H11A10074   0.484   0.721   6.677 -2.2654 -0.2589  0.2734
  101OSM   H11B10075   0.602   0.693   6.809  1.4159  1.2091  0.0043
  101OSM      P10076   0.706   0.919   6.687 -0.3107  0.4608  0.6471
  101OSM    O1310077   0.690   1.049   6.619 -0.5551 -0.3669 -0.2128
  101OSM    O1410078   0.821   0.908   6.779 -0.0733  0.1555 -0.1631
  101OSM    O1110079   0.718   0.801   6.582 -0.0929  0.7017 -0.1953
  101OSM    O1210080   0.572   0.892   6.759 -0.0255 -0.2299  0.3823
  101OSM    C1S10081   0.653   0.799   6.461  0.1123 -0.4970 -0.2708
  101OSM    H1S10082   0.621   0.900   6.427  2.9154  0.0238 -1.6031
  101OSM    H1T10083   0.560   0.738   6.471  0.3836 -0.8106  0.3709
  101OSM     NF10084   0.683   0.775   6.216  0.2541 -0.7557  0.8450
  101OSM    HNF10085   0.637   0.700   6.168  0.2722 -0.2931  0.0852
  101OSM    C2S10086   0.744   0.737   6.346 -0.3359 -0.2238 -0.5014
  101OSM    H2S10087   0.837   0.796   6.360 -0.2506  0.1271 -2.3109
  101OSM    C3S10088   0.770   0.589   6.368 -0.5313 -0.0211  0.0241
  101OSM    H3S10089   0.675   0.533   6.354 -1.5166  1.7360 -0.5733
  101OSM     O310090   0.807   0.549   6.499 -0.1446  0.0966  0.1998
  101OSM    HO310091   0.765   0.612   6.558 -0.4728 -0.8673  1.0189
  101OSM    C4S10092   0.848   0.537   6.250 -0.3440 -0.6069 -0.2457
  101OSM    H4S10093   0.788   0.516   6.161  0.9939 -0.9308 -1.0945
  101OSM    C5S10094   0.979   0.526   6.248 -0.2993 -0.4432 -0.1090
  101OSM    H5S10095   1.026   0.549   6.345 -2.3066  1.0080  0.5686
  101OSM    C6S10096   1.063   0.479   6.138 -0.2712 -0.3871  0.4355
  101OSM    H6S10097   1.104   0.378   6.159 -1.2555 -0.7477  0.6587
  101OSM    H6T10098   1.143   0.553   6.115 -1.5700  1.0677  0.3763
  101OSM    C7S10099   0.980   0.470   6.001 -0.4173  0.2555 -1.0444
  101OSM    H7S10100   0.943   0.573   5.981 -2.7191 -0.3412 -0.1998
  101OSM    H7T10101   0.895   0.400   6.010  1.3663 -1.8418  0.7333
  101OSM    C8S10102   1.053   0.424   5.881 -0.3215  0.4691  0.3659
  101OSM    H8S10103   1.079   0.318   5.901  2.3922  1.1823  0.9481
  101OSM    H8T10104   1.148   0.479   5.866 -0.8693  1.5050  0.5805
  101OSM    C9S10105   0.969   0.437   5.754  0.9061  0.2177 -0.0164
  101OSM    H9S10106   0.932   0.542   5.748  0.3483  0.0336  0.0606
  101OSM    H9T10107   0.883   0.367   5.766  0.2623  1.3170  2.6375
  101OSM   C10S10108   1.044   0.406   5.628  0.2161 -0.5647 -0.2807
  101OSM   H10S10109   1.085   0.302   5.623 -0.9183 -1.0557  0.3109
  101OSM   H10T10110   1.129   0.477   5.616 -1.0527  1.6631  2.7375
  101OSM   C11S10111   0.963   0.412   5.494 -0.0859  0.2788 -0.1893
  101OSM   H11S10112   0.905   0.507   5.485  0.6730  0.6538 -1.3100
  101OSM   H11T10113   0.889   0.330   5.479 -1.5291  1.5316 -0.1961
  101OSM   C12S10114   1.057   0.410   5.370  0.0478 -0.2718  0.3302
  101OSM   H12S10115   1.081   0.305   5.344  0.9046  0.2123 -0.9386
  101OSM   H12T10116   1.151   0.457   5.405 -0.3062  0.2896  0.5500
  101OSM   C13S10117   1.008   0.476   5.243 -0.3187  0.2290  0.6552
  101OSM   H13S10118   0.981   0.580   5.271 -1.3655 -0.1958  1.2578
  101OSM   H13T10119   0.925   0.425   5.191  0.3549 -0.3349  0.1173
  101OSM   C14S10120   1.122   0.479   5.140  0.7888 -0.4596  0.5017
  101OSM   H14S10121   1.173   0.380   5.144 -0.3512 -1.0547  3.6303
  101OSM   H14T10122   1.195   0.551   5.183 -0.6414  0.6286  1.1771
  101OSM   C15S10123   1.071   0.510   5.002  0.4157  0.2260 -0.9196
  101OSM   H15S10124   1.013   0.605   5.001  1.0607  0.6181 -1.5980
  101OSM   H15T10125   1.013   0.425   4.960  1.9587 -1.4181  0.1741
  101OSM   C16S10126   1.187   0.537   4.905  0.2517  0.5626  0.3353
  101OSM   H16S10127   1.272   0.594   4.949  1.1022  2.0994 -2.9744
  101OSM   H16T10128   1.153   0.593   4.816 -0.9300 -2.4134 -1.2162
  101OSM   C17S10129   1.254   0.405   4.861  0.1687  0.1457  0.3488
  101OSM   H17S10130   1.268   0.341   4.950  1.1382  0.1663  0.2157
  101OSM   H17T10131   1.359   0.422   4.829 -0.1732  0.3697 -0.7060
  101OSM   C18S10132   1.176   0.332   4.743 -0.3336 -0.1389  0.2076
  101OSM   H18S10133   1.238   0.253   4.697 -0.4088 -1.5042  2.3235
  101OSM   H18T10134   1.139   0.406   4.669  0.3970 -1.6552 -1.7696
  101OSM   H18U10135   1.095   0.276   4.795 -0.2391 -0.1477  0.3464
  101OSM    C1F10136   0.680   0.896   6.157  0.3256 -0.2313 -0.4226
  101OSM     OF10137   0.753   0.990   6.191 -0.6017  0.0269  0.2015
  101OSM    C2F10138   0.593   0.913   6.031 -0.0884  0.1079  0.5330
  101OSM    H2F10139   0.538   1.009   6.023  1.2635  0.9644  1.2493
  101OSM    H2G10140   0.516   0.833   6.029  0.8517 -0.8175  0.3425
  101OSM    C3F10141   0.694   0.883   5.919 -0.2052 -0.0298  0.7268
  101OSM    H3F10142   0.738   0.781   5.925 -1.6522 -0.6519  1.1344
  101OSM    H3G10143   0.774   0.961   5.929 -0.4862  0.1591  1.5660
  101OSM    C4F10144   0.625   0.896   5.782 -0.1272 -0.1943 -0.2713
  101OSM    H4F10145   0.586   1.000   5.774  0.8401  0.2160  0.2535
  101OSM    H4G10146   0.532   0.835   5.793 -0.8212  1.0752  1.3460
  101OSM    C5F10147   0.703   0.842   5.661 -0.0777 -0.2146  0.1584
  101OSM    H5F10148   0.725   0.739   5.694 -1.3233 -0.3631  0.5624
  101OSM    H5G10149   0.797   0.898   5.638 -0.8208  0.1777 -2.1428
  101OSM    C6F10150   0.619   0.842   5.531 -0.0145  0.6656 -0.3283
  101OSM    H6F10151   0.596   0.943   5.492  0.7737  1.1243  0.3567
  101OSM    H6G10152   0.519   0.795   5.547  0.7438 -0.6778  0.7514
  101OSM    C7F10153   0.701   0.764   5.427  0.1589 -0.3375 -0.5944
  101OSM    H7F10154   0.738   0.672   5.476 -1.1444 -2.1300 -2.7653
  101OSM    H7G10155   0.794   0.818   5.399  1.2096 -1.1819  1.1267
  101OSM    C8F10156   0.619   0.723   5.298  0.2472  0.0985  0.4449
  101OSM    H8F10157   0.540   0.799   5.284  1.4847  1.6401  1.4832
  101OSM    H8G10158   0.584   0.619   5.317  2.5986 -0.6365  1.1943
  101OSM    C9F10159   0.709   0.715   5.177 -0.6801  0.0408 -0.1278
  101OSM    H9F10160   0.783   0.796   5.173 -1.3915  0.6416 -3.0322
  101OSM   C10F10161   0.705   0.622   5.076  1.2994  0.2461 -0.6433
  101OSM   H10F10162   0.772   0.634   4.989  0.6808  0.5194 -1.0837
  101OSM   C11F10163   0.610   0.505   5.055 -0.3070 -0.0193  0.7295
  101OSM   H11F10164   0.516   0.536   5.005 -0.0090  1.1994  0.9080
  101OSM   H11G10165   0.585   0.456   5.152 -1.2225  0.4486  0.7336
  101OSM   C12F10166   0.682   0.404   4.959 -0.2348 -0.0697 -0.6226
  101OSM   H12F10167   0.755   0.342   5.016  1.1561  0.7102 -1.5073
  101OSM   H12G10168   0.727   0.455   4.871 -2.6497  0.3185 -1.7023
  101OSM   C13F10169   0.599   0.299   4.880 -0.4797  0.3590  0.1056
  101OSM   H13F10170   0.519   0.349   4.822  0.3313 -1.3437 -2.6381
  101OSM   H13G10171   0.554   0.230   4.954  0.9451 -1.4451 -0.6346
  101OSM   C14F10172   0.683   0.220   4.787 -0.0260 -0.3786  0.1939
  101OSM   H14F10173   0.765   0.276   4.737  2.9444 -2.5473  2.3111
  101OSM   H14G10174   0.615   0.181   4.708 -0.3755  0.7460 -0.0792
  101OSM   C15F10175   0.756   0.102   4.848  0.4009 -0.7770 -0.0564
  101OSM   H15F10176   0.690   0.051   4.921  1.2771  1.0188  2.1328
  101OSM   H15G10177   0.837   0.144   4.912 -2.1526  2.8051  1.1314
  101OSM   C16F10178   0.833   0.017   4.746  0.5718 -0.3614  0.3765
  101OSM   H16F10179   0.829   0.075   4.651  0.8807  2.0284  1.7194
  101OSM   H16G10180   0.768  -0.071   4.726  1.3641 -0.6951 -0.8414
  101OSM   C17F10181   0.970  -0.032   4.782 -0.1708  1.0372 -0.1082
  101OSM   H17F10182   1.031   0.054   4.817 -0.5734  0.1347  3.1089
  101OSM   H17G10183   1.024  -0.084   4.700 -0.6378  0.8680 -0.3127
  101OSM   C18F10184   0.974  -0.110   4.907  0.3310  0.1439  0.5347
  101OSM   H18F10185   1.073  -0.150   4.938  0.6813 -1.7977 -2.7073
  101OSM   H18G10186   0.905  -0.197   4.897  1.5155 -0.7147 -0.3617
  101OSM   H18H10187   0.941  -0.048   4.993  1.2214  0.2948  0.7799
  102OSM      N10188   1.105   0.563   6.750  0.1733  0.4013  0.2264
  102OSM    C1510189   1.170   0.675   6.839  0.4378 -0.5857  0.4087
  102OSM   H15A10190   1.134   0.675   6.941  0.4267 -1.5479  0.4117
  102OSM   H15B10191   1.149   0.765   6.783  2.3216  0.6017  1.5215
  102OSM   H15C10192   1.276   0.657   6.832  0.1867 -1.9416 -6.1942
  102OSM    C1410193   1.145   0.431   6.817 -0.0486  0.4610 -0.4227
  102OSM   H14A10194   1.253   0.427   6.808 -0.0150 -0.6005  0.2183
  102OSM   H14B10195   1.099   0.345   6.771  1.0786 -0.1336 -0.4869
  102OSM   H14C10196   1.122   0.434   6.922 -0.9797  0.3592 -0.6136
  102OSM    C1310197   0.962   0.592   6.758 -0.4073 -0.0973 -0.1356
  102OSM   H13A10198   0.905   0.524   6.696 -1.0988  0.3283  0.0307
  102OSM   H13B10199   0.944   0.693   6.727 -0.7114 -0.1689 -0.1963
  102OSM   H13C10200   0.929   0.595   6.861  1.0469  0.9065  0.3321
  102OSM    C1210201   1.156   0.585   6.608  1.0196  0.4003  0.1829
  102OSM   H12A10202   1.115   0.499   6.557  0.9210  0.3710  0.3097
  102OSM   H12B10203   1.263   0.571   6.608  0.8567 -1.5146 -2.2433
  102OSM    C1110204   1.134   0.722   6.529  0.4766  0.4274  0.8161
  102OSM   H11A10205   1.026   0.746   6.525  0.0020 -1.7088 -1.6633
  102OSM   H11B10206   1.172   0.704   6.426  0.3951 -0.3295  0.9101
  102OSM      P10207   1.329   0.901   6.538 -0.1490 -0.0558  0.3400
  102OSM    O1310208   1.347   1.024   6.618  0.5180  0.4711  0.4130
  102OSM    O1410209   1.438   0.802   6.520  0.0182  0.0227 -0.5439
  102OSM    O1110210   1.289   0.949   6.397 -0.1003  0.4050 -0.0809
  102OSM    O1210211   1.195   0.834   6.594 -0.1020  0.1362  0.2374
  102OSM    C1S10212   1.163   1.013   6.369  0.4424 -0.3475 -0.1330
  102OSM    H1S10213   1.165   1.122   6.391 -0.6165 -0.4200  0.3986
  102OSM    H1T10214   1.080   0.963   6.423  0.2968  0.9053  0.8466
  102OSM     NF10215   1.011   1.099   6.193  0.0087  0.1312 -0.6363
  102OSM    HNF10216   0.921   1.057   6.192 -0.3402  0.8859 -1.7334
  102OSM    C2S10217   1.129   1.017   6.217  0.0059  0.7722  1.0976
  102OSM    H2S10218   1.219   1.064   6.172  0.9708  0.5131  2.6616
  102OSM    C3S10219   1.120   0.873   6.166 -0.4568  0.0575  0.0899
  102OSM    H3S10220   1.048   0.816   6.228 -0.8843  0.1565 -0.3092
  102OSM     O310221   1.248   0.804   6.166  0.1707 -0.0643  0.3806
  102OSM    HO310222   1.288   0.859   6.233  0.5969  0.3935 -0.2308
  102OSM    C4S10223   1.065   0.878   6.023  0.1743  0.2300 -0.3801
  102OSM    H4S10224   0.956   0.869   6.013  0.2792 -0.8841 -0.6200
  102OSM    C5S10225   1.136   0.857   5.905  0.0344 -0.2952  0.4691
  102OSM    H5S10226   1.240   0.821   5.914 -0.3822 -1.2444  1.9071
  102OSM    C6S10227   1.070   0.848   5.773 -0.2593  0.8290 -0.7040
  102OSM    H6S10228   1.005   0.932   5.739 -3.2739 -1.0600  0.0226
  102OSM    H6T10229   0.988   0.775   5.790  1.6419 -1.7226 -1.7231
  102OSM    C7S10230   1.167   0.813   5.655  0.0110  0.4316  0.0902
  102OSM    H7S10231   1.216   0.721   5.694  0.0912  0.4773  0.0968
  102OSM    H7T10232   1.250   0.884   5.637  0.1990  0.2064  0.0539
  102OSM    C8S10233   1.096   0.779   5.521 -0.0319  0.4908 -0.0739
  102OSM    H8S10234   1.034   0.868   5.497 -2.3271 -0.1116  3.0747
  102OSM    H8T10235   1.020   0.704   5.550  1.2723 -0.9856 -0.3136
  102OSM    C9S10236   1.193   0.753   5.401  0.3963  0.1298 -0.1220
  102OSM    H9S10237   1.146   0.748   5.301 -0.0154 -0.3047  0.0917
  102OSM    H9T10238   1.238   0.652   5.417 -1.3743 -0.5835  0.6821
  102OSM   C10S10239   1.316   0.852   5.399  0.0521  0.1500  0.1336
  102OSM   H10S10240   1.385   0.837   5.485 -0.9131 -0.5814  0.8086
  102OSM   H10T10241   1.269   0.952   5.409  2.1278  1.2672 -0.7653
  102OSM   C11S10242   1.401   0.845   5.269  0.0744 -0.3353  0.5499
  102OSM   H11S10243   1.440   0.742   5.252 -0.1813 -0.3217 -0.1222
  102OSM   H11T10244   1.488   0.915   5.271 -0.0042 -0.2419  0.7833
  102OSM   C12S10245   1.324   0.871   5.138 -0.1049  0.0251  0.2173
  102OSM   H12S10246   1.264   0.963   5.149  1.6448  1.2096  0.2535
  102OSM   H12T10247   1.257   0.789   5.105  3.5031 -2.3072 -2.0435
  102OSM   C13S10248   1.418   0.887   5.021 -0.0175 -0.3964 -0.0981
  102OSM   H13S10249   1.503   0.816   5.030  1.3333  1.1072 -0.5179
  102OSM   H13T10250   1.472   0.984   5.025  1.3002 -1.0457 -1.0878
  102OSM   C14S10251   1.356   0.875   4.872  0.4399 -0.3679 -0.0523
  102OSM   H14S10252   1.306   0.776   4.865  0.4882 -0.5806  1.9222
  102OSM   H14T10253   1.438   0.885   4.797  0.9580 -0.1192  0.5346
  102OSM   C15S10254   1.240   0.978   4.850 -0.4621  0.6359 -0.4303
  102OSM   H15S10255   1.279   1.082   4.863  2.6447 -0.0819 -2.6940
  102OSM   H15T10256   1.160   0.954   4.923  0.2839 -1.4652 -0.2471
  102OSM   C16S10257   1.174   0.979   4.712  0.3507  0.1665 -0.6158
  102OSM   H16S10258   1.083   1.042   4.700  0.5319  0.0742 -2.7842
  102OSM   H16T10259   1.142   0.874   4.693  0.3490  0.2032 -0.8092
  102OSM   C17S10260   1.273   1.034   4.615  0.4911  0.2508  0.1369
  102OSM   H17S10261   1.362   0.968   4.607 -0.3260 -0.7835 -0.5947
  102OSM   H17T10262   1.296   1.136   4.653 -3.3540  1.7802 -1.1712
  102OSM   C18S10263   1.203   1.035   4.474 -0.5885 -0.4017  0.3759
  102OSM   H18S10264   1.135   0.948   4.461  0.9713 -1.7663  1.0042
  102OSM   H18T10265   1.280   1.032   4.395 -0.7723 -1.1166  0.2245
  102OSM   H18U10266   1.137   1.124   4.457  2.0775  1.5078 -0.6823
  102OSM    C1F10267   1.020   1.229   6.178 -0.4323 -0.3168  0.1148
  102OSM     OF10268   1.128   1.283   6.199 -0.2543  0.0193 -0.2518
  102OSM    C2F10269   0.897   1.295   6.123 -0.2375 -0.2117 -0.1794
  102OSM    H2F10270   0.867   1.372   6.197 -2.4835 -1.9802  0.8829
  102OSM    H2G10271   0.810   1.226   6.110  0.1413 -0.4405 -1.6973
  102OSM    C3F10272   0.908   1.386   5.996  0.3300  0.6010  0.1068
  102OSM    H3F10273   1.006   1.436   6.011  0.9374 -0.8868  1.4098
  102OSM    H3G10274   0.833   1.467   5.993 -1.1422 -0.6666  1.1158
  102OSM    C4F10275   0.895   1.303   5.862 -0.5137 -1.0869  0.3518
  102OSM    H4F10276   0.791   1.264   5.862 -1.3255  0.8090  2.7694
  102OSM    H4G10277   0.969   1.220   5.857  0.6435 -0.1047  0.7795
  102OSM    C5F10278   0.913   1.393   5.735  0.3508  0.0645 -0.7471
  102OSM    H5F10279   0.999   1.462   5.752 -0.7935  1.1959  0.7193
  102OSM    H5G10280   0.827   1.455   5.703  1.1864  3.4413  2.7826
  102OSM    C6F10281   0.959   1.301   5.623 -0.3148  0.8226  0.2217
  102OSM    H6F10282   1.018   1.216   5.664 -1.0090 -0.6164 -1.6256
  102OSM    H6G10283   1.017   1.359   5.549 -2.2110  0.3306 -1.7683
  102OSM    C7F10284   0.842   1.242   5.542  0.4691 -0.7030 -0.2503
  102OSM    H7F10285   0.797   1.328   5.488 -0.0358 -0.4826  0.5076
  102OSM    H7G10286   0.769   1.187   5.606 -2.1341  1.9397 -0.7574
  102OSM    C8F10287   0.887   1.142   5.440  0.0032 -0.5833  0.0820
  102OSM    H8F10288   0.909   1.049   5.497  0.5265 -0.1346  0.6362
  102OSM    H8G10289   0.983   1.157   5.386 -0.1378 -0.3278 -0.0970
  102OSM    C9F10290   0.765   1.108   5.346 -0.2715 -1.1452 -0.5578
  102OSM    H9F10291   0.666   1.105   5.395  0.8308 -0.8857  1.8158
  102OSM   C10F10292   0.772   1.093   5.212  0.1535 -0.3027  0.3217
  102OSM   H10F10293   0.682   1.052   5.165  0.2019  0.2576 -0.2797
  102OSM   C11F10294   0.901   1.089   5.130  0.1401  0.2092 -0.2023
  102OSM   H11F10295   0.898   1.014   5.049  0.2605  0.3269 -0.3157
  102OSM   H11G10296   0.975   1.049   5.203 -2.0763 -0.3568  1.8597
  102OSM   C12F10297   0.962   1.220   5.075  0.8515 -0.4465  0.9916
  102OSM   H12F10298   1.065   1.195   5.042  0.6685  2.1390 -2.0340
  102OSM   H12G10299   0.962   1.305   5.147 -0.6188 -0.4464  1.0220
  102OSM   C13F10300   0.890   1.256   4.944  1.4568  0.0455 -0.5250
  102OSM   H13F10301   0.784   1.277   4.969  1.8134  0.4913  0.6874
  102OSM   H13G10302   0.883   1.167   4.878 -3.9100 -1.5713  1.6581
  102OSM   C14F10303   0.945   1.382   4.881 -0.4829  0.1474  0.0063
  102OSM   H14F10304   0.966   1.450   4.966 -3.2511  1.6574 -0.3893
  102OSM   H14G10305   0.870   1.431   4.816  0.5807  2.0605  0.1714
  102OSM   C15F10306   1.074   1.355   4.798  0.1091 -0.1171  0.5790
  102OSM   H15F10307   1.038   1.297   4.709 -0.2509  0.3874  0.3935
  102OSM   H15G10308   1.148   1.297   4.857 -2.3491 -1.6491  2.3846
  102OSM   C16F10309   1.146   1.483   4.748  0.2729  0.1652 -0.7145
  102OSM   H16F10310   1.169   1.545   4.837  0.7270 -0.2314 -0.5555
  102OSM   H16G10311   1.075   1.545   4.688  0.9287  1.4356 -0.1994
  102OSM   C17F10312   1.262   1.462   4.658  0.2274 -0.3153  0.2152
  102OSM   H17F10313   1.230   1.431   4.556 -1.6264  2.2042 -0.0742
  102OSM   H17G10314   1.333   1.388   4.699  2.1415  1.6078  0.5991
  102OSM   C18F10315   1.342   1.595   4.637  0.2710  0.1391 -0.6721
  102OSM   H18F10316   1.435   1.589   4.577  1.1871  0.0754  0.7207
  102OSM   H18G10317   1.377   1.622   4.739 -0.1437 -0.1215 -0.4595
  102OSM   H18H10318   1.278   1.671   4.587  1.5001  1.6465 -0.0288
  103OSM      N10319   4.928   0.821   6.736  0.1181 -0.5326  0.5488
  103OSM    C1510320   4.998   0.710   6.815  0.4413 -0.3905  1.0268
  103OSM   H15A10321   4.968   0.725   6.918 -0.3601  1.7495  0.5319
  103OSM   H15B10322   5.103   0.736   6.816  0.4709 -0.2626 -1.2898
  103OSM   H15C10323   4.977   0.609   6.782 -1.0829  0.2931 -0.2116
  103OSM    C1410324   4.788   0.782   6.728 -0.2554 -0.6909  0.0295
  103OSM   H14A10325   4.769   0.706   6.653 -0.5865 -0.4645 -0.1179
  103OSM   H14B10326   4.729   0.864   6.691  0.0611 -1.7825 -3.1696
  103OSM   H14C10327   4.750   0.756   6.826 -0.7825  0.8934  0.2678
  103OSM    C1310328   4.943   0.942   6.806  0.2667 -0.2862  0.2691
  103OSM   H13A10329   4.894   0.951   6.902  0.7233 -1.1766  0.6009
  103OSM   H13B10330   4.913   1.027   6.748 -1.2013 -0.6775  0.4273
  103OSM   H13C10331   5.044   0.967   6.835  0.2959 -0.7744  0.6022
  103OSM    C1210332   4.974   0.838   6.589  0.1069  0.4652 -0.0340
  103OSM   H12A10333   4.986   0.739   6.547  0.7651 -0.1182  1.4658
  103OSM   H12B10334   5.077   0.872   6.591 -0.2035  1.5213 -0.9722
  103OSM    C1110335   4.900   0.925   6.494  0.1314  0.4762  0.0819
  103OSM   H11A10336   4.792   0.899   6.505  0.5058 -1.4931 -0.5396
  103OSM   H11B10337   4.911   0.886   6.391  1.3545 -1.9956  1.0648
  103OSM      P10338   5.056   1.117   6.451 -0.1508  0.0172  0.0573
  103OSM    O1310339   5.093   1.246   6.519  0.4775  0.0775 -0.1742
  103OSM    O1410340   5.165   1.016   6.453  0.4064 -0.2697 -0.6537
  103OSM    O1110341   5.022   1.159   6.304 -0.4086  0.4559  0.4234
  103OSM    O1210342   4.931   1.065   6.522  0.2760  0.8896  0.1660
  103OSM    C1S10343   4.884   1.189   6.280 -0.0622 -0.1689 -0.3648
  103OSM    H1S10344   4.875   1.292   6.322 -0.6555  0.2811 -1.5402
  103OSM    H1T10345   4.804   1.128   6.327  0.6081  0.7497  2.1537
  103OSM     NF10346   4.717   1.285   6.132 -0.2454  0.1914  0.3975
  103OSM    HNF10347   4.624   1.250   6.131  0.2980 -1.3143  0.5468
  103OSM    C2S10348   4.832   1.198   6.130  0.0564  0.2442 -0.8501
  103OSM    H2S10349   4.908   1.246   6.065 -0.1074  1.3904 -0.2349
  103OSM    C3S10350   4.824   1.050   6.081  0.2287  0.2770  0.0304
  103OSM    H3S10351   4.756   0.993   6.148  0.0411  1.7466  1.1434
  103OSM     O310352   4.952   0.989   6.080  0.3233  0.4603 -0.9242
  103OSM    HO310353   5.007   1.048   6.131  0.1553 -1.4763  1.7022
  103OSM    C4S10354   4.766   1.059   5.942 -0.1084  0.5959 -0.3292
  103OSM    H4S10355   4.658   1.082   5.932 -0.3373  0.1112  0.8629
  103OSM    C5S10356   4.831   1.064   5.821 -0.6917 -0.3873  0.2393
  103OSM    H5S10357   4.941   1.068   5.818 -0.6385 -0.9449  1.2531
  103OSM    C6S10358   4.760   1.099   5.692  0.0395 -0.6093  0.1991
  103OSM    H6S10359   4.819   1.181   5.646 -0.9218 -0.0919 -0.1482
  103OSM    H6T10360   4.652   1.122   5.701 -0.3685 -1.6773 -1.5145
  103OSM    C7S10361   4.761   0.982   5.587 -0.5757  0.0475  1.0123
  103OSM    H7S10362   4.663   0.934   5.609 -0.3006 -0.8993  0.2476
  103OSM    H7T10363   4.847   0.912   5.591  0.0363  0.0607 -4.4189
  103OSM    C8S10364   4.751   1.039   5.447 -0.0950 -0.1442 -0.8593
  103OSM    H8S10365   4.830   1.115   5.428 -0.4505 -0.1844 -2.7742
  103OSM    H8T10366   4.655   1.096   5.450 -0.0687 -0.1364  1.7257
  103OSM    C9S10367   4.749   0.919   5.349  0.4026  0.2762 -0.2655
  103OSM    H9S10368   4.656   0.873   5.388  0.2361  1.3711  0.6668
  103OSM    H9T10369   4.840   0.859   5.373  0.4011  0.6568  0.6941
  103OSM   C10S10370   4.739   0.952   5.204 -0.0467 -0.3512 -0.0474
  103OSM   H10S10371   4.837   0.992   5.172  1.3303 -1.9639  1.8680
  103OSM   H10T10372   4.660   1.030   5.192  1.4000  1.3398  0.9770
  103OSM   C11S10373   4.698   0.826   5.116  0.5356  0.2009 -0.5666
  103OSM   H11S10374   4.610   0.783   5.169  1.0594 -1.4035 -0.9212
  103OSM   H11T10375   4.777   0.747   5.113  0.8751  0.5460 -0.7102
  103OSM   C12S10376   4.631   0.865   4.981 -0.4129 -0.6560  0.2616
  103OSM   H12S10377   4.562   0.951   4.993 -2.6617 -2.1584 -1.1307
  103OSM   H12T10378   4.573   0.777   4.946 -2.6130  0.8814 -0.1561
  103OSM   C13S10379   4.721   0.901   4.863  0.0612 -0.1483 -0.2192
  103OSM   H13S10380   4.818   0.940   4.899 -0.3513  1.2904 -0.5740
  103OSM   H13T10381   4.665   0.978   4.805  1.6096  0.4218 -1.0157
  103OSM   C14S10382   4.768   0.784   4.780  0.1908  0.3061  0.1117
  103OSM   H14S10383   4.690   0.706   4.762  2.4268 -1.7942 -1.0644
  103OSM   H14T10384   4.834   0.724   4.846  0.9157 -0.8546 -1.5811
  103OSM   C15S10385   4.831   0.815   4.654 -0.0972 -0.1002  0.1362
  103OSM   H15S10386   4.923   0.871   4.680 -0.1186 -0.8187  1.8547
  103OSM   H15T10387   4.764   0.889   4.605 -0.6392 -1.2112 -0.8489
  103OSM   C16S10388   4.851   0.698   4.559  0.3178 -0.0869 -0.4361
  103OSM   H16S10389   4.752   0.654   4.535  0.7739 -0.6788 -1.2881
  103OSM   H16T10390   4.907   0.613   4.604  1.3445  0.6453 -0.3093
  103OSM   C17S10391   4.915   0.735   4.419 -0.1440  0.3732 -0.6270
  103OSM   H17S10392   4.947   0.840   4.431  0.5934  0.3742 -2.3268
  103OSM   H17T10393   4.828   0.730   4.350 -0.6319 -4.9649 -0.0677
  103OSM   C18S10394   5.019   0.643   4.363  0.1076 -0.3789  0.3982
  103OSM   H18S10395   4.970   0.548   4.332 -1.9816  1.0565 -0.9944
  103OSM   H18T10396   5.104   0.624   4.432  0.1879  0.0256  0.4129
  103OSM   H18U10397   5.058   0.680   4.265  2.5354 -2.7211  0.3296
  103OSM    C1F10398   4.721   1.417   6.142  0.6961  0.2654 -0.3037
  103OSM     OF10399   4.827   1.473   6.137 -0.2485  0.2997  0.8349
  103OSM    C2F10400   4.593   1.492   6.151 -0.3852  0.0236 -0.5522
  103OSM    H2F10401   4.611   1.601   6.160  0.1081 -0.0836 -0.1937
  103OSM    H2G10402   4.537   1.470   6.245  1.5947 -1.0470  0.4384
  103OSM    C3F10403   4.503   1.462   6.030 -0.6728  0.3304 -0.0457
  103OSM    H3F10404   4.408   1.512   6.058 -1.0237 -1.7725  3.0376
  103OSM    H3G10405   4.473   1.357   6.014  0.4897 -0.5857  3.0661
  103OSM    C4F10406   4.551   1.515   5.894  0.6114 -0.0630  0.4537
  103OSM    H4F10407   4.657   1.485   5.882  0.1160 -1.3754 -0.9416
  103OSM    H4G10408   4.539   1.625   5.902 -0.5631 -0.0505 -0.9708
  103OSM    C5F10409   4.458   1.463   5.789 -0.3142  0.5042  0.2307
  103OSM    H5F10410   4.353   1.484   5.818 -0.6900 -3.4763  2.4506
  103OSM    H5G10411   4.484   1.355   5.794 -0.1643  0.5942  2.5664
  103OSM    C6F10412   4.488   1.521   5.645 -0.0301 -0.1201 -1.1329
  103OSM    H6F10413   4.596   1.497   5.636  0.1945 -0.5110  1.7320
  103OSM    H6G10414   4.475   1.632   5.642 -1.6610 -0.2963 -1.3909
  103OSM    C7F10415   4.407   1.469   5.536 -0.6480 -0.3309 -0.1885
  103OSM    H7F10416   4.312   1.525   5.520 -0.1638  0.7773  0.7430
  103OSM    H7G10417   4.388   1.362   5.560  0.0981 -0.6495 -0.9462
  103OSM    C8F10418   4.468   1.482   5.394  0.1931 -0.9552  0.0450
  103OSM    H8F10419   4.490   1.589   5.374  2.2084 -1.1510  0.9412
  103OSM    H8G10420   4.391   1.459   5.318  0.0845 -0.9306  0.1466
  103OSM    C9F10421   4.575   1.386   5.361 -0.8240 -0.9007 -0.0734
  103OSM    H9F10422   4.605   1.316   5.440  0.7999 -0.8454 -0.6026
  103OSM   C10F10423   4.657   1.397   5.249  0.3467  0.6303  0.0265
  103OSM   H10F10424   4.731   1.318   5.234 -1.4863 -1.6327  1.9181
  103OSM   C11F10425   4.633   1.497   5.140 -0.4850 -0.0043  0.3289
  103OSM   H11F10426   4.693   1.589   5.157 -0.8517  0.5073 -0.9685
  103OSM   H11G10427   4.528   1.532   5.132  0.0876  1.9679  0.9348
  103OSM   C12F10428   4.676   1.450   5.000 -0.6104 -0.3071 -0.8642
  103OSM   H12F10429   4.777   1.405   5.004  0.0398  1.1531 -0.1068
  103OSM   H12G10430   4.670   1.540   4.935  1.0302  0.7713  0.3977
  103OSM   C13F10431   4.585   1.350   4.931  0.1007  0.4390 -0.2930
  103OSM   H13F10432   4.514   1.410   4.872 -1.1575 -0.4546  0.2612
  103OSM   H13G10433   4.523   1.298   5.008 -1.2052  2.3330 -0.0149
  103OSM   C14F10434   4.665   1.251   4.849  0.8508  0.7025  0.0110
  103OSM   H14F10435   4.595   1.174   4.811  1.0267  0.4021  0.2878
  103OSM   H14G10436   4.738   1.194   4.911  2.9977  0.5279 -2.5325
  103OSM   C15F10437   4.739   1.306   4.730 -0.4947  0.7752  0.8834
  103OSM   H15F10438   4.841   1.336   4.763  1.4015 -2.1701 -1.5789
  103OSM   H15G10439   4.680   1.390   4.687 -2.2776 -1.4143 -1.2748
  103OSM   C16F10440   4.751   1.188   4.625 -0.1908  0.6163 -0.5485
  103OSM   H16F10441   4.654   1.136   4.608  0.9145 -1.7699 -0.0150
  103OSM   H16G10442   4.823   1.114   4.667  0.9653  2.6603  1.2769
  103OSM   C17F10443   4.800   1.233   4.494  0.5117 -0.4919 -0.3896
  103OSM   H17F10444   4.903   1.271   4.510 -0.0172  0.1626  1.6766
  103OSM   H17G10445   4.735   1.314   4.456 -0.3613 -1.6884 -1.5832
  103OSM   C18F10446   4.799   1.131   4.370  0.2092  0.5890  0.0787
  103OSM   H18F10447   4.697   1.098   4.340  0.2004  0.1668  0.5552
  103OSM   H18G10448   4.863   1.043   4.395 -1.9558 -0.6907  1.4108
  103OSM   H18H10449   4.841   1.178   4.278  1.0827  0.0958  0.2039
  104OSM      N10450   5.476   2.074   7.039 -0.7841 -0.2484  0.8404
  104OSM    C1510451   5.543   1.958   7.113  0.8999 -0.0852 -0.8068
  104OSM   H15A10452   5.484   1.868   7.110 -0.2616  0.6178 -0.2453
  104OSM   H15B10453   5.560   1.978   7.218  2.7585 -1.1100 -0.8828
  104OSM   H15C10454   5.638   1.931   7.071  1.6132 -1.7807  1.6574
  104OSM    C1410455   5.334   2.081   7.093  0.0393  0.2328 -0.8629
  104OSM   H14A10456   5.277   2.153   7.036 -0.6091  2.6585  2.5359
  104OSM   H14B10457   5.342   2.111   7.197 -1.3194 -3.0242  0.3084
  104OSM   H14C10458   5.285   1.985   7.097 -2.4204  1.4182 -0.2723
  104OSM    C1310459   5.558   2.191   7.069  0.3581 -0.7534  0.7284
  104OSM   H13A10460   5.571   2.216   7.173  0.4658  0.4615  0.4424
  104OSM   H13B10461   5.514   2.277   7.021 -1.0870 -1.8299  0.0426
  104OSM   H13C10462   5.659   2.184   7.032  0.3192  0.8834  0.2071
  104OSM    C1210463   5.481   2.038   6.895  0.0321  0.2037  0.2060
  104OSM   H12A10464   5.448   1.937   6.876  2.5946 -0.4214 -1.5654
  104OSM   H12B10465   5.586   2.046   6.868  0.3127  0.6437  1.3402
  104OSM    C1110466   5.412   2.133   6.795 -0.3359 -0.0152  0.0383
  104OSM   H11A10467   5.437   2.097   6.693  2.3093  0.5118  0.4409
  104OSM   H11B10468   5.476   2.222   6.811  0.3142 -0.6159  0.8401
  104OSM      P10469   5.156   2.059   6.763  0.3985 -0.2186 -0.2616
  104OSM    O1310470   5.170   1.928   6.830  0.8351  0.6078  0.7865
  104OSM    O1410471   5.027   2.134   6.779 -0.3585  0.8256  0.2081
  104OSM    O1110472   5.189   2.042   6.607  0.0879 -0.3185  0.2440
  104OSM    O1210473   5.270   2.155   6.818 -0.2294 -0.1324  0.5278
  104OSM    C1S10474   5.150   2.143   6.514  0.0338  0.7650  0.3104
  104OSM    H1S10475   5.232   2.217   6.500  0.9839 -0.4335 -0.6522
  104OSM    H1T10476   5.065   2.200   6.556 -1.7086 -1.1255 -0.5048
  104OSM     NF10477   5.086   2.174   6.268 -0.6368 -0.3395 -0.8909
  104OSM    HNF10478   4.991   2.185   6.240 -1.0902 -2.7627 -0.5623
  104OSM    C2S10479   5.110   2.078   6.374 -0.3367 -0.1091  0.6959
  104OSM    H2S10480   5.197   2.018   6.341  0.4986  1.1570  0.5673
  104OSM    C3S10481   4.991   1.969   6.391 -0.9776 -0.1581  0.6436
  104OSM    H3S10482   4.901   2.019   6.432 -1.3676  0.4999 -0.9614
  104OSM     O310483   5.036   1.863   6.474  0.2341  0.2180 -0.1027
  104OSM    HO310484   5.111   1.902   6.520 -0.3505  1.5680 -0.2383
  104OSM    C4S10485   4.955   1.900   6.267 -0.2399 -0.4515  0.6374
  104OSM    H4S10486   5.025   1.820   6.238 -1.0701 -1.7184  2.0017
  104OSM    C5S10487   4.849   1.918   6.187  0.3450 -0.2462 -0.4558
  104OSM    H5S10488   4.777   1.996   6.214  0.1671 -0.2742 -0.8425
  104OSM    C6S10489   4.823   1.836   6.064  0.1133 -0.0204  1.0228
  104OSM    H6S10490   4.725   1.784   6.067  0.8293 -1.3991  3.1864
  104OSM    H6T10491   4.881   1.742   6.048 -1.1815 -0.7815  0.6168
  104OSM    C7S10492   4.840   1.911   5.924  0.0922 -0.5351  0.1938
  104OSM    H7S10493   4.948   1.937   5.924 -0.2289  0.8933  0.9359
  104OSM    H7T10494   4.782   2.006   5.927 -1.1411 -1.1995 -1.2716
  104OSM    C8S10495   4.806   1.825   5.798  0.3587  0.1069  0.3532
  104OSM    H8S10496   4.704   1.781   5.808 -0.3451  1.4716 -0.6156
  104OSM    H8T10497   4.875   1.739   5.812 -0.1727 -0.0772  2.0979
  104OSM    C9S10498   4.834   1.893   5.668 -0.5400 -0.2558  0.8350
  104OSM    H9S10499   4.941   1.923   5.668 -0.4217 -0.4655 -1.6049
  104OSM    H9T10500   4.772   1.985   5.658 -0.0288 -0.0746 -1.1398
  104OSM   C10S10501   4.811   1.809   5.540  0.0401  0.4492  0.1708
  104OSM   H10S10502   4.710   1.763   5.548  0.0293  0.1205 -1.5394
  104OSM   H10T10503   4.879   1.721   5.540  0.7424  0.9829  0.4836
  104OSM   C11S10504   4.834   1.893   5.415 -0.3761  0.2025 -0.2908
  104OSM   H11S10505   4.937   1.935   5.406 -0.7347  1.7921  2.1194
  104OSM   H11T10506   4.767   1.981   5.403  2.2677  2.2634 -0.8504
  104OSM   C12S10507   4.830   1.807   5.286  0.8476 -0.2104  0.0721
  104OSM   H12S10508   4.725   1.770   5.276  1.0263 -0.6594 -0.1559
  104OSM   H12T10509   4.877   1.710   5.313 -0.0113 -1.7313 -3.3580
  104OSM   C13S10510   4.868   1.886   5.167  0.2010  0.6074 -0.8707
  104OSM   H13S10511   4.970   1.926   5.182  0.1480  1.1444 -1.8154
  104OSM   H13T10512   4.798   1.972   5.161  1.0703  1.3928 -0.0586
  104OSM   C14S10513   4.864   1.798   5.048 -0.0867  0.2075  0.4468
  104OSM   H14S10514   4.758   1.776   5.024  0.2442  0.5582 -1.5069
  104OSM   H14T10515   4.912   1.702   5.078 -1.7574 -0.8005  0.0089
  104OSM   C15S10516   4.940   1.863   4.927 -0.9846  0.3478 -0.5420
  104OSM   H15S10517   5.042   1.898   4.954 -1.1022  0.6243 -0.4538
  104OSM   H15T10518   4.877   1.949   4.895 -0.5902  1.1319  0.7057
  104OSM   C16S10519   4.950   1.766   4.813  0.3468 -0.5518  0.2774
  104OSM   H16S10520   4.985   1.667   4.850  1.9496  0.1019  0.5883
  104OSM   H16T10521   5.015   1.796   4.729  0.9680 -0.7059  0.6969
  104OSM   C17S10522   4.809   1.756   4.753 -0.4779 -0.3869  0.4156
  104OSM   H17S10523   4.777   1.855   4.715 -1.8144 -1.1456 -0.5625
  104OSM   H17T10524   4.730   1.717   4.821 -0.6149  0.0849  0.5309
  104OSM   C18S10525   4.802   1.661   4.629 -0.2113 -0.0430  0.1651
  104OSM   H18S10526   4.695   1.641   4.605 -1.3311  3.0760  1.9071
  104OSM   H18T10527   4.853   1.566   4.652 -2.6883 -1.7516 -0.9516
  104OSM   H18U10528   4.858   1.703   4.543  0.4108 -0.3673  0.4118
  104OSM    C1F10529   5.192   2.239   6.213 -0.5887 -0.1297 -0.4209
  104OSM     OF10530   5.302   2.248   6.270  0.2053 -0.1447  0.3896
  104OSM    C2F10531   5.179   2.288   6.073  0.1470 -0.0430 -0.5749
  104OSM    H2F10532   5.118   2.380   6.077 -1.7712 -1.2885  0.7395
  104OSM    H2G10533   5.118   2.208   6.023  0.1554 -1.0017  0.8852
  104OSM    C3F10534   5.314   2.323   5.999  0.3503 -0.2563 -0.6305
  104OSM    H3F10535   5.379   2.233   5.995  1.5534  0.5899 -0.4567
  104OSM    H3G10536   5.358   2.398   6.068  0.3214 -2.3290  1.7918
  104OSM    C4F10537   5.289   2.378   5.861 -0.0960 -0.1221 -0.0348
  104OSM    H4F10538   5.223   2.466   5.879 -1.7314 -1.2867 -0.1086
  104OSM    H4G10539   5.220   2.310   5.806 -1.2385 -0.0103  1.2116
  104OSM    C5F10540   5.423   2.435   5.804 -0.5611 -0.1466  0.6572
  104OSM    H5F10541   5.496   2.353   5.787  0.4483  1.0173 -0.7762
  104OSM    H5G10542   5.466   2.510   5.874 -2.4598  0.3473  1.3688
  104OSM    C6F10543   5.408   2.511   5.664  0.0934  0.3062 -0.7349
  104OSM    H6F10544   5.336   2.592   5.685  0.9079  1.0814 -0.8624
  104OSM    H6G10545   5.368   2.447   5.583 -1.6276  1.4316 -0.8177
  104OSM    C7F10546   5.543   2.566   5.613 -0.1910  0.6643 -0.3989
  104OSM    H7F10547   5.615   2.484   5.632 -0.7339  0.3310  0.2737
  104OSM    H7G10548   5.575   2.655   5.671 -0.2032  0.5244 -0.1766
  104OSM    C8F10549   5.547   2.618   5.468  0.5095 -0.9075 -0.0463
  104OSM    H8F10550   5.648   2.661   5.454 -0.2427  0.5443 -1.3982
  104OSM    H8G10551   5.468   2.695   5.483 -0.2527 -1.5375 -0.6867
  104OSM    C9F10552   5.508   2.508   5.364 -0.1496  0.2543  0.7791
  104OSM    H9F10553   5.571   2.419   5.378  0.7034  1.0952  2.5214
  104OSM   C10F10554   5.423   2.509   5.256 -0.7458 -0.5301  0.0008
  104OSM   H10F10555   5.419   2.415   5.199  2.3787  0.0745 -1.4499
  104OSM   C11F10556   5.349   2.633   5.199 -0.2176  0.3756  0.3587
  104OSM   H11F10557   5.393   2.721   5.250  1.0876  1.2964 -2.1833
  104OSM   H11G10558   5.246   2.612   5.234  0.0870 -1.6206  0.1693
  104OSM   C12F10559   5.355   2.650   5.037  0.0767 -0.1350 -0.0991
  104OSM   H12F10560   5.290   2.732   4.998  1.1730  0.8205  0.0397
  104OSM   H12G10561   5.311   2.559   4.991 -0.4436 -1.6091  3.0639
  104OSM   C13F10562   5.489   2.656   4.971 -0.3578  0.2923 -0.5699
  104OSM   H13F10563   5.528   2.553   4.979 -0.5294  0.3334  1.0750
  104OSM   H13G10564   5.552   2.729   5.025 -1.2591  0.8313 -0.2187
  104OSM   C14F10565   5.477   2.700   4.828  0.2241  0.5033  0.7177
  104OSM   H14F10566   5.436   2.803   4.828 -0.0044  0.5265 -2.5406
  104OSM   H14G10567   5.412   2.620   4.787 -0.5842  1.3178  0.3804
  104OSM   C15F10568   5.615   2.692   4.751  0.5273 -0.2119 -0.2039
  104OSM   H15F10569   5.698   2.646   4.808  0.3725  2.1901  2.1544
  104OSM   H15G10570   5.652   2.797   4.756  2.3054 -0.8667  3.2633
  104OSM   C16F10571   5.610   2.641   4.607 -0.0529 -0.8397  0.9603
  104OSM   H16F10572   5.518   2.681   4.559  0.7071  0.5541  0.6102
  104OSM   H16G10573   5.594   2.532   4.620  1.0578 -1.0641  0.5464
  104OSM   C17F10574   5.739   2.687   4.539 -0.4272 -0.4282 -0.0367
  104OSM   H17F10575   5.824   2.671   4.609 -0.4905  1.5019  0.5649
  104OSM   H17G10576   5.733   2.796   4.516  0.2016  0.4409  3.3348
  104OSM   C18F10577   5.747   2.610   4.416 -0.4771  0.3948 -0.6026
  104OSM   H18F10578   5.710   2.507   4.432  0.3980 -0.0550 -1.4233
  104OSM   H18G10579   5.851   2.613   4.379  0.4212 -1.0625  1.5859
  104OSM   H18H10580   5.671   2.646   4.343 -1.7263  0.9027  0.8840
  105OSM      N10581   2.336   2.778   7.070 -0.1654 -0.0507  0.2836
  105OSM    C1510582   2.198   2.734   7.112  0.6717  0.6119 -0.1272
  105OSM   H15A10583   2.202   2.626   7.116 -1.8090  0.3577 -2.1537
  105OSM   H15B10584   2.129   2.751   7.030  0.9818  0.2723 -0.4612
  105OSM   H15C10585   2.159   2.774   7.204  1.4248  2.7724 -0.6771
  105OSM    C1410586   2.352   2.922   7.096  0.1447  0.0611 -0.0262
  105OSM   H14A10587   2.322   2.945   7.197  0.3122 -0.7976  0.2300
  105OSM   H14B10588   2.269   2.972   7.048 -0.7573 -1.8860 -0.6197
  105OSM   H14C10589   2.450   2.953   7.063  1.2716 -2.4984  0.6276
  105OSM    C1310590   2.448   2.708   7.146 -0.2500 -0.5229  0.3578
  105OSM   H13A10591   2.442   2.743   7.248  0.1386 -0.0748  0.2337
  105OSM   H13B10592   2.543   2.743   7.109 -0.2364  0.7501  1.5146
  105OSM   H13C10593   2.440   2.601   7.139 -1.5855 -0.3925 -0.6112
  105OSM    C1210594   2.353   2.743   6.920  0.4854 -0.3899  0.1297
  105OSM   H12A10595   2.350   2.636   6.908  1.1472 -0.7176  2.4291
  105OSM   H12B10596   2.447   2.786   6.886  0.4796  0.2548  0.8896
  105OSM    C1110597   2.233   2.801   6.834 -0.6568  0.1484  0.1837
  105OSM   H11A10598   2.268   2.807   6.729 -2.1602 -0.0675 -0.3522
  105OSM   H11B10599   2.228   2.907   6.867  1.3909 -0.0369  1.2615
  105OSM      P10600   1.983   2.809   6.793  0.1414 -0.1440 -0.1353
  105OSM    O1310601   1.877   2.710   6.824  0.3880  0.4771  0.4742
  105OSM    O1410602   1.980   2.948   6.837  0.2689 -0.4433 -0.1108
  105OSM    O1110603   1.996   2.817   6.634 -0.0544 -0.2307 -0.8474
  105OSM    O1210604   2.110   2.738   6.853  0.4532  0.2567  0.3264
  105OSM    C1S10605   2.042   2.710   6.547  0.3694  0.1575  0.7795
  105OSM    H1S10606   1.973   2.622   6.548  0.2553  0.2092 -0.6608
  105OSM    H1T10607   2.136   2.663   6.582  0.0894 -0.8851  0.1728
  105OSM     NF10608   2.155   2.659   6.338 -0.7664 -0.3495  0.0549
  105OSM    HNF10609   2.248   2.680   6.309 -2.0647  1.2132 -3.5610
  105OSM    C2S10610   2.078   2.765   6.408  0.5701 -0.1171 -0.6386
  105OSM    H2S10611   1.981   2.778   6.355  0.4770 -0.7457 -0.6323
  105OSM    C3S10612   2.141   2.906   6.413 -1.1439 -0.7978 -0.3588
  105OSM    H3S10613   2.236   2.903   6.470 -2.1287  2.1871  1.6511
  105OSM     O310614   2.080   3.006   6.491 -0.3393  0.0398  0.8759
  105OSM    HO310615   2.044   2.947   6.557  2.7540 -2.1002  0.8245
  105OSM    C4S10616   2.165   2.945   6.271  0.0011  0.0393 -0.2983
  105OSM    H4S10617   2.252   2.890   6.234 -0.6201  0.0949 -1.9173
  105OSM    C5S10618   2.084   3.018   6.186  0.2319 -0.8924  0.4517
  105OSM    H5S10619   1.984   3.054   6.212  0.9461  1.1035  0.6172
  105OSM    C6S10620   2.104   3.042   6.034  0.0080  0.0092  0.1720
  105OSM    H6S10621   2.144   3.145   6.026 -1.7749  0.7820  0.7612
  105OSM    H6T10622   2.013   3.043   5.971  0.2905  0.5489 -0.2355
  105OSM    C7S10623   2.204   2.951   5.962 -0.2322 -0.7129 -0.3687
  105OSM    H7S10624   2.163   2.849   5.975 -1.8509  0.2105  2.7087
  105OSM    H7T10625   2.300   2.966   6.016 -1.5546  1.7987  1.4917
  105OSM    C8S10626   2.229   2.973   5.807  0.3239 -0.5661 -0.5464
  105OSM    H8S10627   2.143   2.937   5.745  2.5130 -1.3680 -3.3320
  105OSM    H8T10628   2.304   2.892   5.791  2.5551  1.4934 -1.0481
  105OSM    C9S10629   2.280   3.110   5.776  0.0654 -0.8029  0.2201
  105OSM    H9S10630   2.371   3.135   5.836  2.5608  1.1805 -3.9322
  105OSM    H9T10631   2.204   3.187   5.803  2.0999  0.8829  1.4637
  105OSM   C10S10632   2.324   3.124   5.628 -0.6612  0.4324 -0.1898
  105OSM   H10S10633   2.247   3.077   5.562 -1.4867  0.7842  0.5092
  105OSM   H10T10634   2.415   3.063   5.610 -2.0315 -2.0709  0.8639
  105OSM   C11S10635   2.341   3.263   5.566  0.5775 -0.3170 -0.1223
  105OSM   H11S10636   2.418   3.313   5.628  0.5942 -1.1681  0.5477
  105OSM   H11T10637   2.247   3.320   5.583  1.3933  0.5526  1.7680
  105OSM   C12S10638   2.367   3.268   5.414  0.9249  0.1734 -0.5611
  105OSM   H12S10639   2.422   3.173   5.396 -2.2664 -2.4904  2.4089
  105OSM   H12T10640   2.427   3.358   5.387  0.6121  1.5684  2.8766
  105OSM   C13S10641   2.240   3.267   5.320  0.3490 -0.1526 -0.1048
  105OSM   H13S10642   2.164   3.325   5.375  0.2363 -0.7497  0.3816
  105OSM   H13T10643   2.201   3.164   5.306  0.0891  0.0304 -0.7281
  105OSM   C14S10644   2.259   3.307   5.168 -0.0411  0.0319  0.0954
  105OSM   H14S10645   2.167   3.265   5.124  0.4202 -2.6070  1.4803
  105OSM   H14T10646   2.349   3.255   5.130  0.8740  1.5453  0.1013
  105OSM   C15S10647   2.271   3.452   5.148 -0.5566 -0.7276  0.1601
  105OSM   H15S10648   2.377   3.478   5.169 -1.2960  0.9586  2.2680
  105OSM   H15T10649   2.201   3.502   5.219 -0.7166  0.8009 -1.0064
  105OSM   C16S10650   2.241   3.483   5.005 -0.3365 -0.2310 -0.2497
  105OSM   H16S10651   2.220   3.592   4.992 -0.5422 -0.1059  1.0472
  105OSM   H16T10652   2.151   3.424   4.976 -0.3980 -1.1128  1.5829
  105OSM   C17S10653   2.362   3.444   4.918 -0.1710  0.0108 -0.1418
  105OSM   H17S10654   2.374   3.336   4.940 -1.0449 -0.0553  0.0523
  105OSM   H17T10655   2.453   3.495   4.957  0.6433 -0.9727 -0.7002
  105OSM   C18S10656   2.341   3.476   4.766 -0.8745 -0.2472 -0.4450
  105OSM   H18S10657   2.235   3.463   4.737 -0.6532 -1.6420 -0.7147
  105OSM   H18T10658   2.410   3.419   4.700 -0.2060  0.4548 -0.3750
  105OSM   H18U10659   2.368   3.582   4.749  0.8956 -0.7315 -0.9045
  105OSM    C1F10660   2.106   2.538   6.306  0.4740  0.0716  0.5865
  105OSM     OF10661   1.993   2.506   6.335  0.1534 -0.1298 -0.0935
  105OSM    C2F10662   2.195   2.441   6.235  0.9591  0.2025 -1.3436
  105OSM    H2F10663   2.182   2.344   6.289  0.5992  1.2561  0.5745
  105OSM    H2G10664   2.301   2.471   6.235  1.0099  0.0842 -2.6394
  105OSM    C3F10665   2.152   2.400   6.092 -0.6404 -0.7256 -0.0219
  105OSM    H3F10666   2.043   2.378   6.094 -0.7172 -0.3618 -0.0500
  105OSM    H3G10667   2.198   2.304   6.062 -3.8696 -2.3915 -0.0177
  105OSM    C4F10668   2.177   2.517   5.991  0.4573  0.2543  0.2404
  105OSM    H4F10669   2.281   2.541   5.959  1.0228  0.8595  2.3751
  105OSM    H4G10670   2.127   2.606   6.034  2.5834  1.2066  0.9050
  105OSM    C5F10671   2.106   2.481   5.859  0.1432 -0.2024 -0.1389
  105OSM    H5F10672   1.996   2.479   5.875  0.3150  0.3002  1.2237
  105OSM    H5G10673   2.142   2.385   5.816  1.3356  0.4236 -0.5771
  105OSM    C6F10674   2.128   2.599   5.761  0.2940 -0.6097  0.2983
  105OSM    H6F10675   2.238   2.602   5.748  0.2019  3.3175 -0.6047
  105OSM    H6G10676   2.092   2.696   5.801 -0.9796 -1.3736  1.0834
  105OSM    C7F10677   2.064   2.561   5.627  0.5632  0.1488  0.6380
  105OSM    H7F10678   1.957   2.584   5.650  0.8825  1.5094  0.7986
  105OSM    H7G10679   2.080   2.451   5.621  0.2022  0.1155  0.1487
  105OSM    C8F10680   2.131   2.624   5.505  0.3583 -0.2325 -0.0791
  105OSM    H8F10681   2.070   2.584   5.421 -0.7216 -0.0953  0.6247
  105OSM    H8G10682   2.232   2.578   5.498 -0.3045 -1.8265  0.3700
  105OSM    C9F10683   2.134   2.775   5.504  0.4164  0.9615  0.3708
  105OSM    H9F10684   2.074   2.827   5.580 -0.4092 -0.0360  0.4330
  105OSM   C10F10685   2.180   2.846   5.401  0.8273 -0.1271 -0.0215
  105OSM   H10F10686   2.176   2.956   5.408  1.5445 -0.1583  1.0189
  105OSM   C11F10687   2.243   2.794   5.273  0.0844  0.4339  0.0647
  105OSM   H11F10688   2.174   2.723   5.221 -1.2491 -0.3815  2.7594
  105OSM   H11G10689   2.336   2.744   5.307 -0.3156 -1.1390 -1.0088
  105OSM   C12F10690   2.276   2.908   5.174  0.6055  0.3395 -0.6432
  105OSM   H12F10691   2.350   2.971   5.227 -0.1881 -0.4112  1.4867
  105OSM   H12G10692   2.184   2.962   5.141 -0.7763 -1.5382 -0.0467
  105OSM   C13F10693   2.328   2.834   5.052  0.3165  0.2425  0.6626
  105OSM   H13F10694   2.243   2.776   5.010  0.1190  0.9031  0.1208
  105OSM   H13G10695   2.406   2.767   5.094 -0.1093  0.1620  1.3320
  105OSM   C14F10696   2.385   2.934   4.948  0.5621  0.2328 -0.2034
  105OSM   H14F10697   2.466   2.997   4.990 -1.2302  0.5437  3.0809
  105OSM   H14G10698   2.318   3.017   4.916  1.1783  0.5522 -0.7001
  105OSM   C15F10699   2.416   2.860   4.810  0.3095 -0.4306 -0.9804
  105OSM   H15F10700   2.315   2.847   4.764  0.0441 -0.7325 -0.3188
  105OSM   H15G10701   2.448   2.755   4.826  0.1330 -0.1755  1.3403
  105OSM   C16F10702   2.506   2.944   4.729  0.1866  0.4850  0.9752
  105OSM   H16F10703   2.582   2.878   4.681  0.2341  1.4534 -0.3403
  105OSM   H16G10704   2.561   3.017   4.792 -0.9308  0.4011  2.0828
  105OSM   C17F10705   2.429   3.023   4.621  0.3768 -0.8049 -0.4737
  105OSM   H17F10706   2.341   3.080   4.658 -0.3285 -1.5181 -1.0260
  105OSM   H17G10707   2.382   2.951   4.551 -1.3668  0.4258 -0.6470
  105OSM   C18F10708   2.520   3.106   4.541 -0.0823  0.5618 -0.1000
  105OSM   H18F10709   2.543   3.196   4.602 -0.9291 -0.0157  1.0890
  105OSM   H18G10710   2.463   3.131   4.449 -0.2851  0.3882 -0.0219
  105OSM   H18H10711   2.616   3.056   4.514 -0.5934  0.4617 -1.8798
  106OSM      N10712   1.481   6.475   7.009 -0.0913 -0.2413  0.3004
  106OSM    C1510713   1.611   6.482   6.953  0.1090 -0.3276 -0.2535
  106OSM   H15A10714   1.652   6.582   6.942  0.4225 -0.5877 -1.6870
  106OSM   H15B10715   1.613   6.449   6.850 -0.2338 -2.1705  0.3053
  106OSM   H15C10716   1.679   6.444   7.028  0.4134 -0.6625 -0.6976
  106OSM    C1410717   1.384   6.550   6.917  0.3633  0.8374  0.3673
  106OSM   H14A10718   1.401   6.657   6.924  1.7851  0.5388  1.7849
  106OSM   H14B10719   1.284   6.533   6.955  0.2678  2.4568  0.9316
  106OSM   H14C10720   1.392   6.518   6.814 -0.1921 -1.7946  1.0710
  106OSM    C1310721   1.448   6.332   7.012  0.4549 -0.2996  0.2577
  106OSM   H13A10722   1.507   6.273   7.080  0.4818 -1.5509 -0.8126
  106OSM   H13B10723   1.454   6.279   6.918 -1.6283 -1.7812  0.8944
  106OSM   H13C10724   1.345   6.316   7.038  0.4590  0.5825  0.8428
  106OSM    C1210725   1.488   6.537   7.148  0.0514 -0.0561 -0.5270
  106OSM   H12A10726   1.545   6.466   7.207 -3.4394 -1.8353  1.0518
  106OSM   H12B10727   1.394   6.541   7.201 -0.3409 -0.7341 -1.1546
  106OSM    C1110728   1.543   6.681   7.169  0.3472 -0.6346 -0.0396
  106OSM   H11A10729   1.648   6.681   7.133 -0.1185 -0.3828 -1.4337
  106OSM   H11B10730   1.560   6.706   7.276  0.7440  0.0855 -0.2644
  106OSM      P10731   1.339   6.853   7.174  0.2011  0.2801  0.6265
  106OSM    O1310732   1.281   6.759   7.278 -0.0414  0.4261 -0.9554
  106OSM    O1410733   1.366   6.992   7.208  0.6243 -1.0584  0.7043
  106OSM    O1110734   1.231   6.856   7.055 -0.3705  0.4433 -0.5199
  106OSM    O1210735   1.463   6.785   7.110  0.0682 -0.9081 -0.1655
  106OSM    C1S10736   1.274   6.904   6.927 -0.4340  0.4182  0.0723
  106OSM    H1S10737   1.360   6.843   6.893  0.5542  2.1433 -0.7099
  106OSM    H1T10738   1.302   7.012   6.919  1.3807  0.0560  1.1015
  106OSM     NF10739   1.203   6.917   6.689  0.2290 -0.1205  0.8555
  106OSM    HNF10740   1.165   6.997   6.641  0.8036 -0.9236 -1.0401
  106OSM    C2S10741   1.161   6.874   6.818  0.0574 -0.7068 -0.2726
  106OSM    H2S10742   1.129   6.768   6.817  0.7359 -0.9264  0.3577
  106OSM    C3S10743   1.027   6.943   6.859 -0.2162  0.4765  0.0588
  106OSM    H3S10744   1.056   7.050   6.871  2.1621 -0.0203 -0.6953
  106OSM     O310745   0.978   6.900   6.987  0.0911  0.5267 -1.0386
  106OSM    HO310746   1.055   6.857   7.025 -0.5657  1.0479  1.0449
  106OSM    C4S10747   0.911   6.927   6.761 -0.1889 -0.0245 -0.3430
  106OSM    H4S10748   0.869   7.026   6.737 -0.0733  0.1248  0.0643
  106OSM    C5S10749   0.863   6.813   6.704 -0.1673 -0.2530  0.6782
  106OSM    H5S10750   0.913   6.716   6.720  0.1179 -0.0792  0.8494
  106OSM    C6S10751   0.741   6.815   6.605 -0.3231 -0.2219  0.6335
  106OSM    H6S10752   0.679   6.907   6.611 -1.0263 -0.7657  2.2393
  106OSM    H6T10753   0.676   6.732   6.640  0.5831 -0.5836  1.4967
  106OSM    C7S10754   0.783   6.783   6.462  0.8172 -0.5895 -0.0908
  106OSM    H7S10755   0.699   6.779   6.390  0.9887 -3.2363 -0.2503
  106OSM    H7T10756   0.825   6.682   6.442  0.6579 -0.7946  0.5637
  106OSM    C8S10757   0.883   6.886   6.403 -0.0761 -0.2995  0.2871
  106OSM    H8S10758   0.978   6.881   6.461 -0.6146  2.3245  1.5811
  106OSM    H8T10759   0.839   6.988   6.405 -1.7167 -0.9942  1.0747
  106OSM    C9S10760   0.929   6.870   6.262  0.2524  0.1358 -0.9679
  106OSM    H9S10761   0.990   6.780   6.240 -0.3782 -0.3086 -0.9143
  106OSM    H9T10762   1.000   6.955   6.249  1.6448 -0.3982  2.2088
  106OSM   C10S10763   0.827   6.881   6.152 -0.3465 -0.1057 -0.5403
  106OSM   H10S10764   0.770   6.973   6.176 -1.3985 -0.6396 -0.9125
  106OSM   H10T10765   0.758   6.794   6.154  0.3984 -0.7896 -2.4827
  106OSM   C11S10766   0.882   6.899   6.008  0.0980 -0.2911 -0.7440
  106OSM   H11S10767   0.939   6.808   5.978 -2.7349 -1.1618 -4.3292
  106OSM   H11T10768   0.934   6.996   5.994 -0.5956  0.3798  1.0823
  106OSM   C12S10769   0.751   6.906   5.918  0.0492  1.4575  0.3416
  106OSM   H12S10770   0.693   6.992   5.958 -2.5422 -0.8731  1.9332
  106OSM   H12T10771   0.693   6.812   5.928 -0.8242  2.0951  1.4935
  106OSM   C13S10772   0.791   6.922   5.769 -0.9608  0.0278 -0.1894
  106OSM   H13S10773   0.865   7.004   5.759 -0.9378 -0.0375 -0.5817
  106OSM   H13T10774   0.701   6.940   5.707 -2.2704 -3.8953  0.2543
  106OSM   C14S10775   0.847   6.803   5.698 -0.7982  0.5644  0.2500
  106OSM   H14S10776   0.778   6.717   5.711  0.4794 -0.1963  2.5618
  106OSM   H14T10777   0.947   6.785   5.745 -0.1297  1.9862 -0.5465
  106OSM   C15S10778   0.882   6.840   5.557  0.2367  0.0776  1.1322
  106OSM   H15S10779   0.956   6.923   5.568  0.4605 -0.4479  5.1877
  106OSM   H15T10780   0.796   6.890   5.509  0.7877  0.1654  0.2095
  106OSM   C16S10781   0.927   6.723   5.472  0.7442 -0.5876 -0.8802
  106OSM   H16S10782   1.007   6.680   5.537 -0.6641  0.4553  1.7174
  106OSM   H16T10783   0.971   6.747   5.374 -0.2529 -2.2820 -1.7992
  106OSM   C17S10784   0.810   6.630   5.441 -0.2145 -0.3471 -0.9105
  106OSM   H17S10785   0.723   6.689   5.404 -0.3083 -0.3011 -0.6165
  106OSM   H17T10786   0.791   6.573   5.535  2.5689  1.2169  0.7060
  106OSM   C18S10787   0.843   6.526   5.344 -0.2150 -0.4895 -0.0657
  106OSM   H18S10788   0.935   6.472   5.376 -1.2697 -1.5100  1.3747
  106OSM   H18T10789   0.855   6.569   5.242  0.9662  0.3291  0.3928
  106OSM   H18U10790   0.765   6.448   5.329 -1.8761  0.7909  1.3893
  106OSM    C1F10791   1.290   6.849   6.617  0.1295 -0.3242 -0.5685
  106OSM     OF10792   1.338   6.741   6.655  0.5751 -0.0327  0.1145
  106OSM    C2F10793   1.330   6.918   6.485  0.1446 -0.1548 -0.3192
  106OSM    H2F10794   1.430   6.963   6.506  1.2657 -1.8374 -1.7665
  106OSM    H2G10795   1.253   6.996   6.466  0.6945  0.5720  0.3412
  106OSM    C3F10796   1.329   6.819   6.368  0.1265 -0.2284  0.6943
  106OSM    H3F10797   1.226   6.778   6.364 -0.9335  2.2842 -2.5373
  106OSM    H3G10798   1.403   6.738   6.387 -1.4496 -1.2552  2.8425
  106OSM    C4F10799   1.327   6.891   6.229 -0.0651 -0.1145  0.8590
  106OSM    H4F10800   1.430   6.930   6.216 -0.6047  1.1289  0.0311
  106OSM    H4G10801   1.252   6.972   6.245 -0.8308 -1.1861  2.9807
  106OSM    C5F10802   1.290   6.812   6.110  0.0923  0.1695  0.1264
  106OSM    H5F10803   1.194   6.766   6.140 -0.1880  1.2368  0.8976
  106OSM    H5G10804   1.350   6.720   6.091  0.2826  0.2729  0.2151
  106OSM    C6F10805   1.283   6.889   5.968  0.0112  0.0457 -0.1242
  106OSM    H6F10806   1.381   6.934   5.945  1.4778 -2.5506  0.6391
  106OSM    H6G10807   1.198   6.960   5.974 -1.2155 -1.4577  1.4265
  106OSM    C7F10808   1.256   6.788   5.857  0.2391 -0.7029 -0.6694
  106OSM    H7F10809   1.165   6.731   5.882 -0.6480  0.8234 -0.2904
  106OSM    H7G10810   1.342   6.719   5.840 -2.0207 -3.6016 -1.0556
  106OSM    C8F10811   1.224   6.856   5.727  0.8642  0.0465 -0.5465
  106OSM    H8F10812   1.155   6.938   5.756  1.2883  0.3897 -0.5040
  106OSM    H8G10813   1.172   6.790   5.655  2.6575 -0.6498 -1.2338
  106OSM    C9F10814   1.341   6.917   5.663  0.3048 -0.2366  0.8291
  106OSM    H9F10815   1.401   6.974   5.735 -1.0194  0.4931  1.3876
  106OSM   C10F10816   1.389   6.904   5.537 -0.3127  0.1805  0.0225
  106OSM   H10F10817   1.474   6.965   5.501 -1.0225  0.2342 -1.6617
  106OSM   C11F10818   1.318   6.825   5.429  0.2438  0.0870 -0.1777
  106OSM   H11F10819   1.270   6.895   5.357  1.7251  0.2857 -1.0221
  106OSM   H11G10820   1.238   6.759   5.469 -0.3857  0.6249 -0.5395
  106OSM   C12F10821   1.414   6.738   5.346 -0.0342 -0.4663  0.4960
  106OSM   H12F10822   1.353   6.692   5.265  0.5996 -2.5234  1.1178
  106OSM   H12G10823   1.458   6.654   5.405  1.3341 -1.3547 -1.6473
  106OSM   C13F10824   1.537   6.806   5.282  0.3442  0.8758  0.3148
  106OSM   H13F10825   1.578   6.734   5.207  1.4383 -0.9636  2.5734
  106OSM   H13G10826   1.614   6.835   5.357  0.1624  1.1405  0.4009
  106OSM   C14F10827   1.505   6.937   5.201 -0.4916 -0.4544  0.4100
  106OSM   H14F10828   1.503   7.032   5.259  0.2304  1.5811 -2.6596
  106OSM   H14G10829   1.400   6.926   5.165 -0.8760 -1.7233  1.8285
  106OSM   C15F10830   1.605   6.966   5.079  0.2700 -0.4692  0.1595
  106OSM   H15F10831   1.617   6.862   5.042 -2.4242 -0.9286  0.3213
  106OSM   H15G10832   1.699   7.003   5.125  0.2858 -0.4012  0.0705
  106OSM   C16F10833   1.553   7.061   4.969  0.7819  0.2218  0.1404
  106OSM   H16F10834   1.520   7.149   5.028  3.1567  1.3967 -0.1847
  106OSM   H16G10835   1.463   7.023   4.916  0.3220  4.1593 -2.3245
  106OSM   C17F10836   1.653   7.098   4.857 -0.5684 -0.3115 -0.2627
  106OSM   H17F10837   1.602   7.136   4.766  1.2786  0.6414 -0.9464
  106OSM   H17G10838   1.708   7.008   4.823 -0.2004 -0.5260  0.8376
  106OSM   C18F10839   1.770   7.201   4.897  0.1869  0.0905 -0.0623
  106OSM   H18F10840   1.796   7.192   5.005  2.1084  0.7343 -0.4306
  106OSM   H18G10841   1.751   7.309   4.881  0.6325 -0.1599 -2.6536
  106OSM   H18H10842   1.867   7.175   4.849  0.6227  1.0766  0.2562
  107OSM      N10843   5.736   4.502   6.699  0.0356  0.5689  1.2098
  107OSM    C1510844   5.813   4.609   6.767  0.8027 -0.4813  0.2059
  107OSM   H15A10845   5.761   4.652   6.851 -0.9453  0.8971 -1.4718
  107OSM   H15B10846   5.822   4.692   6.698  2.7816 -0.7822  0.0688
  107OSM   H15C10847   5.903   4.567   6.808  0.3148 -0.7479  1.0401
  107OSM    C1410848   5.829   4.409   6.628  0.0511  0.2106  0.5212
  107OSM   H14A10849   5.774   4.321   6.598 -0.9628  0.1478  2.4192
  107OSM   H14B10850   5.915   4.372   6.682  0.4566 -0.9474 -0.8537
  107OSM   H14C10851   5.864   4.456   6.537 -1.6896  1.7060  0.5631
  107OSM    C1310852   5.667   4.420   6.806  0.1821 -0.1344 -0.6098
  107OSM   H13A10853   5.609   4.339   6.763 -0.5910 -0.1305  0.3887
  107OSM   H13B10854   5.592   4.466   6.868  1.0230 -0.7410  0.9060
  107OSM   H13C10855   5.737   4.373   6.874 -1.6762  1.0551  2.3032
  107OSM    C1210856   5.632   4.571   6.614 -0.1155  0.2677  0.5304
  107OSM   H12A10857   5.595   4.501   6.540  1.3516  0.4144 -0.3848
  107OSM   H12B10858   5.688   4.649   6.564  0.8887  0.5991  2.1004
  107OSM    C1110859   5.510   4.643   6.690 -0.0573  0.2763  0.3701
  107OSM   H11A10860   5.458   4.712   6.620 -1.2615  1.4626  2.3511
  107OSM   H11B10861   5.566   4.705   6.763  1.7215  0.6703 -1.2516
  107OSM      P10862   5.305   4.484   6.681  0.2884  0.1968  0.0062
  107OSM    O1310863   5.274   4.377   6.781  0.1356 -0.1932 -0.3750
  107OSM    O1410864   5.195   4.560   6.623 -0.0674 -0.2722  0.0888
  107OSM    O1110865   5.393   4.420   6.560 -0.4221  0.1014  0.2743
  107OSM    O1210866   5.412   4.565   6.753 -0.9311 -0.4250  0.2000
  107OSM    C1S10867   5.322   4.321   6.478 -0.0588  0.0153 -0.6931
  107OSM    H1S10868   5.220   4.349   6.445  0.0164  2.1711  0.6764
  107OSM    H1T10869   5.303   4.226   6.533 -3.2179  0.7552 -0.3302
  107OSM     NF10870   5.313   4.200   6.269  0.4728 -0.0823  1.1180
  107OSM    HNF10871   5.312   4.100   6.270  3.9087 -0.2354  1.0060
  107OSM    C2S10872   5.402   4.277   6.356  0.2674  0.2133 -0.4498
  107OSM    H2S10873   5.430   4.368   6.298 -3.5659  1.1961 -0.9769
  107OSM    C3S10874   5.530   4.203   6.399 -0.4674  0.6078  0.5651
  107OSM    H3S10875   5.501   4.106   6.444  1.5400 -0.0899  0.4742
  107OSM     O310876   5.603   4.248   6.507  0.9142 -0.2609  0.2033
  107OSM    HO310877   5.536   4.309   6.539  0.1461 -0.6468 -0.6376
  107OSM    C4S10878   5.613   4.168   6.275 -0.0426 -0.0795 -0.2590
  107OSM    H4S10879   5.590   4.066   6.241  1.8561 -1.6471  2.7413
  107OSM    C5S10880   5.715   4.221   6.204  0.0440  0.0975 -0.6522
  107OSM    H5S10881   5.736   4.328   6.217 -0.4111  0.1963 -0.7155
  107OSM    C6S10882   5.795   4.158   6.093 -1.0008  0.3049  0.4234
  107OSM    H6S10883   5.899   4.176   6.125 -0.2428  1.3677 -2.4052
  107OSM    H6T10884   5.794   4.212   5.996  0.4906  0.4290  0.4617
  107OSM    C7S10885   5.777   4.008   6.074 -0.2613  0.6363  0.2077
  107OSM    H7S10886   5.672   3.975   6.059 -0.1917  0.7206 -0.4931
  107OSM    H7T10887   5.810   3.961   6.169  2.2423  0.2327 -0.7985
  107OSM    C8S10888   5.856   3.940   5.962 -0.3310  0.4313  0.2374
  107OSM    H8S10889   5.963   3.927   5.989 -0.3770 -0.0607  0.1875
  107OSM    H8T10890   5.844   4.007   5.874 -0.9468  1.4770  1.0930
  107OSM    C9S10891   5.790   3.806   5.928  0.2804  0.0388  0.1931
  107OSM    H9S10892   5.679   3.816   5.928  0.2929  0.3057 -0.9058
  107OSM    H9T10893   5.812   3.735   6.010 -3.0599 -0.1598  1.0752
  107OSM   C10S10894   5.832   3.733   5.800 -0.2364  0.6497 -0.8067
  107OSM   H10S10895   5.769   3.642   5.791 -0.9668  0.9311  0.9157
  107OSM   H10T10896   5.937   3.696   5.811 -0.6544 -0.3542  0.0199
  107OSM   C11S10897   5.811   3.818   5.675  0.5768 -0.2258  0.0091
  107OSM   H11S10898   5.868   3.914   5.679 -1.5266  1.0388  1.9089
  107OSM   H11T10899   5.705   3.847   5.658 -0.0801 -1.1245  2.2154
  107OSM   C12S10900   5.868   3.737   5.552 -0.1454  0.0346  0.9455
  107OSM   H12S10901   5.793   3.657   5.532 -1.1892  1.1210  0.3586
  107OSM   H12T10902   5.970   3.698   5.572 -0.1932 -0.0147  1.1004
  107OSM   C13S10903   5.867   3.823   5.430  0.7614  0.5427  0.0773
  107OSM   H13S10904   5.945   3.894   5.464 -0.1066  0.8740  1.4669
  107OSM   H13T10905   5.782   3.895   5.421  1.6739  1.6568  0.1320
  107OSM   C14S10906   5.890   3.735   5.304  0.1617 -0.0087 -0.0935
  107OSM   H14S10907   5.815   3.653   5.298 -2.0898  1.9763 -1.1706
  107OSM   H14T10908   5.993   3.695   5.306  1.3269  2.7501 -0.1503
  107OSM   C15S10909   5.879   3.811   5.179  0.4940  0.2915 -0.0033
  107OSM   H15S10910   5.944   3.901   5.192  0.8377 -0.0830  1.0051
  107OSM   H15T10911   5.779   3.849   5.150 -0.5908 -3.1767 -1.2577
  107OSM   C16S10912   5.931   3.719   5.066  0.1087 -0.4449  0.4809
  107OSM   H16S10913   5.860   3.636   5.046  1.6910 -2.1599  1.7286
  107OSM   H16T10914   6.026   3.673   5.101  0.3603  0.1228  0.5607
  107OSM   C17S10915   5.936   3.803   4.934  0.1996 -0.2120 -0.4665
  107OSM   H17S10916   5.833   3.845   4.925 -0.0032 -0.7127 -0.4992
  107OSM   H17T10917   5.948   3.738   4.845 -0.6749  0.4777 -1.1039
  107OSM   C18S10918   6.054   3.906   4.928  0.4398  0.2914 -0.6300
  107OSM   H18S10919   6.072   3.944   5.031 -1.3165 -0.4883 -0.0010
  107OSM   H18T10920   6.041   3.994   4.861  3.4436  0.9935 -0.4237
  107OSM   H18U10921   6.145   3.851   4.897 -0.4620 -1.6624  0.0409
  107OSM    C1F10922   5.226   4.257   6.184 -0.2957  0.4523 -0.4352
  107OSM     OF10923   5.224   4.378   6.163  0.0697 -0.3791  0.1805
  107OSM    C2F10924   5.135   4.161   6.110  0.6656 -0.0634  0.7520
  107OSM    H2F10925   5.048   4.135   6.174 -0.1388  2.2291  0.6855
  107OSM    H2G10926   5.184   4.074   6.061 -0.2427  0.5682 -1.4173
  107OSM    C3F10927   5.086   4.245   5.988  0.3292 -0.1517 -0.1425
  107OSM    H3F10928   5.164   4.297   5.927 -0.4220 -0.6471 -1.5546
  107OSM    H3G10929   5.016   4.327   6.012 -0.1093 -0.7778  0.7685
  107OSM    C4F10930   5.009   4.157   5.882  0.3060 -0.0493 -0.0129
  107OSM    H4F10931   4.910   4.141   5.931  1.1154 -1.2556  1.2866
  107OSM    H4G10932   5.052   4.055   5.879  0.0430 -0.1690 -3.0610
  107OSM    C5F10933   5.011   4.215   5.741  0.3168 -0.1528  0.1246
  107OSM    H5F10934   5.115   4.229   5.704  0.0843  2.5300  0.2901
  107OSM    H5G10935   4.951   4.308   5.748  2.8683  1.6699 -0.8783
  107OSM    C6F10936   4.949   4.116   5.637  0.6763  0.2820  0.0908
  107OSM    H6F10937   4.838   4.117   5.633  0.6440 -1.7927 -1.0378
  107OSM    H6G10938   4.985   4.019   5.675  0.0260  0.5116  1.3335
  107OSM    C7F10939   5.013   4.144   5.501  0.3772 -0.4393 -0.2214
  107OSM    H7F10940   5.116   4.103   5.503  0.6563  0.2041 -0.7939
  107OSM    H7G10941   5.025   4.254   5.490  0.6526 -0.3940  0.4852
  107OSM    C8F10942   4.939   4.073   5.381  0.5055  0.2916 -0.0901
  107OSM    H8F10943   4.952   4.116   5.279 -1.5686 -0.3253 -0.6691
  107OSM    H8G10944   4.832   4.092   5.405  0.4996 -0.2235  0.2878
  107OSM    C9F10945   4.954   3.922   5.376 -0.5079  0.4862 -0.2175
  107OSM    H9F10946   4.907   3.870   5.461  0.1680  0.2388  0.0125
  107OSM   C10F10947   5.018   3.853   5.280 -0.1377  0.8028 -0.0226
  107OSM   H10F10948   5.023   3.743   5.288 -2.1866  0.6680  0.0495
  107OSM   C11F10949   5.101   3.912   5.168 -0.4435 -0.0901  0.5750
  107OSM   H11F10950   5.054   3.988   5.102  2.9490  2.9590  1.4156
  107OSM   H11G10951   5.123   3.827   5.099  1.3400 -0.4777  1.5671
  107OSM   C12F10952   5.239   3.972   5.214 -0.7820 -0.7307 -0.3309
  107OSM   H12F10953   5.216   4.064   5.272  1.0387 -0.2315 -0.3575
  107OSM   H12G10954   5.280   4.013   5.119 -0.3577  1.3988  0.7158
  107OSM   C13F10955   5.343   3.874   5.275 -0.3772 -0.1304  0.7062
  107OSM   H13F10956   5.350   3.796   5.196  0.1852  0.0387  0.5833
  107OSM   H13G10957   5.316   3.839   5.376  2.3673 -0.1043  1.5346
  107OSM   C14F10958   5.479   3.940   5.303 -0.2107  0.0498 -0.0263
  107OSM   H14F10959   5.526   3.988   5.214  0.9407 -0.7491  0.1285
  107OSM   H14G10960   5.543   3.856   5.337  1.3444  0.9881 -0.5058
  107OSM   C15F10961   5.482   4.057   5.414  0.4540  0.2855  0.2899
  107OSM   H15F10962   5.440   4.151   5.372 -0.7717 -0.9712 -1.4914
  107OSM   H15G10963   5.591   4.068   5.430  0.4407 -1.5795  2.1584
  107OSM   C16F10964   5.404   4.018   5.538  0.1536 -0.1926 -0.3869
  107OSM   H16F10965   5.427   3.911   5.558  1.0420 -0.3596 -2.0994
  107OSM   H16G10966   5.297   4.015   5.510 -0.3243 -1.1700  1.3947
  107OSM   C17F10967   5.437   4.116   5.663 -0.2572  0.3798  0.4777
  107OSM   H17F10968   5.405   4.221   5.645  1.4559  1.0200  0.9873
  107OSM   H17G10969   5.547   4.113   5.681 -0.1577 -0.5329 -0.1687
  107OSM   C18F10970   5.383   4.066   5.795  0.5529  0.3293  0.1873
  107OSM   H18F10971   5.423   3.967   5.826  1.3186  0.7024  0.4035
  107OSM   H18G10972   5.272   4.066   5.787  0.6402  0.4885 -1.2853
  107OSM   H18H10973   5.414   4.140   5.872  0.4128  0.1521  0.4196
  108OSM      N10974   2.581   5.416   7.019  0.0805  0.0560  0.0933
  108OSM    C1510975   2.457   5.433   7.098 -0.3122  0.6475  0.1565
  108OSM   H15A10976   2.377   5.484   7.047 -0.0782  1.8143  0.9178
  108OSM   H15B10977   2.481   5.498   7.180  0.1645  0.7931 -0.0952
  108OSM   H15C10978   2.428   5.343   7.151  1.3521  1.1560  2.0440
  108OSM    C1410979   2.688   5.395   7.123  0.4608  0.0840 -0.2861
  108OSM   H14A10980   2.694   5.478   7.191  1.4031 -1.1368  1.1810
  108OSM   H14B10981   2.783   5.380   7.072 -0.2581 -2.1368 -1.1140
  108OSM   H14C10982   2.665   5.305   7.177 -0.9298  0.4174 -0.2914
  108OSM    C1310983   2.573   5.303   6.918 -0.3414 -0.3396  0.4106
  108OSM   H13A10984   2.482   5.299   6.859 -0.0735 -0.4827 -0.0029
  108OSM   H13B10985   2.564   5.221   6.988  0.9786 -0.3292  0.6024
  108OSM   H13C10986   2.656   5.289   6.851  0.8343  2.3126  1.1967
  108OSM    C1210987   2.612   5.547   6.941  0.1089  0.0623 -0.1035
  108OSM   H12A10988   2.637   5.629   7.007 -0.0144 -0.2552  0.3415
  108OSM   H12B10989   2.521   5.587   6.898 -0.1763  0.6239  0.9790
  108OSM    C1110990   2.722   5.540   6.834 -0.2680 -0.1180  0.5785
  108OSM   H11A10991   2.736   5.641   6.790 -0.7205 -0.4835 -0.4313
  108OSM   H11B10992   2.675   5.472   6.760 -0.2145 -1.0635  1.3827
  108OSM      P10993   2.960   5.566   6.952  0.3007 -0.1604  0.1575
  108OSM    O1310994   2.900   5.684   7.021 -0.4582 -0.3350  0.1458
  108OSM    O1410995   3.037   5.479   7.043 -0.1364 -0.3427 -0.3496
  108OSM    O1110996   3.056   5.612   6.831  0.3022  0.3945 -0.1656
  108OSM    O1210997   2.847   5.483   6.875 -0.4238 -0.4106 -0.6673
  108OSM    C1S10998   3.104   5.511   6.738 -0.0406 -0.3162  0.0064
  108OSM    H1S10999   3.077   5.404   6.755  1.2806 -1.3086 -3.2134
  108OSM    H1T11000   3.215   5.511   6.742 -0.0328 -2.7087  1.5421
  108OSM     NF11001   3.077   5.454   6.484  0.8741 -0.1479  0.0105
  108OSM    HNF11002   3.167   5.449   6.441  0.1024 -3.0621 -1.5451
  108OSM    C2S11003   3.058   5.557   6.589  0.3778  0.4619 -0.0824
  108OSM    H2S11004   2.950   5.581   6.599  0.6148  1.4333  0.2223
  108OSM    C3S11005   3.132   5.690   6.564  0.0941 -0.1909 -0.2539
  108OSM    H3S11006   3.239   5.666   6.543 -0.0197 -0.6244 -0.3404
  108OSM     O311007   3.131   5.794   6.663 -0.0458 -0.3940  0.3886
  108OSM    HO311008   3.100   5.742   6.738  3.6761  1.1078  3.3494
  108OSM    C4S11009   3.089   5.750   6.438  0.4842  0.2214 -0.5260
  108OSM    H4S11010   3.165   5.746   6.359 -0.0170 -1.0549 -0.9542
  108OSM    C5S11011   2.977   5.811   6.403  0.1639  0.2751 -0.3960
  108OSM    H5S11012   2.905   5.833   6.483 -2.1269  1.6668 -2.7162
  108OSM    C6S11013   2.930   5.862   6.274 -0.2149 -0.4907 -0.1052
  108OSM    H6S11014   2.948   5.972   6.267 -3.1612  0.0169 -1.0046
  108OSM    H6T11015   2.822   5.841   6.262 -1.0172  1.9236  1.9691
  108OSM    C7S11016   3.009   5.797   6.159 -0.0301  0.0766  0.3086
  108OSM    H7S11017   3.116   5.826   6.158 -0.3370  1.2939  1.0920
  108OSM    H7T11018   2.967   5.831   6.062  0.5399  1.7044  0.6037
  108OSM    C8S11019   2.992   5.641   6.144 -0.3553  0.1038  0.0825
  108OSM    H8S11020   2.883   5.639   6.165 -0.8606  2.3519 -1.8652
  108OSM    H8T11021   3.050   5.586   6.221  1.1209  0.3683 -0.7869
  108OSM    C9S11022   3.025   5.588   6.002  0.2529  0.2446  0.4973
  108OSM    H9S11023   3.122   5.630   5.970  1.3739 -0.9596  2.1610
  108OSM    H9T11024   2.944   5.631   5.939  2.8130  1.4455 -2.1996
  108OSM   C10S11025   3.029   5.435   5.978  0.0289  0.1087  0.7225
  108OSM   H10S11026   2.939   5.379   6.011  1.3705 -1.1759  2.3437
  108OSM   H10T11027   3.110   5.376   6.025 -0.3302 -0.5758  0.4990
  108OSM   C11S11028   3.057   5.423   5.829  0.5608  0.2090 -0.1641
  108OSM   H11S11029   3.097   5.322   5.805 -1.7895 -0.1906 -2.8764
  108OSM   H11T11030   3.145   5.481   5.794  1.1650 -0.5500  0.0610
  108OSM   C12S11031   2.945   5.445   5.729  0.3864 -0.4043  0.1375
  108OSM   H12S11032   2.897   5.545   5.743  0.5450  0.5910 -4.7787
  108OSM   H12T11033   2.869   5.369   5.757  3.0808 -2.3633  2.8329
  108OSM   C13S11034   2.990   5.444   5.586  0.2095 -0.8694  1.1905
  108OSM   H13S11035   3.077   5.511   5.570  0.1041 -0.9097  0.4170
  108OSM   H13T11036   2.897   5.484   5.540 -0.4201 -0.9364  2.3705
  108OSM   C14S11037   3.031   5.308   5.525 -0.0110  0.1242  0.5281
  108OSM   H14S11038   2.944   5.240   5.540 -0.9454  1.2818  0.4976
  108OSM   H14T11039   3.122   5.262   5.570  0.1692 -1.0506 -0.9450
  108OSM   C15S11040   3.048   5.308   5.370  0.2995 -0.3339  0.0387
  108OSM   H15S11041   3.114   5.389   5.333  0.6446 -0.6348 -0.0026
  108OSM   H15T11042   2.950   5.341   5.327 -0.2100  1.5852  2.4472
  108OSM   C16S11043   3.095   5.181   5.304 -0.1332  0.2515  0.0459
  108OSM   H16S11044   3.020   5.099   5.310 -0.0411  0.1790  0.2061
  108OSM   H16T11045   3.187   5.156   5.361  0.7822  0.3832 -1.3304
  108OSM   C17S11046   3.126   5.198   5.149  0.8309 -0.2378 -1.5051
  108OSM   H17S11047   3.193   5.286   5.141 -1.9778  2.0547 -1.3584
  108OSM   H17T11048   3.033   5.227   5.096 -0.3046  0.7188  0.8460
  108OSM   C18S11049   3.202   5.085   5.090 -0.1910 -0.1944  0.6352
  108OSM   H18S11050   3.189   5.104   4.981  0.5607 -0.4616  0.4878
  108OSM   H18T11051   3.149   4.997   5.132  0.4533  1.0086  4.3254
  108OSM   H18U11052   3.309   5.073   5.119 -0.5724 -2.7361  1.2776
  108OSM    C1F11053   2.994   5.349   6.469 -0.1093 -0.5996  0.1471
  108OSM     OF11054   2.898   5.330   6.540  0.0949  0.6643  0.0997
  108OSM    C2F11055   3.023   5.264   6.348  0.1159 -0.2000  0.4925
  108OSM    H2F11056   3.075   5.170   6.373 -0.8307 -0.8360  0.1118
  108OSM    H2G11057   3.084   5.325   6.277  1.0871  1.5230  2.7002
  108OSM    C3F11058   2.897   5.215   6.280  0.0345  0.0391  0.6302
  108OSM    H3F11059   2.833   5.300   6.247  1.1969  1.3172  1.5707
  108OSM    H3G11060   2.838   5.153   6.351  0.7278 -1.2573  0.1061
  108OSM    C4F11061   2.912   5.110   6.167 -0.1011  0.1590  0.0193
  108OSM    H4F11062   2.944   5.012   6.210  1.4263  0.1676 -1.0307
  108OSM    H4G11063   2.986   5.135   6.089  0.5142 -0.7195  0.3070
  108OSM    C5F11064   2.781   5.080   6.091  0.0449 -0.9450 -0.2634
  108OSM    H5F11065   2.754   5.179   6.049 -2.2698 -1.4705 -0.1304
  108OSM    H5G11066   2.701   5.051   6.162 -0.6211 -0.9305 -1.0042
  108OSM    C6F11067   2.814   4.977   5.978 -0.1645 -0.5060 -0.0675
  108OSM    H6F11068   2.847   4.880   6.022  1.3002 -0.2398 -0.5309
  108OSM    H6G11069   2.892   5.016   5.909  1.6332 -1.8779  1.0939
  108OSM    C7F11070   2.679   4.956   5.896  0.1236 -0.0758 -0.4238
  108OSM    H7F11071   2.625   5.050   5.877 -1.0385 -0.5315  0.4873
  108OSM    H7G11072   2.607   4.903   5.962  0.8496 -1.0343 -0.3733
  108OSM    C8F11073   2.707   4.860   5.776 -0.4333 -0.3809 -0.0954
  108OSM    H8F11074   2.757   4.770   5.816  2.6119  1.4293  0.5090
  108OSM    H8G11075   2.792   4.902   5.717 -1.9442  1.9253 -0.7644
  108OSM    C9F11076   2.577   4.850   5.691  0.0251 -0.3885 -0.4800
  108OSM    H9F11077   2.486   4.835   5.751 -1.4702  2.0627 -1.9453
  108OSM   C10F11078   2.569   4.879   5.557 -0.5431  0.0055  0.1818
  108OSM   H10F11079   2.472   4.860   5.508 -0.6231  0.9934 -0.0744
  108OSM   C11F11080   2.676   4.909   5.458 -0.1891  0.4619  0.3810
  108OSM   H11F11081   2.652   4.863   5.360  3.0596  0.7864 -0.7072
  108OSM   H11G11082   2.778   4.870   5.482 -0.2218  1.0071  1.4831
  108OSM   C12F11083   2.696   5.061   5.424  0.4353 -0.2324 -0.4694
  108OSM   H12F11084   2.790   5.073   5.367 -0.7301  0.5195 -2.3191
  108OSM   H12G11085   2.698   5.110   5.523 -0.6307 -1.1042  0.0076
  108OSM   C13F11086   2.575   5.128   5.349  0.3476 -0.1453 -0.2704
  108OSM   H13F11087   2.493   5.163   5.415  1.1552 -0.3915  0.9056
  108OSM   H13G11088   2.525   5.047   5.292 -3.0593  0.5985  1.4220
  108OSM   C14F11089   2.615   5.234   5.250 -0.1234  0.0514  1.1328
  108OSM   H14F11090   2.696   5.192   5.185 -0.4163 -0.8981  1.3601
  108OSM   H14G11091   2.652   5.333   5.283 -0.2411  0.2667  0.6229
  108OSM   C15F11092   2.496   5.268   5.165 -0.1981 -0.1548  0.5316
  108OSM   H15F11093   2.475   5.377   5.169 -1.5716 -0.3680 -0.1456
  108OSM   H15G11094   2.408   5.216   5.210 -1.4591  1.5000  0.0923
  108OSM   C16F11095   2.504   5.230   5.011  0.0330 -0.2791  0.8870
  108OSM   H16F11096   2.415   5.271   4.959  1.9470  3.5638  0.2632
  108OSM   H16G11097   2.500   5.119   5.009 -1.4235 -0.2347 -0.4042
  108OSM   C17F11098   2.625   5.283   4.931  0.2861 -0.0342  0.1719
  108OSM   H17F11099   2.620   5.252   4.824  0.4514  2.3407 -0.5857
  108OSM   H17G11100   2.721   5.239   4.965  0.2457 -0.2721 -0.0129
  108OSM   C18F11101   2.642   5.438   4.933  0.1071 -0.3708  0.2865
  108OSM   H18F11102   2.749   5.453   4.907 -0.5683  0.5212 -2.2490
  108OSM   H18G11103   2.628   5.464   5.040  0.8314  0.6631  0.1434
  108OSM   H18H11104   2.566   5.486   4.868  1.2051 -1.1281 -1.6603
  109OSM      N11105   5.927   6.780   6.916 -0.7306 -0.2531  0.5680
  109OSM    C1511106   5.819   6.853   6.998  0.4946  0.1045 -0.2841
  109OSM   H15A11107   5.783   6.794   7.080  0.7689  0.4263  0.0700
  109OSM   H15B11108   5.738   6.890   6.937  1.1416 -0.4192 -1.5118
  109OSM   H15C11109   5.864   6.938   7.048 -0.0228  1.0662 -1.3983
  109OSM    C1411110   6.037   6.747   7.016  0.3100 -0.1977 -0.5197
  109OSM   H14A11111   6.120   6.702   6.964  0.4336 -0.6578  0.0693
  109OSM   H14B11112   6.011   6.674   7.091  0.9403  0.4602  0.3585
  109OSM   H14C11113   6.083   6.839   7.050 -0.8123 -0.6163  2.4037
  109OSM    C1311114   5.871   6.654   6.854  1.0202 -0.5445  0.3087
  109OSM   H13A11115   5.950   6.600   6.804  0.1011  0.3203 -2.2083
  109OSM   H13B11116   5.792   6.687   6.788  2.0337 -1.3481 -1.3732
  109OSM   H13C11117   5.821   6.596   6.930 -0.8143  0.0007 -0.4303
  109OSM    C1211118   5.978   6.874   6.800 -0.1692 -0.0313  0.1176
  109OSM   H12A11119   6.005   6.961   6.858 -3.0232  0.7023  0.4982
  109OSM   H12B11120   5.889   6.893   6.740 -0.0255 -3.1209 -1.2347
  109OSM    C1111121   6.104   6.844   6.706  0.0070 -0.6709  0.7139
  109OSM   H11A11122   6.089   6.911   6.619 -1.2569 -0.6207  0.9415
  109OSM   H11B11123   6.090   6.739   6.671 -0.0173 -1.2443  2.3307
  109OSM      P11124   6.270   7.002   6.835 -0.4943  0.6830  0.2212
  109OSM    O1311125   6.159   7.069   6.901  0.1668 -0.8671 -0.4306
  109OSM    O1411126   6.392   6.980   6.919  0.8691 -0.0207  0.3695
  109OSM    O1111127   6.299   7.087   6.709 -0.0990 -0.5849  0.2360
  109OSM    O1211128   6.228   6.863   6.766 -0.0286  0.1494  0.0507
  109OSM    C1S11129   6.431   7.078   6.648 -0.7578 -0.0440 -0.1635
  109OSM    H1S11130   6.511   7.033   6.711 -1.0471 -0.4103 -0.0586
  109OSM    H1T11131   6.467   7.178   6.615 -2.5511  0.9259  0.7142
  109OSM     NF11132   6.558   6.960   6.477  0.0717 -0.3469  0.2414
  109OSM    HNF11133   6.606   7.021   6.413  1.9920 -0.0643  1.8453
  109OSM    C2S11134   6.421   6.995   6.512  0.2868 -0.0812 -0.3120
  109OSM    H2S11135   6.354   6.906   6.520 -2.6128  1.8094 -1.8724
  109OSM    C3S11136   6.345   7.080   6.410  0.8543 -0.5785 -0.3423
  109OSM    H3S11137   6.408   7.172   6.402 -0.9107  0.7373  0.2027
  109OSM     O311138   6.221   7.129   6.469  0.0864 -0.0757 -0.6140
  109OSM    HO311139   6.223   7.107   6.563  0.2042  2.0069 -0.0842
  109OSM    C4S11140   6.313   7.017   6.278 -1.2660  0.0739  0.1949
  109OSM    H4S11141   6.286   6.913   6.300  2.1912 -1.3641 -1.6730
  109OSM    C5S11142   6.346   7.058   6.152  0.0617  0.3397 -0.3154
  109OSM    H5S11143   6.384   7.160   6.142  1.5994 -0.0900  0.7870
  109OSM    C6S11144   6.334   6.976   6.031 -0.5659  0.1844  0.1967
  109OSM    H6S11145   6.227   6.977   6.001 -0.6879 -2.5353  0.2639
  109OSM    H6T11146   6.351   6.866   6.039 -1.5326 -0.0226 -0.4329
  109OSM    C7S11147   6.417   7.025   5.906  0.3679  0.0505 -0.4542
  109OSM    H7S11148   6.413   6.940   5.835 -2.2834  0.5098 -0.9476
  109OSM    H7T11149   6.525   7.043   5.926 -0.3925  2.3942  2.2104
  109OSM    C8S11150   6.352   7.150   5.845 -0.2207 -0.2094  0.0597
  109OSM    H8S11151   6.370   7.236   5.912  0.4556  0.6383 -1.1672
  109OSM    H8T11152   6.245   7.123   5.830 -0.0180 -1.3850  0.5861
  109OSM    C9S11153   6.407   7.184   5.707 -0.2713 -0.3117 -0.8007
  109OSM    H9S11154   6.518   7.180   5.708 -0.2286  0.5388 -1.5172
  109OSM    H9T11155   6.373   7.286   5.682 -0.8676 -0.1330  0.6267
  109OSM   C10S11156   6.364   7.095   5.591 -0.3794 -0.1158 -0.3871
  109OSM   H10S11157   6.255   7.098   5.571 -0.4449  1.5564  0.0845
  109OSM   H10T11158   6.403   6.994   5.615  1.6348  0.5335 -0.7213
  109OSM   C11S11159   6.431   7.140   5.463 -0.1076 -0.0148 -0.1587
  109OSM   H11S11160   6.533   7.099   5.469  0.2123  0.0040 -3.7629
  109OSM   H11T11161   6.426   7.250   5.452 -0.0458  0.0841  0.7031
  109OSM   C12S11162   6.363   7.090   5.335 -0.1848  0.1580 -0.5576
  109OSM   H12S11163   6.271   7.151   5.320  0.6045  1.3051 -0.8093
  109OSM   H12T11164   6.330   6.985   5.347 -0.3233  0.3262  0.6056
  109OSM   C13S11165   6.444   7.117   5.205  0.2486 -0.1039 -0.0043
  109OSM   H13S11166   6.534   7.052   5.204 -0.9126 -1.8856  2.0881
  109OSM   H13T11167   6.480   7.221   5.218 -1.2705  0.2136  2.2133
  109OSM   C14S11168   6.356   7.104   5.071  0.4448 -0.1790  0.3925
  109OSM   H14S11169   6.264   7.159   5.102  1.1043  0.3709  1.4471
  109OSM   H14T11170   6.329   6.996   5.064  1.5434 -0.4898  0.7339
  109OSM   C15S11171   6.421   7.157   4.948  0.1275 -0.3786 -0.3029
  109OSM   H15S11172   6.499   7.078   4.936  0.0733 -0.4548 -0.1528
  109OSM   H15T11173   6.462   7.257   4.972 -1.5008  0.0468  0.8475
  109OSM   C16S11174   6.321   7.156   4.834 -0.2241 -0.1044 -0.4147
  109OSM   H16S11175   6.238   7.227   4.856  0.6516  1.2465 -1.2969
  109OSM   H16T11176   6.262   7.063   4.819  0.2458 -0.3242 -0.9456
  109OSM   C17S11177   6.374   7.202   4.701  0.1201  0.0326  0.0975
  109OSM   H17S11178   6.466   7.145   4.682  1.8453  3.1077 -1.5029
  109OSM   H17T11179   6.405   7.308   4.690  0.2017 -0.0365 -0.3275
  109OSM   C18S11180   6.269   7.187   4.592  0.2831  0.2366  0.3247
  109OSM   H18S11181   6.238   7.082   4.571  0.4912  0.6159 -2.2181
  109OSM   H18T11182   6.302   7.227   4.494  0.5383 -2.2174 -0.6784
  109OSM   H18U11183   6.177   7.238   4.626 -0.6219 -0.6518 -0.7016
  109OSM    C1F11184   6.620   6.860   6.529  0.0963 -0.6394 -0.5526
  109OSM     OF11185   6.562   6.772   6.589  0.2290  0.8958 -0.8791
  109OSM    C2F11186   6.763   6.860   6.517  0.4040 -0.2400 -0.6059
  109OSM    H2F11187   6.809   6.879   6.616 -1.7688 -1.6861  0.7658
  109OSM    H2G11188   6.787   6.943   6.447  1.4626  0.4963  0.5785
  109OSM    C3F11189   6.811   6.724   6.464 -0.5188 -0.3050  0.3165
  109OSM    H3F11190   6.766   6.709   6.363 -0.2684  3.0668 -0.3868
  109OSM    H3G11191   6.784   6.655   6.546  2.0313  0.3330  1.8040
  109OSM    C4F11192   6.966   6.718   6.451  0.0010 -0.1658  0.3161
  109OSM    H4F11193   6.991   6.618   6.409  0.7061  0.3929 -0.6496
  109OSM    H4G11194   7.006   6.735   6.554 -1.1008  0.2884  0.6889
  109OSM    C5F11195   7.027   6.823   6.355 -0.5998 -0.0553  0.8385
  109OSM    H5F11196   6.998   6.927   6.381 -0.1081  0.2979  0.0021
  109OSM    H5G11197   6.975   6.809   6.258 -2.3695  1.4252  1.5135
  109OSM    C6F11198   7.176   6.798   6.327 -0.0451  0.7645  0.3642
  109OSM    H6F11199   7.190   6.702   6.275 -2.7411 -0.4362  1.6256
  109OSM    H6G11200   7.240   6.802   6.418 -1.0176 -0.0768  1.1082
  109OSM    C7F11201   7.235   6.894   6.227  0.2616 -0.1769  0.5418
  109OSM    H7F11202   7.342   6.865   6.222  0.0976 -0.6903 -0.2844
  109OSM    H7G11203   7.231   7.000   6.258  0.3329 -0.7603  2.6873
  109OSM    C8F11204   7.189   6.886   6.079 -0.4043  0.7478  0.7947
  109OSM    H8F11205   7.082   6.914   6.079 -0.1331  1.8565  1.4077
  109OSM    H8G11206   7.195   6.783   6.039 -0.5961 -0.4451  3.6575
  109OSM    C9F11207   7.274   6.974   5.992 -0.1577 -0.2096  0.3311
  109OSM    H9F11208   7.323   7.058   6.044 -1.8658  0.9497  0.1646
  109OSM   C10F11209   7.288   6.959   5.857  0.0190 -0.4843 -0.3554
  109OSM   H10F11210   7.370   7.021   5.818 -0.2935  0.2195  0.0998
  109OSM   C11F11211   7.251   6.846   5.766  0.1100 -0.2167  0.0953
  109OSM   H11F11212   7.209   6.886   5.671  1.3187  0.7142 -0.0764
  109OSM   H11G11213   7.177   6.775   5.809 -0.2089 -0.1125 -0.2791
  109OSM   C12F11214   7.370   6.766   5.716 -0.6644  0.3124 -0.8405
  109OSM   H12F11215   7.420   6.715   5.801 -3.0959 -2.2925 -0.8115
  109OSM   H12G11216   7.448   6.833   5.674 -0.7949 -0.3659 -2.2213
  109OSM   C13F11217   7.330   6.654   5.624 -0.2872 -0.1223  0.2122
  109OSM   H13F11218   7.246   6.598   5.670 -0.9092  0.8572  0.3006
  109OSM   H13G11219   7.415   6.584   5.613  0.3911  0.8392 -0.8393
  109OSM   C14F11220   7.284   6.701   5.485 -0.1494  0.0233  0.2752
  109OSM   H14F11221   7.378   6.744   5.443 -0.3826 -0.6355 -0.9796
  109OSM   H14G11222   7.202   6.776   5.493  0.2927  0.3494  1.9544
  109OSM   C15F11223   7.236   6.583   5.393 -0.0548  1.0638  0.1916
  109OSM   H15F11224   7.175   6.526   5.466  1.7882 -1.7519 -0.3014
  109OSM   H15G11225   7.323   6.519   5.368 -0.5875  0.4422 -0.1079
  109OSM   C16F11226   7.155   6.620   5.267  0.5232  0.1692  0.2797
  109OSM   H16F11227   7.234   6.662   5.201  1.0951 -1.0102  0.2015
  109OSM   H16G11228   7.084   6.702   5.290  1.9897  1.0029  2.1830
  109OSM   C17F11229   7.088   6.500   5.200  0.0854 -0.1328 -0.3242
  109OSM   H17F11230   7.168   6.440   5.150  1.4309  0.3954  1.1274
  109OSM   H17G11231   7.025   6.544   5.120 -0.8016  1.2981  1.1064
  109OSM   C18F11232   7.005   6.419   5.309 -0.3088  0.0834 -0.0098
  109OSM   H18F11233   7.077   6.367   5.374 -3.5010 -0.6594  3.2715
  109OSM   H18G11234   6.946   6.334   5.266  3.3244 -1.5253 -2.2316
  109OSM   H18H11235   6.949   6.487   5.377  1.1529  0.6457  0.6732
  110OSM      N11236   0.314   3.040   6.392 -0.4800  0.1911 -0.0874
  110OSM    C1511237   0.239   3.133   6.481 -0.8070 -0.1115  0.4281
  110OSM   H15A11238   0.176   3.078   6.550 -0.5359  0.3481  1.0489
  110OSM   H15B11239   0.180   3.192   6.412  0.0403  0.2843  0.0276
  110OSM   H15C11240   0.306   3.198   6.535 -0.0381  2.0413 -2.8470
  110OSM    C1411241   0.348   3.117   6.269  0.2796  0.3287 -0.6784
  110OSM   H14A11242   0.423   3.191   6.292  1.8379 -0.3981 -3.0357
  110OSM   H14B11243   0.262   3.170   6.229  0.1926  1.1731  0.5534
  110OSM   H14C11244   0.390   3.048   6.198  2.0870  0.1793  0.4880
  110OSM    C1311245   0.425   2.980   6.470 -0.4661 -0.1132  0.5675
  110OSM   H13A11246   0.497   3.052   6.507  1.4593 -1.0981 -1.0349
  110OSM   H13B11247   0.480   2.913   6.405  0.8668  0.4902  1.0285
  110OSM   H13C11248   0.391   2.920   6.553  1.0971  0.6196  1.8004
  110OSM    C1211249   0.225   2.924   6.345 -0.2623 -1.0472 -0.4373
  110OSM   H12A11250   0.283   2.868   6.273  2.4853 -0.8275  1.4841
  110OSM   H12B11251   0.140   2.957   6.286  0.3239  0.0357 -0.7123
  110OSM    C1111252   0.171   2.818   6.447  0.0388  0.1954  0.8689
  110OSM   H11A11253   0.262   2.766   6.484  0.9656  0.8392 -0.4218
  110OSM   H11B11254   0.110   2.748   6.386  0.6018  1.0586 -0.7357
  110OSM      P11255  -0.067   2.871   6.559 -0.1187 -0.7319  0.6607
  110OSM    O1311256  -0.095   2.748   6.635 -0.1278 -0.0616  1.0395
  110OSM    O1411257  -0.121   2.991   6.620 -0.2576  0.0843  0.8822
  110OSM    O1111258  -0.121   2.862   6.414  0.2752  0.0591  0.3562
  110OSM    O1211259   0.091   2.878   6.546 -0.0956 -0.0276 -0.4429
  110OSM    C1S11260  -0.145   2.985   6.346 -0.0205  0.4040  0.5129
  110OSM    H1S11261  -0.068   3.062   6.369 -0.7217  1.1052  0.5452
  110OSM    H1T11262  -0.246   3.026   6.369  0.2012  0.1251  2.0432
  110OSM     NF11263  -0.124   3.076   6.105  0.1162 -0.3166  0.3315
  110OSM    HNF11264  -0.188   3.094   6.031  0.9052  0.6975 -0.1315
  110OSM    C2S11265  -0.143   2.957   6.186 -0.0389  0.4756  0.1061
  110OSM    H2S11266  -0.055   2.894   6.161  1.6381  3.0390 -0.7755
  110OSM    C3S11267  -0.272   2.877   6.149 -0.6976  0.8373  0.4938
  110OSM    H3S11268  -0.353   2.948   6.176  0.5115  2.7181 -0.5935
  110OSM     O311269  -0.305   2.771   6.237  0.0485  0.0614  0.3650
  110OSM    HO311270  -0.231   2.759   6.297  1.7429  0.5616 -1.4860
  110OSM    C4S11271  -0.270   2.827   6.005 -0.3324  0.1004  0.6802
  110OSM    H4S11272  -0.329   2.888   5.935  0.6167 -0.5298 -0.7332
  110OSM    C5S11273  -0.211   2.715   5.951 -0.2805  0.4511 -0.0834
  110OSM    H5S11274  -0.143   2.664   6.021  1.1122  0.5335 -1.3259
  110OSM    C6S11275  -0.212   2.659   5.811 -0.6599  0.2962  0.3916
  110OSM    H6S11276  -0.277   2.569   5.811 -0.2973 -0.0840  3.7425
  110OSM    H6T11277  -0.108   2.632   5.784  0.1587  3.1233  0.4034
  110OSM    C7S11278  -0.246   2.760   5.701  0.5818 -0.5042  0.4657
  110OSM    H7S11279  -0.176   2.845   5.713 -2.1104  1.6192  2.4239
  110OSM    H7T11280  -0.351   2.792   5.720  0.3198 -1.1725  0.1990
  110OSM    C8S11281  -0.221   2.702   5.561  0.2909  0.2886 -0.0034
  110OSM    H8S11282  -0.284   2.625   5.511  1.2116 -0.1872 -0.4500
  110OSM    H8T11283  -0.125   2.648   5.553 -1.3782 -3.1581  1.2030
  110OSM    C9S11284  -0.225   2.822   5.462  0.3723  0.3571  0.6600
  110OSM    H9S11285  -0.135   2.888   5.467 -0.1945  1.1924  0.0757
  110OSM    H9T11286  -0.310   2.889   5.485 -0.3972 -0.7483  1.1087
  110OSM   C10S11287  -0.244   2.787   5.313  0.0350  0.5498 -0.5899
  110OSM   H10S11288  -0.325   2.711   5.312  0.9560 -0.5989  1.7844
  110OSM   H10T11289  -0.157   2.727   5.276  0.1008  0.1719  0.1590
  110OSM   C11S11290  -0.280   2.897   5.226  0.4972  1.1032  0.5506
  110OSM   H11S11291  -0.188   2.955   5.202  0.5747  0.6630 -0.2576
  110OSM   H11T11292  -0.356   2.963   5.273 -1.8115 -0.4138 -0.8535
  110OSM   C12S11293  -0.337   2.855   5.088  0.0699 -0.3894 -0.2701
  110OSM   H12S11294  -0.433   2.799   5.093 -1.0797  1.3038 -2.1240
  110OSM   H12T11295  -0.255   2.809   5.030  1.0163  0.2498  0.5324
  110OSM   C13S11296  -0.361   2.980   4.993  0.5053 -0.1509 -0.1936
  110OSM   H13S11297  -0.360   2.942   4.889  1.1317  1.5932 -0.8780
  110OSM   H13T11298  -0.272   3.047   5.002  1.0272 -0.8084 -0.3889
  110OSM   C14S11299  -0.492   3.059   5.020 -0.4230 -0.0805 -0.4572
  110OSM   H14S11300  -0.490   3.099   5.124 -0.2533 -2.7029  0.6385
  110OSM   H14T11301  -0.572   2.982   5.020  0.4053 -0.9775  0.2614
  110OSM   C15S11302  -0.522   3.179   4.929 -0.0334  0.3573  0.0364
  110OSM   H15S11303  -0.433   3.245   4.926  0.8350 -0.7976 -2.6436
  110OSM   H15T11304  -0.608   3.235   4.971 -0.1782 -1.2048  1.9897
  110OSM   C16S11305  -0.542   3.126   4.781  0.4679  0.5880  0.2379
  110OSM   H16S11306  -0.649   3.095   4.777  0.2008  1.5534 -0.4090
  110OSM   H16T11307  -0.478   3.037   4.764 -1.7016 -0.9238 -0.4306
  110OSM   C17S11308  -0.524   3.230   4.671  0.2518 -0.0667  0.1069
  110OSM   H17S11309  -0.543   3.187   4.571  1.1374  1.0783 -0.5750
  110OSM   H17T11310  -0.417   3.258   4.661 -0.0659  1.6215  1.1070
  110OSM   C18S11311  -0.607   3.353   4.693  0.0018 -0.2612  0.4508
  110OSM   H18S11312  -0.714   3.343   4.723  0.1774  2.1517  2.1947
  110OSM   H18T11313  -0.601   3.411   4.599  2.6496 -1.5628 -0.2803
  110OSM   H18U11314  -0.558   3.426   4.761  0.7288 -0.0521 -0.2824
  110OSM    C1F11315  -0.012   3.147   6.109 -0.0778 -0.4754  0.3150
  110OSM     OF11316   0.091   3.093   6.146 -0.9166  0.3837 -0.0272
  110OSM    C2F11317  -0.028   3.287   6.090  0.3900  0.7381  0.0082
  110OSM    H2F11318  -0.036   3.327   6.194 -1.3872 -0.4072  0.3514
  110OSM    H2G11319  -0.127   3.319   6.052  0.2018  1.8742  1.3431
  110OSM    C3F11320   0.081   3.349   6.001  0.2313 -0.1246 -0.6607
  110OSM    H3F11321   0.183   3.318   6.030 -0.5189 -0.9195  1.3182
  110OSM    H3G11322   0.075   3.459   6.021  2.0067  0.0856 -1.1135
  110OSM    C4F11323   0.064   3.325   5.848  0.0103  0.2244  0.6165
  110OSM    H4F11324  -0.036   3.349   5.805  0.6843 -0.5461 -1.4785
  110OSM    H4G11325   0.088   3.218   5.831 -1.8729 -0.1687  0.1897
  110OSM    C5F11326   0.155   3.408   5.753 -0.5514 -0.5115  0.2147
  110OSM    H5F11327   0.254   3.357   5.758 -0.8291 -0.9645  1.9201
  110OSM    H5G11328   0.160   3.507   5.802  0.2195  0.0792 -1.0339
  110OSM    C6F11329   0.094   3.431   5.619 -0.1516  0.3104  0.8958
  110OSM    H6F11330  -0.016   3.440   5.609  0.1272  1.0869 -2.4387
  110OSM    H6G11331   0.107   3.334   5.567  0.8090  2.1937 -2.6967
  110OSM    C7F11332   0.154   3.543   5.534 -0.3844  0.3197 -0.5520
  110OSM    H7F11333   0.259   3.515   5.514 -0.6201  0.6212 -2.4902
  110OSM    H7G11334   0.148   3.643   5.581 -0.8687  1.7838 -3.4829
  110OSM    C8F11335   0.082   3.547   5.393 -0.1582  0.3780 -0.6485
  110OSM    H8F11336  -0.027   3.546   5.414  0.3919  1.6301  3.1142
  110OSM    H8G11337   0.106   3.456   5.333 -1.4163  2.2284 -4.2438
  110OSM    C9F11338   0.111   3.676   5.318  1.0532 -0.2543  0.4344
  110OSM    H9F11339   0.065   3.764   5.366  0.8734 -0.8759  1.4249
  110OSM   C10F11340   0.144   3.685   5.192 -0.3793 -0.9192 -0.2823
  110OSM   H10F11341   0.167   3.787   5.156 -2.2404 -0.6311 -0.7539
  110OSM   C11F11342   0.187   3.587   5.091 -0.2298  0.8545  0.1781
  110OSM   H11F11343   0.133   3.491   5.108  0.9376 -0.0359 -0.9617
  110OSM   H11G11344   0.295   3.571   5.112 -0.0375  0.5716 -0.9691
  110OSM   C12F11345   0.164   3.642   4.951  0.1624 -0.1114 -0.1879
  110OSM   H12F11346   0.177   3.752   4.946 -2.5304  0.2185 -3.3166
  110OSM   H12G11347   0.056   3.631   4.928  0.2283  0.0793 -0.5992
  110OSM   C13F11348   0.243   3.572   4.844  0.7251  0.7039 -0.4809
  110OSM   H13F11349   0.231   3.462   4.858  1.9339  0.7482  1.2872
  110OSM   H13G11350   0.350   3.593   4.866  0.8587  0.2627 -0.7049
  110OSM   C14F11351   0.202   3.621   4.710  0.0450  0.0875 -0.5018
  110OSM   H14F11352   0.201   3.731   4.699  0.1919 -0.0644 -2.4431
  110OSM   H14G11353   0.098   3.581   4.704  0.1753 -0.2018 -0.8670
  110OSM   C15F11354   0.276   3.543   4.599 -0.3624 -0.2572  0.0817
  110OSM   H15F11355   0.385   3.530   4.617 -0.7001  1.3329  4.2836
  110OSM   H15G11356   0.279   3.615   4.514 -0.1490  1.0063  1.1342
  110OSM   C16F11357   0.213   3.413   4.563 -0.9556  0.1644  0.6937
  110OSM   H16F11358   0.117   3.430   4.511  0.9998  2.1408 -2.5966
  110OSM   H16G11359   0.199   3.347   4.651  1.0494  0.6507  1.4229
  110OSM   C17F11360   0.306   3.327   4.464  1.1236  0.4571 -0.3517
  110OSM   H17F11361   0.342   3.400   4.387 -0.2514  0.0984 -1.3758
  110OSM   H17G11362   0.241   3.260   4.404  1.9403 -0.4032 -0.2972
  110OSM   C18F11363   0.414   3.249   4.533  0.0967  0.1871 -0.1608
  110OSM   H18F11364   0.488   3.223   4.455  0.2643 -1.7104  0.5879
  110OSM   H18G11365   0.373   3.159   4.584 -1.1529  0.6261 -0.3374
  110OSM   H18H11366   0.449   3.319   4.612 -4.1864 -0.1682  2.3719
  111OSM      N11367   2.801   2.365   6.743  0.0437  0.2828  0.6069
  111OSM    C1511368   2.739   2.458   6.842 -0.5503  0.3611  0.4061
  111OSM   H15A11369   2.814   2.529   6.874  0.2250 -0.8180  1.2921
  111OSM   H15B11370   2.698   2.405   6.926  0.7771 -0.7374  0.4007
  111OSM   H15C11371   2.663   2.515   6.791  0.0864 -0.4109 -1.5439
  111OSM    C1411372   2.915   2.292   6.806 -0.7052  0.1109 -0.0049
  111OSM   H14A11373   3.011   2.341   6.808  0.1491 -1.4724  2.5155
  111OSM   H14B11374   2.931   2.213   6.735 -3.5182  0.9822 -1.7497
  111OSM   H14C11375   2.889   2.259   6.905 -1.2430 -0.8970 -0.4690
  111OSM    C1311376   2.698   2.268   6.709  0.9598  0.4171 -0.1873
  111OSM   H13A11377   2.741   2.217   6.625  0.0943  0.2830 -0.5597
  111OSM   H13B11378   2.610   2.321   6.676 -0.8580 -3.2709 -1.8165
  111OSM   H13C11379   2.675   2.186   6.775  0.3689  1.2822  0.7142
  111OSM    C1211380   2.849   2.440   6.619 -0.2063 -0.0334  0.0489
  111OSM   H12A11381   2.905   2.366   6.564 -0.5860 -0.7240  0.5856
  111OSM   H12B11382   2.910   2.521   6.657  0.8591  0.5847 -2.7252
  111OSM    C1111383   2.735   2.502   6.531 -0.0857 -0.0688 -0.3795
  111OSM   H11A11384   2.662   2.423   6.507 -0.5585 -0.8022  2.9536
  111OSM   H11B11385   2.786   2.540   6.440  0.7296  1.5643  0.6925
  111OSM      P11386   2.533   2.663   6.566  0.3888  0.2552 -0.5300
  111OSM    O1311387   2.436   2.554   6.604 -0.0416  0.2431  0.3757
  111OSM    O1411388   2.501   2.791   6.638 -0.0250  0.6537  0.6273
  111OSM    O1111389   2.533   2.673   6.405 -0.6966  0.1566  0.2414
  111OSM    O1211390   2.676   2.616   6.606 -0.9300 -0.0177  0.0625
  111OSM    C1S11391   2.630   2.769   6.348 -0.7995 -0.1642 -0.1877
  111OSM    H1S11392   2.729   2.764   6.398 -1.0034 -0.5275  0.1790
  111OSM    H1T11393   2.591   2.872   6.359 -0.1900 -0.1137  1.9705
  111OSM     NF11394   2.752   2.822   6.143  0.3466 -0.4090  0.1467
  111OSM    HNF11395   2.722   2.897   6.085 -0.0607 -1.5287 -1.1671
  111OSM    C2S11396   2.651   2.735   6.194  0.1874  0.9704 -0.2033
  111OSM    H2S11397   2.686   2.631   6.179  0.8078  0.7268  2.5093
  111OSM    C3S11398   2.519   2.755   6.119  0.1283  1.7463  0.3994
  111OSM    H3S11399   2.492   2.861   6.134  0.4245  2.0431 -0.9769
  111OSM     O311400   2.407   2.682   6.170  0.4405 -0.0966 -0.9525
  111OSM    HO311401   2.430   2.670   6.262 -2.2487  0.9971 -0.0325
  111OSM    C4S11402   2.536   2.730   5.969 -0.6607  1.0630 -0.6719
  111OSM    H4S11403   2.508   2.819   5.910 -0.2187  1.2677 -0.5808
  111OSM    C5S11404   2.551   2.605   5.917 -0.4599 -0.3622  0.0319
  111OSM    H5S11405   2.566   2.521   5.987 -0.2191 -0.4478 -0.1194
  111OSM    C6S11406   2.548   2.580   5.774  0.1650 -0.3223  0.0544
  111OSM    H6S11407   2.451   2.530   5.750 -0.2158 -0.6603  2.1553
  111OSM    H6T11408   2.635   2.519   5.743  0.9243  0.0002  1.4837
  111OSM    C7S11409   2.573   2.705   5.687  0.1995 -0.8532  0.5308
  111OSM    H7S11410   2.661   2.765   5.718 -1.8316  1.6344  1.8877
  111OSM    H7T11411   2.490   2.779   5.696  2.4090  1.8276  0.4296
  111OSM    C8S11412   2.591   2.670   5.543  0.8069 -0.1041  0.2727
  111OSM    H8S11413   2.504   2.618   5.498  1.7914  0.5746 -2.5823
  111OSM    H8T11414   2.678   2.604   5.524  1.3594  0.7094 -0.0930
  111OSM    C9S11415   2.609   2.803   5.454 -0.0619 -0.4322 -0.8935
  111OSM    H9S11416   2.687   2.861   5.509 -1.3262 -0.4412  1.0172
  111OSM    H9T11417   2.517   2.864   5.449  0.6409  0.7650  0.1240
  111OSM   C10S11418   2.648   2.767   5.306 -0.0093 -0.3945 -0.1034
  111OSM   H10S11419   2.555   2.736   5.253 -2.8045  1.6032  3.2500
  111OSM   H10T11420   2.724   2.686   5.302  1.3926  0.8325  0.8739
  111OSM   C11S11421   2.716   2.882   5.228 -0.1509  0.0625  0.0275
  111OSM   H11S11422   2.809   2.906   5.283  0.1287 -1.0106  0.0588
  111OSM   H11T11423   2.646   2.967   5.239 -0.8922 -0.5149 -0.1968
  111OSM   C12S11424   2.732   2.843   5.086 -0.2897 -0.1806  0.2668
  111OSM   H12S11425   2.632   2.818   5.045 -0.9853 -0.9476  2.3255
  111OSM   H12T11426   2.804   2.759   5.090  0.4821  0.3439 -1.5525
  111OSM   C13S11427   2.789   2.965   5.008 -0.2391  0.0749  0.0236
  111OSM   H13S11428   2.851   3.029   5.073 -1.2292  0.2838  0.7891
  111OSM   H13T11429   2.700   3.023   4.976 -2.7982 -2.6772  1.6690
  111OSM   C14S11430   2.884   2.919   4.890  0.1639  0.4541 -0.0254
  111OSM   H14S11431   2.835   2.851   4.817  1.4105  0.9320 -1.3584
  111OSM   H14T11432   2.962   2.859   4.940  1.7325  1.7855 -0.7806
  111OSM   C15S11433   2.930   3.044   4.806 -0.1958  1.0877  0.1654
  111OSM   H15S11434   3.016   3.098   4.852  0.4543  0.0267  0.2240
  111OSM   H15T11435   2.842   3.111   4.799 -0.8829  0.3662  1.4832
  111OSM   C16S11436   2.970   2.996   4.669 -0.4885  0.2871  0.3512
  111OSM   H16S11437   2.871   2.967   4.628 -1.2719  1.9255  0.9675
  111OSM   H16T11438   3.046   2.915   4.671  0.3697  1.0206 -1.0028
  111OSM   C17S11439   3.015   3.105   4.567  0.7403 -0.3708  0.4306
  111OSM   H17S11440   3.059   3.066   4.472  1.4390  3.6612 -1.1317
  111OSM   H17T11441   3.094   3.158   4.625 -0.6226  1.0414  1.0844
  111OSM   C18S11442   2.903   3.202   4.531 -0.4352 -0.1658 -0.3702
  111OSM   H18S11443   2.940   3.278   4.460  0.8663  0.2865  0.7450
  111OSM   H18T11444   2.848   3.252   4.614 -0.1849 -0.1080 -0.2381
  111OSM   H18U11445   2.829   3.151   4.465 -0.0833 -0.8921 -0.2208
  111OSM    C1F11446   2.880   2.808   6.180 -0.0816  0.8103  0.1992
  111OSM     OF11447   2.919   2.711   6.243 -0.6546 -0.1904 -0.2877
  111OSM    C2F11448   2.974   2.919   6.151  0.0552 -0.0356  0.4767
  111OSM    H2F11449   3.004   2.967   6.247  1.1896 -1.1015  0.6718
  111OSM    H2G11450   2.924   2.998   6.091  2.1540  1.3011  0.3915
  111OSM    C3F11451   3.101   2.877   6.081  0.2466  0.0628 -0.9891
  111OSM    H3F11452   3.151   2.818   6.161 -0.6666  0.5760 -0.0066
  111OSM    H3G11453   3.158   2.971   6.061 -1.6398  1.4731 -0.0670
  111OSM    C4F11454   3.084   2.778   5.964  0.4871  0.5605  0.2211
  111OSM    H4F11455   3.026   2.689   5.995 -1.3688  1.5574 -0.2778
  111OSM    H4G11456   3.182   2.736   5.931 -0.2056 -2.3648  1.5558
  111OSM    C5F11457   3.019   2.840   5.842 -0.6178 -0.2652  0.5959
  111OSM    H5F11458   3.075   2.935   5.829 -0.6106  0.2717  3.7334
  111OSM    H5G11459   2.914   2.867   5.868 -1.5521 -3.5092  0.7345
  111OSM    C6F11460   3.033   2.745   5.725 -0.2316  0.5912  0.2082
  111OSM    H6F11461   2.963   2.659   5.732  0.0540  0.4409  1.5063
  111OSM    H6G11462   3.138   2.708   5.726 -0.3149  0.3532  0.2742
  111OSM    C7F11463   3.008   2.821   5.594  0.2720  0.3473  0.9022
  111OSM    H7F11464   3.079   2.907   5.598 -0.1332  0.6863  0.9199
  111OSM    H7G11465   2.906   2.865   5.589  0.6939  1.1987 -1.5376
  111OSM    C8F11466   3.027   2.746   5.457 -0.2197  0.2504 -0.1696
  111OSM    H8F11467   2.983   2.809   5.377  0.5338  1.5003  0.3637
  111OSM    H8G11468   2.972   2.650   5.449 -0.9338  0.6424 -0.0558
  111OSM    C9F11469   3.173   2.718   5.438 -0.3569 -0.1695  0.6763
  111OSM    H9F11470   3.237   2.748   5.523  1.9330 -1.6131 -0.4337
  111OSM   C10F11471   3.225   2.654   5.331 -0.0473  0.2738 -0.8542
  111OSM   H10F11472   3.335   2.654   5.322  0.0940  1.6198  0.4917
  111OSM   C11F11473   3.132   2.613   5.224 -0.0230  0.4114 -0.1824
  111OSM   H11F11474   3.034   2.584   5.268  0.4835 -1.4637 -0.1710
  111OSM   H11G11475   3.169   2.518   5.179 -1.9497 -0.2962 -0.3823
  111OSM   C12F11476   3.116   2.716   5.110  0.3147 -0.0778 -0.7806
  111OSM   H12F11477   3.097   2.818   5.150  3.9904  0.5570 -0.3205
  111OSM   H12G11478   3.016   2.702   5.062 -1.1493  0.3523  1.9505
  111OSM   C13F11479   3.234   2.717   5.018  0.4582  0.6496 -0.8911
  111OSM   H13F11480   3.243   2.616   4.974 -0.4747  0.1389  0.0470
  111OSM   H13G11481   3.328   2.739   5.074  0.9486  0.7884 -1.7557
  111OSM   C14F11482   3.213   2.811   4.895  0.1869 -0.1756 -0.2266
  111OSM   H14F11483   3.231   2.915   4.929  0.3195  0.2118 -1.4164
  111OSM   H14G11484   3.116   2.804   4.841  0.0813  0.3677 -0.1134
  111OSM   C15F11485   3.313   2.777   4.785 -0.2727 -0.7220 -0.1331
  111OSM   H15F11486   3.270   2.685   4.741 -3.2408  0.5571 -0.1829
  111OSM   H15G11487   3.417   2.769   4.822 -0.0293  0.0726 -0.6048
  111OSM   C16F11488   3.330   2.879   4.672 -0.1260 -0.3245 -0.2256
  111OSM   H16F11489   3.334   2.983   4.711  0.5992  0.0630 -1.2559
  111OSM   H16G11490   3.247   2.869   4.598 -2.2151  0.8345  1.8482
  111OSM   C17F11491   3.458   2.851   4.596 -0.3626  0.1328 -0.4524
  111OSM   H17F11492   3.547   2.867   4.661 -2.2141  3.2893  1.5227
  111OSM   H17G11493   3.465   2.913   4.505 -1.3868  0.3089 -0.4197
  111OSM   C18F11494   3.465   2.702   4.541 -0.0330  0.6172 -1.3108
  111OSM   H18F11495   3.492   2.633   4.624 -3.1309  0.9431  0.0844
  111OSM   H18G11496   3.539   2.679   4.461  1.3030 -0.7249  0.2350
  111OSM   H18H11497   3.364   2.670   4.507 -0.2417  0.9862 -1.0468
  112OSM      N11498   6.202   5.068   6.738 -0.7835  0.6120  0.3459
  112OSM    C1511499   6.153   4.935   6.795 -0.0135 -0.2197 -0.3173
  112OSM   H15A11500   6.158   4.852   6.726 -0.3520  0.1897 -0.8514
  112OSM   H15B11501   6.049   4.956   6.815  0.3832 -0.8264  2.8314
  112OSM   H15C11502   6.197   4.914   6.891 -1.2290 -1.0810  0.0778
  112OSM    C1411503   6.189   5.176   6.840 -0.2390  0.1969  0.0343
  112OSM   H14A11504   6.215   5.271   6.795  0.3002 -0.3950 -0.9508
  112OSM   H14B11505   6.255   5.150   6.921  0.5133  2.3500  0.1852
  112OSM   H14C11506   6.092   5.195   6.883 -0.3976  3.0028 -1.3007
  112OSM    C1311507   6.345   5.049   6.687  0.2644 -0.2319 -0.3468
  112OSM   H13A11508   6.351   4.998   6.592  2.4605 -2.5193  0.8862
  112OSM   H13B11509   6.390   4.989   6.764  0.9185  2.8466  1.8466
  112OSM   H13C11510   6.401   5.141   6.691 -0.8131  0.4720 -0.8361
  112OSM    C1211511   6.113   5.094   6.617 -0.6658 -0.1857 -0.7317
  112OSM   H12A11512   6.125   5.198   6.592  2.6098  0.2978  2.0948
  112OSM   H12B11513   6.009   5.072   6.638 -0.9132  0.5600 -1.1312
  112OSM    C1111514   6.143   5.014   6.483 -0.0319  0.1819  0.1192
  112OSM   H11A11515   6.230   5.053   6.427 -1.2066  1.1205 -1.1148
  112OSM   H11B11516   6.052   5.043   6.426 -0.1917  1.5182  1.0092
  112OSM      P11517   6.098   4.750   6.428  0.2397  0.1056 -0.0037
  112OSM    O1311518   6.187   4.729   6.308 -0.0737 -0.2405  0.7574
  112OSM    O1411519   6.083   4.637   6.524 -0.5401 -0.4331  0.8382
  112OSM    O1111520   5.951   4.789   6.390 -0.7681 -1.0531 -0.4931
  112OSM    O1211521   6.146   4.877   6.510  0.4224 -0.1794 -0.0460
  112OSM    C1S11522   5.901   4.856   6.273 -0.1072  0.1353 -0.2685
  112OSM    H1S11523   5.986   4.917   6.236  1.7388 -2.0915  0.0844
  112OSM    H1T11524   5.828   4.938   6.290  0.2968  0.6111 -0.8153
  112OSM     NF11525   5.829   4.833   6.039  0.1755  0.1689 -0.3233
  112OSM    HNF11526   5.738   4.864   6.016  0.2957  0.3405 -0.5610
  112OSM    C2S11527   5.850   4.761   6.160 -0.9565  0.4040 -0.5656
  112OSM    H2S11528   5.939   4.698   6.142 -0.6100  0.2501  1.4266
  112OSM    C3S11529   5.727   4.678   6.206  0.3475 -0.0997 -0.6674
  112OSM    H3S11530   5.640   4.741   6.232  0.7051 -0.2630  1.0166
  112OSM     O311531   5.751   4.599   6.330 -0.0234  0.1232 -0.0675
  112OSM    HO311532   5.827   4.632   6.377  1.5644 -0.9956 -1.7113
  112OSM    C4S11533   5.689   4.584   6.093 -0.2413 -0.2992 -0.3452
  112OSM    H4S11534   5.770   4.511   6.076 -1.0253 -1.3020  0.1134
  112OSM    C5S11535   5.574   4.575   6.024 -0.0329  0.3166 -0.3155
  112OSM    H5S11536   5.501   4.653   6.053 -1.3132 -0.6333 -0.8480
  112OSM    C6S11537   5.537   4.476   5.920 -0.0014 -0.0442 -0.5088
  112OSM    H6S11538   5.428   4.458   5.918  0.1746 -1.1497 -0.4720
  112OSM    H6T11539   5.595   4.382   5.931  0.8515  0.5575  0.3824
  112OSM    C7S11540   5.578   4.531   5.779 -0.1634  0.6335  0.5313
  112OSM    H7S11541   5.538   4.628   5.742 -2.0168 -1.2543 -2.8706
  112OSM    H7T11542   5.555   4.447   5.711  1.3823 -0.3296  1.1413
  112OSM    C8S11543   5.729   4.518   5.754 -0.3243  0.7426 -0.4122
  112OSM    H8S11544   5.780   4.474   5.842  1.4911 -0.7726 -2.1274
  112OSM    H8T11545   5.774   4.619   5.747  0.9568  0.1872 -0.4140
  112OSM    C9S11546   5.760   4.435   5.623 -0.2121  0.2280 -0.8930
  112OSM    H9S11547   5.711   4.336   5.614 -0.3109 -0.1478  2.4615
  112OSM    H9T11548   5.867   4.405   5.631  0.4549  2.6740  0.4573
  112OSM   C10S11549   5.769   4.510   5.488  0.1475 -0.5010  0.0604
  112OSM   H10S11550   5.824   4.604   5.509  0.7692 -0.9332  0.4020
  112OSM   H10T11551   5.667   4.547   5.464  0.4438  0.8817  0.8080
  112OSM   C11S11552   5.829   4.417   5.384 -0.0863 -0.4475  0.9342
  112OSM   H11S11553   5.918   4.360   5.417 -0.0444 -2.1797 -1.8147
  112OSM   H11T11554   5.866   4.479   5.299  0.9891 -0.9148  1.0465
  112OSM   C12S11555   5.728   4.309   5.338 -0.2934 -0.0892  0.7873
  112OSM   H12S11556   5.627   4.352   5.320 -1.1387 -2.8517 -1.8950
  112OSM   H12T11557   5.727   4.234   5.420  2.0444  1.1182  2.0325
  112OSM   C13S11558   5.760   4.227   5.206 -1.0879 -0.4327 -0.1083
  112OSM   H13S11559   5.694   4.140   5.225 -1.6037  0.4825  2.7959
  112OSM   H13T11560   5.868   4.201   5.202 -1.1109 -0.4444 -1.0831
  112OSM   C14S11561   5.729   4.323   5.090 -0.5525  0.3483 -0.7848
  112OSM   H14S11562   5.792   4.414   5.104 -0.1302 -0.1673  0.9304
  112OSM   H14T11563   5.626   4.359   5.113  0.5220  2.4455  1.2070
  112OSM   C15S11564   5.745   4.267   4.952 -0.4368  1.0932  0.5123
  112OSM   H15S11565   5.700   4.341   4.882  0.8953  2.7978  1.4044
  112OSM   H15T11566   5.680   4.177   4.945 -0.9476  1.5543 -1.0071
  112OSM   C16S11567   5.891   4.253   4.910  1.1373  0.5110 -0.6858
  112OSM   H16S11568   5.939   4.168   4.964 -2.1467 -0.3180  1.2141
  112OSM   H16T11569   5.950   4.340   4.944  1.1810  0.4009 -0.4752
  112OSM   C17S11570   5.908   4.240   4.762 -0.4027  1.3556  0.4128
  112OSM   H17S11571   6.017   4.225   4.756 -0.6784 -0.7514  0.0487
  112OSM   H17T11572   5.870   4.326   4.703 -3.0598  0.5482  0.7821
  112OSM   C18S11573   5.839   4.119   4.699  0.1377 -0.0970 -0.0880
  112OSM   H18S11574   5.880   4.105   4.596  1.3418  1.5017  0.1469
  112OSM   H18T11575   5.730   4.128   4.676 -0.0602 -3.6847 -1.3110
  112OSM   H18U11576   5.853   4.033   4.767  2.7889  2.1816  2.4949
  112OSM    C1F11577   5.924   4.889   5.964  0.0343 -0.2902  0.1587
  112OSM     OF11578   6.039   4.900   6.006  0.2804  0.1450 -0.1870
  112OSM    C2F11579   5.868   4.933   5.830 -0.2515  0.2682  0.6821
  112OSM    H2F11580   5.762   4.963   5.838 -0.4339  1.1073 -3.1590
  112OSM    H2G11581   5.862   4.841   5.768 -0.0282  0.7118 -0.0019
  112OSM    C3F11582   5.955   5.038   5.752  0.1267  0.7242 -0.2594
  112OSM    H3F11583   5.939   5.025   5.643 -0.5036  1.2782 -0.2406
  112OSM    H3G11584   6.064   5.022   5.768  0.0401 -1.4208 -1.4363
  112OSM    C4F11585   5.925   5.179   5.785 -0.4604 -0.7342  0.0455
  112OSM    H4F11586   5.921   5.194   5.895  0.7625 -1.8191  0.2512
  112OSM    H4G11587   5.823   5.196   5.744  0.8906  1.8605 -2.6461
  112OSM    C5F11588   6.020   5.287   5.721 -0.0759 -0.7108  0.0062
  112OSM    H5F11589   6.121   5.264   5.762 -0.2549  2.8226  2.9574
  112OSM    H5G11590   6.003   5.383   5.773  2.3566  0.6287 -1.4331
  112OSM    C6F11591   6.022   5.294   5.572  0.4811  0.1263  0.6566
  112OSM    H6F11592   5.923   5.324   5.532 -0.2348 -0.4031  1.9665
  112OSM    H6G11593   6.058   5.207   5.513  1.1490  0.9179 -0.1441
  112OSM    C7F11594   6.107   5.410   5.525 -0.4375 -0.7167  0.8053
  112OSM    H7F11595   6.213   5.387   5.550  0.1895  1.3270  0.1923
  112OSM    H7G11596   6.083   5.502   5.584  1.5326  0.3137  0.0739
  112OSM    C8F11597   6.107   5.442   5.378  0.0619 -0.8298 -0.7477
  112OSM    H8F11598   6.188   5.517   5.366 -0.5867 -0.0814 -0.5137
  112OSM    H8G11599   6.019   5.499   5.342 -0.9708 -1.4080  0.7668
  112OSM    C9F11600   6.141   5.322   5.297 -0.0836 -0.0935  0.2785
  112OSM    H9F11601   6.054   5.259   5.272  0.9555 -1.4040 -0.1711
  112OSM   C10F11602   6.260   5.269   5.267 -0.1451 -0.4313 -0.4784
  112OSM   H10F11603   6.253   5.170   5.219  0.1647 -0.8490  0.3204
  112OSM   C11F11604   6.399   5.327   5.299  0.1346  0.9681  0.7209
  112OSM   H11F11605   6.460   5.245   5.342 -0.3364 -1.3784 -2.6580
  112OSM   H11G11606   6.400   5.397   5.385  0.7787  1.6662  0.1653
  112OSM   C12F11607   6.490   5.391   5.188  0.1090 -0.4952  0.0549
  112OSM   H12F11608   6.559   5.460   5.243 -1.3347  0.2218  1.0184
  112OSM   H12G11609   6.423   5.456   5.129 -1.4206 -2.4793 -0.4866
  112OSM   C13F11610   6.590   5.297   5.106 -0.0479 -0.3582 -0.0908
  112OSM   H13F11611   6.650   5.228   5.169  0.4828 -1.1283 -1.4052
  112OSM   H13G11612   6.665   5.355   5.048  1.3608 -4.0720 -2.3127
  112OSM   C14F11613   6.522   5.208   4.995 -0.1341 -0.3252 -0.6517
  112OSM   H14F11614   6.446   5.156   5.057  0.4624  0.2655  0.6009
  112OSM   H14G11615   6.578   5.129   4.941 -1.1867 -0.5168 -1.5106
  112OSM   C15F11616   6.441   5.291   4.889 -0.3591 -0.3079  0.4431
  112OSM   H15F11617   6.503   5.356   4.824 -1.8526  0.7521  0.0279
  112OSM   H15G11618   6.388   5.358   4.960 -1.7098 -2.5251  1.6421
  112OSM   C16F11619   6.347   5.205   4.802 -0.1237  0.4310  0.3555
  112OSM   H16F11620   6.402   5.116   4.764 -0.2919  0.8194 -0.8564
  112OSM   H16G11621   6.311   5.266   4.716  0.4299 -1.0633 -0.9859
  112OSM   C17F11622   6.226   5.151   4.876  0.5327  0.6720 -0.1074
  112OSM   H17F11623   6.173   5.229   4.936 -1.6077  0.6214 -1.8042
  112OSM   H17G11624   6.264   5.076   4.948 -2.0060 -0.4283  0.2014
  112OSM   C18F11625   6.126   5.081   4.787 -0.1640  0.0555 -0.2245
  112OSM   H18F11626   6.170   5.001   4.725  0.4939  0.2027  0.0403
  112OSM   H18G11627   6.085   5.151   4.710  0.3207 -0.5295 -1.0290
  112OSM   H18H11628   6.042   5.035   4.843  0.1689 -0.5606 -0.2296
  113OSM      N11629   4.722   0.025   6.766 -0.3185 -0.6146 -0.4965
  113OSM    C1511630   4.780  -0.113   6.756  0.4859  0.2329  0.1325
  113OSM   H15A11631   4.887  -0.107   6.739  0.5738 -0.9943  0.1641
  113OSM   H15B11632   4.723  -0.176   6.690 -0.0146 -1.2547  1.8894
  113OSM   H15C11633   4.782  -0.163   6.852  0.9678 -1.6679 -0.8183
  113OSM    C1411634   4.585   0.019   6.832  0.2305 -0.6885 -0.1440
  113OSM   H14A11635   4.568   0.123   6.855  1.3236 -0.0750 -1.9260
  113OSM   H14B11636   4.580  -0.038   6.924  0.5940  1.2096  1.1055
  113OSM   H14C11637   4.510  -0.013   6.762 -1.5729  2.1730  0.3307
  113OSM    C1311638   4.814   0.111   6.845  0.9515  0.0035  0.7528
  113OSM   H13A11639   4.822   0.068   6.944 -0.6790  0.3879  1.0780
  113OSM   H13B11640   4.762   0.205   6.853  1.1663  0.2927 -0.8795
  113OSM   H13C11641   4.914   0.127   6.806  0.8934  0.7937  0.9098
  113OSM    C1211642   4.707   0.092   6.629 -0.0499  0.2214  0.1887
  113OSM   H12A11643   4.807   0.095   6.588 -0.0083 -2.4434 -0.0718
  113OSM   H12B11644   4.671   0.193   6.642 -0.7645 -0.3213  2.8515
  113OSM    C1111645   4.611   0.020   6.530 -0.2670  0.3289 -0.2913
  113OSM   H11A11646   4.628  -0.089   6.531 -2.5331 -0.0988 -1.9325
  113OSM   H11B11647   4.623   0.045   6.422 -0.5798  1.1598 -0.1396
  113OSM      P11648   4.396   0.168   6.527 -0.1453  0.1374  0.2578
  113OSM    O1311649   4.274   0.183   6.612  0.6417 -0.3112 -0.2446
  113OSM    O1411650   4.492   0.281   6.532  0.3786 -0.3207  0.1048
  113OSM    O1111651   4.356   0.148   6.377 -0.3971 -0.5806 -0.2371
  113OSM    O1211652   4.477   0.034   6.562 -0.3027  0.0049  0.1966
  113OSM    C1S11653   4.295   0.020   6.352 -0.0076 -1.3308  0.0131
  113OSM    H1S11654   4.188   0.028   6.380 -0.5929  0.0492 -2.3620
  113OSM    H1T11655   4.346  -0.069   6.395  0.0863 -1.2155  0.1408
  113OSM     NF11656   4.218  -0.129   6.169  0.4689  0.1726 -0.6444
  113OSM    HNF11657   4.276  -0.207   6.146  0.0839 -1.2537  2.6798
  113OSM    C2S11658   4.289  -0.004   6.201  0.2003 -0.3452 -0.6949
  113OSM    H2S11659   4.233   0.077   6.151  0.8470 -0.4579 -1.6240
  113OSM    C3S11660   4.428   0.001   6.135 -0.2473 -0.1296 -0.8464
  113OSM    H3S11661   4.487  -0.086   6.172 -0.7518 -0.2758 -0.3751
  113OSM     O311662   4.507   0.117   6.169 -0.4465 -0.1999  0.2051
  113OSM    HO311663   4.448   0.168   6.225 -0.3046 -1.0053  1.1015
  113OSM    C4S11664   4.427  -0.028   5.985  0.4157  0.3601 -0.3584
  113OSM    H4S11665   4.426  -0.135   5.959  1.8885  0.1494  0.3485
  113OSM    C5S11666   4.419   0.062   5.891  0.8117 -0.8018  0.5859
  113OSM    H5S11667   4.430   0.166   5.922  0.5549 -0.8675  0.8999
  113OSM    C6S11668   4.408   0.040   5.737  0.1198 -0.7711 -0.4633
  113OSM    H6S11669   4.491   0.100   5.695 -1.5109  1.7662 -0.3445
  113OSM    H6T11670   4.318   0.091   5.696  0.0837 -1.2321 -0.9759
  113OSM    C7S11671   4.427  -0.101   5.670  0.6620 -0.1044  0.2936
  113OSM    H7S11672   4.356  -0.168   5.723 -1.9031  1.5939 -0.8262
  113OSM    H7T11673   4.533  -0.128   5.693  0.4800  0.1045  1.4562
  113OSM    C8S11674   4.390  -0.114   5.521 -0.4048 -0.0327  0.1165
  113OSM    H8S11675   4.432  -0.023   5.472  1.0520 -0.6703  0.1304
  113OSM    H8T11676   4.281  -0.111   5.502 -0.3463  1.7116 -0.1237
  113OSM    C9S11677   4.440  -0.240   5.442 -0.4451 -0.3436  0.5973
  113OSM    H9S11678   4.411  -0.326   5.506  0.1303  0.9799  2.7434
  113OSM    H9T11679   4.551  -0.248   5.434 -0.5429  0.2614 -2.9049
  113OSM   C10S11680   4.375  -0.259   5.302  0.0215 -0.2791  0.4107
  113OSM   H10S11681   4.366  -0.156   5.262  0.3464 -0.2092  0.5172
  113OSM   H10T11682   4.272  -0.298   5.316 -0.6520  1.0451 -0.6284
  113OSM   C11S11683   4.461  -0.343   5.200 -0.2333  0.4017 -0.2527
  113OSM   H11S11684   4.470  -0.451   5.228  1.8299  0.4115 -0.6780
  113OSM   H11T11685   4.565  -0.307   5.215 -0.4740  1.9238 -1.8931
  113OSM   C12S11686   4.422  -0.337   5.053  0.0149  0.4447  0.3987
  113OSM   H12S11687   4.381  -0.239   5.021 -0.4522  0.5217  1.2156
  113OSM   H12T11688   4.344  -0.415   5.036  0.2918  0.6854 -2.4488
  113OSM   C13S11689   4.533  -0.360   4.953  0.4322  0.9642  0.4382
  113OSM   H13S11690   4.576  -0.461   4.968  1.5678  1.2085 -0.9105
  113OSM   H13T11691   4.614  -0.284   4.965 -1.8571  3.6835 -0.1244
  113OSM   C14S11692   4.481  -0.325   4.811 -0.0406  0.1062  0.2104
  113OSM   H14S11693   4.569  -0.309   4.745  0.7574 -1.3680  0.8667
  113OSM   H14T11694   4.408  -0.243   4.796 -0.8726 -0.9055 -1.5395
  113OSM   C15S11695   4.397  -0.442   4.750  0.1167  0.3263  0.1828
  113OSM   H15S11696   4.310  -0.459   4.817  0.1023  2.2414  0.7249
  113OSM   H15T11697   4.451  -0.538   4.742 -1.8172 -0.9994  1.8887
  113OSM   C16S11698   4.337  -0.390   4.612  0.5484  0.1630  0.1365
  113OSM   H16S11699   4.421  -0.374   4.541 -0.2408  3.2584 -0.2157
  113OSM   H16T11700   4.281  -0.296   4.630 -0.2366 -0.6319  2.1918
  113OSM   C17S11701   4.235  -0.494   4.547  0.0604  0.0746  0.1781
  113OSM   H17S11702   4.289  -0.591   4.544  0.6137  0.3702  0.4376
  113OSM   H17T11703   4.237  -0.462   4.440  1.4734 -0.2755  0.0856
  113OSM   C18S11704   4.093  -0.484   4.608  0.2425  0.3042 -0.1349
  113OSM   H18S11705   4.033  -0.531   4.528  2.0913 -0.0265 -1.4094
  113OSM   H18T11706   4.071  -0.378   4.633  1.1626  0.0019  2.2174
  113OSM   H18U11707   4.091  -0.537   4.706  0.0931  0.1740 -0.2096
  113OSM    C1F11708   4.088  -0.152   6.193  0.6261  0.2124 -0.6528
  113OSM     OF11709   4.016  -0.067   6.244  0.3806  1.0760 -0.6927
  113OSM    C2F11710   4.027  -0.289   6.165  0.1349 -0.8905 -0.1244
  113OSM    H2F11711   4.001  -0.326   6.266  0.7495 -0.8065  0.0730
  113OSM    H2G11712   4.108  -0.349   6.117  0.7362  0.0085 -0.2708
  113OSM    C3F11713   3.915  -0.275   6.056  0.2561  0.0134  0.6415
  113OSM    H3F11714   3.979  -0.267   5.965  0.1904  0.4473  0.6330
  113OSM    H3G11715   3.861  -0.180   6.070  3.0623  1.8325  0.0188
  113OSM    C4F11716   3.820  -0.396   6.049 -0.5018 -0.0719  0.4575
  113OSM    H4F11717   3.758  -0.418   6.139 -0.7307 -1.1739  0.0384
  113OSM    H4G11718   3.887  -0.483   6.034  0.1577  0.7466 -1.8685
  113OSM    C5F11719   3.746  -0.378   5.919 -0.2346  0.1869  0.2419
  113OSM    H5F11720   3.817  -0.350   5.838  0.7488  1.5616  1.5303
  113OSM    H5G11721   3.671  -0.297   5.927 -0.7444 -0.4440  3.0538
  113OSM    C6F11722   3.681  -0.515   5.868  0.1326  0.1948 -0.2789
  113OSM    H6F11723   3.588  -0.543   5.921  1.0980 -2.1973  0.2888
  113OSM    H6G11724   3.762  -0.591   5.871 -0.9683 -1.1765 -2.6823
  113OSM    C7F11725   3.649  -0.496   5.726  0.5800 -0.6592  0.7328
  113OSM    H7F11726   3.742  -0.470   5.671 -0.6337 -1.8058 -2.0258
  113OSM    H7G11727   3.575  -0.414   5.728 -0.3674 -1.5036  0.9976
  113OSM    C8F11728   3.599  -0.619   5.656 -0.2125  0.2137  0.0099
  113OSM    H8F11729   3.531  -0.590   5.573  1.6470  1.4131 -1.1933
  113OSM    H8G11730   3.526  -0.664   5.726 -0.2641  1.2315  0.6218
  113OSM    C9F11731   3.707  -0.714   5.617 -0.1062  0.3077  0.0632
  113OSM    H9F11732   3.765  -0.752   5.703  1.5370 -0.3890 -1.2916
  113OSM   C10F11733   3.742  -0.749   5.493  0.3178  0.1396 -0.2678
  113OSM   H10F11734   3.824  -0.820   5.478  0.5214 -0.4051  2.7418
  113OSM   C11F11735   3.674  -0.687   5.371 -0.4769  0.0564 -0.1129
  113OSM   H11F11736   3.757  -0.641   5.312  1.7064  0.7838  3.2360
  113OSM   H11G11737   3.620  -0.593   5.393  1.5670  1.4781 -0.8084
  113OSM   C12F11738   3.594  -0.776   5.278  0.2875  0.7608  0.2943
  113OSM   H12F11739   3.516  -0.830   5.336 -1.5901  0.5340 -2.2584
  113OSM   H12G11740   3.659  -0.852   5.230 -0.4112  0.4860 -0.2414
  113OSM   C13F11741   3.513  -0.699   5.173 -0.1550  0.0693 -0.5099
  113OSM   H13F11742   3.573  -0.645   5.097 -1.5177  0.6275 -1.2137
  113OSM   H13G11743   3.442  -0.627   5.221  0.4134 -1.2953  2.6672
  113OSM   C14F11744   3.419  -0.796   5.094 -0.4435 -0.8255  0.2228
  113OSM   H14F11745   3.347  -0.741   5.030 -0.4658  0.1558  1.0525
  113OSM   H14G11746   3.353  -0.862   5.155 -2.0573 -0.9862 -1.5847
  113OSM   C15F11747   3.504  -0.905   5.023 -0.3529 -0.3201  0.2123
  113OSM   H15F11748   3.561  -0.965   5.098 -1.1820 -0.4363  0.7585
  113OSM   H15G11749   3.577  -0.871   4.947  0.0880 -2.1015 -0.2238
  113OSM   C16F11750   3.413  -1.020   4.956  0.4597  0.5657 -0.3393
  113OSM   H16F11751   3.350  -1.066   5.035  1.1924 -0.6774 -0.4537
  113OSM   H16G11752   3.466  -1.110   4.919 -1.1135 -1.5134  2.1368
  113OSM   C17F11753   3.325  -0.966   4.834 -0.2799 -0.6228 -0.2438
  113OSM   H17F11754   3.395  -0.968   4.747  1.3080 -0.8155  0.9898
  113OSM   H17G11755   3.291  -0.863   4.858 -0.1789 -0.7869  0.6411
  113OSM   C18F11756   3.200  -1.046   4.796  0.1081  0.4027  0.6188
  113OSM   H18F11757   3.229  -1.153   4.784 -1.1864  0.1931 -0.9842
  113OSM   H18G11758   3.148  -1.011   4.704 -1.1942 -0.1458  1.1157
  113OSM   H18H11759   3.117  -1.044   4.870  1.1209 -2.3363  1.9448
  114OSM      N11760   1.735   5.098   6.914 -0.4318 -0.3950  0.3786
  114OSM    C1511761   1.789   5.224   6.982 -0.1321  0.1871  0.2687
  114OSM   H15A11762   1.738   5.316   6.954 -0.0446  0.0697 -0.3003
  114OSM   H15B11763   1.894   5.234   6.959 -0.1308  0.6195  0.4466
  114OSM   H15C11764   1.768   5.209   7.086 -1.9240  0.4799 -0.0077
  114OSM    C1411765   1.805   5.080   6.788  0.3925  0.5547 -0.0639
  114OSM   H14A11766   1.772   4.993   6.733  2.1982  0.6519 -1.3769
  114OSM   H14B11767   1.912   5.068   6.795  0.3794  0.5469  0.1192
  114OSM   H14C11768   1.781   5.163   6.722 -0.2441  0.8930  0.5754
  114OSM    C1311769   1.777   4.990   7.005 -0.1107  0.6220 -0.6537
  114OSM   H13A11770   1.755   4.890   6.970 -0.3234  0.4965 -0.1596
  114OSM   H13B11771   1.740   5.005   7.105 -1.0643  0.4290 -0.9665
  114OSM   H13C11772   1.885   4.991   7.006 -0.0773 -0.6196 -0.9673
  114OSM    C1211773   1.582   5.096   6.902 -0.6035  0.5426 -0.0710
  114OSM   H12A11774   1.554   5.137   6.998 -0.7821  2.0569 -0.7394
  114OSM   H12B11775   1.540   4.996   6.906 -1.6717  1.0005  0.2429
  114OSM    C1111776   1.523   5.178   6.786  0.2829 -0.1466 -0.6645
  114OSM   H11A11777   1.550   5.118   6.696  1.4820 -1.9404  0.8029
  114OSM   H11B11778   1.580   5.272   6.775  0.8928 -0.4988 -0.5520
  114OSM      P11779   1.286   5.077   6.798  0.5538 -0.1968 -0.0521
  114OSM    O1311780   1.316   4.987   6.913  0.5024  0.4946 -0.5122
  114OSM    O1411781   1.146   5.123   6.780 -0.3631  0.0708 -0.2240
  114OSM    O1111782   1.331   5.016   6.662  0.2408 -0.0528 -0.5965
  114OSM    O1211783   1.381   5.203   6.808 -0.5394  0.4450  1.3101
  114OSM    C1S11784   1.281   5.093   6.551 -0.4285  0.9555 -0.2172
  114OSM    H1S11785   1.329   5.193   6.554  0.7977  0.3742  1.6246
  114OSM    H1T11786   1.171   5.098   6.535 -0.4412 -0.8375 -0.9519
  114OSM     NF11787   1.325   5.123   6.314 -0.5284  0.2691 -0.0881
  114OSM    HNF11788   1.239   5.105   6.267 -1.4424 -1.4044  2.0515
  114OSM    C2S11789   1.340   5.023   6.420 -0.4037 -0.8750 -0.3637
  114OSM    H2S11790   1.445   4.998   6.445 -0.1577 -0.1596 -0.6279
  114OSM    C3S11791   1.253   4.897   6.393 -0.2611 -0.2516 -0.2987
  114OSM    H3S11792   1.165   4.941   6.343  1.9213  1.9295 -2.5577
  114OSM     O311793   1.222   4.815   6.504  0.2787  0.2607  0.7093
  114OSM    HO311794   1.262   4.868   6.573 -0.9847  0.4242  1.3335
  114OSM    C4S11795   1.323   4.820   6.288 -0.6478  0.0463  0.0070
  114OSM    H4S11796   1.302   4.866   6.190 -0.7821  1.6485  0.7458
  114OSM    C5S11797   1.378   4.698   6.297 -0.3974 -0.3900  0.1996
  114OSM    H5S11798   1.384   4.648   6.395  0.7381  2.3737  1.6528
  114OSM    C6S11799   1.427   4.619   6.176 -0.0252  0.1463  0.5086
  114OSM    H6S11800   1.533   4.586   6.177  0.1810  0.5916 -1.3335
  114OSM    H6T11801   1.408   4.670   6.078 -0.3002 -0.3596  0.2965
  114OSM    C7S11802   1.337   4.489   6.169 -0.4795  0.0532  0.4023
  114OSM    H7S11803   1.229   4.508   6.188 -0.3848 -0.9951  2.2843
  114OSM    H7T11804   1.361   4.410   6.243  2.1416 -0.0157 -0.4280
  114OSM    C8S11805   1.350   4.431   6.024 -0.2791 -0.1406  0.0588
  114OSM    H8S11806   1.281   4.489   5.960 -1.5986 -1.2577  0.4125
  114OSM    H8T11807   1.311   4.327   6.037  0.2206 -0.2090  1.1218
  114OSM    C9S11808   1.494   4.420   5.972  0.4343 -0.3137  0.0805
  114OSM    H9S11809   1.542   4.347   6.041 -0.4931  0.8180  2.0126
  114OSM    H9T11810   1.551   4.512   5.994  0.7406 -0.2099 -1.1010
  114OSM   C10S11811   1.496   4.361   5.831 -0.8303 -0.0893  0.0610
  114OSM   H10S11812   1.464   4.255   5.839 -0.4514 -0.1785  0.4266
  114OSM   H10T11813   1.602   4.360   5.799 -1.2699  2.2922 -1.7621
  114OSM   C11S11814   1.409   4.434   5.721 -0.7718 -0.4798 -0.3036
  114OSM   H11S11815   1.305   4.410   5.752 -0.5659 -0.4705  0.4259
  114OSM   H11T11816   1.420   4.379   5.625  2.6135  1.8727 -1.4411
  114OSM   C12S11817   1.426   4.592   5.725 -0.3828 -0.0064  0.5104
  114OSM   H12S11818   1.404   4.628   5.827 -0.3161  0.1058  0.4850
  114OSM   H12T11819   1.348   4.640   5.663 -0.2922  1.2921  1.3794
  114OSM   C13S11820   1.561   4.647   5.692  0.0191 -0.4176  0.4829
  114OSM   H13S11821   1.636   4.574   5.729 -0.9669 -1.1400  1.1146
  114OSM   H13T11822   1.582   4.745   5.739 -0.1133 -0.4051  0.5168
  114OSM   C14S11823   1.571   4.649   5.542 -0.4731 -1.4493 -0.5692
  114OSM   H14S11824   1.497   4.724   5.507  0.1256 -0.7697 -0.3904
  114OSM   H14T11825   1.531   4.557   5.494  0.6572 -2.6247  0.6578
  114OSM   C15S11826   1.709   4.682   5.486 -0.1022 -0.6443  0.1779
  114OSM   H15S11827   1.699   4.685   5.375 -0.5229  0.1903  0.2358
  114OSM   H15T11828   1.784   4.602   5.506 -1.0580 -1.8764 -0.9392
  114OSM   C16S11829   1.772   4.816   5.525  0.0826 -0.3691  0.4479
  114OSM   H16S11830   1.855   4.839   5.454 -0.0590 -1.7169 -0.1861
  114OSM   H16T11831   1.819   4.803   5.625  2.7347  1.3735 -0.4588
  114OSM   C17S11832   1.678   4.939   5.521  0.6095 -0.1599  0.0915
  114OSM   H17S11833   1.580   4.925   5.572  0.3477 -0.0544 -0.3755
  114OSM   H17T11834   1.641   4.970   5.421 -1.0759  1.0966  1.0474
  114OSM   C18S11835   1.741   5.067   5.576  0.5831  0.2441  0.6075
  114OSM   H18S11836   1.817   5.108   5.507 -0.2476  0.7980 -0.0012
  114OSM   H18T11837   1.785   5.045   5.676 -1.9336  0.6099  1.8849
  114OSM   H18U11838   1.653   5.135   5.584 -0.6150 -1.2668  0.7489
  114OSM    C1F11839   1.404   5.226   6.317  0.1227  0.0276  0.0697
  114OSM     OF11840   1.520   5.210   6.357  0.7384 -1.0087 -0.4246
  114OSM    C2F11841   1.356   5.360   6.268 -0.4446  0.0930  0.0970
  114OSM    H2F11842   1.364   5.433   6.351 -2.3126  0.4460  0.0115
  114OSM    H2G11843   1.247   5.364   6.245 -0.1744  1.1949 -1.1281
  114OSM    C3F11844   1.449   5.427   6.167 -0.1726 -0.4305 -0.0981
  114OSM    H3F11845   1.434   5.371   6.072 -0.5101 -0.9631  0.2657
  114OSM    H3G11846   1.559   5.424   6.185 -0.1530 -0.3623 -0.2007
  114OSM    C4F11847   1.397   5.569   6.150  0.7290  0.5753 -0.7479
  114OSM    H4F11848   1.416   5.628   6.242  0.7653  0.8988 -0.9610
  114OSM    H4G11849   1.287   5.556   6.137  0.9643 -2.7310 -0.2473
  114OSM    C5F11850   1.450   5.635   6.019  0.5074  0.1583 -0.3426
  114OSM    H5F11851   1.560   5.646   6.024  0.6436 -1.3678  0.8868
  114OSM    H5G11852   1.422   5.743   6.020  0.8457  0.2478  0.1839
  114OSM    C6F11853   1.403   5.565   5.892  0.3478  0.8601 -0.4089
  114OSM    H6F11854   1.299   5.528   5.901  0.6432 -0.0215 -0.4726
  114OSM    H6G11855   1.456   5.468   5.883 -0.2435  0.6089 -1.3881
  114OSM    C7F11856   1.403   5.649   5.767  0.9639 -0.4064 -0.1951
  114OSM    H7F11857   1.506   5.686   5.750  0.1264  1.3587 -1.8871
  114OSM    H7G11858   1.337   5.739   5.763 -0.0965 -1.1791 -0.4059
  114OSM    C8F11859   1.354   5.580   5.636  0.3564 -0.5708  0.7846
  114OSM    H8F11860   1.243   5.572   5.637  0.2366 -0.0001 -1.7367
  114OSM    H8G11861   1.388   5.474   5.643  0.2160 -0.6389  0.4675
  114OSM    C9F11862   1.413   5.653   5.513 -0.1003 -0.4013 -0.0575
  114OSM    H9F11863   1.373   5.753   5.494 -0.5430 -0.9984 -2.5557
  114OSM   C10F11864   1.492   5.602   5.414 -0.5480 -0.1633 -0.2571
  114OSM   H10F11865   1.515   5.672   5.333  0.3009 -0.2615 -0.1125
  114OSM   C11F11866   1.561   5.467   5.415 -0.5416 -0.6861 -0.3192
  114OSM   H11F11867   1.541   5.419   5.317  1.2451 -1.7571 -0.1842
  114OSM   H11G11868   1.513   5.401   5.490  0.6129 -1.5253 -0.3002
  114OSM   C12F11869   1.709   5.478   5.445  0.2451  0.6522  0.9503
  114OSM   H12F11870   1.756   5.574   5.415  0.1607  0.5677  0.5524
  114OSM   H12G11871   1.758   5.401   5.382 -0.1000 -0.4485  1.9954
  114OSM   C13F11872   1.737   5.468   5.595  1.5773  0.1497 -0.4869
  114OSM   H13F11873   1.697   5.372   5.635 -1.7909  1.1210 -1.1403
  114OSM   H13G11874   1.673   5.547   5.639 -1.7308 -1.6111 -1.7271
  114OSM   C14F11875   1.878   5.488   5.634  0.0156 -0.7354 -0.0842
  114OSM   H14F11876   1.912   5.577   5.577 -0.6629  0.3569  1.1586
  114OSM   H14G11877   1.948   5.416   5.588  1.8724  0.5673  0.5826
  114OSM   C15F11878   1.894   5.494   5.789 -0.0667  0.1258  0.1941
  114OSM   H15F11879   1.857   5.591   5.829  0.2156  0.7069 -0.9184
  114OSM   H15G11880   2.003   5.509   5.806 -0.3375  0.2893  2.0200
  114OSM   C16F11881   1.830   5.380   5.874  0.0048  0.6494 -0.9825
  114OSM   H16F11882   1.876   5.283   5.848  1.0267  0.8219  0.0890
  114OSM   H16G11883   1.721   5.381   5.857 -0.3155  1.5073  0.7979
  114OSM   C17F11884   1.855   5.406   6.027  0.8635  0.1916 -0.2064
  114OSM   H17F11885   1.806   5.502   6.055  0.5517 -0.4387  1.5649
  114OSM   H17G11886   1.962   5.423   6.051  0.7859  3.3830 -1.6186
  114OSM   C18F11887   1.793   5.293   6.114 -0.1715  0.3876  0.6546
  114OSM   H18F11888   1.690   5.262   6.087  0.0407 -0.4588  0.8038
  114OSM   H18G11889   1.774   5.322   6.219  0.8763  0.2219  0.9080
  114OSM   H18H11890   1.871   5.214   6.118  2.0342  2.1624 -2.5191
  115OSM      N11891   1.431   1.738   6.768  0.0858  0.5731  0.2949
  115OSM    C1511892   1.277   1.736   6.772 -0.4174  0.1462 -0.5385
  115OSM   H15A11893   1.245   1.639   6.807  0.5642  0.0280  0.0725
  115OSM   H15B11894   1.235   1.747   6.673 -1.5134  1.4222  0.0324
  115OSM   H15C11895   1.243   1.808   6.846 -0.5962  0.8108 -1.2471
  115OSM    C1411896   1.460   1.631   6.666 -0.0196  0.0278 -0.0982
  115OSM   H14A11897   1.421   1.533   6.690  2.2731 -0.9210 -0.0352
  115OSM   H14B11898   1.568   1.627   6.672 -0.0841 -3.3214  0.4409
  115OSM   H14C11899   1.410   1.658   6.575 -1.3378  0.7895  0.8113
  115OSM    C1311900   1.473   1.870   6.719  0.1232  0.5331 -0.9333
  115OSM   H13A11901   1.580   1.883   6.722  0.2039 -0.1574 -0.0807
  115OSM   H13B11902   1.428   1.942   6.786  0.1719 -0.6519  0.4284
  115OSM   H13C11903   1.445   1.884   6.616  0.6860 -0.4234 -1.2341
  115OSM    C1211904   1.483   1.686   6.903 -0.0335 -0.6396  0.4624
  115OSM   H12A11905   1.463   1.581   6.895  2.8636 -1.1434 -1.5820
  115OSM   H12B11906   1.428   1.725   6.988  1.6375  0.2169  1.2008
  115OSM    C1111907   1.635   1.704   6.934  0.4548  0.2044 -0.0775
  115OSM   H11A11908   1.647   1.671   7.040 -0.0269  0.7105  0.1437
  115OSM   H11B11909   1.661   1.812   6.936 -1.7487  0.7753  1.0376
  115OSM      P11910   1.765   1.486   6.877 -0.3099 -0.1796 -0.0663
  115OSM    O1311911   1.846   1.475   6.997  0.0779 -0.2259  0.0643
  115OSM    O1411912   1.645   1.407   6.873  0.0811  0.3888  0.5336
  115OSM    O1111913   1.848   1.450   6.752  0.7646 -0.4450  0.3153
  115OSM    O1211914   1.721   1.634   6.844 -0.0173  0.2065  0.0808
  115OSM    C1S11915   1.796   1.478   6.616 -0.0619 -0.7876  0.7888
  115OSM    H1S11916   1.825   1.578   6.578 -0.1309 -1.6276 -1.6363
  115OSM    H1T11917   1.685   1.485   6.622 -0.1424 -0.9907 -0.2970
  115OSM     NF11918   1.797   1.398   6.374  0.4427  0.4360 -0.4230
  115OSM    HNF11919   1.733   1.349   6.316 -0.4544  0.7612  0.2742
  115OSM    C2S11920   1.831   1.361   6.510 -0.5143  0.3503  0.2582
  115OSM    H2S11921   1.938   1.334   6.519 -0.5047  0.1552 -0.4010
  115OSM    C3S11922   1.767   1.228   6.557 -0.9353  0.5645  0.3351
  115OSM    H3S11923   1.658   1.248   6.571 -0.6215  2.2665  0.5640
  115OSM     O311924   1.814   1.189   6.686 -0.5916  0.8856 -0.0783
  115OSM    HO311925   1.853   1.271   6.719 -1.0924  0.9525  0.3553
  115OSM    C4S11926   1.784   1.115   6.460 -0.4392  0.0550  0.0195
  115OSM    H4S11927   1.874   1.122   6.398  0.4328  0.7213  1.3113
  115OSM    C5S11928   1.693   1.024   6.435 -0.5922  0.0553 -0.1106
  115OSM    H5S11929   1.595   1.024   6.484  0.3021 -1.4923  1.7956
  115OSM    C6S11930   1.719   0.907   6.342  0.1693 -0.0351  0.3199
  115OSM    H6S11931   1.692   0.811   6.391  0.8062 -1.3527 -1.7786
  115OSM    H6T11932   1.826   0.915   6.310 -0.8196  2.7113 -2.8774
  115OSM    C7S11933   1.638   0.907   6.216  0.4587 -0.1997  1.2121
  115OSM    H7S11934   1.628   1.007   6.171 -0.4570 -1.0709 -0.6273
  115OSM    H7T11935   1.536   0.880   6.251  0.8467 -0.5251  2.1269
  115OSM    C8S11936   1.685   0.812   6.111  0.8667  0.1208  0.4347
  115OSM    H8S11937   1.705   0.712   6.155  2.5523 -0.8026 -2.1705
  115OSM    H8T11938   1.776   0.858   6.068 -1.4821  2.6544 -2.3350
  115OSM    C9S11939   1.586   0.786   5.992 -0.1169 -0.5438 -0.1299
  115OSM    H9S11940   1.550   0.888   5.963  0.0794  0.1244  1.8565
  115OSM    H9T11941   1.501   0.742   6.048 -2.7452  1.4617 -2.2188
  115OSM   C10S11942   1.634   0.699   5.875 -0.8308  0.2743  0.8335
  115OSM   H10S11943   1.687   0.613   5.920  0.0710  0.7382  0.6654
  115OSM   H10T11944   1.708   0.755   5.814  0.3689 -3.4275 -1.3992
  115OSM   C11S11945   1.526   0.644   5.778 -0.3304  0.6547  0.1085
  115OSM   H11S11946   1.469   0.733   5.742  0.2083  2.0483  2.4907
  115OSM   H11T11947   1.464   0.574   5.837  0.8261 -1.7714 -1.4141
  115OSM   C12S11948   1.590   0.571   5.655  0.3396 -0.2287  0.3333
  115OSM   H12S11949   1.639   0.481   5.700  0.7140  0.6675  1.7767
  115OSM   H12T11950   1.669   0.635   5.611 -0.7630  2.7583  2.3445
  115OSM   C13S11951   1.468   0.531   5.561 -0.3091 -0.2115 -0.0035
  115OSM   H13S11952   1.457   0.611   5.485  2.6077 -0.2960 -0.6376
  115OSM   H13T11953   1.375   0.515   5.619 -0.7242  1.4787 -0.1295
  115OSM   C14S11954   1.495   0.396   5.486  0.5327 -0.6650 -0.1462
  115OSM   H14S11955   1.404   0.367   5.429  0.8280 -0.3629 -0.7800
  115OSM   H14T11956   1.510   0.316   5.562 -0.6316  0.6909  1.5921
  115OSM   C15S11957   1.613   0.393   5.386  0.2125 -0.3657  1.1639
  115OSM   H15S11958   1.635   0.290   5.353  1.8542 -0.1085  1.3602
  115OSM   H15T11959   1.706   0.431   5.434  1.8202 -1.2901 -1.0427
  115OSM   C16S11960   1.572   0.462   5.254 -0.7453 -0.4364  0.1964
  115OSM   H16S11961   1.509   0.550   5.276  1.5060  1.1245  0.7965
  115OSM   H16T11962   1.515   0.387   5.195 -1.3536  1.5195 -1.8009
  115OSM   C17S11963   1.691   0.522   5.172 -0.0055  0.0846  0.6438
  115OSM   H17S11964   1.655   0.558   5.073 -0.8377  1.5352  1.4423
  115OSM   H17T11965   1.762   0.440   5.148  2.5161  2.3873 -0.2651
  115OSM   C18S11966   1.766   0.642   5.226 -0.0490 -0.0359 -1.5015
  115OSM   H18S11967   1.871   0.645   5.189 -0.9508  0.8976 -4.2778
  115OSM   H18T11968   1.781   0.631   5.335 -2.1633 -1.0420 -1.2643
  115OSM   H18U11969   1.712   0.738   5.213 -0.8451 -0.2152  0.1975
  115OSM    C1F11970   1.880   1.489   6.317  0.2868  0.0879 -0.6643
  115OSM     OF11971   1.979   1.528   6.372  0.6272  0.2469  0.3547
  115OSM    C2F11972   1.852   1.557   6.187  0.3713 -0.1242 -0.3671
  115OSM    H2F11973   1.752   1.602   6.202 -0.0799 -0.4184 -2.1558
  115OSM    H2G11974   1.828   1.476   6.114  0.1006  1.6323 -2.3178
  115OSM    C3F11975   1.957   1.656   6.139  0.3589  0.2603  0.4409
  115OSM    H3F11976   2.060   1.615   6.139  1.0765  1.9196  2.3008
  115OSM    H3G11977   1.972   1.732   6.218  1.4493 -0.2015  0.6870
  115OSM    C4F11978   1.928   1.703   6.005  0.2109 -0.4052 -0.3300
  115OSM    H4F11979   1.820   1.731   5.998  0.0138 -1.3549 -1.2384
  115OSM    H4G11980   1.937   1.624   5.928  1.2866 -1.8509  1.1900
  115OSM    C5F11981   2.006   1.824   5.966  0.2516 -0.8978  0.6297
  115OSM    H5F11982   2.114   1.804   5.950  0.2261 -0.6638  0.1448
  115OSM    H5G11983   1.995   1.897   6.050 -1.9502 -1.6306  1.0385
  115OSM    C6F11984   1.967   1.892   5.830 -0.6495 -0.1862 -0.0489
  115OSM    H6F11985   2.024   1.986   5.821 -0.6225 -0.2255 -0.2832
  115OSM    H6G11986   1.857   1.907   5.818 -0.4823  1.9934  0.7708
  115OSM    C7F11987   2.016   1.809   5.713 -0.2619  0.2800  0.0746
  115OSM    H7F11988   1.976   1.705   5.713 -0.2940  0.2873  0.8667
  115OSM    H7G11989   2.125   1.793   5.723 -0.0197  0.0445 -2.2339
  115OSM    C8F11990   1.989   1.874   5.573 -0.0053 -0.6055  0.3551
  115OSM    H8F11991   2.061   1.839   5.496  1.0516  2.4184 -0.1558
  115OSM    H8G11992   2.007   1.983   5.569  0.5779 -0.6097  2.1250
  115OSM    C9F11993   1.851   1.849   5.533  0.1502  0.4096  0.1554
  115OSM    H9F11994   1.785   1.904   5.602  0.7294  1.2834  0.0308
  115OSM   C10F11995   1.797   1.782   5.429 -0.4839 -0.2460  0.0546
  115OSM   H10F11996   1.689   1.772   5.413 -0.5472  1.4004 -0.7036
  115OSM   C11F11997   1.862   1.697   5.320 -0.2791 -0.8197  0.1333
  115OSM   H11F11998   1.966   1.735   5.315 -0.3870 -0.6551 -1.8628
  115OSM   H11G11999   1.818   1.706   5.218 -5.9763  2.6183  2.4569
  115OSM   C12F12000   1.867   1.548   5.352  0.3689  0.7322 -0.3833
  115OSM   H12F12001   1.763   1.513   5.367  0.6133  0.8101  1.7720
  115OSM   H12G12002   1.928   1.524   5.441  0.0370 -2.7479 -0.9748
  115OSM   C13F12003   1.902   1.474   5.228 -0.5963  1.0995  0.0895
  115OSM   H13F12004   1.842   1.513   5.143  0.5749  0.1811 -1.1959
  115OSM   H13G12005   1.879   1.367   5.245  1.2306  0.9085  1.7173
  115OSM   C14F12006   2.046   1.477   5.182 -0.1312  0.0136  0.1679
  115OSM   H14F12007   2.111   1.426   5.256  0.2427  1.4696  0.8827
  115OSM   H14G12008   2.092   1.578   5.172  2.4837 -0.8150  2.5979
  115OSM   C15F12009   2.063   1.413   5.038 -0.0127  0.7840  0.2091
  115OSM   H15F12010   2.044   1.495   4.965 -0.1975  1.6486  1.2009
  115OSM   H15G12011   1.991   1.328   5.032  1.0046 -0.0208 -1.1862
  115OSM   C16F12012   2.208   1.361   5.015  0.0498 -0.6326 -0.0779
  115OSM   H16F12013   2.217   1.259   5.058  2.1179 -0.5114 -0.1413
  115OSM   H16G12014   2.275   1.432   5.068 -1.9830 -0.1321  1.9520
  115OSM   C17F12015   2.253   1.370   4.870  1.0986 -0.3111  0.2753
  115OSM   H17F12016   2.213   1.459   4.817 -0.0209 -3.2157 -4.3058
  115OSM   H17G12017   2.222   1.277   4.818 -1.9519  1.6759 -1.7336
  115OSM   C18F12018   2.410   1.368   4.861  0.6041  0.6339 -0.2010
  115OSM   H18F12019   2.437   1.351   4.754 -0.9690  0.4261 -0.5912
  115OSM   H18G12020   2.453   1.283   4.917  0.0585  0.1492 -0.4996
  115OSM   H18H12021   2.448   1.468   4.891  0.5341  1.0606 -1.4405
  116OSM      N12022   4.219   6.094   6.729 -0.5670 -0.0404  0.2845
  116OSM    C1512023   4.265   6.137   6.594 -0.1487 -0.2410  0.6047
  116OSM   H15A12024   4.198   6.204   6.542  0.6978 -0.0760 -0.3048
  116OSM   H15B12025   4.273   6.049   6.531 -2.5370 -0.5112  0.5739
  116OSM   H15C12026   4.352   6.200   6.594 -0.9078  0.8732 -1.0004
  116OSM    C1412027   4.340   6.071   6.808  0.0704 -0.6122  0.3966
  116OSM   H14A12028   4.326   6.065   6.914 -0.7850 -1.9067  0.2272
  116OSM   H14B12029   4.408   6.155   6.800 -2.1010  1.2847  0.7463
  116OSM   H14C12030   4.395   5.986   6.771  0.8689 -0.2539  0.7341
  116OSM    C1312031   4.135   6.214   6.793  0.3076 -0.1369  0.5447
  116OSM   H13A12032   4.189   6.307   6.800  2.4224 -1.3341  0.8694
  116OSM   H13B12033   4.114   6.186   6.896 -0.0035  0.2723  0.5951
  116OSM   H13C12034   4.037   6.219   6.748 -0.4470  5.6062  1.9262
  116OSM    C1212035   4.140   5.966   6.725 -0.7052  0.6473 -0.1967
  116OSM   H12A12036   4.132   5.934   6.828  1.3146  0.9316  0.0935
  116OSM   H12B12037   4.198   5.885   6.685 -1.4186 -0.3717  0.7653
  116OSM    C1112038   4.008   5.960   6.660  0.4193 -0.1939 -0.1979
  116OSM   H11A12039   3.969   5.857   6.656 -3.6623  1.1746  0.1459
  116OSM   H11B12040   4.010   5.995   6.555 -2.0509 -0.3079 -0.3374
  116OSM      P12041   3.777   6.102   6.698  0.1011 -0.3782 -0.1701
  116OSM    O1312042   3.680   6.064   6.804  0.0552  0.4183  0.0020
  116OSM    O1412043   3.792   6.243   6.678 -0.2370 -0.7261  0.3460
  116OSM    O1112044   3.731   6.049   6.559  0.0293  0.4530 -0.2740
  116OSM    O1212045   3.914   6.037   6.737 -0.0968 -0.0651  0.0350
  116OSM    C1S12046   3.719   5.911   6.514  0.4693  0.2102  0.6209
  116OSM    H1S12047   3.643   5.855   6.572  2.5367 -2.0879  1.2721
  116OSM    H1T12048   3.815   5.859   6.530  0.2252  0.0211  1.4946
  116OSM     NF12049   3.659   5.775   6.313  0.5029  0.2763  0.8773
  116OSM    HNF12050   3.736   5.732   6.265 -1.7937 -1.9939 -1.0923
  116OSM    C2S12051   3.694   5.905   6.362 -0.1828 -1.2008 -0.6927
  116OSM    H2S12052   3.602   5.964   6.342 -0.4966  0.5599  4.5262
  116OSM    C3S12053   3.808   5.979   6.289  0.6167 -0.0474 -0.4702
  116OSM    H3S12054   3.901   5.919   6.292 -0.1245 -1.2333 -0.4953
  116OSM     O312055   3.839   6.112   6.343  0.1068 -0.0419 -0.3853
  116OSM    HO312056   3.784   6.113   6.422  1.0006 -1.2156  0.2858
  116OSM    C4S12057   3.765   5.999   6.141 -0.1546 -0.1265 -0.7816
  116OSM    H4S12058   3.683   6.071   6.134 -2.8233 -2.7156  1.1277
  116OSM    C5S12059   3.819   5.922   6.045  0.4763  0.1884 -0.4400
  116OSM    H5S12060   3.903   5.856   6.070  0.4207  0.7700  1.4566
  116OSM    C6S12061   3.771   5.924   5.897  0.9010  0.0339 -0.1239
  116OSM    H6S12062   3.862   5.934   5.834  0.0410 -1.1972 -1.6508
  116OSM    H6T12063   3.710   6.008   5.858  1.6102  0.6208  0.0152
  116OSM    C7S12064   3.724   5.784   5.853 -0.3715 -1.1556 -1.1092
  116OSM    H7S12065   3.630   5.772   5.910 -0.4136  5.4853  0.9804
  116OSM    H7T12066   3.803   5.711   5.883  0.9407  0.4729 -0.4126
  116OSM    C8S12067   3.695   5.755   5.706  0.4626 -0.2192  0.4177
  116OSM    H8S12068   3.616   5.826   5.677  2.5422  2.2368  0.3835
  116OSM    H8T12069   3.672   5.646   5.702  0.8231 -0.2950  0.3450
  116OSM    C9S12070   3.823   5.782   5.618 -0.2416  0.0710  0.3967
  116OSM    H9S12071   3.909   5.729   5.666  0.7595  1.3218  0.0368
  116OSM    H9T12072   3.840   5.891   5.628 -1.5010  0.2016  1.3569
  116OSM   C10S12073   3.807   5.727   5.477  0.3215  0.2361  0.6044
  116OSM   H10S12074   3.728   5.786   5.426  0.2188 -0.1044  0.3661
  116OSM   H10T12075   3.776   5.620   5.482 -1.3237  0.5522 -1.4565
  116OSM   C11S12076   3.937   5.736   5.391 -0.0191  0.0982 -0.2283
  116OSM   H11S12077   3.997   5.646   5.415 -2.1837 -0.9654  1.6583
  116OSM   H11T12078   3.990   5.831   5.415  0.0927  0.0853 -0.4250
  116OSM   C12S12079   3.920   5.716   5.247  0.8621  0.6430 -0.7401
  116OSM   H12S12080   4.021   5.729   5.202  1.8789  0.2715  1.3235
  116OSM   H12T12081   3.852   5.793   5.204 -0.1006 -0.3119 -1.0120
  116OSM   C13S12082   3.878   5.565   5.212 -0.4584  0.1041 -0.5539
  116OSM   H13S12083   3.796   5.540   5.282  0.1307  0.3568  0.2357
  116OSM   H13T12084   3.958   5.498   5.250 -0.3584  0.5960  0.1170
  116OSM   C14S12085   3.836   5.531   5.063 -0.0774 -0.5016  0.4869
  116OSM   H14S12086   3.799   5.629   5.027 -0.8441 -0.8149  0.4072
  116OSM   H14T12087   3.748   5.463   5.067 -2.4052  2.2271 -0.7126
  116OSM   C15S12088   3.945   5.482   4.962 -0.5129  0.5305 -0.9345
  116OSM   H15S12089   4.006   5.396   4.997  1.7387  1.4990 -2.2527
  116OSM   H15T12090   4.032   5.550   4.973 -0.6036  0.2849  2.6394
  116OSM   C16S12091   3.905   5.459   4.819 -0.0454  0.5312  0.0394
  116OSM   H16S12092   3.834   5.539   4.789 -0.1219 -0.1249 -1.6207
  116OSM   H16T12093   3.850   5.363   4.811  2.5191 -1.1016  0.8486
  116OSM   C17S12094   4.011   5.463   4.709  0.4726 -0.0471  0.0311
  116OSM   H17S12095   4.109   5.425   4.744  0.5216  0.6782  0.6941
  116OSM   H17T12096   4.043   5.558   4.660  0.7040 -0.2407 -0.1949
  116OSM   C18S12097   3.968   5.367   4.599  0.5475  0.0065  0.5113
  116OSM   H18S12098   3.929   5.269   4.634 -1.8856  1.0425  0.8496
  116OSM   H18T12099   4.053   5.345   4.531  0.2192 -0.6259  0.2931
  116OSM   H18U12100   3.895   5.409   4.527 -0.2582  1.7280  2.2518
  116OSM    C1F12101   3.552   5.707   6.363  0.7762 -0.3433  0.2753
  116OSM     OF12102   3.482   5.757   6.449 -0.3867  0.3192  0.2896
  116OSM    C2F12103   3.524   5.570   6.307  0.2072  0.0410  0.2930
  116OSM    H2F12104   3.499   5.496   6.387  2.4790 -0.3414  0.7154
  116OSM    H2G12105   3.613   5.526   6.258 -1.1556 -3.5462  0.7249
  116OSM    C3F12106   3.398   5.570   6.210  0.3547  0.3800 -0.4501
  116OSM    H3F12107   3.403   5.647   6.130  0.3728  0.1498 -0.6722
  116OSM    H3G12108   3.311   5.593   6.275 -0.0450 -2.1701  0.0119
  116OSM    C4F12109   3.365   5.428   6.157 -0.2527  0.4277  0.4495
  116OSM    H4F12110   3.268   5.426   6.102  0.1242  0.8470 -0.2468
  116OSM    H4G12111   3.347   5.364   6.245 -1.2042  1.8915  1.3800
  116OSM    C5F12112   3.467   5.364   6.061 -0.4295  0.2853  0.1146
  116OSM    H5F12113   3.443   5.257   6.048  0.8181  0.2987 -3.3713
  116OSM    H5G12114   3.574   5.366   6.092  0.0287 -1.9279 -1.1635
  116OSM    C6F12115   3.450   5.411   5.913 -0.5682 -0.2701  0.2087
  116OSM    H6F12116   3.500   5.510   5.911 -1.8349  0.3920 -2.2812
  116OSM    H6G12117   3.343   5.423   5.886  0.1625 -0.6660 -3.2678
  116OSM    C7F12118   3.524   5.310   5.819  0.0068 -0.0939 -0.7270
  116OSM    H7F12119   3.514   5.352   5.716 -1.1171 -1.7267 -1.3391
  116OSM    H7G12120   3.459   5.220   5.816  1.3164 -1.1391  0.9680
  116OSM    C8F12121   3.664   5.276   5.852  0.1566  0.1729  0.2949
  116OSM    H8F12122   3.685   5.189   5.786 -2.3514 -1.2488  1.2450
  116OSM    H8G12123   3.679   5.235   5.954  3.5270  0.2342 -0.0564
  116OSM    C9F12124   3.769   5.383   5.828 -0.2223  0.4885  0.6459
  116OSM    H9F12125   3.772   5.458   5.909  0.4320  2.4959 -1.1449
  116OSM   C10F12126   3.846   5.396   5.720  0.1908 -0.0610  0.0898
  116OSM   H10F12127   3.917   5.478   5.738  0.9569 -0.9573  1.2235
  116OSM   C11F12128   3.847   5.301   5.606  0.3957  0.0431 -0.5204
  116OSM   H11F12129   3.756   5.316   5.543 -1.8531 -3.6356  1.4471
  116OSM   H11G12130   3.842   5.192   5.629 -0.5254 -0.0437 -1.0729
  116OSM   C12F12131   3.977   5.323   5.531  0.4793  0.3249  0.4353
  116OSM   H12F12132   4.066   5.301   5.593  2.2608  2.3265 -1.2440
  116OSM   H12G12133   3.977   5.423   5.482 -0.9630 -0.3337 -1.0012
  116OSM   C13F12134   3.985   5.221   5.417 -1.0556  0.2378  0.0632
  116OSM   H13F12135   3.895   5.231   5.351 -0.9198 -1.3104 -0.3829
  116OSM   H13G12136   3.961   5.116   5.441  1.1283 -0.7537 -1.7748
  116OSM   C14F12137   4.111   5.220   5.320 -0.4092 -0.6465  0.0309
  116OSM   H14F12138   4.102   5.301   5.244 -1.3947  0.3980  1.2227
  116OSM   H14G12139   4.116   5.123   5.265  0.7872 -0.2053 -0.6659
  116OSM   C15F12140   4.239   5.256   5.401  0.1906 -0.1262 -0.2429
  116OSM   H15F12141   4.259   5.172   5.471  2.1497 -0.2521 -0.8886
  116OSM   H15G12142   4.221   5.346   5.463  0.3718  1.1606 -2.0053
  116OSM   C16F12143   4.362   5.281   5.321  0.7800  0.3170 -0.4188
  116OSM   H16F12144   4.351   5.384   5.279 -1.0002 -0.0845 -1.0076
  116OSM   H16G12145   4.356   5.198   5.248  0.9192  1.4211 -1.7318
  116OSM   C17F12146   4.489   5.277   5.409 -0.0256  0.2732  0.1108
  116OSM   H17F12147   4.574   5.318   5.351  0.8281 -0.1356  1.0416
  116OSM   H17G12148   4.509   5.175   5.448 -2.5495 -0.1462  0.5005
  116OSM   C18F12149   4.484   5.372   5.524  0.1361 -0.0692 -0.6460
  116OSM   H18F12150   4.489   5.478   5.492  0.0997  0.4930  1.1388
  116OSM   H18G12151   4.576   5.357   5.584 -0.7015  0.2437  0.7635
  116OSM   H18H12152   4.400   5.350   5.593 -0.2942 -0.0905 -1.1674
  117OSM      N12153   3.023   3.394   6.723 -0.8764 -0.1556 -0.0723
  117OSM    C1512154   3.076   3.524   6.698 -0.5009 -0.2326 -0.5120
  117OSM   H15A12155   3.062   3.550   6.594 -0.9582  1.1046 -0.1428
  117OSM   H15B12156   3.182   3.538   6.705 -0.4778 -0.6991  0.0862
  117OSM   H15C12157   3.032   3.603   6.757 -0.2676  0.6361 -1.4672
  117OSM    C1412158   3.104   3.292   6.653  0.3694  0.1130 -0.4172
  117OSM   H14A12159   3.089   3.198   6.702 -0.9329  0.3950 -0.2384
  117OSM   H14B12160   3.210   3.312   6.660  0.1387  1.0519  0.7578
  117OSM   H14C12161   3.076   3.266   6.552  0.3518 -1.4846 -0.0173
  117OSM    C1312162   3.035   3.363   6.873  1.1099 -0.0011  0.5647
  117OSM   H13A12163   3.134   3.337   6.908  0.6978 -0.9244  1.0780
  117OSM   H13B12164   2.966   3.284   6.899  0.6507 -0.0138 -0.6738
  117OSM   H13C12165   2.998   3.452   6.923  0.7781  2.0363 -3.0251
  117OSM    C1212166   2.877   3.396   6.688  0.2210  0.6625 -0.9117
  117OSM   H12A12167   2.840   3.487   6.734  1.7701 -0.0357  1.9996
  117OSM   H12B12168   2.827   3.316   6.739  0.5281  1.6805  1.1147
  117OSM    C1112169   2.858   3.380   6.530  0.8114 -0.1274 -0.5088
  117OSM   H11A12170   2.935   3.447   6.486 -0.6591  0.8753 -1.6690
  117OSM   H11B12171   2.763   3.424   6.495  0.6493  2.5067  2.7173
  117OSM      P12172   2.771   3.131   6.525  0.4623 -0.5213 -0.1248
  117OSM    O1312173   2.848   3.004   6.521  0.1915 -0.1291  0.4345
  117OSM    O1412174   2.709   3.162   6.656 -0.1149  0.4100 -0.4920
  117OSM    O1112175   2.660   3.130   6.408 -0.3904  0.2562 -0.1953
  117OSM    O1212176   2.873   3.245   6.490 -0.3726  0.0778  0.4917
  117OSM    C1S12177   2.686   3.190   6.284 -0.7114  0.7234  0.8752
  117OSM    H1S12178   2.758   3.123   6.232 -3.1074 -1.0773 -0.3372
  117OSM    H1T12179   2.720   3.296   6.282  0.5850  0.3351 -0.6482
  117OSM     NF12180   2.605   3.237   6.058 -0.1346  0.7733 -0.6467
  117OSM    HNF12181   2.618   3.334   6.044  0.2377  0.9345  0.6702
  117OSM    C2S12182   2.559   3.199   6.191 -0.0219 -0.1949 -0.2147
  117OSM    H2S12183   2.510   3.099   6.196 -0.0169 -0.1463  1.3209
  117OSM    C3S12184   2.462   3.306   6.247  0.6717 -0.2715  0.3653
  117OSM    H3S12185   2.517   3.402   6.257 -1.8284  1.1346  1.7193
  117OSM     O312186   2.408   3.277   6.378  0.0066  0.1230 -0.1395
  117OSM    HO312187   2.461   3.203   6.410 -0.9129 -0.1811  0.7435
  117OSM    C4S12188   2.338   3.328   6.155 -0.3334  0.1938 -0.3214
  117OSM    H4S12189   2.283   3.235   6.132  0.2127  0.0928 -1.2539
  117OSM    C5S12190   2.292   3.448   6.114  0.1323 -0.5650  0.2397
  117OSM    H5S12191   2.351   3.530   6.156  1.5392 -1.4675  0.1053
  117OSM    C6S12192   2.159   3.474   6.042 -0.5453 -0.0032 -0.1432
  117OSM    H6S12193   2.115   3.563   6.091 -1.0642  0.2363 -1.0401
  117OSM    H6T12194   2.094   3.386   6.065  0.2495 -0.7183 -0.5766
  117OSM    C7S12195   2.175   3.493   5.896 -0.5910 -1.0306  0.0518
  117OSM    H7S12196   2.093   3.444   5.839 -0.9190 -0.1234 -0.2797
  117OSM    H7T12197   2.269   3.445   5.863  0.7777  0.3099  1.8137
  117OSM    C8S12198   2.187   3.641   5.866  0.1523 -0.0750  0.0001
  117OSM    H8S12199   2.260   3.689   5.936 -0.4871 -1.1489  1.4673
  117OSM    H8T12200   2.090   3.689   5.891  0.1166  0.8163 -1.7362
  117OSM    C9S12201   2.227   3.671   5.721 -0.3214  0.5380  0.3242
  117OSM    H9S12202   2.312   3.601   5.708 -2.7819 -2.7772  0.4935
  117OSM    H9T12203   2.267   3.774   5.707  2.2368 -0.4445 -0.1064
  117OSM   C10S12204   2.125   3.634   5.608 -0.4360 -0.0846  0.5045
  117OSM   H10S12205   2.027   3.682   5.629 -1.5061 -1.2552 -1.4330
  117OSM   H10T12206   2.106   3.524   5.615  2.4183 -0.7415 -0.6486
  117OSM   C11S12207   2.178   3.670   5.475  0.3569  0.1798  0.3073
  117OSM   H11S12208   2.254   3.594   5.444 -0.0360  0.3228 -1.1005
  117OSM   H11T12209   2.239   3.762   5.486  1.5986 -0.6890  1.0128
  117OSM   C12S12210   2.072   3.699   5.373  0.3613  0.4716 -0.5235
  117OSM   H12S12211   1.998   3.758   5.431 -0.1619 -2.1969  1.7504
  117OSM   H12T12212   2.030   3.605   5.332 -3.5788  0.8698  2.0350
  117OSM   C13S12213   2.120   3.783   5.256 -0.7288 -0.5287  0.3149
  117OSM   H13S12214   2.197   3.729   5.196  1.1399  3.1498 -0.9557
  117OSM   H13T12215   2.172   3.870   5.301  0.2443 -2.3989  3.0471
  117OSM   C14S12216   2.015   3.841   5.152 -0.9933  0.2706  0.8615
  117OSM   H14S12217   1.935   3.889   5.214  0.8837  0.6056  3.1701
  117OSM   H14T12218   1.974   3.758   5.090  1.1591 -0.5399  0.4605
  117OSM   C15S12219   2.082   3.949   5.067  0.3890 -0.0035  0.7778
  117OSM   H15S12220   2.176   3.990   5.110  0.5497 -0.5814  0.9920
  117OSM   H15T12221   2.009   4.031   5.056 -0.1684 -0.5900 -0.0086
  117OSM   C16S12222   2.129   3.894   4.931  0.4762  0.4259 -1.0175
  117OSM   H16S12223   2.038   3.844   4.892 -0.4683  0.3485  1.1410
  117OSM   H16T12224   2.195   3.808   4.954 -2.5738 -1.6979  0.4375
  117OSM   C17S12225   2.190   3.982   4.817 -0.3028  0.2337 -0.3187
  117OSM   H17S12226   2.290   4.011   4.856 -0.5871  3.7759 -1.7987
  117OSM   H17T12227   2.124   4.071   4.803 -1.4566 -0.3912  0.9242
  117OSM   C18S12228   2.202   3.904   4.678  0.5755  0.2677  0.3721
  117OSM   H18S12229   2.123   3.827   4.673  2.5915 -1.8134 -2.1908
  117OSM   H18T12230   2.299   3.851   4.680  0.8117  0.6941  2.1712
  117OSM   H18U12231   2.192   3.968   4.588 -1.4572 -1.8416 -0.9997
  117OSM    C1F12232   2.662   3.160   5.971  0.1187  0.0778 -0.1769
  117OSM     OF12233   2.676   3.045   5.996 -0.0678  0.8647  0.1502
  117OSM    C2F12234   2.709   3.223   5.846 -0.5497 -0.0497  0.8860
  117OSM    H2F12235   2.808   3.272   5.858 -0.7509  0.4365  0.6120
  117OSM    H2G12236   2.634   3.300   5.818  1.2621  1.1407 -1.0692
  117OSM    C3F12237   2.725   3.134   5.716  0.2719  0.6146 -0.3165
  117OSM    H3F12238   2.631   3.078   5.699  0.7657 -0.0702 -0.8454
  117OSM    H3G12239   2.814   3.069   5.734  1.0055  1.1502 -1.8088
  117OSM    C4F12240   2.762   3.213   5.592 -0.5021 -0.4753  0.0980
  117OSM    H4F12241   2.850   3.274   5.621 -2.5190  1.4995  2.4853
  117OSM    H4G12242   2.687   3.291   5.563 -1.7901 -1.2220  1.3354
  117OSM    C5F12243   2.782   3.135   5.464  0.1169 -0.3584  1.0189
  117OSM    H5F12244   2.691   3.109   5.407  0.8202 -0.0088 -0.2893
  117OSM    H5G12245   2.832   3.040   5.495  0.1572 -0.8950 -0.5896
  117OSM    C6F12246   2.885   3.196   5.370  0.0874 -0.6779  0.1133
  117OSM    H6F12247   2.900   3.133   5.279  1.7998  0.1415 -0.2000
  117OSM    H6G12248   2.985   3.194   5.417 -0.3588 -3.2095  1.1336
  117OSM    C7F12249   2.860   3.348   5.327 -0.6479  0.3975 -0.2123
  117OSM    H7F12250   2.938   3.376   5.253 -0.4305 -0.8190 -0.4647
  117OSM    H7G12251   2.865   3.413   5.417  0.5439  1.2669 -0.8856
  117OSM    C8F12252   2.724   3.381   5.254  0.4313  0.6934 -0.2405
  117OSM    H8F12253   2.727   3.490   5.229  1.6192  0.9968  1.0979
  117OSM    H8G12254   2.636   3.359   5.318 -0.6595 -1.6655 -2.3722
  117OSM    C9F12255   2.707   3.297   5.129  0.0503  0.7925 -0.0848
  117OSM    H9F12256   2.646   3.206   5.131  1.7676 -0.3973  0.8733
  117OSM   C10F12257   2.758   3.330   5.008  0.0046 -0.5417 -0.3620
  117OSM   H10F12258   2.740   3.269   4.919  0.1859  0.0935 -0.8433
  117OSM   C11F12259   2.846   3.449   4.979  0.4431 -0.3050 -0.2256
  117OSM   H11F12260   2.941   3.418   4.930  2.2663 -0.6056  3.1761
  117OSM   H11G12261   2.883   3.497   5.072  0.9566  0.2507 -0.7031
  117OSM   C12F12262   2.775   3.551   4.881  0.6663  0.8510  0.6336
  117OSM   H12F12263   2.830   3.647   4.884 -0.7238  1.6812  0.4814
  117OSM   H12G12264   2.674   3.578   4.919 -0.0033  0.7309 -0.9746
  117OSM   C13F12265   2.770   3.491   4.738 -0.3802  0.3950 -0.3887
  117OSM   H13F12266   2.698   3.408   4.749 -1.1726  1.2913  1.8173
  117OSM   H13G12267   2.868   3.453   4.701  1.1536  2.7491  0.9797
  117OSM   C14F12268   2.709   3.596   4.638 -0.4055 -0.2779  0.1174
  117OSM   H14F12269   2.599   3.599   4.656 -0.4477  0.9515 -0.2285
  117OSM   H14G12270   2.734   3.563   4.535 -0.7607 -0.3665  0.0586
  117OSM   C15F12271   2.773   3.735   4.665 -0.8488 -0.6776 -0.6088
  117OSM   H15F12272   2.883   3.723   4.672 -0.6035  0.7373 -1.6301
  117OSM   H15G12273   2.736   3.782   4.758  1.4141 -2.7142  1.4709
  117OSM   C16F12274   2.743   3.834   4.550 -0.0536  0.4497  0.4225
  117OSM   H16F12275   2.799   3.809   4.458 -1.2920  0.3296 -0.3301
  117OSM   H16G12276   2.784   3.932   4.583 -0.4029  1.0470 -0.8554
  117OSM   C17F12277   2.595   3.847   4.506 -0.5324  0.5484 -0.1590
  117OSM   H17F12278   2.545   3.890   4.596  2.8700  2.2087  1.1326
  117OSM   H17G12279   2.549   3.747   4.493  0.8965 -0.1725  0.1345
  117OSM   C18F12280   2.575   3.915   4.370  0.0934 -1.0090  0.3875
  117OSM   H18F12281   2.475   3.916   4.322  1.2173 -2.9639 -2.2472
  117OSM   H18G12282   2.643   3.871   4.294  0.2068 -2.2667  1.1973
  117OSM   H18H12283   2.613   4.019   4.388 -3.7155  0.5909  0.0680
  118OSM      N12284   3.819   0.814   6.510  0.5676  0.2578  0.0410
  118OSM    C1512285   3.817   0.940   6.596  0.7619  0.9520  0.5307
  118OSM   H15A12286   3.917   0.979   6.593  2.1775 -2.3244 -2.7225
  118OSM   H15B12287   3.790   0.914   6.697  1.5964  0.6493  0.6808
  118OSM   H15C12288   3.736   1.004   6.565  0.4833  1.1600  1.6381
  118OSM    C1412289   3.678   0.758   6.507 -0.0859 -0.2128 -0.5166
  118OSM   H14A12290   3.650   0.722   6.605 -0.1601 -2.8949 -1.4474
  118OSM   H14B12291   3.676   0.671   6.443  0.1335 -1.2156  0.7956
  118OSM   H14C12292   3.606   0.831   6.476  0.0160 -0.5306 -1.5573
  118OSM    C1312293   3.852   0.855   6.369  0.4593  0.2661 -0.3614
  118OSM   H13A12294   3.956   0.884   6.363  1.4207 -2.9275 -0.8338
  118OSM   H13B12295   3.790   0.940   6.342  0.1615  0.3991  0.6852
  118OSM   H13C12296   3.846   0.773   6.300  5.0115 -0.1125 -0.5494
  118OSM    C1212297   3.924   0.712   6.555 -0.0785 -0.4210  0.5331
  118OSM   H12A12298   4.022   0.744   6.523 -0.0756 -1.3937 -0.4931
  118OSM   H12B12299   3.924   0.627   6.489  1.8360  2.3997 -3.5089
  118OSM    C1112300   3.930   0.661   6.705 -1.3096 -0.1117 -0.2421
  118OSM   H11A12301   3.938   0.748   6.774 -3.3468 -1.5864  2.0533
  118OSM   H11B12302   4.017   0.592   6.714 -0.8078  0.5981  0.4604
  118OSM      P12303   3.779   0.449   6.710  0.1331 -0.3993  0.4636
  118OSM    O1312304   3.875   0.367   6.787 -0.2687  0.2121  0.7960
  118OSM    O1412305   3.636   0.429   6.739 -0.0248 -0.6151 -0.2348
  118OSM    O1112306   3.794   0.413   6.561 -0.3876 -0.3211  0.3770
  118OSM    O1212307   3.808   0.599   6.727 -0.7263  0.3620 -0.7552
  118OSM    C1S12308   3.779   0.276   6.528  0.3840  0.0596  0.3617
  118OSM    H1S12309   3.675   0.247   6.553  0.0772 -0.2660 -1.1523
  118OSM    H1T12310   3.854   0.215   6.582  1.2655  0.3530 -0.4952
  118OSM     NF12311   3.784   0.092   6.351 -0.0464 -0.6177  0.0121
  118OSM    HNF12312   3.869   0.046   6.328  0.2000 -0.2502  0.1830
  118OSM    C2S12313   3.801   0.241   6.376 -0.3595 -0.0929 -0.0793
  118OSM    H2S12314   3.723   0.281   6.309 -0.5455 -0.1596  0.0960
  118OSM    C3S12315   3.942   0.298   6.334  0.4733  0.8750  0.2560
  118OSM    H3S12316   4.021   0.237   6.383  2.3401  1.7878 -1.4810
  118OSM     O312317   3.965   0.438   6.368  0.4020  0.2229 -0.7415
  118OSM    HO312318   3.890   0.447   6.427  1.6256  4.4306  0.4293
  118OSM    C4S12319   3.963   0.259   6.191 -0.1999 -0.3828 -0.3180
  118OSM    H4S12320   4.010   0.161   6.174  0.0673 -0.0208 -1.7758
  118OSM    C5S12321   3.950   0.339   6.082 -0.7094  0.2553 -0.8067
  118OSM    H5S12322   3.922   0.445   6.089  1.1629  0.6782  1.4598
  118OSM    C6S12323   3.964   0.288   5.940  0.0852 -0.1987 -0.4697
  118OSM    H6S12324   4.043   0.349   5.891 -0.1722 -1.0566 -2.0066
  118OSM    H6T12325   3.869   0.303   5.885 -0.4865 -0.7245  0.3533
  118OSM    C7S12326   4.003   0.137   5.921  0.2475  0.5737 -0.3085
  118OSM    H7S12327   3.928   0.082   5.981  1.0981 -1.0885 -0.7036
  118OSM    H7T12328   4.102   0.141   5.971 -0.3856  2.3867  0.9076
  118OSM    C8S12329   4.017   0.078   5.777  0.0854  0.5510  0.1465
  118OSM    H8S12330   4.062  -0.024   5.781  0.5620  0.7867  1.7840
  118OSM    H8T12331   4.094   0.136   5.722  1.6509  0.2076  1.8468
  118OSM    C9S12332   3.894   0.074   5.686 -0.1675 -0.3043  0.8538
  118OSM    H9S12333   3.856   0.178   5.676 -0.0748 -0.4034 -0.8196
  118OSM    H9T12334   3.806   0.023   5.732 -0.7958  0.1870  0.2291
  118OSM   C10S12335   3.918   0.021   5.545  0.8459  0.8308  0.0942
  118OSM   H10S12336   4.000   0.076   5.495  1.1711  0.3581  0.1030
  118OSM   H10T12337   3.826   0.051   5.490 -0.2593 -0.3000  1.2690
  118OSM   C11S12338   3.934  -0.129   5.521  0.7190 -0.0447 -0.1350
  118OSM   H11S12339   3.841  -0.185   5.547  0.7973 -0.7160 -1.2361
  118OSM   H11T12340   4.012  -0.164   5.592  1.4280  2.7237  0.5545
  118OSM   C12S12341   3.968  -0.171   5.379 -0.7942 -0.2435  0.2459
  118OSM   H12S12342   3.948  -0.280   5.375  1.0854 -0.6027 -0.3464
  118OSM   H12T12343   4.076  -0.147   5.369 -0.9737 -0.0763 -1.6279
  118OSM   C13S12344   3.904  -0.091   5.259  1.1227 -0.0666 -0.3830
  118OSM   H13S12345   3.924   0.017   5.274 -1.3690  0.7733 -2.5339
  118OSM   H13T12346   3.793  -0.095   5.264  1.1399 -0.5620 -0.3322
  118OSM   C14S12347   3.957  -0.122   5.115 -0.2967  0.0934 -0.0852
  118OSM   H14S12348   4.068  -0.131   5.121 -0.2947 -1.3705 -1.6219
  118OSM   H14T12349   3.945  -0.038   5.043  3.2317  0.0933 -0.8522
  118OSM   C15S12350   3.902  -0.260   5.069 -0.8212 -0.3865 -0.0305
  118OSM   H15S12351   3.800  -0.279   5.110 -0.3585 -3.1597  0.0200
  118OSM   H15T12352   3.959  -0.344   5.115 -0.9566 -0.0913  0.6990
  118OSM   C16S12353   3.900  -0.272   4.919  0.2930 -0.3179  0.0949
  118OSM   H16S12354   4.003  -0.275   4.877  0.3138 -0.4443  0.1554
  118OSM   H16T12355   3.841  -0.189   4.875 -0.4621 -0.7285  0.3157
  118OSM   C17S12356   3.853  -0.412   4.887 -0.3288 -0.2144 -0.1882
  118OSM   H17S12357   3.891  -0.475   4.970 -1.0878 -1.3156 -0.6634
  118OSM   H17T12358   3.900  -0.435   4.790  0.9659  0.1856  0.3187
  118OSM   C18S12359   3.696  -0.422   4.896 -0.3841  0.5479 -0.4181
  118OSM   H18S12360   3.670  -0.437   5.003 -0.2686 -0.5515 -0.5254
  118OSM   H18T12361   3.653  -0.518   4.861 -1.2239  0.1831  1.4608
  118OSM   H18U12362   3.645  -0.344   4.837 -2.7708 -0.0487  0.7151
  118OSM    C1F12363   3.678   0.018   6.361 -0.0686 -0.0890 -0.7987
  118OSM     OF12364   3.575   0.065   6.401  0.2415 -0.1282  0.3861
  118OSM    C2F12365   3.685  -0.121   6.327 -0.4865  0.5082  0.4682
  118OSM    H2F12366   3.726  -0.168   6.419 -0.0276  2.1920  1.1574
  118OSM    H2G12367   3.753  -0.136   6.240 -0.9725 -0.1520  0.1926
  118OSM    C3F12368   3.548  -0.185   6.280 -0.5182 -0.0702  0.1838
  118OSM    H3F12369   3.474  -0.191   6.363  0.0165 -0.0630  0.6640
  118OSM    H3G12370   3.568  -0.292   6.258  2.7042  0.9016 -2.3944
  118OSM    C4F12371   3.490  -0.123   6.149  0.4099 -0.0620  0.3038
  118OSM    H4F12372   3.578  -0.120   6.081  0.6201 -1.0015  0.5222
  118OSM    H4G12373   3.452  -0.019   6.160 -3.2298 -1.3380  1.1258
  118OSM    C5F12374   3.380  -0.208   6.084 -0.2815  0.0890  0.1798
  118OSM    H5F12375   3.291  -0.202   6.151 -0.5860 -0.9224 -0.1213
  118OSM    H5G12376   3.403  -0.316   6.079  0.6258  0.2747  0.1668
  118OSM    C6F12377   3.351  -0.158   5.938  0.6017  0.0375  0.3121
  118OSM    H6F12378   3.443  -0.168   5.876 -0.5612  1.3763 -1.7388
  118OSM    H6G12379   3.332  -0.049   5.940 -0.0360 -0.0718  0.1552
  118OSM    C7F12380   3.233  -0.232   5.871 -0.6260  0.1920 -0.6792
  118OSM    H7F12381   3.209  -0.203   5.767 -1.8649  0.9189 -0.2180
  118OSM    H7G12382   3.143  -0.197   5.927 -1.3228 -0.4049 -1.4041
  118OSM    C8F12383   3.245  -0.385   5.877  0.0048 -1.0773 -1.0449
  118OSM    H8F12384   3.269  -0.422   5.979  3.6261  2.1771 -0.4899
  118OSM    H8G12385   3.333  -0.411   5.815  1.9776  4.9279 -1.3407
  118OSM    C9F12386   3.124  -0.458   5.826 -0.2397  0.1804  0.0408
  118OSM    H9F12387   3.032  -0.439   5.884 -0.6216 -0.1941 -0.4196
  118OSM   C10F12388   3.112  -0.520   5.705 -0.4539  0.3712 -0.4999
  118OSM   H10F12389   3.019  -0.570   5.675 -0.9582  0.9291  0.0864
  118OSM   C11F12390   3.226  -0.557   5.614  0.2042 -0.4068  0.9792
  118OSM   H11F12391   3.252  -0.665   5.616  1.2792 -0.1715  0.3772
  118OSM   H11G12392   3.311  -0.485   5.623  0.9552 -1.0548 -0.5585
  118OSM   C12F12393   3.181  -0.540   5.463 -0.4431 -0.2136 -0.8116
  118OSM   H12F12394   3.262  -0.535   5.387 -2.4772  0.4796 -3.0671
  118OSM   H12G12395   3.128  -0.443   5.450  1.7693  1.1753  0.0027
  118OSM   C13F12396   3.098  -0.665   5.408 -0.7585 -0.1764  0.1727
  118OSM   H13F12397   2.991  -0.654   5.435 -0.6794 -0.3270  0.5626
  118OSM   H13G12398   3.125  -0.762   5.455 -0.1849 -0.5636 -0.9290
  118OSM   C14F12399   3.100  -0.686   5.253  0.7203  0.1834  0.0436
  118OSM   H14F12400   3.187  -0.751   5.230  1.0917  0.7336 -0.1210
  118OSM   H14G12401   3.116  -0.591   5.198 -2.0191  0.3879 -0.5301
  118OSM   C15F12402   2.972  -0.762   5.201 -0.2168 -0.1343 -0.6333
  118OSM   H15F12403   2.885  -0.702   5.234  1.5615  3.7561 -2.4147
  118OSM   H15G12404   2.957  -0.855   5.261 -0.4299  1.5573  2.1177
  118OSM   C16F12405   2.963  -0.782   5.056 -0.5141 -0.4934  0.2634
  118OSM   H16F12406   2.903  -0.869   5.022  2.0715 -1.5339 -2.0612
  118OSM   H16G12407   3.060  -0.788   5.002 -0.4648  1.5236  0.0549
  118OSM   C17F12408   2.896  -0.660   4.982  0.3020  0.3067  0.4770
  118OSM   H17F12409   2.923  -0.560   5.021  2.4516  0.6191 -1.6080
  118OSM   H17G12410   2.788  -0.678   5.000 -0.4956  1.1165 -2.9450
  118OSM   C18F12411   2.918  -0.665   4.826  0.4103 -0.6104  0.4247
  118OSM   H18F12412   3.013  -0.611   4.803  0.6543 -1.9249 -1.8907
  118OSM   H18G12413   2.832  -0.616   4.776  0.1327 -0.6437  0.8660
  118OSM   H18H12414   2.935  -0.766   4.783  1.0174  0.4018 -1.8569
  119OSM      N12415   4.165   5.005   6.848 -0.4333  0.0856  0.4751
  119OSM    C1512416   4.266   5.104   6.823  0.3432 -0.0626  0.8038
  119OSM   H15A12417   4.364   5.080   6.861  0.3681 -0.3841  0.5410
  119OSM   H15B12418   4.240   5.200   6.865 -1.2598 -0.2389  0.3033
  119OSM   H15C12419   4.261   5.112   6.715  0.9807 -1.8057  0.6089
  119OSM    C1412420   4.219   4.873   6.809  0.3155  0.0760  0.0170
  119OSM   H14A12421   4.144   4.796   6.807 -0.5254  0.8763 -1.2252
  119OSM   H14B12422   4.299   4.841   6.874 -1.3064  0.0849  2.1002
  119OSM   H14C12423   4.258   4.869   6.708  0.9963 -0.2135  0.2844
  119OSM    C1312424   4.132   4.997   6.989  0.0469  0.1868 -0.3405
  119OSM   H13A12425   4.091   5.089   7.028 -0.6195 -0.5253  0.7005
  119OSM   H13B12426   4.220   4.969   7.045 -0.3316 -0.3694 -0.0181
  119OSM   H13C12427   4.065   4.915   7.009  2.3593 -1.9490 -0.9321
  119OSM    C1212428   4.034   5.023   6.773  0.6132  0.5134 -0.0665
  119OSM   H12A12429   4.000   5.118   6.810  2.2153  0.5990  1.2979
  119OSM   H12B12430   3.961   4.956   6.816 -0.1483  1.6184  0.4072
  119OSM    C1112431   4.027   5.012   6.619  0.1298 -0.5416  0.5930
  119OSM   H11A12432   3.919   5.009   6.592  0.3437  1.2834 -0.6180
  119OSM   H11B12433   4.070   4.919   6.574 -0.2376 -0.1558 -0.5910
  119OSM      P12434   4.006   5.267   6.556  0.1725  0.3950 -0.2341
  119OSM    O1312435   3.938   5.265   6.681 -0.0026 -0.5738  0.1336
  119OSM    O1412436   4.096   5.380   6.530 -0.3502 -0.3294 -0.5484
  119OSM    O1112437   3.898   5.250   6.449 -0.3104 -0.1660  1.0368
  119OSM    O1212438   4.084   5.118   6.543  0.3394 -0.0223 -0.2279
  119OSM    C1S12439   3.926   5.265   6.313 -0.1936  0.4066  0.3325
  119OSM    H1S12440   4.035   5.278   6.299 -0.1741  2.8988  1.9799
  119OSM    H1T12441   3.870   5.354   6.275 -1.9835 -0.3922  0.9902
  119OSM     NF12442   3.919   5.154   6.091  0.3177  0.2286 -0.6968
  119OSM    HNF12443   3.868   5.200   6.019  1.5023  1.6841 -0.6497
  119OSM    C2S12444   3.869   5.142   6.226 -0.3696  0.1741 -0.1724
  119OSM    H2S12445   3.923   5.053   6.265 -1.1220  0.4065  1.4892
  119OSM    C3S12446   3.716   5.135   6.242  0.1308  0.1031  0.3714
  119OSM    H3S12447   3.662   5.229   6.216  0.8964  0.5234  0.2659
  119OSM     O312448   3.671   5.109   6.376 -0.1587  0.3382  0.1752
  119OSM    HO312449   3.748   5.129   6.430 -1.1183 -0.8976  2.1106
  119OSM    C4S12450   3.656   5.035   6.148 -0.0400  1.0861  0.3452
  119OSM    H4S12451   3.592   5.073   6.067 -0.1189 -0.7452 -0.5168
  119OSM    C5S12452   3.670   4.900   6.162 -0.1508  0.1363 -0.3620
  119OSM    H5S12453   3.697   4.864   6.263 -1.8332 -1.9793 -0.5987
  119OSM    C6S12454   3.618   4.792   6.072  0.3254  0.0523  0.5885
  119OSM    H6S12455   3.514   4.765   6.099 -0.5616  1.1509 -1.4800
  119OSM    H6T12456   3.673   4.697   6.086  0.3649  0.0691  0.5466
  119OSM    C7S12457   3.622   4.814   5.919 -0.0456 -0.6087 -1.1894
  119OSM    H7S12458   3.729   4.828   5.893 -0.3981  0.3466 -2.1881
  119OSM    H7T12459   3.566   4.907   5.897 -2.4129 -1.0329  2.1423
  119OSM    C8S12460   3.562   4.705   5.832  0.1600 -0.3067  0.5050
  119OSM    H8S12461   3.454   4.714   5.858 -0.3536  0.4249 -1.6232
  119OSM    H8T12462   3.594   4.608   5.875  0.1857 -0.5174  0.0163
  119OSM    C9S12463   3.612   4.719   5.690  0.2710  0.1935  0.1592
  119OSM    H9S12464   3.713   4.675   5.699 -0.1130 -0.8119 -0.2906
  119OSM    H9T12465   3.617   4.826   5.662 -1.6010  1.2551  3.3701
  119OSM   C10S12466   3.530   4.627   5.595  0.5088  0.5108 -0.1622
  119OSM   H10S12467   3.565   4.652   5.493  0.2452 -0.1824 -0.4272
  119OSM   H10T12468   3.423   4.654   5.609  0.6294 -0.0198  2.3240
  119OSM   C11S12469   3.542   4.474   5.619 -0.1338 -0.9846  0.3108
  119OSM   H11S12470   3.495   4.464   5.719  0.4621 -2.2142  0.4890
  119OSM   H11T12471   3.651   4.453   5.632  0.0237 -0.1937  0.2798
  119OSM   C12S12472   3.482   4.396   5.508  0.7005  0.3262  0.3863
  119OSM   H12S12473   3.377   4.421   5.480  0.3014 -2.0061 -0.3730
  119OSM   H12T12474   3.492   4.297   5.556  0.5417  0.2588  0.2829
  119OSM   C13S12475   3.557   4.387   5.374 -0.2903 -0.3003 -0.0409
  119OSM   H13S12476   3.640   4.315   5.387  0.5248  0.9284  1.8524
  119OSM   H13T12477   3.603   4.480   5.335  2.4871 -1.3163  0.5694
  119OSM   C14S12478   3.466   4.347   5.261  0.3344  0.3335  1.2136
  119OSM   H14S12479   3.394   4.427   5.232  1.1443  0.3869 -0.8237
  119OSM   H14T12480   3.404   4.261   5.293 -0.8615  0.7221  0.0244
  119OSM   C15S12481   3.546   4.312   5.135  0.3930  0.3742 -0.5808
  119OSM   H15S12482   3.618   4.233   5.165  0.1055  0.7229  1.1029
  119OSM   H15T12483   3.605   4.399   5.098 -0.3255  0.3675 -1.8095
  119OSM   C16S12484   3.472   4.249   5.014  0.4695 -0.1762  0.3126
  119OSM   H16S12485   3.421   4.329   4.956 -1.4156 -0.8502  0.9485
  119OSM   H16T12486   3.397   4.173   5.047  0.7292  0.0970  1.5429
  119OSM   C17S12487   3.557   4.165   4.916 -0.6037  0.6091  0.5402
  119OSM   H17S12488   3.485   4.122   4.843  0.8048  0.8047 -1.0030
  119OSM   H17T12489   3.605   4.076   4.962  0.7386  0.7975 -0.4396
  119OSM   C18S12490   3.670   4.254   4.853 -0.3978  0.0797  0.7481
  119OSM   H18S12491   3.751   4.203   4.796 -1.0624 -0.0774 -0.0759
  119OSM   H18T12492   3.720   4.299   4.941 -1.0968  2.1279  0.1703
  119OSM   H18U12493   3.621   4.333   4.791 -0.5630  0.2993  1.1577
  119OSM    C1F12494   4.047   5.137   6.065  0.3378 -0.6264  0.0210
  119OSM     OF12495   4.136   5.109   6.148  1.1772 -0.5471 -0.0337
  119OSM    C2F12496   4.090   5.153   5.922  0.1419 -0.0050  0.2910
  119OSM    H2F12497   4.198   5.181   5.921  0.1620 -0.0764 -1.2210
  119OSM    H2G12498   4.030   5.223   5.860 -3.2536 -2.4130  0.5640
  119OSM    C3F12499   4.072   5.017   5.849  0.7060  0.8042 -0.7325
  119OSM    H3F12500   3.963   4.992   5.843  0.8337  0.2044 -0.6845
  119OSM    H3G12501   4.123   4.937   5.907  0.7513  2.0698  1.0757
  119OSM    C4F12502   4.132   5.015   5.714 -0.0465 -0.0334 -0.0626
  119OSM    H4F12503   4.241   5.029   5.724  0.3237 -0.3403 -2.8604
  119OSM    H4G12504   4.099   5.103   5.654  1.0247  1.0589  0.9024
  119OSM    C5F12505   4.103   4.895   5.628 -0.1225  0.6559  0.3315
  119OSM    H5F12506   4.162   4.809   5.666 -0.4741 -1.2644 -3.0920
  119OSM    H5G12507   4.155   4.923   5.534  0.3160  1.3704  0.7724
  119OSM    C6F12508   3.957   4.854   5.597  0.4659 -0.2169  0.4240
  119OSM    H6F12509   3.909   4.945   5.556  1.9512 -0.9061 -3.2626
  119OSM    H6G12510   3.911   4.824   5.693  1.9312  2.3859  2.0653
  119OSM    C7F12511   3.945   4.751   5.482  0.0569 -0.9209  0.5655
  119OSM    H7F12512   3.986   4.812   5.399  2.0274 -1.1363  1.3168
  119OSM    H7G12513   3.837   4.725   5.478 -0.5716  1.3296  1.0316
  119OSM    C8F12514   4.024   4.623   5.504  0.3978  0.0678 -0.5953
  119OSM    H8F12515   3.979   4.555   5.580 -0.5660  0.4894 -0.7800
  119OSM    H8G12516   4.128   4.644   5.538  0.5429  0.1368 -1.0866
  119OSM    C9F12517   4.031   4.543   5.379 -0.2758  0.1744  0.2431
  119OSM    H9F12518   3.956   4.463   5.381 -2.0162  1.6919  2.3634
  119OSM   C10F12519   4.116   4.569   5.276 -0.2390 -0.0572  0.4833
  119OSM   H10F12520   4.104   4.499   5.191 -0.6246  0.5560  0.0213
  119OSM   C11F12521   4.212   4.687   5.263  0.5132 -0.0268 -0.2462
  119OSM   H11F12522   4.307   4.641   5.230  0.9029 -0.5489  1.4792
  119OSM   H11G12523   4.227   4.738   5.361  0.6904 -0.2845 -0.1379
  119OSM   C12F12524   4.164   4.784   5.155  0.1106 -0.5872  0.3377
  119OSM   H12F12525   4.078   4.840   5.199 -0.0103  0.6111 -1.3234
  119OSM   H12G12526   4.117   4.725   5.074 -1.8536 -0.1564  1.1046
  119OSM   C13F12527   4.280   4.877   5.094 -0.4308  0.0158  0.0077
  119OSM   H13F12528   4.356   4.810   5.047  0.7470 -0.1928  2.0971
  119OSM   H13G12529   4.334   4.935   5.172  0.3709 -1.2394  0.4324
  119OSM   C14F12530   4.232   4.973   4.985 -0.0207  0.0201 -0.9178
  119OSM   H14F12531   4.155   5.046   5.019 -0.8895 -1.0202 -0.5901
  119OSM   H14G12532   4.192   4.906   4.906  1.2348 -1.4501 -0.3544
  119OSM   C15F12533   4.356   5.052   4.935  0.8565 -0.5937 -0.3015
  119OSM   H15F12534   4.427   4.975   4.898  1.5293 -0.1260 -0.0136
  119OSM   H15G12535   4.406   5.113   5.013 -2.5436  1.8879  0.1707
  119OSM   C16F12536   4.315   5.149   4.816  0.0189 -0.6804  0.3015
  119OSM   H16F12537   4.244   5.224   4.857  1.1007 -0.5125  1.9860
  119OSM   H16G12538   4.259   5.088   4.742  0.9979 -0.5301 -0.5846
  119OSM   C17F12539   4.432   5.222   4.750  0.1084  0.4380  0.3357
  119OSM   H17F12540   4.504   5.142   4.723 -1.8372 -0.6227 -2.0816
  119OSM   H17G12541   4.477   5.294   4.821 -0.6497  0.3739  0.8925
  119OSM   C18F12542   4.389   5.283   4.626 -1.0869 -0.4512 -0.1422
  119OSM   H18F12543   4.374   5.206   4.548  0.2340 -1.7192  0.7931
  119OSM   H18G12544   4.464   5.358   4.592 -0.0815  0.5571  3.7680
  119OSM   H18H12545   4.299   5.347   4.640  0.0928  0.9587  1.5047
  120OSM      N12546   6.411   3.195   6.623 -0.1072  0.1423  0.3189
  120OSM    C1512547   6.463   3.093   6.529 -0.0378 -0.1731 -0.0162
  120OSM   H15A12548   6.554   3.056   6.573 -1.6793 -1.5799  2.4259
  120OSM   H15B12549   6.493   3.143   6.438  1.2614 -1.9980 -0.6409
  120OSM   H15C12550   6.397   3.009   6.515  1.2157 -1.5318  1.7840
  120OSM    C1412551   6.356   3.126   6.752  0.2369 -0.1218 -0.8177
  120OSM   H14A12552   6.324   3.202   6.821  0.3364  1.5104 -2.4893
  120OSM   H14B12553   6.426   3.069   6.811  1.7088 -0.5084 -2.8164
  120OSM   H14C12554   6.271   3.066   6.725 -0.0487  0.2783 -0.8158
  120OSM    C1312555   6.519   3.294   6.666 -0.0480  0.4299 -0.2473
  120OSM   H13A12556   6.566   3.339   6.580  1.9794 -1.2954 -0.1367
  120OSM   H13B12557   6.594   3.246   6.727  0.7271  0.2632 -1.2956
  120OSM   H13C12558   6.495   3.373   6.735  2.8751  1.4253 -0.2273
  120OSM    C1212559   6.298   3.265   6.559  0.3859  0.0935  0.5389
  120OSM   H12A12560   6.229   3.197   6.511 -0.5737  2.2687 -1.3589
  120OSM   H12B12561   6.338   3.311   6.470 -0.3627 -0.9335 -0.3586
  120OSM    C1112562   6.222   3.379   6.638 -0.3716 -0.0622 -0.4032
  120OSM   H11A12563   6.178   3.335   6.730  1.3382 -0.1092  0.4303
  120OSM   H11B12564   6.141   3.428   6.579 -0.9783  0.0470  0.5020
  120OSM      P12565   6.359   3.609   6.612 -0.2941  0.4171  0.0967
  120OSM    O1312566   6.268   3.715   6.649  0.1562  0.0479 -0.1099
  120OSM    O1412567   6.501   3.635   6.640 -0.3634 -0.4981 -0.3528
  120OSM    O1112568   6.335   3.552   6.459  0.7114 -0.0335  0.3579
  120OSM    O1212569   6.313   3.475   6.689 -0.0484 -0.1398 -0.7371
  120OSM    C1S12570   6.370   3.635   6.355 -0.1582  0.4476  0.7237
  120OSM    H1S12571   6.480   3.648   6.348 -0.1548  0.1024 -0.0145
  120OSM    H1T12572   6.322   3.735   6.355  2.5695  1.8563  1.2660
  120OSM     NF12573   6.406   3.613   6.111  0.0755 -0.3532 -0.0964
  120OSM    HNF12574   6.348   3.670   6.054 -1.4892 -0.9082  0.8665
  120OSM    C2S12575   6.341   3.556   6.224 -0.3402  0.2312 -0.1128
  120OSM    H2S12576   6.381   3.453   6.232  0.4377  0.4179 -1.4016
  120OSM    C3S12577   6.184   3.549   6.202 -0.0575  0.3238  0.4275
  120OSM    H3S12578   6.157   3.656   6.201 -1.6989 -0.0722 -0.4359
  120OSM     O312579   6.116   3.491   6.309 -0.5610  0.6628 -0.0508
  120OSM    HO312580   6.179   3.490   6.381 -1.4103 -1.2624  0.7562
  120OSM    C4S12581   6.142   3.484   6.068 -0.0345  0.4235  0.3003
  120OSM    H4S12582   6.136   3.558   5.987  1.6557  0.1647 -0.0899
  120OSM    C5S12583   6.125   3.347   6.044 -0.4053 -0.2588  0.0513
  120OSM    H5S12584   6.127   3.278   6.130  1.0189  0.1946  0.4179
  120OSM    C6S12585   6.084   3.279   5.918  0.4042 -0.2702 -0.8216
  120OSM    H6S12586   6.001   3.210   5.942  0.8892 -0.0328  1.8292
  120OSM    H6T12587   6.163   3.208   5.883 -0.4848 -1.9600  0.4751
  120OSM    C7S12588   6.026   3.359   5.797  0.7285  0.0204  0.5055
  120OSM    H7S12589   6.106   3.430   5.764  0.5661  0.0450  0.1641
  120OSM    H7T12590   5.942   3.422   5.835  0.6704 -0.0598  0.5084
  120OSM    C8S12591   5.980   3.273   5.686  0.4614  0.2498 -0.0105
  120OSM    H8S12592   5.910   3.198   5.729 -0.4290  1.6388  1.0602
  120OSM    H8T12593   6.074   3.229   5.647  0.7762  0.6620  0.2799
  120OSM    C9S12594   5.901   3.352   5.589 -0.0520 -0.1609  0.1320
  120OSM    H9S12595   5.950   3.443   5.549  0.6079 -0.1030  1.0446
  120OSM    H9T12596   5.806   3.383   5.637  0.7912  2.1941  0.3709
  120OSM   C10S12597   5.880   3.280   5.455 -0.1416  0.5039 -0.2278
  120OSM   H10S12598   5.821   3.341   5.383 -0.9960  0.2594  0.2420
  120OSM   H10T12599   5.833   3.183   5.484  0.0861  0.6409  0.6303
  120OSM   C11S12600   6.020   3.247   5.394  0.1249  0.3724  0.2471
  120OSM   H11S12601   6.064   3.164   5.453  0.5015  0.4572  0.0823
  120OSM   H11T12602   6.086   3.334   5.409  1.5782 -0.6662  0.0707
  120OSM   C12S12603   6.021   3.206   5.244 -0.1836  0.6000 -0.3098
  120OSM   H12S12604   5.997   3.098   5.247  0.8322  0.3598 -0.6343
  120OSM   H12T12605   6.126   3.199   5.211 -0.5006  1.8445 -1.7002
  120OSM   C13S12606   5.935   3.289   5.148 -0.2745  0.9425 -0.0188
  120OSM   H13S12607   5.954   3.396   5.173  4.0437  0.3641 -0.0683
  120OSM   H13T12608   5.825   3.276   5.160 -0.3462  0.3003 -1.2575
  120OSM   C14S12609   5.967   3.265   4.991  0.0361 -0.0253  0.3628
  120OSM   H14S12610   6.076   3.268   4.966  0.0529 -0.2119  0.4118
  120OSM   H14T12611   5.917   3.341   4.928 -1.9926 -2.0411 -0.5842
  120OSM   C15S12612   5.920   3.125   4.931  0.1329 -0.1776  0.1676
  120OSM   H15S12613   5.821   3.105   4.979 -0.3454  0.4713 -0.5253
  120OSM   H15T12614   5.985   3.046   4.974  3.7820  1.9457 -1.0191
  120OSM   C16S12615   5.908   3.135   4.782  0.2993 -0.1263 -0.5025
  120OSM   H16S12616   5.993   3.185   4.731  2.4846 -1.6522  1.4054
  120OSM   H16T12617   5.817   3.194   4.759 -0.6801 -1.7946 -1.0497
  120OSM   C17S12618   5.910   2.999   4.715 -0.4673 -0.0500  0.2991
  120OSM   H17S12619   5.926   3.008   4.605  0.7202 -4.0136  0.0232
  120OSM   H17T12620   5.807   2.957   4.725 -1.0635  0.8156 -1.6302
  120OSM   C18S12621   6.012   2.894   4.768 -0.0308 -0.6839  0.4444
  120OSM   H18S12622   6.001   2.798   4.714 -1.3985 -1.0065  1.2482
  120OSM   H18T12623   5.986   2.869   4.873 -1.0958  0.4420  0.4743
  120OSM   H18U12624   6.117   2.928   4.754 -0.7592  1.6444  0.2169
  120OSM    C1F12625   6.539   3.605   6.093  0.8973  0.0535  0.2480
  120OSM     OF12626   6.614   3.542   6.166  0.6435  0.1688  0.3806
  120OSM    C2F12627   6.600   3.688   5.981  0.1173  0.5257 -0.3222
  120OSM    H2F12628   6.621   3.787   6.026 -0.2466 -0.1625  1.4086
  120OSM    H2G12629   6.536   3.698   5.890  1.2732 -0.6289 -1.3105
  120OSM    C3F12630   6.731   3.618   5.936  0.6750  0.3234  0.6012
  120OSM    H3F12631   6.706   3.514   5.909 -0.0015  0.9841 -1.5144
  120OSM    H3G12632   6.791   3.618   6.030 -0.4409  0.9418  1.3452
  120OSM    C4F12633   6.802   3.701   5.823  0.3215 -0.0667  0.0347
  120OSM    H4F12634   6.865   3.632   5.762 -3.2343 -1.8149 -2.0001
  120OSM    H4G12635   6.872   3.773   5.869 -0.0894  0.6725 -0.4739
  120OSM    C5F12636   6.714   3.774   5.716  0.7135  0.0159 -0.4972
  120OSM    H5F12637   6.653   3.855   5.762  1.3854 -0.9444  2.2762
  120OSM    H5G12638   6.652   3.697   5.665  1.5199 -0.1373 -1.2682
  120OSM    C6F12639   6.793   3.846   5.600 -0.3004  0.5110 -0.0430
  120OSM    H6F12640   6.838   3.766   5.537  1.4766  1.3787  0.0692
  120OSM    H6G12641   6.872   3.905   5.651  0.3909 -0.2215 -0.2502
  120OSM    C7F12642   6.702   3.945   5.522 -0.1532  0.8586 -0.6740
  120OSM    H7F12643   6.675   4.030   5.588 -0.4881  0.6501 -0.5400
  120OSM    H7G12644   6.603   3.900   5.500 -0.8604  0.7256  2.2791
  120OSM    C8F12645   6.776   3.992   5.391 -0.2884 -0.1824 -0.0399
  120OSM    H8F12646   6.779   3.909   5.317  1.0932 -0.0803 -0.1224
  120OSM    H8G12647   6.878   4.025   5.420 -0.4874 -0.3506  0.9015
  120OSM    C9F12648   6.714   4.108   5.324  0.0403  0.0830 -0.0859
  120OSM    H9F12649   6.658   4.176   5.391  0.8243 -1.1426  1.9024
  120OSM   C10F12650   6.731   4.149   5.192 -0.5505 -0.2382  0.0413
  120OSM   H10F12651   6.685   4.247   5.174 -0.5967  0.0098  1.3844
  120OSM   C11F12652   6.820   4.080   5.088 -0.5705 -0.3253  0.7040
  120OSM   H11F12653   6.802   4.131   4.991  1.0284 -0.6133  0.2240
  120OSM   H11G12654   6.814   3.969   5.082 -1.6685 -0.2827  0.8048
  120OSM   C12F12655   6.977   4.119   5.095  0.4806 -0.0195  0.2596
  120OSM   H12F12656   7.021   4.056   5.175  1.3099  0.0465 -0.1369
  120OSM   H12G12657   6.995   4.222   5.133  0.7208 -0.6246  1.8935
  120OSM   C13F12658   7.047   4.083   4.969  0.2347 -0.1311 -0.1329
  120OSM   H13F12659   7.016   4.155   4.891  2.2839 -0.6692 -1.5299
  120OSM   H13G12660   7.002   3.989   4.930 -2.3026  0.2512  1.6228
  120OSM   C14F12661   7.199   4.089   4.977 -0.1673  0.1995 -0.7191
  120OSM   H14F12662   7.239   4.189   5.004  0.6950 -0.2456 -0.3060
  120OSM   H14G12663   7.235   4.066   4.875  1.6643  0.4331 -0.1637
  120OSM   C15F12664   7.265   3.993   5.077  0.6952 -1.0359 -0.3697
  120OSM   H15F12665   7.228   3.890   5.057  0.4658 -0.8642 -0.8663
  120OSM   H15G12666   7.240   4.021   5.181  0.8431  0.7197 -0.7727
  120OSM   C16F12667   7.425   3.990   5.059  0.3769 -0.3081  0.5477
  120OSM   H16F12668   7.457   4.091   5.093 -0.1435  0.0901 -0.0951
  120OSM   H16G12669   7.454   3.991   4.951  2.2362 -1.9098  0.9854
  120OSM   C17F12670   7.483   3.877   5.138 -0.7952  0.1421 -0.6186
  120OSM   H17F12671   7.591   3.883   5.109 -1.0522  3.4589 -1.3287
  120OSM   H17G12672   7.445   3.776   5.114 -0.7190 -0.0727  0.1683
  120OSM   C18F12673   7.477   3.884   5.289  0.2414 -0.4469  0.7964
  120OSM   H18F12674   7.552   3.822   5.343 -1.0289 -2.1603  0.7003
  120OSM   H18G12675   7.381   3.846   5.330 -1.1138  0.4628 -1.3464
  120OSM   H18H12676   7.481   3.989   5.325  1.8478 -0.8538  1.8975
  121OSM      N12677   2.293   0.410   7.063 -0.5474 -0.2902 -0.2211
  121OSM    C1512678   2.179   0.503   7.022 -0.6276  0.3686  0.4682
  121OSM   H15A12679   2.103   0.502   7.099  0.2161 -0.1665  1.3127
  121OSM   H15B12680   2.133   0.462   6.932 -1.0211  1.2693  0.2520
  121OSM   H15C12681   2.208   0.606   7.010 -0.8768  0.8067  3.1869
  121OSM    C1412682   2.348   0.455   7.187  0.0817 -0.1581 -0.1347
  121OSM   H14A12683   2.423   0.389   7.228 -1.3956 -1.1173  1.1479
  121OSM   H14B12684   2.278   0.474   7.267 -0.5543  1.4036 -1.0202
  121OSM   H14C12685   2.391   0.553   7.174 -2.3283  0.8855 -0.8117
  121OSM    C1312686   2.239   0.277   7.100 -0.3667 -0.1878  0.1784
  121OSM   H13A12687   2.185   0.292   7.192  0.3978  0.5140  0.5261
  121OSM   H13B12688   2.322   0.215   7.127  1.5171  2.5700  1.2017
  121OSM   H13C12689   2.167   0.245   7.025 -0.6798  0.1306  0.3417
  121OSM    C1212690   2.401   0.403   6.952  0.1933 -0.0523  0.1977
  121OSM   H12A12691   2.486   0.340   6.978 -0.3298 -1.2984 -0.9807
  121OSM   H12B12692   2.449   0.499   6.941 -1.6587  0.9789  0.6844
  121OSM    C1112693   2.358   0.352   6.816  0.1766  0.1896 -0.4967
  121OSM   H11A12694   2.444   0.356   6.746  0.3486 -2.9512 -0.6210
  121OSM   H11B12695   2.293   0.424   6.762  0.3075  0.6019 -0.1107
  121OSM      P12696   2.358   0.102   6.752  0.6016 -0.5129  0.0138
  121OSM    O1312697   2.479   0.068   6.827  0.2569 -0.7306 -0.7282
  121OSM    O1412698   2.255   0.000   6.740 -0.1975 -0.2439  0.0360
  121OSM    O1112699   2.393   0.158   6.610  0.4947 -0.1326 -0.1917
  121OSM    O1212700   2.291   0.225   6.815 -0.3944  0.2910 -0.1339
  121OSM    C1S12701   2.490   0.075   6.539 -0.0462 -0.0396  0.5015
  121OSM    H1S12702   2.453  -0.030   6.538 -1.3657  0.3881  1.1060
  121OSM    H1T12703   2.592   0.074   6.582 -0.1644  0.9280  0.8219
  121OSM     NF12704   2.593   0.025   6.321 -0.1397 -0.3865 -0.4988
  121OSM    HNF12705   2.685   0.056   6.299  0.0540 -0.7082 -0.1397
  121OSM    C2S12706   2.505   0.117   6.387 -0.7471 -0.2765 -0.6655
  121OSM    H2S12707   2.403   0.118   6.345 -0.6594  0.1056 -0.8745
  121OSM    C3S12708   2.562   0.255   6.388  0.5976 -0.1340 -0.3140
  121OSM    H3S12709   2.658   0.242   6.442 -0.3045 -0.8285  1.2030
  121OSM     O312710   2.488   0.355   6.454 -0.9158 -0.1178 -0.1015
  121OSM    HO312711   2.434   0.314   6.522 -1.8248  0.0753 -0.6953
  121OSM    C4S12712   2.577   0.302   6.243  0.4971 -0.1625 -0.0945
  121OSM    H4S12713   2.485   0.307   6.184  0.2839 -1.4764  0.0994
  121OSM    C5S12714   2.690   0.335   6.184  0.2751 -0.4705 -0.1483
  121OSM    H5S12715   2.784   0.329   6.240  0.6674  3.6464 -0.0248
  121OSM    C6S12716   2.691   0.380   6.040  0.2388 -0.0609 -0.4608
  121OSM    H6S12717   2.675   0.489   6.036  1.5971  0.1917  0.4167
  121OSM    H6T12718   2.604   0.338   5.985  1.0494 -1.5442 -0.6684
  121OSM    C7S12719   2.819   0.341   5.970 -0.0447  0.4236 -0.1042
  121OSM    H7S12720   2.841   0.233   5.975  0.0592  0.4374 -0.2753
  121OSM    H7T12721   2.895   0.384   6.039  0.3528  0.2258 -0.4150
  121OSM    C8S12722   2.843   0.395   5.832  0.7973  0.0736  0.3739
  121OSM    H8S12723   2.943   0.364   5.796  0.8717 -0.2512  0.8505
  121OSM    H8T12724   2.858   0.504   5.852  1.2042 -0.1788  1.5566
  121OSM    C9S12725   2.731   0.379   5.730  0.2333  0.3332  0.2012
  121OSM    H9S12726   2.645   0.437   5.770 -1.2333 -1.2813 -0.4965
  121OSM    H9T12727   2.697   0.273   5.724  0.9325  0.0508  1.0106
  121OSM   C10S12728   2.750   0.439   5.594  0.5297 -0.1551  0.1907
  121OSM   H10S12729   2.779   0.546   5.600 -0.9081  0.2155  1.3166
  121OSM   H10T12730   2.654   0.427   5.539  0.3215 -1.0886  0.7337
  121OSM   C11S12731   2.855   0.359   5.519 -0.7432  0.6854  0.0663
  121OSM   H11S12732   2.830   0.251   5.530  1.1752 -0.2892 -3.3796
  121OSM   H11T12733   2.942   0.369   5.587 -1.7814 -0.1035  1.5668
  121OSM   C12S12734   2.878   0.387   5.370 -0.1295  0.0910 -0.1591
  121OSM   H12S12735   2.884   0.498   5.364 -1.8218  0.1693 -1.1491
  121OSM   H12T12736   2.797   0.355   5.302  2.0179  0.2550 -2.9836
  121OSM   C13S12737   3.003   0.319   5.317 -0.3369  0.0821 -0.4986
  121OSM   H13S12738   2.972   0.213   5.300  0.2518 -0.1947  0.1091
  121OSM   H13T12739   3.084   0.323   5.392 -1.1541 -2.9402  0.6859
  121OSM   C14S12740   3.047   0.382   5.185 -0.4138  0.2491 -0.4626
  121OSM   H14S12741   3.095   0.480   5.207 -0.9467  0.4177 -0.0282
  121OSM   H14T12742   2.956   0.394   5.123 -0.8563  2.1067  0.4800
  121OSM   C15S12743   3.165   0.303   5.117  0.3339  0.1008  0.7578
  121OSM   H15S12744   3.116   0.207   5.087 -0.8558  0.3263  1.8851
  121OSM   H15T12745   3.254   0.296   5.183  0.0558 -0.8843  1.0608
  121OSM   C16S12746   3.221   0.366   4.985  0.0929 -0.7905  0.3154
  121OSM   H16S12747   3.278   0.459   5.009 -0.9497  0.1690 -0.8198
  121OSM   H16T12748   3.138   0.387   4.915 -0.2016  2.4996  1.4677
  121OSM   C17S12749   3.315   0.276   4.909 -0.3107  0.2002 -0.4484
  121OSM   H17S12750   3.412   0.250   4.958 -0.2513  2.1499  0.5405
  121OSM   H17T12751   3.336   0.334   4.817  0.5381  0.3856 -0.1542
  121OSM   C18S12752   3.253   0.143   4.865 -0.2259  0.3714 -0.2754
  121OSM   H18S12753   3.323   0.083   4.802 -0.4175  1.0294 -1.1342
  121OSM   H18T12754   3.159   0.161   4.809  0.1703  3.1133 -0.1746
  121OSM   H18U12755   3.226   0.084   4.955 -2.2328  0.6632 -0.6386
  121OSM    C1F12756   2.539  -0.090   6.282  0.2045 -0.5801  0.4157
  121OSM     OF12757   2.421  -0.115   6.317 -0.6238  0.1597 -0.2301
  121OSM    C2F12758   2.621  -0.179   6.199  0.2460  0.0775 -0.2196
  121OSM    H2F12759   2.612  -0.281   6.242 -0.8450  1.2435  2.5013
  121OSM    H2G12760   2.731  -0.169   6.211  0.0229 -0.2473  2.6122
  121OSM    C3F12761   2.581  -0.184   6.049  0.9031  0.5422  0.5355
  121OSM    H3F12762   2.577  -0.074   6.032 -0.8658  0.3730 -0.3405
  121OSM    H3G12763   2.480  -0.230   6.042  2.1891 -2.7251  1.4402
  121OSM    C4F12764   2.670  -0.266   5.957  0.1320  0.5212 -0.0001
  121OSM    H4F12765   2.656  -0.371   5.991 -1.2231  1.1758  1.5470
  121OSM    H4G12766   2.777  -0.235   5.960  0.2499  0.0981  0.2915
  121OSM    C5F12767   2.624  -0.250   5.811 -0.4841  0.0406 -0.2840
  121OSM    H5F12768   2.589  -0.147   5.787  1.0139  0.8599  0.8366
  121OSM    H5G12769   2.544  -0.324   5.793 -1.5375  0.4538  2.3246
  121OSM    C6F12770   2.752  -0.283   5.733 -0.3600 -0.5652  0.0102
  121OSM    H6F12771   2.762  -0.392   5.711 -1.8689 -0.3905 -1.8053
  121OSM    H6G12772   2.839  -0.230   5.778 -1.4721  1.4700 -0.1262
  121OSM    C7F12773   2.743  -0.219   5.588 -0.0429  1.1624  0.8290
  121OSM    H7F12774   2.756  -0.110   5.608 -0.0886  1.2684  0.2940
  121OSM    H7G12775   2.647  -0.244   5.537 -0.1175  0.4094  1.3207
  121OSM    C8F12776   2.858  -0.279   5.502  0.5424 -0.3115  0.4199
  121OSM    H8F12777   2.935  -0.303   5.578 -0.4457 -3.2371  0.6142
  121OSM    H8G12778   2.906  -0.205   5.435 -0.2787 -1.8250 -1.9570
  121OSM    C9F12779   2.824  -0.402   5.417 -0.2078  0.2175  0.2023
  121OSM    H9F12780   2.835  -0.482   5.492  2.3603  1.9417  1.8639
  121OSM   C10F12781   2.801  -0.412   5.286  0.5175 -0.4782 -0.1863
  121OSM   H10F12782   2.785  -0.511   5.241  0.6424 -1.0804  1.0526
  121OSM   C11F12783   2.805  -0.288   5.202  0.0340 -0.3268  0.4888
  121OSM   H11F12784   2.906  -0.272   5.158 -0.6171 -0.8785 -1.3197
  121OSM   H11G12785   2.793  -0.201   5.270  0.5160 -1.2511  1.7997
  121OSM   C12F12786   2.701  -0.299   5.091  0.1434 -0.0955 -0.0121
  121OSM   H12F12787   2.601  -0.316   5.136 -0.1787 -1.1612 -1.0839
  121OSM   H12G12788   2.722  -0.380   5.017 -0.9226 -1.8516  1.5351
  121OSM   C13F12789   2.697  -0.172   4.999  0.6554  0.3526 -0.0903
  121OSM   H13F12790   2.710  -0.089   5.071 -3.5327  1.3766 -0.2073
  121OSM   H13G12791   2.605  -0.170   4.935  1.1808 -2.9118 -1.1705
  121OSM   C14F12792   2.818  -0.174   4.902  0.0523 -0.5018  0.4668
  121OSM   H14F12793   2.810  -0.270   4.846  1.4388 -0.6196  0.4571
  121OSM   H14G12794   2.907  -0.169   4.968 -0.4302 -0.4212  1.1252
  121OSM   C15F12795   2.824  -0.057   4.797  1.3698  0.1766  0.3569
  121OSM   H15F12796   2.832   0.048   4.834 -0.2568  1.2781 -2.1028
  121OSM   H15G12797   2.725  -0.053   4.747  1.5201 -2.2000 -0.2702
  121OSM   C16F12798   2.931  -0.073   4.693 -0.1438 -0.5987  0.3062
  121OSM   H16F12799   2.920  -0.171   4.641 -2.7772 -1.2476  1.9104
  121OSM   H16G12800   3.029  -0.082   4.744  0.0453  0.4446  0.1429
  121OSM   C17F12801   2.940   0.041   4.598 -0.7012 -0.3567  0.3473
  121OSM   H17F12802   2.967   0.131   4.658  0.2032 -1.2800  1.3812
  121OSM   H17G12803   2.841   0.067   4.556  0.3177  1.2031 -1.2308
  121OSM   C18F12804   3.042   0.027   4.482 -0.4100 -0.1249 -0.1719
  121OSM   H18F12805   3.140   0.014   4.530 -0.7842  0.1477  0.6775
  121OSM   H18G12806   3.054   0.112   4.411  0.1658 -0.7023 -0.7737
  121OSM   H18H12807   3.010  -0.059   4.419 -2.7491  0.1397  0.5381
  122OSM      N12808   1.809   3.303   6.687 -0.6708 -0.5262 -0.0622
  122OSM    C1512809   1.822   3.392   6.575  0.3510 -0.3743  0.6565
  122OSM   H15A12810   1.807   3.497   6.597 -0.1481 -0.7737  2.3526
  122OSM   H15B12811   1.749   3.376   6.497  1.9687  2.3828 -1.6107
  122OSM   H15C12812   1.922   3.384   6.534  0.9595  2.4458  1.3463
  122OSM    C1412813   1.896   3.346   6.806  0.3571  0.0891 -0.2246
  122OSM   H14A12814   1.867   3.281   6.887 -1.3728  2.3129  1.0508
  122OSM   H14B12815   1.869   3.444   6.842 -0.2159  0.0649 -0.5755
  122OSM   H14C12816   2.002   3.333   6.786  0.3874 -1.6665  0.9257
  122OSM    C1312817   1.663   3.305   6.732  0.3363  0.5691  0.2783
  122OSM   H13A12818   1.599   3.266   6.655 -0.3863  1.4973  0.3949
  122OSM   H13B12819   1.626   3.395   6.778 -1.2843 -0.4089  0.9833
  122OSM   H13C12820   1.653   3.228   6.808  2.3902  0.5600  0.6043
  122OSM    C1212821   1.853   3.161   6.647 -0.3373 -0.2914 -0.1053
  122OSM   H12A12822   1.858   3.109   6.742  0.2257  2.5747  1.5795
  122OSM   H12B12823   1.956   3.162   6.616 -0.6280 -0.5443 -1.1017
  122OSM    C1112824   1.761   3.075   6.554  0.2210 -0.3395 -0.2651
  122OSM   H11A12825   1.822   2.989   6.518  2.8987  0.8538  1.1456
  122OSM   H11B12826   1.741   3.151   6.475 -0.2113  0.6291  0.7560
  122OSM      P12827   1.491   3.044   6.550 -0.4572  0.5009  0.1356
  122OSM    O1312828   1.402   2.937   6.609  0.1947 -0.3231  0.2713
  122OSM    O1412829   1.443   3.180   6.559  0.3915  0.5090 -0.5182
  122OSM    O1112830   1.516   3.005   6.397 -0.3125 -0.2797 -0.4296
  122OSM    O1212831   1.635   3.034   6.617 -0.1195 -0.9302 -0.2682
  122OSM    C1S12832   1.533   2.870   6.351  0.1473  0.0261  0.4092
  122OSM    H1S12833   1.441   2.812   6.373  0.5154 -0.4451  0.7291
  122OSM    H1T12834   1.622   2.820   6.396 -0.5265 -0.9900  0.6499
  122OSM     NF12835   1.544   2.748   6.140 -0.3983  0.2745 -0.2208
  122OSM    HNF12836   1.631   2.707   6.113 -1.6126 -2.1358 -0.8248
  122OSM    C2S12837   1.556   2.872   6.194  0.1281 -0.3727 -0.5917
  122OSM    H2S12838   1.467   2.931   6.164 -1.3220 -1.4905  1.2787
  122OSM    C3S12839   1.688   2.950   6.158  0.0273  0.3672 -0.2956
  122OSM    H3S12840   1.780   2.893   6.184  1.9618  1.4533 -4.0284
  122OSM     O312841   1.705   3.076   6.222  0.6270 -0.5185  0.0041
  122OSM    HO312842   1.640   3.067   6.292  2.2854 -0.3731  1.6696
  122OSM    C4S12843   1.694   2.956   6.008 -0.3252 -0.8750  0.4491
  122OSM    H4S12844   1.636   3.044   5.977  0.8380 -0.3868 -0.4460
  122OSM    C5S12845   1.767   2.878   5.924  0.0667  0.7529  0.2876
  122OSM    H5S12846   1.839   2.815   5.977 -1.1585 -0.1890  0.9015
  122OSM    C6S12847   1.770   2.884   5.775  0.0833 -0.3207 -0.3896
  122OSM    H6S12848   1.778   2.785   5.726  0.3871 -1.1973  1.3295
  122OSM    H6T12849   1.866   2.929   5.741 -0.8513  1.7756 -0.4136
  122OSM    C7S12850   1.649   2.957   5.704 -0.3543 -0.3189 -0.5303
  122OSM    H7S12851   1.630   3.055   5.752  1.6735  1.3691 -2.9537
  122OSM    H7T12852   1.562   2.888   5.715  1.8041 -3.6368 -2.4119
  122OSM    C8S12853   1.666   3.004   5.559 -0.3904  1.0507  0.8534
  122OSM    H8S12854   1.760   3.062   5.545 -0.1407  0.7474  1.2369
  122OSM    H8T12855   1.572   3.058   5.532 -2.2145 -1.4882  1.7470
  122OSM    C9S12856   1.696   2.890   5.451  0.2318  0.0452 -0.7791
  122OSM    H9S12857   1.609   2.820   5.448 -0.2952  0.7098 -1.4279
  122OSM    H9T12858   1.782   2.830   5.489 -0.9843  0.0733  2.3329
  122OSM   C10S12859   1.728   2.939   5.310  0.3423  0.2377 -0.0175
  122OSM   H10S12860   1.817   3.005   5.305  0.4130  0.1010 -0.6295
  122OSM   H10T12861   1.640   2.984   5.260 -0.2474  0.4818  1.2002
  122OSM   C11S12862   1.757   2.819   5.222 -0.2772 -0.1136 -0.3078
  122OSM   H11S12863   1.676   2.746   5.246 -0.6003 -0.3029 -1.8582
  122OSM   H11T12864   1.855   2.770   5.243 -0.6842  0.1966  2.8602
  122OSM   C12S12865   1.755   2.854   5.070 -0.7191 -0.6654  0.0556
  122OSM   H12S12866   1.664   2.915   5.052 -0.3563  0.9645  3.0727
  122OSM   H12T12867   1.732   2.757   5.021  2.2610 -0.5464 -1.8656
  122OSM   C13S12868   1.875   2.933   5.010 -0.1394 -0.0828 -0.2763
  122OSM   H13S12869   1.963   2.870   5.035 -0.0126  1.2282  3.0978
  122OSM   H13T12870   1.895   3.027   5.065  1.6419 -0.1111 -0.8083
  122OSM   C14S12871   1.869   2.957   4.855 -0.5031  0.1174  0.1523
  122OSM   H14S12872   1.778   3.015   4.827 -1.2412 -0.4552  1.2867
  122OSM   H14T12873   1.886   2.862   4.800  0.2950  0.2769  0.1146
  122OSM   C15S12874   1.984   3.049   4.815 -0.4157 -0.6178 -0.0444
  122OSM   H15S12875   2.077   2.988   4.807  0.2064 -0.1207  2.4944
  122OSM   H15T12876   1.996   3.135   4.885  1.3038 -0.5561 -0.3595
  122OSM   C16S12877   1.953   3.116   4.679  0.2523 -0.3463 -0.5412
  122OSM   H16S12878   1.860   3.176   4.676  0.3032 -0.2933 -1.4105
  122OSM   H16T12879   1.928   3.044   4.599  0.2736  0.0585 -0.9205
  122OSM   C17S12880   2.065   3.214   4.635 -0.3508  0.0339 -0.6713
  122OSM   H17S12881   2.139   3.152   4.579  0.8659 -1.5124  2.4365
  122OSM   H17T12882   2.122   3.248   4.724  2.2433  1.0856 -2.6229
  122OSM   C18S12883   2.026   3.336   4.549 -0.1319 -0.0813 -0.1965
  122OSM   H18S12884   2.115   3.396   4.522 -1.8175  2.7071  0.0581
  122OSM   H18T12885   1.951   3.404   4.595 -1.3367 -1.7447  0.3886
  122OSM   H18U12886   1.980   3.305   4.453 -0.7193  0.3244 -0.0525
  122OSM    C1F12887   1.432   2.676   6.139 -0.0171 -0.4646 -0.3335
  122OSM     OF12888   1.324   2.726   6.173  0.1094  0.2838 -0.7387
  122OSM    C2F12889   1.436   2.534   6.091 -0.1667 -0.1190  0.2385
  122OSM    H2F12890   1.470   2.467   6.173  1.8077 -0.0438 -0.4533
  122OSM    H2G12891   1.520   2.516   6.021  0.2023 -1.9458  1.0745
  122OSM    C3F12892   1.301   2.494   6.020 -0.0994 -0.1486 -0.3351
  122OSM    H3F12893   1.212   2.520   6.082  0.3410  1.6832 -0.4050
  122OSM    H3G12894   1.309   2.383   6.020 -1.2295 -0.2488 -0.4613
  122OSM    C4F12895   1.275   2.546   5.883  0.1171  0.2966  0.2502
  122OSM    H4F12896   1.293   2.656   5.872 -0.4656  0.3152 -0.7008
  122OSM    H4G12897   1.166   2.538   5.864 -0.3100  0.5832  2.3399
  122OSM    C5F12898   1.356   2.476   5.776  0.0152  1.1507  0.2266
  122OSM    H5F12899   1.327   2.369   5.770 -1.0152  1.3410  1.3584
  122OSM    H5G12900   1.464   2.469   5.802  0.2830 -2.9687 -1.2374
  122OSM    C6F12901   1.340   2.544   5.639  0.4875 -0.1865  0.0341
  122OSM    H6F12902   1.376   2.647   5.656 -3.9895  1.7307 -0.6267
  122OSM    H6G12903   1.232   2.549   5.615  0.1604  0.4784  1.5243
  122OSM    C7F12904   1.411   2.476   5.518  0.5207 -0.0586 -0.1455
  122OSM    H7F12905   1.377   2.370   5.510  1.6074 -0.4156 -0.1684
  122OSM    H7G12906   1.519   2.459   5.537  0.4613  1.2699  1.6189
  122OSM    C8F12907   1.386   2.559   5.393  0.0283  0.3902  0.2456
  122OSM    H8F12908   1.431   2.660   5.404 -0.5707  0.5537  1.3875
  122OSM    H8G12909   1.276   2.570   5.381  0.1563  0.8676 -0.5305
  122OSM    C9F12910   1.464   2.477   5.288 -0.4831  0.5971  0.2045
  122OSM    H9F12911   1.573   2.469   5.301 -0.6592 -3.2844  0.4854
  122OSM   C10F12912   1.427   2.435   5.169 -0.2286 -0.0552 -0.1358
  122OSM   H10F12913   1.500   2.385   5.103 -0.0833  0.3383 -0.2721
  122OSM   C11F12914   1.286   2.457   5.113  0.0147 -0.2652  0.2069
  122OSM   H11F12915   1.289   2.536   5.035 -2.5717 -0.2227  0.0556
  122OSM   H11G12916   1.211   2.480   5.192  0.3741  1.4378  0.0925
  122OSM   C12F12917   1.234   2.331   5.044 -0.2518 -0.2936 -0.6252
  122OSM   H12F12918   1.239   2.246   5.115  0.0680  0.5920  0.4537
  122OSM   H12G12919   1.289   2.295   4.955 -0.2235 -1.5317 -0.1176
  122OSM   C13F12920   1.090   2.346   5.005  0.3582  0.3352 -0.4240
  122OSM   H13F12921   1.080   2.433   4.937 -0.4735  0.5789  0.0009
  122OSM   H13G12922   1.030   2.361   5.097  0.3917 -0.8986 -0.1929
  122OSM   C14F12923   1.042   2.222   4.934  0.3209  0.3050  0.7636
  122OSM   H14F12924   1.048   2.140   5.009  0.9468 -0.0995  0.2814
  122OSM   H14G12925   1.106   2.214   4.844  0.1777  3.6743  0.2297
  122OSM   C15F12926   0.899   2.231   4.889 -0.7416  0.2714  0.1507
  122OSM   H15F12927   0.883   2.155   4.810 -1.3154  0.7563 -0.2134
  122OSM   H15G12928   0.880   2.332   4.847 -2.4447  0.0669  0.3636
  122OSM   C16F12929   0.797   2.201   4.997  0.1320 -0.6569  0.0809
  122OSM   H16F12930   0.820   2.265   5.085  3.6618 -1.5498 -0.0470
  122OSM   H16G12931   0.798   2.094   5.028  0.0250 -1.0582 -1.2508
  122OSM   C17F12932   0.649   2.236   4.970 -0.2208 -1.0087  0.1439
  122OSM   H17F12933   0.583   2.231   5.059  0.4753 -0.6061  0.6963
  122OSM   H17G12934   0.598   2.163   4.904 -0.8099 -0.8166  0.3775
  122OSM   C18F12935   0.617   2.379   4.921 -0.2919  0.0257 -0.4564
  122OSM   H18F12936   0.510   2.372   4.893 -0.1902 -1.3381 -0.6012
  122OSM   H18G12937   0.667   2.423   4.832  0.8845  1.6040  0.9230
  122OSM   H18H12938   0.639   2.453   5.001  0.4601  1.7261 -2.1526
  123OSM      N12939   1.835   4.663   1.909 -0.4951 -0.0536 -0.5522
  123OSM    C1512940   1.850   4.739   1.777 -0.3957 -0.2194 -0.4845
  123OSM   H15A12941   1.785   4.695   1.704 -0.5702 -1.3174  0.3106
  123OSM   H15B12942   1.952   4.747   1.741 -0.3824  0.5748 -0.2897
  123OSM   H15C12943   1.813   4.839   1.795 -1.7356 -0.4732 -1.7213
  123OSM    C1412944   1.692   4.624   1.918 -0.5897 -0.7041 -0.3739
  123OSM   H14A12945   1.636   4.713   1.939  0.3348 -0.3885  0.8960
  123OSM   H14B12946   1.679   4.539   1.985  3.1887 -1.2921 -0.1631
  123OSM   H14C12947   1.666   4.591   1.819 -2.1674 -1.0148  0.1191
  123OSM    C1312948   1.925   4.544   1.915 -0.0253 -0.6677 -0.1202
  123OSM   H13A12949   1.909   4.478   1.998  0.6827 -1.9693 -0.9772
  123OSM   H13B12950   2.031   4.568   1.914  0.2762 -1.8499  0.8755
  123OSM   H13C12951   1.904   4.472   1.836  2.2488 -2.1110  0.4879
  123OSM    C1212952   1.870   4.769   2.020 -0.5763  0.0119  0.0966
  123OSM   H12A12953   1.815   4.860   1.997 -0.4369  0.4139  1.3020
  123OSM   H12B12954   1.973   4.800   2.012 -0.7636  0.8306  0.7308
  123OSM    C1112955   1.852   4.735   2.172 -0.2376  0.5279 -0.0597
  123OSM   H11A12956   1.744   4.716   2.192 -0.2787  0.3073 -0.4739
  123OSM   H11B12957   1.884   4.825   2.227 -0.2147  1.7703 -2.0008
  123OSM      P12958   2.087   4.635   2.239  0.3774  0.1561 -0.3219
  123OSM    O1312959   2.157   4.504   2.226 -0.4423  0.0847  0.0409
  123OSM    O1412960   2.138   4.747   2.159 -0.4536  0.5779 -0.8037
  123OSM    O1112961   2.076   4.683   2.388 -0.5770  0.9464  0.4273
  123OSM    O1212962   1.932   4.615   2.199 -0.4558 -0.2888 -0.0618
  123OSM    C1S12963   1.985   4.628   2.481  0.6799 -0.0695  0.6694
  123OSM    H1S12964   1.946   4.528   2.453 -0.6054  0.4819  0.3852
  123OSM    H1T12965   1.895   4.693   2.480  1.6561  1.3425  1.3029
  123OSM     NF12966   1.950   4.575   2.726 -0.6246  0.4846 -0.1232
  123OSM    HNF12967   1.913   4.632   2.799 -1.6841  0.8750 -0.9268
  123OSM    C2S12968   2.046   4.625   2.624 -0.7360  0.2456 -0.7019
  123OSM    H2S12969   2.133   4.555   2.623 -0.1375  0.8448  2.1646
  123OSM    C3S12970   2.113   4.757   2.666 -0.3213 -0.0440  0.5942
  123OSM    H3S12971   2.051   4.849   2.666 -0.3967 -0.0143 -2.4380
  123OSM     O312972   2.213   4.801   2.569  0.0109 -0.4195  0.0909
  123OSM    HO312973   2.191   4.743   2.496 -0.8796 -0.2107  0.1860
  123OSM    C4S12974   2.175   4.746   2.807  0.2419 -0.0294 -0.0270
  123OSM    H4S12975   2.103   4.780   2.883  0.2698 -0.9641  0.4392
  123OSM    C5S12976   2.305   4.726   2.835  0.7695  0.2676  0.2757
  123OSM    H5S12977   2.381   4.735   2.756  0.8742  1.4363  0.4960
  123OSM    C6S12978   2.339   4.734   2.980  0.6312  0.6743 -1.0082
  123OSM    H6S12979   2.403   4.823   3.001  2.0537 -0.6418  0.4963
  123OSM    H6T12980   2.397   4.642   3.002  0.4873  0.6804 -0.5872
  123OSM    C7S12981   2.226   4.735   3.087  0.1231  0.4603  0.0973
  123OSM    H7S12982   2.151   4.654   3.075 -0.1458  0.7458 -0.1699
  123OSM    H7T12983   2.176   4.833   3.074  2.0375  1.4033 -0.4833
  123OSM    C8S12984   2.287   4.726   3.228 -0.1755 -0.4177  0.1114
  123OSM    H8S12985   2.373   4.797   3.231  0.5692 -1.3454  1.6805
  123OSM    H8T12986   2.336   4.629   3.250  1.0598 -0.1632 -1.3038
  123OSM    C9S12987   2.187   4.759   3.335 -0.2192  1.0560  0.0406
  123OSM    H9S12988   2.098   4.698   3.309 -1.2861  2.4395  0.3301
  123OSM    H9T12989   2.161   4.867   3.326 -0.9690  0.9214  0.5001
  123OSM   C10S12990   2.245   4.726   3.478  0.0902  0.3986  0.0941
  123OSM   H10S12991   2.330   4.790   3.511  0.6159 -0.1180 -0.2375
  123OSM   H10T12992   2.289   4.624   3.475  0.4714  0.5174  1.0799
  123OSM   C11S12993   2.134   4.747   3.582  0.3393  0.7847 -0.0679
  123OSM   H11S12994   2.070   4.663   3.550  1.7282  0.8743 -3.6019
  123OSM   H11T12995   2.070   4.835   3.561 -0.8957 -0.5026 -2.0312
  123OSM   C12S12996   2.181   4.733   3.727  0.6887 -0.3509  0.5915
  123OSM   H12S12997   2.230   4.824   3.768  1.5080 -0.4228 -0.2019
  123OSM   H12T12998   2.256   4.652   3.715  1.1984  0.3257 -1.0604
  123OSM   C13S12999   2.066   4.688   3.816 -0.7564 -0.1122 -0.2528
  123OSM   H13S13000   2.025   4.596   3.768  1.1133 -0.3081 -1.5729
  123OSM   H13T13001   1.996   4.773   3.830 -0.9421 -0.5540  1.9060
  123OSM   C14S13002   2.109   4.646   3.955  0.0507 -0.2936  0.4791
  123OSM   H14S13003   2.207   4.594   3.952  0.2340 -0.1542  2.8239
  123OSM   H14T13004   2.030   4.572   3.976 -0.9193  0.4445 -0.4785
  123OSM   C15S13005   2.113   4.754   4.066  0.4147 -0.4976  0.1924
  123OSM   H15S13006   2.020   4.814   4.080  0.8159  0.5389 -1.3269
  123OSM   H15T13007   2.191   4.824   4.030 -0.4681 -0.4984 -1.8870
  123OSM   C16S13008   2.152   4.694   4.203 -0.1810 -0.1736  0.8831
  123OSM   H16S13009   2.159   4.773   4.281 -0.0999  1.2222 -0.4715
  123OSM   H16T13010   2.260   4.668   4.194 -0.4194 -1.2449  1.0930
  123OSM   C17S13011   2.075   4.572   4.252  0.1800  0.0847  0.3895
  123OSM   H17S13012   2.142   4.538   4.334  1.3269  2.0746  0.3469
  123OSM   H17T13013   2.079   4.477   4.195 -0.4675  0.5266 -0.4297
  123OSM   C18S13014   1.929   4.595   4.298  0.1012  0.4389 -0.4058
  123OSM   H18S13015   1.866   4.610   4.207 -0.5826 -0.9851 -0.1869
  123OSM   H18T13016   1.912   4.680   4.368 -0.9523  0.0284 -0.1310
  123OSM   H18U13017   1.894   4.499   4.342  2.5481  0.0983  0.9299
  123OSM    C1F13018   1.903   4.451   2.703  0.7414 -0.1047 -0.5137
  123OSM     OF13019   1.957   4.374   2.629 -0.2471 -0.2828 -0.0400
  123OSM    C2F13020   1.790   4.406   2.772  0.0330  0.2036 -0.2827
  123OSM    H2F13021   1.723   4.339   2.714 -1.4876  1.4449 -0.0441
  123OSM    H2G13022   1.717   4.487   2.793  0.1743  0.2547  0.0218
  123OSM    C3F13023   1.828   4.333   2.906  0.1716 -0.0545 -0.1304
  123OSM    H3F13024   1.907   4.381   2.967 -1.3293  2.8543 -0.3009
  123OSM    H3G13025   1.870   4.236   2.872 -1.6187 -0.4053 -1.5276
  123OSM    C4F13026   1.711   4.291   3.000  0.2800  0.2497 -0.4190
  123OSM    H4F13027   1.647   4.211   2.957  1.9055 -2.6758  2.1653
  123OSM    H4G13028   1.661   4.385   3.029  2.7119  1.5703 -0.2170
  123OSM    C5F13029   1.765   4.241   3.132 -0.1299 -0.0247 -0.0371
  123OSM    H5F13030   1.829   4.314   3.187  0.8394  0.3397 -1.5592
  123OSM    H5G13031   1.823   4.147   3.120 -1.5017 -1.1599  1.7930
  123OSM    C6F13032   1.651   4.202   3.226 -0.4643 -0.2696 -0.6000
  123OSM    H6F13033   1.599   4.109   3.193 -0.6074 -0.5889  0.4775
  123OSM    H6G13034   1.578   4.286   3.220 -0.2627 -0.1572 -1.7016
  123OSM    C7F13035   1.714   4.168   3.361  0.4945 -1.1877  0.8316
  123OSM    H7F13036   1.774   4.255   3.394 -0.2194  0.1740 -1.2211
  123OSM    H7G13037   1.780   4.085   3.330  0.6792 -0.3926 -1.0846
  123OSM    C8F13038   1.615   4.128   3.465  0.3265  0.7549  0.5613
  123OSM    H8F13039   1.570   4.034   3.428 -1.4462  1.1433  1.6315
  123OSM    H8G13040   1.527   4.195   3.469 -1.4353 -1.3493 -0.7944
  123OSM    C9F13041   1.679   4.094   3.602  1.1396 -0.4643 -0.1844
  123OSM    H9F13042   1.788   4.081   3.600  1.0049 -1.9422  0.5156
  123OSM   C10F13043   1.613   4.081   3.721  0.0303 -0.1136 -0.0378
  123OSM   H10F13044   1.672   4.062   3.812  0.7220 -0.3195 -0.5139
  123OSM   C11F13045   1.462   4.107   3.741  0.0151 -0.6046 -0.1687
  123OSM   H11F13046   1.419   4.164   3.655  0.7026 -1.2434 -0.9577
  123OSM   H11G13047   1.442   4.174   3.827 -0.1260 -2.4983  1.3455
  123OSM   C12F13048   1.383   3.979   3.778 -0.7647  0.1541  0.0866
  123OSM   H12F13049   1.410   3.895   3.711 -0.6480  0.5550 -0.3775
  123OSM   H12G13050   1.274   4.001   3.783 -0.3036  2.3810  1.5795
  123OSM   C13F13051   1.428   3.935   3.923 -0.2024 -0.1735  0.5059
  123OSM   H13F13052   1.390   4.009   3.995 -2.6775  2.6175 -3.3012
  123OSM   H13G13053   1.539   3.929   3.924 -0.1699 -0.1552 -0.9489
  123OSM   C14F13054   1.360   3.801   3.972 -0.1454  0.1289 -0.1747
  123OSM   H14F13055   1.403   3.709   3.927  0.7251  0.9363 -1.0564
  123OSM   H14G13056   1.258   3.814   3.932 -0.3726 -1.0671 -0.0265
  123OSM   C15F13057   1.356   3.791   4.129 -0.7755 -0.0682  0.5350
  123OSM   H15F13058   1.269   3.722   4.139 -1.4833  0.4605 -1.4118
  123OSM   H15G13059   1.324   3.883   4.182 -1.8850 -0.4728  0.5931
  123OSM   C16F13060   1.481   3.717   4.187 -0.3053  0.7351 -0.2446
  123OSM   H16F13061   1.514   3.627   4.131  0.5446 -0.2757  1.7590
  123OSM   H16G13062   1.454   3.684   4.290  0.5982  0.1361 -0.1972
  123OSM   C17F13063   1.603   3.817   4.197  0.0755 -0.1298  0.4032
  123OSM   H17F13064   1.593   3.894   4.276  2.0072  1.7405 -1.0438
  123OSM   H17G13065   1.618   3.870   4.101 -0.8572  1.6537  1.2062
  123OSM   C18F13066   1.734   3.740   4.239 -0.2612  0.4706  1.2614
  123OSM   H18F13067   1.718   3.686   4.335  0.4985 -2.6298 -0.2304
  123OSM   H18G13068   1.822   3.808   4.252  1.9004 -1.8653 -0.1670
  123OSM   H18H13069   1.765   3.669   4.160  0.6535  0.4928  1.5839
  124OSM      N13070   3.387   5.940   2.530  0.2638 -0.4695 -0.2056
  124OSM    C1513071   3.397   6.062   2.618  0.1364  1.0657  0.1307
  124OSM   H15A13072   3.483   6.077   2.681 -1.1638  0.2175  2.2064
  124OSM   H15B13073   3.305   6.078   2.671 -0.8688 -0.3843 -1.0875
  124OSM   H15C13074   3.404   6.141   2.544  2.3098  1.0350  0.2406
  124OSM    C1413075   3.519   5.923   2.472  0.3934  1.0037 -0.2582
  124OSM   H14A13076   3.555   5.997   2.401  0.5005  3.4089  2.1349
  124OSM   H14B13077   3.522   5.826   2.425 -2.0137 -0.4663  2.3414
  124OSM   H14C13078   3.592   5.926   2.551  0.9351 -1.5461 -0.5894
  124OSM    C1313079   3.363   5.804   2.597 -0.6862  0.0283 -0.2375
  124OSM   H13A13080   3.368   5.726   2.523 -1.9786  0.6792 -1.0418
  124OSM   H13B13081   3.265   5.806   2.643 -0.5244  0.7279  0.0903
  124OSM   H13C13082   3.424   5.790   2.686 -4.0879  0.9061  2.4598
  124OSM    C1213083   3.286   5.963   2.421 -0.3329  0.4373  0.0700
  124OSM   H12A13084   3.263   5.869   2.374  0.8729 -0.7915  1.8156
  124OSM   H12B13085   3.330   6.037   2.355  0.0131  2.5128  2.4582
  124OSM    C1113086   3.143   6.020   2.454 -0.2838  0.4559  0.0544
  124OSM   H11A13087   3.103   6.043   2.353 -2.2466 -2.2337  0.1136
  124OSM   H11B13088   3.140   6.116   2.511 -0.7042  0.4650  0.0210
  124OSM      P13089   3.004   5.790   2.464  0.1172 -0.2544  0.6223
  124OSM    O1313090   2.895   5.823   2.377 -0.0053 -0.1624  0.3439
  124OSM    O1413091   3.115   5.715   2.405  0.3664  0.2399 -0.0419
  124OSM    O1113092   2.953   5.718   2.594 -0.3491  0.0898 -0.0826
  124OSM    O1213093   3.056   5.924   2.522 -0.1598  0.5320 -0.8212
  124OSM    C1S13094   3.039   5.684   2.706 -0.5446 -0.3391  0.5262
  124OSM    H1S13095   3.124   5.755   2.714 -0.1888 -0.9291  2.5520
  124OSM    H1T13096   3.076   5.580   2.691  1.4897  0.1692  1.6732
  124OSM     NF13097   3.029   5.667   2.960 -0.5035 -0.0642 -0.2187
  124OSM    HNF13098   3.015   5.575   2.996 -1.0850 -0.6940 -1.9051
  124OSM    C2S13099   2.953   5.692   2.839  0.3090 -0.7950  0.5369
  124OSM    H2S13100   2.926   5.800   2.843 -0.1145 -0.9191  1.0236
  124OSM    C3S13101   2.818   5.618   2.826  0.0172  0.3422  0.0815
  124OSM    H3S13102   2.852   5.513   2.811 -1.5518 -0.0231 -1.1889
  124OSM     O313103   2.737   5.651   2.719  0.0437  0.3138 -0.2786
  124OSM    HO313104   2.803   5.688   2.659 -0.3332 -1.1127 -1.6405
  124OSM    C4S13105   2.729   5.631   2.938  0.7427 -0.4874 -0.4367
  124OSM    H4S13106   2.710   5.739   2.953  1.3828 -0.3178 -0.8258
  124OSM    C5S13107   2.699   5.544   3.036  0.4844  0.9251 -0.0597
  124OSM    H5S13108   2.752   5.447   3.035 -0.0631  0.6146  0.5051
  124OSM    C6S13109   2.615   5.563   3.156  0.2912 -0.3539 -0.2502
  124OSM    H6S13110   2.564   5.473   3.196  0.6820 -0.4310  0.0757
  124OSM    H6T13111   2.543   5.645   3.134  2.5948  1.6621 -0.7136
  124OSM    C7S13112   2.697   5.620   3.277 -0.0771  0.2634 -0.0070
  124OSM    H7S13113   2.759   5.709   3.257 -1.7821  1.1120 -1.8446
  124OSM    H7T13114   2.769   5.539   3.301 -1.0189 -0.5871  0.0205
  124OSM    C8S13115   2.616   5.640   3.412  0.8031 -0.9088  0.2054
  124OSM    H8S13116   2.562   5.545   3.431  0.3915 -0.3234  2.2414
  124OSM    H8T13117   2.537   5.718   3.410  0.7827 -0.9235 -1.7321
  124OSM    C9S13118   2.703   5.660   3.532 -0.1708  0.2825 -0.2735
  124OSM    H9S13119   2.743   5.763   3.540  0.9555 -0.2230  0.9625
  124OSM    H9T13120   2.792   5.594   3.525 -0.2433  0.1196  0.3017
  124OSM   C10S13121   2.636   5.644   3.670 -0.8357  0.3602 -1.0527
  124OSM   H10S13122   2.588   5.544   3.679 -1.1683  0.6059  0.2913
  124OSM   H10T13123   2.558   5.723   3.677  1.1092  2.2377  0.7999
  124OSM   C11S13124   2.717   5.688   3.795 -0.1007 -0.0767 -0.2240
  124OSM   H11S13125   2.728   5.799   3.789  1.5680 -0.2256 -0.5264
  124OSM   H11T13126   2.818   5.642   3.791 -0.8490 -1.6985 -2.1122
  124OSM   C12S13127   2.644   5.658   3.921  0.1030  0.6996 -0.1372
  124OSM   H12S13128   2.622   5.550   3.919  0.4832  0.6121  0.4382
  124OSM   H12T13129   2.543   5.705   3.929  0.0244  0.6242 -0.6130
  124OSM   C13S13130   2.726   5.686   4.051  0.1418  0.4401  0.7242
  124OSM   H13S13131   2.761   5.792   4.053  1.2290  0.1103  0.0873
  124OSM   H13T13132   2.819   5.625   4.048  1.7323  2.7196 -1.5713
  124OSM   C14S13133   2.652   5.652   4.184 -0.2993  0.1296  0.1599
  124OSM   H14S13134   2.728   5.682   4.259  0.9224 -2.1798 -0.0687
  124OSM   H14T13135   2.631   5.544   4.179  1.6448 -0.3176  0.6525
  124OSM   C15S13136   2.514   5.707   4.200  0.0396 -1.0689 -0.2383
  124OSM   H15S13137   2.484   5.681   4.304  2.6537  1.4035  1.3043
  124OSM   H15T13138   2.434   5.676   4.130 -0.2759 -0.5071 -0.1317
  124OSM   C16S13139   2.505   5.859   4.187 -0.1731  0.1012  0.0229
  124OSM   H16S13140   2.524   5.891   4.083  1.7287 -3.3378 -0.8211
  124OSM   H16T13141   2.587   5.901   4.250  1.5668 -1.2501 -1.2470
  124OSM   C17S13142   2.367   5.912   4.218 -0.0463 -0.2795 -0.0858
  124OSM   H17S13143   2.331   5.869   4.314  0.6167  0.4821  0.5169
  124OSM   H17T13144   2.296   5.881   4.139 -0.7364 -2.1673  1.2099
  124OSM   C18S13145   2.379   6.056   4.232  0.1509  0.1950  0.6103
  124OSM   H18S13146   2.441   6.079   4.322 -0.4472 -0.8160  1.3086
  124OSM   H18T13147   2.279   6.099   4.253  0.0615 -1.1920  3.6151
  124OSM   H18U13148   2.425   6.112   4.147 -1.1585 -2.1248 -1.7425
  124OSM    C1F13149   3.128   5.749   3.009  0.3119 -0.0714 -0.1793
  124OSM     OF13150   3.157   5.854   2.953  0.4009 -0.1949  0.4879
  124OSM    C2F13151   3.188   5.715   3.140  0.4728 -0.1050  0.5949
  124OSM    H2F13152   3.210   5.606   3.143 -0.9681 -0.4848 -1.0332
  124OSM    H2G13153   3.111   5.742   3.215 -2.7580  0.4544 -2.6473
  124OSM    C3F13154   3.312   5.799   3.171 -0.2066  0.2166  0.1158
  124OSM    H3F13155   3.290   5.906   3.151 -1.2021  0.2787  1.3922
  124OSM    H3G13156   3.389   5.769   3.097 -1.5191  1.4702 -1.8550
  124OSM    C4F13157   3.361   5.779   3.315  0.1086 -0.4484 -0.3498
  124OSM    H4F13158   3.444   5.851   3.332  1.4780 -1.3776 -2.7426
  124OSM    H4G13159   3.409   5.679   3.326  1.2783  0.2884  2.0703
  124OSM    C5F13160   3.254   5.819   3.433  0.2757 -0.1933 -0.0059
  124OSM    H5F13161   3.179   5.740   3.414  0.3503 -0.1224 -0.6394
  124OSM    H5G13162   3.213   5.920   3.412  2.6452  0.8734  0.1204
  124OSM    C6F13163   3.306   5.813   3.574 -0.1137 -0.2274  0.2961
  124OSM    H6F13164   3.378   5.892   3.605  0.4326 -1.5175  2.5994
  124OSM    H6G13165   3.366   5.719   3.574 -0.3013 -0.3533  1.1363
  124OSM    C7F13166   3.197   5.796   3.677  0.1924 -1.1199  0.3227
  124OSM    H7F13167   3.132   5.709   3.655  0.5566 -1.4331  0.4665
  124OSM    H7G13168   3.143   5.890   3.653 -0.4106 -2.1419 -2.8949
  124OSM    C8F13169   3.249   5.799   3.823 -0.1833  0.0794  0.6532
  124OSM    H8F13170   3.314   5.889   3.827  1.6911 -0.9793 -2.2854
  124OSM    H8G13171   3.315   5.713   3.846  0.9380  1.2057  1.8382
  124OSM    C9F13172   3.142   5.821   3.923  0.3044 -0.4255 -0.0834
  124OSM    H9F13173   3.084   5.910   3.895 -0.8271 -1.1317 -0.0380
  124OSM   C10F13174   3.099   5.737   4.020  0.6512 -0.1799 -0.6925
  124OSM   H10F13175   3.019   5.775   4.085  0.7072 -0.3241 -0.5368
  124OSM   C11F13176   3.144   5.604   4.074  0.2495  0.0546  0.2292
  124OSM   H11F13177   3.190   5.550   3.990 -0.5631  1.4478 -1.1685
  124OSM   H11G13178   3.054   5.549   4.109  0.2906  1.2036  2.3343
  124OSM   C12F13179   3.228   5.624   4.199  0.2696  0.6220 -0.0330
  124OSM   H12F13180   3.156   5.649   4.281 -0.9315  0.2027 -0.9311
  124OSM   H12G13181   3.304   5.705   4.188 -1.1264  2.1860  1.1449
  124OSM   C13F13182   3.302   5.500   4.239  0.4606  0.2144 -0.7538
  124OSM   H13F13183   3.358   5.456   4.154 -1.6826 -0.1443 -2.0318
  124OSM   H13G13184   3.219   5.431   4.264 -0.5118  1.6309  0.0936
  124OSM   C14F13185   3.385   5.516   4.370 -0.1612 -0.0192 -0.6838
  124OSM   H14F13186   3.422   5.620   4.374  1.0370 -0.4253 -0.8488
  124OSM   H14G13187   3.469   5.443   4.368  0.3153  0.5211 -0.5962
  124OSM   C15F13188   3.295   5.508   4.495 -0.1832  0.3496 -0.4104
  124OSM   H15F13189   3.260   5.403   4.501 -3.9904  1.5179  0.2924
  124OSM   H15G13190   3.203   5.570   4.494 -0.6486 -0.1913  1.8721
  124OSM   C16F13191   3.373   5.553   4.626  0.4584 -0.0479  0.2230
  124OSM   H16F13192   3.302   5.576   4.708 -0.2620 -1.1351 -0.0770
  124OSM   H16G13193   3.439   5.640   4.602 -0.2040  0.3799 -0.0792
  124OSM   C17F13194   3.478   5.455   4.677 -0.0179 -0.1612  0.4608
  124OSM   H17F13195   3.563   5.505   4.729  1.4372 -1.4514 -0.5586
  124OSM   H17G13196   3.537   5.410   4.593  0.0595 -1.4591  1.1827
  124OSM   C18F13197   3.430   5.339   4.758  0.6374 -0.4531 -0.2192
  124OSM   H18F13198   3.373   5.276   4.686  0.8729  1.2198 -1.9465
  124OSM   H18G13199   3.356   5.357   4.839  0.3937 -1.7556 -0.1275
  124OSM   H18H13200   3.507   5.274   4.804 -0.2564 -1.6461 -0.3461
  125OSM      N13201   3.654   3.868   2.331 -0.3662 -0.2571 -0.5372
  125OSM    C1513202   3.639   3.758   2.238  0.4984  0.4964  0.3707
  125OSM   H15A13203   3.675   3.668   2.285  1.0669  0.7739  0.4761
  125OSM   H15B13204   3.689   3.774   2.144  0.8417 -0.9491  0.2894
  125OSM   H15C13205   3.537   3.734   2.212  0.6543 -0.5410  0.6525
  125OSM    C1413206   3.595   3.992   2.266 -0.4788 -0.7950 -0.3791
  125OSM   H14A13207   3.495   3.961   2.238  0.1348 -0.3136 -3.4779
  125OSM   H14B13208   3.649   4.021   2.177  0.6375 -1.9637 -0.1137
  125OSM   H14C13209   3.586   4.072   2.339 -0.9817 -0.5400 -0.7168
  125OSM    C1313210   3.572   3.842   2.457  0.8972  0.2244  0.1963
  125OSM   H13A13211   3.467   3.839   2.430  0.6164 -0.7634  1.3337
  125OSM   H13B13212   3.588   3.911   2.538  1.5092  0.6449 -0.2666
  125OSM   H13C13213   3.590   3.742   2.493 -2.7717 -0.4046  0.7363
  125OSM    C1213214   3.796   3.889   2.379 -0.0911 -0.4367 -0.1256
  125OSM   H12A13215   3.856   3.878   2.289  1.0971 -0.7771  0.6913
  125OSM   H12B13216   3.832   3.807   2.440  1.8259  0.0775 -0.4912
  125OSM    C1113217   3.841   4.008   2.467 -0.3356 -1.1799  0.5444
  125OSM   H11A13218   3.925   3.974   2.531 -0.6460 -1.8807  0.5884
  125OSM   H11B13219   3.769   4.034   2.548 -0.4236  0.1851  0.0622
  125OSM      P13220   4.019   4.162   2.349  0.4878 -0.3705  0.0286
  125OSM    O1313221   4.088   4.039   2.311 -0.1338  0.0996  0.1282
  125OSM    O1413222   4.025   4.273   2.254 -0.2946 -0.5946  0.1953
  125OSM    O1113223   4.066   4.206   2.497  0.1882 -0.0676  0.2201
  125OSM    O1213224   3.870   4.124   2.379 -0.2573 -0.3377  0.4945
  125OSM    C1S13225   4.065   4.343   2.543  0.2799  0.3074 -0.1520
  125OSM    H1S13226   3.994   4.401   2.480 -0.3148  0.1992  0.4067
  125OSM    H1T13227   4.164   4.393   2.538  0.1164  0.8178  1.1552
  125OSM     NF13228   3.977   4.492   2.716 -0.3961  0.1687  0.2759
  125OSM    HNF13229   4.045   4.561   2.740 -1.4812  1.7200 -0.9045
  125OSM    C2S13230   4.020   4.356   2.694  0.3165 -0.0317 -0.5232
  125OSM    H2S13231   3.932   4.289   2.706  1.2235 -0.7524  3.6287
  125OSM    C3S13232   4.123   4.303   2.800 -0.9176  0.8791  0.2802
  125OSM    H3S13233   4.215   4.360   2.774  0.2361 -1.1135 -0.2385
  125OSM     O313234   4.155   4.164   2.779 -0.1029  0.1040 -0.0414
  125OSM    HO313235   4.118   4.139   2.694 -1.9772 -2.1430  1.3274
  125OSM    C4S13236   4.075   4.326   2.938 -0.2425 -0.4244  0.2936
  125OSM    H4S13237   4.133   4.401   2.993 -0.0851 -1.7366  2.0029
  125OSM    C5S13238   3.983   4.257   3.002 -0.0865 -0.0361  0.4865
  125OSM    H5S13239   3.942   4.163   2.961 -0.9431  0.6244 -0.2106
  125OSM    C6S13240   3.937   4.288   3.140  0.6988  0.2480  0.6869
  125OSM    H6S13241   3.992   4.225   3.213  1.9000  0.4603  0.0006
  125OSM    H6T13242   3.827   4.269   3.138  1.0161 -1.9725  2.0503
  125OSM    C7S13243   3.940   4.441   3.184 -0.9334 -0.5739 -0.1749
  125OSM    H7S13244   3.882   4.494   3.105 -1.0196  0.0549  0.3050
  125OSM    H7T13245   4.044   4.479   3.188 -0.9184 -0.7447  1.8710
  125OSM    C8S13246   3.875   4.463   3.328  0.2400  0.1900  1.0156
  125OSM    H8S13247   3.871   4.574   3.341  1.0087  0.1068  2.0630
  125OSM    H8T13248   3.952   4.428   3.400  0.0654  0.1369  1.1784
  125OSM    C9S13249   3.740   4.385   3.364  0.1613  0.2712  0.0051
  125OSM    H9S13250   3.750   4.277   3.339 -0.9047  0.7083 -2.6156
  125OSM    H9T13251   3.659   4.423   3.298 -0.5100 -0.9788  0.0809
  125OSM   C10S13252   3.695   4.408   3.511 -0.3870  0.5786  0.3983
  125OSM   H10S13253   3.680   4.515   3.536 -0.6152  0.4721  0.7388
  125OSM   H10T13254   3.780   4.362   3.567 -0.2996 -2.7576 -2.1517
  125OSM   C11S13255   3.566   4.330   3.539 -0.0729 -0.0410 -0.2600
  125OSM   H11S13256   3.585   4.223   3.518  0.4524 -0.3852  1.8145
  125OSM   H11T13257   3.498   4.359   3.455  0.6925 -2.4163 -1.7942
  125OSM   C12S13258   3.507   4.352   3.676  0.2639 -0.0262 -0.4270
  125OSM   H12S13259   3.406   4.307   3.669 -0.2588  0.8983  0.8884
  125OSM   H12T13260   3.497   4.459   3.704  3.4966 -0.0941  1.4989
  125OSM   C13S13261   3.581   4.277   3.790 -0.5362  0.4690 -0.6413
  125OSM   H13S13262   3.680   4.323   3.808  0.1617 -0.9392 -0.8082
  125OSM   H13T13263   3.606   4.174   3.757 -0.0971  0.5245 -0.4805
  125OSM   C14S13264   3.504   4.266   3.917  0.2290  0.5437  0.2848
  125OSM   H14S13265   3.415   4.199   3.919  0.5771  0.0815  0.7645
  125OSM   H14T13266   3.461   4.361   3.955  1.6684  2.0115 -1.5872
  125OSM   C15S13267   3.596   4.227   4.034 -0.0166 -0.6090  0.0608
  125OSM   H15S13268   3.554   4.255   4.133 -0.8624 -0.0101 -0.4584
  125OSM   H15T13269   3.689   4.286   4.018 -0.8204  0.6157 -0.2249
  125OSM   C16S13270   3.626   4.076   4.041 -0.1789 -0.5743 -0.5526
  125OSM   H16S13271   3.705   4.056   4.117 -1.4189 -1.6098  0.5265
  125OSM   H16T13272   3.674   4.056   3.943 -0.0429 -2.3603 -0.1606
  125OSM   C17S13273   3.519   3.976   4.074  0.7762 -0.3748  0.1424
  125OSM   H17S13274   3.565   3.876   4.068 -1.0279 -1.3267  1.0870
  125OSM   H17T13275   3.445   4.000   3.995  1.5241  3.4767  0.4301
  125OSM   C18S13276   3.455   3.973   4.218  0.2816  0.4331  0.2903
  125OSM   H18S13277   3.542   3.974   4.287  0.3407  2.1135  0.2359
  125OSM   H18T13278   3.407   3.875   4.238 -1.5933  1.5860  1.8248
  125OSM   H18U13279   3.376   4.046   4.246  1.4627  1.1113  2.0573
  125OSM    C1F13280   3.860   4.527   2.670  0.0001 -0.5343 -0.2566
  125OSM     OF13281   3.773   4.452   2.625  0.2395 -0.3502 -0.0999
  125OSM    C2F13282   3.828   4.671   2.661  0.2662  0.2144 -0.1482
  125OSM    H2F13283   3.748   4.678   2.585  1.1333 -0.0264 -1.1025
  125OSM    H2G13284   3.923   4.713   2.622  1.0304 -1.2189  0.1250
  125OSM    C3F13285   3.805   4.733   2.803  0.3728  0.4736  0.2860
  125OSM    H3F13286   3.882   4.700   2.876 -0.3513 -0.8913  0.4737
  125OSM    H3G13287   3.710   4.684   2.833  0.0456  0.3082 -0.9537
  125OSM    C4F13288   3.777   4.884   2.809  0.3765 -0.3835 -0.7809
  125OSM    H4F13289   3.711   4.916   2.726 -0.8476  2.5233  1.1756
  125OSM    H4G13290   3.877   4.933   2.801 -0.2773  1.0018 -0.5900
  125OSM    C5F13291   3.703   4.945   2.927  0.4397  0.9403 -0.6448
  125OSM    H5F13292   3.623   4.871   2.946  1.0216  0.6817  1.0457
  125OSM    H5G13293   3.655   5.043   2.905  3.3276  2.2027 -1.8882
  125OSM    C6F13294   3.788   4.965   3.055  0.1351  0.3022 -0.6375
  125OSM    H6F13295   3.838   4.867   3.073 -0.0209  0.3727  0.2319
  125OSM    H6G13296   3.716   4.993   3.136 -0.9597 -1.9455 -0.7495
  125OSM    C7F13297   3.896   5.075   3.034 -0.4684  0.4255  0.0681
  125OSM    H7F13298   3.837   5.168   3.025 -1.9115 -0.5166 -0.6283
  125OSM    H7G13299   3.956   5.055   2.943  0.6372 -1.9424  1.1929
  125OSM    C8F13300   3.994   5.086   3.157 -0.2268 -0.1228 -0.6993
  125OSM    H8F13301   3.936   5.134   3.239 -0.0751  0.8330 -1.1477
  125OSM    H8G13302   4.064   5.165   3.124 -1.5206  0.7465 -1.4226
  125OSM    C9F13303   4.060   4.962   3.201  0.3010  0.7697 -0.9395
  125OSM    H9F13304   4.109   4.906   3.120  1.2755  0.1740  0.0353
  125OSM   C10F13305   4.073   4.908   3.326 -0.4342  0.2964 -0.1355
  125OSM   H10F13306   4.140   4.822   3.339  0.5016  1.2731  2.0222
  125OSM   C11F13307   4.027   4.965   3.457  0.3320  0.2748 -0.0112
  125OSM   H11F13308   3.965   5.057   3.448 -0.9712 -0.6536 -0.8421
  125OSM   H11G13309   4.114   4.993   3.521  0.3177 -0.0236  0.1409
  125OSM   C12F13310   3.939   4.865   3.544  0.5975 -0.1264  0.3969
  125OSM   H12F13311   3.859   4.818   3.483  0.6766  1.0877 -0.6516
  125OSM   H12G13312   3.880   4.933   3.609 -2.4456 -0.2176 -2.0408
  125OSM   C13F13313   4.022   4.761   3.619  0.0824 -0.7004 -0.2124
  125OSM   H13F13314   4.113   4.794   3.674 -0.6459 -0.1459  0.6938
  125OSM   H13G13315   4.077   4.705   3.540  1.3344  0.4834 -0.2238
  125OSM   C14F13316   3.944   4.652   3.699 -0.1502 -0.1813 -0.2545
  125OSM   H14F13317   4.015   4.572   3.731  0.4165  0.8187  1.0608
  125OSM   H14G13318   3.876   4.600   3.628 -1.0006  2.0474 -1.1657
  125OSM   C15F13319   3.863   4.708   3.814  0.1700  0.5425  0.4085
  125OSM   H15F13320   3.808   4.793   3.769  3.4366  0.9212 -3.4352
  125OSM   H15G13321   3.936   4.751   3.886  1.3015 -0.1440 -0.2958
  125OSM   C16F13322   3.782   4.593   3.885 -0.0069 -0.2769  0.3040
  125OSM   H16F13323   3.858   4.525   3.929  0.3082 -0.0892  0.0497
  125OSM   H16G13324   3.723   4.527   3.818  1.1825 -1.3077  0.2467
  125OSM   C17F13325   3.698   4.625   4.012 -0.7828 -0.8211  0.9385
  125OSM   H17F13326   3.669   4.527   4.056 -3.0534 -1.2991 -1.3646
  125OSM   H17G13327   3.605   4.677   3.980  0.2842 -0.6155 -2.2358
  125OSM   C18F13328   3.764   4.706   4.127  0.1237  0.3246  0.7921
  125OSM   H18F13329   3.790   4.808   4.092 -2.9668  1.2494  0.9653
  125OSM   H18G13330   3.850   4.646   4.165 -0.2443  0.7609  2.4072
  125OSM   H18H13331   3.689   4.718   4.208  0.6244  0.9426  1.1822
  126OSM      N13332   3.313   1.441   1.839  0.2388  0.9052  0.3087
  126OSM    C1513333   3.370   1.313   1.895 -0.2706  0.7500 -1.0009
  126OSM   H15A13334   3.444   1.337   1.970 -1.5336  0.2522  0.4623
  126OSM   H15B13335   3.414   1.258   1.813 -1.6507 -0.5175 -0.9501
  126OSM   H15C13336   3.301   1.246   1.945 -0.2484  0.3277 -1.5271
  126OSM    C1413337   3.424   1.528   1.806 -0.7090 -0.1054  0.6011
  126OSM   H14A13338   3.399   1.632   1.788 -2.7128 -0.5675  0.4396
  126OSM   H14B13339   3.465   1.491   1.713 -1.6926 -0.0960  0.1539
  126OSM   H14C13340   3.500   1.518   1.882  1.5214  2.1219 -1.1891
  126OSM    C1313341   3.226   1.422   1.711  0.2453  0.1307  0.3028
  126OSM   H13A13342   3.280   1.370   1.634 -0.8749  0.1573 -0.5136
  126OSM   H13B13343   3.188   1.514   1.669 -1.7334 -1.4041 -1.4310
  126OSM   H13C13344   3.143   1.359   1.738  0.6564 -0.1211  1.0179
  126OSM    C1213345   3.233   1.504   1.947  0.7717 -0.5466  0.5137
  126OSM   H12A13346   3.218   1.605   1.911  1.1317 -0.7148 -0.1228
  126OSM   H12B13347   3.299   1.504   2.032  0.1503 -1.3497  1.0189
  126OSM    C1113348   3.094   1.449   1.994  0.1223  0.3766 -0.0985
  126OSM   H11A13349   3.025   1.424   1.910 -1.7789 -2.7723  2.1800
  126OSM   H11B13350   3.048   1.529   2.056  0.2908  0.4847 -0.1118
  126OSM      P13351   3.006   1.229   2.094  0.2335 -0.4918 -0.2899
  126OSM    O1313352   2.870   1.285   2.087  0.0852  0.4894  0.6966
  126OSM    O1413353   3.028   1.113   2.008  0.3454 -0.1763  0.1644
  126OSM    O1113354   3.022   1.182   2.244  0.2635  0.0399  0.6510
  126OSM    O1213355   3.117   1.333   2.073 -0.2564 -0.2542 -0.6041
  126OSM    C1S13356   2.977   1.260   2.355 -1.0022 -0.4422 -0.0431
  126OSM    H1S13357   2.868   1.244   2.368 -0.9300 -0.5433  0.4512
  126OSM    H1T13358   2.991   1.368   2.329  1.9883 -0.7179  0.0829
  126OSM     NF13359   2.971   1.253   2.602  0.3475  0.0659  0.2225
  126OSM    HNF13360   2.993   1.324   2.669 -0.5782  0.1604  0.4403
  126OSM    C2S13361   3.051   1.223   2.488  0.8077 -0.0666  0.3642
  126OSM    H2S13362   3.063   1.112   2.484  0.1878 -0.1308  0.1044
  126OSM    C3S13363   3.195   1.284   2.485 -0.1904  0.6003  0.0874
  126OSM    H3S13364   3.188   1.393   2.508 -0.3424  0.6229 -0.0579
  126OSM     O313365   3.264   1.272   2.357  0.3172  0.4436 -0.1993
  126OSM    HO313366   3.199   1.237   2.296 -2.5764 -0.6233  3.1200
  126OSM    C4S13367   3.277   1.225   2.593  0.4689 -0.3390 -0.5603
  126OSM    H4S13368   3.267   1.283   2.685 -1.5791 -0.1005 -0.9076
  126OSM    C5S13369   3.355   1.113   2.594 -0.1268 -0.0070  0.3225
  126OSM    H5S13370   3.355   1.056   2.500 -2.7532  2.1528 -1.1462
  126OSM    C6S13371   3.422   1.046   2.712  0.1375  0.1495 -0.4107
  126OSM    H6S13372   3.517   0.994   2.687  0.1949 -0.3508  0.7758
  126OSM    H6T13373   3.366   0.952   2.730 -0.0762  0.3842  0.1634
  126OSM    C7S13374   3.444   1.130   2.838  0.6334 -0.0458 -0.5616
  126OSM    H7S13375   3.349   1.134   2.895  0.4592  1.2311 -0.9081
  126OSM    H7T13376   3.463   1.237   2.813 -1.8940  1.7405  4.0670
  126OSM    C8S13377   3.556   1.064   2.921 -0.1902 -0.0618 -0.0578
  126OSM    H8S13378   3.648   1.083   2.861  0.3719  1.4681  1.2142
  126OSM    H8T13379   3.553   0.954   2.926  1.7082 -0.1644 -0.5806
  126OSM    C9S13380   3.568   1.119   3.065 -0.4977 -0.2453 -0.3664
  126OSM    H9S13381   3.594   1.227   3.054 -0.8819 -0.1971 -0.8070
  126OSM    H9T13382   3.646   1.057   3.115 -1.7728 -1.1080  0.6045
  126OSM   C10S13383   3.450   1.102   3.159  0.4760  0.8145  0.2401
  126OSM   H10S13384   3.425   0.994   3.165 -3.1163  1.2665 -2.8637
  126OSM   H10T13385   3.363   1.161   3.121  0.8743  0.0037 -2.0316
  126OSM   C11S13386   3.487   1.153   3.301 -0.0548  0.4122 -0.2936
  126OSM   H11S13387   3.522   1.259   3.298 -0.8667  0.8037  1.8454
  126OSM   H11T13388   3.570   1.095   3.346  0.8268  2.3191  0.6727
  126OSM   C12S13389   3.374   1.140   3.411 -0.2209  0.0829  0.3260
  126OSM   H12S13390   3.370   1.038   3.455 -1.7332  1.2787  3.2286
  126OSM   H12T13391   3.275   1.148   3.360 -0.3413  1.4065  0.7097
  126OSM   C13S13392   3.376   1.226   3.538  0.0359  0.1856 -0.8373
  126OSM   H13S13393   3.278   1.209   3.587  1.2284 -0.0823  1.5909
  126OSM   H13T13394   3.389   1.332   3.506 -0.5179  0.6755  0.4829
  126OSM   C14S13395   3.484   1.174   3.641  0.6237  0.3569 -0.4525
  126OSM   H14S13396   3.583   1.180   3.592  0.0476 -0.8681 -1.8413
  126OSM   H14T13397   3.453   1.068   3.648 -1.9716  0.6644 -4.2870
  126OSM   C15S13398   3.465   1.246   3.776  0.1253  0.2079 -0.8375
  126OSM   H15S13399   3.477   1.355   3.757 -1.2099  0.5483  0.1356
  126OSM   H15T13400   3.539   1.211   3.850 -1.7301  0.8801  1.4584
  126OSM   C16S13401   3.332   1.238   3.847  0.2445  0.1428 -0.6774
  126OSM   H16S13402   3.307   1.131   3.863 -0.9948  0.3665 -1.0119
  126OSM   H16T13403   3.253   1.264   3.773 -0.8004 -1.5822 -0.2153
  126OSM   C17S13404   3.324   1.324   3.972  0.4716  0.7260  0.0851
  126OSM   H17S13405   3.265   1.414   3.946  2.6027  2.0672 -0.4138
  126OSM   H17T13406   3.425   1.369   3.990  0.3765  0.2022  2.2697
  126OSM   C18S13407   3.258   1.270   4.104 -0.1485  0.1227  0.2593
  126OSM   H18S13408   3.158   1.233   4.072 -1.6316  3.0623  1.1158
  126OSM   H18T13409   3.246   1.353   4.176  0.0807 -0.8025  1.3894
  126OSM   H18U13410   3.324   1.190   4.143  0.4777  0.7054  0.4115
  126OSM    C1F13411   2.855   1.201   2.621  0.7003  0.5220 -0.3910
  126OSM     OF13412   2.822   1.098   2.559 -0.1551 -0.1483  0.1135
  126OSM    C2F13413   2.769   1.272   2.718  0.7390 -0.2467  0.1116
  126OSM    H2F13414   2.668   1.281   2.673  0.3480 -0.0166  0.9998
  126OSM    H2G13415   2.800   1.378   2.726  3.6672 -1.0308  0.0595
  126OSM    C3F13416   2.753   1.191   2.852  0.0347 -0.1340  0.0427
  126OSM    H3F13417   2.732   1.256   2.940 -1.6708  1.4688 -1.4705
  126OSM    H3G13418   2.849   1.141   2.877  0.2730  1.2558  2.1940
  126OSM    C4F13419   2.638   1.089   2.851  0.8278  0.6270  0.8949
  126OSM    H4F13420   2.643   1.021   2.764 -0.6614  1.3370  0.2263
  126OSM    H4G13421   2.546   1.149   2.834 -0.0011 -0.5676  1.0353
  126OSM    C5F13422   2.621   0.993   2.958  0.1071  0.2302 -0.1152
  126OSM    H5F13423   2.714   0.933   2.963 -0.3709 -0.5624 -0.4143
  126OSM    H5G13424   2.548   0.916   2.926 -1.0292 -0.1188  2.9663
  126OSM    C6F13425   2.590   1.061   3.090  0.3483  0.4189  1.2412
  126OSM    H6F13426   2.679   1.105   3.140  2.5157  2.5482 -3.7861
  126OSM    H6G13427   2.543   0.990   3.161 -2.6698 -0.7216 -1.6355
  126OSM    C7F13428   2.471   1.163   3.081  0.1623  0.0237 -0.2652
  126OSM    H7F13429   2.384   1.118   3.029  0.8156 -0.7016 -0.7566
  126OSM    H7G13430   2.498   1.254   3.024 -0.3756  1.0095  1.0017
  126OSM    C8F13431   2.427   1.208   3.219 -0.1567 -0.5662  0.1514
  126OSM    H8F13432   2.417   1.116   3.280 -0.0123 -2.1823 -2.1447
  126OSM    H8G13433   2.330   1.257   3.197  0.1913  2.0258  3.5902
  126OSM    C9F13434   2.536   1.307   3.267 -0.5914  0.1415  0.3762
  126OSM    H9F13435   2.604   1.359   3.198 -1.9506 -0.3954 -1.4347
  126OSM   C10F13436   2.545   1.343   3.397  0.1675 -0.5317  0.0375
  126OSM   H10F13437   2.627   1.407   3.430  0.7968 -0.3173 -1.8268
  126OSM   C11F13438   2.461   1.288   3.505  0.2381  0.3134  0.3538
  126OSM   H11F13439   2.358   1.262   3.475  0.5655 -1.7747  0.9058
  126OSM   H11G13440   2.466   1.363   3.588  0.0690  0.6973  0.0220
  126OSM   C12F13441   2.526   1.166   3.561 -0.5913  0.4301 -0.1162
  126OSM   H12F13442   2.619   1.181   3.619 -0.5038 -1.0765  0.1620
  126OSM   H12G13443   2.565   1.104   3.478  0.0279 -0.1025  0.5563
  126OSM   C13F13444   2.433   1.068   3.633  0.4847 -0.2320 -0.4812
  126OSM   H13F13445   2.481   0.968   3.641  2.7111  0.8599  0.8891
  126OSM   H13G13446   2.336   1.055   3.581  0.4507  1.4359 -0.8854
  126OSM   C14F13447   2.410   1.112   3.777 -0.4665  0.2133  0.7801
  126OSM   H14F13448   2.377   1.218   3.781 -1.1621  0.1944 -2.3026
  126OSM   H14G13449   2.502   1.092   3.836 -0.1681  0.7995  0.5244
  126OSM   C15F13450   2.294   1.039   3.849  0.0899 -0.2500  0.4463
  126OSM   H15F13451   2.289   0.932   3.818 -2.1056  0.2689 -1.3013
  126OSM   H15G13452   2.199   1.084   3.813  0.4570  0.4107  0.3004
  126OSM   C16F13453   2.288   1.039   4.005 -0.1474 -0.0644 -0.4359
  126OSM   H16F13454   2.290   1.144   4.041 -0.0365 -0.3506  0.3996
  126OSM   H16G13455   2.376   0.985   4.047 -1.1009 -0.3595  1.2830
  126OSM   C17F13456   2.159   0.974   4.052 -0.5968 -0.6251 -0.6470
  126OSM   H17F13457   2.146   0.872   4.011  3.0222  0.3081 -4.8751
  126OSM   H17G13458   2.080   1.037   4.006 -1.2554 -0.7324  0.3093
  126OSM   C18F13459   2.139   0.968   4.207 -0.1226 -0.1519  0.4934
  126OSM   H18F13460   2.164   1.064   4.256  2.2674 -1.3241  1.7617
  126OSM   H18G13461   2.226   0.910   4.243  1.7825  2.1189 -0.2016
  126OSM   H18H13462   2.041   0.936   4.249  0.0969  0.7836  1.7461
  127OSM      N13463   0.585   5.624   2.159  0.4535  0.2744 -0.0244
  127OSM    C1513464   0.443   5.573   2.177 -0.9142  0.1269 -0.1625
  127OSM   H15A13465   0.380   5.640   2.234 -0.4588  0.5969 -0.2013
  127OSM   H15B13466   0.440   5.478   2.227  0.1865 -0.2958 -0.8656
  127OSM   H15C13467   0.397   5.563   2.080  1.1603  0.3243 -1.2322
  127OSM    C1413468   0.666   5.510   2.113 -0.3410  0.3335 -0.6372
  127OSM   H14A13469   0.757   5.543   2.067 -1.4306  2.4605 -1.3822
  127OSM   H14B13470   0.609   5.443   2.049  2.2975 -2.5496 -0.2227
  127OSM   H14C13471   0.706   5.454   2.197  1.4568 -0.6502 -2.0884
  127OSM    C1313472   0.584   5.741   2.067  0.4355  0.5945 -0.2994
  127OSM   H13A13473   0.677   5.797   2.068 -1.4220  4.0178 -2.1179
  127OSM   H13B13474   0.497   5.795   2.102  0.1363 -0.6855  1.0164
  127OSM   H13C13475   0.559   5.711   1.967 -1.3434 -0.2810  0.3650
  127OSM    C1213476   0.635   5.668   2.295  0.2797  0.0701 -1.1051
  127OSM   H12A13477   0.562   5.736   2.336  0.9427  0.0177  0.2137
  127OSM   H12B13478   0.730   5.719   2.287  1.2878 -1.2343  1.2416
  127OSM    C1113479   0.645   5.556   2.414  0.6981 -0.0336  0.3725
  127OSM   H11A13480   0.553   5.495   2.403  0.3336  0.5285  0.3005
  127OSM   H11B13481   0.653   5.597   2.517  0.1641 -1.3488  0.9573
  127OSM      P13482   0.763   5.319   2.452  0.2010 -0.0064  0.2677
  127OSM    O1313483   0.647   5.242   2.406  0.5863 -0.4808  0.6967
  127OSM    O1413484   0.899   5.278   2.415 -0.2514  0.0559 -0.0969
  127OSM    O1113485   0.752   5.327   2.612 -0.1948  0.4673 -0.3018
  127OSM    O1213486   0.755   5.468   2.395 -0.0056  0.1835 -0.0265
  127OSM    C1S13487   0.624   5.293   2.671  1.3233  0.9374  0.0512
  127OSM    H1S13488   0.600   5.188   2.641  3.1682  0.0555  1.4902
  127OSM    H1T13489   0.542   5.360   2.639  1.3097 -0.3072 -2.8340
  127OSM     NF13490   0.555   5.211   2.891 -0.3224  0.3633  0.8800
  127OSM    HNF13491   0.475   5.258   2.926 -0.5369 -0.2244  1.1856
  127OSM    C2S13492   0.647   5.302   2.820  0.4932  0.0583  1.0428
  127OSM    H2S13493   0.751   5.268   2.838  0.8477  0.0552 -0.8655
  127OSM    C3S13494   0.642   5.449   2.863 -0.6034 -0.6705  0.4375
  127OSM    H3S13495   0.546   5.499   2.837 -0.2022 -0.3249 -0.4100
  127OSM     O313496   0.752   5.525   2.795 -0.6786  0.0863  0.3069
  127OSM    HO313497   0.775   5.471   2.719  3.0397  1.5744  0.1615
  127OSM    C4S13498   0.650   5.454   3.010 -0.0482 -0.1049 -0.0245
  127OSM    H4S13499   0.554   5.421   3.051 -0.7814  1.8598 -0.0398
  127OSM    C5S13500   0.761   5.489   3.084  0.4913  0.3917 -0.1291
  127OSM    H5S13501   0.851   5.528   3.035  1.9200  0.0686  2.0982
  127OSM    C6S13502   0.777   5.480   3.233  0.4343 -0.0205  0.1477
  127OSM    H6S13503   0.799   5.580   3.275 -0.6855  0.9374 -1.4109
  127OSM    H6T13504   0.857   5.411   3.267  1.2595 -0.3858 -2.3269
  127OSM    C7S13505   0.650   5.425   3.307 -0.2027  0.6173 -0.0150
  127OSM    H7S13506   0.641   5.316   3.289  0.9638  0.7852 -1.8113
  127OSM    H7T13507   0.555   5.477   3.281  0.1081  1.6093  0.7663
  127OSM    C8S13508   0.654   5.448   3.459  0.2852  0.5924  0.0169
  127OSM    H8S13509   0.680   5.555   3.476 -0.9106  0.7958  0.6554
  127OSM    H8T13510   0.746   5.400   3.497 -1.1262 -1.5660  0.8529
  127OSM    C9S13511   0.537   5.393   3.533  0.7764 -0.4174 -0.5070
  127OSM    H9S13512   0.527   5.283   3.540 -2.6733 -0.1297  1.3576
  127OSM    H9T13513   0.440   5.417   3.485 -0.0284 -0.3213  1.0938
  127OSM   C10S13514   0.510   5.451   3.668  0.1620  0.0776  0.1546
  127OSM   H10S13515   0.406   5.422   3.694 -0.9978 -0.2662 -4.0933
  127OSM   H10T13516   0.506   5.562   3.656 -2.3093  0.1647  1.2838
  127OSM   C11S13517   0.627   5.429   3.765  0.4764  0.6288  0.2504
  127OSM   H11S13518   0.716   5.478   3.720  0.1854  1.8596  0.9799
  127OSM   H11T13519   0.651   5.320   3.772  1.6871  0.8174 -0.6817
  127OSM   C12S13520   0.602   5.488   3.902 -0.2015  0.0481 -0.0837
  127OSM   H12S13521   0.496   5.470   3.933 -0.4789 -0.2726 -1.1677
  127OSM   H12T13522   0.609   5.598   3.891  1.4269  0.0052  0.4062
  127OSM   C13S13523   0.710   5.438   4.004  0.0694 -0.1823 -0.2285
  127OSM   H13S13524   0.810   5.464   3.966 -0.1006  0.1509 -0.4482
  127OSM   H13T13525   0.712   5.327   3.998  3.8740 -0.2484  0.1772
  127OSM   C14S13526   0.680   5.505   4.139 -0.2848  0.2077 -0.6220
  127OSM   H14S13527   0.584   5.474   4.185 -0.4197  0.8223 -0.4758
  127OSM   H14T13528   0.659   5.611   4.113 -0.8428  0.8416  2.0684
  127OSM   C15S13529   0.798   5.504   4.235 -0.2201  0.0571  0.1270
  127OSM   H15S13530   0.778   5.556   4.331  0.3444 -0.2947  0.4471
  127OSM   H15T13531   0.883   5.558   4.187  0.1464  0.4516  1.1843
  127OSM   C16S13532   0.845   5.357   4.274 -0.4613 -0.1483 -0.4077
  127OSM   H16S13533   0.946   5.376   4.316  1.2245 -2.2188 -3.1672
  127OSM   H16T13534   0.857   5.303   4.177 -2.7539  0.0669 -0.8793
  127OSM   C17S13535   0.760   5.279   4.375 -0.0349 -0.3524 -0.0396
  127OSM   H17S13536   0.745   5.343   4.465  0.4826 -0.3690  0.0587
  127OSM   H17T13537   0.808   5.185   4.409  0.8043 -0.2288 -0.8296
  127OSM   C18S13538   0.617   5.235   4.341  0.5174  0.1400  0.0203
  127OSM   H18S13539   0.558   5.328   4.332  0.0289 -0.1910 -0.3054
  127OSM   H18T13540   0.569   5.179   4.424 -2.0687 -2.2919 -2.8718
  127OSM   H18U13541   0.612   5.181   4.244  1.3818 -2.6746  1.4342
  127OSM    C1F13542   0.559   5.075   2.891  0.3721 -0.2237  0.2433
  127OSM     OF13543   0.645   5.014   2.824 -0.0454 -0.5996  0.1870
  127OSM    C2F13544   0.451   5.008   2.973 -0.3343 -0.5910  0.8180
  127OSM    H2F13545   0.393   4.946   2.901  0.0025  1.9528 -1.8669
  127OSM    H2G13546   0.381   5.085   3.014  1.4688  1.6474 -0.0864
  127OSM    C3F13547   0.514   4.908   3.072 -0.2680 -0.5590  0.0112
  127OSM    H3F13548   0.572   4.967   3.146 -0.3105 -1.1234  0.5028
  127OSM    H3G13549   0.593   4.839   3.034 -0.5338 -1.2732  0.7214
  127OSM    C4F13550   0.420   4.825   3.151 -0.3928  0.4492 -0.0324
  127OSM    H4F13551   0.480   4.775   3.230 -2.0643  0.8506  1.5637
  127OSM    H4G13552   0.364   4.747   3.095  2.2912 -0.5394 -1.4891
  127OSM    C5F13553   0.314   4.910   3.220 -0.1746 -0.2017 -0.2717
  127OSM    H5F13554   0.228   4.939   3.156 -0.4546 -1.0670 -0.3059
  127OSM    H5G13555   0.365   4.999   3.261 -1.6367 -0.2619  1.8475
  127OSM    C6F13556   0.253   4.826   3.338 -0.0291  0.3592  0.1958
  127OSM    H6F13557   0.203   4.739   3.292 -0.5691  0.4788  0.5520
  127OSM    H6G13558   0.183   4.899   3.385  0.1268  0.7063 -0.1054
  127OSM    C7F13559   0.342   4.782   3.455 -0.1039  0.5049  0.1313
  127OSM    H7F13560   0.394   4.689   3.423  1.7338  2.0501 -1.6624
  127OSM    H7G13561   0.277   4.752   3.540  1.7839  0.2044  1.5402
  127OSM    C8F13562   0.447   4.885   3.501  0.0600 -0.3025 -0.5386
  127OSM    H8F13563   0.520   4.906   3.419  2.0058 -1.1234  0.8975
  127OSM    H8G13564   0.507   4.827   3.575  0.4873 -0.6028 -1.1136
  127OSM    C9F13565   0.405   5.014   3.564 -0.1051  0.1617  0.9327
  127OSM    H9F13566   0.346   5.071   3.490  3.2600  0.3646 -1.8469
  127OSM   C10F13567   0.447   5.073   3.677 -0.0501 -0.8418 -0.5646
  127OSM   H10F13568   0.395   5.169   3.690  1.5473 -0.0466  0.2927
  127OSM   C11F13569   0.524   5.020   3.807  0.7812 -0.3645 -0.4069
  127OSM   H11F13570   0.602   5.095   3.829  0.1858 -0.2389  1.4162
  127OSM   H11G13571   0.587   4.933   3.781  0.1668 -1.2198  0.8613
  127OSM   C12F13572   0.433   4.996   3.931 -0.5482  0.7176 -0.6348
  127OSM   H12F13573   0.498   4.938   4.000 -1.3851 -1.0521 -1.2696
  127OSM   H12G13574   0.350   4.929   3.903 -0.2637  0.7153 -1.4864
  127OSM   C13F13575   0.380   5.116   3.998 -0.8235  0.6237 -0.1488
  127OSM   H13F13576   0.291   5.145   3.938 -3.1249 -0.9908  2.2647
  127OSM   H13G13577   0.457   5.197   3.997 -0.1176 -0.0289 -1.4952
  127OSM   C14F13578   0.336   5.097   4.147 -0.3863 -0.1494  0.0553
  127OSM   H14F13579   0.404   5.144   4.221 -0.7197  0.5548 -0.0744
  127OSM   H14G13580   0.318   4.991   4.176 -0.4563  0.1642  1.1768
  127OSM   C15F13581   0.192   5.150   4.165 -0.3819 -0.2594  0.4042
  127OSM   H15F13582   0.138   5.103   4.080  1.4458 -0.2134 -0.8407
  127OSM   H15G13583   0.195   5.261   4.153  0.4605 -0.2100  1.0215
  127OSM   C16F13584   0.143   5.119   4.299  0.2746 -0.1873  0.1288
  127OSM   H16F13585   0.142   5.009   4.305  0.2486 -0.1348  1.4039
  127OSM   H16G13586   0.037   5.146   4.321  0.2343 -0.8502  0.7509
  127OSM   C17F13587   0.223   5.174   4.410  0.0081 -0.2928 -0.4165
  127OSM   H17F13588   0.321   5.125   4.423  0.0470 -1.0384 -2.9203
  127OSM   H17G13589   0.171   5.152   4.505 -0.6226  0.2654 -0.6210
  127OSM   C18F13590   0.233   5.327   4.410 -0.2214  0.0528  0.0611
  127OSM   H18F13591   0.298   5.358   4.325 -1.8132  2.1082 -0.5055
  127OSM   H18G13592   0.289   5.367   4.497  0.3750  5.3510 -2.3460
  127OSM   H18H13593   0.130   5.368   4.400 -1.8584 -3.7697 -0.7243
  128OSM      N13594   2.732   1.892   2.087 -0.2992  1.0021  0.5306
  128OSM    C1513595   2.795   1.755   2.107  0.2385 -0.9294 -0.5999
  128OSM   H15A13596   2.899   1.758   2.134  0.3705  0.1522 -1.1871
  128OSM   H15B13597   2.795   1.718   2.006  0.6033  0.2573 -1.0463
  128OSM   H15C13598   2.743   1.682   2.169  0.8704 -1.7213 -0.9778
  128OSM    C1413599   2.814   1.967   1.979  1.5689 -0.0508 -0.7004
  128OSM   H14A13600   2.805   1.924   1.881  0.4033 -0.4291 -0.4396
  128OSM   H14B13601   2.919   1.962   2.006  1.2127  1.3340  1.1542
  128OSM   H14C13602   2.785   2.071   1.973  0.0277 -0.4769 -0.9654
  128OSM    C1313603   2.598   1.863   2.031  0.1975 -0.2300  0.4172
  128OSM   H13A13604   2.532   1.943   2.059 -2.2307 -2.1494  0.5303
  128OSM   H13B13605   2.560   1.770   2.071 -0.3623  0.1739  0.8374
  128OSM   H13C13606   2.585   1.859   1.923 -1.5503  0.5849  0.5647
  128OSM    C1213607   2.725   1.960   2.219  0.1676  0.3948  0.1968
  128OSM   H12A13608   2.822   1.953   2.266  1.1883 -2.5303 -2.0692
  128OSM   H12B13609   2.673   1.894   2.287  2.8730 -2.6078 -0.4143
  128OSM    C1113610   2.673   2.098   2.220  0.0844 -0.3742  0.4099
  128OSM   H11A13611   2.728   2.153   2.141 -1.4508 -0.0206 -0.4510
  128OSM   H11B13612   2.684   2.158   2.313 -0.2215  0.9913 -0.4226
  128OSM      P13613   2.416   2.091   2.295 -0.4062  0.3629  0.1247
  128OSM    O1313614   2.287   2.090   2.224  0.1877  0.2496  0.1902
  128OSM    O1413615   2.442   1.980   2.384  0.2153  0.5353  0.0581
  128OSM    O1113616   2.450   2.225   2.367 -0.5909 -0.9132  0.6441
  128OSM    O1213617   2.531   2.100   2.178 -0.2826 -0.1680  0.4190
  128OSM    C1S13618   2.366   2.288   2.457 -0.0380 -0.5707 -0.1165
  128OSM    H1S13619   2.270   2.236   2.470  0.5054 -1.3524  0.9278
  128OSM    H1T13620   2.347   2.394   2.430  2.9519 -0.1710 -1.0263
  128OSM     NF13621   2.345   2.354   2.695  0.2566  0.1079  0.2780
  128OSM    HNF13622   2.327   2.449   2.720 -1.3893  0.0237 -0.4485
  128OSM    C2S13623   2.436   2.308   2.596  0.0179  0.5986 -0.4570
  128OSM    H2S13624   2.474   2.206   2.620 -0.5066  0.4185 -0.3892
  128OSM    C3S13625   2.559   2.401   2.574 -0.0522  0.3094 -0.1840
  128OSM    H3S13626   2.512   2.497   2.541  0.3892  0.0364 -1.6442
  128OSM     O313627   2.644   2.350   2.467 -0.5159 -0.0330  0.5999
  128OSM    HO313628   2.587   2.296   2.411  0.2851 -0.5502  0.2750
  128OSM    C4S13629   2.628   2.424   2.712  0.3031  0.7243  0.2151
  128OSM    H4S13630   2.594   2.518   2.757 -1.3392  0.2630 -0.0045
  128OSM    C5S13631   2.716   2.337   2.763  0.3620 -0.1602  0.4741
  128OSM    H5S13632   2.752   2.247   2.711  1.8440  0.8896 -0.3891
  128OSM    C6S13633   2.785   2.346   2.895 -0.3650  0.3430  0.0305
  128OSM    H6S13634   2.881   2.403   2.894 -0.0904 -0.0978  0.6572
  128OSM    H6T13635   2.816   2.247   2.935  0.9609  0.0562 -1.5822
  128OSM    C7S13636   2.704   2.408   3.011  0.2181 -0.0185  0.1239
  128OSM    H7S13637   2.607   2.354   3.016  0.1519 -0.0184 -1.0070
  128OSM    H7T13638   2.681   2.517   3.001 -0.3519 -0.2647 -1.5245
  128OSM    C8S13639   2.770   2.410   3.156 -0.6734 -0.3090  0.4788
  128OSM    H8S13640   2.864   2.468   3.165 -0.6549 -0.3511  0.5691
  128OSM    H8T13641   2.791   2.305   3.187  0.8364  0.0356  0.6837
  128OSM    C9S13642   2.669   2.455   3.265  0.3455 -0.5242  0.2630
  128OSM    H9S13643   2.580   2.389   3.272 -0.9643  1.0269 -0.8841
  128OSM    H9T13644   2.638   2.558   3.238 -0.0087 -0.9281 -0.9266
  128OSM   C10S13645   2.724   2.451   3.412 -0.1088  0.0554 -0.1049
  128OSM   H10S13646   2.809   2.519   3.432 -0.2237 -0.4214  2.3518
  128OSM   H10T13647   2.764   2.348   3.427 -0.8155 -0.2013  0.0808
  128OSM   C11S13648   2.613   2.435   3.522 -0.3061 -0.8222 -1.6373
  128OSM   H11S13649   2.656   2.397   3.617  2.6221  2.6004 -1.3838
  128OSM   H11T13650   2.542   2.357   3.488 -0.1583 -1.1939 -1.1081
  128OSM   C12S13651   2.531   2.566   3.550 -0.1060  0.3492  0.6615
  128OSM   H12S13652   2.451   2.542   3.622 -2.0714  0.1262 -1.4694
  128OSM   H12T13653   2.468   2.593   3.462 -0.2762  1.5648  1.1383
  128OSM   C13S13654   2.607   2.690   3.595 -0.0845  0.5032  0.1335
  128OSM   H13S13655   2.543   2.778   3.620 -1.0658 -0.2057  0.1538
  128OSM   H13T13656   2.682   2.718   3.518  1.5380 -0.3284  1.3499
  128OSM   C14S13657   2.687   2.660   3.724  0.6475  0.6572 -0.5903
  128OSM   H14S13658   2.777   2.605   3.689  0.3600  0.5423 -1.1626
  128OSM   H14T13659   2.617   2.594   3.780  1.1612 -1.6405 -2.4627
  128OSM   C15S13660   2.721   2.788   3.796 -0.6793  0.3957  0.3684
  128OSM   H15S13661   2.621   2.831   3.819 -1.0958 -0.3915  0.0443
  128OSM   H15T13662   2.768   2.866   3.733 -0.9524  1.2145  1.1457
  128OSM   C16S13663   2.806   2.768   3.922  0.2162  0.6378 -0.0675
  128OSM   H16S13664   2.893   2.706   3.891 -0.4160 -0.3783  0.1466
  128OSM   H16T13665   2.753   2.695   3.987  0.7772  0.2080 -0.0844
  128OSM   C17S13666   2.834   2.896   3.996 -0.2025 -0.1902 -0.5561
  128OSM   H17S13667   2.742   2.950   4.025 -1.5849 -2.5094 -0.3725
  128OSM   H17T13668   2.889   2.956   3.920 -0.9704  0.6852 -0.4338
  128OSM   C18S13669   2.920   2.887   4.129  0.5377  0.1774  0.6381
  128OSM   H18S13670   2.859   2.821   4.194 -0.3466  0.4412  0.0967
  128OSM   H18T13671   2.931   2.990   4.171  1.0250  0.2124  0.4329
  128OSM   H18U13672   3.020   2.844   4.106  0.8224  0.7632  0.7509
  128OSM    C1F13673   2.251   2.273   2.743  0.2595  0.0066  0.3206
  128OSM     OF13674   2.252   2.152   2.710  0.2273 -0.4474 -0.9099
  128OSM    C2F13675   2.142   2.332   2.821  0.4307 -0.2824  0.0102
  128OSM    H2F13676   2.046   2.296   2.779 -0.1674  2.5643 -1.3021
  128OSM    H2G13677   2.144   2.443   2.820 -0.3895 -0.2482  0.7246
  128OSM    C3F13678   2.154   2.280   2.967 -0.5282  0.2150 -0.3809
  128OSM    H3F13679   2.171   2.171   2.964 -0.0192  0.2250  1.1804
  128OSM    H3G13680   2.060   2.303   3.021 -0.1133 -3.4984  2.2698
  128OSM    C4F13681   2.273   2.343   3.047  0.6492 -0.2660  0.2292
  128OSM    H4F13682   2.343   2.382   2.970  0.5898  1.2404  0.8994
  128OSM    H4G13683   2.330   2.279   3.118 -2.4260 -2.2872  1.0832
  128OSM    C5F13684   2.221   2.465   3.133 -0.1120  1.0538  0.1744
  128OSM    H5F13685   2.145   2.523   3.077 -0.6523  1.3552  1.1951
  128OSM    H5G13686   2.301   2.536   3.163  0.5285  0.4654 -0.1157
  128OSM    C6F13687   2.147   2.425   3.259  0.1385 -0.3358 -0.2197
  128OSM    H6F13688   2.047   2.384   3.234  0.2948 -0.0350 -1.4001
  128OSM    H6G13689   2.120   2.524   3.303 -0.7246 -0.3196 -0.7735
  128OSM    C7F13690   2.232   2.333   3.348  0.2720  0.0856  0.0387
  128OSM    H7F13691   2.330   2.380   3.370  0.1528  0.6261 -0.5708
  128OSM    H7G13692   2.259   2.235   3.304  0.2808 -0.6357  1.5551
  128OSM    C8F13693   2.156   2.298   3.479 -0.3506  0.3503  0.4325
  128OSM    H8F13694   2.217   2.218   3.525  2.0510  1.3198 -0.9093
  128OSM    H8G13695   2.057   2.258   3.447 -0.4732  0.2630  0.9088
  128OSM    C9F13696   2.140   2.414   3.577  0.0273  0.3288  0.7144
  128OSM    H9F13697   2.079   2.497   3.540 -1.1430 -1.0979 -0.7239
  128OSM   C10F13698   2.197   2.425   3.701 -0.2271  0.2810  0.5920
  128OSM   H10F13699   2.177   2.513   3.763 -1.5746  1.1285 -0.9554
  128OSM   C11F13700   2.290   2.327   3.759 -0.4458  0.5688  0.2391
  128OSM   H11F13701   2.374   2.386   3.802  1.1876 -1.6508  0.2711
  128OSM   H11G13702   2.347   2.268   3.684  0.8059  1.7190  0.2392
  128OSM   C12F13703   2.227   2.224   3.851  0.2518  0.1439 -0.1893
  128OSM   H12F13704   2.292   2.134   3.859  1.1627  0.9251  1.8926
  128OSM   H12G13705   2.131   2.199   3.802  0.6708  0.2670 -1.0871
  128OSM   C13F13706   2.180   2.278   3.996 -0.1818 -0.9561 -0.1358
  128OSM   H13F13707   2.077   2.244   4.023 -0.9851  1.7189  0.4615
  128OSM   H13G13708   2.171   2.388   3.990 -2.2128 -1.0970 -0.5053
  128OSM   C14F13709   2.278   2.239   4.105  0.3288 -0.0897  0.3655
  128OSM   H14F13710   2.259   2.317   4.182 -0.3558  0.1977 -0.0826
  128OSM   H14G13711   2.381   2.248   4.065  0.4984 -1.3445  0.4767
  128OSM   C15F13712   2.260   2.101   4.154  0.3824 -0.2864  0.4871
  128OSM   H15F13713   2.259   2.032   4.067 -2.2333 -1.6671  1.4937
  128OSM   H15G13714   2.163   2.080   4.205 -0.7244 -0.2084 -1.4669
  128OSM   C16F13715   2.349   2.072   4.272  0.4894 -0.1566 -0.2612
  128OSM   H16F13716   2.370   2.167   4.324 -2.8831  0.8756 -0.5565
  128OSM   H16G13717   2.444   2.024   4.240  1.0437  0.8813 -0.1985
  128OSM   C17F13718   2.291   1.972   4.366  0.1446  0.0589 -0.6288
  128OSM   H17F13719   2.254   1.883   4.311 -0.2768  0.0455 -0.3279
  128OSM   H17G13720   2.204   2.025   4.411  0.4969  0.9904 -1.0376
  128OSM   C18F13721   2.395   1.924   4.471  0.3663 -0.5941 -0.0039
  128OSM   H18F13722   2.349   1.850   4.540  0.0284 -0.2556  0.1425
  128OSM   H18G13723   2.430   2.010   4.531  2.1548  0.7401 -2.7332
  128OSM   H18H13724   2.482   1.884   4.414 -0.2093 -2.1371  0.1538
  129OSM      N13725   3.526   0.105   1.838 -0.3671  0.0165 -0.2742
  129OSM    C1513726   3.602   0.132   1.968 -0.3615 -0.3077 -0.2923
  129OSM   H15A13727   3.685   0.063   1.970  0.9308  1.0536 -2.6572
  129OSM   H15B13728   3.537   0.130   2.054  0.8475  0.4148  0.6877
  129OSM   H15C13729   3.646   0.231   1.969 -1.9842  0.5141  2.6320
  129OSM    C1413730   3.609   0.131   1.721 -0.6416  0.3203 -0.0887
  129OSM   H14A13731   3.697   0.068   1.714 -0.2003  0.8212  0.8236
  129OSM   H14B13732   3.640   0.234   1.730 -3.3664  1.0672  1.8581
  129OSM   H14C13733   3.548   0.114   1.634  1.0363 -3.3315 -0.7568
  129OSM    C1313734   3.479  -0.038   1.834  0.9809 -0.3303  0.3604
  129OSM   H13A13735   3.413  -0.051   1.750  1.9109  0.9336 -0.5943
  129OSM   H13B13736   3.410  -0.062   1.914 -1.3995 -2.2007 -2.0766
  129OSM   H13C13737   3.561  -0.108   1.828 -0.0331 -1.6968  1.5887
  129OSM    C1213738   3.400   0.200   1.847  0.5021  0.0986 -0.1179
  129OSM   H12A13739   3.336   0.192   1.761  0.1277  1.5605 -0.0099
  129OSM   H12B13740   3.428   0.304   1.848 -2.2217  0.9180  1.5333
  129OSM    C1113741   3.297   0.191   1.960  0.2700  0.0424  0.0455
  129OSM   H11A13742   3.231   0.280   1.956 -2.7153 -1.9337  1.5190
  129OSM   H11B13743   3.361   0.195   2.051  2.4981  1.1857 -1.4647
  129OSM      P13744   3.072   0.051   2.008 -0.0183 -0.0009  0.2011
  129OSM    O1313745   2.980   0.128   1.919  0.5299 -0.0661 -0.5767
  129OSM    O1413746   3.046  -0.088   2.024 -0.0576  0.2397 -0.5423
  129OSM    O1113747   3.070   0.133   2.146 -0.5292 -0.6678 -0.5378
  129OSM    O1213748   3.220   0.069   1.950 -0.0314 -0.0058 -0.4248
  129OSM    C1S13749   3.165   0.110   2.248  0.2657  0.0510  0.5454
  129OSM    H1S13750   3.248   0.184   2.242 -0.5223  0.8274 -3.9880
  129OSM    H1T13751   3.216   0.012   2.231 -1.4353 -0.4589 -2.1940
  129OSM     NF13752   3.197   0.150   2.497  0.1819  0.6035  0.1088
  129OSM    HNF13753   3.206   0.073   2.559 -0.0965  1.2394  0.9589
  129OSM    C2S13754   3.102   0.126   2.392  0.6698 -0.8049 -0.3057
  129OSM    H2S13755   3.060   0.229   2.385  2.8663  0.1823  0.4349
  129OSM    C3S13756   2.990   0.026   2.412 -0.0596 -0.1711  0.1159
  129OSM    H3S13757   3.041  -0.071   2.430  1.2487  0.7998  1.9937
  129OSM     O313758   2.892   0.021   2.305  0.1804  0.0881  0.1582
  129OSM    HO313759   2.944   0.041   2.227 -0.7939 -2.5475 -1.2910
  129OSM    C4S13760   2.922   0.068   2.540  0.3750 -0.2984 -0.3726
  129OSM    H4S13761   2.874   0.167   2.536  0.6820 -0.1605 -0.7434
  129OSM    C5S13762   2.922  -0.013   2.652 -0.1001 -0.6543  0.1126
  129OSM    H5S13763   2.967  -0.113   2.648 -0.9987 -1.0453 -1.0426
  129OSM    C6S13764   2.860   0.034   2.786  0.0131 -0.0971 -0.3568
  129OSM    H6S13765   2.775  -0.034   2.808  0.8141 -0.5728  1.4416
  129OSM    H6T13766   2.813   0.134   2.772 -1.8340 -0.6469  1.4890
  129OSM    C7S13767   2.949   0.024   2.913 -0.3218  0.3882  0.2455
  129OSM    H7S13768   2.911   0.099   2.986  1.1916  1.0093  0.4413
  129OSM    H7T13769   3.053   0.055   2.890  0.0741 -1.3430 -0.4471
  129OSM    C8S13770   2.972  -0.122   2.955  0.3150 -0.0955 -0.3640
  129OSM    H8S13771   3.022  -0.173   2.870 -0.2055 -0.5482 -0.4043
  129OSM    H8T13772   2.870  -0.161   2.976 -0.0134  0.7885 -0.2473
  129OSM    C9S13773   3.055  -0.145   3.081 -0.4408  0.4328  0.8726
  129OSM    H9S13774   3.162  -0.117   3.079  0.1553 -1.7072  1.0696
  129OSM    H9T13775   3.052  -0.253   3.103 -0.9219 -0.1634 -1.7517
  129OSM   C10S13776   2.998  -0.069   3.203 -0.2397 -0.1297  0.3931
  129OSM   H10S13777   2.889  -0.091   3.208 -0.6249  1.6426  0.3283
  129OSM   H10T13778   3.012   0.036   3.169 -1.3850  0.1326  0.6854
  129OSM   C11S13779   3.059  -0.091   3.334 -0.1940 -0.8378  0.1746
  129OSM   H11S13780   3.170  -0.087   3.325 -0.3414  0.8445 -1.4429
  129OSM   H11T13781   3.055  -0.199   3.357 -0.0973 -0.4307  2.3003
  129OSM   C12S13782   3.009   0.001   3.440 -0.2525 -0.0790 -0.1647
  129OSM   H12S13783   2.899   0.012   3.443 -0.4565 -1.9919  1.1600
  129OSM   H12T13784   3.042   0.104   3.416 -1.0855  0.1755 -0.2435
  129OSM   C13S13785   3.077  -0.017   3.578 -0.0795 -0.3881 -0.1097
  129OSM   H13S13786   3.187  -0.024   3.567  0.1474  1.8170  0.2615
  129OSM   H13T13787   3.053  -0.116   3.622  2.5544 -1.0240  0.0638
  129OSM   C14S13788   3.037   0.103   3.665 -0.4203  0.5763  0.9161
  129OSM   H14S13789   2.927   0.113   3.651 -0.1500  0.8264 -1.5348
  129OSM   H14T13790   3.070   0.198   3.619 -1.1729  0.0846 -0.7317
  129OSM   C15S13791   3.070   0.087   3.804 -0.5164 -0.4646 -0.3699
  129OSM   H15S13792   3.067   0.184   3.859  0.6494 -0.6017 -0.0296
  129OSM   H15T13793   3.178   0.062   3.809 -0.0553  1.2827 -0.9090
  129OSM   C16S13794   2.996  -0.031   3.876  0.1923 -0.1417  0.8196
  129OSM   H16S13795   3.035  -0.128   3.838 -0.0277  0.5340 -1.2046
  129OSM   H16T13796   2.886  -0.023   3.871  0.2642  0.5615  0.2088
  129OSM   C17S13797   3.048  -0.034   4.025  0.3084  0.0193 -0.2557
  129OSM   H17S13798   3.028   0.067   4.066  0.0224  0.0511 -0.4685
  129OSM   H17T13799   3.158  -0.043   4.016  0.3009 -0.3421  0.0125
  129OSM   C18S13800   2.980  -0.129   4.121  0.4106 -0.1328  0.0565
  129OSM   H18S13801   3.008  -0.110   4.227  0.2982  1.6509 -0.1959
  129OSM   H18T13802   3.001  -0.235   4.099  1.3099 -0.1996  1.1660
  129OSM   H18U13803   2.870  -0.113   4.123  0.5081  0.7309  2.9102
  129OSM    C1F13804   3.282   0.257   2.510  0.2340  0.4228  0.9493
  129OSM     OF13805   3.277   0.345   2.424  0.6639 -0.0585  0.1569
  129OSM    C2F13806   3.382   0.261   2.623 -0.9592  0.5297  1.0514
  129OSM    H2F13807   3.480   0.301   2.591 -1.6593  2.2988  1.0011
  129OSM    H2G13808   3.400   0.157   2.657 -0.4284  0.9139  1.9887
  129OSM    C3F13809   3.336   0.344   2.742 -0.7110  0.4285 -0.0906
  129OSM    H3F13810   3.294   0.435   2.695  1.0009  0.2987 -2.0216
  129OSM    H3G13811   3.429   0.375   2.794 -0.3387  1.1679 -1.1692
  129OSM    C4F13812   3.236   0.281   2.834  0.0737  0.3823 -0.3206
  129OSM    H4F13813   3.278   0.182   2.862 -0.9086 -0.2878 -1.1458
  129OSM    H4G13814   3.132   0.261   2.802 -0.7266 -1.7451  3.0681
  129OSM    C5F13815   3.213   0.355   2.969 -0.0767  0.2456 -0.3265
  129OSM    H5F13816   3.159   0.280   3.030  0.0416 -0.7356 -1.3846
  129OSM    H5G13817   3.140   0.436   2.949  0.3026 -0.1020 -3.8954
  129OSM    C6F13818   3.337   0.397   3.044  0.0922 -0.5546 -0.0584
  129OSM    H6F13819   3.422   0.415   2.976 -0.1548 -0.4339 -0.3375
  129OSM    H6G13820   3.370   0.307   3.099 -1.9586 -1.2946  0.0691
  129OSM    C7F13821   3.308   0.516   3.129 -0.6213 -1.0478 -0.1102
  129OSM    H7F13822   3.290   0.598   3.056  1.1424 -0.8116 -0.3395
  129OSM    H7G13823   3.394   0.547   3.193 -0.4191 -1.1199 -0.3456
  129OSM    C8F13824   3.185   0.498   3.220  0.7543  0.4786 -0.4150
  129OSM    H8F13825   3.096   0.482   3.156  1.4661  0.1717 -1.3495
  129OSM    H8G13826   3.166   0.590   3.279 -0.0188 -0.8248  1.4587
  129OSM    C9F13827   3.195   0.382   3.318  0.0975  0.1559  0.3320
  129OSM    H9F13828   3.179   0.281   3.277  0.0108 -1.3160  3.7277
  129OSM   C10F13829   3.210   0.385   3.453  0.3523  0.2704 -0.7445
  129OSM   H10F13830   3.245   0.297   3.508  0.8724  0.6964 -0.3863
  129OSM   C11F13831   3.231   0.511   3.536  0.5415  0.6410 -0.8383
  129OSM   H11F13832   3.230   0.603   3.472  0.8565  1.9861  1.0131
  129OSM   H11G13833   3.333   0.518   3.579 -0.9055  0.4087  3.0212
  129OSM   C12F13834   3.141   0.529   3.652 -0.7081  0.3230 -0.4249
  129OSM   H12F13835   3.039   0.500   3.620 -0.7858 -0.7519  0.6784
  129OSM   H12G13836   3.142   0.633   3.689  0.4649  0.0790  0.2670
  129OSM   C13F13837   3.176   0.449   3.777 -0.6258  0.2687 -0.0689
  129OSM   H13F13838   3.264   0.500   3.822 -0.9003  0.2997  0.4391
  129OSM   H13G13839   3.203   0.346   3.745  0.8959  0.4513  0.5081
  129OSM   C14F13840   3.063   0.442   3.872  0.4838  0.9138 -0.1275
  129OSM   H14F13841   2.978   0.380   3.833  1.9541  0.2566 -2.4620
  129OSM   H14G13842   3.021   0.544   3.875  0.2503  0.8097  1.3722
  129OSM   C15F13843   3.107   0.410   4.019  0.3061 -0.1691  0.2348
  129OSM   H15F13844   3.208   0.446   4.050  1.2195 -3.0052  0.8351
  129OSM   H15G13845   3.123   0.303   4.041  1.8657  0.2602  1.3781
  129OSM   C16F13846   3.004   0.453   4.127  0.1670  0.3443 -0.1438
  129OSM   H16F13847   2.919   0.384   4.110  1.2512 -0.9623 -0.4261
  129OSM   H16G13848   2.974   0.555   4.093  0.2765  0.6146  0.5572
  129OSM   C17F13849   3.058   0.444   4.271  0.4695  1.1267  0.7823
  129OSM   H17F13850   3.162   0.482   4.263  0.0272  2.0045 -1.7759
  129OSM   H17G13851   3.068   0.337   4.298  2.2333  1.5819  2.0717
  129OSM   C18F13852   2.993   0.522   4.384  0.1192 -0.1027  0.2612
  129OSM   H18F13853   2.882   0.508   4.380 -0.3656  3.1701 -1.3141
  129OSM   H18G13854   3.005   0.631   4.370 -0.5294  0.0700  0.9905
  129OSM   H18H13855   3.032   0.495   4.484 -0.2586 -0.4323  0.3250
  130OSM      N13856   3.701   6.088   1.741 -0.2837  0.3975  0.1397
  130OSM    C1513857   3.579   6.170   1.736  0.2598 -0.0227 -0.4020
  130OSM   H15A13858   3.488   6.112   1.729  0.7004 -0.6794 -0.7584
  130OSM   H15B13859   3.585   6.246   1.659  3.1511  1.0986  0.7930
  130OSM   H15C13860   3.576   6.228   1.827  0.6398  0.0407 -0.4292
  130OSM    C1413861   3.707   5.995   1.866 -0.0616  0.7145  0.0810
  130OSM   H14A13862   3.811   5.974   1.888 -0.3532 -0.3538  0.5182
  130OSM   H14B13863   3.644   5.909   1.851  2.3553 -0.9591 -1.1134
  130OSM   H14C13864   3.669   6.050   1.951  1.7037 -2.2985  3.0963
  130OSM    C1313865   3.728   6.006   1.615 -0.3986 -0.4837  0.1381
  130OSM   H13A13866   3.665   5.918   1.610 -0.2049 -0.7083  1.2153
  130OSM   H13B13867   3.826   5.960   1.614  0.3586  1.0789 -0.9789
  130OSM   H13C13868   3.714   6.072   1.531  1.0987  0.1954  0.3795
  130OSM    C1213869   3.816   6.189   1.768  0.3856 -0.6697 -0.1144
  130OSM   H12A13870   3.807   6.258   1.685  1.4788 -0.6645 -0.2463
  130OSM   H12B13871   3.910   6.143   1.743  0.2359 -1.4772  0.7169
  130OSM    C1113872   3.823   6.272   1.902 -0.6361 -0.6268  0.2243
  130OSM   H11A13873   3.725   6.325   1.899  0.6241  2.0487  2.3984
  130OSM   H11B13874   3.901   6.351   1.898 -0.9373 -0.3278  0.2522
  130OSM      P13875   3.971   6.112   2.049  0.2001  0.1992  0.2054
  130OSM    O1313876   3.945   5.968   2.058 -0.1993  0.0533  0.2728
  130OSM    O1413877   4.068   6.154   1.950 -0.4609  0.2919  0.1903
  130OSM    O1113878   4.011   6.163   2.190  0.6383 -0.8347  0.3306
  130OSM    O1213879   3.842   6.196   2.024 -0.3081  0.0460  0.3497
  130OSM    C1S13880   3.988   6.301   2.225  0.4278 -0.0007 -0.1795
  130OSM    H1S13881   3.880   6.324   2.223  0.8980  2.4789 -1.7856
  130OSM    H1T13882   4.016   6.368   2.140 -4.2207 -0.0974 -2.0719
  130OSM     NF13883   4.020   6.495   2.384 -0.2968  0.3716  0.3955
  130OSM    HNF13884   4.078   6.575   2.369  0.4509 -0.2251 -0.0175
  130OSM    C2S13885   4.065   6.358   2.350 -0.5734 -0.0895 -0.1828
  130OSM    H2S13886   4.045   6.293   2.438 -3.3475  0.5406 -0.2642
  130OSM    C3S13887   4.218   6.353   2.318  0.0872  0.6710  0.6057
  130OSM    H3S13888   4.244   6.407   2.224  1.9098 -1.7335 -0.3764
  130OSM     O313889   4.262   6.218   2.289  0.0802  0.2313 -0.0687
  130OSM    HO313890   4.189   6.168   2.252  0.4735  0.4612 -1.1859
  130OSM    C4S13891   4.290   6.418   2.428  0.5413 -0.5497 -0.7040
  130OSM    H4S13892   4.287   6.528   2.421 -0.7422 -0.5833 -1.0060
  130OSM    C5S13893   4.351   6.364   2.530 -0.4972 -0.4969 -0.4188
  130OSM    H5S13894   4.351   6.257   2.554  0.6354  0.1895  3.3668
  130OSM    C6S13895   4.417   6.437   2.650 -0.1602 -0.2584  0.7029
  130OSM    H6S13896   4.446   6.543   2.635  0.0421 -0.5790 -1.3800
  130OSM    H6T13897   4.510   6.384   2.678 -0.6614 -2.0587 -0.8784
  130OSM    C7S13898   4.319   6.438   2.773 -0.6798  0.1955  0.3127
  130OSM    H7S13899   4.286   6.334   2.796 -3.2224  1.1296  1.3284
  130OSM    H7T13900   4.227   6.494   2.744 -1.0468 -1.8832 -3.0495
  130OSM    C8S13901   4.390   6.494   2.890 -0.1831  0.6123 -0.4702
  130OSM    H8S13902   4.421   6.600   2.879  0.1241  0.3750 -2.3006
  130OSM    H8T13903   4.484   6.436   2.894 -1.2302 -1.2540 -1.3045
  130OSM    C9S13904   4.300   6.483   3.016 -0.2408  0.2859 -0.2794
  130OSM    H9S13905   4.285   6.373   3.023 -0.0368  0.3005  0.4746
  130OSM    H9T13906   4.201   6.531   3.003 -0.7672 -0.6947 -0.0409
  130OSM   C10S13907   4.384   6.515   3.149  0.4771  0.0863  0.1145
  130OSM   H10S13908   4.402   6.625   3.147  2.1532 -0.1103  1.9336
  130OSM   H10T13909   4.481   6.466   3.126  0.0775 -0.1281 -1.1753
  130OSM   C11S13910   4.304   6.462   3.271  0.3884  0.1676  0.1321
  130OSM   H11S13911   4.269   6.357   3.258 -3.6467  1.1778  1.2826
  130OSM   H11T13912   4.210   6.520   3.285  1.8323  2.2276  1.9610
  130OSM   C12S13913   4.395   6.466   3.392 -0.2950  0.3120 -0.2754
  130OSM   H12S13914   4.458   6.558   3.397  1.9169 -1.1692  0.4803
  130OSM   H12T13915   4.470   6.384   3.386 -1.4477 -0.8802  1.1730
  130OSM   C13S13916   4.307   6.444   3.513  0.7370 -0.0672 -0.6809
  130OSM   H13S13917   4.241   6.355   3.500 -0.1211  0.7454 -2.1519
  130OSM   H13T13918   4.252   6.540   3.523 -0.2025 -0.5976 -0.6483
  130OSM   C14S13919   4.369   6.427   3.656  0.4622 -0.2810  0.2630
  130OSM   H14S13920   4.439   6.511   3.673 -0.1617  0.5421 -1.0560
  130OSM   H14T13921   4.434   6.337   3.660  0.9861  0.0058 -1.1232
  130OSM   C15S13922   4.276   6.436   3.777 -0.1782 -0.2154  0.4080
  130OSM   H15S13923   4.230   6.336   3.788  2.6325 -1.4480  1.8602
  130OSM   H15T13924   4.203   6.517   3.757  0.0543  0.0386  0.5774
  130OSM   C16S13925   4.358   6.473   3.899  0.0373  0.1294  0.1473
  130OSM   H16S13926   4.400   6.575   3.890  0.1845  0.2673  1.9575
  130OSM   H16T13927   4.447   6.407   3.905  0.5012  0.6163 -1.0355
  130OSM   C17S13928   4.269   6.471   4.022 -0.4808  0.3113 -0.6179
  130OSM   H17S13929   4.224   6.369   4.030 -1.5301  0.9034  2.0478
  130OSM   H17T13930   4.187   6.543   3.998 -0.6349 -0.2579 -1.9064
  130OSM   C18S13931   4.324   6.506   4.162 -0.0516 -0.5859 -0.1349
  130OSM   H18S13932   4.245   6.498   4.240  1.2474 -0.4782  1.2435
  130OSM   H18T13933   4.341   6.616   4.162  3.4736 -0.9909  0.5263
  130OSM   H18U13934   4.410   6.446   4.199  1.7794  0.2739 -2.7035
  130OSM    C1F13935   3.900   6.501   2.437  0.1559 -1.2495 -0.8580
  130OSM     OF13936   3.828   6.404   2.452 -0.3344  0.5017  0.3560
  130OSM    C2F13937   3.860   6.640   2.486 -0.7373  0.4248 -0.2294
  130OSM    H2F13938   3.823   6.687   2.392  1.5220  0.4190 -1.1967
  130OSM    H2G13939   3.947   6.700   2.519 -1.2520  0.3212  1.3791
  130OSM    C3F13940   3.750   6.651   2.595  0.1580 -0.2339 -0.6529
  130OSM    H3F13941   3.662   6.589   2.569  1.0928 -1.4513 -1.0343
  130OSM    H3G13942   3.699   6.750   2.589 -0.1145 -0.3994 -1.0850
  130OSM    C4F13943   3.795   6.635   2.736 -0.7058  0.0553 -0.1756
  130OSM    H4F13944   3.725   6.690   2.802  2.5318  2.6712  1.3733
  130OSM    H4G13945   3.887   6.695   2.752 -0.2071 -0.1061 -2.1384
  130OSM    C5F13946   3.807   6.491   2.782  0.0839 -0.8131  0.0035
  130OSM    H5F13947   3.883   6.431   2.728  1.4483  0.0726  0.8612
  130OSM    H5G13948   3.707   6.444   2.785 -0.8798  1.1117 -0.1852
  130OSM    C6F13949   3.841   6.486   2.933  0.1132  0.1881 -0.3018
  130OSM    H6F13950   3.768   6.546   2.991  0.6914  1.2729 -0.6530
  130OSM    H6G13951   3.935   6.546   2.940 -0.3926  0.9486  0.1953
  130OSM    C7F13952   3.865   6.348   2.988  0.2630  0.5677 -0.3166
  130OSM    H7F13953   3.942   6.296   2.927  0.1197  1.5377 -1.3511
  130OSM    H7G13954   3.773   6.285   2.991 -0.8337  2.1307  0.9884
  130OSM    C8F13955   3.918   6.353   3.132  0.5482  0.2395  0.5600
  130OSM    H8F13956   3.842   6.408   3.190 -3.2582 -4.0985  0.2398
  130OSM    H8G13957   4.015   6.408   3.133 -0.8243  2.8475 -0.5067
  130OSM    C9F13958   3.942   6.221   3.189  0.2844 -0.7778 -0.4410
  130OSM    H9F13959   3.947   6.138   3.118  2.1757  0.5172 -1.9364
  130OSM   C10F13960   3.953   6.207   3.324  0.7165  0.2009 -0.0277
  130OSM   H10F13961   3.971   6.104   3.361  2.2210  0.8131  1.0472
  130OSM   C11F13962   3.950   6.313   3.428  0.2417  0.1291 -0.1937
  130OSM   H11F13963   3.895   6.403   3.394 -0.2529  0.4005  1.2474
  130OSM   H11G13964   4.052   6.346   3.459  0.4500  2.6265 -3.1111
  130OSM   C12F13965   3.880   6.265   3.553  0.0725 -0.1954 -0.3785
  130OSM   H12F13966   3.893   6.157   3.575  0.7507  0.0881  0.6260
  130OSM   H12G13967   3.769   6.266   3.538  0.2258 -2.6336 -2.3188
  130OSM   C13F13968   3.914   6.348   3.679  0.0348 -0.5248  0.0849
  130OSM   H13F13969   3.876   6.452   3.681  1.8499  0.1835 -0.5056
  130OSM   H13G13970   4.024   6.358   3.688  0.1633 -0.4057 -1.3705
  130OSM   C14F13971   3.858   6.275   3.807 -0.4207 -0.4810  0.6463
  130OSM   H14F13972   3.898   6.172   3.817 -0.6095 -0.5687  0.5178
  130OSM   H14G13973   3.749   6.276   3.786 -0.0333  2.9587 -2.1685
  130OSM   C15F13974   3.894   6.345   3.934 -0.7019 -0.1243 -0.3220
  130OSM   H15F13975   3.842   6.442   3.946  2.3776  1.5979  0.3417
  130OSM   H15G13976   4.004   6.359   3.937 -0.7757  0.7404 -1.1644
  130OSM   C16F13977   3.859   6.265   4.058  0.3164 -0.3162 -0.5137
  130OSM   H16F13978   3.904   6.164   4.055  1.8668  0.3636 -1.1331
  130OSM   H16G13979   3.750   6.245   4.060 -0.0492  1.4713 -0.7610
  130OSM   C17F13980   3.920   6.319   4.191  0.5055 -0.9442 -0.2529
  130OSM   H17F13981   4.024   6.354   4.170 -0.5499  3.1131  0.4559
  130OSM   H17G13982   3.909   6.241   4.269  0.6104 -0.0406  0.7042
  130OSM   C18F13983   3.850   6.449   4.246 -0.1340  0.4313 -0.2832
  130OSM   H18F13984   3.898   6.484   4.340 -1.0279  0.2822  0.2507
  130OSM   H18G13985   3.741   6.436   4.265 -0.5601  1.1601 -2.0213
  130OSM   H18H13986   3.856   6.533   4.174 -1.2613  1.1732  0.4481
  131OSM      N13987   1.198   2.882   2.077 -0.0345  0.2265  0.0610
  131OSM    C1513988   1.198   2.744   2.145  0.1512  0.0527  0.5258
  131OSM   H15A13989   1.109   2.734   2.205  0.2973  0.8949  0.8970
  131OSM   H15B13990   1.290   2.740   2.202 -0.3072  0.0751  1.2853
  131OSM   H15C13991   1.217   2.661   2.079  1.2732 -0.5380  1.5370
  131OSM    C1413992   1.068   2.901   2.013 -0.3074  0.8411  0.2231
  131OSM   H14A13993   1.076   2.850   1.918  2.7192  3.1194 -0.9317
  131OSM   H14B13994   1.038   3.003   1.993  0.4776  0.9006 -0.7600
  131OSM   H14C13995   0.995   2.859   2.080  0.6124  0.4545  0.9970
  131OSM    C1313996   1.214   2.984   2.180 -0.0432 -0.5205 -0.6883
  131OSM   H13A13997   1.204   3.082   2.135  1.7821 -0.1814 -0.4184
  131OSM   H13B13998   1.316   2.992   2.213 -0.0277 -2.8281 -0.0495
  131OSM   H13C13999   1.140   2.984   2.259 -0.1330  0.3368 -0.7564
  131OSM    C1214000   1.307   2.903   1.967 -0.0571 -0.4074 -1.0727
  131OSM   H12A14001   1.292   3.005   1.935  0.0681 -0.3559 -0.9633
  131OSM   H12B14002   1.297   2.833   1.885  1.1426 -1.0498 -0.7007
  131OSM    C1114003   1.458   2.890   2.008 -0.3439  0.2445 -0.6072
  131OSM   H11A14004   1.478   2.970   2.082  0.8346  0.1383 -0.7867
  131OSM   H11B14005   1.520   2.908   1.918  0.3982  0.6378 -0.0270
  131OSM      P14006   1.610   2.746   2.173  0.0897 -0.2064 -0.1069
  131OSM    O1314007   1.598   2.617   2.241 -0.0469 -0.2551 -0.2677
  131OSM    O1414008   1.737   2.760   2.097 -0.1217 -0.2941 -0.1203
  131OSM    O1114009   1.600   2.875   2.269 -0.3610  0.1193 -0.4716
  131OSM    O1214010   1.483   2.762   2.072 -0.8018 -0.1162 -0.1131
  131OSM    C1S14011   1.497   2.880   2.367 -0.3773  0.7453  0.3754
  131OSM    H1S14012   1.400   2.828   2.346 -0.1026  0.7540 -1.0740
  131OSM    H1T14013   1.466   2.986   2.372  1.2544  1.2004  1.3419
  131OSM     NF14014   1.420   2.840   2.599  0.2951 -0.1231  0.5090
  131OSM    HNF14015   1.417   2.908   2.672  0.3608  1.5395 -0.9675
  131OSM    C2S14016   1.538   2.839   2.516  0.0450  0.0248  0.0725
  131OSM    H2S14017   1.571   2.733   2.510 -0.5725 -0.2373  1.1534
  131OSM    C3S14018   1.650   2.932   2.566  0.5873 -0.3191  0.3503
  131OSM    H3S14019   1.600   3.031   2.571  0.3136 -0.2854 -2.1885
  131OSM     O314020   1.756   2.948   2.477 -0.3201  0.2979 -0.1679
  131OSM    HO314021   1.723   2.921   2.391  2.4795 -0.0675 -1.2433
  131OSM    C4S14022   1.703   2.892   2.709 -0.0141  0.5114  0.5830
  131OSM    H4S14023   1.668   2.954   2.793 -0.6987 -0.2138  0.8507
  131OSM    C5S14024   1.783   2.786   2.742  0.4471  0.1637  0.3652
  131OSM    H5S14025   1.816   2.725   2.657 -1.7652 -0.1033 -0.3663
  131OSM    C6S14026   1.811   2.741   2.886 -0.3921  0.3612 -0.0058
  131OSM    H6S14027   1.772   2.816   2.959  0.5611  0.0149  0.8700
  131OSM    H6T14028   1.921   2.735   2.899 -0.2706 -0.1270 -1.1826
  131OSM    C7S14029   1.739   2.605   2.928 -0.4941 -0.2630 -0.2451
  131OSM    H7S14030   1.754   2.534   2.844  0.0706  1.8982 -2.0709
  131OSM    H7T14031   1.630   2.617   2.946 -0.7967 -1.1055 -1.3974
  131OSM    C8S14032   1.799   2.555   3.064  0.2674 -0.0645 -0.1579
  131OSM    H8S14033   1.904   2.591   3.065 -0.2009  1.4022  0.2281
  131OSM    H8T14034   1.791   2.445   3.070 -0.0328 -0.0689 -0.6214
  131OSM    C9S14035   1.718   2.629   3.173 -0.3073  0.3785  0.2904
  131OSM    H9S14036   1.610   2.603   3.159  0.0820 -0.6695 -1.0041
  131OSM    H9T14037   1.723   2.740   3.166 -0.6083  0.4426  1.0091
  131OSM   C10S14038   1.767   2.588   3.314  0.1571 -0.2110 -0.2100
  131OSM   H10S14039   1.872   2.623   3.327  0.4740 -1.8446  2.2865
  131OSM   H10T14040   1.764   2.477   3.322  0.0517 -0.4621 -2.7932
  131OSM   C11S14041   1.701   2.651   3.436  0.0378 -0.0957 -1.1737
  131OSM   H11S14042   1.592   2.634   3.442  0.0373  0.0321 -0.8419
  131OSM   H11T14043   1.713   2.758   3.411 -2.2563  0.3529 -0.5452
  131OSM   C12S14044   1.767   2.620   3.572 -0.2624 -0.3081  0.2366
  131OSM   H12S14045   1.730   2.700   3.640  0.9764  2.2962 -1.9284
  131OSM   H12T14046   1.876   2.624   3.549 -0.9059 -0.3521 -3.3181
  131OSM   C13S14047   1.738   2.480   3.628  0.1805 -0.6016  0.1603
  131OSM   H13S14048   1.763   2.411   3.544  0.7187  0.6172 -0.7186
  131OSM   H13T14049   1.630   2.471   3.653  0.6262  0.2755  2.6873
  131OSM   C14S14050   1.806   2.451   3.759 -0.0524  0.3174  0.2714
  131OSM   H14S14051   1.772   2.529   3.830 -0.4127  0.5100 -0.1109
  131OSM   H14T14052   1.913   2.461   3.730  0.4728 -1.1962  1.5720
  131OSM   C15S14053   1.772   2.315   3.823  0.5732  0.2596 -0.2580
  131OSM   H15S14054   1.827   2.295   3.918 -1.8836  0.8351  1.3760
  131OSM   H15T14055   1.811   2.236   3.755 -0.3173  0.7244 -1.3290
  131OSM   C16S14056   1.623   2.305   3.850  0.8831 -0.0672 -0.3718
  131OSM   H16S14057   1.549   2.310   3.767  2.0625  3.1083 -1.3466
  131OSM   H16T14058   1.586   2.386   3.916  0.5197  2.9871 -4.0277
  131OSM   C17S14059   1.584   2.187   3.943  0.0650  0.2631  0.5789
  131OSM   H17S14060   1.592   2.093   3.884  1.5596  0.2909  0.6954
  131OSM   H17T14061   1.474   2.198   3.955 -0.1720  2.5099 -2.3866
  131OSM   C18S14062   1.639   2.172   4.081 -0.5963 -0.2355  0.1032
  131OSM   H18S14063   1.576   2.092   4.124 -4.0953  1.4065 -1.4806
  131OSM   H18T14064   1.628   2.261   4.147  1.6224 -1.3123  2.0688
  131OSM   H18U14065   1.744   2.139   4.070 -0.2821  0.2693  1.4214
  131OSM    C1F14066   1.326   2.751   2.580 -0.0262  0.4290 -0.0739
  131OSM     OF14067   1.341   2.661   2.494  0.4659 -0.5167 -0.2893
  131OSM    C2F14068   1.205   2.748   2.671  0.7524  0.3722  0.5015
  131OSM    H2F14069   1.119   2.806   2.632  1.1706  0.4757 -0.2885
  131OSM    H2G14070   1.222   2.788   2.773 -1.3146  0.1227  0.9866
  131OSM    C3F14071   1.150   2.606   2.694  0.0037 -0.6409 -0.5052
  131OSM    H3F14072   1.224   2.546   2.751  0.2236  0.7420  0.7348
  131OSM    H3G14073   1.138   2.549   2.600  0.5131 -1.4632 -0.0740
  131OSM    C4F14074   1.017   2.594   2.780  0.3522 -0.4216 -0.5354
  131OSM    H4F14075   0.994   2.485   2.777  1.2954 -0.5960 -2.2038
  131OSM    H4G14076   0.935   2.647   2.726  1.2454 -1.1381 -2.6712
  131OSM    C5F14077   1.028   2.650   2.922 -0.1242  0.4157 -0.0581
  131OSM    H5F14078   1.127   2.613   2.958 -1.3275 -0.1171  3.0133
  131OSM    H5G14079   0.957   2.586   2.979  0.4844 -0.0241  0.2211
  131OSM    C6F14080   0.993   2.796   2.952 -0.3620 -0.0298  0.7956
  131OSM    H6F14081   0.883   2.805   2.950 -0.2897  0.9957  0.6562
  131OSM    H6G14082   1.037   2.859   2.872  1.3546 -1.8628  0.1950
  131OSM    C7F14083   1.050   2.847   3.089  0.2978 -0.2024  0.4890
  131OSM    H7F14084   1.155   2.812   3.090  0.2619 -0.3276 -0.0664
  131OSM    H7G14085   0.997   2.795   3.172 -0.3948  0.4888  0.4926
  131OSM    C8F14086   1.042   2.999   3.094  0.2626 -0.1023  0.2924
  131OSM    H8F14087   1.078   3.057   3.006  1.9977 -0.3497  0.8168
  131OSM    H8G14088   1.110   3.040   3.171 -0.2761  3.7063 -1.0448
  131OSM    C9F14089   0.903   3.058   3.144  0.1906 -0.4776  0.0472
  131OSM    H9F14090   0.812   3.011   3.104 -0.4882  1.5566 -0.9410
  131OSM   C10F14091   0.881   3.161   3.227 -0.1628 -0.3729 -0.5150
  131OSM   H10F14092   0.779   3.195   3.247 -0.5655 -2.0102  0.4582
  131OSM   C11F14093   0.991   3.251   3.276  0.1834 -0.1321 -0.5927
  131OSM   H11F14094   0.964   3.359   3.270  1.5389  0.3383  1.0798
  131OSM   H11G14095   1.075   3.254   3.203 -0.2891  0.7786 -1.1219
  131OSM   C12F14096   1.047   3.215   3.413  0.4632 -0.9510 -0.0057
  131OSM   H12F14097   1.056   3.104   3.420 -1.2851 -1.0559  1.2347
  131OSM   H12G14098   0.972   3.261   3.482 -0.8265 -0.3514 -1.7508
  131OSM   C13F14099   1.175   3.286   3.466  0.0023  0.5774  0.3555
  131OSM   H13F14100   1.165   3.393   3.436 -3.9584 -0.0254 -0.9630
  131OSM   H13G14101   1.259   3.230   3.421  0.4570  0.4523  1.3298
  131OSM   C14F14102   1.177   3.277   3.625 -0.2104 -0.1692  0.1061
  131OSM   H14F14103   1.210   3.171   3.629 -0.1350 -0.4312 -3.7320
  131OSM   H14G14104   1.077   3.291   3.672  0.4642 -0.8483  1.7952
  131OSM   C15F14105   1.282   3.357   3.695 -0.6245 -0.0385  0.3543
  131OSM   H15F14106   1.260   3.465   3.702 -1.0609 -0.2021  1.7068
  131OSM   H15G14107   1.379   3.350   3.641 -0.2845  1.1160  0.7896
  131OSM   C16F14108   1.302   3.301   3.829 -0.4859  0.2842  0.4060
  131OSM   H16F14109   1.318   3.191   3.825 -1.1374  0.2093 -0.4325
  131OSM   H16G14110   1.214   3.327   3.892  0.2531  0.3910  1.4195
  131OSM   C17F14111   1.413   3.366   3.907 -0.0130  0.6098 -0.0210
  131OSM   H17F14112   1.391   3.475   3.904 -1.2663  0.3610 -0.2707
  131OSM   H17G14113   1.508   3.338   3.857 -0.3210  0.4293 -0.5095
  131OSM   C18F14114   1.409   3.322   4.047  0.5908 -0.5985 -0.9067
  131OSM   H18F14115   1.307   3.336   4.089  0.8448 -0.6474 -0.2682
  131OSM   H18G14116   1.479   3.376   4.114 -0.5837 -0.0211 -0.1170
  131OSM   H18H14117   1.430   3.213   4.049  1.8567 -0.3618 -0.5897
  132OSM      N14118   1.017   3.555   1.985  1.1640 -0.0198  0.5996
  132OSM    C1514119   0.883   3.489   2.014 -0.0456 -0.0601 -0.2423
  132OSM   H15A14120   0.834   3.553   2.086  2.4601 -0.9144  2.4408
  132OSM   H15B14121   0.912   3.393   2.056  2.9982  0.4448 -0.9673
  132OSM   H15C14122   0.829   3.490   1.921 -0.6569  2.9163  0.0515
  132OSM    C1414123   1.099   3.476   1.882 -0.2871 -0.2269  0.5250
  132OSM   H14A14124   1.041   3.444   1.797 -1.3083  1.5108  0.5099
  132OSM   H14B14125   1.117   3.378   1.924  1.0262  0.1657  0.9002
  132OSM   H14C14126   1.189   3.529   1.855 -1.4628  1.8493  0.4557
  132OSM    C1314127   0.983   3.688   1.934  0.0057 -0.1170 -0.3550
  132OSM   H13A14128   0.931   3.746   2.009 -2.0313 -0.8314 -1.1540
  132OSM   H13B14129   0.927   3.681   1.843  0.6253  2.5936 -1.0245
  132OSM   H13C14130   1.072   3.746   1.912 -0.0058 -0.3726 -1.1004
  132OSM    C1214131   1.095   3.561   2.117  0.2689  1.0230 -0.1147
  132OSM   H12A14132   1.181   3.622   2.095  1.0653 -0.9313 -3.0544
  132OSM   H12B14133   1.136   3.462   2.131  0.1147  0.5407 -2.5636
  132OSM    C1114134   1.025   3.617   2.251 -0.0280 -0.2961  0.8569
  132OSM   H11A14135   1.112   3.647   2.314 -1.3383  0.4393  2.3599
  132OSM   H11B14136   0.966   3.541   2.306 -0.0946 -1.7468 -1.0882
  132OSM      P14137   0.985   3.873   2.248  0.6000 -0.0559  0.7001
  132OSM    O1314138   1.124   3.894   2.206  0.7154 -0.6170  0.3949
  132OSM    O1414139   0.889   3.967   2.186 -0.0256  0.2824  1.0922
  132OSM    O1114140   0.980   3.879   2.404 -0.0531  0.5076 -0.1219
  132OSM    O1214141   0.941   3.728   2.212  0.1055  0.3144 -0.0009
  132OSM    C1S14142   0.851   3.846   2.464  0.2465 -0.5615 -0.0296
  132OSM    H1S14143   0.823   3.740   2.449 -0.9796 -0.4921  1.4980
  132OSM    H1T14144   0.769   3.906   2.419 -0.5613 -1.6640 -0.0686
  132OSM     NF14145   0.726   3.798   2.675 -1.2319  0.0369 -0.0287
  132OSM    HNF14146   0.652   3.864   2.691 -0.3110  0.9256  0.6569
  132OSM    C2S14147   0.849   3.852   2.619 -0.4991 -0.2631 -0.6274
  132OSM    H2S14148   0.929   3.784   2.656  1.4092  0.9284 -2.3115
  132OSM    C3S14149   0.890   4.000   2.661 -0.0001 -0.1720 -0.3124
  132OSM    H3S14150   0.811   4.067   2.624 -0.1923 -0.9921 -1.4444
  132OSM     O314151   1.017   4.047   2.602  0.2641  0.0746  0.2581
  132OSM    HO314152   1.038   3.976   2.541 -1.1482 -1.2105  1.2047
  132OSM    C4S14153   0.887   4.016   2.810 -0.6438 -0.3959  0.8134
  132OSM    H4S14154   0.892   3.921   2.865  0.7514 -1.1978 -0.6225
  132OSM    C5S14155   0.890   4.139   2.869  0.8374 -0.2246 -0.3915
  132OSM    H5S14156   0.896   4.229   2.806 -0.3644 -0.6937 -1.2086
  132OSM    C6S14157   0.895   4.163   3.017  0.0868 -0.3038  0.1621
  132OSM    H6S14158   0.844   4.259   3.044  0.1279 -0.6356  1.5023
  132OSM    H6T14159   0.998   4.164   3.058 -0.5580  2.3866  2.0422
  132OSM    C7S14160   0.828   4.060   3.099 -0.6927  0.2863 -0.1217
  132OSM    H7S14161   0.878   3.961   3.088  3.9881  2.1517  1.5790
  132OSM    H7T14162   0.723   4.067   3.064 -1.2296 -2.1168  0.8130
  132OSM    C8S14163   0.831   4.086   3.248  0.2164  0.7686 -0.1168
  132OSM    H8S14164   0.819   4.194   3.272 -1.1011  0.6389 -0.1648
  132OSM    H8T14165   0.932   4.046   3.273 -0.8483 -1.8746  0.1745
  132OSM    C9S14166   0.720   4.008   3.319 -0.7669 -0.0466 -0.0699
  132OSM    H9S14167   0.748   3.902   3.303 -3.2529 -0.6460 -0.9260
  132OSM    H9T14168   0.626   4.025   3.263  0.1286  0.0912 -1.5979
  132OSM   C10S14169   0.709   4.063   3.469  0.3160 -0.0631  0.2611
  132OSM   H10S14170   0.668   4.166   3.466  1.1863  0.2758 -1.1924
  132OSM   H10T14171   0.816   4.073   3.498  0.7561 -0.7937 -0.9999
  132OSM   C11S14172   0.634   3.972   3.562 -0.1008  0.6889 -0.3064
  132OSM   H11S14173   0.646   3.864   3.540  0.3405  0.8023 -0.6310
  132OSM   H11T14174   0.528   4.001   3.550 -0.2167  0.2898 -0.2619
  132OSM   C12S14175   0.695   3.987   3.698 -0.0823 -0.8193 -0.3666
  132OSM   H12S14176   0.693   4.097   3.709 -3.5717 -0.8491  0.6416
  132OSM   H12T14177   0.796   3.941   3.695 -1.1249 -3.3585  0.1183
  132OSM   C13S14178   0.607   3.936   3.812 -0.0535 -0.3466 -0.8904
  132OSM   H13S14179   0.571   3.832   3.796 -1.0568 -0.9843  3.9803
  132OSM   H13T14180   0.511   3.990   3.823  0.5443  0.2276  2.2411
  132OSM   C14S14181   0.676   3.941   3.946 -0.1286  0.9739  0.4013
  132OSM   H14S14182   0.776   3.982   3.921  0.1178 -0.3973 -1.0444
  132OSM   H14T14183   0.709   3.843   3.987 -0.0264  1.5431  1.7393
  132OSM   C15S14184   0.609   4.026   4.045 -0.3375  0.0217  0.7274
  132OSM   H15S14185   0.564   4.115   3.996  0.8184 -0.5168 -1.4735
  132OSM   H15T14186   0.688   4.064   4.114  2.0535 -2.1634 -0.6215
  132OSM   C16S14187   0.506   3.948   4.123  0.4431  0.1715  1.2911
  132OSM   H16S14188   0.449   3.875   4.062  3.2725 -1.3481  0.2835
  132OSM   H16T14189   0.438   4.019   4.176 -0.5598 -0.5718  1.0242
  132OSM   C17S14190   0.565   3.867   4.234 -0.8756  0.7737 -0.1552
  132OSM   H17S14191   0.609   3.938   4.307 -2.3721  0.3597  1.2040
  132OSM   H17T14192   0.647   3.805   4.192  0.8745  2.2369  0.9346
  132OSM   C18S14193   0.457   3.776   4.304  0.0326  0.4539 -0.2741
  132OSM   H18S14194   0.408   3.699   4.242 -2.6544  2.2378 -0.5355
  132OSM   H18T14195   0.389   3.847   4.356  0.4551 -0.5776  1.7862
  132OSM   H18U14196   0.505   3.722   4.389 -0.3296  2.2307  1.1390
  132OSM    C1F14197   0.687   3.670   2.672 -0.0784 -1.2921 -0.1026
  132OSM     OF14198   0.746   3.579   2.612 -0.1343 -0.4928  0.0866
  132OSM    C2F14199   0.573   3.651   2.764 -0.1520  0.5690  0.8492
  132OSM    H2F14200   0.487   3.616   2.703 -0.0390  2.3463 -0.4147
  132OSM    H2G14201   0.537   3.742   2.816  0.2255  1.9956 -1.2725
  132OSM    C3F14202   0.618   3.541   2.862 -0.2278  0.1419 -0.5187
  132OSM    H3F14203   0.710   3.581   2.910 -0.7672 -0.3247  0.9767
  132OSM    H3G14204   0.649   3.452   2.803 -1.9329 -0.2812 -0.8272
  132OSM    C4F14205   0.516   3.499   2.967 -0.2092 -0.0661 -0.7621
  132OSM    H4F14206   0.551   3.421   3.038  0.6457  2.5487  1.9381
  132OSM    H4G14207   0.422   3.464   2.920 -0.1558  1.9241 -2.4880
  132OSM    C5F14208   0.466   3.610   3.056  0.6629  0.0986 -0.0014
  132OSM    H5F14209   0.396   3.572   3.134  2.3516  0.6405  1.8615
  132OSM    H5G14210   0.420   3.690   2.992 -0.3208  0.3310  0.9622
  132OSM    C6F14211   0.577   3.679   3.140  0.2380  0.0574  0.0467
  132OSM    H6F14212   0.524   3.736   3.218 -0.7140 -1.5037  0.5753
  132OSM    H6G14213   0.628   3.759   3.080  0.1462  1.7424  2.1147
  132OSM    C7F14214   0.670   3.589   3.218 -0.1657  0.7901 -0.1593
  132OSM    H7F14215   0.732   3.657   3.279 -0.4383  1.7738 -0.9460
  132OSM    H7G14216   0.734   3.537   3.143 -0.5493  0.0417  0.0209
  132OSM    C8F14217   0.595   3.501   3.322 -0.4720 -0.2788  0.2459
  132OSM    H8F14218   0.529   3.428   3.271 -0.2396  0.8149 -1.7440
  132OSM    H8G14219   0.521   3.570   3.367  0.0773  1.4052 -1.2836
  132OSM    C9F14220   0.693   3.439   3.425  0.4900 -0.5782  0.3272
  132OSM    H9F14221   0.795   3.481   3.428 -0.0305  0.9781 -1.6826
  132OSM   C10F14222   0.661   3.345   3.510 -0.0150  0.4301 -0.1801
  132OSM   H10F14223   0.736   3.296   3.575  0.9229  0.5511 -1.1463
  132OSM   C11F14224   0.527   3.281   3.526 -0.4158 -0.8442  0.1213
  132OSM   H11F14225   0.461   3.299   3.439 -0.7007 -1.4524  0.2065
  132OSM   H11G14226   0.482   3.321   3.620 -1.7984  1.4858 -1.4141
  132OSM   C12F14227   0.533   3.124   3.536  0.1734 -0.0659  0.7827
  132OSM   H12F14228   0.610   3.099   3.612  1.1317  0.3355 -0.0404
  132OSM   H12G14229   0.566   3.082   3.439  0.6174 -0.8616  1.2690
  132OSM   C13F14230   0.394   3.070   3.575 -0.5634 -0.2388 -0.1566
  132OSM   H13F14231   0.336   3.159   3.608 -0.0295  0.9652 -2.2791
  132OSM   H13G14232   0.411   2.991   3.651 -1.5722  1.5122  2.0268
  132OSM   C14F14233   0.322   3.006   3.467 -0.7347  0.7120  0.3964
  132OSM   H14F14234   0.387   2.923   3.433 -1.2141  0.2512  0.6054
  132OSM   H14G14235   0.317   3.080   3.384  0.7845 -0.9196 -1.2126
  132OSM   C15F14236   0.181   2.959   3.489 -0.0509 -0.2065  0.0209
  132OSM   H15F14237   0.143   2.902   3.402 -0.5927  0.4781 -0.1972
  132OSM   H15G14238   0.111   3.044   3.500 -1.0124 -1.1267  1.4235
  132OSM   C16F14239   0.169   2.877   3.617  0.0316  0.7134 -0.0437
  132OSM   H16F14240   0.224   2.926   3.700  0.1138  1.1993 -0.3827
  132OSM   H16G14241   0.218   2.785   3.578 -0.6944  0.7736 -1.1448
  132OSM   C17F14242   0.022   2.844   3.660  0.7315 -0.1174 -0.1373
  132OSM   H17F14243  -0.025   2.780   3.582  0.0578  0.9265 -0.6117
  132OSM   H17G14244  -0.030   2.942   3.672  2.0621  0.6801 -0.6640
  132OSM   C18F14245   0.014   2.783   3.801  0.6738 -0.1229  0.4376
  132OSM   H18F14246  -0.084   2.731   3.807  0.0833  1.0002  0.9015
  132OSM   H18G14247   0.024   2.856   3.885 -3.0438  1.1168 -0.0082
  132OSM   H18H14248   0.097   2.712   3.818  1.4712  0.8794  0.8266
  133OSM      N14249   4.389   3.546   2.096  0.1037 -0.0128  0.0018
  133OSM    C1514250   4.431   3.436   2.014  0.4158  0.5280 -0.0834
  133OSM   H15A14251   4.368   3.349   2.026 -0.0794  0.8431 -0.3573
  133OSM   H15B14252   4.529   3.398   2.040 -0.0611 -1.0359 -0.4530
  133OSM   H15C14253   4.427   3.455   1.908 -1.7317 -1.4472 -0.4389
  133OSM    C1414254   4.489   3.651   2.078 -0.3746  0.4883 -0.3420
  133OSM   H14A14255   4.513   3.682   1.977  1.8220 -0.9025 -0.3020
  133OSM   H14B14256   4.587   3.620   2.111 -0.4901  2.8816  2.6451
  133OSM   H14C14257   4.475   3.738   2.140 -0.5738 -2.2057  3.7483
  133OSM    C1314258   4.256   3.607   2.051  0.6874 -0.4110  0.3054
  133OSM   H13A14259   4.176   3.539   2.073 -0.3044  1.0353  1.4341
  133OSM   H13B14260   4.253   3.635   1.947 -0.9165 -0.7948  0.2235
  133OSM   H13C14261   4.236   3.701   2.102 -0.1369 -1.4188  1.9004
  133OSM    C1214262   4.374   3.507   2.242 -0.1075 -0.1381 -0.4229
  133OSM   H12A14263   4.353   3.598   2.297  2.1848  0.0498  0.2765
  133OSM   H12B14264   4.465   3.472   2.288 -0.8078 -0.4230  0.7657
  133OSM    C1114265   4.266   3.396   2.281  0.1279  0.2437  0.2292
  133OSM   H11A14266   4.279   3.369   2.389  2.8806  0.4830  0.0276
  133OSM   H11B14267   4.289   3.299   2.231 -0.6303 -0.0883  0.5086
  133OSM      P14268   4.049   3.516   2.360 -0.2189 -0.3927 -0.0991
  133OSM    O1314269   3.956   3.601   2.283 -0.0844  0.3337 -0.4310
  133OSM    O1414270   3.995   3.417   2.457 -0.7161 -0.3465 -0.3368
  133OSM    O1114271   4.160   3.609   2.424  0.7180  0.2676  0.4628
  133OSM    O1214272   4.133   3.436   2.260 -0.1264 -0.0305  0.1957
  133OSM    C1S14273   4.115   3.721   2.502 -0.6885  0.3903  0.7935
  133OSM    H1S14274   4.013   3.758   2.476  0.4520  2.9523 -0.3418
  133OSM    H1T14275   4.182   3.806   2.477  1.7600 -1.8021 -0.5199
  133OSM     NF14276   4.056   3.766   2.734 -0.2113  0.1824  0.4843
  133OSM    HNF14277   4.101   3.806   2.814  1.4857 -0.3402 -0.1514
  133OSM    C2S14278   4.136   3.682   2.648  0.5991 -0.5772 -0.0500
  133OSM    H2S14279   4.108   3.576   2.664  1.7457 -0.6014  2.1395
  133OSM    C3S14280   4.283   3.677   2.682 -0.4409  0.7001 -0.0601
  133OSM    H3S14281   4.335   3.775   2.689 -0.5637  0.7285  0.5825
  133OSM     O314282   4.349   3.584   2.595 -0.3222 -0.3806  0.3956
  133OSM    HO314283   4.288   3.565   2.524  1.6305 -2.7862 -0.8177
  133OSM    C4S14284   4.302   3.615   2.822  0.0473  0.6087 -0.4260
  133OSM    H4S14285   4.244   3.522   2.828 -3.6323  2.7784  0.9596
  133OSM    C5S14286   4.348   3.674   2.930 -0.3417  0.3205  0.2673
  133OSM    H5S14287   4.396   3.771   2.913  0.4951  0.1355  1.4524
  133OSM    C6S14288   4.355   3.604   3.068  0.1220 -0.4110  0.0904
  133OSM    H6S14289   4.279   3.660   3.128 -0.7990  0.2204 -1.6085
  133OSM    H6T14290   4.455   3.623   3.113 -0.8210  0.6898  1.8655
  133OSM    C7S14291   4.328   3.458   3.078 -0.3855  1.3594 -0.7356
  133OSM    H7S14292   4.394   3.397   3.012 -0.7182  0.7122 -0.4781
  133OSM    H7T14293   4.226   3.424   3.049  0.6103 -2.0835 -0.7250
  133OSM    C8S14294   4.343   3.414   3.228  0.9075  0.1732 -0.2579
  133OSM    H8S14295   4.432   3.457   3.279  2.5200 -0.6293 -2.2560
  133OSM    H8T14296   4.368   3.307   3.241  0.1579  0.0511  0.2911
  133OSM    C9S14297   4.212   3.444   3.305 -0.2871  0.3314 -0.5458
  133OSM    H9S14298   4.122   3.401   3.258 -1.1667 -0.6779  1.8876
  133OSM    H9T14299   4.198   3.554   3.294  2.5743  0.6583 -2.0311
  133OSM   C10S14300   4.219   3.407   3.449 -0.3774 -0.2278  0.6039
  133OSM   H10S14301   4.307   3.454   3.497 -1.6716  3.5568 -0.3988
  133OSM   H10T14302   4.228   3.298   3.467 -1.6678 -0.2844  1.0313
  133OSM   C11S14303   4.104   3.465   3.533  0.2913  0.0937  0.1233
  133OSM   H11S14304   4.011   3.413   3.500  0.9053 -0.5596 -0.6249
  133OSM   H11T14305   4.069   3.571   3.527 -0.6564 -0.2471 -0.7932
  133OSM   C12S14306   4.126   3.444   3.682 -0.0050 -0.3067 -0.2248
  133OSM   H12S14307   4.228   3.482   3.703 -1.1021  1.4982  2.3415
  133OSM   H12T14308   4.113   3.334   3.692  2.9917 -0.6075  1.5854
  133OSM   C13S14309   4.035   3.528   3.777  0.1010  0.1146  0.4177
  133OSM   H13S14310   3.936   3.486   3.747  0.6189 -0.8883  0.0637
  133OSM   H13T14311   4.026   3.637   3.762 -3.1000  0.1445  1.6561
  133OSM   C14S14312   4.048   3.510   3.923 -0.1238  0.0822 -0.1723
  133OSM   H14S14313   4.119   3.588   3.958  0.9433 -0.4701 -1.0523
  133OSM   H14T14314   4.085   3.409   3.951 -0.9281 -0.1150  0.2039
  133OSM   C15S14315   3.911   3.530   4.000  0.6061 -0.0244  0.1845
  133OSM   H15S14316   3.854   3.436   3.985  0.3226  0.3740 -1.4657
  133OSM   H15T14317   3.854   3.617   3.961 -2.6462 -0.6828  3.0513
  133OSM   C16S14318   3.935   3.572   4.150  0.0611 -0.0558  0.4852
  133OSM   H16S14319   3.979   3.674   4.153 -1.1406  0.4744  0.7357
  133OSM   H16T14320   4.006   3.496   4.189 -0.1626  0.0285  1.0531
  133OSM   C17S14321   3.806   3.561   4.230 -0.4130 -0.5018  0.8009
  133OSM   H17S14322   3.841   3.584   4.332  1.7830  2.8442 -0.5303
  133OSM   H17T14323   3.771   3.457   4.216 -2.6451  0.0648  1.6720
  133OSM   C18S14324   3.695   3.660   4.188 -0.0287 -0.1520  0.4949
  133OSM   H18S14325   3.615   3.657   4.265  0.7840  0.2931  1.3634
  133OSM   H18T14326   3.650   3.631   4.090  0.2871 -0.8784  0.5607
  133OSM   H18U14327   3.741   3.760   4.184 -1.9604  0.8815  2.1740
  133OSM    C1F14328   3.919   3.774   2.733  0.1693 -0.2512  0.2523
  133OSM     OF14329   3.852   3.719   2.648 -0.4235  0.2454  0.2571
  133OSM    C2F14330   3.856   3.865   2.837  0.1590  0.0678 -0.4782
  133OSM    H2F14331   3.745   3.854   2.840  0.0503  1.0168 -0.7367
  133OSM    H2G14332   3.877   3.973   2.825 -1.4465  0.3604 -0.9303
  133OSM    C3F14333   3.907   3.818   2.979  0.4731  0.3335 -0.1486
  133OSM    H3F14334   4.013   3.847   3.002  1.0282  0.6773 -2.8471
  133OSM    H3G14335   3.895   3.708   2.977  0.5125  0.3428 -1.4468
  133OSM    C4F14336   3.829   3.879   3.086 -0.2435 -0.5485  0.1705
  133OSM    H4F14337   3.724   3.897   3.054 -0.8476 -2.3115  1.0444
  133OSM    H4G14338   3.867   3.982   3.101 -1.3441 -0.2918  1.4272
  133OSM    C5F14339   3.841   3.789   3.212  0.3157  0.0277 -1.0455
  133OSM    H5F14340   3.947   3.757   3.222 -0.7074 -3.4993  0.1285
  133OSM    H5G14341   3.783   3.695   3.201  0.2886  0.1382 -1.9685
  133OSM    C6F14342   3.807   3.867   3.344 -0.4761  0.4713 -0.2142
  133OSM    H6F14343   3.804   3.792   3.426  2.6904  1.6928  1.1678
  133OSM    H6G14344   3.700   3.897   3.350  0.0163  2.2833  0.1247
  133OSM    C7F14345   3.917   3.962   3.393  0.4663  0.4633  0.4349
  133OSM    H7F14346   3.931   4.023   3.302  2.1740  0.3763  0.5911
  133OSM    H7G14347   4.015   3.911   3.407  0.5858  1.0582  2.0031
  133OSM    C8F14348   3.868   4.052   3.509 -0.0999  0.1416  0.1844
  133OSM    H8F14349   3.832   3.997   3.599  1.2480 -0.2930  0.4715
  133OSM    H8G14350   3.772   4.097   3.476  1.4820  2.9495 -0.9241
  133OSM    C9F14351   3.961   4.161   3.542 -0.4066  0.5004 -0.0626
  133OSM    H9F14352   3.995   4.221   3.456  2.0262  0.5529  0.8859
  133OSM   C10F14353   4.010   4.178   3.668  0.8609  0.9372  0.3410
  133OSM   H10F14354   4.081   4.259   3.693  0.4150  1.0600  1.2633
  133OSM   C11F14355   3.962   4.093   3.789  0.3469  0.5250  0.1367
  133OSM   H11F14356   3.950   3.985   3.766  1.5865 -0.0195  1.8558
  133OSM   H11G14357   3.863   4.134   3.817  0.0203  0.6951 -1.2216
  133OSM   C12F14358   4.069   4.102   3.901 -0.2219  0.2807  0.1886
  133OSM   H12F14359   4.075   4.205   3.942  1.7960  0.0347  0.5856
  133OSM   H12G14360   4.170   4.079   3.862 -0.1633  0.8607 -0.0272
  133OSM   C13F14361   4.035   4.003   4.013 -0.4750 -0.3229  0.1447
  133OSM   H13F14362   4.068   3.899   3.995  0.0066 -0.0926 -0.3217
  133OSM   H13G14363   3.924   4.005   4.016 -0.6866 -2.0590 -3.0810
  133OSM   C14F14364   4.101   4.042   4.146 -0.0873 -0.6250 -0.0737
  133OSM   H14F14365   4.046   4.012   4.238  0.0377  0.9809  0.5647
  133OSM   H14G14366   4.087   4.151   4.160  1.1401 -0.5856  0.9903
  133OSM   C15F14367   4.252   4.015   4.162 -0.4662  0.1895  0.1595
  133OSM   H15F14368   4.306   4.110   4.149  1.8532 -0.7706  1.9954
  133OSM   H15G14369   4.286   3.948   4.080 -0.3347  2.2149 -1.5043
  133OSM   C16F14370   4.288   3.962   4.298  0.7538 -1.0846 -0.3785
  133OSM   H16F14371   4.258   4.035   4.377  0.5406 -0.4641 -1.0170
  133OSM   H16G14372   4.398   3.948   4.305  0.9574  0.7824  0.9770
  133OSM   C17F14373   4.223   3.828   4.337 -0.1750  0.2050  0.5530
  133OSM   H17F14374   4.112   3.834   4.345 -0.9091 -2.7065 -3.8018
  133OSM   H17G14375   4.252   3.805   4.441 -3.5909 -1.8463  1.1870
  133OSM   C18F14376   4.261   3.706   4.246  0.5062 -0.6513 -0.1024
  133OSM   H18F14377   4.211   3.613   4.281  1.5852 -0.3751  2.4071
  133OSM   H18G14378   4.370   3.689   4.263  0.0998 -1.0545  2.4611
  133OSM   H18H14379   4.244   3.724   4.138  1.1059  0.4871 -0.0234
  134OSM      N14380   4.702   0.435   1.705 -0.4772  0.0026  0.0069
  134OSM    C1514381   4.772   0.543   1.632  0.6725 -0.0127 -0.1152
  134OSM   H15A14382   4.872   0.554   1.673  0.6770 -2.8029  0.8580
  134OSM   H15B14383   4.717   0.635   1.618  1.2076  0.3507  0.1142
  134OSM   H15C14384   4.780   0.515   1.528 -0.4012  0.7639 -0.4182
  134OSM    C1414385   4.580   0.395   1.635  0.3525 -1.0159  0.3088
  134OSM   H14A14386   4.522   0.483   1.617 -0.5535 -1.6670 -0.0267
  134OSM   H14B14387   4.519   0.336   1.702 -1.0347  1.5272  1.4095
  134OSM   H14C14388   4.619   0.334   1.554  0.2180 -1.2706  0.4331
  134OSM    C1314389   4.795   0.315   1.722 -0.2490  0.0292 -0.7112
  134OSM   H13A14390   4.815   0.270   1.625 -2.2567 -1.1158 -0.6491
  134OSM   H13B14391   4.748   0.241   1.785 -0.3315 -0.8493 -1.7708
  134OSM   H13C14392   4.888   0.341   1.769  0.7480 -2.2899 -1.2601
  134OSM    C1214393   4.661   0.497   1.838  0.3069  0.0713 -0.6064
  134OSM   H12A14394   4.584   0.569   1.817 -0.7305 -0.6518  0.5803
  134OSM   H12B14395   4.748   0.547   1.878  0.2620 -0.5975  0.3514
  134OSM    C1114396   4.619   0.394   1.950 -0.1523 -0.4531  0.1957
  134OSM   H11A14397   4.587   0.457   2.035  0.1660  1.5965 -1.1310
  134OSM   H11B14398   4.708   0.334   1.981  2.2634  3.1626  0.9564
  134OSM      P14399   4.512   0.157   1.943 -0.2259 -0.3331  0.3080
  134OSM    O1314400   4.389   0.092   1.903  0.3324  0.7113 -0.4303
  134OSM    O1414401   4.635   0.104   1.893 -0.0075 -0.7754  0.4526
  134OSM    O1114402   4.525   0.160   2.103  0.8157  0.0644 -0.3432
  134OSM    O1214403   4.506   0.316   1.906  0.2811 -0.2278  0.5338
  134OSM    C1S14404   4.424   0.230   2.184 -0.2768 -0.0315 -0.0339
  134OSM    H1S14405   4.326   0.223   2.131  0.3602 -1.8994 -1.0572
  134OSM    H1T14406   4.442   0.340   2.184  1.7097 -0.3244 -0.5510
  134OSM     NF14407   4.290   0.230   2.393  0.2751 -0.0474  0.3691
  134OSM    HNF14408   4.302   0.307   2.456 -1.2297  1.0641 -0.6421
  134OSM    C2S14409   4.414   0.177   2.332 -0.4391 -0.1836  0.6435
  134OSM    H2S14410   4.403   0.068   2.318 -0.4214  0.0677 -1.6326
  134OSM    C3S14411   4.547   0.204   2.407  0.9695  0.3810 -0.3541
  134OSM    H3S14412   4.555   0.315   2.416 -0.8930  0.7669 -2.7524
  134OSM     O314413   4.667   0.157   2.338 -0.1953 -0.0042  0.0106
  134OSM    HO314414   4.639   0.104   2.263 -1.3552  0.0242  0.4046
  134OSM    C4S14415   4.530   0.150   2.543  0.1961  0.1711  0.6328
  134OSM    H4S14416   4.484   0.224   2.609 -0.3209 -0.5716  1.1276
  134OSM    C5S14417   4.574   0.041   2.606 -0.5952  0.0036  0.4231
  134OSM    H5S14418   4.652  -0.026   2.567 -0.3919 -0.5612  1.7553
  134OSM    C6S14419   4.552  -0.002   2.751  0.0980 -0.7469  0.5407
  134OSM    H6S14420   4.646   0.015   2.808  0.6597 -0.1320 -0.5225
  134OSM    H6T14421   4.533  -0.111   2.762  2.2278 -1.3096 -0.6966
  134OSM    C7S14422   4.451   0.071   2.828  0.3080  0.1692  0.4586
  134OSM    H7S14423   4.352   0.042   2.788 -0.1413  0.1047  1.5779
  134OSM    H7T14424   4.454   0.181   2.815 -3.5452  0.4325  0.7834
  134OSM    C8S14425   4.460   0.034   2.972  0.0419  0.1636 -0.2515
  134OSM    H8S14426   4.563   0.053   3.009 -0.3728 -1.7265  2.1364
  134OSM    H8T14427   4.462  -0.077   2.985 -0.5866  0.3387  1.6665
  134OSM    C9S14428   4.357   0.102   3.064  0.4113  0.8015 -0.1151
  134OSM    H9S14429   4.258   0.062   3.032  0.3491  1.9265 -1.4357
  134OSM    H9T14430   4.365   0.212   3.053  0.2984  0.7800 -0.4260
  134OSM   C10S14431   4.388   0.068   3.210  0.4257  0.2790 -0.0427
  134OSM   H10S14432   4.494   0.081   3.239  0.5697  0.3393 -0.5887
  134OSM   H10T14433   4.364  -0.041   3.216 -2.4516  0.8720  0.9015
  134OSM   C11S14434   4.300   0.147   3.303  0.5191 -0.2270  0.3146
  134OSM   H11S14435   4.197   0.107   3.300 -0.7246  2.4721  2.7312
  134OSM   H11T14436   4.303   0.254   3.275 -1.4149 -0.2297 -0.0157
  134OSM   C12S14437   4.335   0.144   3.456 -0.3140 -0.3436  0.7858
  134OSM   H12S14438   4.266   0.205   3.519 -1.7433 -0.6479 -0.4216
  134OSM   H12T14439   4.432   0.196   3.463  0.3759 -0.8312 -3.1305
  134OSM   C13S14440   4.342   0.003   3.514 -0.6690  0.2166 -0.1034
  134OSM   H13S14441   4.408  -0.067   3.459 -0.9630  0.7091 -1.0905
  134OSM   H13T14442   4.241  -0.044   3.518 -0.9579  0.8055 -0.4155
  134OSM   C14S14443   4.383  -0.005   3.665  0.0545  0.4389  0.6815
  134OSM   H14S14444   4.486   0.037   3.666 -0.8610  2.8577  1.5327
  134OSM   H14T14445   4.389  -0.115   3.683 -0.4874 -0.0992 -1.9755
  134OSM   C15S14446   4.293   0.065   3.764 -0.0842  0.0137  0.2162
  134OSM   H15S14447   4.195   0.012   3.766 -0.6142  0.9405 -0.4669
  134OSM   H15T14448   4.290   0.172   3.735  1.5502 -0.0841 -0.4244
  134OSM   C16S14449   4.345   0.050   3.907  0.0849  0.1334 -0.6892
  134OSM   H16S14450   4.450   0.087   3.898  0.0971 -0.0745 -1.5395
  134OSM   H16T14451   4.348  -0.053   3.949  1.1946  0.1144 -0.7870
  134OSM   C17S14452   4.281   0.140   4.017  0.3211  1.0498 -0.5374
  134OSM   H17S14453   4.178   0.106   4.041 -0.0411  2.3906 -0.0862
  134OSM   H17T14454   4.283   0.247   3.989 -1.5778  1.0889 -0.6457
  134OSM   C18S14455   4.362   0.127   4.150  0.4600 -0.2617 -0.6199
  134OSM   H18S14456   4.334   0.207   4.222  1.3360  1.1046 -1.7511
  134OSM   H18T14457   4.472   0.141   4.137  0.9551 -3.0948 -0.2371
  134OSM   H18U14458   4.344   0.032   4.205 -3.3984  0.6713  0.0389
  134OSM    C1F14459   4.169   0.186   2.356 -0.5194 -0.0097  0.6486
  134OSM     OF14460   4.165   0.093   2.279 -0.2765 -0.0342  0.5806
  134OSM    C2F14461   4.054   0.269   2.393  0.0410  0.4725  0.2989
  134OSM    H2F14462   4.046   0.359   2.330  2.9940  0.4726 -0.2221
  134OSM    H2G14463   4.067   0.314   2.494 -1.3400  1.4967  0.0561
  134OSM    C3F14464   3.923   0.186   2.398  0.5573 -0.2904  0.5486
  134OSM    H3F14465   3.910   0.130   2.304 -0.5149 -1.9566  1.6323
  134OSM    H3G14466   3.839   0.259   2.390  2.7771  2.2113 -1.9397
  134OSM    C4F14467   3.908   0.092   2.517  0.1115 -0.2148  0.2977
  134OSM    H4F14468   3.989   0.017   2.525 -0.6790 -0.8849  2.8283
  134OSM    H4G14469   3.817   0.034   2.495  1.2783 -1.4687 -1.4881
  134OSM    C5F14470   3.910   0.167   2.653 -0.2455 -0.1484  1.1554
  134OSM    H5F14471   3.843   0.256   2.652  1.4686  1.3418  4.2917
  134OSM    H5G14472   4.010   0.209   2.678 -1.3193  3.0972  0.5515
  134OSM    C6F14473   3.862   0.085   2.777 -0.4753  0.6200 -0.2642
  134OSM    H6F14474   3.783   0.008   2.760 -0.1966  0.4135 -0.6482
  134OSM    H6G14475   3.822   0.166   2.841 -0.5446 -1.0260  1.9138
  134OSM    C7F14476   3.974   0.024   2.853  0.3281  0.0271 -0.2756
  134OSM    H7F14477   4.054   0.101   2.854 -0.4962  0.8884 -0.1872
  134OSM    H7G14478   4.008  -0.061   2.790 -2.8479 -0.7415 -1.1218
  134OSM    C8F14479   3.928  -0.019   3.002  0.2864  0.3521  0.1083
  134OSM    H8F14480   3.834  -0.077   2.995  1.5022 -1.8156  0.7012
  134OSM    H8G14481   3.896   0.056   3.077  0.8477 -1.5330  2.3497
  134OSM    C9F14482   4.045  -0.101   3.057  0.0165 -0.0172  0.4418
  134OSM    H9F14483   4.125  -0.122   2.984 -0.2177  0.3224  0.0800
  134OSM   C10F14484   4.072  -0.117   3.186  0.0879  0.2827 -0.3721
  134OSM   H10F14485   4.163  -0.171   3.216 -0.3375 -0.9435 -1.1903
  134OSM   C11F14486   3.980  -0.090   3.304 -0.3647 -0.1685  0.0492
  134OSM   H11F14487   3.888  -0.031   3.284 -0.5370 -0.5964 -0.4400
  134OSM   H11G14488   4.045  -0.023   3.364  0.5381 -2.4160  1.7190
  134OSM   C12F14489   3.968  -0.207   3.397 -0.2952 -0.1257 -0.5889
  134OSM   H12F14490   4.067  -0.246   3.431 -1.2925 -1.9371  0.4156
  134OSM   H12G14491   3.923  -0.290   3.338  3.3075 -2.3027 -0.6302
  134OSM   C13F14492   3.876  -0.174   3.516 -0.7927  0.4639  0.5182
  134OSM   H13F14493   3.837  -0.269   3.558 -0.1648 -0.5635 -1.1378
  134OSM   H13G14494   3.787  -0.112   3.492 -1.4468 -1.3254 -2.0145
  134OSM   C14F14495   3.962  -0.113   3.628  0.3724 -0.1546 -0.3484
  134OSM   H14F14496   3.981  -0.005   3.609 -0.5077 -0.1649 -1.4801
  134OSM   H14G14497   4.060  -0.164   3.636 -0.5344 -2.0657 -0.7042
  134OSM   C15F14498   3.886  -0.134   3.762 -0.0043 -0.8025 -0.2047
  134OSM   H15F14499   3.850  -0.238   3.775  1.3454 -1.4885 -1.7091
  134OSM   H15G14500   3.797  -0.067   3.762  0.5870  0.0025  0.1499
  134OSM   C16F14501   3.964  -0.093   3.889 -0.2982 -0.0576 -0.1909
  134OSM   H16F14502   4.004   0.010   3.875  1.5233 -0.6376  0.4106
  134OSM   H16G14503   4.056  -0.155   3.886  0.7318  1.4598 -1.4218
  134OSM   C17F14504   3.893  -0.108   4.021 -0.0859  0.4103 -0.7506
  134OSM   H17F14505   3.831  -0.201   4.024  0.2015  0.2499  0.8929
  134OSM   H17G14506   3.817  -0.027   4.030 -0.9812 -0.4966  0.1359
  134OSM   C18F14507   3.996  -0.107   4.134 -0.4540  0.3963 -0.0858
  134OSM   H18F14508   3.950  -0.144   4.228  1.8033 -1.0419  0.5231
  134OSM   H18G14509   4.040  -0.005   4.143  0.9674 -0.1620 -0.4740
  134OSM   H18H14510   4.080  -0.176   4.111 -1.4712  0.3106 -4.2611
  135OSM      N14511   5.303   5.321   1.840 -0.1591 -0.0907 -0.1088
  135OSM    C1514512   5.399   5.302   1.729 -0.1079 -0.2079  0.2641
  135OSM   H15A14513   5.415   5.388   1.665  2.2426 -1.4024 -0.8848
  135OSM   H15B14514   5.375   5.216   1.668 -5.0475 -0.6308  2.3647
  135OSM   H15C14515   5.495   5.290   1.776 -0.1615 -2.5699 -0.1275
  135OSM    C1414516   5.347   5.445   1.916  0.6149  0.0573  0.4206
  135OSM   H14A14517   5.365   5.535   1.859  0.8626 -0.4082 -0.2522
  135OSM   H14B14518   5.434   5.431   1.978  1.0971  1.3045  0.0645
  135OSM   H14C14519   5.263   5.463   1.982 -0.5812  0.0033 -1.0056
  135OSM    C1314520   5.164   5.350   1.795  0.3406  0.4869  0.1292
  135OSM   H13A14521   5.137   5.259   1.744  1.9984 -1.0559  1.8391
  135OSM   H13B14522   5.148   5.441   1.740  1.8523  0.0238 -1.1530
  135OSM   H13C14523   5.098   5.346   1.880  1.5386  0.5054  1.0827
  135OSM    C1214524   5.314   5.201   1.935  0.1067  0.3318  0.9462
  135OSM   H12A14525   5.419   5.188   1.956  0.2168 -0.1289  0.1269
  135OSM   H12B14526   5.275   5.115   1.883  0.7683 -0.0625  1.1001
  135OSM    C1114527   5.251   5.215   2.080  0.9001 -0.8506  0.6847
  135OSM   H11A14528   5.239   5.114   2.123  0.5877 -0.7727  0.7800
  135OSM   H11B14529   5.149   5.258   2.076  0.5134 -1.4437  2.6870
  135OSM      P14530   5.476   5.249   2.213  0.2339  0.4526  0.0578
  135OSM    O1314531   5.477   5.105   2.240 -0.4761  0.1377  0.0315
  135OSM    O1414532   5.575   5.310   2.120 -0.0241 -0.5023  0.8236
  135OSM    O1114533   5.475   5.319   2.356 -0.0726 -0.0314  0.1005
  135OSM    O1214534   5.334   5.288   2.167 -0.4967  0.4184 -0.5827
  135OSM    C1S14535   5.366   5.296   2.447 -0.6153 -0.9955  0.0683
  135OSM    H1S14536   5.356   5.187   2.468 -0.8956 -0.6151  2.1794
  135OSM    H1T14537   5.272   5.327   2.397 -1.2004 -1.5710  0.7822
  135OSM     NF14538   5.283   5.317   2.673 -0.3619 -0.3726 -0.0593
  135OSM    HNF14539   5.198   5.368   2.678 -0.8432 -1.0153 -1.2803
  135OSM    C2S14540   5.390   5.364   2.581  0.5311 -0.2460 -1.0713
  135OSM    H2S14541   5.484   5.330   2.629 -1.0006 -0.3370  2.1532
  135OSM    C3S14542   5.401   5.520   2.561  0.9882  0.4037  0.1897
  135OSM    H3S14543   5.310   5.553   2.508 -1.2013 -0.6091  3.0466
  135OSM     O314544   5.515   5.561   2.489 -0.4008  0.0285 -0.0172
  135OSM    HO314545   5.526   5.481   2.437  1.3982  0.8218 -0.9522
  135OSM    C4S14546   5.417   5.584   2.702  0.0509  0.7577  0.0135
  135OSM    H4S14547   5.456   5.512   2.774  0.6288 -0.6534 -1.6385
  135OSM    C5S14548   5.377   5.704   2.745  0.1577  0.0908  0.4497
  135OSM    H5S14549   5.313   5.762   2.676  2.1284  0.8708 -0.8118
  135OSM    C6S14550   5.394   5.770   2.879  0.1114 -0.2625  0.2374
  135OSM    H6S14551   5.295   5.814   2.904  1.5527  3.5990 -0.2630
  135OSM    H6T14552   5.464   5.854   2.859  2.1259 -1.5534  1.4927
  135OSM    C7S14553   5.444   5.680   2.997  0.3734  0.0533  0.3166
  135OSM    H7S14554   5.550   5.663   2.968 -0.1242 -2.0727 -0.4859
  135OSM    H7T14555   5.402   5.577   2.999  1.6320 -0.4781  0.7196
  135OSM    C8S14556   5.426   5.739   3.132 -0.1987  0.1220 -0.2984
  135OSM    H8S14557   5.322   5.772   3.154 -0.4780 -1.2490  0.5149
  135OSM    H8T14558   5.474   5.839   3.139 -2.6503  1.3998 -0.4547
  135OSM    C9S14559   5.463   5.648   3.246 -0.2979  0.1171 -0.2289
  135OSM    H9S14560   5.568   5.612   3.237  0.2528  0.9011  2.2778
  135OSM    H9T14561   5.394   5.561   3.253  0.3339 -0.5255 -1.5088
  135OSM   C10S14562   5.470   5.728   3.378 -0.2723 -0.3259  0.1642
  135OSM   H10S14563   5.528   5.823   3.371  0.6971 -0.9300 -0.2887
  135OSM   H10T14564   5.519   5.669   3.458  0.5543  1.8938  1.3490
  135OSM   C11S14565   5.328   5.769   3.426 -0.2187  0.5791  0.0208
  135OSM   H11S14566   5.259   5.688   3.393  1.3647  0.2647 -2.8047
  135OSM   H11T14567   5.295   5.862   3.375  1.3661  1.1573  0.0143
  135OSM   C12S14568   5.319   5.804   3.577  0.4723  0.2775 -0.1228
  135OSM   H12S14569   5.331   5.707   3.631  1.4522 -1.3720 -3.1057
  135OSM   H12T14570   5.218   5.850   3.588  0.9298  1.4838 -0.8484
  135OSM   C13S14571   5.418   5.904   3.640  0.9107 -0.2378 -0.2397
  135OSM   H13S14572   5.386   6.000   3.596  0.3300  1.2109  3.0222
  135OSM   H13T14573   5.525   5.879   3.623  1.0172 -0.4213  0.6533
  135OSM   C14S14574   5.389   5.909   3.795 -0.0296  0.2410 -0.5226
  135OSM   H14S14575   5.279   5.922   3.804 -0.1335  1.3510 -2.6411
  135OSM   H14T14576   5.437   5.995   3.846  0.6611 -1.1397  1.2256
  135OSM   C15S14577   5.424   5.780   3.870  0.0609  0.5908 -0.5042
  135OSM   H15S14578   5.532   5.762   3.888  0.5551  3.6759  0.2386
  135OSM   H15T14579   5.384   5.684   3.833 -0.7243 -0.1861  2.1236
  135OSM   C16S14580   5.375   5.790   4.016 -0.5226  0.9384 -0.4925
  135OSM   H16S14581   5.264   5.790   4.020 -0.5454 -1.1865 -0.4603
  135OSM   H16T14582   5.406   5.887   4.061 -1.9489  0.8584  0.7002
  135OSM   C17S14583   5.448   5.685   4.107  0.3684  0.1514  0.7420
  135OSM   H17S14584   5.410   5.686   4.211  0.5201 -1.0113  0.8235
  135OSM   H17T14585   5.557   5.704   4.106  0.2656  0.8861 -1.4964
  135OSM   C18S14586   5.436   5.542   4.058 -0.6881 -0.0752  0.4958
  135OSM   H18S14587   5.330   5.511   4.072 -0.6037 -0.4044  0.4290
  135OSM   H18T14588   5.509   5.478   4.112  0.9026  0.4068 -1.0070
  135OSM   H18U14589   5.458   5.536   3.949  0.0104  4.5983  0.1980
  135OSM    C1F14590   5.292   5.197   2.734 -0.6130  0.0949 -0.2558
  135OSM     OF14591   5.389   5.124   2.715 -0.0441  0.3907 -0.2585
  135OSM    C2F14592   5.167   5.151   2.815 -0.2489  0.3310 -0.3535
  135OSM    H2F14593   5.082   5.116   2.753  0.6723 -0.8558 -0.9903
  135OSM    H2G14594   5.136   5.245   2.866 -2.5023  0.1234 -1.2139
  135OSM    C3F14595   5.210   5.046   2.916 -0.0823 -0.3356 -0.3710
  135OSM    H3F14596   5.266   4.965   2.865  0.0282  0.5638 -1.7490
  135OSM    H3G14597   5.122   5.000   2.967  0.2859 -0.4133  0.1975
  135OSM    C4F14598   5.294   5.110   3.029 -0.4028  0.4105 -0.1344
  135OSM    H4F14599   5.222   5.178   3.079  0.1175  2.0473 -1.5419
  135OSM    H4G14600   5.381   5.168   2.991 -0.3707 -0.0601 -0.7906
  135OSM    C5F14601   5.347   5.002   3.122 -0.6548  0.3598  0.5626
  135OSM    H5F14602   5.412   4.940   3.057  0.2409  0.2083  1.5912
  135OSM    H5G14603   5.269   4.940   3.170 -0.1207 -0.6298  0.1842
  135OSM    C6F14604   5.442   5.054   3.233  0.7164  0.0199  0.0265
  135OSM    H6F14605   5.520   5.119   3.188  0.8246 -0.3563 -0.3418
  135OSM    H6G14606   5.486   4.957   3.267 -0.4766 -1.0447 -1.3199
  135OSM    C7F14607   5.354   5.132   3.337 -0.6557  0.2878 -0.2603
  135OSM    H7F14608   5.307   5.059   3.407 -2.7184  0.6277 -1.2034
  135OSM    H7G14609   5.272   5.188   3.286  0.2734  0.0468 -2.1065
  135OSM    C8F14610   5.437   5.237   3.419  0.1492 -0.9539 -0.5057
  135OSM    H8F14611   5.368   5.283   3.492 -0.8085 -0.2356 -1.8212
  135OSM    H8G14612   5.473   5.323   3.359  2.1748 -0.3591  1.4166
  135OSM    C9F14613   5.553   5.171   3.488  0.8154  0.0452 -0.2277
  135OSM    H9F14614   5.651   5.169   3.438  0.3675  1.4452 -1.2244
  135OSM   C10F14615   5.545   5.109   3.606 -0.3759 -0.2688  0.5724
  135OSM   H10F14616   5.630   5.056   3.650 -0.0345 -1.2250 -1.1461
  135OSM   C11F14617   5.423   5.086   3.687 -0.2008 -0.3008 -0.2656
  135OSM   H11F14618   5.337   5.069   3.619  0.8323 -0.5777 -1.5382
  135OSM   H11G14619   5.399   5.174   3.750  0.0397 -0.1871 -0.3321
  135OSM   C12F14620   5.416   4.958   3.782 -0.4174 -0.2293 -0.0111
  135OSM   H12F14621   5.430   4.866   3.720  0.3508  0.8581 -1.5082
  135OSM   H12G14622   5.312   4.964   3.821 -0.9045 -0.1637 -1.2838
  135OSM   C13F14623   5.511   4.956   3.902 -0.5975 -0.1510  0.1474
  135OSM   H13F14624   5.517   5.060   3.940 -0.9862  0.6711 -1.9040
  135OSM   H13G14625   5.614   4.924   3.875 -0.1480  1.7539 -0.5751
  135OSM   C14F14626   5.456   4.869   4.018 -0.9902 -0.2248  0.2408
  135OSM   H14F14627   5.517   4.892   4.107 -0.5270  1.8197 -0.5565
  135OSM   H14G14628   5.459   4.763   3.986 -2.6550 -0.3475  0.3717
  135OSM   C15F14629   5.308   4.896   4.066 -0.2908 -0.2096 -0.2303
  135OSM   H15F14630   5.238   4.852   3.992 -0.6491 -0.0740  0.0304
  135OSM   H15G14631   5.289   5.005   4.057 -0.1443 -0.1748 -0.1310
  135OSM   C16F14632   5.284   4.838   4.206 -0.1677 -0.3836  0.3719
  135OSM   H16F14633   5.340   4.900   4.280 -1.1981 -0.7149  1.4571
  135OSM   H16G14634   5.329   4.737   4.218 -0.5596 -0.5613  0.3414
  135OSM   C17F14635   5.138   4.834   4.245  0.2933  0.0923 -0.1380
  135OSM   H17F14636   5.124   4.797   4.348  1.9720 -0.8672 -0.2265
  135OSM   H17G14637   5.093   4.750   4.187 -3.4035  1.1519  0.8900
  135OSM   C18F14638   5.057   4.954   4.223 -0.4489  0.0745  0.5530
  135OSM   H18F14639   5.028   4.962   4.116  1.6022  1.8484  0.0588
  135OSM   H18G14640   5.113   5.047   4.249 -0.4232  0.6797 -1.5338
  135OSM   H18H14641   4.972   4.941   4.294  0.3714  1.2312  1.7981
  136OSM      N14642   3.201   6.501   1.923 -0.2460 -0.5565 -0.1093
  136OSM    C1514643   3.278   6.376   1.919 -0.8056 -0.0245  0.4918
  136OSM   H15A14644   3.306   6.344   1.820  0.8535  0.0257  0.9092
  136OSM   H15B14645   3.224   6.296   1.968 -2.6586  0.0604 -1.2907
  136OSM   H15C14646   3.368   6.384   1.979 -1.3335  0.1130  1.2746
  136OSM    C1414647   3.277   6.611   1.853  0.0838 -0.3924 -0.3246
  136OSM   H14A14648   3.212   6.696   1.842  1.4860  0.5480 -1.7336
  136OSM   H14B14649   3.309   6.574   1.757  0.6852 -1.2805  0.2009
  136OSM   H14C14650   3.372   6.634   1.898 -0.2359  1.0774 -0.3534
  136OSM    C1314651   3.069   6.480   1.861 -0.1160  0.1491 -0.0154
  136OSM   H13A14652   3.009   6.402   1.905  0.2302  0.3739  0.8928
  136OSM   H13B14653   3.078   6.460   1.755 -1.7524 -2.0874  0.2092
  136OSM   H13C14654   3.013   6.572   1.857 -0.8710 -0.3472 -1.4823
  136OSM    C1214655   3.179   6.541   2.067  0.3385 -0.1787  0.0460
  136OSM   H12A14656   3.105   6.473   2.107 -1.4888  1.2511 -0.7255
  136OSM   H12B14657   3.134   6.639   2.073  0.0478 -0.2116 -1.2579
  136OSM    C1114658   3.299   6.543   2.161 -0.5682 -0.2906  0.4821
  136OSM   H11A14659   3.268   6.588   2.258  2.3298  2.6864  0.2174
  136OSM   H11B14660   3.375   6.616   2.125 -0.3024  0.0097  1.5983
  136OSM      P14661   3.299   6.305   2.266  0.1731  0.1087  0.1917
  136OSM    O1314662   3.224   6.213   2.175 -0.2080 -0.5182  0.2426
  136OSM    O1414663   3.396   6.238   2.356  0.4743 -0.4227  0.1550
  136OSM    O1114664   3.196   6.388   2.352  0.1515  0.0215  0.1276
  136OSM    O1214665   3.372   6.415   2.182  0.3949 -0.0564  0.0611
  136OSM    C1S14666   3.226   6.432   2.487 -0.2566 -0.3829  0.0776
  136OSM    H1S14667   3.315   6.496   2.502 -0.9374  0.1292  2.2310
  136OSM    H1T14668   3.236   6.346   2.557 -2.7188  0.8092  2.0509
  136OSM     NF14669   3.143   6.574   2.683  0.0809 -0.7064  0.2911
  136OSM    HNF14670   3.117   6.515   2.759  0.4132 -0.3824  0.6535
  136OSM    C2S14671   3.108   6.523   2.552  0.2879 -0.2117  0.5859
  136OSM    H2S14672   3.095   6.608   2.482 -1.6774  0.0092  1.1662
  136OSM    C3S14673   2.983   6.439   2.545  0.0051 -0.3881 -0.5002
  136OSM    H3S14674   3.007   6.343   2.597 -2.0896 -0.8840 -0.3616
  136OSM     O314675   2.946   6.409   2.411  0.2912 -1.1658  0.5814
  136OSM    HO314676   3.035   6.420   2.377  1.0589 -0.8178  2.5742
  136OSM    C4S14677   2.872   6.507   2.618 -0.1492  0.5141  0.4863
  136OSM    H4S14678   2.814   6.584   2.565 -0.2866  1.1849  1.5795
  136OSM    C5S14679   2.834   6.484   2.748  0.2640 -0.8839 -0.0827
  136OSM    H5S14680   2.898   6.431   2.819 -0.3466 -1.7917 -0.1967
  136OSM    C6S14681   2.720   6.557   2.805 -0.1278  0.8674 -0.3617
  136OSM    H6S14682   2.687   6.637   2.736 -0.6832 -0.4742 -1.7060
  136OSM    H6T14683   2.766   6.605   2.894  0.1502  1.7569 -0.9706
  136OSM    C7S14684   2.596   6.474   2.844 -0.7674  0.0375 -0.8528
  136OSM    H7S14685   2.626   6.395   2.916 -1.3675  2.2889  2.0561
  136OSM    H7T14686   2.544   6.422   2.760 -1.2606  0.3040 -0.7159
  136OSM    C8S14687   2.492   6.557   2.922 -0.0977  0.1714  0.0901
  136OSM    H8S14688   2.412   6.485   2.953 -0.0346  0.7710  1.7747
  136OSM    H8T14689   2.451   6.642   2.865 -1.4261 -1.1604 -1.0269
  136OSM    C9S14690   2.538   6.605   3.059  0.2221 -0.6384 -0.1368
  136OSM    H9S14691   2.451   6.641   3.119  1.5075  3.8195 -0.5988
  136OSM    H9T14692   2.616   6.683   3.052  0.9943 -1.4719 -1.0724
  136OSM   C10S14693   2.611   6.505   3.158 -0.3792  0.5579  0.3899
  136OSM   H10S14694   2.706   6.475   3.109 -1.4015 -1.6872 -0.3318
  136OSM   H10T14695   2.548   6.414   3.162  1.0703 -0.5780 -1.2374
  136OSM   C11S14696   2.638   6.573   3.285 -0.4501  0.5019 -0.0668
  136OSM   H11S14697   2.544   6.590   3.342 -0.3643  1.0598 -0.0885
  136OSM   H11T14698   2.682   6.673   3.266  2.7245 -0.9479 -0.9753
  136OSM   C12S14699   2.726   6.487   3.366  0.3758  0.3715 -0.3632
  136OSM   H12S14700   2.831   6.491   3.330  0.5510 -0.2495  0.0686
  136OSM   H12T14701   2.707   6.378   3.371  4.4424 -0.5434 -1.3753
  136OSM   C13S14702   2.750   6.537   3.511 -0.2006  0.1435 -0.2319
  136OSM   H13S14703   2.766   6.646   3.498 -0.5879  0.2912  0.4858
  136OSM   H13T14704   2.842   6.489   3.550  0.0901  2.1041  1.6756
  136OSM   C14S14705   2.635   6.499   3.600 -0.4001  0.2403 -0.2804
  136OSM   H14S14706   2.631   6.389   3.605 -1.3265  0.2505 -0.5536
  136OSM   H14T14707   2.545   6.549   3.558 -0.0085  1.2265  0.0226
  136OSM   C15S14708   2.650   6.560   3.741 -0.5009 -0.6489 -0.4748
  136OSM   H15S14709   2.748   6.542   3.791 -0.3824  1.7364  0.3045
  136OSM   H15T14710   2.569   6.506   3.794 -0.6159  0.4660  0.5240
  136OSM   C16S14711   2.630   6.714   3.757  0.0450  0.1736 -0.1316
  136OSM   H16S14712   2.533   6.743   3.712 -1.1219  1.6390  3.0523
  136OSM   H16T14713   2.711   6.763   3.700  0.1748  0.2787  0.1398
  136OSM   C17S14714   2.628   6.758   3.903  1.0031 -0.4672  0.7941
  136OSM   H17S14715   2.638   6.867   3.889  0.0047 -0.4889 -0.2615
  136OSM   H17T14716   2.710   6.707   3.957  0.3062 -0.6260  1.7222
  136OSM   C18S14717   2.491   6.732   3.972 -0.9794 -0.4306  0.6255
  136OSM   H18S14718   2.473   6.624   3.956  0.1843 -0.3236 -2.0332
  136OSM   H18T14719   2.403   6.785   3.930 -1.1881 -0.4345  1.0586
  136OSM   H18U14720   2.515   6.766   4.075 -0.1530  1.7665 -0.2311
  136OSM    C1F14721   3.236   6.671   2.700  0.2652  0.4605 -0.4024
  136OSM     OF14722   3.248   6.764   2.620  0.3959  0.3730 -0.3631
  136OSM    C2F14723   3.319   6.655   2.825  0.4971 -0.4710  0.6284
  136OSM    H2F14724   3.388   6.569   2.815  1.1397  0.1868 -1.0235
  136OSM    H2G14725   3.250   6.646   2.912 -1.2814  1.3978 -0.4695
  136OSM    C3F14726   3.407   6.784   2.849  0.0746 -1.0703  0.7181
  136OSM    H3F14727   3.341   6.874   2.850  1.0070 -0.3441 -0.9445
  136OSM    H3G14728   3.473   6.806   2.763 -3.2946  0.9173 -1.5729
  136OSM    C4F14729   3.479   6.792   2.990  0.4997  0.8367  0.7616
  136OSM    H4F14730   3.576   6.739   2.987 -0.3145 -0.8361  2.2384
  136OSM    H4G14731   3.426   6.720   3.055 -0.2565  0.5621 -0.1311
  136OSM    C5F14732   3.479   6.938   3.042 -0.2626  0.1625  0.7211
  136OSM    H5F14733   3.377   6.952   3.085 -0.6300  0.1042 -0.1256
  136OSM    H5G14734   3.483   7.003   2.953  0.2029 -0.8592 -0.0244
  136OSM    C6F14735   3.582   6.961   3.147 -0.7292  0.0030 -0.1845
  136OSM    H6F14736   3.605   7.070   3.156  1.6486 -0.1985 -2.6473
  136OSM    H6G14737   3.684   6.921   3.127 -0.2257  0.2164  1.7116
  136OSM    C7F14738   3.546   6.901   3.283  0.2376 -0.5486  0.2663
  136OSM    H7F14739   3.635   6.871   3.343 -0.0078  0.8948  1.3976
  136OSM    H7G14740   3.487   6.807   3.272  2.1480 -1.7604 -0.2912
  136OSM    C8F14741   3.463   6.992   3.363 -1.0336 -0.0415 -0.1940
  136OSM    H8F14742   3.423   6.939   3.453 -1.4371  0.0457 -0.3178
  136OSM    H8G14743   3.370   7.019   3.308 -0.3721 -2.5499 -2.7754
  136OSM    C9F14744   3.523   7.124   3.391  0.2065 -0.1351 -0.3993
  136OSM    H9F14745   3.543   7.193   3.307 -0.0336 -1.6791 -1.7821
  136OSM   C10F14746   3.548   7.170   3.512 -0.1575  1.0477 -1.1276
  136OSM   H10F14747   3.603   7.265   3.513  1.0054  0.3915 -1.0842
  136OSM   C11F14748   3.540   7.105   3.646  0.2393  1.2718 -0.4948
  136OSM   H11F14749   3.636   7.054   3.669  0.0202  0.3102 -1.6249
  136OSM   H11G14750   3.473   7.019   3.663  2.5314 -0.5888 -0.3597
  136OSM   C12F14751   3.515   7.209   3.763  0.1888  0.1143  0.3550
  136OSM   H12F14752   3.419   7.262   3.743 -0.4405  0.1071  2.9733
  136OSM   H12G14753   3.598   7.282   3.754  0.8848 -0.7760 -0.6558
  136OSM   C13F14754   3.512   7.155   3.901 -0.3933  0.6160  0.3866
  136OSM   H13F14755   3.596   7.085   3.922 -0.6442  0.0582 -0.4433
  136OSM   H13G14756   3.432   7.079   3.901  0.4027 -0.2435 -0.0708
  136OSM   C14F14757   3.509   7.259   4.008 -0.3727  0.4822 -0.1247
  136OSM   H14F14758   3.458   7.354   3.978 -1.5848  0.5069  1.8239
  136OSM   H14G14759   3.616   7.286   4.020 -0.2554 -0.3859  0.9457
  136OSM   C15F14760   3.469   7.201   4.143  0.8385  0.9532 -0.0345
  136OSM   H15F14761   3.518   7.103   4.161  0.5571  0.6446 -0.9023
  136OSM   H15G14762   3.362   7.171   4.137  1.4610 -1.1402 -2.3887
  136OSM   C16F14763   3.474   7.298   4.263  0.1845 -0.2936 -0.2955
  136OSM   H16F14764   3.400   7.376   4.235 -2.2966 -2.6964 -0.8225
  136OSM   H16G14765   3.576   7.338   4.282 -0.5214  0.9307  1.0673
  136OSM   C17F14766   3.430   7.228   4.392  0.0085 -0.2944 -0.3373
  136OSM   H17F14767   3.526   7.184   4.426  0.1925  0.5754  0.2815
  136OSM   H17G14768   3.357   7.146   4.371 -1.1715  1.0362 -1.6191
  136OSM   C18F14769   3.386   7.310   4.505  0.5789 -0.4100 -0.5977
  136OSM   H18F14770   3.277   7.332   4.495  0.4516 -1.3473 -1.4184
  136OSM   H18G14771   3.436   7.409   4.500  1.9061 -1.1156 -2.3654
  136OSM   H18H14772   3.399   7.266   4.606  0.8470 -0.0877 -0.4932
  137OSM      N14773   6.558   4.229   2.460  0.4210  0.0334 -0.3917
  137OSM    C1514774   6.478   4.103   2.488 -0.7149 -0.7195 -0.8727
  137OSM   H15A14775   6.424   4.099   2.581  1.8148 -1.7382  0.6603
  137OSM   H15B14776   6.554   4.026   2.495 -0.0119  0.0330  0.1837
  137OSM   H15C14777   6.405   4.084   2.411 -1.4499  0.2327 -0.4347
  137OSM    C1414778   6.626   4.191   2.326 -0.3768  0.0551 -0.3555
  137OSM   H14A14779   6.667   4.284   2.289 -0.9581  0.2366 -0.5619
  137OSM   H14B14780   6.555   4.156   2.252 -0.3705  0.4206 -0.5392
  137OSM   H14C14781   6.707   4.123   2.346  0.7549  1.1477 -1.0505
  137OSM    C1314782   6.461   4.349   2.440  0.4472  0.2687 -0.5397
  137OSM   H13A14783   6.518   4.440   2.424 -1.0476  1.1412 -1.1732
  137OSM   H13B14784   6.391   4.365   2.521 -0.2233  0.6266 -1.1809
  137OSM   H13C14785   6.398   4.330   2.354  0.8841 -0.6401 -0.6645
  137OSM    C1214786   6.659   4.256   2.568  0.2917  0.0959 -0.2813
  137OSM   H12A14787   6.710   4.164   2.592 -1.1612 -0.2637  1.6677
  137OSM   H12B14788   6.621   4.310   2.654  1.8626 -1.4878  1.4898
  137OSM    C1114789   6.771   4.347   2.525  0.2689  0.5710 -0.8116
  137OSM   H11A14790   6.832   4.305   2.442 -0.0273 -0.0113 -0.7419
  137OSM   H11B14791   6.835   4.361   2.614 -0.9513  0.7329  0.0653
  137OSM      P14792   6.745   4.558   2.370 -0.3290 -0.0784  0.5753
  137OSM    O1314793   6.761   4.466   2.259  0.3035 -0.4395  0.2294
  137OSM    O1414794   6.641   4.662   2.363 -0.3541 -0.1491  0.0705
  137OSM    O1114795   6.882   4.612   2.404 -0.3539 -0.2836  0.2445
  137OSM    O1214796   6.715   4.472   2.494  0.3344 -0.1715 -0.5689
  137OSM    C1S14797   6.915   4.710   2.500 -0.1215 -0.1155 -0.0896
  137OSM    H1S14798   6.826   4.754   2.549  2.2293  1.7091  2.8325
  137OSM    H1T14799   6.968   4.796   2.453 -2.1234  0.2173 -1.9113
  137OSM     NF14800   7.012   4.757   2.715  0.2584 -0.7578  0.2901
  137OSM    HNF14801   7.077   4.832   2.708  1.4629 -1.7645  0.3191
  137OSM    C2S14802   7.002   4.653   2.615 -0.1687  0.0063 -1.0890
  137OSM    H2S14803   6.948   4.569   2.664  0.0372 -1.1545 -2.7671
  137OSM    C3S14804   7.149   4.607   2.569  0.5090  0.1454  0.7264
  137OSM    H3S14805   7.214   4.697   2.559  1.0499 -0.3718 -0.5935
  137OSM     O314806   7.145   4.520   2.455 -0.6371 -0.4339  0.1879
  137OSM    HO314807   7.051   4.525   2.436 -0.3040  1.6490 -1.3404
  137OSM    C4S14808   7.209   4.536   2.691 -0.5371  0.8223  0.4273
  137OSM    H4S14809   7.289   4.581   2.753 -0.3569 -1.5420  2.0621
  137OSM    C5S14810   7.148   4.432   2.750  0.2019  0.6290  0.4652
  137OSM    H5S14811   7.057   4.396   2.700 -0.3088 -0.6113  2.1781
  137OSM    C6S14812   7.207   4.364   2.875 -0.2607  0.0501 -0.3951
  137OSM    H6S14813   7.159   4.265   2.890 -3.6234  1.7663  1.4615
  137OSM    H6T14814   7.166   4.422   2.960  0.2377 -2.8326  1.9579
  137OSM    C7S14815   7.359   4.355   2.882 -0.1388  0.1101 -0.5094
  137OSM    H7S14816   7.408   4.454   2.870 -2.0500  1.3276  1.0559
  137OSM    H7T14817   7.382   4.283   2.801 -0.6775 -2.0896  1.1548
  137OSM    C8S14818   7.414   4.297   3.009 -0.2311  0.2300 -1.0361
  137OSM    H8S14819   7.525   4.297   3.009 -0.2317  0.2932 -1.1095
  137OSM    H8T14820   7.390   4.191   3.031  0.4415  0.3637  0.4749
  137OSM    C9S14821   7.368   4.375   3.125  0.2412 -0.1064  0.4611
  137OSM    H9S14822   7.259   4.365   3.141  0.7060 -2.3947  3.0584
  137OSM    H9T14823   7.397   4.481   3.112 -1.2053  0.2463 -0.0688
  137OSM   C10S14824   7.431   4.337   3.264 -0.1616 -0.5668  0.3711
  137OSM   H10S14825   7.538   4.311   3.251 -0.3580 -0.6717 -1.3727
  137OSM   H10T14826   7.393   4.239   3.300 -0.5747 -0.4280  0.3181
  137OSM   C11S14827   7.407   4.448   3.369 -0.0607 -0.9882  0.1826
  137OSM   H11S14828   7.299   4.473   3.369 -0.0793 -0.8969 -1.5831
  137OSM   H11T14829   7.444   4.540   3.318 -2.1071  0.1120  0.5456
  137OSM   C12S14830   7.455   4.411   3.500 -0.2274 -0.0707 -0.2940
  137OSM   H12S14831   7.557   4.368   3.503 -0.5971 -0.9510  1.5281
  137OSM   H12T14832   7.395   4.327   3.541  2.5882 -2.4489 -0.7300
  137OSM   C13S14833   7.458   4.529   3.604  0.6313 -0.0368 -0.0648
  137OSM   H13S14834   7.357   4.574   3.612  0.3227 -0.4512 -1.3142
  137OSM   H13T14835   7.523   4.609   3.563  0.3551 -0.3892 -1.2355
  137OSM   C14S14836   7.486   4.481   3.749  0.3309  0.1133 -0.4890
  137OSM   H14S14837   7.577   4.420   3.763  0.5273  0.5602  0.2446
  137OSM   H14T14838   7.408   4.414   3.792  2.1768 -0.5798  2.0247
  137OSM   C15S14839   7.495   4.603   3.851 -0.6028  0.0954 -0.3063
  137OSM   H15S14840   7.417   4.681   3.839  0.1739  0.6591 -2.0950
  137OSM   H15T14841   7.584   4.663   3.824 -1.2155 -0.1400 -3.2457
  137OSM   C16S14842   7.504   4.567   4.004  0.6007  0.7896  0.1701
  137OSM   H16S14843   7.557   4.650   4.056 -2.3066  1.6396  2.0522
  137OSM   H16T14844   7.566   4.477   4.021 -0.3982  0.2191  0.9516
  137OSM   C17S14845   7.369   4.562   4.060  1.2136  0.5895  0.4294
  137OSM   H17S14846   7.312   4.473   4.028  1.5424 -0.0919  1.6658
  137OSM   H17T14847   7.305   4.644   4.020 -1.9292 -2.0730 -0.4609
  137OSM   C18S14848   7.351   4.576   4.214 -0.9228  0.1852  0.0682
  137OSM   H18S14849   7.354   4.685   4.238  0.1648  0.3589 -0.7469
  137OSM   H18T14850   7.437   4.524   4.263 -1.5032 -1.3934 -0.5393
  137OSM   H18U14851   7.257   4.531   4.251  0.2223 -0.8782  1.8542
  137OSM    C1F14852   6.907   4.777   2.802  0.4656 -0.0883  0.5900
  137OSM     OF14853   6.810   4.700   2.797 -0.2050 -0.3503  0.1194
  137OSM    C2F14854   6.921   4.894   2.904  0.3438  0.4310  0.3081
  137OSM    H2F14855   6.996   4.954   2.849 -2.3160  0.8083 -3.2076
  137OSM    H2G14856   6.966   4.859   3.000  0.4278 -2.7358 -0.7707
  137OSM    C3F14857   6.794   4.974   2.941 -0.3994  0.9749  0.4428
  137OSM    H3F14858   6.748   4.941   3.036 -0.0984  1.1085  0.6385
  137OSM    H3G14859   6.728   4.962   2.853  2.7125  0.5900 -2.0221
  137OSM    C4F14860   6.819   5.126   2.958 -0.6427  0.4203 -0.6747
  137OSM    H4F14861   6.861   5.169   2.864 -0.7339 -0.1691 -0.9863
  137OSM    H4G14862   6.904   5.145   3.026  0.0162  2.2243 -1.9079
  137OSM    C5F14863   6.699   5.208   3.002 -0.3556 -0.2704 -0.2141
  137OSM    H5F14864   6.612   5.188   2.936  1.1629 -0.5725 -2.2386
  137OSM    H5G14865   6.738   5.312   2.991  0.7725 -0.3880  2.0569
  137OSM    C6F14866   6.657   5.185   3.147  0.0820  0.6075  0.0690
  137OSM    H6F14867   6.571   5.115   3.154 -0.0164  0.5903 -1.0667
  137OSM    H6G14868   6.622   5.281   3.189  2.2290  1.0429  0.9969
  137OSM    C7F14869   6.767   5.142   3.243  0.0689  0.0118 -0.5444
  137OSM    H7F14870   6.851   5.213   3.247 -0.5145  0.8011 -1.6991
  137OSM    H7G14871   6.818   5.053   3.200 -2.0263 -0.5936 -1.9688
  137OSM    C8F14872   6.717   5.114   3.389 -0.3095 -0.8727 -0.6385
  137OSM    H8F14873   6.651   5.026   3.375  0.2881 -1.3856 -0.2379
  137OSM    H8G14874   6.656   5.203   3.418  0.0328 -0.1895 -1.9149
  137OSM    C9F14875   6.831   5.074   3.487 -0.9373 -0.2606 -0.0523
  137OSM    H9F14876   6.885   5.161   3.527 -0.0914 -0.1728 -1.3307
  137OSM   C10F14877   6.869   4.949   3.525  0.2299  0.1519 -0.3791
  137OSM   H10F14878   6.944   4.930   3.603  1.6058 -0.9737 -1.9230
  137OSM   C11F14879   6.809   4.818   3.488  0.2909 -0.6838  0.1386
  137OSM   H11F14880   6.873   4.754   3.423 -0.0895 -0.2908 -0.6467
  137OSM   H11G14881   6.729   4.838   3.413  0.2202  1.8791  0.8089
  137OSM   C12F14882   6.750   4.750   3.613 -0.8416  0.8070  0.4319
  137OSM   H12F14883   6.832   4.728   3.684  1.2449  0.0278 -2.0667
  137OSM   H12G14884   6.705   4.653   3.584 -1.5358  0.8223  1.4166
  137OSM   C13F14885   6.635   4.824   3.675  0.2317  0.7347 -0.3739
  137OSM   H13F14886   6.547   4.792   3.614  1.1056 -4.1661  0.4738
  137OSM   H13G14887   6.643   4.934   3.667  0.7824  0.6495 -1.0965
  137OSM   C14F14888   6.586   4.771   3.816  0.1893 -0.7293  0.1173
  137OSM   H14F14889   6.558   4.666   3.795 -0.3515 -0.1973 -2.0630
  137OSM   H14G14890   6.506   4.843   3.845  1.8697  1.2476  0.0418
  137OSM   C15F14891   6.709   4.798   3.911  0.7627 -0.3235  0.0299
  137OSM   H15F14892   6.743   4.900   3.885  0.0553 -0.2853 -0.8167
  137OSM   H15G14893   6.798   4.736   3.887  0.9780  0.1525 -0.4033
  137OSM   C16F14894   6.682   4.795   4.059 -0.6825  0.0304 -0.5738
  137OSM   H16F14895   6.687   4.691   4.098  1.4016  1.0929  2.3922
  137OSM   H16G14896   6.587   4.845   4.087 -0.2851  0.3508  0.2419
  137OSM   C17F14897   6.798   4.863   4.138  0.4782 -0.8062  0.2138
  137OSM   H17F14898   6.805   4.967   4.099  2.0038 -0.6916  0.7186
  137OSM   H17G14899   6.890   4.802   4.129 -0.2702 -2.0784  0.8372
  137OSM   C18F14900   6.773   4.860   4.290  0.2815 -0.3212  0.3826
  137OSM   H18F14901   6.787   4.757   4.330 -0.5475 -0.6058 -0.0173
  137OSM   H18G14902   6.668   4.885   4.318  0.2831 -0.6525  0.7054
  137OSM   H18H14903   6.839   4.932   4.342 -0.5260  2.5029 -2.1800
  138OSM      N14904   6.696   0.929   1.704  0.6623 -0.0214  0.0571
  138OSM    C1514905   6.555   0.933   1.633  0.4109  0.0560  0.1560
  138OSM   H15A14906   6.528   0.829   1.626  0.3076  0.0494  0.6278
  138OSM   H15B14907   6.565   0.980   1.536  0.3093 -0.1732  0.0347
  138OSM   H15C14908   6.479   0.975   1.698 -0.0325  3.4015 -2.2285
  138OSM    C1414909   6.794   0.876   1.604  0.1936 -0.6859  0.0188
  138OSM   H14A14910   6.778   0.774   1.574 -0.4084 -0.6331  0.1572
  138OSM   H14B14911   6.894   0.887   1.645  0.6083  0.3378 -1.1887
  138OSM   H14C14912   6.793   0.938   1.515  0.1805  0.9070  1.0809
  138OSM    C1314913   6.734   1.072   1.740  0.6220 -0.5913 -0.2354
  138OSM   H13A14914   6.751   1.115   1.642  1.5904 -1.2482 -0.3743
  138OSM   H13B14915   6.821   1.075   1.803  0.4192  2.0664 -0.0044
  138OSM   H13C14916   6.648   1.115   1.788 -0.1366 -2.0402 -0.2293
  138OSM    C1214917   6.691   0.842   1.828 -0.1150  0.5430 -0.8870
  138OSM   H12A14918   6.637   0.752   1.806 -0.0017  0.0419  0.7406
  138OSM   H12B14919   6.641   0.894   1.908  0.5177 -0.4470  0.1900
  138OSM    C1114920   6.826   0.791   1.894  0.4953  0.5441 -0.0826
  138OSM   H11A14921   6.886   0.745   1.812  2.6384 -0.9705  2.2100
  138OSM   H11B14922   6.810   0.706   1.964 -0.7331  0.7641 -0.0733
  138OSM      P14923   6.893   0.923   2.109  0.1621 -0.3723  0.2376
  138OSM    O1314924   7.006   1.015   2.140  0.2400  0.2454 -0.6302
  138OSM    O1414925   6.757   0.977   2.138  0.2701 -0.3691  0.2105
  138OSM    O1114926   6.909   0.785   2.179 -0.1832  0.6713 -0.8186
  138OSM    O1214927   6.899   0.898   1.948 -0.2856 -0.1715 -0.4151
  138OSM    C1S14928   6.925   0.775   2.324 -0.1654  0.2924  0.4879
  138OSM    H1S14929   7.006   0.845   2.352 -1.0821  2.3532 -1.5863
  138OSM    H1T14930   6.971   0.676   2.339  2.0772  0.2925 -4.4000
  138OSM     NF14931   6.831   0.824   2.548  0.1410 -0.0055 -0.4528
  138OSM    HNF14932   6.812   0.746   2.606 -0.3993 -0.1141 -0.7693
  138OSM    C2S14933   6.796   0.809   2.406 -0.1935  0.4169 -0.2094
  138OSM    H2S14934   6.758   0.906   2.367  3.5062  1.5626 -1.3056
  138OSM    C3S14935   6.696   0.696   2.371  0.8741  0.6028  0.0328
  138OSM    H3S14936   6.728   0.595   2.405 -0.8984 -0.0301 -0.0524
  138OSM     O314937   6.673   0.681   2.232  0.3863 -0.5944  0.2486
  138OSM    HO314938   6.751   0.732   2.209 -0.4289  0.8992  0.6710
  138OSM    C4S14939   6.565   0.726   2.438  0.0917 -0.0520  0.3732
  138OSM    H4S14940   6.514   0.817   2.404 -1.7115 -1.4591 -0.8947
  138OSM    C5S14941   6.515   0.655   2.540 -0.2477  0.2981 -0.8357
  138OSM    H5S14942   6.577   0.574   2.580  0.5389  0.8784 -0.8508
  138OSM    C6S14943   6.395   0.688   2.626  0.4093 -0.3589 -0.9355
  138OSM    H6S14944   6.319   0.751   2.575  1.1702  0.5771 -0.9340
  138OSM    H6T14945   6.432   0.740   2.718  0.3329 -0.7295 -0.6913
  138OSM    C7S14946   6.320   0.559   2.670 -0.5668 -0.4135  0.4380
  138OSM    H7S14947   6.384   0.502   2.739 -2.1899 -0.9976  1.5220
  138OSM    H7T14948   6.300   0.492   2.584 -0.7165 -0.1787  0.2860
  138OSM    C8S14949   6.188   0.595   2.740  0.2500  0.2147  0.6439
  138OSM    H8S14950   6.121   0.507   2.734  0.0044  0.2811  2.1035
  138OSM    H8T14951   6.140   0.673   2.677  0.8181 -0.3825 -0.5685
  138OSM    C9S14952   6.202   0.642   2.879 -0.1235 -0.3148 -0.6956
  138OSM    H9S14953   6.101   0.677   2.908  0.8134  1.4600  0.6686
  138OSM    H9T14954   6.268   0.731   2.886 -2.1694  1.1764  1.0834
  138OSM   C10S14955   6.250   0.538   2.982  0.5292  0.1781  0.0631
  138OSM   H10S14956   6.349   0.497   2.949 -0.4699 -1.8348 -0.6066
  138OSM   H10T14957   6.174   0.457   2.975 -0.1296  0.7674  0.3251
  138OSM   C11S14958   6.249   0.596   3.121  0.5377  0.6281 -0.4841
  138OSM   H11S14959   6.173   0.677   3.132  2.3312  2.1153  1.6206
  138OSM   H11T14960   6.344   0.641   3.154  0.4153  1.9395 -1.7949
  138OSM   C12S14961   6.226   0.489   3.235  0.2085  0.2194  0.6205
  138OSM   H12S14962   6.305   0.414   3.214 -0.3749  0.2038 -1.8937
  138OSM   H12T14963   6.132   0.440   3.202 -0.0540  0.9225  0.2936
  138OSM   C13S14964   6.212   0.539   3.375 -0.6940  0.7325 -0.3859
  138OSM   H13S14965   6.111   0.572   3.405  0.1506  1.3592  2.0196
  138OSM   H13T14966   6.268   0.633   3.394 -1.8052  1.0290  1.6980
  138OSM   C14S14967   6.260   0.443   3.483 -0.1919  0.4991  0.2361
  138OSM   H14S14968   6.370   0.430   3.486 -0.3351 -0.8472  0.4066
  138OSM   H14T14969   6.205   0.349   3.461 -0.4446  0.7803 -0.3497
  138OSM   C15S14970   6.206   0.489   3.620  0.1435 -0.3597 -0.0057
  138OSM   H15S14971   6.259   0.436   3.702  1.2724  1.2732  0.3764
  138OSM   H15T14972   6.096   0.479   3.618  0.2709 -1.8566 -1.8253
  138OSM   C16S14973   6.224   0.635   3.655  0.5918  0.3961 -0.5704
  138OSM   H16S14974   6.146   0.698   3.608  0.8764  1.4700  0.3607
  138OSM   H16T14975   6.319   0.671   3.608  0.6130 -0.0628 -0.8921
  138OSM   C17S14976   6.237   0.666   3.804 -0.5154 -0.2673  0.6513
  138OSM   H17S14977   6.274   0.768   3.825 -0.1523 -0.2800  0.0686
  138OSM   H17T14978   6.307   0.592   3.850  0.0582 -0.6733 -0.8268
  138OSM   C18S14979   6.104   0.646   3.881 -0.0335  0.3870 -0.1527
  138OSM   H18S14980   6.086   0.537   3.887 -1.7515  0.3444 -3.5595
  138OSM   H18T14981   6.029   0.710   3.830 -1.3195 -1.9674 -1.3742
  138OSM   H18U14982   6.106   0.686   3.985 -2.1875 -2.1850  0.9872
  138OSM    C1F14983   6.911   0.927   2.580  0.4024  0.0780  0.4444
  138OSM     OF14984   6.911   1.031   2.508  0.5043  0.7756 -0.5572
  138OSM    C2F14985   6.983   0.911   2.711  0.4185  0.7914 -0.0707
  138OSM    H2F14986   7.046   0.819   2.710  0.1476  0.6066 -0.3560
  138OSM    H2G14987   6.899   0.893   2.781  0.9251  0.7965  0.5510
  138OSM    C3F14988   7.046   1.038   2.761 -0.6665 -0.1858 -0.0470
  138OSM    H3F14989   6.982   1.128   2.748  0.3437  0.4147 -1.1588
  138OSM    H3G14990   7.139   1.052   2.701 -1.1164  0.3809 -0.6306
  138OSM    C4F14991   7.091   1.036   2.910  0.1103  0.2565  0.0143
  138OSM    H4F14992   7.141   1.134   2.929  1.6436  0.0203 -2.3683
  138OSM    H4G14993   7.157   0.946   2.912  0.0117 -0.0963 -4.2137
  138OSM    C5F14994   6.973   1.012   3.012 -0.0423 -0.0271 -0.2122
  138OSM    H5F14995   6.911   0.924   2.982  1.0604 -1.6321  1.9743
  138OSM    H5G14996   6.905   1.100   3.008 -0.2401  0.0485  2.7404
  138OSM    C6F14997   7.025   0.997   3.158 -0.3456 -1.6835  0.0080
  138OSM    H6F14998   7.067   1.095   3.189 -1.1144 -1.5943  0.7968
  138OSM    H6G14999   7.102   0.917   3.148  2.7601  1.0179  0.3692
  138OSM    C7F15000   6.911   0.946   3.251  0.1181 -0.6856 -0.5106
  138OSM    H7F15001   6.881   0.843   3.222 -1.7061 -0.7681  1.4675
  138OSM    H7G15002   6.825   1.012   3.226 -0.7436 -0.3342  2.9653
  138OSM    C8F15003   6.949   0.951   3.400  0.0477  0.1559 -0.3639
  138OSM    H8F15004   6.868   0.918   3.469  1.7131 -0.9853  1.1452
  138OSM    H8G15005   6.971   1.057   3.428  0.3532 -0.6824  3.0758
  138OSM    C9F15006   7.062   0.863   3.432 -0.0313  0.0507 -0.2790
  138OSM    H9F15007   7.052   0.763   3.388  0.1291  0.4138 -1.1609
  138OSM   C10F15008   7.163   0.880   3.521  0.1777 -0.1800 -0.7303
  138OSM   H10F15009   7.222   0.790   3.545 -1.9032 -1.3409  0.3406
  138OSM   C11F15010   7.192   1.005   3.600 -0.6840 -0.0537 -0.5523
  138OSM   H11F15011   7.160   1.099   3.551  0.1933 -0.5592 -2.1767
  138OSM   H11G15012   7.300   1.023   3.580 -0.6894 -1.6114 -2.2194
  138OSM   C12F15013   7.162   0.995   3.748 -0.4749 -0.0725 -0.6322
  138OSM   H12F15014   7.226   1.072   3.797 -0.1664  0.7771 -2.2941
  138OSM   H12G15015   7.194   0.897   3.789  0.3916 -0.4475 -2.1052
  138OSM   C13F15016   7.021   1.020   3.793  0.6238 -0.4418  1.6296
  138OSM   H13F15017   6.954   0.938   3.759  0.7391  0.4231 -0.9463
  138OSM   H13G15018   6.973   1.108   3.744  0.3877  0.0143  2.6592
  138OSM   C14F15019   7.008   1.039   3.945 -0.8630 -0.5039  0.5072
  138OSM   H14F15020   7.082   0.973   3.994 -0.1201  0.6746  1.0016
  138OSM   H14G15021   6.903   1.020   3.979 -0.5018  0.5443  2.3130
  138OSM   C15F15022   7.044   1.184   3.986  0.2812 -0.2389 -0.2624
  138OSM   H15F15023   6.984   1.254   3.924 -0.5218  1.0382  1.8515
  138OSM   H15G15024   7.153   1.198   3.968  0.4805  0.7349  1.4280
  138OSM   C16F15025   7.016   1.207   4.130  0.2376 -0.5098 -0.0118
  138OSM   H16F15026   7.047   1.307   4.168 -1.3594  0.1848 -0.4222
  138OSM   H16G15027   7.074   1.129   4.184  1.1617 -0.3502 -0.7474
  138OSM   C17F15028   6.870   1.209   4.166  0.4512  0.9008  0.0713
  138OSM   H17F15029   6.825   1.112   4.137  1.8847  0.0854  0.4858
  138OSM   H17G15030   6.823   1.291   4.107  1.8306  0.1771 -2.1654
  138OSM   C18F15031   6.856   1.226   4.318  0.3467  0.5017  0.4685
  138OSM   H18F15032   6.889   1.136   4.374  0.5304  0.3548  0.1247
  138OSM   H18G15033   6.748   1.225   4.345  0.2310  0.7394  0.0176
  138OSM   H18H15034   6.914   1.315   4.352  2.0833 -0.0079 -1.0141
  139OSM      N15035   6.753   5.076   2.323  0.4690  0.1575  0.0520
  139OSM    C1515036   6.610   5.059   2.370  0.2356  0.5463 -0.2582
  139OSM   H15A15037   6.593   4.970   2.429 -2.2186  0.8528 -0.4115
  139OSM   H15B15038   6.540   5.066   2.288  0.4001  2.4028 -0.2904
  139OSM   H15C15039   6.578   5.141   2.433 -3.0512 -1.2241  0.5699
  139OSM    C1415040   6.783   4.964   2.228 -0.6707  0.3912 -1.2210
  139OSM   H14A15041   6.714   4.960   2.145 -1.1851  1.0837 -0.8325
  139OSM   H14B15042   6.771   4.873   2.284 -0.8082 -0.2694 -2.3105
  139OSM   H14C15043   6.884   4.972   2.189 -0.7778  0.9785 -1.3951
  139OSM    C1315044   6.765   5.198   2.245  0.2107 -0.2555 -0.3825
  139OSM   H13A15045   6.867   5.203   2.211  0.5486 -2.3649  0.1427
  139OSM   H13B15046   6.743   5.283   2.309  2.9981  0.8536 -0.7530
  139OSM   H13C15047   6.700   5.196   2.159 -1.6467  1.2466  0.8885
  139OSM    C1215048   6.844   5.069   2.447  0.0454 -0.2604 -0.4893
  139OSM   H12A15049   6.835   4.971   2.492  2.2216 -0.4691 -0.4248
  139OSM   H12B15050   6.814   5.149   2.512  2.0040  1.0561 -1.1204
  139OSM    C1115051   6.993   5.079   2.427  0.1083  0.7443  0.0997
  139OSM   H11A15052   7.016   5.187   2.411 -1.2693  1.0753  0.2979
  139OSM   H11B15053   7.020   5.024   2.334 -0.8006 -0.2175  0.3916
  139OSM      P15054   7.203   5.037   2.568 -0.0493 -0.2721  0.0918
  139OSM    O1315055   7.221   4.937   2.675 -0.5065  0.3306 -0.0074
  139OSM    O1415056   7.275   5.015   2.441  1.6767 -0.4578  0.8454
  139OSM    O1115057   7.205   5.190   2.611 -0.0459 -0.0378 -0.8719
  139OSM    O1215058   7.053   5.023   2.539  0.1728 -0.0976  0.2790
  139OSM    C1S15059   7.134   5.221   2.729 -0.2247  0.1066 -0.2487
  139OSM    H1S15060   7.168   5.164   2.819  1.3959  0.1703 -0.7901
  139OSM    H1T15061   7.025   5.199   2.725  0.1377 -3.0727  2.6096
  139OSM     NF15062   7.070   5.405   2.885  0.1084  0.1951 -0.6183
  139OSM    HNF15063   6.979   5.443   2.870 -1.1949 -3.6428 -4.8735
  139OSM    C2S15064   7.141   5.375   2.764 -0.2604  0.3681  0.8187
  139OSM    H2S15065   7.248   5.396   2.783  0.1801  2.0222 -2.7190
  139OSM    C3S15066   7.094   5.458   2.641  0.1500 -0.3874 -0.1641
  139OSM    H3S15067   6.988   5.431   2.625 -0.4311  2.4766 -1.8636
  139OSM     O315068   7.161   5.439   2.517  0.0199 -0.1943  0.1333
  139OSM    HO315069   7.190   5.348   2.522  2.8691  0.5762 -0.6566
  139OSM    C4S15070   7.102   5.605   2.684  0.3261 -0.3769  0.9202
  139OSM    H4S15071   7.007   5.650   2.716 -0.7237 -0.8686 -1.3109
  139OSM    C5S15072   7.217   5.673   2.686 -0.6958  0.4457 -0.3494
  139OSM    H5S15073   7.312   5.620   2.665 -0.8788 -0.3380  0.7142
  139OSM    C6S15074   7.236   5.819   2.736 -0.4787  0.5547  0.0022
  139OSM    H6S15075   7.139   5.868   2.758 -0.0518  1.3700  0.1257
  139OSM    H6T15076   7.291   5.892   2.672  2.8465 -1.0051  0.8645
  139OSM    C7S15077   7.311   5.806   2.872 -0.0663 -0.4888  0.1383
  139OSM    H7S15078   7.338   5.912   2.889 -0.5516  0.0859 -2.2337
  139OSM    H7T15079   7.405   5.748   2.860  0.6629  0.1209  2.5049
  139OSM    C8S15080   7.229   5.744   2.988 -0.2839  0.5171  0.0922
  139OSM    H8S15081   7.204   5.637   2.973 -1.9756  1.0864 -1.4036
  139OSM    H8T15082   7.136   5.799   3.012 -1.7325 -2.5869  2.2994
  139OSM    C9S15083   7.307   5.749   3.125  0.4780  0.4144  0.7452
  139OSM    H9S15084   7.365   5.844   3.124 -0.3374  0.9714 -2.0256
  139OSM    H9T15085   7.369   5.657   3.128 -2.9828 -2.1324 -0.0153
  139OSM   C10S15086   7.220   5.744   3.248 -0.0497 -0.1036  0.2765
  139OSM   H10S15087   7.171   5.647   3.224  0.0170  0.3659 -1.9318
  139OSM   H10T15088   7.133   5.812   3.240 -2.5780 -3.1785 -0.8846
  139OSM   C11S15089   7.291   5.741   3.381 -0.0236  0.5551 -0.6603
  139OSM   H11S15090   7.384   5.680   3.385 -0.3593 -0.1215 -2.1985
  139OSM   H11T15091   7.216   5.698   3.451  0.7089  0.2467 -0.0466
  139OSM   C12S15092   7.325   5.885   3.427 -0.2697  0.1963 -0.0694
  139OSM   H12S15093   7.234   5.946   3.411 -0.2388 -0.0884 -1.4637
  139OSM   H12T15094   7.406   5.921   3.360 -1.0095  2.3043  0.1146
  139OSM   C13S15095   7.377   5.904   3.572 -0.2891  0.0903 -0.2198
  139OSM   H13S15096   7.397   6.013   3.584 -1.5636  0.3957 -0.7296
  139OSM   H13T15097   7.467   5.841   3.588 -1.3612 -1.2182  0.9363
  139OSM   C14S15098   7.278   5.870   3.685  0.1549  0.8082 -0.6965
  139OSM   H14S15099   7.257   5.761   3.677  1.8953  0.1088  2.4091
  139OSM   H14T15100   7.183   5.923   3.662 -0.3552  0.8382  1.2733
  139OSM   C15S15101   7.343   5.902   3.817  0.8948 -0.5909 -0.5923
  139OSM   H15S15102   7.375   6.009   3.817 -0.2419 -0.2005 -2.4360
  139OSM   H15T15103   7.436   5.843   3.829 -0.2344 -2.2884  0.0887
  139OSM   C16S15104   7.259   5.871   3.940 -0.0983  0.6934  0.4431
  139OSM   H16S15105   7.244   5.763   3.918 -0.6262  1.3377 -2.9230
  139OSM   H16T15106   7.156   5.909   3.928  0.3379  1.6457 -0.4190
  139OSM   C17S15107   7.333   5.896   4.070  0.7957 -0.2025 -0.5888
  139OSM   H17S15108   7.314   6.003   4.091  2.6326 -0.2660  1.8988
  139OSM   H17T15109   7.443   5.878   4.069  1.1283  1.6796 -0.6716
  139OSM   C18S15110   7.276   5.794   4.169  0.2202 -0.4724  0.1371
  139OSM   H18S15111   7.166   5.795   4.185 -0.3481 -2.3246 -2.8646
  139OSM   H18T15112   7.325   5.825   4.263  2.9119  0.9070 -1.6039
  139OSM   H18U15113   7.315   5.693   4.146  1.2633 -0.7997  3.0392
  139OSM    C1F15114   7.116   5.381   3.008  0.6133 -0.0448  0.2505
  139OSM     OF15115   7.226   5.326   3.019  0.0732 -0.7994 -0.3039
  139OSM    C2F15116   7.034   5.442   3.121  0.3643  0.3109 -0.0114
  139OSM    H2F15117   6.928   5.418   3.098  0.4057  0.8928 -0.8017
  139OSM    H2G15118   7.047   5.552   3.112  3.2109  0.0445  0.0006
  139OSM    C3F15119   7.061   5.399   3.262  0.1820 -0.4448  0.2717
  139OSM    H3F15120   7.168   5.423   3.278  0.9756 -2.7776 -0.9266
  139OSM    H3G15121   7.058   5.287   3.263  0.0544 -0.4894 -1.7946
  139OSM    C4F15122   6.984   5.474   3.366  0.6197  0.1330  0.7422
  139OSM    H4F15123   6.878   5.442   3.359  0.6461  0.1963  0.0258
  139OSM    H4G15124   6.991   5.583   3.345 -0.7880  0.1513  0.2520
  139OSM    C5F15125   7.028   5.452   3.507 -0.3705 -0.2213  0.2341
  139OSM    H5F15126   7.127   5.502   3.516  0.5881 -2.2360  1.4194
  139OSM    H5G15127   7.042   5.345   3.533  1.7472 -0.6096 -2.0945
  139OSM    C6F15128   6.919   5.514   3.599  0.0312 -0.5972 -0.5620
  139OSM    H6F15129   6.828   5.452   3.590  0.8980 -1.6377 -3.2103
  139OSM    H6G15130   6.892   5.612   3.554 -1.3579 -1.5281 -1.8317
  139OSM    C7F15131   6.968   5.539   3.736  0.0007 -0.2150 -0.3625
  139OSM    H7F15132   7.044   5.619   3.730 -1.3026  1.3336  2.0636
  139OSM    H7G15133   7.011   5.438   3.754  0.1167 -0.1923 -0.5085
  139OSM    C8F15134   6.851   5.579   3.831  0.3880 -0.2959 -0.0532
  139OSM    H8F15135   6.789   5.487   3.838  1.7381 -1.1342  2.3521
  139OSM    H8G15136   6.787   5.661   3.793  1.5127  2.5361  3.6281
  139OSM    C9F15137   6.912   5.632   3.959  0.2103 -0.4553  0.1533
  139OSM    H9F15138   6.995   5.701   3.945 -1.2358  0.9200 -2.2928
  139OSM   C10F15139   6.882   5.600   4.085 -0.6772  0.7087  0.2723
  139OSM   H10F15140   6.942   5.634   4.170  0.0760 -2.2839  1.0744
  139OSM   C11F15141   6.776   5.501   4.121  0.0767 -0.6876 -0.2755
  139OSM   H11F15142   6.820   5.402   4.146 -1.6700 -1.2850  0.6055
  139OSM   H11G15143   6.701   5.473   4.043 -1.1920  1.6434  0.0282
  139OSM   C12F15144   6.686   5.541   4.247 -0.4448  0.5909  0.0972
  139OSM   H12F15145   6.587   5.491   4.247 -0.6534  0.9997 -0.1385
  139OSM   H12G15146   6.656   5.647   4.237 -0.6262  0.3732 -2.6867
  139OSM   C13F15147   6.758   5.503   4.374 -0.2186 -0.6409 -0.2329
  139OSM   H13F15148   6.862   5.542   4.384  0.1708 -1.6985 -0.1235
  139OSM   H13G15149   6.765   5.393   4.385  0.0159 -0.5171  1.0455
  139OSM   C14F15150   6.664   5.548   4.488 -0.0105  0.0906  0.0451
  139OSM   H14F15151   6.584   5.471   4.499  1.6228 -1.4703  1.6211
  139OSM   H14G15152   6.613   5.644   4.467 -1.9995 -1.1688 -1.3522
  139OSM   C15F15153   6.736   5.559   4.629  0.3956 -0.0387  0.0936
  139OSM   H15F15154   6.827   5.623   4.621 -0.8457  1.7020 -0.6319
  139OSM   H15G15155   6.785   5.463   4.657 -0.1082  0.1836  1.8687
  139OSM   C16F15156   6.640   5.600   4.738 -0.5817 -0.1478  0.2091
  139OSM   H16F15157   6.704   5.585   4.828 -0.3724  1.4854  0.3706
  139OSM   H16G15158   6.552   5.536   4.761 -0.8113  0.3953  0.8786
  139OSM   C17F15159   6.594   5.749   4.733  0.1763  0.2737  0.6612
  139OSM   H17F15160   6.502   5.757   4.672  0.7130  0.9848 -0.0827
  139OSM   H17G15161   6.674   5.794   4.670  1.3425  1.1095  2.6446
  139OSM   C18F15162   6.593   5.816   4.866 -0.2806 -1.1214 -0.6510
  139OSM   H18F15163   6.569   5.925   4.862  1.3336 -0.6680  0.6747
  139OSM   H18G15164   6.694   5.810   4.913 -0.5144 -0.6056 -0.0712
  139OSM   H18H15165   6.527   5.765   4.939  0.9262  0.4768  1.7183
  140OSM      N15166   3.609   2.514   2.072 -0.0293  0.1819 -0.0079
  140OSM    C1515167   3.611   2.366   2.076  0.3959 -0.2431  0.1432
  140OSM   H15A15168   3.713   2.338   2.052 -0.1700 -2.8264  0.5167
  140OSM   H15B15169   3.542   2.320   2.006  0.7825  1.2852 -1.3205
  140OSM   H15C15170   3.589   2.325   2.173  1.7967  0.0747  0.6170
  140OSM    C1415171   3.474   2.562   2.112  0.0250 -0.1298  0.2590
  140OSM   H14A15172   3.403   2.521   2.042  3.0533 -2.7089 -1.5955
  140OSM   H14B15173   3.454   2.668   2.107 -4.0498 -0.6359  2.2551
  140OSM   H14C15174   3.453   2.530   2.213  1.4866  0.6951  0.8570
  140OSM    C1315175   3.707   2.556   2.175 -0.6198 -0.4673  0.3210
  140OSM   H13A15176   3.800   2.512   2.143 -2.0141 -2.4144 -1.3680
  140OSM   H13B15177   3.681   2.503   2.266 -2.8505 -0.2726 -0.1238
  140OSM   H13C15178   3.722   2.658   2.207 -0.8943 -0.2830 -0.1348
  140OSM    C1215179   3.640   2.563   1.932 -0.0189  0.7843 -0.6590
  140OSM   H12A15180   3.653   2.670   1.934 -2.1975  1.1008 -0.9251
  140OSM   H12B15181   3.556   2.544   1.867 -0.5956  0.5438  0.1360
  140OSM    C1115182   3.760   2.498   1.855  0.2444  0.4742  0.0330
  140OSM   H11A15183   3.739   2.522   1.748 -3.3132  0.3438  0.5829
  140OSM   H11B15184   3.762   2.387   1.865  1.1416  0.6379  2.0686
  140OSM      P15185   4.017   2.499   1.936 -0.4018 -0.2714  0.4154
  140OSM    O1315186   4.069   2.388   1.847  0.0749 -0.2878 -0.3091
  140OSM    O1415187   4.112   2.612   1.965 -0.0643 -0.0790 -0.3229
  140OSM    O1115188   3.979   2.440   2.077  0.3374  0.3066 -0.2231
  140OSM    O1215189   3.884   2.557   1.881  0.0794 -0.2095  0.5105
  140OSM    C1S15190   4.093   2.370   2.135  0.0117  0.2913  0.8268
  140OSM    H1S15191   4.182   2.435   2.143 -1.1441  2.0966 -0.1092
  140OSM    H1T15192   4.114   2.280   2.074  1.3535  1.5531 -0.6694
  140OSM     NF15193   4.163   2.322   2.365  0.1780  0.4928 -0.2500
  140OSM    HNF15194   4.211   2.242   2.401  0.4745  0.4367 -0.7566
  140OSM    C2S15195   4.055   2.315   2.273  0.0886 -0.3318 -0.7450
  140OSM    H2S15196   3.983   2.392   2.308 -0.2453 -1.8222  2.2012
  140OSM    C3S15197   3.982   2.183   2.268 -0.3128  0.4763  1.3047
  140OSM    H3S15198   4.056   2.109   2.230 -1.1441  1.6534 -3.1572
  140OSM     O315199   3.887   2.188   2.162  0.4489 -0.8125  0.4606
  140OSM    HO315200   3.894   2.278   2.129 -2.8794 -1.1649 -1.7973
  140OSM    C4S15201   3.911   2.146   2.396 -0.2253  0.2320 -0.3930
  140OSM    H4S15202   3.826   2.214   2.410  1.7609  2.5640  1.2420
  140OSM    C5S15203   3.942   2.051   2.487 -0.3523 -0.1449  0.4061
  140OSM    H5S15204   4.033   1.990   2.484  0.5066  1.1234  0.0497
  140OSM    C6S15205   3.863   2.023   2.613  0.0548  0.1429 -0.3413
  140OSM    H6S15206   3.866   1.915   2.637 -1.9007 -0.3343 -1.9859
  140OSM    H6T15207   3.759   2.047   2.582  0.6219  2.6315 -0.5637
  140OSM    C7S15208   3.917   2.100   2.734  0.0321 -0.3237 -0.3180
  140OSM    H7S15209   3.923   2.207   2.703  0.9554 -0.2366  0.1348
  140OSM    H7T15210   4.016   2.056   2.759  0.2266  0.1807 -0.1731
  140OSM    C8S15211   3.821   2.096   2.858  0.1278  0.1426 -0.5675
  140OSM    H8S15212   3.731   2.152   2.826 -0.9853 -0.2654  1.6413
  140OSM    H8T15213   3.878   2.146   2.939  1.6739 -0.6541 -1.1166
  140OSM    C9S15214   3.783   1.956   2.914 -0.3890  0.2495  0.0589
  140OSM    H9S15215   3.870   1.913   2.969 -1.3081 -0.6208  0.8937
  140OSM    H9T15216   3.749   1.895   2.827  0.0847 -0.6650  0.4957
  140OSM   C10S15217   3.664   1.970   3.022 -1.4101  0.2566 -0.3134
  140OSM   H10S15218   3.641   1.869   3.063  0.8274 -0.2933 -0.2685
  140OSM   H10T15219   3.576   2.001   2.962 -1.9198 -0.3816  0.1015
  140OSM   C11S15220   3.693   2.074   3.128  0.3769 -0.0715  0.5082
  140OSM   H11S15221   3.607   2.088   3.197  1.5540  0.1875  1.9771
  140OSM   H11T15222   3.707   2.172   3.076  4.0523 -2.7016 -4.2174
  140OSM   C12S15223   3.811   2.054   3.227 -0.5472  0.0559 -0.0639
  140OSM   H12S15224   3.808   2.134   3.304 -2.0740 -0.3478  0.3225
  140OSM   H12T15225   3.906   2.062   3.170 -1.7425  1.8180 -1.9568
  140OSM   C13S15226   3.799   1.926   3.300  0.3571 -0.5896 -0.9682
  140OSM   H13S15227   3.822   1.838   3.237 -1.5335 -2.2067  0.4516
  140OSM   H13T15228   3.692   1.907   3.326  0.6613  1.0650  1.9631
  140OSM   C14S15229   3.887   1.930   3.421  0.0411 -0.2893  0.5193
  140OSM   H14S15230   3.973   1.996   3.396 -0.4220  0.1172 -0.0323
  140OSM   H14T15231   3.921   1.825   3.435 -0.2096 -0.5030 -0.3622
  140OSM   C15S15232   3.814   1.955   3.555  0.5971  0.0236 -0.1073
  140OSM   H15S15233   3.732   1.880   3.551  1.8815 -1.4049 -0.9137
  140OSM   H15T15234   3.766   2.055   3.552  0.8921  0.1455 -1.1299
  140OSM   C16S15235   3.897   1.946   3.678 -0.1324  0.1291 -0.5368
  140OSM   H16S15236   4.006   1.942   3.656 -0.0189  0.0811  0.0236
  140OSM   H16T15237   3.857   1.859   3.734 -0.9529  1.8239  1.6274
  140OSM   C17S15238   3.871   2.065   3.777 -0.5735 -0.5288 -0.3246
  140OSM   H17S15239   3.761   2.076   3.773 -0.5511 -0.2575 -0.2485
  140OSM   H17T15240   3.909   2.165   3.744 -0.8245 -0.4777 -0.4616
  140OSM   C18S15241   3.912   2.034   3.922 -0.7091 -0.1199  0.6475
  140OSM   H18S15242   3.904   1.923   3.933 -0.8086 -0.3650 -1.4883
  140OSM   H18T15243   3.846   2.086   3.994 -1.4928 -0.0265 -0.1273
  140OSM   H18U15244   4.018   2.064   3.935 -0.5443 -0.5523  0.3373
  140OSM    C1F15245   4.216   2.440   2.394 -0.4375 -0.6556 -0.3863
  140OSM     OF15246   4.164   2.541   2.366 -0.2348  0.2294  0.1408
  140OSM    C2F15247   4.351   2.441   2.469 -0.3215  0.1659 -0.3139
  140OSM    H2F15248   4.430   2.441   2.391  0.2539  0.3031  0.2603
  140OSM    H2G15249   4.355   2.342   2.520  1.6113 -0.7424 -2.1228
  140OSM    C3F15250   4.350   2.553   2.568  0.8424 -0.3508  0.9015
  140OSM    H3F15251   4.265   2.548   2.640 -1.3335  0.3114 -1.4659
  140OSM    H3G15252   4.324   2.646   2.514  1.7807 -1.1708 -1.0572
  140OSM    C4F15253   4.477   2.584   2.659  0.3381  0.5709 -0.0774
  140OSM    H4F15254   4.561   2.618   2.596  0.8382  1.3842  0.9897
  140OSM    H4G15255   4.511   2.491   2.710  0.0436 -0.0235 -0.9400
  140OSM    C5F15256   4.449   2.695   2.763 -0.3156  0.2677 -0.3446
  140OSM    H5F15257   4.344   2.694   2.800 -0.4387  0.2352 -0.6982
  140OSM    H5G15258   4.461   2.791   2.708  0.9251  1.7556  2.3164
  140OSM    C6F15259   4.565   2.688   2.864 -0.1736 -0.5147  0.1661
  140OSM    H6F15260   4.580   2.797   2.881 -0.2062 -0.8149  2.4592
  140OSM    H6G15261   4.661   2.648   2.827  0.7846  1.0130  0.8728
  140OSM    C7F15262   4.526   2.639   3.002 -0.2293  0.8161 -0.4305
  140OSM    H7F15263   4.517   2.529   3.001  0.8264  0.7076 -1.5880
  140OSM    H7G15264   4.435   2.696   3.029  0.0233  0.6316  0.8670
  140OSM    C8F15265   4.637   2.673   3.105 -0.1914 -0.9569 -0.1622
  140OSM    H8F15266   4.665   2.776   3.073 -1.4805 -0.6214 -0.2584
  140OSM    H8G15267   4.726   2.608   3.085 -0.0755 -0.5710 -0.9506
  140OSM    C9F15268   4.596   2.657   3.254 -0.3806 -0.2593  0.3835
  140OSM    H9F15269   4.519   2.728   3.289  0.0484  1.0713 -1.2354
  140OSM   C10F15270   4.642   2.565   3.338 -0.1129  0.4160  0.4135
  140OSM   H10F15271   4.615   2.574   3.444  1.9309 -0.8477  1.1111
  140OSM   C11F15272   4.748   2.468   3.306 -0.8196  0.0970  0.5612
  140OSM   H11F15273   4.827   2.519   3.246 -1.0591  0.8506  0.8720
  140OSM   H11G15274   4.708   2.390   3.238  0.2056  0.0855 -0.0474
  140OSM   C12F15275   4.812   2.415   3.430 -0.2965  0.2583  0.1566
  140OSM   H12F15276   4.853   2.504   3.483  0.2684 -0.5986  1.1921
  140OSM   H12G15277   4.899   2.350   3.407 -0.5550  0.4684 -1.4872
  140OSM   C13F15278   4.712   2.343   3.527 -0.9181 -0.2758  0.6201
  140OSM   H13F15279   4.688   2.250   3.471 -0.0087  1.0757 -2.1802
  140OSM   H13G15280   4.620   2.395   3.562 -0.0721 -0.8055  4.0412
  140OSM   C14F15281   4.792   2.290   3.651 -0.2780  0.9446 -0.4905
  140OSM   H14F15282   4.889   2.250   3.615 -0.4582 -1.2450  1.2993
  140OSM   H14G15283   4.735   2.206   3.695 -0.9068  0.8851 -1.3785
  140OSM   C15F15284   4.818   2.398   3.758  0.0488 -0.0284  0.9168
  140OSM   H15F15285   4.724   2.455   3.778 -0.4546 -0.0926 -0.9908
  140OSM   H15G15286   4.890   2.468   3.711 -1.0202 -0.1155 -0.9680
  140OSM   C16F15287   4.884   2.348   3.883  0.4207  0.1368  0.3314
  140OSM   H16F15288   4.965   2.278   3.853 -1.1613 -1.0248 -1.3937
  140OSM   H16G15289   4.803   2.300   3.940 -0.0265 -2.0290 -1.9509
  140OSM   C17F15290   4.934   2.466   3.962  0.0422 -0.1632  0.1298
  140OSM   H17F15291   4.863   2.551   3.952 -2.5142 -1.7592  3.0485
  140OSM   H17G15292   5.030   2.496   3.915  0.4396  0.9789  1.6037
  140OSM   C18F15293   4.971   2.429   4.103  0.2810  1.0687  0.1036
  140OSM   H18F15294   5.023   2.332   4.084  0.2706  1.2561 -0.9894
  140OSM   H18G15295   4.881   2.403   4.163  0.0242 -1.3256 -1.1587
  140OSM   H18H15296   5.039   2.502   4.149  0.2957  1.1304 -0.0172
  141OSM      N15297   1.392   5.732   2.378  0.4345 -0.2679 -0.0945
  141OSM    C1515298   1.527   5.688   2.330 -0.2219  0.2039 -0.1956
  141OSM   H15A15299   1.553   5.709   2.228  0.8996  0.4070  0.1150
  141OSM   H15B15300   1.545   5.581   2.334  1.0852  0.3491 -1.3278
  141OSM   H15C15301   1.603   5.736   2.390  2.0324 -2.3453 -0.7852
  141OSM    C1415302   1.293   5.633   2.312  0.6637 -0.3493 -0.4417
  141OSM   H14A15303   1.312   5.638   2.205  0.9756 -2.4287 -0.5309
  141OSM   H14B15304   1.190   5.652   2.335 -0.2958 -1.5601 -3.2593
  141OSM   H14C15305   1.314   5.534   2.349  1.2367 -0.4591 -1.0315
  141OSM    C1315306   1.384   5.726   2.527 -0.9072 -0.2853  0.1994
  141OSM   H13A15307   1.300   5.784   2.563 -1.0299 -0.5744  0.3923
  141OSM   H13B15308   1.471   5.773   2.570 -0.2895 -2.1969  1.1779
  141OSM   H13C15309   1.392   5.626   2.568 -1.4203  0.1372  1.3625
  141OSM    C1215310   1.370   5.874   2.328  0.1442 -0.4271  0.2265
  141OSM   H12A15311   1.395   5.883   2.223 -0.7334  1.8676  0.1438
  141OSM   H12B15312   1.444   5.931   2.382  1.0339 -0.9559 -0.3989
  141OSM    C1115313   1.229   5.948   2.346 -0.1179 -0.1854  0.6987
  141OSM   H11A15314   1.233   6.053   2.308  0.1006 -0.7279 -0.8542
  141OSM   H11B15315   1.205   5.950   2.454 -2.3656  0.3177  0.2475
  141OSM      P15316   0.972   5.912   2.299  0.3708  0.1028  0.6089
  141OSM    O1315317   0.938   6.053   2.260 -0.6969 -0.5989 -0.2935
  141OSM    O1415318   0.884   5.807   2.235 -0.2879 -0.2331  0.2730
  141OSM    O1115319   0.952   5.900   2.451 -0.1016  0.6447 -0.1077
  141OSM    O1215320   1.130   5.885   2.275  0.7408 -0.2992  0.1842
  141OSM    C1S15321   0.955   5.780   2.530  0.0381  0.1152 -0.5885
  141OSM    H1S15322   1.044   5.715   2.518 -0.7076 -0.9571 -0.5638
  141OSM    H1T15323   0.883   5.703   2.494 -0.3025 -0.6464  1.5513
  141OSM     NF15324   0.989   5.707   2.774 -0.7220  0.5100 -0.5527
  141OSM    HNF15325   0.932   5.625   2.783  0.1359 -0.1757 -1.1485
  141OSM    C2S15326   0.949   5.814   2.683  0.3872 -0.6468  0.0311
  141OSM    H2S15327   0.994   5.912   2.708 -4.9851  1.8673  1.1144
  141OSM    C3S15328   0.796   5.855   2.713 -0.2314  0.1021 -0.8871
  141OSM    H3S15329   0.730   5.770   2.687  1.0328 -0.7338 -1.4417
  141OSM     O315330   0.753   5.956   2.622 -0.3805  0.5105 -0.4702
  141OSM    HO315331   0.829   5.962   2.564 -1.1752 -0.9311 -1.7144
  141OSM    C4S15332   0.774   5.891   2.860 -0.2702  0.0116  1.4016
  141OSM    H4S15333   0.749   5.805   2.924 -0.3103 -0.7031  0.4623
  141OSM    C5S15334   0.782   6.015   2.907  0.1784  0.2276 -0.1089
  141OSM    H5S15335   0.804   6.094   2.834 -0.6041 -1.1263 -1.9026
  141OSM    C6S15336   0.782   6.058   3.049 -0.5704 -0.0888 -0.5019
  141OSM    H6S15337   0.688   6.113   3.070 -0.8521 -0.7898  0.1214
  141OSM    H6T15338   0.861   6.128   3.084  0.2262 -1.4454  0.4933
  141OSM    C7S15339   0.802   5.934   3.149  0.2798 -0.1131  0.0812
  141OSM    H7S15340   0.895   5.888   3.110 -0.3100  0.9217 -2.8015
  141OSM    H7T15341   0.711   5.871   3.139 -0.4151  0.8248  0.3266
  141OSM    C8S15342   0.816   5.977   3.296 -0.8613  0.4809  0.1748
  141OSM    H8S15343   0.716   6.020   3.318  0.2231  2.7965  0.8756
  141OSM    H8T15344   0.897   6.050   3.316 -1.1252  0.2894  2.1911
  141OSM    C9S15345   0.853   5.852   3.371 -0.3939  0.4527  0.1842
  141OSM    H9S15346   0.949   5.813   3.331 -0.5204  0.8375 -0.5004
  141OSM    H9T15347   0.779   5.774   3.345  0.3316  0.3714 -1.7826
  141OSM   C10S15348   0.855   5.867   3.523 -0.1099 -0.1088  0.0377
  141OSM   H10S15349   0.757   5.886   3.572  0.1437  0.0801  0.4759
  141OSM   H10T15350   0.911   5.961   3.545 -1.4340  0.7630 -0.1930
  141OSM   C11S15351   0.924   5.753   3.604 -0.2540  0.7938 -0.1443
  141OSM   H11S15352   1.014   5.715   3.552 -1.0736 -0.6427 -0.5876
  141OSM   H11T15353   0.852   5.668   3.603 -0.3943  0.8443 -3.1975
  141OSM   C12S15354   0.968   5.791   3.749  0.1038  0.1717 -0.5439
  141OSM   H12S15355   0.885   5.801   3.822  1.0967  0.5299  0.5735
  141OSM   H12T15356   1.008   5.893   3.736  0.5105  0.0025 -0.6508
  141OSM   C13S15357   1.077   5.701   3.809  0.4702 -0.6629 -0.5546
  141OSM   H13S15358   1.169   5.681   3.750  1.1289 -0.0885  0.2626
  141OSM   H13T15359   1.041   5.598   3.832 -1.9810 -0.0661 -1.3810
  141OSM   C14S15360   1.117   5.743   3.946  0.2056 -0.2483  0.3415
  141OSM   H14S15361   1.029   5.762   4.011  1.2249 -1.3223  2.1142
  141OSM   H14T15362   1.170   5.840   3.938  1.3664 -0.9360 -0.8203
  141OSM   C15S15363   1.197   5.647   4.035 -0.0876 -0.4596  0.1928
  141OSM   H15S15364   1.288   5.604   3.988  0.7499 -1.0244  2.2204
  141OSM   H15T15365   1.137   5.554   4.051  0.1935 -0.5716  0.6261
  141OSM   C16S15366   1.229   5.705   4.178 -0.3640 -0.0191  0.3242
  141OSM   H16S15367   1.264   5.810   4.167  0.8696 -0.4809 -0.4671
  141OSM   H16T15368   1.321   5.647   4.202 -1.0578 -2.3262 -2.2186
  141OSM   C17S15369   1.129   5.682   4.286 -0.7391  0.2613  0.1232
  141OSM   H17S15370   1.099   5.575   4.289 -2.5457  0.6977 -0.6238
  141OSM   H17T15371   1.035   5.736   4.259 -0.6405 -0.9239 -2.9844
  141OSM   C18S15372   1.178   5.733   4.420 -0.7158  0.5606 -0.0676
  141OSM   H18S15373   1.153   5.841   4.426 -1.9989  0.2152  1.3949
  141OSM   H18T15374   1.285   5.712   4.441 -1.0034 -0.3121  0.6121
  141OSM   H18U15375   1.120   5.688   4.504  1.5491 -0.6053  0.9606
  141OSM    C1F15376   1.124   5.696   2.794  0.3284 -0.9499 -0.8892
  141OSM     OF15377   1.200   5.789   2.772  0.0029 -0.3504  0.0176
  141OSM    C2F15378   1.175   5.567   2.835  0.3510  0.2694 -0.3250
  141OSM    H2F15379   1.241   5.530   2.753 -0.9772 -0.6053 -1.0303
  141OSM    H2G15380   1.095   5.490   2.828  0.0881  0.6775 -2.6920
  141OSM    C3F15381   1.242   5.557   2.982  0.2309  0.0318 -0.0856
  141OSM    H3F15382   1.336   5.617   2.986 -0.2556  0.8128 -0.0234
  141OSM    H3G15383   1.263   5.452   3.009  0.0226  0.3388  1.3620
  141OSM    C4F15384   1.153   5.621   3.090  0.4182  0.0077  0.8096
  141OSM    H4F15385   1.051   5.576   3.095 -0.5033  1.8037 -0.5449
  141OSM    H4G15386   1.137   5.730   3.074 -0.4465  0.0343  1.7162
  141OSM    C5F15387   1.202   5.603   3.235 -0.5386  0.5566  1.1334
  141OSM    H5F15388   1.205   5.494   3.258 -1.5209  0.1537 -0.5135
  141OSM    H5G15389   1.126   5.652   3.299 -0.7478  0.8273  0.6846
  141OSM    C6F15390   1.331   5.673   3.267  0.0021 -0.5087  0.2096
  141OSM    H6F15391   1.335   5.781   3.239  3.5002 -0.9980 -1.6005
  141OSM    H6G15392   1.410   5.634   3.200 -1.0324  0.8770 -1.9379
  141OSM    C7F15393   1.363   5.660   3.412  0.2883  0.4387  0.2052
  141OSM    H7F15394   1.361   5.555   3.447  1.1241  0.1178 -0.6688
  141OSM    H7G15395   1.274   5.693   3.470 -0.6215  2.2188 -2.0509
  141OSM    C8F15396   1.502   5.708   3.456 -0.3992 -0.2137  0.2795
  141OSM    H8F15397   1.582   5.657   3.398 -2.4587 -2.7756 -0.4780
  141OSM    H8G15398   1.504   5.679   3.563 -3.0354  0.3335  0.5389
  141OSM    C9F15399   1.523   5.859   3.442  0.3199 -0.2141  0.4298
  141OSM    H9F15400   1.526   5.896   3.339 -1.1563  0.4144  0.5958
  141OSM   C10F15401   1.511   5.961   3.535  0.7451 -0.2311 -0.4270
  141OSM   H10F15402   1.527   6.063   3.497 -0.5154 -0.2042 -0.9576
  141OSM   C11F15403   1.497   5.944   3.685  0.5509 -0.7901 -0.2624
  141OSM   H11F15404   1.589   5.973   3.740  0.3914 -0.5254 -0.1287
  141OSM   H11G15405   1.483   5.839   3.717 -0.8441  0.0850  2.3528
  141OSM   C12F15406   1.389   6.035   3.742  0.2148  0.7896 -0.0952
  141OSM   H12F15407   1.293   6.010   3.693 -0.3261  0.3372  1.1344
  141OSM   H12G15408   1.407   6.138   3.707  2.6718  0.0180 -1.3493
  141OSM   C13F15409   1.383   6.027   3.894  0.2546  0.2840  0.5131
  141OSM   H13F15410   1.468   6.078   3.944 -0.2767  0.1959  1.5416
  141OSM   H13G15411   1.390   5.919   3.920  0.2998 -0.2192 -1.4198
  141OSM   C14F15412   1.257   6.111   3.942  0.0986 -0.0294 -0.3709
  141OSM   H14F15413   1.174   6.069   3.882  0.7292  0.5402 -1.6987
  141OSM   H14G15414   1.280   6.216   3.914 -0.9077  0.8733  1.9380
  141OSM   C15F15415   1.216   6.109   4.089 -0.1893 -0.1714 -0.5135
  141OSM   H15F15416   1.198   6.004   4.120 -1.3107 -0.2543 -1.3890
  141OSM   H15G15417   1.123   6.169   4.097  0.0551  0.0879  0.5909
  141OSM   C16F15418   1.320   6.171   4.182 -0.2578  0.0200  0.2383
  141OSM   H16F15419   1.343   6.274   4.146 -0.1079 -0.2885 -0.5573
  141OSM   H16G15420   1.412   6.109   4.181 -0.9800 -1.0771 -1.1794
  141OSM   C17F15421   1.272   6.180   4.326 -0.0458 -0.0507 -0.5191
  141OSM   H17F15422   1.263   6.074   4.357 -1.6246  0.3597  0.5641
  141OSM   H17G15423   1.173   6.230   4.325 -1.1257 -2.0692 -0.8962
  141OSM   C18F15424   1.367   6.249   4.427  0.4344 -1.0743  0.9964
  141OSM   H18F15425   1.472   6.216   4.408  1.1849  1.5214  0.2501
  141OSM   H18G15426   1.335   6.227   4.531 -1.6982  0.1842  0.6586
  141OSM   H18H15427   1.361   6.357   4.401  2.2860 -1.0780  0.4156
  142OSM      N15428   1.957   0.589   1.911 -0.5984 -0.2725 -0.3745
  142OSM    C1515429   1.912   0.448   1.937  0.8813 -0.3148 -0.3245
  142OSM   H15A15430   1.854   0.411   1.853 -0.5273  0.9030  0.0639
  142OSM   H15B15431   1.858   0.451   2.030  3.2219 -1.0356  1.1129
  142OSM   H15C15432   1.991   0.375   1.946  0.4184 -0.9148 -0.9667
  142OSM    C1415433   2.071   0.587   1.812 -0.0029  0.7325 -0.1524
  142OSM   H14A15434   2.162   0.542   1.847 -0.1752 -0.1877 -0.8398
  142OSM   H14B15435   2.095   0.686   1.777  0.8388  0.1335 -1.3578
  142OSM   H14C15436   2.042   0.529   1.725  4.2281  1.7320 -2.4673
  142OSM    C1315437   1.844   0.666   1.859  0.0909  0.6308  1.3054
  142OSM   H13A15438   1.814   0.617   1.767  2.6927  0.8424  0.2768
  142OSM   H13B15439   1.866   0.766   1.827 -0.9362  0.2403 -0.8437
  142OSM   H13C15440   1.760   0.666   1.928 -0.3142  0.9467  0.8186
  142OSM    C1215441   2.010   0.667   2.037 -0.3910  0.3565  0.6065
  142OSM   H12A15442   2.052   0.762   2.007  0.8709 -0.7287 -1.3379
  142OSM   H12B15443   2.093   0.607   2.070  0.0434  0.2163 -0.6584
  142OSM    C1115444   1.907   0.690   2.146 -0.1048 -0.6220 -0.6214
  142OSM   H11A15445   1.967   0.710   2.238  0.2688  0.3061 -1.0602
  142OSM   H11B15446   1.861   0.596   2.183 -0.4613 -0.3832 -0.4480
  142OSM      P15447   1.835   0.940   2.151 -0.2813 -0.1707  0.0844
  142OSM    O1315448   1.953   0.995   2.075  0.4354  0.4493 -0.1184
  142OSM    O1415449   1.702   1.005   2.125  0.3605  0.3713 -0.5361
  142OSM    O1115450   1.860   0.940   2.305 -0.6196  0.4867  0.2162
  142OSM    O1215451   1.811   0.790   2.117 -0.2988 -0.3402  0.4612
  142OSM    C1S15452   1.766   0.884   2.391  0.7428  0.4128  0.6674
  142OSM    H1S15453   1.747   0.777   2.372  1.3948  0.5168 -0.7064
  142OSM    H1T15454   1.666   0.931   2.376  0.2560 -0.8834 -0.2379
  142OSM     NF15455   1.691   0.859   2.619 -0.2632 -0.3403  0.2934
  142OSM    HNF15456   1.610   0.914   2.641 -1.0798 -1.7579  0.9664
  142OSM    C2S15457   1.795   0.916   2.543 -0.1299  0.7803  0.4576
  142OSM    H2S15458   1.886   0.861   2.575 -1.3798 -0.2031  2.5312
  142OSM    C3S15459   1.819   1.066   2.569  0.0863 -0.6873  0.1476
  142OSM    H3S15460   1.733   1.127   2.535 -0.4361 -0.9687  0.9450
  142OSM     O315461   1.907   1.128   2.480  0.7617 -0.1935  0.1614
  142OSM    HO315462   1.916   1.063   2.410 -0.7150 -1.0248  0.7109
  142OSM    C4S15463   1.837   1.098   2.716 -0.1227 -0.0749 -0.8000
  142OSM    H4S15464   1.748   1.113   2.779 -0.5300 -0.9342 -1.1642
  142OSM    C5S15465   1.957   1.102   2.781  0.7756  0.5449 -0.3759
  142OSM    H5S15466   2.050   1.084   2.726  0.1210  1.8773 -2.0232
  142OSM    C6S15467   1.971   1.128   2.929 -0.4926 -0.1418 -0.6249
  142OSM    H6S15468   2.077   1.161   2.943 -0.3795 -0.6187 -0.3255
  142OSM    H6T15469   1.958   1.038   2.993 -1.0051  0.0353 -0.4734
  142OSM    C7S15470   1.888   1.235   2.995  0.3686 -0.6518  0.6513
  142OSM    H7S15471   1.785   1.200   3.017 -0.4348  1.8363  1.1393
  142OSM    H7T15472   1.865   1.324   2.933 -2.4340 -1.3675  0.5398
  142OSM    C8S15473   1.941   1.287   3.130 -0.5095  0.4599 -0.1973
  142OSM    H8S15474   1.857   1.345   3.175 -0.6397 -0.7332  1.1360
  142OSM    H8T15475   2.018   1.363   3.105  0.1068 -0.5364 -1.4667
  142OSM    C9S15476   1.985   1.182   3.231  0.5189 -0.6687  0.7814
  142OSM    H9S15477   2.072   1.128   3.188  2.1785  1.7460  0.9240
  142OSM    H9T15478   1.907   1.107   3.258  0.8441 -0.6680  1.7574
  142OSM   C10S15479   2.051   1.237   3.359 -0.0035 -0.1633  0.0045
  142OSM   H10S15480   1.983   1.319   3.390 -0.1961 -0.5204  0.5326
  142OSM   H10T15481   2.141   1.292   3.324  1.1901 -1.5844  0.7313
  142OSM   C11S15482   2.083   1.145   3.468  0.5582 -0.0873 -0.2692
  142OSM   H11S15483   2.119   1.204   3.555  1.0670 -1.2186  0.3080
  142OSM   H11T15484   2.172   1.080   3.456  0.7402 -0.0071  0.5925
  142OSM   C12S15485   1.956   1.080   3.520 -0.5054 -0.5409  0.1190
  142OSM   H12S15486   1.913   0.993   3.466 -0.5509 -0.7383  0.4648
  142OSM   H12T15487   1.881   1.161   3.528  0.0605 -0.1773  2.3935
  142OSM   C13S15488   1.974   1.037   3.663 -0.9065  0.7339  0.1178
  142OSM   H13S15489   2.006   1.125   3.722 -0.6033  0.6914  0.0196
  142OSM   H13T15490   2.051   0.957   3.674 -1.9528 -0.2075  0.8133
  142OSM   C14S15491   1.841   0.979   3.709  0.1180  0.2755 -0.2136
  142OSM   H14S15492   1.821   0.878   3.667  0.1039 -1.0199  2.6651
  142OSM   H14T15493   1.763   1.055   3.689  0.7794  0.5308 -2.0227
  142OSM   C15S15494   1.835   0.970   3.864 -0.0017 -0.5038  0.2287
  142OSM   H15S15495   1.836   1.077   3.895 -0.4199  0.1657 -1.9209
  142OSM   H15T15496   1.927   0.918   3.898  1.5963  0.9836 -1.6080
  142OSM   C16S15497   1.706   0.904   3.910  0.2458 -0.1292  0.3732
  142OSM   H16S15498   1.688   0.798   3.883  0.6098 -0.3076  0.8195
  142OSM   H16T15499   1.627   0.963   3.859  0.9249  0.1081 -0.4247
  142OSM   C17S15500   1.687   0.905   4.057 -0.0994  0.6408  0.3015
  142OSM   H17S15501   1.722   1.007   4.084  2.0738  0.7134 -2.4395
  142OSM   H17T15502   1.748   0.837   4.122  0.6885  1.2138  0.1677
  142OSM   C18S15503   1.540   0.893   4.104 -0.4530 -0.5120 -0.1509
  142OSM   H18S15504   1.482   0.969   4.048 -1.2864 -0.1464  1.1599
  142OSM   H18T15505   1.538   0.903   4.215 -0.9369 -0.0840 -0.1943
  142OSM   H18U15506   1.498   0.794   4.075  1.1437 -1.6637  1.2474
  142OSM    C1F15507   1.670   0.731   2.629  0.2036  0.5936 -0.3798
  142OSM     OF15508   1.744   0.642   2.581 -0.1556  0.5075  0.6006
  142OSM    C2F15509   1.536   0.691   2.693 -0.5751  0.4287 -0.4401
  142OSM    H2F15510   1.498   0.605   2.635  0.1910  1.0350 -1.8964
  142OSM    H2G15511   1.462   0.771   2.673 -1.0801  0.2410  0.6102
  142OSM    C3F15512   1.538   0.656   2.844 -0.2864  0.2056 -0.4787
  142OSM    H3F15513   1.579   0.556   2.872 -0.9778  0.0709  0.1127
  142OSM    H3G15514   1.432   0.649   2.876 -0.3627  2.3958 -0.0974
  142OSM    C4F15515   1.598   0.765   2.937 -0.2877  0.1207 -0.0947
  142OSM    H4F15516   1.537   0.856   2.923 -1.1247 -0.3563  0.4026
  142OSM    H4G15517   1.705   0.792   2.926 -0.3882  0.4084 -0.3660
  142OSM    C5F15518   1.581   0.726   3.083  0.4309  0.3239  0.4858
  142OSM    H5F15519   1.632   0.629   3.098 -0.2997  0.0745  1.4020
  142OSM    H5G15520   1.475   0.697   3.095  0.4919  0.0780  0.4357
  142OSM    C6F15521   1.622   0.833   3.182 -0.3696  0.1690 -0.1904
  142OSM    H6F15522   1.727   0.863   3.162 -0.0699 -0.9116 -0.2996
  142OSM    H6G15523   1.628   0.779   3.279 -0.2791 -1.8356 -1.2499
  142OSM    C7F15524   1.528   0.954   3.195  0.3521 -0.2075 -0.2472
  142OSM    H7F15525   1.435   0.910   3.237 -0.0212  1.5679  0.9152
  142OSM    H7G15526   1.499   0.991   3.094 -3.6953  0.8420  1.0952
  142OSM    C8F15527   1.580   1.066   3.286 -0.1624 -0.4188  0.0739
  142OSM    H8F15528   1.520   1.156   3.263 -0.9540 -1.1836 -0.9699
  142OSM    H8G15529   1.684   1.093   3.254  0.3184  0.9472  2.5621
  142OSM    C9F15530   1.584   1.038   3.428  0.2712  0.2591  0.2131
  142OSM    H9F15531   1.688   1.023   3.463  0.2303  0.6591  0.5106
  142OSM   C10F15532   1.485   1.041   3.520 -1.0760  0.6524  0.4445
  142OSM   H10F15533   1.502   0.996   3.619  0.7727 -0.0439 -0.1400
  142OSM   C11F15534   1.345   1.090   3.499  0.5153  0.0351 -0.1420
  142OSM   H11F15535   1.285   0.997   3.506 -0.2339  0.4935 -0.4226
  142OSM   H11G15536   1.327   1.133   3.399  0.8254  0.6778  0.0707
  142OSM   C12F15537   1.301   1.187   3.608 -0.3616 -0.2963 -0.2107
  142OSM   H12F15538   1.221   1.255   3.571 -0.1146  0.4861  0.6612
  142OSM   H12G15539   1.379   1.260   3.636 -0.2783 -0.9087  1.2415
  142OSM   C13F15540   1.263   1.120   3.745  0.6783 -0.7524  0.2098
  142OSM   H13F15541   1.340   1.057   3.793  0.4390 -0.5694  0.8435
  142OSM   H13G15542   1.182   1.047   3.725 -1.0395  1.1309 -0.1590
  142OSM   C14F15543   1.224   1.224   3.850  0.2188 -0.2384  0.1819
  142OSM   H14F15544   1.133   1.276   3.811  0.8102  0.4769 -0.2642
  142OSM   H14G15545   1.309   1.294   3.867 -0.6891  0.7123  0.9866
  142OSM   C15F15546   1.187   1.155   3.992 -0.7586  0.1046 -0.3002
  142OSM   H15F15547   1.228   1.052   3.981 -2.5778 -0.5367 -1.5678
  142OSM   H15G15548   1.080   1.128   3.985 -0.8653  0.6892 -0.9619
  142OSM   C16F15549   1.231   1.231   4.122  0.2700 -0.2338  0.2868
  142OSM   H16F15550   1.342   1.234   4.127  0.2314  0.0385  1.0466
  142OSM   H16G15551   1.189   1.173   4.207 -0.5535  1.3764  1.0141
  142OSM   C17F15552   1.182   1.374   4.102  0.4632 -0.4196  0.0333
  142OSM   H17F15553   1.075   1.367   4.073  0.9520 -0.2155 -2.0162
  142OSM   H17G15554   1.232   1.429   4.019 -0.1021  0.7544  0.4575
  142OSM   C18F15555   1.203   1.470   4.224  0.0006  0.0587  0.4130
  142OSM   H18F15556   1.159   1.417   4.311 -0.2502 -0.6766 -0.1530
  142OSM   H18G15557   1.149   1.566   4.205  0.9264  0.3517 -0.8834
  142OSM   H18H15558   1.306   1.503   4.248 -0.0059 -0.3189  0.9779
  143OSM      N15559   0.939   0.614   1.958 -0.0466 -0.7178 -0.2396
  143OSM    C1515560   1.084   0.649   1.992  0.6252  0.1586  0.4039
  143OSM   H15A15561   1.067   0.741   2.044 -1.7855 -0.9864  1.8059
  143OSM   H15B15562   1.132   0.666   1.896 -1.5212  2.3089 -0.4067
  143OSM   H15C15563   1.133   0.580   2.059  1.2956 -2.2614 -2.3702
  143OSM    C1415564   0.892   0.720   1.869 -0.3364 -0.2447 -0.1292
  143OSM   H14A15565   0.906   0.816   1.915  0.7199 -0.0362 -0.8663
  143OSM   H14B15566   0.789   0.698   1.844 -0.8888  3.0426 -1.1973
  143OSM   H14C15567   0.948   0.723   1.778 -0.9533  1.4617 -0.4791
  143OSM    C1315568   0.945   0.492   1.876 -0.6084  0.1053 -0.9345
  143OSM   H13A15569   0.990   0.420   1.943  0.5074  0.7531 -0.9584
  143OSM   H13B15570   1.009   0.494   1.789  0.5135 -2.3729 -0.2498
  143OSM   H13C15571   0.846   0.456   1.854 -1.6011  2.0515  0.0388
  143OSM    C1215572   0.856   0.584   2.085 -0.2137  0.2596 -0.1007
  143OSM   H12A15573   0.763   0.533   2.061  0.1434  0.1553 -1.3572
  143OSM   H12B15574   0.828   0.677   2.130 -1.8910 -2.0522  4.2259
  143OSM    C1115575   0.916   0.497   2.202 -0.0273  0.7202  0.2325
  143OSM   H11A15576   0.839   0.491   2.282 -0.3958  0.3144 -0.1447
  143OSM   H11B15577   1.002   0.554   2.242  0.4464  0.8013 -0.8543
  143OSM      P15578   0.852   0.256   2.145 -0.5878 -0.3506  0.1454
  143OSM    O1315579   0.728   0.318   2.082  0.9179  0.9367 -0.7371
  143OSM    O1415580   0.915   0.148   2.070  0.1849 -0.0270  0.2208
  143OSM    O1115581   0.825   0.215   2.298  0.1283  0.5714 -0.3354
  143OSM    O1215582   0.958   0.366   2.157  0.0554 -0.1353  0.1940
  143OSM    C1S15583   0.702   0.257   2.362  0.4143  0.3063 -0.2306
  143OSM    H1S15584   0.611   0.213   2.315  1.5664  0.1080 -2.4097
  143OSM    H1T15585   0.684   0.365   2.346  2.2517  0.5764 -0.7207
  143OSM     NF15586   0.570   0.244   2.564  0.9426  0.1126 -0.0875
  143OSM    HNF15587   0.555   0.315   2.632  0.6851 -0.7724  0.8001
  143OSM    C2S15588   0.706   0.232   2.514 -0.3323  0.4657 -0.0651
  143OSM    H2S15589   0.743   0.128   2.514 -0.2842  0.4826 -0.1673
  143OSM    C3S15590   0.804   0.333   2.580 -0.3231  0.9764 -0.4591
  143OSM    H3S15591   0.750   0.430   2.582 -0.2691  0.9952  0.1133
  143OSM     O315592   0.927   0.374   2.516  0.4501 -0.6431  0.1471
  143OSM    HO315593   0.959   0.297   2.467  0.9855 -0.1219 -0.3329
  143OSM    C4S15594   0.831   0.312   2.728 -0.2431 -0.1335  0.2027
  143OSM    H4S15595   0.769   0.375   2.793 -0.0211  0.4172 -0.1133
  143OSM    C5S15596   0.934   0.234   2.776  0.1273 -0.6893  0.2460
  143OSM    H5S15597   1.006   0.200   2.700 -0.4046 -1.9253  0.2734
  143OSM    C6S15598   0.962   0.210   2.923 -0.1747 -0.5117  0.2951
  143OSM    H6S15599   1.059   0.256   2.952 -0.5738  0.5463 -0.0100
  143OSM    H6T15600   0.977   0.101   2.938  1.2532 -0.5484 -1.1646
  143OSM    C7S15601   0.859   0.270   3.010  0.0030 -0.1463 -0.8731
  143OSM    H7S15602   0.756   0.242   2.980 -0.9719  1.7690  0.4427
  143OSM    H7T15603   0.867   0.380   3.006 -0.0742 -0.0297  1.1350
  143OSM    C8S15604   0.874   0.225   3.164 -0.1763  0.3801 -0.4649
  143OSM    H8S15605   0.829   0.315   3.211 -1.8409  0.4688 -2.1093
  143OSM    H8T15606   0.976   0.219   3.207  0.1582  0.0063 -1.2911
  143OSM    C9S15607   0.813   0.094   3.194  0.2668  0.4286  0.3366
  143OSM    H9S15608   0.863   0.005   3.150 -3.2686 -0.7898 -1.5950
  143OSM    H9T15609   0.708   0.093   3.156 -0.1086  0.0140  1.3457
  143OSM   C10S15610   0.798   0.079   3.339  0.0778 -0.2220 -0.3981
  143OSM   H10S15611   0.795   0.175   3.394  0.9017 -0.3275 -0.1565
  143OSM   H10T15612   0.890   0.024   3.370 -1.4798 -2.3361  0.8083
  143OSM   C11S15613   0.676  -0.006   3.372  0.5702  0.2141  0.1370
  143OSM   H11S15614   0.688  -0.108   3.329 -0.3822  0.7670 -1.5052
  143OSM   H11T15615   0.586   0.051   3.342  0.5079 -0.6989 -1.5144
  143OSM   C12S15616   0.662  -0.035   3.521  0.0909  0.0242 -0.5653
  143OSM   H12S15617   0.756  -0.089   3.548  0.4165  0.9061  0.1050
  143OSM   H12T15618   0.577  -0.105   3.536 -1.7633  1.3783 -3.6985
  143OSM   C13S15619   0.640   0.083   3.619 -0.4194 -0.6964 -1.1645
  143OSM   H13S15620   0.555   0.145   3.583 -0.5209  0.4258  0.8665
  143OSM   H13T15621   0.727   0.151   3.628 -1.3395  0.5000 -0.9940
  143OSM   C14S15622   0.599   0.032   3.758  0.9022 -0.4729 -0.0612
  143OSM   H14S15623   0.686  -0.022   3.802  0.5197 -1.2589 -0.2525
  143OSM   H14T15624   0.515  -0.040   3.750 -0.1445  0.7273 -0.1161
  143OSM   C15S15625   0.552   0.131   3.857 -1.0001 -0.7085 -0.1010
  143OSM   H15S15626   0.469   0.179   3.801  2.0476  2.9895 -1.8853
  143OSM   H15T15627   0.636   0.201   3.873 -1.0167 -0.3052 -1.6730
  143OSM   C16S15628   0.497   0.063   3.980  0.7922  0.4588  0.1522
  143OSM   H16S15629   0.396   0.017   3.967  0.6464  0.3566  1.5322
  143OSM   H16T15630   0.477   0.152   4.043  0.5128  0.8314 -0.4463
  143OSM   C17S15631   0.578  -0.047   4.050  0.7255 -0.4306  0.6087
  143OSM   H17S15632   0.683  -0.011   4.057  0.5598 -0.2196  2.5383
  143OSM   H17T15633   0.572  -0.139   3.988  2.1540 -0.5045  0.5535
  143OSM   C18S15634   0.528  -0.073   4.197  0.2410  0.5098  0.2280
  143OSM   H18S15635   0.435  -0.134   4.206  0.3542  0.6637  3.9352
  143OSM   H18T15636   0.517   0.021   4.255  1.7274  1.0140 -0.2616
  143OSM   H18U15637   0.604  -0.140   4.243 -1.6557 -2.0150 -0.0902
  143OSM    C1F15638   0.481   0.151   2.539 -0.3866  0.3661  0.6147
  143OSM     OF15639   0.518   0.043   2.488 -0.3166 -0.5937  0.3523
  143OSM    C2F15640   0.345   0.181   2.590  0.5298  1.2591 -1.0038
  143OSM    H2F15641   0.295   0.222   2.500  1.3681  0.5006 -1.8319
  143OSM    H2G15642   0.358   0.262   2.665 -0.7264  1.8374 -1.3864
  143OSM    C3F15643   0.266   0.058   2.651  0.4282  0.2446  0.2950
  143OSM    H3F15644   0.249  -0.028   2.582 -0.0977 -0.4929  1.3075
  143OSM    H3G15645   0.169   0.105   2.681  0.3392 -0.5465  1.3018
  143OSM    C4F15646   0.323  -0.002   2.780  0.1451  0.4051 -0.1254
  143OSM    H4F15647   0.430  -0.028   2.764  0.5634  2.4215 -0.8940
  143OSM    H4G15648   0.270  -0.095   2.809 -2.0590  1.0778 -1.7495
  143OSM    C5F15649   0.321   0.087   2.909 -0.4996 -0.7212  0.7740
  143OSM    H5F15650   0.225   0.067   2.961 -1.8314 -0.3056 -1.4010
  143OSM    H5G15651   0.315   0.192   2.875 -3.8408 -2.0512 -3.7823
  143OSM    C6F15652   0.446   0.071   2.990 -0.2783 -0.0991 -0.7058
  143OSM    H6F15653   0.462   0.161   3.054  0.8699 -1.2303  0.6390
  143OSM    H6G15654   0.540   0.059   2.933  0.2658  1.4950 -0.2095
  143OSM    C7F15655   0.447  -0.041   3.096  0.1079  0.0308  0.3180
  143OSM    H7F15656   0.550  -0.044   3.137 -0.4559 -0.1426  1.8082
  143OSM    H7G15657   0.415  -0.135   3.047  1.0904  1.1729 -2.7650
  143OSM    C8F15658   0.348  -0.008   3.206  0.0322 -0.2638 -0.6137
  143OSM    H8F15659   0.250   0.011   3.156 -0.2883 -2.9173 -1.1508
  143OSM    H8G15660   0.377   0.084   3.260 -1.9378 -1.7141  3.2850
  143OSM    C9F15661   0.328  -0.117   3.302 -0.0974  0.9580 -0.6874
  143OSM    H9F15662   0.355  -0.218   3.267 -2.5590 -0.1178  0.2672
  143OSM   C10F15663   0.285  -0.112   3.433  0.7945  1.3497 -0.1757
  143OSM   H10F15664   0.287  -0.198   3.502  1.8811  1.1353 -0.4504
  143OSM   C11F15665   0.253   0.011   3.507  0.0889  0.1640 -0.1280
  143OSM   H11F15666   0.179   0.075   3.454 -0.8783 -1.5194 -0.8689
  143OSM   H11G15667   0.348   0.068   3.505  0.0543  0.3082 -3.5151
  143OSM   C12F15668   0.219   0.000   3.660 -0.3542  0.2367 -0.2238
  143OSM   H12F15669   0.226   0.097   3.714 -1.1270 -0.3658  1.0144
  143OSM   H12G15670   0.299  -0.057   3.712 -1.4321 -1.8116 -0.7105
  143OSM   C13F15671   0.077  -0.067   3.679 -0.0680 -0.7856  0.5287
  143OSM   H13F15672   0.074  -0.164   3.626  1.9425 -0.9118  0.5699
  143OSM   H13G15673  -0.002   0.003   3.646  0.0671 -0.8596  0.0414
  143OSM   C14F15674   0.040  -0.113   3.820 -0.1651 -0.0494  0.4151
  143OSM   H14F15675   0.082  -0.217   3.821  1.0486  0.4144 -0.1199
  143OSM   H14G15676  -0.070  -0.120   3.832 -0.3159  0.3883 -0.6122
  143OSM   C15F15677   0.095  -0.032   3.936  0.4767 -0.5457 -0.0554
  143OSM   H15F15678   0.046   0.067   3.927 -0.9023 -0.9781  1.9000
  143OSM   H15G15679   0.197   0.004   3.912  0.3824  0.2678  0.7295
  143OSM   C16F15680   0.076  -0.087   4.079  0.3195 -0.6171 -0.8083
  143OSM   H16F15681   0.123  -0.188   4.080  1.1995 -0.2577 -2.3076
  143OSM   H16G15682  -0.033  -0.092   4.100  0.4711  0.3257  0.2699
  143OSM   C17F15683   0.157   0.008   4.175 -0.0583 -0.1566 -0.7719
  143OSM   H17F15684   0.266   0.013   4.151 -0.2805  1.0535 -1.6629
  143OSM   H17G15685   0.149  -0.036   4.277  2.3542  2.2535  0.5923
  143OSM   C18F15686   0.108   0.153   4.179  0.3640  0.4565 -0.4301
  143OSM   H18F15687   0.004   0.160   4.219  0.4298 -0.1262 -0.1531
  143OSM   H18G15688   0.122   0.203   4.081  0.8239 -0.0696 -0.6351
  143OSM   H18H15689   0.166   0.214   4.252  2.2159 -2.2094  0.4508
  144OSM      N15690   5.188   3.483   1.996  0.1450 -0.1989  0.1434
  144OSM    C1515691   5.161   3.617   1.941  0.1439  0.3200  0.3392
  144OSM   H15A15692   5.065   3.661   1.962  1.5469  4.0115 -0.1279
  144OSM   H15B15693   5.174   3.624   1.834 -0.1951  0.1535  0.2879
  144OSM   H15C15694   5.235   3.687   1.979  0.7258  0.5764 -1.1845
  144OSM    C1415695   5.139   3.474   2.133  0.1309 -0.1289 -0.0874
  144OSM   H14A15696   5.040   3.514   2.148 -0.4797 -1.9733  1.2369
  144OSM   H14B15697   5.216   3.516   2.197  2.1243 -0.5827 -2.0526
  144OSM   H14C15698   5.136   3.372   2.169 -0.2079 -0.2067 -0.3354
  144OSM    C1315699   5.112   3.380   1.916 -0.6646 -0.6827 -0.4952
  144OSM   H13A15700   5.137   3.286   1.963 -0.2878 -0.4759 -0.2751
  144OSM   H13B15701   5.156   3.373   1.817  0.7711 -1.6244  0.1662
  144OSM   H13C15702   5.005   3.394   1.913 -0.6056  0.4905  1.5335
  144OSM    C1215703   5.334   3.454   1.999 -0.1726  0.7900 -0.0330
  144OSM   H12A15704   5.381   3.532   2.057  0.2410 -0.7606  1.8210
  144OSM   H12B15705   5.374   3.457   1.899  0.0313 -0.7622 -0.0223
  144OSM    C1115706   5.373   3.319   2.059 -0.6939 -0.4715  0.0979
  144OSM   H11A15707   5.310   3.237   2.019 -2.3342 -0.1284  1.8531
  144OSM   H11B15708   5.360   3.301   2.168  0.3558 -2.6800 -0.0810
  144OSM      P15709   5.619   3.381   2.109  0.2112  0.2390 -0.0411
  144OSM    O1315710   5.761   3.353   2.066 -0.0718 -0.2815 -0.7199
  144OSM    O1415711   5.584   3.527   2.111  0.2889 -0.0343 -0.1870
  144OSM    O1115712   5.607   3.321   2.254  0.5585 -0.2858 -0.6449
  144OSM    O1215713   5.514   3.298   2.020  0.4300  0.8290 -0.1805
  144OSM    C1S15714   5.606   3.184   2.285  0.6703  0.5347 -0.8173
  144OSM    H1S15715   5.701   3.135   2.256  0.6263 -2.2986  3.0738
  144OSM    H1T15716   5.521   3.138   2.230  0.8905  1.1242 -1.6703
  144OSM     NF15717   5.586   3.011   2.473  0.5644 -0.3721 -0.2830
  144OSM    HNF15718   5.506   2.958   2.500  0.5342  1.2091  3.2998
  144OSM    C2S15719   5.571   3.154   2.439 -0.3332  0.1520 -0.0619
  144OSM    H2S15720   5.648   3.200   2.506 -0.4822 -0.7404  0.7558
  144OSM    C3S15721   5.424   3.214   2.461  0.7829 -0.4690 -0.3728
  144OSM    H3S15722   5.355   3.153   2.399  2.2143 -1.6424 -0.8738
  144OSM     O315723   5.403   3.354   2.426 -0.1800 -0.3747 -0.5923
  144OSM    HO315724   5.472   3.363   2.359 -0.5909  1.5958 -0.8069
  144OSM    C4S15725   5.374   3.207   2.604  0.0402 -1.1453 -0.6455
  144OSM    H4S15726   5.439   3.261   2.674 -1.9104 -0.0088  0.3632
  144OSM    C5S15727   5.263   3.143   2.653  0.4524 -0.3936 -0.1887
  144OSM    H5S15728   5.180   3.109   2.589 -0.4930  1.0153  0.2329
  144OSM    C6S15729   5.229   3.159   2.799  0.4184 -0.8598 -0.9511
  144OSM    H6S15730   5.317   3.133   2.861  0.8876  3.6258  0.6463
  144OSM    H6T15731   5.145   3.091   2.828  1.0137 -0.7903  1.0191
  144OSM    C7S15732   5.170   3.296   2.842 -0.4802  0.4990  0.0076
  144OSM    H7S15733   5.072   3.307   2.792 -1.2502 -0.6071  1.1959
  144OSM    H7T15734   5.230   3.386   2.818 -0.3596  0.0482 -1.4981
  144OSM    C8S15735   5.149   3.299   2.990  0.7246 -0.0374 -0.6622
  144OSM    H8S15736   5.239   3.274   3.050 -0.7533  1.5796  2.4911
  144OSM    H8T15737   5.072   3.228   3.028  1.8043 -0.0455  1.6795
  144OSM    C9S15738   5.108   3.440   3.030  0.3424 -0.0679  0.4697
  144OSM    H9S15739   5.041   3.476   2.948 -0.2320 -2.0974 -0.0026
  144OSM    H9T15740   5.208   3.488   3.022 -0.4982  1.3855 -2.8977
  144OSM   C10S15741   5.032   3.443   3.170 -0.6630 -0.1472 -0.3055
  144OSM   H10S15742   4.944   3.376   3.160 -0.7813  0.2830 -2.7310
  144OSM   H10T15743   5.004   3.549   3.184 -2.0115 -0.6929  1.5593
  144OSM   C11S15744   5.121   3.417   3.286 -0.7921 -0.6763  0.6737
  144OSM   H11S15745   5.198   3.497   3.284  1.0451 -2.4005 -0.5731
  144OSM   H11T15746   5.162   3.315   3.271  1.4871  0.4837 -1.5290
  144OSM   C12S15747   5.051   3.427   3.415  0.4054  0.2848 -0.1240
  144OSM   H12S15748   4.966   3.355   3.419  0.7654 -0.2321 -1.3476
  144OSM   H12T15749   5.014   3.531   3.424 -0.0415  0.2570 -1.3795
  144OSM   C13S15750   5.145   3.392   3.527 -0.6237  0.0866 -0.5265
  144OSM   H13S15751   5.183   3.484   3.576 -0.1116  0.8329 -2.2616
  144OSM   H13T15752   5.239   3.350   3.484  0.8137  2.6802 -0.1513
  144OSM   C14S15753   5.100   3.290   3.635  0.1903 -0.2776  0.5303
  144OSM   H14S15754   5.101   3.184   3.600 -0.6500  0.3871 -1.7367
  144OSM   H14T15755   4.999   3.309   3.677 -0.3956  0.2321 -1.0392
  144OSM   C15S15756   5.200   3.291   3.755  0.1768 -0.5542  0.1211
  144OSM   H15S15757   5.211   3.395   3.794 -0.8271 -1.3172  2.5851
  144OSM   H15T15758   5.301   3.264   3.717 -0.5058 -0.6893 -1.6711
  144OSM   C16S15759   5.164   3.189   3.860 -0.9905 -0.6569 -0.6273
  144OSM   H16S15760   5.167   3.087   3.816 -0.6233 -0.4648 -1.0553
  144OSM   H16T15761   5.061   3.215   3.892 -0.2881  4.5405 -1.6419
  144OSM   C17S15762   5.274   3.186   3.973  0.0399 -0.4148  0.4555
  144OSM   H17S15763   5.229   3.176   4.075  0.9834 -0.1697  0.9066
  144OSM   H17T15764   5.338   3.276   3.976  0.2025 -0.4935 -0.4419
  144OSM   C18S15765   5.367   3.061   3.969  0.2324  0.3036 -0.5128
  144OSM   H18S15766   5.297   2.975   3.970  0.0293  0.4504 -1.5455
  144OSM   H18T15767   5.434   3.052   4.057  0.8768  0.4316 -0.9811
  144OSM   H18U15768   5.433   3.033   3.884  0.1822 -1.2199 -0.0818
  144OSM    C1F15769   5.696   2.943   2.472  0.0435  0.3577 -0.5800
  144OSM     OF15770   5.798   3.007   2.449 -0.4944 -0.0868  0.4230
  144OSM    C2F15771   5.692   2.795   2.498 -0.0164 -0.0062  0.9457
  144OSM    H2F15772   5.781   2.749   2.450 -1.3969 -1.2063 -0.5761
  144OSM    H2G15773   5.597   2.759   2.453 -0.5629  1.7884  0.6009
  144OSM    C3F15774   5.698   2.755   2.643 -0.0022  0.1609  0.4225
  144OSM    H3F15775   5.617   2.815   2.691 -1.8721 -0.3001 -1.9821
  144OSM    H3G15776   5.794   2.787   2.688  1.1574 -1.8320 -0.5084
  144OSM    C4F15777   5.682   2.608   2.668 -0.8092  0.6085  0.4299
  144OSM    H4F15778   5.758   2.570   2.596  1.5134  5.4363 -0.0378
  144OSM    H4G15779   5.583   2.561   2.651  0.6164 -2.0995 -1.2413
  144OSM    C5F15780   5.738   2.556   2.805  0.1980 -0.3250 -0.3114
  144OSM    H5F15781   5.841   2.596   2.817  0.7238 -1.8807  0.6516
  144OSM    H5G15782   5.741   2.445   2.801 -0.1158 -0.3226 -0.6603
  144OSM    C6F15783   5.656   2.589   2.924  0.3006  0.5779 -0.2430
  144OSM    H6F15784   5.552   2.561   2.895  0.2761  0.2221  0.1821
  144OSM    H6G15785   5.651   2.698   2.945 -0.4063  0.2058  1.7202
  144OSM    C7F15786   5.705   2.519   3.051  0.7873 -0.0496  0.1248
  144OSM    H7F15787   5.813   2.535   3.073  0.5133  1.2807  0.5502
  144OSM    H7G15788   5.676   2.412   3.043  0.0761  0.0996  0.6280
  144OSM    C8F15789   5.629   2.569   3.178 -0.1415 -0.1916 -1.0053
  144OSM    H8F15790   5.520   2.548   3.164 -0.5291 -0.8591  2.2862
  144OSM    H8G15791   5.643   2.678   3.194  1.7984 -0.6785  1.1797
  144OSM    C9F15792   5.661   2.487   3.302  0.1448 -0.7672  0.0567
  144OSM    H9F15793   5.675   2.378   3.288  1.6496 -0.8752  1.9314
  144OSM   C10F15794   5.680   2.532   3.429 -0.0051 -1.1564  0.1066
  144OSM   H10F15795   5.705   2.465   3.512 -2.0373 -0.9993  0.8941
  144OSM   C11F15796   5.659   2.674   3.472 -0.2476 -0.5608  0.4124
  144OSM   H11F15797   5.619   2.741   3.393 -3.6692 -1.2433  1.4062
  144OSM   H11G15798   5.758   2.715   3.504  0.3367 -1.2698 -0.4475
  144OSM   C12F15799   5.552   2.695   3.586 -0.2377  0.5707  0.5430
  144OSM   H12F15800   5.571   2.612   3.657 -0.1010  1.6294  1.7717
  144OSM   H12G15801   5.448   2.674   3.552  0.0165  1.6989 -1.0346
  144OSM   C13F15802   5.559   2.816   3.677  0.3415 -1.1836 -0.0912
  144OSM   H13F15803   5.659   2.816   3.725  0.6837 -0.2356 -0.7766
  144OSM   H13G15804   5.487   2.798   3.760  1.8071 -1.7589  1.1058
  144OSM   C14F15805   5.539   2.946   3.602  0.0215  0.0318 -0.5015
  144OSM   H14F15806   5.621   2.936   3.527  0.5587  0.1707  0.0579
  144OSM   H14G15807   5.551   3.035   3.668 -0.2699  1.4138 -2.2317
  144OSM   C15F15808   5.397   2.951   3.543 -0.0399  0.2932 -0.4027
  144OSM   H15F15809   5.315   2.950   3.618  0.6677  0.8727  0.3983
  144OSM   H15G15810   5.380   2.863   3.478  1.3747 -1.9968  2.1431
  144OSM   C16F15811   5.392   3.081   3.454  1.0043 -0.5247  0.5923
  144OSM   H16F15812   5.423   3.172   3.510  2.1857 -1.8397  2.1713
  144OSM   H16G15813   5.291   3.104   3.413  0.4854 -2.0208  0.9616
  144OSM   C17F15814   5.470   3.069   3.321  0.3933  0.3748  0.1620
  144OSM   H17F15815   5.569   3.020   3.336  0.2014  0.0589  0.4075
  144OSM   H17G15816   5.487   3.176   3.293 -2.9977  0.7825 -0.7602
  144OSM   C18F15817   5.399   2.995   3.202  1.0416  0.1759  0.3729
  144OSM   H18F15818   5.448   2.991   3.103 -0.2829 -0.4424 -0.2916
  144OSM   H18G15819   5.306   3.050   3.173  1.7774  2.0561  1.4440
  144OSM   H18H15820   5.360   2.896   3.233 -0.1384  0.3375 -0.4938
  145SAPE     N15821   4.479   5.333   6.447 -0.1304 -0.4662 -0.2706
  145SAPE   HN115822   4.440   5.240   6.421  2.8922 -2.5220  1.8448
  145SAPE   HN215823   4.579   5.308   6.466 -0.7178 -2.6903  0.2335
  145SAPE   HN315824   4.424   5.361   6.530  0.6301 -0.6332  0.3091
  145SAPE   C1215825   4.461   5.422   6.330  0.2962 -0.2120  0.0698
  145SAPE  H12A15826   4.354   5.423   6.298 -0.3323  2.0587  1.9446
  145SAPE  H12B15827   4.529   5.385   6.250 -0.5729 -3.1212  0.5385
  145SAPE   C1115828   4.494   5.564   6.381  0.5055  0.2902  0.4565
  145SAPE  H11A15829   4.500   5.641   6.300 -1.4200  3.0422  2.7364
  145SAPE  H11B15830   4.594   5.564   6.429  0.4773  3.0264  0.6674
  145SAPE     P15831   4.399   5.744   6.547  0.2698 -0.2640  0.2723
  145SAPE   O1315832   4.317   5.735   6.669 -0.8361  0.6884 -0.1066
  145SAPE   O1415833   4.544   5.780   6.564  0.1986 -0.0960  0.0053
  145SAPE   O1215834   4.390   5.599   6.477 -0.1707 -0.3930  0.0035
  145SAPE   O1115835   4.348   5.846   6.441 -0.9430 -0.3603 -0.2405
  145SAPE    C115836   4.241   5.834   6.354  0.2326  0.5768 -0.0255
  145SAPE    HA15837   4.200   5.731   6.348 -0.0743  0.5471  1.9849
  145SAPE    HB15838   4.154   5.896   6.385  0.4783  1.1101 -0.3857
  145SAPE    C215839   4.283   5.880   6.210 -0.3684  0.4762 -0.6784
  145SAPE    HS15840   4.187   5.903   6.160 -1.2168  1.0137  1.1141
  145SAPE   O2115841   4.357   5.778   6.146 -0.2792  0.0433 -0.1498
  145SAPE   C2115842   4.287   5.677   6.109  0.0882 -0.3467  0.3439
  145SAPE   O2215843   4.165   5.667   6.124  1.2921 -0.4445 -0.0538
  145SAPE   C2215844   4.377   5.588   6.027  0.9394 -0.4536 -0.6353
  145SAPE   H2R15845   4.446   5.653   5.969 -0.9268  1.0677 -1.2285
  145SAPE   H2S15846   4.446   5.532   6.094  2.0630  0.1702 -1.2458
  145SAPE    C315847   4.369   6.011   6.196 -0.3722 -0.1437  0.3830
  145SAPE    HX15848   4.475   5.989   6.221 -0.8652 -2.2541  0.8581
  145SAPE    HY15849   4.334   6.073   6.281 -0.7439 -0.1690  0.2506
  145SAPE   O3115850   4.370   6.071   6.062  0.2089 -0.6016 -0.3565
  145SAPE   C3115851   4.265   6.160   6.051  0.2136 -0.0013  0.8363
  145SAPE   O3215852   4.173   6.170   6.130  0.1503 -0.2653  0.0252
  145SAPE   C3215853   4.278   6.236   5.914 -0.4312 -0.7438  0.9820
  145SAPE   H2X15854   4.353   6.187   5.849 -0.8375  0.3244 -0.3235
  145SAPE   H2Y15855   4.306   6.341   5.937 -0.9281 -0.5006  0.5117
  145SAPE   C2315856   4.303   5.480   5.939 -0.4288  0.2532 -0.4305
  145SAPE   H3R15857   4.217   5.426   5.985 -0.7701  0.5970 -0.6479
  145SAPE   H3S15858   4.373   5.398   5.913 -0.3410  0.0115  0.5315
  145SAPE   C2415859   4.270   5.523   5.797  0.5174  0.7640  0.8231
  145SAPE   H4R15860   4.229   5.437   5.740 -0.3647  1.1218  0.8976
  145SAPE   H4S15861   4.363   5.553   5.744  0.0887 -2.2891 -1.9665
  145SAPE   C2515862   4.164   5.630   5.799 -0.1154 -0.4766  0.2904
  145SAPE   H5R15863   4.074   5.598   5.853  0.5606  0.9240  2.3683
  145SAPE   C2615864   4.177   5.757   5.745  0.2764  0.4833 -0.1338
  145SAPE   H6R15865   4.095   5.828   5.763  0.8513  0.8626  1.1131
  145SAPE   C2715866   4.308   5.813   5.694 -0.4953  0.5190 -0.2299
  145SAPE   H7R15867   4.387   5.735   5.682 -0.2410  0.8844 -0.9495
  145SAPE   H7S15868   4.348   5.886   5.767 -1.1933  0.0392  0.6593
  145SAPE   C2815869   4.287   5.891   5.567 -0.6493  1.0342  0.7853
  145SAPE   H8R15870   4.270   5.998   5.581  0.5147  1.4195 -0.5737
  145SAPE   C2915871   4.287   5.859   5.440  0.1822  0.6446 -0.2021
  145SAPE   H9R15872   4.277   5.936   5.362 -3.3750  1.3502  0.7798
  145SAPE  C21015873   4.315   5.717   5.382 -0.7616  0.4715 -0.6346
  145SAPE  H10R15874   4.227   5.682   5.323  0.7193 -2.1735 -1.4815
  145SAPE  H10S15875   4.326   5.654   5.472 -2.4145  0.1848 -0.5903
  145SAPE  C21115876   4.437   5.699   5.299  0.2061 -0.5052  0.0627
  145SAPE  H11R15877   4.536   5.718   5.345  0.5474 -1.3887 -0.3048
  145SAPE  C21215878   4.443   5.665   5.172  0.1395  0.4031 -0.9501
  145SAPE  H12R15879   4.537   5.674   5.117  0.0214 -0.1213 -1.2420
  145SAPE  C21315880   4.333   5.622   5.086  1.0325  0.5527  0.2999
  145SAPE  H13R15881   4.255   5.700   5.074  1.0080  0.1736 -2.9464
  145SAPE  H13S15882   4.278   5.544   5.144  1.0992  0.6764  0.5312
  145SAPE  C21415883   4.383   5.550   4.964 -0.2852  0.7343 -0.0442
  145SAPE  H14R15884   4.442   5.458   4.977 -2.6133 -0.6034  1.6804
  145SAPE  C21515885   4.362   5.590   4.833 -0.7097 -0.0581 -0.0099
  145SAPE  H15R15886   4.396   5.543   4.740  3.0121  0.4867  0.9194
  145SAPE  C21615887   4.300   5.721   4.800  0.1548  0.2540 -0.7440
  145SAPE  H16R15888   4.337   5.800   4.870 -0.5464 -0.2500  0.2100
  145SAPE  H16S15889   4.192   5.706   4.821  0.7580 -2.1836  0.9719
  145SAPE  C21715890   4.320   5.778   4.664 -0.3880 -0.1557  0.7966
  145SAPE  H17R15891   4.255   5.720   4.595  1.7621 -0.6338 -0.9374
  145SAPE  H17S15892   4.423   5.759   4.626  0.2618  0.9678  1.9070
  145SAPE  C21815893   4.293   5.928   4.650  0.0206  0.3912 -0.4284
  145SAPE  H18R15894   4.370   5.987   4.704  2.4822 -0.7230 -2.5090
  145SAPE  H18S15895   4.197   5.961   4.696  0.2111  2.4192 -1.3483
  145SAPE  C21915896   4.290   5.968   4.504 -0.8343  0.3806  0.3665
  145SAPE  H19R15897   4.298   6.078   4.493  3.4712  0.0664 -2.3928
  145SAPE  H19S15898   4.197   5.925   4.461 -0.0827 -1.9137  0.8832
  145SAPE  C22015899   4.409   5.926   4.422 -0.3299 -0.3452  0.0052
  145SAPE  H20R15900   4.502   5.974   4.460  0.4081 -1.3962 -0.4174
  145SAPE  H20S15901   4.406   5.954   4.314 -0.0321 -0.7570 -0.1134
  145SAPE  H20T15902   4.413   5.815   4.408  0.5798 -0.5151  1.4567
  145SAPE   C3315903   4.142   6.253   5.849  0.7112  0.0937  0.3700
  145SAPE   H3X15904   4.079   6.310   5.920 -1.2383 -0.7576 -0.6017
  145SAPE   H3Y15905   4.093   6.160   5.814  0.0366  1.5517 -2.9282
  145SAPE   C3415906   4.143   6.337   5.718 -0.7439 -0.3529 -0.2853
  145SAPE   H4X15907   4.205   6.425   5.745 -1.9488  0.2996  0.4857
  145SAPE   H4Y15908   4.037   6.362   5.693 -0.1073 -0.5242 -3.6402
  145SAPE   C3515909   4.187   6.260   5.600  0.1914  0.7462 -0.1372
  145SAPE   H5X15910   4.138   6.160   5.600  0.5598  0.4284  3.5252
  145SAPE   H5Y15911   4.293   6.227   5.605 -0.2956 -0.9824 -0.3617
  145SAPE   C3615912   4.162   6.332   5.468 -0.0808  0.3240 -0.1002
  145SAPE   H6X15913   4.244   6.404   5.447  0.7949 -0.5967  0.1024
  145SAPE   H6Y15914   4.071   6.396   5.470 -0.6460 -0.4775  0.6958
  145SAPE   C3715915   4.164   6.234   5.358  0.2203  0.2157  0.8090
  145SAPE   H7X15916   4.070   6.176   5.351 -0.0240  0.8360 -2.0555
  145SAPE   H7Y15917   4.245   6.163   5.385  1.1791  1.1195  0.3692
  145SAPE   C3815918   4.188   6.300   5.215 -0.8235  0.2733 -0.1808
  145SAPE   H8X15919   4.296   6.323   5.223 -1.4302  3.2287  0.8138
  145SAPE   H8Y15920   4.131   6.395   5.205 -0.8724  0.5136  1.7940
  145SAPE   C3915921   4.179   6.210   5.088  0.8257 -0.4537  0.0523
  145SAPE   H9X15922   4.246   6.122   5.096 -0.2716 -1.3209 -0.0837
  145SAPE   H9Y15923   4.220   6.265   5.000  0.9957  2.1272  1.6316
  145SAPE  C31015924   4.039   6.153   5.065  0.0790  0.0541 -0.1188
  145SAPE  H10X15925   3.977   6.245   5.054 -2.5124 -1.4742  1.0514
  145SAPE  H10Y15926   4.012   6.097   5.156  0.9074  0.3083  0.2995
  145SAPE  C31115927   4.042   6.062   4.942 -0.6746 -0.0656 -0.2363
  145SAPE  H11X15928   4.129   5.995   4.958  0.6980  1.6195 -0.4245
  145SAPE  H11Y15929   4.065   6.129   4.857  0.6528 -0.5380 -0.2738
  145SAPE  C31215930   3.902   5.996   4.906 -0.9942 -0.6684 -0.0336
  145SAPE  H12X15931   3.822   6.072   4.912  0.3612  0.7559  0.6131
  145SAPE  H12Y15932   3.886   5.921   4.987  2.7421 -0.2147  1.3525
  145SAPE  C31315933   3.911   5.939   4.763  0.1832  0.5570  0.1375
  145SAPE  H13X15934   3.992   5.863   4.761 -1.9014 -1.8217 -0.4139
  145SAPE  H13Y15935   3.923   6.029   4.699 -1.0549 -0.1227 -1.1314
  145SAPE  C31415936   3.776   5.877   4.721 -0.0653  0.3657 -0.5544
  145SAPE  H14X15937   3.696   5.953   4.732  1.1743  1.5317  0.6392
  145SAPE  H14Y15938   3.763   5.793   4.793  2.5084 -0.5895 -1.0774
  145SAPE  C31515939   3.786   5.814   4.581 -0.6849  0.3555  0.2921
  145SAPE  H15X15940   3.693   5.758   4.557 -0.4587  0.1292 -0.0538
  145SAPE  H15Y15941   3.869   5.740   4.575 -3.0106 -2.6409  1.9164
  145SAPE  C31615942   3.821   5.921   4.469 -0.4328  0.4068  0.4682
  145SAPE  H16X15943   3.931   5.939   4.477 -0.6388  0.9107  2.7162
  145SAPE  H16Y15944   3.768   6.018   4.481  0.6348  1.0895 -0.1064
  145SAPE  C31715945   3.800   5.858   4.336  0.2833 -0.6820  0.0801
  145SAPE  H17X15946   3.693   5.833   4.321 -0.6415  1.8875  1.7694
  145SAPE  H17Y15947   3.862   5.766   4.346 -1.6335 -2.0677 -0.1271
  145SAPE  C31815948   3.839   5.945   4.213  0.0230  1.0248  0.2957
  145SAPE  H18X15949   3.948   5.967   4.210  0.6828 -1.9253 -1.9393
  145SAPE  H18Y15950   3.776   6.035   4.224 -1.5846 -0.0266 -0.0181
  145SAPE  H18Z15951   3.819   5.886   4.121  1.1054 -1.4335  1.5444
  146SAPE     N15952   6.638   5.927   6.912  0.0328 -0.6510  0.2952
  146SAPE   HN115953   6.624   5.841   6.969 -0.8836  1.3387  3.2595
  146SAPE   HN215954   6.556   5.987   6.930  0.9149  0.5991  0.2760
  146SAPE   HN315955   6.630   5.902   6.811 -1.3230 -1.1248  0.5074
  146SAPE   C1215956   6.771   5.997   6.929 -0.1970 -0.1629  0.3354
  146SAPE  H12A15957   6.848   5.917   6.937  3.0571  2.7498  0.2365
  146SAPE  H12B15958   6.768   6.057   7.022 -3.1653  0.4407 -0.0479
  146SAPE   C1115959   6.794   6.078   6.803  0.1422 -0.0821 -0.5329
  146SAPE  H11A15960   6.892   6.131   6.801  0.3826 -0.2576  2.5388
  146SAPE  H11B15961   6.709   6.150   6.797  0.2870  0.1321 -0.0743
  146SAPE     P15962   6.894   5.926   6.614  0.1854  0.1991  0.3003
  146SAPE   O1315963   6.973   5.848   6.714 -0.2527  0.4385 -0.2312
  146SAPE   O1415964   6.855   5.851   6.491 -0.3203  0.0522  0.6163
  146SAPE   O1215965   6.774   5.999   6.685 -0.1908 -0.0298 -0.3959
  146SAPE   O1115966   6.972   6.047   6.561 -0.0793  0.0594  0.6263
  146SAPE    C115967   6.911   6.140   6.475 -0.5207  0.3225  0.3291
  146SAPE    HA15968   6.837   6.096   6.405  1.2278  0.2048 -1.5413
  146SAPE    HB15969   6.878   6.230   6.532  0.8508  1.7419 -1.0343
  146SAPE    C215970   7.019   6.207   6.380  0.3509 -0.0253  0.1653
  146SAPE    HS15971   6.978   6.269   6.298  0.9168 -0.6414 -0.5997
  146SAPE   O2115972   7.100   6.098   6.330 -0.7364 -0.3854 -0.5161
  146SAPE   C2115973   7.036   6.022   6.256 -0.3678 -0.0413  0.2958
  146SAPE   O2215974   6.920   6.030   6.213 -0.1367 -0.2515  0.1497
  146SAPE   C2215975   7.135   5.910   6.206  0.4078 -1.0170  0.8645
  146SAPE   H2R15976   7.220   5.908   6.278  1.1855  2.6911  0.2709
  146SAPE   H2S15977   7.067   5.822   6.212 -1.0587  0.1389  2.2862
  146SAPE    C315978   7.112   6.294   6.468 -0.4038 -0.2546  0.6660
  146SAPE    HX15979   7.153   6.229   6.547 -0.0641 -2.2021 -1.0143
  146SAPE    HY15980   7.049   6.373   6.515  0.0028 -0.0112  0.8017
  146SAPE   O3115981   7.211   6.363   6.390  0.1170 -0.0429  0.5489
  146SAPE   C3115982   7.335   6.333   6.421 -0.3786  0.7013 -0.0962
  146SAPE   O3215983   7.381   6.266   6.510 -0.1051  0.0546 -0.0365
  146SAPE   C3215984   7.418   6.443   6.342  0.2683 -0.2655  0.0210
  146SAPE   H2X15985   7.524   6.427   6.373  0.6443  0.0113 -1.0918
  146SAPE   H2Y15986   7.387   6.544   6.375  0.4855  0.2833 -1.3836
  146SAPE   C2315987   7.176   5.942   6.063 -0.4279  0.4384 -0.6768
  146SAPE   H3R15988   7.088   5.984   6.010 -2.5010 -1.1252  1.3249
  146SAPE   H3S15989   7.207   5.846   6.016 -1.0621  1.2571 -2.8721
  146SAPE   C2415990   7.302   6.031   6.043  0.8390 -0.4540  0.1319
  146SAPE   H4R15991   7.272   6.124   6.095 -0.4038 -0.9640  0.3818
  146SAPE   H4S15992   7.316   6.062   5.937  2.2225 -0.2799  0.3538
  146SAPE   C2515993   7.434   5.979   6.101 -0.3984 -0.3167 -0.6276
  146SAPE   H5R15994   7.446   6.009   6.206 -0.0214 -1.5048 -0.3189
  146SAPE   C2615995   7.510   5.893   6.033 -0.1210  0.4639  0.6670
  146SAPE   H6R15996   7.612   5.871   6.067  0.5217  1.7205 -0.3722
  146SAPE   C2715997   7.488   5.844   5.891  0.3297  0.1050 -0.5764
  146SAPE   H7R15998   7.552   5.910   5.829  1.6037 -1.1804 -0.6751
  146SAPE   H7S15999   7.384   5.842   5.853  0.0310 -1.4206  0.2065
  146SAPE   C2816000   7.561   5.712   5.855 -0.2444 -0.1067  0.2794
  146SAPE   H8R16001   7.610   5.659   5.939 -0.9379 -1.1537  0.0467
  146SAPE   C2916002   7.532   5.640   5.743  0.4490  0.0397  0.0919
  146SAPE   H9R16003   7.574   5.539   5.737  0.2153  0.0285 -2.9251
  146SAPE  C21016004   7.442   5.675   5.627  0.2605 -0.5021 -0.3167
  146SAPE  H10R16005   7.491   5.739   5.551 -2.5039  1.1311 -0.8820
  146SAPE  H10S16006   7.369   5.750   5.665 -0.7552 -0.5716 -2.0681
  146SAPE  C21116007   7.362   5.561   5.570 -0.2021 -0.1023  0.3499
  146SAPE  H11R16008   7.278   5.518   5.625 -1.5929  0.0624 -1.5638
  146SAPE  C21216009   7.378   5.518   5.445  0.9813 -1.0078  0.4278
  146SAPE  H12R16010   7.309   5.437   5.419 -2.1145  0.9738  1.8341
  146SAPE  C21316011   7.485   5.555   5.344 -0.5297 -0.0947 -0.4897
  146SAPE  H13R16012   7.470   5.470   5.274 -1.8884  0.9685 -1.5427
  146SAPE  H13S16013   7.589   5.558   5.383 -0.2308  0.7527 -1.3317
  146SAPE  C21416014   7.472   5.684   5.264 -0.2645  0.2365 -0.2260
  146SAPE  H14R16015   7.440   5.775   5.317 -0.9709 -0.0057 -0.2186
  146SAPE  C21516016   7.511   5.698   5.137 -0.4005  0.8968  0.5756
  146SAPE  H15R16017   7.497   5.797   5.091 -0.9517  0.0995 -1.0330
  146SAPE  C21616018   7.559   5.594   5.036 -0.0708  0.8671  0.0315
  146SAPE  H16R16019   7.474   5.596   4.964 -0.7617 -0.0925  0.7890
  146SAPE  H16S16020   7.563   5.490   5.077 -1.3689  1.5097  1.9385
  146SAPE  C21716021   7.685   5.624   4.958 -0.0435 -0.3133 -0.6721
  146SAPE  H17R16022   7.758   5.677   5.023 -0.5058  0.1161 -0.4941
  146SAPE  H17S16023   7.650   5.701   4.886 -2.4435 -1.8475 -1.2701
  146SAPE  C21816024   7.748   5.502   4.886  0.6025 -0.2983 -0.3851
  146SAPE  H18R16025   7.662   5.445   4.845 -1.1088  0.9248  1.3358
  146SAPE  H18S16026   7.786   5.432   4.964 -2.3099 -0.2806  1.2039
  146SAPE  C21916027   7.848   5.532   4.773  0.6166  0.1035  0.6782
  146SAPE  H19R16028   7.794   5.590   4.696  1.5905  0.0665 -0.0447
  146SAPE  H19S16029   7.883   5.436   4.730 -2.0097 -1.1994  1.2639
  146SAPE  C22016030   7.974   5.606   4.824 -0.5740 -0.2765 -0.3987
  146SAPE  H20R16031   7.946   5.703   4.871  0.8735 -0.4650  0.9140
  146SAPE  H20S16032   8.056   5.612   4.750 -1.1166 -0.6000 -1.0348
  146SAPE  H20T16033   8.019   5.533   4.895  1.7019 -0.4494 -1.9274
  146SAPE   C3316034   7.416   6.421   6.192 -0.4201  1.1476  0.6083
  146SAPE   H3X16035   7.320   6.449   6.145  0.6588  3.0547 -0.5530
  146SAPE   H3Y16036   7.426   6.311   6.178 -0.7833  0.9993  1.4258
  146SAPE   C3416037   7.533   6.481   6.117 -0.5550  0.0455 -1.1930
  146SAPE   H4X16038   7.628   6.450   6.167 -1.0552 -0.3083 -0.4375
  146SAPE   H4Y16039   7.534   6.590   6.140  0.4141 -0.2934  0.5553
  146SAPE   C3516040   7.540   6.456   5.965 -0.4218 -0.1408  0.2193
  146SAPE   H5X16041   7.643   6.490   5.943 -0.6059  1.3564  1.5029
  146SAPE   H5Y16042   7.462   6.517   5.914  0.2156 -0.1847 -0.8331
  146SAPE   C3616043   7.519   6.311   5.919  0.1667  0.8359  0.2830
  146SAPE   H6X16044   7.420   6.274   5.954  0.2083  0.6778  0.2331
  146SAPE   H6Y16045   7.595   6.240   5.959  0.2939  0.3897 -0.7340
  146SAPE   C3716046   7.522   6.305   5.771 -0.2923 -0.2012 -0.3225
  146SAPE   H7X16047   7.614   6.354   5.734 -1.8136  2.3305 -1.0082
  146SAPE   H7Y16048   7.447   6.374   5.727  0.8047  1.8045  0.8258
  146SAPE   C3816049   7.511   6.170   5.707 -0.0562 -0.6511 -0.0305
  146SAPE   H8X16050   7.414   6.119   5.730 -0.5583  0.9205  1.5725
  146SAPE   H8Y16051   7.600   6.117   5.746  2.1392  1.9175 -1.2343
  146SAPE   C3916052   7.513   6.191   5.553 -0.0258  0.3779 -0.2454
  146SAPE   H9X16053   7.610   6.243   5.536 -0.0372  0.6665  0.5077
  146SAPE   H9Y16054   7.422   6.249   5.527 -1.9402 -1.1946  2.3786
  146SAPE  C31016055   7.517   6.054   5.483 -0.1270 -0.0689  0.4825
  146SAPE  H10X16056   7.420   6.007   5.509  0.2798 -0.5079  1.2383
  146SAPE  H10Y16057   7.601   6.001   5.534  2.8127  2.0797 -1.7388
  146SAPE  C31116058   7.547   6.073   5.332 -0.2151  0.3995  0.1029
  146SAPE  H11X16059   7.575   5.969   5.303  2.4513  0.5921  1.6614
  146SAPE  H11Y16060   7.642   6.127   5.311  1.0360 -2.0522 -0.9966
  146SAPE  C31216061   7.432   6.136   5.252  0.4711 -0.1618 -0.3831
  146SAPE  H12X16062   7.413   6.230   5.309 -2.0813  0.8034 -2.5620
  146SAPE  H12Y16063   7.338   6.077   5.257 -0.1977  0.8489 -0.6092
  146SAPE  C31316064   7.455   6.180   5.106 -0.4996 -0.2252  0.6263
  146SAPE  H13X16065   7.357   6.167   5.054  0.2597 -1.7055 -0.5112
  146SAPE  H13Y16066   7.520   6.110   5.049  0.3281 -0.9341  2.3602
  146SAPE  C31416067   7.492   6.331   5.078  0.0137 -0.3171  0.3213
  146SAPE  H14X16068   7.590   6.348   5.128  0.2851  0.5522 -0.4875
  146SAPE  H14Y16069   7.412   6.398   5.117 -2.5680 -1.1932 -2.9699
  146SAPE  C31516070   7.523   6.347   4.928 -0.4616 -0.6100 -0.0557
  146SAPE  H15X16071   7.431   6.345   4.866  0.5284  2.5521 -1.8110
  146SAPE  H15Y16072   7.582   6.264   4.882 -2.1775 -1.5567 -0.6409
  146SAPE  C31616073   7.594   6.477   4.895  0.5895  0.3604 -0.8140
  146SAPE  H16X16074   7.669   6.503   4.973  0.1914 -0.2351 -0.2260
  146SAPE  H16Y16075   7.512   6.551   4.881 -2.3175 -2.8347 -1.9045
  146SAPE  C31716076   7.669   6.465   4.767  0.3352  0.5459  0.4730
  146SAPE  H17X16077   7.759   6.405   4.790 -0.0130 -0.7769 -1.3832
  146SAPE  H17Y16078   7.710   6.565   4.742  2.3342 -0.6677 -1.5368
  146SAPE  C31816079   7.605   6.410   4.639  0.6837 -0.3950 -0.0019
  146SAPE  H18X16080   7.667   6.413   4.546 -0.1301 -1.8852 -0.6388
  146SAPE  H18Y16081   7.516   6.475   4.621  0.8739  0.3445  1.6124
  146SAPE  H18Z16082   7.581   6.301   4.644  0.6791 -0.4497 -1.0130
  147SAPE     N16083   5.829   3.317   6.714 -0.3178 -0.3649  0.0305
  147SAPE   HN116084   5.877   3.393   6.765 -0.5714 -1.0009  1.2524
  147SAPE   HN216085   5.858   3.313   6.615 -1.5581 -1.5123 -0.3226
  147SAPE   HN316086   5.727   3.339   6.714  0.2051  2.6332  1.8214
  147SAPE   C1216087   5.852   3.177   6.766  0.2345  0.1820 -0.0657
  147SAPE  H12A16088   5.790   3.176   6.858 -0.5134  0.3894 -0.5591
  147SAPE  H12B16089   5.961   3.172   6.787  0.3484  3.3017  0.5770
  147SAPE   C1116090   5.802   3.077   6.668  0.4826 -0.0991  0.0719
  147SAPE  H11A16091   5.695   3.101   6.651  0.2590  0.1727  1.6818
  147SAPE  H11B16092   5.823   2.975   6.708 -0.6655 -0.4211 -0.0829
  147SAPE     P16093   6.005   3.018   6.483  0.2502 -0.2335 -0.3204
  147SAPE   O1316094   6.092   3.116   6.419  0.9075  0.2117  0.1692
  147SAPE   O1416095   6.068   2.939   6.590 -0.5962 -0.2529 -0.2264
  147SAPE   O1216096   5.879   3.099   6.545 -0.0558  0.2751 -0.3021
  147SAPE   O1116097   5.939   2.931   6.370  0.2756  0.7900  0.2528
  147SAPE    C116098   5.829   2.842   6.387 -0.0044  0.3321 -0.1095
  147SAPE    HA16099   5.752   2.887   6.453  0.7619 -0.3514  1.2982
  147SAPE    HB16100   5.784   2.813   6.290 -1.2805  2.2740 -0.1371
  147SAPE    C216101   5.875   2.712   6.452  0.2473  0.2767  0.2490
  147SAPE    HS16102   5.917   2.748   6.549  0.8083 -1.3572  0.6382
  147SAPE   O2116103   5.981   2.644   6.381  0.3798 -0.2251 -0.2343
  147SAPE   C2116104   6.041   2.535   6.442  0.1828 -0.0081  0.0868
  147SAPE   O2216105   6.020   2.503   6.560 -0.1109 -0.0600  0.0194
  147SAPE   C2216106   6.143   2.467   6.348  0.1985 -0.4033  0.7934
  147SAPE   H2R16107   6.100   2.375   6.304  2.3351 -0.6261 -1.0722
  147SAPE   H2S16108   6.171   2.542   6.270  1.6725 -1.5611  0.1584
  147SAPE    C316109   5.753   2.623   6.472 -0.5175  0.3353 -0.5064
  147SAPE    HX16110   5.688   2.682   6.541  1.6418  1.1752  0.9389
  147SAPE    HY16111   5.787   2.538   6.535  1.3127  0.8689 -0.7157
  147SAPE   O3116112   5.686   2.584   6.348  0.5064  0.6204  0.3926
  147SAPE   C3116113   5.730   2.465   6.293 -0.1659 -0.1647  0.1064
  147SAPE   O3216114   5.821   2.396   6.340  0.0159  0.6025  0.4374
  147SAPE   C3216115   5.652   2.431   6.165  0.0190  0.3351  0.1229
  147SAPE   H2X16116   5.619   2.518   6.105  2.4872 -0.2207 -2.2374
  147SAPE   H2Y16117   5.565   2.370   6.200 -1.5594  2.4884  0.1489
  147SAPE   C2316118   6.268   2.412   6.416  0.1980  0.4267 -0.9504
  147SAPE   H3R16119   6.222   2.331   6.478 -1.2613  0.6651 -1.6846
  147SAPE   H3S16120   6.315   2.475   6.494 -0.4368 -0.2714  0.0237
  147SAPE   C2416121   6.362   2.335   6.322 -0.4454 -0.0874 -0.3944
  147SAPE   H4R16122   6.305   2.244   6.292 -0.5614  0.6072 -2.4036
  147SAPE   H4S16123   6.450   2.292   6.374 -1.0138 -2.0186 -0.9459
  147SAPE   C2516124   6.427   2.406   6.210  0.0447  0.8207 -0.5575
  147SAPE   H5R16125   6.516   2.469   6.226  0.2042  0.3905  0.2994
  147SAPE   C2616126   6.408   2.380   6.079 -0.5070  0.1832 -0.0290
  147SAPE   H6R16127   6.467   2.442   6.010  0.7696  0.1860  1.0441
  147SAPE   C2716128   6.312   2.279   6.021 -0.3117 -0.1394  0.2833
  147SAPE   H7R16129   6.257   2.326   5.937  2.3763 -1.3136 -2.3289
  147SAPE   H7S16130   6.233   2.254   6.094  0.1481 -0.9716  0.5089
  147SAPE   C2816131   6.394   2.150   5.972 -0.0280  0.0168 -0.3952
  147SAPE   H8R16132   6.455   2.102   6.050  0.3962  1.0033 -0.0898
  147SAPE   C2916133   6.408   2.104   5.848  0.8284  0.2773  0.1042
  147SAPE   H9R16134   6.460   2.007   5.846 -0.6611 -0.5564 -0.3782
  147SAPE  C21016135   6.333   2.152   5.728  0.0517 -0.2239  0.4032
  147SAPE  H10R16136   6.401   2.178   5.644 -0.8901 -0.0859 -0.3333
  147SAPE  H10S16137   6.280   2.247   5.750 -0.9111 -0.7354  0.3322
  147SAPE  C21116138   6.234   2.047   5.683  0.0937  0.1040 -0.8929
  147SAPE  H11R16139   6.154   2.022   5.753 -0.8057  1.1672 -1.5144
  147SAPE  C21216140   6.242   1.971   5.573  0.2595 -0.2851 -0.9519
  147SAPE  H12R16141   6.157   1.901   5.569 -0.3880  0.5276 -1.7451
  147SAPE  C21316142   6.342   1.965   5.462 -0.2789 -0.7683 -0.0414
  147SAPE  H13R16143   6.376   2.068   5.439 -0.9596 -0.1638  1.5258
  147SAPE  H13S16144   6.293   1.930   5.369 -0.0868  0.2308 -0.5379
  147SAPE  C21416145   6.457   1.866   5.478 -0.8202  0.4481  0.0364
  147SAPE  H14R16146   6.478   1.830   5.580 -1.3171 -0.8026 -0.2901
  147SAPE  C21516147   6.529   1.810   5.381 -0.5379 -0.3161 -0.4227
  147SAPE  H15R16148   6.614   1.745   5.406 -0.5023  0.4820  1.8200
  147SAPE  C21616149   6.515   1.830   5.234 -0.1057  0.2280  0.0192
  147SAPE  H16R16150   6.409   1.841   5.206  0.1256  0.6818 -0.7081
  147SAPE  H16S16151   6.543   1.734   5.185 -0.2516  1.0421 -1.7124
  147SAPE  C21716152   6.613   1.927   5.167  0.3152 -0.0974 -0.3553
  147SAPE  H17R16153   6.620   2.011   5.239 -1.6777 -2.0223  2.2947
  147SAPE  H17S16154   6.560   1.958   5.074  1.5436 -1.6364 -1.6324
  147SAPE  C21816155   6.746   1.856   5.122  0.3822 -0.1120  0.2491
  147SAPE  H18R16156   6.727   1.771   5.052 -1.3968 -1.5153  2.3094
  147SAPE  H18S16157   6.795   1.815   5.213  1.4581  0.0586 -0.2326
  147SAPE  C21916158   6.842   1.940   5.043  0.1220 -0.4370  0.2758
  147SAPE  H19R16159   6.924   1.878   4.999 -0.8492 -1.8538  0.3989
  147SAPE  H19S16160   6.881   2.010   5.119 -0.2442 -0.3714  0.4017
  147SAPE  C22016161   6.791   2.022   4.920  0.1223 -0.5252 -0.2452
  147SAPE  H20R16162   6.710   2.091   4.950 -1.5467 -2.2093 -0.6605
  147SAPE  H20S16163   6.754   1.952   4.841 -1.4170  0.8637 -0.8004
  147SAPE  H20T16164   6.875   2.085   4.884 -0.6914  0.1206 -1.0360
  147SAPE   C3316165   5.736   2.338   6.071 -0.4372  0.1696  0.3876
  147SAPE   H3X16166   5.684   2.294   5.983  1.3742  0.5232 -0.9120
  147SAPE   H3Y16167   5.781   2.255   6.128 -1.5643 -0.8016 -0.0915
  147SAPE   C3416168   5.839   2.435   6.019 -0.2685 -0.4662  0.2562
  147SAPE   H4X16169   5.903   2.477   6.099 -0.3733 -0.9951  0.6188
  147SAPE   H4Y16170   5.785   2.524   5.979  0.7064  1.0596  2.1747
  147SAPE   C3516171   5.929   2.367   5.914  0.5094  0.3228 -0.1331
  147SAPE   H5X16172   5.986   2.289   5.970  0.8054  0.8380  0.2944
  147SAPE   H5Y16173   6.001   2.444   5.880 -0.0593  1.5124  1.2641
  147SAPE   C3616174   5.850   2.327   5.786  0.3069  0.1883 -0.0236
  147SAPE   H6X16175   5.810   2.419   5.739 -0.5328  0.0249  0.3469
  147SAPE   H6Y16176   5.760   2.264   5.798  0.1626  0.5021  0.6133
  147SAPE   C3716177   5.934   2.261   5.679 -0.1996 -0.1907 -0.1650
  147SAPE   H7X16178   5.970   2.160   5.706  1.7611  0.1220 -1.3916
  147SAPE   H7Y16179   6.026   2.320   5.663 -0.4673 -0.1340 -1.7345
  147SAPE   C3816180   5.864   2.250   5.545 -0.5709 -0.1822  0.4825
  147SAPE   H8X16181   5.860   2.355   5.508  0.8834 -0.8041 -1.6617
  147SAPE   H8Y16182   5.766   2.199   5.540  0.6254 -2.5252 -2.5904
  147SAPE   C3916183   5.957   2.163   5.462 -0.3780 -0.0721 -0.2479
  147SAPE   H9X16184   5.963   2.062   5.507 -1.4263  0.5225  1.3183
  147SAPE   H9Y16185   6.061   2.202   5.469  0.1678 -1.4640 -0.3920
  147SAPE  C31016186   5.910   2.138   5.317  0.0431  0.4297  1.0687
  147SAPE  H10X16187   5.923   2.237   5.268  1.6930  0.2846  1.1585
  147SAPE  H10Y16188   5.811   2.089   5.317  0.7098 -0.9615  1.5102
  147SAPE  C31116189   6.005   2.047   5.243  0.0516 -0.1923 -0.2032
  147SAPE  H11X16190   6.000   1.945   5.288 -0.2281 -0.0811  0.0208
  147SAPE  H11Y16191   6.105   2.090   5.263 -0.5635  0.1346  2.5052
  147SAPE  C31216192   5.968   2.038   5.095 -0.2359  0.0919  0.3012
  147SAPE  H12X16193   5.999   2.133   5.045  1.7905 -0.3790  0.5760
  147SAPE  H12Y16194   5.859   2.021   5.089 -0.2070  0.3702 -1.9596
  147SAPE  C31316195   6.030   1.917   5.036  0.1110  0.0238  0.6463
  147SAPE  H13X16196   5.995   1.826   5.089 -0.3010 -0.7539 -0.8885
  147SAPE  H13Y16197   6.139   1.923   5.052  0.6110 -1.6300 -1.7092
  147SAPE  C31416198   6.012   1.899   4.875  0.6768  1.1029 -0.3172
  147SAPE  H14X16199   5.913   1.938   4.844 -0.0094 -0.6390 -0.3977
  147SAPE  H14Y16200   6.008   1.789   4.862 -0.9355  1.0686  0.2651
  147SAPE  C31516201   6.131   1.959   4.804  0.2241 -0.0485 -0.8114
  147SAPE  H15X16202   6.151   2.059   4.848  0.5137  0.6739 -2.4946
  147SAPE  H15Y16203   6.097   1.973   4.699 -3.4487 -0.6481  0.1510
  147SAPE  C31616204   6.256   1.877   4.801 -0.9242 -0.7811  0.1645
  147SAPE  H16X16205   6.236   1.799   4.725  1.5484  0.8158 -2.3118
  147SAPE  H16Y16206   6.281   1.826   4.897 -1.1561  0.0593  0.6800
  147SAPE  C31716207   6.373   1.959   4.740  0.0841  0.0879  0.1642
  147SAPE  H17X16208   6.403   2.038   4.812 -0.4063 -0.0593  0.5295
  147SAPE  H17Y16209   6.348   2.011   4.645  4.5335  1.0156 -0.7408
  147SAPE  C31816210   6.493   1.865   4.707  1.1444 -0.3291  0.0911
  147SAPE  H18X16211   6.550   1.822   4.791 -0.6244 -0.8314  1.0867
  147SAPE  H18Y16212   6.561   1.925   4.644  0.8764  0.1057  0.2086
  147SAPE  H18Z16213   6.453   1.782   4.645  0.1051 -0.2400  0.6198
  148SAPE     N16214   4.782   3.152   6.911  0.5393 -0.1352 -0.0562
  148SAPE   HN116215   4.724   3.097   6.977 -0.3128 -0.0308 -0.6974
  148SAPE   HN216216   4.883   3.143   6.933  0.6406  3.2331  1.4622
  148SAPE   HN316217   4.755   3.252   6.909 -0.0625 -0.1950  2.2911
  148SAPE   C1216218   4.760   3.097   6.777 -0.0523  0.1332 -0.3787
  148SAPE  H12A16219   4.817   3.002   6.771  0.4746  0.1851  2.5466
  148SAPE  H12B16220   4.786   3.160   6.689 -0.3473  1.5419  0.5074
  148SAPE   C1116221   4.613   3.069   6.769  0.2079  0.6494 -0.5465
  148SAPE  H11A16222   4.600   3.003   6.681 -2.6003  0.7066 -0.2514
  148SAPE  H11B16223   4.567   3.166   6.741  0.9389  1.8630  2.0992
  148SAPE     P16224   4.429   3.029   6.965  0.4558  0.6284  0.2518
  148SAPE   O1316225   4.364   2.905   7.009 -0.0227  0.0785 -0.0240
  148SAPE   O1416226   4.456   3.130   7.066  0.0305 -0.8422  0.2469
  148SAPE   O1216227   4.567   3.004   6.882 -0.0917  0.1758 -0.1682
  148SAPE   O1116228   4.341   3.094   6.847  0.6011  0.3068  0.3660
  148SAPE    C116229   4.246   3.015   6.769  0.2577  0.6729 -0.1277
  148SAPE    HA16230   4.208   2.924   6.820  1.0021 -0.9177 -2.2303
  148SAPE    HB16231   4.155   3.074   6.746  0.0322 -0.2185 -1.6698
  148SAPE    C216232   4.312   2.963   6.638  0.9698  0.4119  0.1687
  148SAPE    HS16233   4.385   3.043   6.615  0.5882  1.6214  2.8552
  148SAPE   O2116234   4.196   2.953   6.544  1.0305 -0.0119  0.4566
  148SAPE   C2116235   4.176   3.060   6.471 -0.0019 -0.4451  0.8686
  148SAPE   O2216236   4.243   3.162   6.470 -0.0545  0.0971  0.0053
  148SAPE   C2216237   4.051   3.023   6.378 -0.2603 -0.3793  0.8393
  148SAPE   H2R16238   4.004   2.928   6.414  0.2811 -1.6366 -1.5788
  148SAPE   H2S16239   3.977   3.105   6.390 -0.4287 -0.2825 -0.6941
  148SAPE    C316240   4.376   2.822   6.654 -0.3742  0.1864  0.3618
  148SAPE    HX16241   4.303   2.765   6.715 -0.3428  0.2845  0.4900
  148SAPE    HY16242   4.474   2.827   6.706  0.0856  0.8014 -0.5357
  148SAPE   O3116243   4.402   2.776   6.521 -0.2346  0.1441  0.4140
  148SAPE   C3116244   4.342   2.664   6.486  0.3539  0.0600 -0.1937
  148SAPE   O3216245   4.263   2.599   6.555 -0.0632 -0.5870  0.6933
  148SAPE   C3216246   4.384   2.631   6.342 -0.2553  0.7567 -0.1323
  148SAPE   H2X16247   4.494   2.637   6.344 -0.0251 -1.7602 -1.1292
  148SAPE   H2Y16248   4.332   2.705   6.276 -1.2045 -0.3182 -0.6375
  148SAPE   C2316249   4.090   2.997   6.224 -0.6324  0.0964  0.0674
  148SAPE   H3R16250   4.006   2.944   6.174  0.3624 -1.4070 -0.0713
  148SAPE   H3S16251   4.183   2.935   6.221  0.3476  1.5160  0.3517
  148SAPE   C2416252   4.129   3.125   6.142  0.0092  0.3455 -0.3611
  148SAPE   H4R16253   4.177   3.099   6.045 -0.1655  2.2699 -1.0033
  148SAPE   H4S16254   4.205   3.174   6.207 -1.4701  1.1866  0.7992
  148SAPE   C2516255   4.006   3.209   6.115 -0.0136  0.4441 -0.2620
  148SAPE   H5R16256   3.994   3.296   6.182  0.0938 -1.4760  2.4052
  148SAPE   C2616257   3.914   3.180   6.018 -0.0623  0.5377 -0.1376
  148SAPE   H6R16258   3.840   3.257   5.993  2.5042  2.4557 -2.3366
  148SAPE   C2716259   3.908   3.053   5.928 -0.0579 -0.0860 -0.1481
  148SAPE   H7R16260   3.829   2.983   5.962 -0.1864 -0.7957 -1.8569
  148SAPE   H7S16261   4.000   2.990   5.932 -0.6942 -1.1709 -1.7222
  148SAPE   C2816262   3.883   3.094   5.786  0.2231  0.4188 -0.7284
  148SAPE   H8R16263   3.776   3.101   5.762 -0.5629  1.9530  2.5944
  148SAPE   C2916264   3.973   3.107   5.694 -0.7337  0.4271  0.5099
  148SAPE   H9R16265   3.929   3.128   5.595  1.4666  0.5428 -0.5024
  148SAPE  C21016266   4.125   3.114   5.700 -0.9724 -0.3775 -0.7591
  148SAPE  H10R16267   4.157   3.137   5.804  1.4510  2.2852 -1.9580
  148SAPE  H10S16268   4.164   3.203   5.646 -1.1934 -0.9816 -1.9567
  148SAPE  C21116269   4.194   2.989   5.660 -0.0542 -0.3955  0.1448
  148SAPE  H11R16270   4.225   2.920   5.739  1.4003  0.4624  0.3654
  148SAPE  C21216271   4.212   2.948   5.529  0.3604  0.6035  0.0270
  148SAPE  H12R16272   4.263   2.852   5.516 -0.2879  0.0804  1.2286
  148SAPE  C21316273   4.172   3.024   5.404 -0.0571  0.1653 -0.1910
  148SAPE  H13R16274   4.246   2.994   5.326 -0.3030  0.9465 -0.7427
  148SAPE  H13S16275   4.171   3.135   5.412  0.7125  0.0902  1.2336
  148SAPE  C21416276   4.048   2.974   5.346 -0.4752 -0.4843  0.9890
  148SAPE  H14R16277   3.966   2.968   5.419 -0.2792 -1.5246  1.1453
  148SAPE  C21516278   4.017   2.927   5.223  0.3270  0.1699  0.4139
  148SAPE  H15R16279   3.908   2.910   5.212  0.1207  1.3807  0.3969
  148SAPE  C21616280   4.101   2.936   5.099  0.0925 -0.6334 -0.7195
  148SAPE  H16R16281   4.152   2.839   5.080  1.7225  0.1095 -0.3439
  148SAPE  H16S16282   4.176   3.016   5.117 -0.1260 -0.5910  0.0194
  148SAPE  C21716283   4.029   2.962   4.960  0.4657 -0.2787 -1.0612
  148SAPE  H17R16284   3.986   3.064   4.967 -1.9338 -1.2521 -0.6947
  148SAPE  H17S16285   3.948   2.887   4.950 -1.6290  1.5693  0.9548
  148SAPE  C21816286   4.116   2.952   4.835  0.2971  0.6814 -0.2863
  148SAPE  H18R16287   4.168   2.855   4.820 -0.3518  0.3171 -0.2054
  148SAPE  H18S16288   4.194   3.029   4.857  1.3154  0.2081 -2.0596
  148SAPE  C21916289   4.051   3.001   4.710  0.6052  0.1157  0.1315
  148SAPE  H19R16290   4.126   3.031   4.633 -1.6193  1.6555 -1.5430
  148SAPE  H19S16291   3.990   3.092   4.730 -0.0526 -0.2729 -0.0963
  148SAPE  C22016292   3.976   2.893   4.635 -0.1311  0.0890 -0.1209
  148SAPE  H20R16293   3.876   2.878   4.681 -0.3211  1.9966  0.1594
  148SAPE  H20S16294   4.038   2.801   4.637  1.9706  1.4224 -1.1656
  148SAPE  H20T16295   3.947   2.934   4.536  0.5373  2.5333  0.6273
  148SAPE   C3316296   4.343   2.492   6.293 -0.0629  0.0093  0.0644
  148SAPE   H3X16297   4.244   2.488   6.241  0.3898 -0.3740 -0.7880
  148SAPE   H3Y16298   4.339   2.422   6.379 -0.9559  0.7821  0.6758
  148SAPE   C3416299   4.443   2.436   6.191  0.2626  0.3575 -0.3609
  148SAPE   H4X16300   4.456   2.327   6.207  0.8090  0.3863 -0.5808
  148SAPE   H4Y16301   4.542   2.486   6.201  1.3069 -1.1966 -2.3677
  148SAPE   C3516302   4.390   2.460   6.046 -0.6541  0.4323  0.2603
  148SAPE   H5X16303   4.294   2.402   6.045  0.3017 -1.3373  2.3388
  148SAPE   H5Y16304   4.462   2.415   5.975 -0.1801 -0.4383  1.2646
  148SAPE   C3616305   4.356   2.609   5.996 -0.0723 -0.3493 -0.2773
  148SAPE   H6X16306   4.442   2.663   6.041  0.3317 -1.3182  0.1448
  148SAPE   H6Y16307   4.265   2.646   6.048  0.9440  2.8857 -0.5657
  148SAPE   C3716308   4.341   2.633   5.848 -0.3357 -0.0019 -0.0033
  148SAPE   H7X16309   4.434   2.637   5.787 -0.4880  0.8626 -0.2028
  148SAPE   H7Y16310   4.296   2.733   5.832  0.1092  0.2782  0.4576
  148SAPE   C3816311   4.252   2.525   5.770  0.0376 -0.6072 -0.4267
  148SAPE   H8X16312   4.160   2.505   5.829  0.1767 -0.3756 -0.1279
  148SAPE   H8Y16313   4.315   2.434   5.767 -0.1464 -0.7150 -1.4327
  148SAPE   C3916314   4.228   2.559   5.623 -0.3037  0.7593 -0.5512
  148SAPE   H9X16315   4.316   2.617   5.586  0.5455 -0.6980 -0.8846
  148SAPE   H9Y16316   4.139   2.623   5.607 -0.4433  1.0168  1.0862
  148SAPE  C31016317   4.223   2.434   5.540 -0.3049  0.0971 -0.2424
  148SAPE  H10X16318   4.152   2.366   5.590 -0.3638 -0.3254 -0.8874
  148SAPE  H10Y16319   4.320   2.381   5.525  0.3243  1.6531 -2.2202
  148SAPE  C31116320   4.171   2.462   5.396 -0.2356  0.4850 -0.4364
  148SAPE  H11X16321   4.070   2.508   5.403 -0.8914 -1.1076  1.3221
  148SAPE  H11Y16322   4.157   2.365   5.345 -0.4265  0.6622 -0.7239
  148SAPE  C31216323   4.262   2.560   5.319 -0.5242 -0.6631  0.8699
  148SAPE  H12X16324   4.369   2.533   5.311  0.7049  3.4226  0.9966
  148SAPE  H12Y16325   4.265   2.658   5.372 -1.0857 -0.6313  0.8514
  148SAPE  C31316326   4.203   2.589   5.181 -0.1490 -0.2862 -0.4166
  148SAPE  H13X16327   4.258   2.674   5.137  1.2787 -0.8972  0.1421
  148SAPE  H13Y16328   4.096   2.620   5.189 -0.1192  0.4831 -2.4839
  148SAPE  C31416329   4.233   2.472   5.085  0.6027 -0.3388  0.6502
  148SAPE  H14X16330   4.193   2.375   5.122 -0.3977 -0.7022 -1.2759
  148SAPE  H14Y16331   4.343   2.472   5.072  0.3800  1.0440 -1.8189
  148SAPE  C31516332   4.178   2.488   4.944 -0.1472  0.1295 -0.1751
  148SAPE  H15X16333   4.216   2.583   4.899 -2.8128 -0.1194 -3.3021
  148SAPE  H15Y16334   4.070   2.495   4.968 -0.5183 -2.8342 -0.6572
  148SAPE  C31616335   4.218   2.372   4.845 -0.5202 -0.7912 -1.1371
  148SAPE  H16X16336   4.177   2.280   4.894 -1.1541  0.0137 -0.1208
  148SAPE  H16Y16337   4.326   2.350   4.836  0.0227  0.4938  1.2709
  148SAPE  C31716338   4.150   2.394   4.708 -0.2796  0.3001  0.4488
  148SAPE  H17X16339   4.047   2.353   4.702 -0.1787 -0.0613  1.0858
  148SAPE  H17Y16340   4.209   2.334   4.635  0.8821 -0.8037  2.2143
  148SAPE  C31816341   4.149   2.536   4.655  0.0217  0.2386 -0.0149
  148SAPE  H18X16342   4.107   2.605   4.732  0.7189 -0.4670  1.0269
  148SAPE  H18Y16343   4.078   2.557   4.572 -0.9375  2.2489  1.2075
  148SAPE  H18Z16344   4.250   2.567   4.619 -0.0129  0.9553  0.4677
  149SAPE     N16345   3.760   1.416   6.863  0.6815  0.3312 -0.2811
  149SAPE   HN116346   3.766   1.376   6.959  1.1037 -1.6053 -1.0619
  149SAPE   HN216347   3.798   1.512   6.850  3.1346 -0.4529  0.4899
  149SAPE   HN316348   3.659   1.413   6.839  0.6092 -0.7331  0.0987
  149SAPE   C1216349   3.822   1.322   6.768 -0.9615  0.6045  0.2967
  149SAPE  H12A16350   3.820   1.218   6.807 -0.5607  0.1772 -0.7898
  149SAPE  H12B16351   3.922   1.358   6.735 -0.6416 -0.9520 -0.5112
  149SAPE   C1116352   3.745   1.322   6.634 -1.0744 -0.3433  0.3163
  149SAPE  H11A16353   3.807   1.272   6.557 -0.0896  0.5476  0.5011
  149SAPE  H11B16354   3.741   1.429   6.605 -0.2237  0.3066  2.3900
  149SAPE     P16355   3.478   1.330   6.682  0.3158  0.0539  0.1010
  149SAPE   O1316356   3.376   1.220   6.684 -0.7419  0.1823  0.0069
  149SAPE   O1416357   3.505   1.399   6.809  0.0887 -0.1976 -0.8648
  149SAPE   O1216358   3.613   1.259   6.634  0.4137 -0.3126 -0.4666
  149SAPE   O1116359   3.446   1.436   6.571  0.5101 -0.0381  0.0698
  149SAPE    C116360   3.464   1.397   6.434  1.2699  0.0620 -0.8613
  149SAPE    HA16361   3.531   1.309   6.425  0.7053 -0.3743 -0.8093
  149SAPE    HB16362   3.363   1.391   6.388  0.6067  0.0374  0.5448
  149SAPE    C216363   3.536   1.502   6.350 -0.5348 -0.3311  0.1167
  149SAPE    HS16364   3.639   1.518   6.387 -0.6132  0.2854  0.0806
  149SAPE   O2116365   3.470   1.632   6.356  0.3752 -0.1100 -0.2082
  149SAPE   C2116366   3.552   1.733   6.384 -0.4467  0.1106 -0.2052
  149SAPE   O2216367   3.677   1.733   6.394  0.0784  0.0668  0.7064
  149SAPE   C2216368   3.465   1.860   6.403  0.4045  0.0220  0.0016
  149SAPE   H2R16369   3.377   1.856   6.336  0.0949  1.6679  0.2772
  149SAPE   H2S16370   3.428   1.860   6.508  1.5092 -0.1113  0.4136
  149SAPE    C316371   3.554   1.449   6.203  0.5087  0.2392  0.3780
  149SAPE    HX16372   3.459   1.452   6.146  1.4122  0.0932 -1.1986
  149SAPE    HY16373   3.587   1.343   6.212  1.1597  0.4514  0.5537
  149SAPE   O3116374   3.646   1.544   6.140  0.2665  1.4155 -0.1543
  149SAPE   C3116375   3.777   1.530   6.173 -0.5401  0.5417  0.2776
  149SAPE   O3216376   3.824   1.436   6.232  0.2309 -0.4101 -0.3387
  149SAPE   C3216377   3.855   1.640   6.110 -0.0492  0.1467  0.0525
  149SAPE   H2X16378   3.911   1.685   6.195 -1.3771 -1.6378  1.9647
  149SAPE   H2Y16379   3.769   1.701   6.075 -1.1937 -1.5092 -0.1400
  149SAPE   C2316380   3.548   1.979   6.376  0.3244 -0.1335 -0.5683
  149SAPE   H3R16381   3.642   1.971   6.435  0.3706 -2.5389 -0.8986
  149SAPE   H3S16382   3.494   2.066   6.420 -1.2218 -1.4466  0.2130
  149SAPE   C2416383   3.590   2.000   6.228 -0.3202 -0.0195  0.0433
  149SAPE   H4R16384   3.658   1.920   6.192  2.0276  1.8133  0.1698
  149SAPE   H4S16385   3.653   2.091   6.237 -1.1940  0.4203  2.3979
  149SAPE   C2516386   3.465   2.056   6.156 -0.9061 -0.1674  0.3701
  149SAPE   H5R16387   3.390   2.107   6.218  1.6260  1.0970  2.5921
  149SAPE   C2616388   3.449   2.022   6.028  0.3464  0.1622  0.2263
  149SAPE   H6R16389   3.352   2.053   5.987 -0.2518 -1.3363  0.4407
  149SAPE   C2716390   3.532   1.962   5.919  0.1974 -0.2515 -0.6410
  149SAPE   H7R16391   3.635   1.998   5.941  0.1270 -0.5276  0.2016
  149SAPE   H7S16392   3.502   1.996   5.818  0.4098  0.5094 -0.4577
  149SAPE   C2816393   3.530   1.814   5.934 -0.7233  0.4875  0.0378
  149SAPE   H8R16394   3.557   1.765   6.028 -2.1663 -1.3729 -0.4549
  149SAPE   C2916395   3.526   1.729   5.833 -0.2234  0.0968  0.2164
  149SAPE   H9R16396   3.549   1.624   5.852 -2.5273 -0.6309 -0.7198
  149SAPE  C21016397   3.498   1.758   5.691 -0.1783  0.6817  0.2675
  149SAPE  H10R16398   3.421   1.838   5.690 -1.6170 -0.6354  1.4440
  149SAPE  H10S16399   3.448   1.672   5.642 -0.0785  1.2427 -0.8711
  149SAPE  C21116400   3.596   1.813   5.590 -0.1198 -0.3129 -0.3416
  149SAPE  H11R16401   3.683   1.857   5.641  0.1100 -2.2241  1.0327
  149SAPE  C21216402   3.597   1.807   5.458  0.5108  0.6140  0.1351
  149SAPE  H12R16403   3.673   1.870   5.410 -1.8255  3.5815  0.0671
  149SAPE  C21316404   3.487   1.746   5.378 -0.1145  0.0239 -0.4077
  149SAPE  H13R16405   3.390   1.757   5.431  0.0220 -0.3523 -0.0733
  149SAPE  H13S16406   3.505   1.637   5.364  0.8710 -0.4023  3.2547
  149SAPE  C21416407   3.466   1.824   5.251 -0.2407 -0.2902  0.0782
  149SAPE  H14R16408   3.391   1.904   5.253  0.8252  0.7257  0.8812
  149SAPE  C21516409   3.521   1.798   5.126 -0.4239 -0.3836 -0.0819
  149SAPE  H15R16410   3.496   1.866   5.043  0.0947  0.4414  0.4256
  149SAPE  C21616411   3.615   1.686   5.097  1.2295  1.8179 -0.0992
  149SAPE  H16R16412   3.559   1.590   5.103 -1.1665  3.1592  0.4438
  149SAPE  H16S16413   3.703   1.674   5.164 -0.4774 -3.4152  1.6809
  149SAPE  C21716414   3.682   1.687   4.957  0.3685 -0.1189 -0.0469
  149SAPE  H17R16415   3.780   1.636   4.974  0.8665  1.7091  3.4716
  149SAPE  H17S16416   3.708   1.791   4.931 -2.1543  0.4402 -0.6081
  149SAPE  C21816417   3.613   1.632   4.829  0.4300  0.7620  0.0216
  149SAPE  H18R16418   3.520   1.688   4.806 -0.2218 -0.8862 -1.6248
  149SAPE  H18S16419   3.587   1.532   4.869 -3.0177  0.6439 -2.1083
  149SAPE  C21916420   3.705   1.613   4.710  0.4017  0.3304 -0.4437
  149SAPE  H19R16421   3.792   1.553   4.745  0.2488 -0.7192 -1.7613
  149SAPE  H19S16422   3.743   1.709   4.668 -0.4150  1.3096  0.9880
  149SAPE  C22016423   3.627   1.536   4.606 -0.6213  0.8153 -0.0261
  149SAPE  H20R16424   3.555   1.471   4.658 -0.2352  1.1266  0.9091
  149SAPE  H20S16425   3.700   1.466   4.559  1.7850  2.9152  0.3385
  149SAPE  H20T16426   3.581   1.608   4.535 -2.9162 -1.9882 -1.6012
  149SAPE   C3316427   3.946   1.601   5.995 -0.6078  0.2668  0.3939
  149SAPE   H3X16428   3.894   1.536   5.922  0.4258 -1.5521  1.2042
  149SAPE   H3Y16429   4.044   1.557   6.024 -0.0360 -0.5048 -2.3967
  149SAPE   C3416430   3.991   1.742   5.928 -0.4832  0.1908 -0.4867
  149SAPE   H4X16431   4.030   1.804   6.011 -0.7783 -1.1622  0.7077
  149SAPE   H4Y16432   3.901   1.794   5.890 -0.6702 -0.7980 -1.4635
  149SAPE   C3516433   4.094   1.729   5.824  0.1277  0.3007 -0.4460
  149SAPE   H5X16434   4.196   1.718   5.867 -0.2094 -0.7236  0.1093
  149SAPE   H5Y16435   4.098   1.829   5.774 -0.9799  0.9486  0.7097
  149SAPE   C3616436   4.072   1.624   5.717 -0.0456 -0.0230  0.1892
  149SAPE   H6X16437   4.080   1.523   5.763 -2.3513 -0.3178  0.0176
  149SAPE   H6Y16438   4.156   1.632   5.644 -0.7350  0.4277 -0.5722
  149SAPE   C3716439   3.937   1.647   5.641  0.1677  0.2405  0.5286
  149SAPE   H7X16440   3.933   1.752   5.606  0.2270  0.0014 -0.2349
  149SAPE   H7Y16441   3.848   1.616   5.700 -1.7940  1.2631 -1.7124
  149SAPE   C3816442   3.942   1.548   5.518  0.3871  0.4661  0.2404
  149SAPE   H8X16443   3.844   1.544   5.465  1.4072 -2.1195 -1.6627
  149SAPE   H8Y16444   3.953   1.448   5.566 -0.9696  0.0012 -0.3496
  149SAPE   C3916445   4.044   1.586   5.416 -0.4951 -0.2662 -0.6901
  149SAPE   H9X16446   4.147   1.582   5.456 -0.5815  1.3392 -0.2174
  149SAPE   H9Y16447   4.027   1.695   5.400  1.0952  0.3316  1.3141
  149SAPE  C31016448   4.047   1.517   5.272  0.3987  0.7703 -0.3524
  149SAPE  H10X16449   3.942   1.533   5.236  0.2673 -1.0885 -0.9179
  149SAPE  H10Y16450   4.069   1.408   5.281 -1.8065  0.1431 -1.6374
  149SAPE  C31116451   4.149   1.569   5.171 -0.1195  0.0074  0.3193
  149SAPE  H11X16452   4.254   1.555   5.204  0.3358  1.0967 -0.5965
  149SAPE  H11Y16453   4.133   1.679   5.169  0.3511  0.0747 -0.2022
  149SAPE  C31216454   4.114   1.517   5.032 -0.5937 -0.3301  0.1096
  149SAPE  H12X16455   4.007   1.521   5.000 -1.2551 -0.0963  2.1851
  149SAPE  H12Y16456   4.148   1.411   5.025  2.3919  0.6259 -1.3952
  149SAPE  C31316457   4.187   1.583   4.914  0.3849 -0.0674 -1.1458
  149SAPE  H13X16458   4.294   1.604   4.937 -0.0954  1.0006  0.2324
  149SAPE  H13Y16459   4.140   1.680   4.886 -0.3600 -0.0982 -0.0193
  149SAPE  C31416460   4.187   1.500   4.785  0.1978 -0.0562  0.3334
  149SAPE  H14X16461   4.086   1.469   4.753  0.3254  0.9577 -1.1785
  149SAPE  H14Y16462   4.254   1.411   4.793 -0.4481 -0.7631 -1.6541
  149SAPE  C31516463   4.250   1.585   4.675  0.5059  0.0295 -0.1792
  149SAPE  H15X16464   4.279   1.525   4.587 -0.1940  0.7996 -0.9609
  149SAPE  H15Y16465   4.343   1.636   4.709  0.6274  1.6772 -2.7045
  149SAPE  C31616466   4.145   1.691   4.634 -0.0784 -0.5021  0.6928
  149SAPE  H16X16467   4.128   1.763   4.718  1.2457  1.5072 -0.6766
  149SAPE  H16Y16468   4.047   1.644   4.615  0.0012  0.3709 -2.4516
  149SAPE  C31716469   4.176   1.753   4.494  0.5983 -0.1372  0.1246
  149SAPE  H17X16470   4.083   1.804   4.459 -1.1899 -2.0714  1.7766
  149SAPE  H17Y16471   4.195   1.668   4.425  0.1407  1.3131 -1.8815
  149SAPE  C31816472   4.299   1.843   4.500 -0.1706  0.3187  0.5346
  149SAPE  H18X16473   4.322   1.868   4.394  1.5260  0.5107  0.9227
  149SAPE  H18Y16474   4.387   1.784   4.531 -0.6313 -1.7758 -1.8466
  149SAPE  H18Z16475   4.292   1.930   4.568  0.6044  0.9297 -0.1489
  150SAPE     N16476   6.562   1.513   6.668 -0.3424 -0.1648  0.0062
  150SAPE   HN116477   6.471   1.464   6.683 -1.0283  1.2540  0.6345
  150SAPE   HN216478   6.637   1.468   6.724  0.1957  0.8291  0.1112
  150SAPE   HN316479   6.554   1.607   6.712  1.1216  0.2026 -0.4686
  150SAPE   C1216480   6.607   1.528   6.524  0.5888  0.0551 -0.3058
  150SAPE  H12A16481   6.515   1.553   6.467 -1.3411 -0.9926  2.1428
  150SAPE  H12B16482   6.645   1.429   6.491 -0.3425 -1.0432  1.7359
  150SAPE   C1116483   6.716   1.639   6.519  0.6516  0.1587  0.7027
  150SAPE  H11A16484   6.660   1.735   6.518 -0.5623 -0.5178 -0.5234
  150SAPE  H11B16485   6.764   1.643   6.419  0.1344  0.9593  0.4805
  150SAPE     P16486   6.918   1.751   6.631 -0.1949  0.2988 -0.3504
  150SAPE   O1316487   6.889   1.863   6.721  0.7582 -0.3845 -0.0036
  150SAPE   O1416488   7.041   1.673   6.658  0.6254  0.3068  0.0215
  150SAPE   O1216489   6.799   1.645   6.638 -0.2162 -0.1608 -0.5441
  150SAPE   O1116490   6.928   1.789   6.479  0.6011  0.0664  0.4611
  150SAPE    C116491   6.908   1.924   6.428 -0.4951 -0.3038 -0.1552
  150SAPE    HA16492   6.881   2.001   6.503  0.7999  0.2939 -0.2688
  150SAPE    HB16493   7.006   1.960   6.388 -0.1499 -0.9001  0.1386
  150SAPE    C216494   6.816   1.927   6.301  0.0756 -0.0969  0.2274
  150SAPE    HS16495   6.837   2.030   6.264  0.6223  0.5160  2.1663
  150SAPE   O2116496   6.671   1.905   6.326 -0.2760 -0.3842  0.2342
  150SAPE   C2116497   6.607   2.008   6.387  0.5620  0.0416 -0.0391
  150SAPE   O2216498   6.650   2.121   6.413 -0.4443 -0.2054 -0.4345
  150SAPE   C2216499   6.463   1.957   6.411  0.1623  0.1599  0.8084
  150SAPE   H2R16500   6.453   1.868   6.477 -1.5959 -0.2384  0.0662
  150SAPE   H2S16501   6.423   2.031   6.483 -1.6987  0.5222 -0.5099
  150SAPE    C316502   6.876   1.826   6.197 -0.2398  0.1298  0.0426
  150SAPE    HX16503   6.851   1.722   6.228  1.8179 -0.4426 -0.0440
  150SAPE    HY16504   6.987   1.818   6.198 -0.3150 -1.2684 -0.7095
  150SAPE   O3116505   6.829   1.844   6.063 -0.3983 -0.0244 -1.3630
  150SAPE   C3116506   6.884   1.946   6.000 -0.0247  0.1830 -0.1116
  150SAPE   O3216507   6.970   2.022   6.044  0.0085 -0.0431  0.5499
  150SAPE   C3216508   6.809   1.959   5.865 -0.7117 -0.1020 -0.2821
  150SAPE   H2X16509   6.703   1.933   5.887 -0.8491  1.0615  0.5478
  150SAPE   H2Y16510   6.845   1.882   5.794  0.2774  2.1702 -2.3698
  150SAPE   C2316511   6.372   1.940   6.282 -0.0266  0.8927 -0.2502
  150SAPE   H3R16512   6.432   1.875   6.216  0.3776 -0.2778  1.2011
  150SAPE   H3S16513   6.346   2.035   6.231 -0.1875  0.6224 -0.6801
  150SAPE   C2416514   6.242   1.871   6.323 -0.1050 -0.7167  0.2805
  150SAPE   H4R16515   6.262   1.766   6.352 -3.6479 -1.7036 -0.3925
  150SAPE   H4S16516   6.175   1.854   6.236  0.2637  0.3371 -0.2256
  150SAPE   C2516517   6.169   1.946   6.440 -0.0164  0.1235 -0.0079
  150SAPE   H5R16518   6.199   1.911   6.540 -0.0455  1.6150  0.5459
  150SAPE   C2616519   6.068   2.031   6.415 -0.1686 -0.0561  0.3466
  150SAPE   H6R16520   6.023   2.086   6.499  0.7932  1.0283  0.1653
  150SAPE   C2716521   6.020   2.068   6.282 -0.2727  0.3974  0.3506
  150SAPE   H7R16522   6.106   2.065   6.212 -1.0636  2.5013 -0.8308
  150SAPE   H7S16523   5.993   2.176   6.280  2.6220  1.1969  0.2820
  150SAPE   C2816524   5.915   1.974   6.229  0.7464  0.0868  0.0706
  150SAPE   H8R16525   5.842   1.946   6.306  1.6850 -3.5412 -0.1650
  150SAPE   C2916526   5.904   1.929   6.098 -0.1201 -0.5783 -0.7589
  150SAPE   H9R16527   5.821   1.865   6.067  0.9340 -1.9462 -0.8395
  150SAPE  C21016528   6.002   1.943   5.985 -0.1081  0.0389 -0.0851
  150SAPE  H10R16529   6.105   1.919   6.020  0.2545 -0.4257 -1.4083
  150SAPE  H10S16530   5.998   2.052   5.961  0.0763 -0.0805 -0.6827
  150SAPE  C21116531   5.965   1.871   5.857  0.2412  0.1829 -0.4102
  150SAPE  H11R16532   5.866   1.901   5.819  0.6899  0.5335 -1.3426
  150SAPE  C21216533   6.035   1.771   5.798 -0.3160 -0.3239  0.2309
  150SAPE  H12R16534   5.980   1.719   5.718 -1.4128  1.2106 -0.0569
  150SAPE  C21316535   6.172   1.720   5.840  0.1531  0.6653  0.4435
  150SAPE  H13R16536   6.196   1.758   5.941 -1.2249 -1.5513  1.6798
  150SAPE  H13S16537   6.243   1.761   5.764  1.9357 -0.4847  1.4094
  150SAPE  C21416538   6.166   1.567   5.857 -0.4269 -0.5349 -0.8404
  150SAPE  H14R16539   6.105   1.540   5.944 -0.6302  1.5482 -0.2959
  150SAPE  C21516540   6.215   1.474   5.774 -0.3219 -0.2951 -0.3653
  150SAPE  H15R16541   6.219   1.368   5.799  4.1084 -0.0937  0.5784
  150SAPE  C21616542   6.289   1.511   5.640 -0.7313 -0.2484 -0.2672
  150SAPE  H16R16543   6.385   1.457   5.630 -0.3036  0.4648 -0.1091
  150SAPE  H16S16544   6.328   1.615   5.643 -2.1472  0.3015  0.0787
  150SAPE  C21716545   6.183   1.496   5.522 -0.1395 -0.0127 -0.3048
  150SAPE  H17R16546   6.116   1.583   5.537 -2.1029 -1.0996 -2.1247
  150SAPE  H17S16547   6.115   1.410   5.542 -2.2249  1.5690 -0.2010
  150SAPE  C21816548   6.236   1.500   5.379  0.5773  0.1642 -0.3812
  150SAPE  H18R16549   6.287   1.401   5.372  1.0620  0.2881  1.1249
  150SAPE  H18S16550   6.312   1.581   5.374 -0.2226  0.8402 -2.6411
  150SAPE  C21916551   6.126   1.504   5.269  0.4671 -0.4219  0.0997
  150SAPE  H19R16552   6.076   1.603   5.279 -0.4467 -0.7777 -0.7938
  150SAPE  H19S16553   6.050   1.423   5.272  0.3266 -0.2620  1.1992
  150SAPE  C22016554   6.197   1.493   5.138 -0.5087  0.0295  0.3696
  150SAPE  H20R16555   6.231   1.387   5.138 -1.9657 -0.4571  0.3715
  150SAPE  H20S16556   6.276   1.571   5.134 -1.5432  1.0443 -1.2750
  150SAPE  H20T16557   6.141   1.512   5.044  1.5831 -3.3404 -1.8086
  150SAPE   C3316558   6.824   2.099   5.788  0.2389  0.2189  0.0130
  150SAPE   H3X16559   6.929   2.133   5.776 -0.5012  2.6070 -0.3154
  150SAPE   H3Y16560   6.780   2.179   5.851 -0.5849 -0.4785  0.3281
  150SAPE   C3416561   6.748   2.098   5.654 -0.2197 -0.4089  0.4921
  150SAPE   H4X16562   6.645   2.063   5.675 -0.6711  1.0235  0.7886
  150SAPE   H4Y16563   6.787   2.025   5.580 -4.5482 -0.7378 -1.8403
  150SAPE   C3516564   6.739   2.237   5.574 -0.2366  0.3722  0.6344
  150SAPE   H5X16565   6.841   2.273   5.551 -0.7537  0.8874 -0.9972
  150SAPE   H5Y16566   6.687   2.313   5.636 -0.3441  0.0934  0.8872
  150SAPE   C3616567   6.661   2.222   5.440 -0.3266 -0.3951  0.4222
  150SAPE   H6X16568   6.568   2.161   5.453 -2.0476  1.6583 -1.4510
  150SAPE   H6Y16569   6.723   2.161   5.371 -1.5396 -0.0388 -1.0162
  150SAPE   C3716570   6.630   2.362   5.371 -1.0152  0.6847 -0.5045
  150SAPE   H7X16571   6.703   2.444   5.391 -2.5350  2.0722 -0.4628
  150SAPE   H7Y16572   6.536   2.402   5.413  0.5069  1.8872  1.9801
  150SAPE   C3816573   6.606   2.344   5.219 -0.2037  0.3124  0.0016
  150SAPE   H8X16574   6.521   2.277   5.199 -0.9978  1.2397  0.1995
  150SAPE   H8Y16575   6.686   2.280   5.176 -0.5776  0.4932 -0.9787
  150SAPE   C3916576   6.595   2.476   5.138 -0.1244  0.2279 -0.6341
  150SAPE   H9X16577   6.681   2.539   5.168  0.2196  0.4085 -1.9276
  150SAPE   H9Y16578   6.509   2.534   5.178  0.9155  2.0644 -0.9972
  150SAPE  C31016579   6.591   2.471   4.989  0.0469 -0.3438 -0.3735
  150SAPE  H10X16580   6.695   2.451   4.954  0.4875  2.3878 -0.8523
  150SAPE  H10Y16581   6.576   2.576   4.955  0.6213 -0.3309 -0.6082
  150SAPE  C31116582   6.484   2.380   4.932  0.0214  0.6378  0.2730
  150SAPE  H11X16583   6.385   2.417   4.968 -1.2519 -1.8907 -0.3902
  150SAPE  H11Y16584   6.506   2.278   4.971  1.8186  1.1505  0.6616
  150SAPE  C31216585   6.477   2.371   4.781  0.2376  0.0075 -0.5925
  150SAPE  H12X16586   6.451   2.467   4.732  5.1008  0.2368 -3.2903
  150SAPE  H12Y16587   6.398   2.302   4.742 -1.2006  2.2953 -1.9376
  150SAPE  C31316588   6.614   2.330   4.715  0.6923  0.3893 -0.2245
  150SAPE  H13X16589   6.642   2.227   4.746 -0.1194 -0.0389 -0.8816
  150SAPE  H13Y16590   6.689   2.407   4.744  0.9441 -0.5521  1.8285
  150SAPE  C31416591   6.604   2.343   4.564  0.4596 -0.4412 -0.1730
  150SAPE  H14X16592   6.699   2.364   4.512 -0.3077 -0.1345 -1.5100
  150SAPE  H14Y16593   6.546   2.436   4.547  1.3494  0.3953  1.1812
  150SAPE  C31516594   6.526   2.220   4.512 -0.3241 -0.1977  0.6084
  150SAPE  H15X16595   6.480   2.167   4.598 -0.4129 -0.7257  0.2458
  150SAPE  H15Y16596   6.594   2.146   4.463  1.2965  0.9907  0.9857
  150SAPE  C31616597   6.416   2.270   4.418 -0.3023  0.1954 -0.0445
  150SAPE  H16X16598   6.338   2.320   4.479  1.4027  1.6455  1.0688
  150SAPE  H16Y16599   6.363   2.184   4.372  1.4147 -2.7086  2.9747
  150SAPE  C31716600   6.459   2.368   4.305 -0.4435 -0.2158 -0.3803
  150SAPE  H17X16601   6.529   2.313   4.239  1.5714 -0.6714  2.0252
  150SAPE  H17Y16602   6.513   2.459   4.339 -0.0581 -0.7954  0.5699
  150SAPE  C31816603   6.342   2.424   4.223 -0.3460  0.0172 -0.1031
  150SAPE  H18X16604   6.383   2.494   4.147 -0.6284 -1.2189 -1.4342
  150SAPE  H18Y16605   6.262   2.478   4.279 -0.0828 -1.1583  1.4869
  150SAPE  H18Z16606   6.299   2.341   4.164  0.0942 -1.4228  1.5178
  151SAPE     N16607   2.227   4.214   6.404  0.4692 -0.1210 -0.1298
  151SAPE   HN116608   2.330   4.210   6.421  0.6102  2.8473  0.2109
  151SAPE   HN216609   2.202   4.140   6.336  2.1859 -1.1948  0.3369
  151SAPE   HN316610   2.218   4.298   6.344 -1.4263 -1.3627 -1.7224
  151SAPE   C1216611   2.147   4.186   6.530  0.0090 -1.2294 -0.1109
  151SAPE  H12A16612   2.198   4.237   6.615  1.8310 -2.9668 -0.0917
  151SAPE  H12B16613   2.152   4.078   6.555  2.2424 -1.6863 -2.1960
  151SAPE   C1116614   2.010   4.245   6.511  0.2486  0.2689  0.0854
  151SAPE  H11A16615   1.958   4.237   6.608  0.2641 -2.8971 -0.0576
  151SAPE  H11B16616   1.958   4.188   6.431 -2.6166  2.0231  0.5731
  151SAPE     P16617   1.940   4.502   6.512  0.0732 -0.1382  0.0853
  151SAPE   O1316618   1.895   4.486   6.652 -0.4975 -0.1097  0.1352
  151SAPE   O1416619   2.008   4.632   6.494 -0.3255  0.1900 -0.0136
  151SAPE   O1216620   2.027   4.383   6.460 -0.2539  0.0363  0.1931
  151SAPE   O1116621   1.821   4.503   6.408  0.1614 -0.0783  0.2963
  151SAPE    C116622   1.812   4.425   6.292  0.8978 -0.3304  0.3914
  151SAPE    HA16623   1.819   4.315   6.311  1.9449 -0.2752  0.4010
  151SAPE    HB16624   1.707   4.410   6.259  0.8175  1.6930 -0.4091
  151SAPE    C216625   1.881   4.498   6.175 -0.4855 -0.1229  0.3768
  151SAPE    HS16626   1.986   4.513   6.208 -0.6031  0.8859  0.3048
  151SAPE   O2116627   1.810   4.619   6.140  0.4284 -0.0307 -0.7268
  151SAPE   C2116628   1.884   4.730   6.147  0.7793  0.0421  0.0484
  151SAPE   O2216629   2.000   4.736   6.167 -0.0531 -0.4169  0.2714
  151SAPE   C2216630   1.801   4.853   6.121 -0.1597  0.6801 -0.3576
  151SAPE   H2R16631   1.715   4.833   6.189  0.4866  2.2377  0.9811
  151SAPE   H2S16632   1.852   4.939   6.170 -2.1077  0.0721  3.1203
  151SAPE    C316633   1.879   4.407   6.052 -0.8530  0.4186  0.8554
  151SAPE    HX16634   1.775   4.371   6.049 -0.7293 -0.0358 -3.3718
  151SAPE    HY16635   1.944   4.318   6.064 -2.2200 -0.6247  0.7249
  151SAPE   O3116636   1.903   4.478   5.928  0.1520 -0.0133 -0.2492
  151SAPE   C3116637   2.029   4.510   5.903  0.6655  0.2259  0.5901
  151SAPE   O3216638   2.126   4.492   5.977  0.0580 -0.4840 -0.1455
  151SAPE   C3216639   2.044   4.562   5.760  0.6303 -0.4051 -0.6874
  151SAPE   H2X16640   1.990   4.659   5.758  1.1110 -0.1354 -0.6987
  151SAPE   H2Y16641   1.979   4.497   5.697  0.7080 -2.7727  1.5568
  151SAPE   C2316642   1.764   4.865   5.967 -0.1686 -1.8260  0.0948
  151SAPE   H3R16643   1.716   4.777   5.917 -2.1088 -0.4966 -0.4964
  151SAPE   H3S16644   1.862   4.874   5.915 -1.2264  1.0377 -1.6680
  151SAPE   C2416645   1.677   4.994   5.949 -0.0775 -0.2667 -0.0496
  151SAPE   H4R16646   1.651   4.981   5.842  1.4691  0.5011 -0.5509
  151SAPE   H4S16647   1.748   5.079   5.939  2.1256 -1.6347  2.5777
  151SAPE   C2516648   1.556   5.027   6.029 -0.3537 -0.6335 -0.1577
  151SAPE   H5R16649   1.568   5.088   6.119  0.4926  1.3723 -1.5635
  151SAPE   C2616650   1.429   5.017   5.984  0.3113 -0.0901  0.4627
  151SAPE   H6R16651   1.345   5.027   6.054  0.3690 -0.4565  0.5847
  151SAPE   C2716652   1.400   4.953   5.847  0.1006  0.2702  0.0453
  151SAPE   H7R16653   1.448   4.853   5.840 -0.5463 -0.0522  0.1826
  151SAPE   H7S16654   1.452   5.011   5.768 -1.3472 -0.2552 -1.3404
  151SAPE   C2816655   1.248   4.927   5.826 -1.1655  0.0902 -0.2218
  151SAPE   H8R16656   1.190   4.926   5.919 -1.3597  1.1177 -0.3251
  151SAPE   C2916657   1.193   4.932   5.702  0.3290 -0.5318 -0.1332
  151SAPE   H9R16658   1.083   4.930   5.695  0.1942 -0.3587  1.4869
  151SAPE  C21016659   1.273   4.966   5.577  0.0491  0.0360  0.0746
  151SAPE  H10R16660   1.338   4.879   5.553 -0.7571  0.1260 -2.7399
  151SAPE  H10S16661   1.338   5.054   5.595 -0.7618  0.5412  0.6079
  151SAPE  C21116662   1.192   4.981   5.448 -0.2863 -0.1271 -0.4917
  151SAPE  H11R16663   1.212   5.078   5.401  0.8239 -0.6028 -1.0476
  151SAPE  C21216664   1.124   4.886   5.383  0.3414  0.1090  0.9387
  151SAPE  H12R16665   1.082   4.908   5.284  0.6169  3.4369  1.4374
  151SAPE  C21316666   1.102   4.745   5.417 -0.3981  0.2991 -0.4091
  151SAPE  H13R16667   1.007   4.745   5.474 -0.6807 -1.3154 -0.8510
  151SAPE  H13S16668   1.182   4.711   5.487 -3.0911 -1.9575  1.7764
  151SAPE  C21416669   1.082   4.662   5.294  0.4138 -0.6827  0.0779
  151SAPE  H14R16670   0.992   4.703   5.246  1.7805  1.2243 -1.0035
  151SAPE  C21516671   1.147   4.560   5.241  0.0405 -0.7399 -1.2534
  151SAPE  H15R16672   1.108   4.514   5.149  0.1882 -3.0195 -0.2658
  151SAPE  C21616673   1.269   4.490   5.308  0.1313  0.8942 -0.0467
  151SAPE  H16R16674   1.256   4.389   5.352  1.8583  1.4748  1.9681
  151SAPE  H16S16675   1.282   4.543   5.405 -1.4428 -1.6496  1.6928
  151SAPE  C21716676   1.405   4.498   5.232 -0.3218 -0.6466 -0.4774
  151SAPE  H17R16677   1.492   4.466   5.293  0.5679 -0.4492 -1.6077
  151SAPE  H17S16678   1.432   4.599   5.195 -0.6926  0.5572  2.3277
  151SAPE  C21816679   1.417   4.400   5.107 -0.7000 -0.0767 -0.5546
  151SAPE  H18R16680   1.345   4.425   5.026  0.6728 -1.8091 -2.3927
  151SAPE  H18S16681   1.377   4.302   5.142 -2.3280 -0.0062 -2.0848
  151SAPE  C21916682   1.563   4.385   5.053  0.7545  0.1552  0.4645
  151SAPE  H19R16683   1.578   4.290   4.997  2.0047  1.8471 -2.3186
  151SAPE  H19S16684   1.640   4.398   5.131  1.5311  1.0039 -0.4117
  151SAPE  C22016685   1.596   4.494   4.941  0.1415  0.3284 -0.6966
  151SAPE  H20R16686   1.592   4.593   4.991 -0.5677  0.4786 -1.0347
  151SAPE  H20S16687   1.517   4.490   4.863  1.9925 -0.8808 -2.6211
  151SAPE  H20T16688   1.694   4.476   4.892 -0.4112  0.0342 -1.7063
  151SAPE   C3316689   2.184   4.567   5.704 -0.4248 -0.2065  0.5655
  151SAPE   H3X16690   2.241   4.472   5.705 -1.4665 -0.8411  0.7828
  151SAPE   H3Y16691   2.239   4.647   5.758  1.4052  0.1729 -1.6668
  151SAPE   C3416692   2.181   4.620   5.558 -0.6900  0.1267 -0.0047
  151SAPE   H4X16693   2.175   4.731   5.559  1.3282  0.2926 -0.3084
  151SAPE   H4Y16694   2.099   4.590   5.489 -0.4154 -1.2962  0.2549
  151SAPE   C3516695   2.316   4.588   5.490 -0.0372  0.6042  0.1114
  151SAPE   H5X16696   2.321   4.477   5.491  3.3466  0.6374  0.7300
  151SAPE   H5Y16697   2.394   4.634   5.555  0.0657  1.0622 -0.3263
  151SAPE   C3616698   2.343   4.641   5.346  0.3051  0.1118 -0.3779
  151SAPE   H6X16699   2.301   4.576   5.267  2.2460  0.9996 -2.2453
  151SAPE   H6Y16700   2.452   4.655   5.329  0.0520  0.7851 -1.6028
  151SAPE   C3716701   2.285   4.782   5.315  0.0011 -0.0114 -0.3325
  151SAPE   H7X16702   2.323   4.858   5.387  1.0195 -0.1183 -0.7512
  151SAPE   H7Y16703   2.175   4.765   5.307  0.0804 -0.8207  0.2087
  151SAPE   C3816704   2.350   4.846   5.186  0.2840 -0.0418  0.1013
  151SAPE   H8X16705   2.458   4.847   5.211  0.2470  1.9058  0.3335
  151SAPE   H8Y16706   2.313   4.951   5.182 -2.1871 -0.7871  1.2319
  151SAPE   C3916707   2.327   4.764   5.059 -0.2660  0.6493  0.3064
  151SAPE   H9X16708   2.218   4.769   5.037 -0.1424 -0.7644 -0.7538
  151SAPE   H9Y16709   2.350   4.657   5.076  2.2956  0.0287 -4.9437
  151SAPE  C31016710   2.406   4.801   4.925  0.1238 -0.0456 -0.9106
  151SAPE  H10X16711   2.408   4.714   4.856  2.9150 -0.5581 -0.2938
  151SAPE  H10Y16712   2.515   4.811   4.944 -0.3511 -0.4133  2.7129
  151SAPE  C31116713   2.358   4.923   4.845  0.1679 -0.0044  0.0300
  151SAPE  H11X16714   2.330   4.998   4.923 -2.1810 -0.2713 -0.4701
  151SAPE  H11Y16715   2.261   4.908   4.792  0.4884 -1.0741 -0.2746
  151SAPE  C31216716   2.454   4.977   4.745  0.2739  0.1674  0.2349
  151SAPE  H12X16717   2.559   4.949   4.771  0.4450  0.7370  0.1604
  151SAPE  H12Y16718   2.446   5.087   4.737 -0.1147  0.0905 -0.4723
  151SAPE  C31316719   2.430   4.933   4.600 -0.3788  0.3384 -0.5509
  151SAPE  H13X16720   2.330   4.971   4.571 -0.7120 -1.7348 -2.3961
  151SAPE  H13Y16721   2.431   4.822   4.591 -0.2426  0.4373 -1.9495
  151SAPE  C31416722   2.535   5.011   4.501  0.1295 -0.0876  0.0389
  151SAPE  H14X16723   2.634   4.981   4.541 -1.3755  0.3465  4.8216
  151SAPE  H14Y16724   2.524   5.119   4.520  0.1296 -0.2296  0.8855
  151SAPE  C31516725   2.520   4.983   4.351  0.4415 -0.0288  0.1034
  151SAPE  H15X16726   2.518   4.873   4.338 -0.8026  0.1962 -2.0941
  151SAPE  H15Y16727   2.607   5.033   4.304  0.6254  1.3499  1.8187
  151SAPE  C31616728   2.398   5.050   4.292  0.7405  0.2010  0.8724
  151SAPE  H16X16729   2.397   5.157   4.319 -0.3313  0.1796  0.9836
  151SAPE  H16Y16730   2.293   5.013   4.303  0.3160  1.0615 -0.0737
  151SAPE  C31716731   2.419   5.051   4.136 -0.5393  0.0147  0.3020
  151SAPE  H17X16732   2.445   4.950   4.098  0.6559 -0.0397  1.2280
  151SAPE  H17Y16733   2.514   5.107   4.121 -2.1080  2.2679 -2.1150
  151SAPE  C31816734   2.306   5.107   4.056 -0.0102 -0.6623  0.4579
  151SAPE  H18X16735   2.265   5.206   4.083 -0.3109 -0.0047 -2.1335
  151SAPE  H18Y16736   2.219   5.037   4.064 -1.5055  1.0226 -0.3700
  151SAPE  H18Z16737   2.343   5.114   3.951  1.3833 -0.0819  0.9766
  152SAPE     N16738   3.505   0.271   6.911 -0.4183 -0.2003  0.1724
  152SAPE   HN116739   3.538   0.338   6.839  1.3363 -0.6191  0.5433
  152SAPE   HN216740   3.524   0.321   7.000  1.9833 -0.9467  0.1387
  152SAPE   HN316741   3.575   0.195   6.907  1.4897  1.5101 -1.3460
  152SAPE   C1216742   3.368   0.224   6.878  0.6773  0.2439  0.5499
  152SAPE  H12A16743   3.339   0.143   6.949  1.6650  0.3595  1.1173
  152SAPE  H12B16744   3.377   0.202   6.770 -0.2518  1.9264  0.0971
  152SAPE   C1116745   3.266   0.343   6.894  0.0285 -0.0841 -0.6891
  152SAPE  H11A16746   3.287   0.399   6.987 -2.9383  1.0355 -0.5760
  152SAPE  H11B16747   3.167   0.295   6.910 -0.1429  0.9896  1.7638
  152SAPE     P16748   3.159   0.421   6.668 -0.5056  0.1106  0.1252
  152SAPE   O1316749   3.097   0.287   6.669  0.6740 -0.4625 -0.0317
  152SAPE   O1416750   3.069   0.534   6.679  0.6024  0.4869  0.2113
  152SAPE   O1216751   3.270   0.430   6.777 -0.0946  0.2525  0.3971
  152SAPE   O1116752   3.238   0.432   6.529 -0.5341  0.3751 -0.7181
  152SAPE    C116753   3.351   0.352   6.503 -1.0922  0.5606 -0.1911
  152SAPE    HA16754   3.440   0.401   6.548 -1.0295  0.1979  0.0807
  152SAPE    HB16755   3.348   0.253   6.553  1.7795  1.0423  1.1535
  152SAPE    C216756   3.382   0.335   6.350 -0.5299  0.2845  0.0690
  152SAPE    HS16757   3.480   0.292   6.322  0.0739  1.6669  0.0195
  152SAPE   O2116758   3.366   0.466   6.285  0.4249 -0.5171  0.0911
  152SAPE   C2116759   3.482   0.535   6.291  0.0973  0.4577 -0.3754
  152SAPE   O2216760   3.583   0.509   6.345 -0.2591 -0.4031 -0.2217
  152SAPE   C2216761   3.467   0.652   6.204  0.3221  0.0561 -0.2271
  152SAPE   H2R16762   3.367   0.697   6.226 -1.3248 -4.0853  1.7944
  152SAPE   H2S16763   3.545   0.728   6.225  0.3269 -0.0289  0.0648
  152SAPE    C316764   3.295   0.221   6.293  0.6615 -0.0327  0.1064
  152SAPE    HX16765   3.188   0.238   6.314  0.2465 -0.6436 -1.3586
  152SAPE    HY16766   3.320   0.129   6.350  1.1216  0.4973  0.7735
  152SAPE   O3116767   3.318   0.193   6.148 -0.1612  0.1500 -0.6741
  152SAPE   C3116768   3.231   0.269   6.074 -0.8091  0.9423  0.5475
  152SAPE   O3216769   3.164   0.356   6.118 -0.3550  0.1284 -0.0195
  152SAPE   C3216770   3.246   0.226   5.925 -0.6238  0.5711  0.2686
  152SAPE   H2X16771   3.167   0.153   5.896  0.8988 -0.3043 -1.9203
  152SAPE   H2Y16772   3.337   0.165   5.909 -1.1786  0.1911 -1.7911
  152SAPE   C2316773   3.464   0.614   6.054  0.3699  0.1224  0.3525
  152SAPE   H3R16774   3.411   0.687   5.989 -0.4255  1.3837  2.3222
  152SAPE   H3S16775   3.411   0.516   6.054  3.2536 -1.5558  0.7894
  152SAPE   C2416776   3.603   0.582   6.002 -0.5162  0.1586  0.4096
  152SAPE   H4R16777   3.589   0.505   5.924  1.8300  1.5493 -1.5279
  152SAPE   H4S16778   3.664   0.535   6.082 -1.2612 -0.1381  0.8174
  152SAPE   C2516779   3.662   0.708   5.944  0.4418 -0.2203 -0.1493
  152SAPE   H5R16780   3.625   0.801   5.989  2.5802  0.0433  1.1802
  152SAPE   C2616781   3.734   0.715   5.835  0.7789  0.4868 -0.5363
  152SAPE   H6R16782   3.775   0.814   5.807 -1.5200  0.9525 -2.5962
  152SAPE   C2716783   3.784   0.602   5.751 -0.5646  1.0701  0.1232
  152SAPE   H7R16784   3.831   0.527   5.818 -0.1450 -0.6766 -2.0166
  152SAPE   H7S16785   3.861   0.648   5.685  0.2080 -2.1980 -1.4697
  152SAPE   C2816786   3.688   0.514   5.676 -0.0360 -0.1815 -0.6172
  152SAPE   H8R16787   3.585   0.512   5.716 -0.1998  2.0858 -0.7908
  152SAPE   C2916788   3.711   0.451   5.555  0.1541 -0.2468  0.2429
  152SAPE   H9R16789   3.634   0.388   5.509  0.1959 -1.8720  2.2764
  152SAPE  C21016790   3.841   0.454   5.465  0.4509  0.4520  0.7248
  152SAPE  H10R16791   3.890   0.355   5.458 -0.8968 -0.1043 -2.3436
  152SAPE  H10S16792   3.918   0.525   5.503  1.0587  1.7485 -2.6109
  152SAPE  C21116793   3.812   0.501   5.326  0.3680  0.1606 -0.3796
  152SAPE  H11R16794   3.781   0.607   5.324  1.6049  0.5294 -1.5087
  152SAPE  C21216795   3.823   0.436   5.212  0.1168 -0.1630 -0.8299
  152SAPE  H12R16796   3.800   0.484   5.115 -2.0870  2.2698  0.7743
  152SAPE  C21316797   3.866   0.295   5.192  0.5284  0.4038 -0.3665
  152SAPE  H13R16798   3.915   0.249   5.281 -0.4412  0.1217  0.0288
  152SAPE  H13S16799   3.945   0.289   5.114  0.9911  0.8891  0.0603
  152SAPE  C21416800   3.737   0.219   5.149 -0.1302 -0.4463 -0.3616
  152SAPE  H14R16801   3.659   0.218   5.226  0.0696  0.8210 -0.1171
  152SAPE  C21516802   3.701   0.170   5.029 -0.4192  0.3938 -0.3942
  152SAPE  H15R16803   3.602   0.124   5.013 -1.4309  2.9575 -2.0943
  152SAPE  C21616804   3.799   0.167   4.914  0.0455 -0.0065  0.2280
  152SAPE  H16R16805   3.811   0.061   4.883 -0.9833 -0.5469  1.5815
  152SAPE  H16S16806   3.905   0.192   4.938  0.4539  1.6962 -2.7883
  152SAPE  C21716807   3.775   0.245   4.778 -0.3545  0.3009 -0.1364
  152SAPE  H17R16808   3.670   0.221   4.750 -0.8253 -0.9880  2.4513
  152SAPE  H17S16809   3.839   0.200   4.699  1.5489  0.4181  1.2615
  152SAPE  C21816810   3.793   0.391   4.808 -0.2705  0.1201  0.3889
  152SAPE  H18R16811   3.887   0.396   4.867  0.1223 -0.5309 -0.1757
  152SAPE  H18S16812   3.695   0.414   4.856 -0.3507 -1.0873  0.8463
  152SAPE  C21916813   3.823   0.465   4.671 -0.0502 -0.1480  0.2785
  152SAPE  H19R16814   3.782   0.410   4.583  0.9944 -2.1803  0.9902
  152SAPE  H19S16815   3.932   0.445   4.660  0.4252  2.3678 -0.2439
  152SAPE  C22016816   3.798   0.615   4.683 -0.1973 -0.4955 -0.2926
  152SAPE  H20R16817   3.873   0.675   4.740  0.4184 -0.4314 -1.1478
  152SAPE  H20S16818   3.696   0.630   4.725 -0.1213  1.3716 -0.6845
  152SAPE  H20T16819   3.799   0.655   4.580 -0.4099 -4.5574 -2.0294
  152SAPE   C3316820   3.247   0.355   5.832 -1.1981  0.0988  0.1658
  152SAPE   H3X16821   3.339   0.416   5.844  0.2048 -2.0194  0.7393
  152SAPE   H3Y16822   3.154   0.412   5.856 -1.4731  0.0263 -0.6944
  152SAPE   C3416823   3.244   0.300   5.690  0.6128 -0.7468  0.4492
  152SAPE   H4X16824   3.206   0.378   5.620  2.2250  0.1612  0.5286
  152SAPE   H4Y16825   3.165   0.223   5.698 -0.8841  0.8186  1.2828
  152SAPE   C3516826   3.380   0.272   5.626  0.3669 -0.9703 -0.3634
  152SAPE   H5X16827   3.423   0.184   5.677  3.1779 -0.2929 -1.3939
  152SAPE   H5Y16828   3.442   0.363   5.642 -2.1134  1.2114 -2.1882
  152SAPE   C3616829   3.365   0.232   5.476 -0.1898 -0.8272 -0.3254
  152SAPE   H6X16830   3.465   0.227   5.426 -0.4738 -1.2371 -0.8753
  152SAPE   H6Y16831   3.308   0.312   5.423  1.5571 -0.7584 -2.2443
  152SAPE   C3716832   3.280   0.111   5.441  0.1219  0.3721  0.9091
  152SAPE   H7X16833   3.268   0.102   5.330  0.5114  1.7930  0.7363
  152SAPE   H7Y16834   3.181   0.120   5.490  0.4647 -0.0734  1.6907
  152SAPE   C3816835   3.339  -0.023   5.489  0.1454  0.3978 -0.3120
  152SAPE   H8X16836   3.364  -0.018   5.597  1.4491  3.4266 -0.6529
  152SAPE   H8Y16837   3.435  -0.044   5.437 -0.8482 -3.0305 -1.0185
  152SAPE   C3916838   3.248  -0.150   5.463 -0.2403 -0.1840  0.3441
  152SAPE   H9X16839   3.164  -0.156   5.536 -1.1065 -2.8773 -0.7399
  152SAPE   H9Y16840   3.298  -0.243   5.499  1.8728  0.4743 -0.7393
  152SAPE  C31016841   3.193  -0.162   5.321  0.1392  0.1699 -0.4259
  152SAPE  H10X16842   3.170  -0.065   5.273  3.5412  1.8206  0.9536
  152SAPE  H10Y16843   3.088  -0.200   5.326  0.0815  0.3719 -0.0405
  152SAPE  C31116844   3.292  -0.247   5.236  0.1913 -0.4206 -0.0490
  152SAPE  H11X16845   3.331  -0.336   5.289 -0.8708 -1.0822 -0.3427
  152SAPE  H11Y16846   3.373  -0.177   5.206  0.0291  0.0771  0.6485
  152SAPE  C31216847   3.226  -0.297   5.103  0.5462  0.1409 -0.3727
  152SAPE  H12X16848   3.149  -0.230   5.058 -2.2128 -2.5001  0.0980
  152SAPE  H12Y16849   3.162  -0.384   5.131  0.2050  0.6603  0.4987
  152SAPE  C31316850   3.323  -0.364   4.999 -0.1646  0.1490 -1.0796
  152SAPE  H13X16851   3.365  -0.443   5.066 -0.0256 -0.3701 -1.7646
  152SAPE  H13Y16852   3.395  -0.284   4.974  1.9505 -1.2453  0.1540
  152SAPE  C31416853   3.253  -0.430   4.882  0.1634 -0.0454 -0.0631
  152SAPE  H14X16854   3.156  -0.470   4.918  0.6131 -0.2684  0.9620
  152SAPE  H14Y16855   3.324  -0.505   4.841  0.0175 -0.0888 -0.2346
  152SAPE  C31516856   3.237  -0.342   4.758 -0.2656 -0.0951  0.0311
  152SAPE  H15X16857   3.340  -0.318   4.725  0.8925 -0.0745  3.3245
  152SAPE  H15Y16858   3.182  -0.250   4.789 -0.5822 -0.2522 -0.0568
  152SAPE  C31616859   3.156  -0.411   4.647 -0.2897  0.0720 -0.6931
  152SAPE  H16X16860   3.047  -0.394   4.657  0.1715  2.8315  0.2286
  152SAPE  H16Y16861   3.190  -0.517   4.645  1.6815  0.5904  1.2669
  152SAPE  C31716862   3.189  -0.341   4.509 -0.2119  0.7119 -0.9080
  152SAPE  H17X16863   3.296  -0.357   4.486 -0.1799 -0.3006 -0.1031
  152SAPE  H17Y16864   3.171  -0.232   4.527 -0.3324  0.7539 -1.2817
  152SAPE  C31816865   3.102  -0.397   4.397  0.4989 -0.2326  0.1711
  152SAPE  H18X16866   3.094  -0.507   4.381 -0.6720 -0.0575 -0.5651
  152SAPE  H18Y16867   3.130  -0.351   4.300  1.6494 -1.7463 -0.2478
  152SAPE  H18Z16868   2.996  -0.373   4.421  0.1970 -2.4903  1.3846
  153SAPE     N16869   6.687   5.868   6.266 -0.4871 -0.5933 -0.2538
  153SAPE   HN116870   6.609   5.841   6.329 -0.1848 -2.4810 -0.6459
  153SAPE   HN216871   6.767   5.909   6.319 -0.9090 -0.0853  0.0031
  153SAPE   HN316872   6.652   5.956   6.222 -0.8532  0.1246  1.3835
  153SAPE   C1216873   6.725   5.753   6.175 -0.4378  0.0497 -0.9722
  153SAPE  H12A16874   6.713   5.664   6.240 -0.5388  1.1401  0.5611
  153SAPE  H12B16875   6.825   5.778   6.135 -0.9795  0.7012 -1.9654
  153SAPE   C1116876   6.607   5.741   6.071 -0.1664 -0.1727 -0.2600
  153SAPE  H11A16877   6.636   5.662   5.999  0.1121 -0.2181 -0.1014
  153SAPE  H11B16878   6.601   5.832   6.009 -0.8211  0.2438  0.4039
  153SAPE     P16879   6.439   5.592   6.227  0.1266  0.4767 -0.2083
  153SAPE   O1316880   6.445   5.640   6.364 -0.1309  0.0656  0.5987
  153SAPE   O1416881   6.312   5.541   6.168 -0.3322 -0.1820  0.0945
  153SAPE   O1216882   6.481   5.714   6.139 -0.7567  0.1929 -0.5278
  153SAPE   O1116883   6.556   5.489   6.210  0.5061  0.5205  0.0656
  153SAPE    C116884   6.580   5.422   6.088  0.0450  0.1887 -0.4421
  153SAPE    HA16885   6.510   5.336   6.076 -0.6910  1.0793 -3.1590
  153SAPE    HB16886   6.559   5.485   5.999  0.9379 -2.6611 -2.8382
  153SAPE    C216887   6.720   5.358   6.088 -0.2721  0.2840  0.2209
  153SAPE    HS16888   6.720   5.293   6.178 -0.0373  1.3649  1.0283
  153SAPE   O2116889   6.822   5.452   6.092  0.5969  0.2842 -0.7803
  153SAPE   C2116890   6.943   5.408   6.121 -0.5583 -0.0129 -0.3407
  153SAPE   O2216891   6.969   5.294   6.154  0.1704  0.4916  0.2588
  153SAPE   C2216892   7.045   5.513   6.104  0.1893 -0.1169 -0.0074
  153SAPE   H2R16893   6.999   5.613   6.117  1.1199  0.5921 -1.8182
  153SAPE   H2S16894   7.122   5.497   6.182  1.4042  3.7357 -0.2141
  153SAPE    C316895   6.728   5.264   5.960 -0.4777  0.2445  0.2001
  153SAPE    HX16896   6.645   5.191   5.966 -1.4453  1.3589  0.8156
  153SAPE    HY16897   6.813   5.199   5.991  0.7704  1.8271  0.2102
  153SAPE   O3116898   6.753   5.328   5.833  0.2093  0.0750 -0.2816
  153SAPE   C3116899   6.641   5.335   5.761  0.2117 -0.1782 -0.2590
  153SAPE   O3216900   6.533   5.300   5.802 -0.3897 -0.3480 -0.2068
  153SAPE   C3216901   6.674   5.419   5.632 -0.6746  0.7169  0.3364
  153SAPE   H2X16902   6.635   5.356   5.549  0.8459 -0.7280  0.6521
  153SAPE   H2Y16903   6.784   5.424   5.614 -0.7693  1.1401 -0.1381
  153SAPE   C2316904   7.111   5.519   5.959  0.0835  0.1000 -0.4252
  153SAPE   H3R16905   7.171   5.426   5.944  0.7722  0.4136  0.2716
  153SAPE   H3S16906   7.178   5.608   5.962 -0.9586  0.9637 -1.7435
  153SAPE   C2416907   7.019   5.544   5.840  0.0366  0.0281 -0.7799
  153SAPE   H4R16908   6.953   5.456   5.827  0.6406 -0.6698  0.5783
  153SAPE   H4S16909   7.080   5.548   5.747 -0.7353 -0.7194 -1.3291
  153SAPE   C2516910   6.947   5.678   5.857 -0.6125  0.2076 -0.0066
  153SAPE   H5R16911   6.853   5.671   5.914  0.8828 -2.3848  2.4231
  153SAPE   C2616912   6.981   5.800   5.816  0.2772  0.4159 -0.7318
  153SAPE   H6R16913   6.908   5.876   5.848 -0.1994  0.3383 -1.5954
  153SAPE   C2716914   7.099   5.841   5.729 -0.3039 -0.3066  0.2303
  153SAPE   H7R16915   7.175   5.762   5.710 -0.1959 -0.1593  0.0491
  153SAPE   H7S16916   7.154   5.919   5.786  3.0657 -0.5925 -2.2758
  153SAPE   C2816917   7.062   5.896   5.598 -0.4437 -0.1439  0.0032
  153SAPE   H8R16918   7.061   5.823   5.516  1.3585 -1.1618  0.8264
  153SAPE   C2916919   7.070   6.023   5.567 -0.3043 -0.1235 -0.1542
  153SAPE   H9R16920   7.059   6.046   5.460 -0.0431  0.4243 -0.0651
  153SAPE  C21016921   7.097   6.145   5.655 -0.3735 -0.3271 -0.4211
  153SAPE  H10R16922   7.205   6.170   5.667  0.2446 -2.9992  0.0774
  153SAPE  H10S16923   7.088   6.120   5.763  0.1682 -1.9083 -0.7112
  153SAPE  C21116924   7.004   6.261   5.620 -0.1596  0.4438 -0.5233
  153SAPE  H11R16925   6.957   6.240   5.522  0.9672 -0.7933 -0.8282
  153SAPE  C21216926   7.003   6.388   5.672  0.6697  0.2997  0.3146
  153SAPE  H12R16927   6.941   6.465   5.623  1.1530  0.9126  0.6441
  153SAPE  C21316928   7.087   6.430   5.794  0.4552  0.3465 -0.3867
  153SAPE  H13R16929   7.094   6.539   5.810  0.0349  0.2048  0.8680
  153SAPE  H13S16930   7.188   6.384   5.783 -0.7499 -1.9968 -3.0681
  153SAPE  C21416931   7.033   6.379   5.924  0.0933 -0.3958  0.2301
  153SAPE  H14R16932   7.035   6.269   5.926 -1.7510 -0.6462 -3.3621
  153SAPE  C21516933   6.982   6.443   6.028  0.5342 -0.3410 -0.0692
  153SAPE  H15R16934   6.950   6.389   6.118  2.1582  0.0238  0.7805
  153SAPE  C21616935   6.953   6.590   6.041  0.5019 -0.3715 -0.2672
  153SAPE  H16R16936   6.971   6.643   5.944  0.7993  1.4471  0.7412
  153SAPE  H16S16937   7.019   6.633   6.119  0.1429 -1.9183  0.9422
  153SAPE  C21716938   6.813   6.632   6.086  0.4745 -0.6238 -0.2609
  153SAPE  H17R16939   6.820   6.743   6.084 -0.5362 -0.5411 -2.4820
  153SAPE  H17S16940   6.790   6.594   6.188  0.6505  0.8986  0.3750
  153SAPE  C21816941   6.709   6.595   5.981  0.2397  0.2465 -0.1776
  153SAPE  H18R16942   6.690   6.487   5.996 -0.0359  0.0669 -1.6225
  153SAPE  H18S16943   6.761   6.599   5.882  0.4478 -0.3104 -0.0970
  153SAPE  C21916944   6.566   6.655   5.982 -0.3898  0.4969  0.6698
  153SAPE  H19R16945   6.522   6.631   5.883  1.6315 -2.0313  0.2585
  153SAPE  H19S16946   6.573   6.764   6.002  0.2074  0.4013  1.0104
  153SAPE  C22016947   6.486   6.603   6.099 -0.6052 -0.0508 -0.2183
  153SAPE  H20R16948   6.487   6.492   6.112 -0.3487  0.0066  0.2623
  153SAPE  H20S16949   6.377   6.625   6.101 -0.4248  0.8519  1.3460
  153SAPE  H20T16950   6.537   6.653   6.184  1.1255 -1.1661 -0.5427
  153SAPE   C3316951   6.609   5.548   5.646 -0.1161 -0.0075 -1.1101
  153SAPE   H3X16952   6.648   5.597   5.738 -0.2869 -1.0882 -0.4340
  153SAPE   H3Y16953   6.501   5.526   5.666 -0.2551  1.0951 -0.5908
  153SAPE   C3416954   6.617   5.635   5.520 -1.4089 -0.0305 -1.6407
  153SAPE   H4X16955   6.559   5.729   5.531  1.8047  2.1171 -1.7552
  153SAPE   H4Y16956   6.569   5.579   5.438 -0.7227 -1.0221 -1.3788
  153SAPE   C3516957   6.754   5.668   5.469 -0.2049 -0.1618  0.0350
  153SAPE   H5X16958   6.796   5.575   5.427 -1.6289 -0.7717 -0.0578
  153SAPE   H5Y16959   6.825   5.713   5.543 -2.3643  1.9111  1.0091
  153SAPE   C3616960   6.756   5.776   5.356 -0.5794  0.2408  0.4344
  153SAPE   H6X16961   6.766   5.879   5.398 -1.6531  0.8733 -0.7861
  153SAPE   H6Y16962   6.665   5.767   5.293 -1.3133 -1.6102  1.6861
  153SAPE   C3716963   6.870   5.751   5.262 -0.5709 -0.9439  0.4275
  153SAPE   H7X16964   6.852   5.663   5.196 -1.0905  0.6004 -1.6034
  153SAPE   H7Y16965   6.960   5.738   5.326 -2.0092 -0.0926  2.7420
  153SAPE   C3816966   6.885   5.876   5.166 -0.3086  0.0649  0.5833
  153SAPE   H8X16967   6.908   5.967   5.225  1.2357 -0.0537  0.1884
  153SAPE   H8Y16968   6.787   5.880   5.114 -1.0534  2.2539  1.9857
  153SAPE   C3916969   6.981   5.848   5.043  0.5562  0.5592 -0.5515
  153SAPE   H9X16970   6.960   5.744   5.009  0.3578 -1.1200  3.9991
  153SAPE   H9Y16971   7.072   5.850   5.107 -0.4894 -1.0088  1.0775
  153SAPE  C31016972   6.975   5.941   4.927 -0.0022  0.0023 -0.4242
  153SAPE  H10X16973   6.868   5.951   4.901 -0.5131  0.3761  1.6211
  153SAPE  H10Y16974   7.032   5.895   4.844  1.4237  1.8051 -0.5220
  153SAPE  C31116975   7.053   6.071   4.946 -0.6356 -0.0858  0.2075
  153SAPE  H11X16976   7.156   6.055   4.984 -0.0767 -0.4056 -1.3656
  153SAPE  H11Y16977   7.005   6.140   5.019  3.1615 -0.3132  3.2505
  153SAPE  C31216978   7.063   6.158   4.816 -0.6128 -0.8254 -0.2079
  153SAPE  H12X16979   6.959   6.192   4.791  0.1985  1.2943 -0.9631
  153SAPE  H12Y16980   7.115   6.101   4.736 -0.1458 -2.8110  1.4380
  153SAPE  C31316981   7.153   6.283   4.845 -0.6318 -0.4605 -0.3235
  153SAPE  H13X16982   7.249   6.252   4.892 -0.0565  1.3304 -0.2498
  153SAPE  H13Y16983   7.107   6.344   4.925 -0.6226 -0.8885  0.0118
  153SAPE  C31416984   7.176   6.367   4.725  0.1292  0.4356 -0.0678
  153SAPE  H14X16985   7.079   6.369   4.670  0.6600 -2.2323 -1.2471
  153SAPE  H14Y16986   7.240   6.316   4.651 -1.3119 -2.2432  0.4171
  153SAPE  C31516987   7.209   6.512   4.756 -0.7846 -0.3976 -0.5079
  153SAPE  H15X16988   7.310   6.518   4.802 -1.2717  3.2834  0.4022
  153SAPE  H15Y16989   7.133   6.562   4.820  0.6904  2.3912 -0.7755
  153SAPE  C31616990   7.223   6.589   4.623  0.8323 -0.2210  0.3235
  153SAPE  H16X16991   7.139   6.563   4.555  1.7711 -0.7115 -0.6773
  153SAPE  H16Y16992   7.312   6.557   4.565  1.8687  0.8035  1.2893
  153SAPE  C31716993   7.223   6.745   4.630  0.4237  0.4060 -0.5768
  153SAPE  H17X16994   7.126   6.777   4.675  1.0693  0.7646  0.5966
  153SAPE  H17Y16995   7.217   6.784   4.526  0.5649 -0.1319 -0.7884
  153SAPE  C31816996   7.346   6.807   4.697 -0.5551  0.0297 -0.7804
  153SAPE  H18X16997   7.433   6.767   4.639  1.8988 -1.6668  3.5782
  153SAPE  H18Y16998   7.352   6.769   4.801 -0.4640 -1.4150 -1.2832
  153SAPE  H18Z16999   7.341   6.918   4.698  0.4737  0.1209  1.3950
  154SAPE     N17000   0.541   6.021   6.614  0.3717 -0.5415 -0.4331
  154SAPE   HN117001   0.522   6.123   6.609 -0.8643 -0.7283  0.0074
  154SAPE   HN217002   0.564   6.000   6.714 -0.1473  0.2572 -0.1290
  154SAPE   HN317003   0.621   6.006   6.549  0.9721  0.6069  0.0017
  154SAPE   C1217004   0.425   5.941   6.565  0.1811  1.7213 -0.0957
  154SAPE  H12A17005   0.408   5.956   6.456 -0.4033  1.3174 -0.0671
  154SAPE  H12B17006   0.334   5.975   6.619 -1.2919 -0.6518 -0.9254
  154SAPE   C1117007   0.458   5.791   6.575  0.2897 -0.0453 -0.3968
  154SAPE  H11A17008   0.494   5.769   6.678  0.0822 -1.0309 -0.5276
  154SAPE  H11B17009   0.552   5.772   6.518  0.9870 -0.5924  0.8877
  154SAPE     P17010   0.334   5.555   6.568  0.0396 -0.3747 -0.3470
  154SAPE   O1317011   0.354   5.535   6.714 -0.1630 -0.0840 -0.1271
  154SAPE   O1417012   0.209   5.497   6.502 -0.7789 -0.5746 -0.0645
  154SAPE   O1217013   0.341   5.712   6.535 -0.3851 -0.4221  0.8368
  154SAPE   O1117014   0.473   5.512   6.499  0.4301 -0.1847  0.5940
  154SAPE    C117015   0.490   5.531   6.360 -0.2862  0.8900  0.3488
  154SAPE    HA17016   0.417   5.468   6.304  1.9583 -1.8569  0.2927
  154SAPE    HB17017   0.489   5.637   6.327  0.1652  1.0889  0.9554
  154SAPE    C217018   0.631   5.484   6.315  0.0308 -0.1487  0.0419
  154SAPE    HS17019   0.665   5.396   6.374  0.4573 -0.8484 -1.2100
  154SAPE   O2117020   0.716   5.601   6.334  0.2006  0.3179 -0.1805
  154SAPE   C2117021   0.841   5.575   6.316 -1.0067 -0.4160 -0.6573
  154SAPE   O2217022   0.892   5.464   6.307  0.4842 -0.3106  0.0052
  154SAPE   C2217023   0.924   5.696   6.294 -0.6221 -0.3963 -0.3068
  154SAPE   H2R17024   0.854   5.777   6.263 -0.6084  0.5848  2.0105
  154SAPE   H2S17025   0.983   5.718   6.386 -2.4710  0.8841  0.6441
  154SAPE    C317026   0.629   5.426   6.166 -0.0443 -0.1749  0.1219
  154SAPE    HX17027   0.732   5.397   6.137 -0.8649 -1.3626 -1.8422
  154SAPE    HY17028   0.603   5.513   6.102  0.3750 -1.8452 -2.4927
  154SAPE   O3117029   0.537   5.319   6.154  0.2606  0.7794 -0.6972
  154SAPE   C3117030   0.520   5.279   6.031  0.1836  0.2906  0.0019
  154SAPE   O3217031   0.589   5.318   5.936  0.2749 -0.7633 -0.4395
  154SAPE   C3217032   0.392   5.193   6.021  0.2715 -0.3248 -0.6001
  154SAPE   H2X17033   0.313   5.235   6.088  1.5381 -0.9748  1.4019
  154SAPE   H2Y17034   0.417   5.103   6.080  0.5960  0.4097  0.4179
  154SAPE   C2317035   1.028   5.680   6.176 -0.3050  0.0222 -0.0151
  154SAPE   H3R17036   0.984   5.656   6.077  1.5503  3.1874 -1.7680
  154SAPE   H3S17037   1.088   5.593   6.211 -0.4277 -0.3085 -0.6244
  154SAPE   C2417038   1.116   5.801   6.152  0.2172  0.2074 -0.3523
  154SAPE   H4R17039   1.202   5.775   6.086  0.3104 -2.7443  0.7495
  154SAPE   H4S17040   1.161   5.825   6.250 -2.0974  0.2811  0.7586
  154SAPE   C2517041   1.035   5.912   6.104  0.0504 -0.7513  0.3311
  154SAPE   H5R17042   0.978   5.954   6.188 -1.3362 -1.2230 -0.3313
  154SAPE   C2617043   1.006   5.953   5.974  0.3756  0.3645  0.4953
  154SAPE   H6R17044   0.945   6.043   5.954 -1.6756 -0.8524  1.0310
  154SAPE   C2717045   1.060   5.892   5.844 -0.4918 -0.0854 -0.3208
  154SAPE   H7R17046   0.978   5.852   5.780  1.6360  0.1588 -3.4179
  154SAPE   H7S17047   1.130   5.807   5.860 -0.4019 -0.0484 -0.5104
  154SAPE   C2817048   1.126   5.995   5.754 -0.2942 -0.0845 -0.5150
  154SAPE   H8R17049   1.219   6.041   5.791 -0.7039 -0.1989  0.6948
  154SAPE   C2917050   1.087   6.028   5.631  1.0952  0.1352  0.1014
  154SAPE   H9R17051   1.152   6.101   5.582 -0.0798 -0.6892 -2.9047
  154SAPE  C21017052   0.954   5.996   5.558 -0.7815 -0.2951 -0.3783
  154SAPE  H10R17053   0.948   6.080   5.486  1.3382  1.5212  1.3812
  154SAPE  H10S17054   0.870   6.009   5.629 -1.3056 -0.6710 -0.9280
  154SAPE  C21117055   0.959   5.860   5.498 -0.2616 -0.5163  0.1165
  154SAPE  H11R17056   0.880   5.795   5.538 -1.5904  0.8594 -0.1991
  154SAPE  C21217057   1.036   5.806   5.400  0.0053 -0.2703  0.0642
  154SAPE  H12R17058   1.016   5.699   5.386  0.0837 -0.4122  0.9261
  154SAPE  C21317059   1.148   5.879   5.321  0.1291  0.0983 -0.3597
  154SAPE  H13R17060   1.248   5.866   5.367 -0.6660  1.4915  1.9409
  154SAPE  H13S17061   1.123   5.987   5.324  0.8477  0.3605 -2.4873
  154SAPE  C21417062   1.154   5.834   5.178 -0.2407  0.3466 -0.1179
  154SAPE  H14R17063   1.208   5.740   5.158  0.0167  0.2529  0.9649
  154SAPE  C21517064   1.094   5.893   5.076  0.6934  0.1061 -0.0363
  154SAPE  H15R17065   1.122   5.853   4.978 -1.6095  0.2568 -0.8205
  154SAPE  C21617066   1.009   6.016   5.084  0.8928 -0.1274  0.5909
  154SAPE  H16R17067   1.065   6.105   5.050 -0.8166 -0.0442 -2.3042
  154SAPE  H16S17068   0.970   6.028   5.188  0.4230 -1.7790  0.6394
  154SAPE  C21717069   0.889   5.993   4.993  0.1645  0.3118  0.1683
  154SAPE  H17R17070   0.823   6.082   5.002 -1.3488 -0.4996 -1.9536
  154SAPE  H17S17071   0.827   5.912   5.037 -0.1224  1.0628  1.1824
  154SAPE  C21817072   0.911   5.970   4.846  0.0330  0.5089  0.7921
  154SAPE  H18R17073   0.815   5.969   4.790 -0.1899 -1.0624  1.1673
  154SAPE  H18S17074   0.963   5.872   4.839  0.1627  0.3081  3.4063
  154SAPE  C21917075   1.000   6.085   4.791  0.2313 -0.1020 -0.5656
  154SAPE  H19R17076   1.094   6.095   4.850 -0.0344 -1.0961  0.0704
  154SAPE  H19S17077   0.936   6.174   4.806 -0.7355 -0.6500 -1.3266
  154SAPE  C22017078   1.032   6.063   4.644 -0.1156  0.4262  0.4553
  154SAPE  H20R17079   0.947   6.013   4.592 -0.7584  2.3064 -0.3977
  154SAPE  H20S17080   1.114   5.989   4.636 -0.9529 -0.4065 -0.9184
  154SAPE  H20T17081   1.064   6.155   4.591 -0.7578  0.1766 -0.3909
  154SAPE   C3317082   0.349   5.160   5.870  0.1502  0.2321  0.2247
  154SAPE   H3X17083   0.425   5.105   5.812  0.2524  1.2531 -0.6392
  154SAPE   H3Y17084   0.339   5.258   5.818 -0.8543  0.8949  1.5886
  154SAPE   C3417085   0.218   5.089   5.876  0.6581 -0.5867  0.8422
  154SAPE   H4X17086   0.154   5.152   5.942  0.0030  0.2475 -0.5523
  154SAPE   H4Y17087   0.221   4.986   5.918 -0.7538 -0.3656  1.5488
  154SAPE   C3517088   0.146   5.072   5.736 -0.8441  0.6712  0.4363
  154SAPE   H5X17089   0.037   5.065   5.753 -1.0586  1.7013 -0.3537
  154SAPE   H5Y17090   0.175   4.982   5.677 -0.1994  1.3550 -0.3235
  154SAPE   C3617091   0.159   5.194   5.636  0.2104  0.4033 -0.0849
  154SAPE   H6X17092   0.268   5.193   5.617  0.4001  2.5448  0.5877
  154SAPE   H6Y17093   0.130   5.291   5.681 -0.1308 -0.3120  1.2969
  154SAPE   C3717094   0.094   5.175   5.504 -0.3163 -0.3568 -0.0970
  154SAPE   H7X17095  -0.013   5.194   5.529 -0.0696 -0.7383  1.3180
  154SAPE   H7Y17096   0.115   5.075   5.460 -0.3793 -0.5144  0.2295
  154SAPE   C3817097   0.152   5.275   5.403 -0.4737 -0.6053 -0.1991
  154SAPE   H8X17098   0.262   5.274   5.413 -0.1492 -1.8347 -2.8801
  154SAPE   H8Y17099   0.109   5.374   5.429 -1.4104 -0.9652 -0.3351
  154SAPE   C3917100   0.121   5.245   5.257  0.0751  0.1961  0.0036
  154SAPE   H9X17101   0.013   5.231   5.238  0.1368 -0.0458 -0.1686
  154SAPE   H9Y17102   0.170   5.147   5.238 -0.5042 -0.1281  0.1830
  154SAPE  C31017103   0.190   5.334   5.152 -0.8841  0.0568  0.4763
  154SAPE  H10X17104   0.294   5.335   5.191 -0.6364 -2.5047  0.0249
  154SAPE  H10Y17105   0.165   5.442   5.153  0.8068  0.5936 -2.5100
  154SAPE  C31117106   0.170   5.281   5.011  0.9366  0.3572 -0.0556
  154SAPE  H11X17107   0.063   5.252   5.003  1.2294 -1.6529  2.1388
  154SAPE  H11Y17108   0.236   5.192   4.999  1.6214  0.8108  0.2646
  154SAPE  C31217109   0.210   5.376   4.892 -0.3513  0.3177  0.0176
  154SAPE  H12X17110   0.160   5.475   4.903  2.7167  1.9750  0.1405
  154SAPE  H12Y17111   0.172   5.327   4.800  0.0340  0.1105 -0.0347
  154SAPE  C31317112   0.358   5.416   4.900  0.2844  0.3471 -0.0554
  154SAPE  H13X17113   0.431   5.333   4.905  0.8364  0.7072 -1.5797
  154SAPE  H13Y17114   0.382   5.470   4.994  1.1890  0.0325 -0.0927
  154SAPE  C31417115   0.398   5.499   4.776  0.3650 -0.5792  0.5571
  154SAPE  H14X17116   0.365   5.435   4.692 -1.0385 -2.0733  2.1737
  154SAPE  H14Y17117   0.507   5.516   4.770  0.2666  0.5092  1.5060
  154SAPE  C31517118   0.329   5.637   4.761  0.1566  0.4929 -0.1342
  154SAPE  H15X17119   0.332   5.695   4.855 -0.5610 -0.9291  0.7992
  154SAPE  H15Y17120   0.218   5.633   4.757  0.0886  1.2572  0.6160
  154SAPE  C31617121   0.375   5.725   4.644 -0.6923 -1.4545 -0.1920
  154SAPE  H16X17122   0.293   5.800   4.634  0.4854 -0.3583 -2.4386
  154SAPE  H16Y17123   0.362   5.667   4.550 -1.3007  0.8120 -1.5814
  154SAPE  C31717124   0.509   5.792   4.659  0.1484 -0.1371  0.2625
  154SAPE  H17X17125   0.537   5.825   4.556 -0.7011 -1.6270 -0.4865
  154SAPE  H17Y17126   0.587   5.722   4.693  0.0493  0.5279  1.9498
  154SAPE  C31817127   0.506   5.906   4.759 -0.3555  0.0684 -0.3572
  154SAPE  H18X17128   0.601   5.964   4.764 -2.6444  4.1271 -0.0037
  154SAPE  H18Y17129   0.470   5.877   4.860 -1.9230  2.3495 -0.1823
  154SAPE  H18Z17130   0.428   5.981   4.734 -3.3090 -3.1415 -1.6620
  155SAPE     N17131   1.148   4.308   6.845 -0.6484 -0.2444  0.6600
  155SAPE   HN117132   1.052   4.347   6.845 -0.2813  0.7010 -0.1914
  155SAPE   HN217133   1.174   4.282   6.942 -0.8284 -0.6022  0.6143
  155SAPE   HN317134   1.219   4.379   6.818  0.0586 -0.9593  0.5723
  155SAPE   C1217135   1.166   4.187   6.752 -0.9138  0.2646 -0.5031
  155SAPE  H12A17136   1.270   4.154   6.771  0.5105  2.9328 -2.9760
  155SAPE  H12B17137   1.159   4.235   6.652 -1.3402 -0.2161 -0.7103
  155SAPE   C1117138   1.053   4.080   6.751 -0.5609 -0.9517 -0.2231
  155SAPE  H11A17139   1.046   4.034   6.852 -1.0969  0.5869  0.4773
  155SAPE  H11B17140   1.074   4.001   6.676  2.1939  0.2989 -0.9203
  155SAPE     P17141   0.840   4.129   6.607  0.0523  0.2127  0.0874
  155SAPE   O1317142   0.751   4.020   6.645 -0.3838  0.8167 -0.0174
  155SAPE   O1417143   0.775   4.254   6.566 -0.2247 -0.0853  0.3897
  155SAPE   O1217144   0.932   4.157   6.724 -0.5288  0.5368  0.1862
  155SAPE   O1117145   0.942   4.086   6.496 -0.9795  0.4199 -1.2702
  155SAPE    C117146   1.035   4.153   6.423 -0.1264  0.8117 -0.2425
  155SAPE    HA17147   1.051   4.248   6.479 -0.7260  0.8469 -0.1270
  155SAPE    HB17148   1.139   4.114   6.428 -0.7719 -1.3853 -2.3461
  155SAPE    C217149   0.983   4.187   6.281 -0.4984  0.5020 -0.4142
  155SAPE    HS17150   0.898   4.258   6.288 -1.9336 -1.2368  0.5467
  155SAPE   O2117151   0.945   4.058   6.229 -0.7717  0.4794 -0.2482
  155SAPE   C2117152   0.838   4.059   6.143 -0.6702  0.0803 -0.6218
  155SAPE   O2217153   0.781   4.161   6.107 -0.2738 -0.2152 -0.0703
  155SAPE   C2217154   0.803   3.913   6.103  0.0263  0.0188 -0.2008
  155SAPE   H2R17155   0.896   3.854   6.115  0.3907  0.7032  0.3542
  155SAPE   H2S17156   0.731   3.888   6.184  1.7215  0.8853  1.6292
  155SAPE    C317157   1.101   4.256   6.204  0.1908 -0.0155  0.6788
  155SAPE    HX17158   1.182   4.180   6.202  1.1743  0.9769  1.1895
  155SAPE    HY17159   1.140   4.350   6.250  0.1120  0.7852 -0.8467
  155SAPE   O3117160   1.059   4.271   6.066 -0.0415 -0.8509 -0.2768
  155SAPE   C3117161   0.992   4.390   6.046 -0.6948  0.4170  0.9239
  155SAPE   O3217162   0.966   4.472   6.131 -0.4714 -0.6121 -0.0081
  155SAPE   C3217163   0.944   4.389   5.899  0.0485  0.0376 -1.0093
  155SAPE   H2X17164   0.875   4.302   5.897  0.4726 -0.3622  0.5926
  155SAPE   H2Y17165   1.043   4.384   5.849  1.3259  2.2473  1.0477
  155SAPE   C2317166   0.735   3.910   5.964  0.6142 -0.0318 -0.0033
  155SAPE   H3R17167   0.650   3.982   5.960  0.4898 -0.2219 -0.9472
  155SAPE   H3S17168   0.696   3.809   5.938  1.6189 -0.5265  0.3703
  155SAPE   C2417169   0.833   3.961   5.853 -0.9551 -0.1590  0.2108
  155SAPE   H4R17170   0.902   3.884   5.812 -1.1359 -0.6086  0.7431
  155SAPE   H4S17171   0.894   4.049   5.883  0.7859 -1.5817  1.0501
  155SAPE   C2517172   0.758   4.020   5.739  0.3086  0.4083  0.0216
  155SAPE   H5R17173   0.740   4.128   5.735  2.4702  0.7983 -0.6338
  155SAPE   C2617174   0.689   3.946   5.649  0.3952  0.0197 -0.5172
  155SAPE   H6R17175   0.638   4.006   5.572  0.7459 -0.2077 -0.9321
  155SAPE   C2717176   0.687   3.799   5.623 -0.4874  0.0270 -0.3411
  155SAPE   H7R17177   0.776   3.755   5.673 -0.7941 -0.9759 -0.6644
  155SAPE   H7S17178   0.704   3.774   5.516  0.6489  0.5708 -0.3046
  155SAPE   C2817179   0.566   3.734   5.685  0.9107 -0.4477  0.7515
  155SAPE   H8R17180   0.512   3.798   5.756 -1.6873 -1.2621 -0.3975
  155SAPE   C2917181   0.517   3.616   5.637  0.2899  0.5088 -0.1422
  155SAPE   H9R17182   0.417   3.583   5.671 -0.1639  1.1184 -0.8449
  155SAPE  C21017183   0.587   3.536   5.531 -0.0358 -0.3528  0.0710
  155SAPE  H10R17184   0.692   3.564   5.510  0.4113 -0.1717  2.2869
  155SAPE  H10S17185   0.554   3.564   5.429  0.0687  2.2783  0.6842
  155SAPE  C21117186   0.567   3.383   5.555 -0.3868 -0.5252  0.0119
  155SAPE  H11R17187   0.563   3.361   5.663 -0.2137 -2.1722 -0.2976
  155SAPE  C21217188   0.537   3.285   5.471 -0.9184 -0.4382 -0.3146
  155SAPE  H12R17189   0.531   3.182   5.507 -0.1720  0.1552  1.6840
  155SAPE  C21317190   0.522   3.293   5.320 -0.0613 -0.2858  0.1423
  155SAPE  H13R17191   0.619   3.331   5.280 -0.0826  1.6536  1.7656
  155SAPE  H13S17192   0.447   3.373   5.298  0.7421  0.4426 -0.0142
  155SAPE  C21417193   0.490   3.166   5.239  0.5202 -1.1436  0.0453
  155SAPE  H14R17194   0.504   3.070   5.292 -3.5355 -2.2326 -0.5183
  155SAPE  C21517195   0.445   3.170   5.112  0.2359  0.0225 -0.3126
  155SAPE  H15R17196   0.440   3.076   5.056  3.4289  1.1771 -2.8095
  155SAPE  C21617197   0.416   3.292   5.032 -0.4846  0.8241  0.6782
  155SAPE  H16R17198   0.384   3.377   5.096  0.2039 -0.0101  2.1828
  155SAPE  H16S17199   0.320   3.280   4.977 -0.7797  2.0778  0.8782
  155SAPE  C21717200   0.516   3.311   4.915  0.9095  0.0715 -0.1203
  155SAPE  H17R17201   0.470   3.360   4.826  0.0805  1.5560  1.0903
  155SAPE  H17S17202   0.549   3.207   4.893  0.7555 -0.4346  1.8543
  155SAPE  C21817203   0.630   3.394   4.955  0.1348  0.3586 -0.0172
  155SAPE  H18R17204   0.684   3.338   5.035  2.4385  1.2660 -0.8357
  155SAPE  H18S17205   0.584   3.487   4.995 -4.0205 -0.9694 -1.3044
  155SAPE  C21917206   0.734   3.419   4.845 -0.0802  1.2266  0.1653
  155SAPE  H19R17207   0.815   3.473   4.897  0.9537 -0.6391  0.5802
  155SAPE  H19S17208   0.695   3.491   4.771  0.1893  1.6359  0.4190
  155SAPE  C22017209   0.774   3.290   4.768 -0.3978 -0.2954 -0.2123
  155SAPE  H20R17210   0.714   3.283   4.675  0.3707  0.8904 -0.8157
  155SAPE  H20S17211   0.763   3.198   4.829 -0.0300 -0.6723 -0.7074
  155SAPE  H20T17212   0.881   3.287   4.738 -0.5117 -0.6493 -0.5810
  155SAPE   C3317213   0.878   4.521   5.865 -0.3397 -0.3491 -0.3772
  155SAPE   H3X17214   0.961   4.595   5.857 -0.3000 -0.2877  0.5860
  155SAPE   H3Y17215   0.818   4.568   5.946  1.1425  1.7525 -0.4137
  155SAPE   C3417216   0.796   4.515   5.736 -0.1195 -0.0280  0.8676
  155SAPE   H4X17217   0.752   4.616   5.723  1.5783  0.4527 -2.1534
  155SAPE   H4Y17218   0.704   4.458   5.762 -0.9567  0.5833 -0.6421
  155SAPE   C3517219   0.860   4.474   5.600 -0.0728 -0.1385 -0.1844
  155SAPE   H5X17220   0.957   4.527   5.584 -0.4750  0.8935  0.6450
  155SAPE   H5Y17221   0.791   4.509   5.520 -0.5674 -1.3301 -0.2914
  155SAPE   C3617222   0.879   4.324   5.591  0.1793 -0.2113  0.2653
  155SAPE   H6X17223   0.785   4.270   5.615  0.6727 -1.1545  0.1223
  155SAPE   H6Y17224   0.963   4.302   5.660  0.3519  0.3508  0.2381
  155SAPE   C3717225   0.911   4.276   5.447  0.7265  0.0420  0.5312
  155SAPE   H7X17226   1.005   4.324   5.414  0.9737  0.6481  2.0475
  155SAPE   H7Y17227   0.827   4.298   5.378  0.7517  0.1546  0.5370
  155SAPE   C3817228   0.939   4.128   5.454  0.3056 -0.5261  0.2835
  155SAPE   H8X17229   0.842   4.077   5.475  0.4713 -0.9170  0.1051
  155SAPE   H8Y17230   1.004   4.108   5.542  0.0051  1.3014  0.9578
  155SAPE   C3917231   0.995   4.074   5.326 -0.0692  0.1323  0.2616
  155SAPE   H9X17232   0.995   3.965   5.345 -0.7290  0.4233  2.1304
  155SAPE   H9Y17233   1.104   4.096   5.322  0.4199 -2.0749  0.3867
  155SAPE  C31017234   0.934   4.121   5.192 -0.2189  0.5445  0.4608
  155SAPE  H10X17235   0.931   4.232   5.191  2.0877  0.6628 -0.5900
  155SAPE  H10Y17236   0.839   4.066   5.179  0.4996 -0.8313  0.7877
  155SAPE  C31117237   1.021   4.078   5.066 -0.1833  0.5147  0.2794
  155SAPE  H11X17238   1.003   3.969   5.055 -0.3123  0.3070  2.2006
  155SAPE  H11Y17239   1.120   4.101   5.110  0.5426  1.1841 -1.5797
  155SAPE  C31217240   0.984   4.156   4.944  0.3166  0.1185  0.9081
  155SAPE  H12X17241   1.058   4.131   4.865 -2.1253 -3.4637 -0.5346
  155SAPE  H12Y17242   0.980   4.266   4.962  2.0113  0.3563  0.0540
  155SAPE  C31317243   0.853   4.103   4.888 -0.3556 -0.2991  0.4311
  155SAPE  H13X17244   0.767   4.130   4.952 -1.6089  2.5448 -2.2356
  155SAPE  H13Y17245   0.873   3.994   4.881  1.7717  0.0528  0.4071
  155SAPE  C31417246   0.820   4.139   4.743  0.2757  0.1006 -0.2275
  155SAPE  H14X17247   0.906   4.119   4.677  0.9853  0.9404  0.4158
  155SAPE  H14Y17248   0.783   4.244   4.732  0.0523  0.3735  2.3829
  155SAPE  C31517249   0.698   4.048   4.695  0.4595  0.2447 -0.3595
  155SAPE  H15X17250   0.693   4.065   4.585 -1.8638 -0.0073 -0.3476
  155SAPE  H15Y17251   0.603   4.073   4.746 -0.3114 -1.6835 -0.7638
  155SAPE  C31617252   0.723   3.900   4.719 -0.0745  0.4304 -0.1400
  155SAPE  H16X17253   0.715   3.866   4.825 -1.0826  0.6658 -0.1253
  155SAPE  H16Y17254   0.818   3.878   4.666 -0.5904  0.1942 -0.9849
  155SAPE  C31717255   0.616   3.817   4.645  0.0768  0.7236  0.3848
  155SAPE  H17X17256   0.640   3.709   4.637  1.1889  1.0155 -0.5521
  155SAPE  H17Y17257   0.621   3.856   4.541 -3.4662 -0.9342 -0.5614
  155SAPE  C31817258   0.479   3.827   4.702 -0.7395 -0.2479  0.2289
  155SAPE  H18X17259   0.442   3.932   4.700  1.1669  0.4735  0.5950
  155SAPE  H18Y17260   0.470   3.793   4.807  2.1380 -0.1375  0.6116
  155SAPE  H18Z17261   0.406   3.771   4.641 -1.7143 -0.8170  1.8687
  156SAPE     N17262   2.858   6.118   6.577  0.0988  0.1058 -0.7753
  156SAPE   HN117263   2.828   6.212   6.545 -1.3387 -0.0593  0.0001
  156SAPE   HN217264   2.961   6.107   6.578 -0.1031 -2.7943 -0.6693
  156SAPE   HN317265   2.811   6.052   6.512  0.1097  0.7937 -1.4795
  156SAPE   C1217266   2.794   6.117   6.715 -0.8433  0.0338  0.2787
  156SAPE  H12A17267   2.693   6.158   6.694  0.0662  2.4584  0.2744
  156SAPE  H12B17268   2.868   6.184   6.765 -0.0241  0.0428 -0.9041
  156SAPE   C1117269   2.806   5.966   6.745  0.4262  0.4139 -0.1777
  156SAPE  H11A17270   2.792   5.943   6.852  4.2351 -0.5310  0.2785
  156SAPE  H11B17271   2.911   5.933   6.726  0.6780  1.3803 -0.4956
  156SAPE     P17272   2.576   5.859   6.679 -0.1608 -0.2761  0.4366
  156SAPE   O1317273   2.556   5.848   6.823  0.1934  0.5174 -0.1960
  156SAPE   O1417274   2.502   5.964   6.608 -0.1380  0.1391 -0.5315
  156SAPE   O1217275   2.728   5.882   6.661 -0.8848  0.4420  0.2832
  156SAPE   O1117276   2.555   5.724   6.603  0.6612  0.1470 -0.8049
  156SAPE    C117277   2.644   5.695   6.502  0.2272 -0.5038 -0.3843
  156SAPE    HA17278   2.695   5.786   6.466 -0.0671  0.6904  2.0585
  156SAPE    HB17279   2.721   5.621   6.532 -2.3382 -2.5745  1.5243
  156SAPE    C217280   2.562   5.620   6.391 -0.2656  0.1178 -0.0170
  156SAPE    HS17281   2.626   5.618   6.301  0.9551  5.8388  0.3221
  156SAPE   O2117282   2.440   5.696   6.367 -0.4644 -0.2558  0.2439
  156SAPE   C2117283   2.461   5.800   6.282  0.1308  0.3716  0.7169
  156SAPE   O2217284   2.566   5.829   6.226  0.3329  0.0781 -0.5240
  156SAPE   C2217285   2.333   5.886   6.279  0.1636 -0.5005  0.4472
  156SAPE   H2R17286   2.249   5.816   6.294 -0.1933 -0.2502 -0.3593
  156SAPE   H2S17287   2.328   5.950   6.371 -1.6126 -1.3374  0.9790
  156SAPE    C317288   2.534   5.469   6.426 -0.2491  0.6611  0.1748
  156SAPE    HX17289   2.447   5.460   6.496 -0.6120  0.8383 -0.2469
  156SAPE    HY17290   2.621   5.419   6.473 -0.4334 -1.4501 -1.5263
  156SAPE   O3117291   2.506   5.398   6.307 -0.0891 -0.3266  0.1165
  156SAPE   C3117292   2.384   5.367   6.265  0.4151 -0.3949 -0.4561
  156SAPE   O3217293   2.276   5.405   6.313 -0.2255  0.4430  0.5651
  156SAPE   C3217294   2.390   5.270   6.147  0.2604 -0.1505  0.5253
  156SAPE   H2X17295   2.324   5.183   6.165  1.5416 -1.2679 -0.0176
  156SAPE   H2Y17296   2.494   5.230   6.143  0.8461  1.3367 -1.1816
  156SAPE   C2317297   2.299   5.959   6.147 -0.2887  0.2548  0.2811
  156SAPE   H3R17298   2.390   6.014   6.116 -0.0105 -0.1131  0.4406
  156SAPE   H3S17299   2.223   6.038   6.168  0.3571  0.5278  1.7592
  156SAPE   C2417300   2.248   5.867   6.041  0.1396 -0.8261  0.2623
  156SAPE   H4R17301   2.155   5.822   6.084 -0.2207  0.7451  1.2015
  156SAPE   H4S17302   2.328   5.793   6.018 -0.4021 -1.5353  0.6152
  156SAPE   C2517303   2.209   5.924   5.907  0.2806  0.3385  0.4406
  156SAPE   H5R17304   2.291   5.975   5.855  0.5043  0.5029  0.9459
  156SAPE   C2617305   2.085   5.942   5.863  0.8138  0.6226  0.3999
  156SAPE   H6R17306   2.075   5.961   5.756  1.9543  2.1771  0.5362
  156SAPE   C2717307   1.956   5.900   5.935  0.2437 -0.1495  0.2739
  156SAPE   H7R17308   1.975   5.818   6.007 -0.2322 -0.3261  0.2027
  156SAPE   H7S17309   1.902   5.849   5.852 -0.7368 -1.7914  1.8436
  156SAPE   C2817310   1.894   6.020   6.000  0.2041 -0.0452 -0.8272
  156SAPE   H8R17311   1.962   6.075   6.066  0.9565 -0.4770 -1.2338
  156SAPE   C2917312   1.761   6.049   5.993 -0.0363  0.0998 -0.2829
  156SAPE   H9R17313   1.721   6.139   6.041 -1.5946  0.6085 -2.3629
  156SAPE  C21017314   1.668   5.987   5.895  0.2321  0.4384 -0.2659
  156SAPE  H10R17315   1.607   5.926   5.965  0.8779  1.0572  0.8592
  156SAPE  H10S17316   1.714   5.919   5.821  1.6655  1.9391 -0.7969
  156SAPE  C21117317   1.567   6.081   5.838  0.2394  0.8172 -0.1252
  156SAPE  H11R17318   1.513   6.148   5.906 -1.4373 -1.2510  0.6815
  156SAPE  C21217319   1.531   6.096   5.709  0.4544  0.4942 -0.0845
  156SAPE  H12R17320   1.450   6.169   5.693 -0.0213  0.1496  0.6901
  156SAPE  C21317321   1.587   6.023   5.581  0.2505 -0.0142 -0.1747
  156SAPE  H13R17322   1.633   5.924   5.603  0.9129  0.0914 -1.0168
  156SAPE  H13S17323   1.673   6.083   5.546 -0.3029  2.6328  2.5685
  156SAPE  C21417324   1.481   6.000   5.483  0.1116  0.1134 -0.7206
  156SAPE  H14R17325   1.377   5.997   5.519 -0.2119 -0.1567 -1.6556
  156SAPE  C21517326   1.499   5.995   5.350 -0.3486  0.2955 -0.4236
  156SAPE  H15R17327   1.404   5.986   5.296 -0.8277  0.7080  0.3393
  156SAPE  C21617328   1.635   6.014   5.291  0.2769 -0.5241 -0.5799
  156SAPE  H16R17329   1.687   6.101   5.336  1.3079  1.5219 -5.2090
  156SAPE  H16S17330   1.632   6.050   5.186  1.2522  1.6560  0.0778
  156SAPE  C21717331   1.707   5.879   5.308  0.1329 -0.1575 -0.5173
  156SAPE  H17R17332   1.665   5.801   5.241 -0.7655  1.2990 -1.7178
  156SAPE  H17S17333   1.715   5.845   5.414 -1.5777  0.2987 -0.2153
  156SAPE  C21817334   1.857   5.903   5.267  0.1910 -0.5566  0.6318
  156SAPE  H18R17335   1.920   5.950   5.346  3.4155 -3.0195 -0.2855
  156SAPE  H18S17336   1.851   5.963   5.173  0.5080 -0.6492  0.5534
  156SAPE  C21917337   1.932   5.776   5.226  0.2744  0.0662 -0.1616
  156SAPE  H19R17338   1.931   5.704   5.310  1.6761  2.0334  1.6354
  156SAPE  H19S17339   2.041   5.790   5.212  0.3697 -1.4038 -1.0888
  156SAPE  C22017340   1.872   5.706   5.108 -0.1269  0.0898  0.7668
  156SAPE  H20R17341   1.787   5.641   5.138  1.4106 -2.6190 -0.3310
  156SAPE  H20S17342   1.946   5.630   5.074 -1.6619 -1.6972  1.2871
  156SAPE  H20T17343   1.841   5.766   5.020 -0.7631 -3.0317 -1.3212
  156SAPE   C3317344   2.364   5.351   6.013  0.0932 -0.4848 -0.5064
  156SAPE   H3X17345   2.270   5.410   6.018  0.8346  0.7557 -0.7430
  156SAPE   H3Y17346   2.333   5.283   5.931  0.0908 -0.9629 -0.1105
  156SAPE   C3417347   2.488   5.438   5.984 -0.2804  0.2520 -0.3346
  156SAPE   H4X17348   2.585   5.385   5.997 -1.1192 -1.0216  1.0204
  156SAPE   H4Y17349   2.503   5.529   6.047  2.9472  0.4214 -1.1439
  156SAPE   C3517350   2.478   5.483   5.832 -0.1329 -0.7961  0.0085
  156SAPE   H5X17351   2.465   5.394   5.767  2.1003 -0.0014 -1.6309
  156SAPE   H5Y17352   2.582   5.505   5.800  1.0762 -1.7686  2.9536
  156SAPE   C3617353   2.386   5.601   5.804  0.7118  0.9517 -0.1333
  156SAPE   H6X17354   2.420   5.688   5.864  2.7376 -0.5918  1.0944
  156SAPE   H6Y17355   2.287   5.568   5.843  1.1426 -2.1082 -1.3277
  156SAPE   C3717356   2.375   5.625   5.653  0.1118  0.0171 -0.4807
  156SAPE   H7X17357   2.323   5.537   5.609  0.5547 -0.5715  0.1494
  156SAPE   H7Y17358   2.479   5.628   5.614  0.4597 -3.1556 -0.0279
  156SAPE   C3817359   2.290   5.743   5.606 -0.3427  0.0456  0.4410
  156SAPE   H8X17360   2.321   5.838   5.655  0.5842  0.2255 -0.4594
  156SAPE   H8Y17361   2.185   5.729   5.639 -1.2203  0.9741 -1.7848
  156SAPE   C3917362   2.271   5.757   5.449  0.2420  0.1814  0.4438
  156SAPE   H9X17363   2.189   5.829   5.428 -1.4887 -1.9096 -0.3852
  156SAPE   H9Y17364   2.238   5.659   5.407 -0.4200 -0.2136  1.8254
  156SAPE  C31017365   2.398   5.784   5.363 -0.3344 -0.0500  0.7498
  156SAPE  H10X17366   2.471   5.703   5.386 -0.5866 -1.7180 -3.5414
  156SAPE  H10Y17367   2.431   5.885   5.397 -1.8271  0.2906  1.2592
  156SAPE  C31117368   2.378   5.784   5.211 -0.7019  0.0863  0.2988
  156SAPE  H11X17369   2.322   5.872   5.172 -0.4661 -0.5456 -1.5342
  156SAPE  H11Y17370   2.326   5.690   5.185 -0.7182 -0.4808  2.2422
  156SAPE  C31217371   2.509   5.783   5.144 -0.3800 -0.0961 -0.3926
  156SAPE  H12X17372   2.574   5.695   5.164 -1.1557 -0.7414 -0.6779
  156SAPE  H12Y17373   2.570   5.864   5.189 -0.6951 -0.4120  0.6294
  156SAPE  C31317374   2.509   5.808   4.990  0.2926 -0.1131  0.4893
  156SAPE  H13X17375   2.449   5.901   4.976 -2.0146 -1.7179 -0.8561
  156SAPE  H13Y17376   2.452   5.726   4.942 -1.5293  0.5280  1.4735
  156SAPE  C31417377   2.649   5.827   4.934  0.7640 -0.5600  0.6533
  156SAPE  H14X17378   2.733   5.764   4.969  0.2374 -0.0068  3.0481
  156SAPE  H14Y17379   2.668   5.932   4.964  0.9028  0.5434 -2.7749
  156SAPE  C31517380   2.634   5.813   4.780  0.1382 -0.1115 -0.3526
  156SAPE  H15X17381   2.556   5.881   4.739 -0.9213 -0.7480  0.5329
  156SAPE  H15Y17382   2.600   5.710   4.754  0.8277 -0.1706 -1.0312
  156SAPE  C31617383   2.765   5.835   4.692  0.2938 -0.6656 -0.1941
  156SAPE  H16X17384   2.841   5.769   4.739  0.5664  1.5742  2.7177
  156SAPE  H16Y17385   2.788   5.939   4.722 -1.1355 -0.8277  1.5488
  156SAPE  C31717386   2.757   5.828   4.537  0.3137 -0.3914  0.3644
  156SAPE  H17X17387   2.685   5.905   4.501  1.7360  0.2831 -1.1838
  156SAPE  H17Y17388   2.716   5.729   4.507  0.5649 -0.5634  0.5861
  156SAPE  C31817389   2.890   5.857   4.478 -0.2917  0.2847 -0.5983
  156SAPE  H18X17390   2.958   5.778   4.518  1.3094  0.8980 -1.9959
  156SAPE  H18Y17391   2.938   5.954   4.505  1.2451 -0.3760 -0.8068
  156SAPE  H18Z17392   2.893   5.843   4.368  1.0078 -1.5504 -0.3857
  157SAPE     N17393   2.248   4.469   6.936 -0.2832  0.4541 -0.0964
  157SAPE   HN117394   2.312   4.391   6.910 -1.7638 -0.8199 -0.0352
  157SAPE   HN217395   2.260   4.488   7.037  0.0675  1.0820 -0.2469
  157SAPE   HN317396   2.150   4.434   6.933  0.3793 -1.6556  0.8633
  157SAPE   C1217397   2.280   4.583   6.848 -0.1823  0.7594  0.2708
  157SAPE  H12A17398   2.373   4.629   6.888  0.2483 -0.2355  0.4676
  157SAPE  H12B17399   2.197   4.656   6.857 -1.0938 -0.0528 -1.1355
  157SAPE   C1117400   2.285   4.531   6.709  0.0020  0.4826 -0.0477
  157SAPE  H11A17401   2.293   4.607   6.628 -0.1175  1.1782  0.5900
  157SAPE  H11B17402   2.184   4.486   6.694  0.9851 -3.1722  2.8497
  157SAPE     P17403   2.514   4.443   6.610 -0.1704 -0.0540 -0.2780
  157SAPE   O1317404   2.592   4.558   6.669 -0.1853 -0.3033 -0.2325
  157SAPE   O1417405   2.586   4.312   6.597  0.2313 -0.2826 -0.5353
  157SAPE   O1217406   2.383   4.427   6.688  0.4171 -0.4144 -0.8461
  157SAPE   O1117407   2.474   4.482   6.465 -0.4012  0.5354  0.1857
  157SAPE    C117408   2.564   4.572   6.399  0.0798 -0.0458 -0.7978
  157SAPE    HA17409   2.515   4.670   6.419  1.6242  0.6327 -0.1142
  157SAPE    HB17410   2.669   4.562   6.434  0.3066  1.4773 -0.9536
  157SAPE    C217411   2.566   4.547   6.240 -0.1138  0.1636 -0.5397
  157SAPE    HS17412   2.654   4.590   6.189  2.4998 -1.7645  2.0116
  157SAPE   O2117413   2.431   4.583   6.195 -0.1173  0.4165  0.7313
  157SAPE   C2117414   2.433   4.712   6.157  0.6210  0.3420  0.1864
  157SAPE   O2217415   2.522   4.794   6.181  0.1744  0.6195 -0.1389
  157SAPE   C2217416   2.316   4.736   6.057  0.3970 -0.1165  0.0116
  157SAPE   H2R17417   2.342   4.677   5.967  0.8032 -0.6773  0.4868
  157SAPE   H2S17418   2.227   4.693   6.108  0.9682 -2.3075 -0.7333
  157SAPE    C317419   2.581   4.399   6.214  0.3183 -0.3999 -0.4112
  157SAPE    HX17420   2.506   4.340   6.271  1.4652 -2.0725 -0.5560
  157SAPE    HY17421   2.678   4.364   6.255 -0.4090 -0.5494  1.2686
  157SAPE   O3117422   2.592   4.375   6.071  0.1685 -0.2643  0.1504
  157SAPE   C3117423   2.543   4.259   6.031  1.3656  0.2370  0.4825
  157SAPE   O3217424   2.512   4.170   6.110 -0.0493 -0.0012 -0.0065
  157SAPE   C3217425   2.539   4.257   5.878 -0.6503 -0.3910  0.7052
  157SAPE   H2X17426   2.446   4.203   5.851 -0.3067 -0.5752 -0.1534
  157SAPE   H2Y17427   2.632   4.204   5.846 -0.5254  0.6655 -0.7996
  157SAPE   C2317428   2.298   4.889   6.014 -0.2112  0.1087  0.0101
  157SAPE   H3R17429   2.394   4.927   5.972  0.4104 -2.1063 -0.6939
  157SAPE   H3S17430   2.262   4.943   6.104  1.1165  0.3529  0.4028
  157SAPE   C2417431   2.201   4.896   5.891 -0.5686  0.6710 -0.2655
  157SAPE   H4R17432   2.117   4.825   5.911  1.8546 -2.0948  0.8929
  157SAPE   H4S17433   2.254   4.867   5.797  0.6013 -0.5791  0.7327
  157SAPE   C2517434   2.145   5.032   5.889 -0.3554 -0.2724  0.1616
  157SAPE   H5R17435   2.111   5.076   5.984 -2.6779  0.9062 -1.1225
  157SAPE   C2617436   2.142   5.112   5.781  0.1613  0.0927 -0.2556
  157SAPE   H6R17437   2.114   5.218   5.787 -1.3925 -0.2613 -0.7852
  157SAPE   C2717438   2.187   5.082   5.644  0.1650 -0.1617  0.6825
  157SAPE   H7R17439   2.251   4.991   5.635 -1.2540 -1.2617  1.4055
  157SAPE   H7S17440   2.244   5.170   5.607 -1.1542  0.4767  0.1195
  157SAPE   C2817441   2.076   5.032   5.548  0.0320 -0.1688  0.0913
  157SAPE   H8R17442   2.002   4.975   5.607  1.1239 -0.2844  1.4030
  157SAPE   C2917443   2.073   5.045   5.411  0.4656 -1.0549 -0.0438
  157SAPE   H9R17444   1.983   5.006   5.361  0.9571 -1.7914 -0.3587
  157SAPE  C21017445   2.167   5.124   5.323  0.4752  0.0150  0.0530
  157SAPE  H10R17446   2.154   5.080   5.221  1.0949  1.2858 -0.5988
  157SAPE  H10S17447   2.275   5.101   5.338  0.1958 -1.1890  0.3070
  157SAPE  C21117448   2.132   5.264   5.328  0.6438 -0.9055  0.5612
  157SAPE  H11R17449   2.134   5.313   5.427  1.0077 -0.5914  0.4008
  157SAPE  C21217450   2.099   5.337   5.218 -0.0794 -0.5295 -0.2470
  157SAPE  H12R17451   2.069   5.438   5.249 -0.5349 -0.9099  0.5974
  157SAPE  C21317452   2.098   5.293   5.078 -0.3371  0.2371  0.3357
  157SAPE  H13R17453   2.131   5.189   5.058 -1.1730  0.5021 -3.0309
  157SAPE  H13S17454   2.183   5.341   5.025  0.7940 -1.4605  0.5668
  157SAPE  C21417455   1.978   5.313   4.983 -0.0427  0.5612 -1.0792
  157SAPE  H14R17456   1.883   5.332   5.034 -0.1913 -1.2233 -0.6115
  157SAPE  C21517457   1.971   5.315   4.852  0.2232  0.2623  0.6577
  157SAPE  H15R17458   1.880   5.346   4.798  0.6313 -1.1487 -0.9537
  157SAPE  C21617459   2.084   5.282   4.755 -0.6426 -1.0292  0.9609
  157SAPE  H16R17460   2.046   5.232   4.664  3.0529 -1.1123 -0.6741
  157SAPE  H16S17461   2.153   5.212   4.807  2.1590  1.8180  1.3882
  157SAPE  C21717462   2.160   5.403   4.708 -0.3193  0.4081 -0.6083
  157SAPE  H17R17463   2.202   5.460   4.794  2.2751 -1.4448 -0.5111
  157SAPE  H17S17464   2.095   5.469   4.646  0.9873  0.9224 -1.4819
  157SAPE  C21817465   2.284   5.368   4.618 -0.0965  0.5573 -0.7823
  157SAPE  H18R17466   2.255   5.308   4.528 -1.3654  0.7639 -0.5219
  157SAPE  H18S17467   2.343   5.302   4.686 -2.2655 -0.6500  0.0013
  157SAPE  C21917468   2.381   5.480   4.586  0.0798 -0.5486 -0.6431
  157SAPE  H19R17469   2.400   5.526   4.686  0.5866 -0.0126 -0.9763
  157SAPE  H19S17470   2.334   5.553   4.516  3.5507  1.9473 -0.6150
  157SAPE  C22017471   2.510   5.430   4.524  0.2867 -0.0724 -0.0341
  157SAPE  H20R17472   2.497   5.394   4.420 -0.7874  2.0425 -0.6952
  157SAPE  H20S17473   2.548   5.345   4.585  1.9942  1.5196  1.2543
  157SAPE  H20T17474   2.581   5.514   4.506  0.4442 -0.5711 -1.8714
  157SAPE   C3317475   2.539   4.406   5.808  0.2584  0.4698 -0.3028
  157SAPE   H3X17476   2.612   4.472   5.860  0.5248  0.2706 -0.4254
  157SAPE   H3Y17477   2.437   4.448   5.824  0.3011  0.8421 -0.9625
  157SAPE   C3417478   2.566   4.410   5.655 -0.1328 -0.0359 -0.5074
  157SAPE   H4X17479   2.576   4.514   5.617  0.7682 -0.1133 -0.5170
  157SAPE   H4Y17480   2.494   4.349   5.596 -3.0496  1.3794  1.3796
  157SAPE   C3517481   2.710   4.361   5.612 -0.1224 -0.4022 -0.2627
  157SAPE   H5X17482   2.711   4.256   5.647 -0.2359 -0.0152  0.9657
  157SAPE   H5Y17483   2.784   4.422   5.668 -2.9111  0.9884  2.2193
  157SAPE   C3617484   2.720   4.354   5.460  0.0716  0.1146 -0.4972
  157SAPE   H6X17485   2.648   4.280   5.418 -0.6936  0.6238 -0.1157
  157SAPE   H6Y17486   2.823   4.324   5.433 -0.1509 -0.5881 -0.6011
  157SAPE   C3717487   2.682   4.477   5.373 -0.0557  0.1257 -0.5417
  157SAPE   H7X17488   2.737   4.568   5.405 -0.9503  0.1222  1.1181
  157SAPE   H7Y17489   2.572   4.488   5.384 -0.2677 -2.8426  1.4254
  157SAPE   C3817490   2.719   4.442   5.227  0.2822  0.0867  0.2973
  157SAPE   H8X17491   2.651   4.356   5.210  0.3662 -0.1654  1.2050
  157SAPE   H8Y17492   2.825   4.408   5.225 -0.1732 -1.3445  0.0011
  157SAPE   C3917493   2.693   4.537   5.120  0.0016 -0.0521  0.1086
  157SAPE   H9X17494   2.597   4.592   5.122  0.4195  0.8190 -1.5465
  157SAPE   H9Y17495   2.695   4.477   5.026  0.1647  0.1476 -0.0165
  157SAPE  C31017496   2.810   4.643   5.120  0.3087  0.2080  0.0503
  157SAPE  H10X17497   2.917   4.615   5.131  0.3190  0.9990  2.6683
  157SAPE  H10Y17498   2.785   4.689   5.218  1.2079  0.6178  0.0941
  157SAPE  C31117499   2.789   4.752   5.010  0.0236  0.6219 -0.7195
  157SAPE  H11X17500   2.688   4.784   5.045 -0.4471  0.0692 -1.5318
  157SAPE  H11Y17501   2.775   4.703   4.911  0.3002 -0.0531 -0.4310
  157SAPE  C31217502   2.886   4.861   5.019 -0.2026 -0.5246 -0.0356
  157SAPE  H12X17503   2.983   4.807   5.016 -0.2571 -0.7168  1.1917
  157SAPE  H12Y17504   2.875   4.912   5.117 -0.2362  2.4437 -1.4636
  157SAPE  C31317505   2.873   4.976   4.916 -0.3972  0.3433 -0.5064
  157SAPE  H13X17506   2.946   5.054   4.949  0.4673 -1.1529  1.3361
  157SAPE  H13Y17507   2.772   5.021   4.915 -0.5032  0.1502  0.4764
  157SAPE  C31417508   2.885   4.941   4.771  0.4121 -0.0680 -0.1788
  157SAPE  H14X17509   2.801   4.878   4.733  0.3385  0.2076 -0.4822
  157SAPE  H14Y17510   2.974   4.877   4.755 -0.5433 -1.1984 -1.2529
  157SAPE  C31517511   2.874   5.064   4.675  0.4503 -0.1565 -0.5429
  157SAPE  H15X17512   2.774   5.113   4.682  0.6010  0.0651  0.2469
  157SAPE  H15Y17513   2.888   5.025   4.572  1.3268 -2.6007  0.4340
  157SAPE  C31617514   2.972   5.177   4.718 -0.1037 -0.0514  0.9861
  157SAPE  H16X17515   3.066   5.121   4.737  1.2066  1.5072 -0.5083
  157SAPE  H16Y17516   2.945   5.231   4.812  0.2011  1.3771  0.2888
  157SAPE  C31717517   2.999   5.293   4.609  1.0574  0.3378  0.6709
  157SAPE  H17X17518   3.054   5.248   4.524 -1.1422  1.3408 -1.3759
  157SAPE  H17Y17519   3.066   5.367   4.658 -1.2362  3.0759 -0.1353
  157SAPE  C31817520   2.877   5.377   4.548 -0.3023  0.5046  0.3285
  157SAPE  H18X17521   2.801   5.311   4.502 -1.1118  1.3599  0.4159
  157SAPE  H18Y17522   2.924   5.446   4.474 -0.2551  2.9720  2.4893
  157SAPE  H18Z17523   2.834   5.450   4.621  0.1574  2.4228 -1.2281
  158SAPE     N17524   3.115   4.188   6.618 -0.8612 -0.0736 -0.1601
  158SAPE   HN117525   3.026   4.203   6.669 -1.6964 -0.4621 -1.4440
  158SAPE   HN217526   3.188   4.162   6.687  0.9962  0.8781 -1.6375
  158SAPE   HN317527   3.162   4.276   6.586  0.2878 -1.3497 -2.2385
  158SAPE   C1217528   3.107   4.112   6.485 -0.3049  0.3476 -0.1213
  158SAPE  H12A17529   3.047   4.164   6.407 -2.2798 -0.6744  0.6368
  158SAPE  H12B17530   3.067   4.012   6.513 -0.5862  0.6335  0.5080
  158SAPE   C1117531   3.248   4.084   6.421 -0.0752  0.3237  0.0593
  158SAPE  H11A17532   3.270   4.177   6.364  1.4172  0.6623  1.1125
  158SAPE  H11B17533   3.240   4.007   6.342  0.1937  1.0666 -0.7103
  158SAPE     P17534   3.358   3.908   6.573  0.4732 -0.2587 -0.1745
  158SAPE   O1317535   3.479   3.890   6.650  0.4694 -0.2169 -0.5077
  158SAPE   O1417536   3.224   3.880   6.633 -0.0434 -0.0086  0.3333
  158SAPE   O1217537   3.348   4.062   6.523 -0.3815 -0.2812 -0.0783
  158SAPE   O1117538   3.376   3.834   6.433  0.3544 -0.4586  0.0625
  158SAPE    C117539   3.498   3.822   6.357 -0.6280 -0.6030 -0.5639
  158SAPE    HA17540   3.593   3.830   6.414  0.1386 -0.3027 -1.8289
  158SAPE    HB17541   3.497   3.718   6.319 -1.6085 -1.5703  1.9311
  158SAPE    C217542   3.508   3.922   6.246 -0.3712  0.4406  0.5431
  158SAPE    HS17543   3.509   4.025   6.289 -0.7593 -0.3320  2.5255
  158SAPE   O2117544   3.385   3.898   6.172  0.3875 -0.4861 -0.4304
  158SAPE   C2117545   3.341   3.992   6.094  1.0373 -0.9260  0.3183
  158SAPE   O2217546   3.382   4.108   6.082 -0.2084  0.6390 -0.2704
  158SAPE   C2217547   3.230   3.936   6.008  0.6548  0.2933 -0.2139
  158SAPE   H2R17548   3.175   3.872   6.080  2.9544 -2.7434 -0.9261
  158SAPE   H2S17549   3.156   4.013   5.976 -0.4614  0.2652  2.0926
  158SAPE    C317550   3.627   3.908   6.149 -0.1963  0.3925 -0.1450
  158SAPE    HX17551   3.707   3.877   6.220  0.6211  1.1071 -0.7291
  158SAPE    HY17552   3.661   4.008   6.113  0.2532  1.1531  2.2163
  158SAPE   O3117553   3.604   3.818   6.049 -0.7545 -0.5544 -0.0108
  158SAPE   C3117554   3.716   3.777   5.991 -0.2080  0.7372 -1.2910
  158SAPE   O3217555   3.831   3.801   6.030 -0.2929 -0.0834  0.3973
  158SAPE   C3217556   3.684   3.695   5.866  0.2607  0.0455 -0.3899
  158SAPE   H2X17557   3.633   3.755   5.788  0.8497 -0.5670 -1.2572
  158SAPE   H2Y17558   3.607   3.619   5.893  1.1074  0.2136  2.9320
  158SAPE   C2317559   3.282   3.835   5.910 -0.3413 -0.4301 -0.4874
  158SAPE   H3R17560   3.218   3.745   5.905  0.0556 -0.6724 -1.5969
  158SAPE   H3S17561   3.383   3.793   5.932  0.8720  1.9618 -1.1001
  158SAPE   C2417562   3.293   3.891   5.762  0.3496  0.3871  0.2081
  158SAPE   H4R17563   3.204   3.956   5.750 -0.1403 -0.3409 -0.1723
  158SAPE   H4S17564   3.286   3.793   5.710  0.8336 -0.6002  1.9311
  158SAPE   C2517565   3.415   3.969   5.725 -0.5173 -0.6855  0.1974
  158SAPE   H5R17566   3.446   4.035   5.808 -0.9734 -1.1122  0.7163
  158SAPE   C2617567   3.479   3.981   5.605  0.3928 -0.0757 -0.1883
  158SAPE   H6R17568   3.569   4.043   5.600  0.0087  0.4247 -0.9366
  158SAPE   C2717569   3.440   3.890   5.487  0.4819  0.7705  0.0575
  158SAPE   H7R17570   3.332   3.863   5.491  0.6391 -0.0487 -0.9718
  158SAPE   H7S17571   3.491   3.792   5.494 -1.0379 -0.0022  1.1413
  158SAPE   C2817572   3.470   3.968   5.363 -0.2117  0.0279  0.0526
  158SAPE   H8R17573   3.393   4.046   5.357 -1.6486 -1.2953  0.4375
  158SAPE   C2917574   3.568   3.946   5.266  0.2251  0.8674  0.0064
  158SAPE   H9R17575   3.580   3.996   5.169 -0.7949  0.7116 -0.2138
  158SAPE  C21017576   3.675   3.840   5.272 -0.3346 -0.8706 -0.1589
  158SAPE  H10R17577   3.710   3.820   5.376  1.4217  0.2137 -0.4950
  158SAPE  H10S17578   3.771   3.871   5.225 -0.8532  0.6864 -0.2159
  158SAPE  C21117579   3.614   3.712   5.217  0.7873 -0.7327  0.5583
  158SAPE  H11R17580   3.569   3.637   5.284 -1.0176  0.7345  1.0593
  158SAPE  C21217581   3.623   3.675   5.088  0.3748  0.7145 -0.2250
  158SAPE  H12R17582   3.566   3.586   5.058 -1.0744  1.3130  0.6378
  158SAPE  C21317583   3.692   3.744   4.971  0.0220  0.4747 -1.2320
  158SAPE  H13R17584   3.777   3.683   4.931 -0.3860 -0.3902 -0.8051
  158SAPE  H13S17585   3.744   3.839   4.995  0.8074 -0.3724  0.5574
  158SAPE  C21417586   3.596   3.768   4.853  0.3305  0.2810  0.0055
  158SAPE  H14R17587   3.514   3.695   4.844  1.6645 -1.3774  0.6517
  158SAPE  C21517588   3.601   3.849   4.737  0.2145  0.1483 -0.1797
  158SAPE  H15R17589   3.512   3.855   4.674 -0.0854 -1.5023  0.0488
  158SAPE  C21617590   3.718   3.931   4.686 -0.7628 -0.4984  0.2182
  158SAPE  H16R17591   3.768   3.854   4.624 -1.1812  0.6124 -1.5610
  158SAPE  H16S17592   3.792   3.960   4.764 -1.4367  0.1233  0.6410
  158SAPE  C21717593   3.660   4.042   4.593  0.4626  0.0968  0.0085
  158SAPE  H17R17594   3.576   4.101   4.638 -0.9560 -1.3285 -0.6613
  158SAPE  H17S17595   3.607   3.986   4.513 -0.9361  1.8895 -0.4038
  158SAPE  C21817596   3.768   4.118   4.526 -0.3888 -0.3649 -0.0488
  158SAPE  H18R17597   3.829   4.038   4.479 -0.1300 -0.1320 -0.1110
  158SAPE  H18S17598   3.828   4.180   4.596 -0.6851 -0.2886  0.1390
  158SAPE  C21917599   3.712   4.209   4.409 -0.0392  0.3273  0.2172
  158SAPE  H19R17600   3.661   4.148   4.331  0.8737  0.7824 -0.7592
  158SAPE  H19S17601   3.795   4.266   4.361 -0.5305  0.6861 -0.2092
  158SAPE  C22017602   3.593   4.301   4.464 -0.2183  0.7247 -0.4667
  158SAPE  H20R17603   3.556   4.368   4.383 -0.6325  0.7897 -0.2247
  158SAPE  H20S17604   3.635   4.354   4.552  1.2347 -1.1864  0.0717
  158SAPE  H20T17605   3.509   4.235   4.493  0.7098 -1.5482 -2.5035
  158SAPE   C3317606   3.818   3.648   5.811 -0.0868 -0.1252  0.2831
  158SAPE   H3X17607   3.874   3.583   5.882  0.3213  1.5328  1.5678
  158SAPE   H3Y17608   3.880   3.741   5.808  3.4685 -2.2704  1.0857
  158SAPE   C3417609   3.814   3.584   5.673 -0.2697  0.5940  0.1530
  158SAPE   H4X17610   3.915   3.559   5.633 -0.3284 -0.6588  0.7459
  158SAPE   H4Y17611   3.767   3.658   5.604 -0.0151  1.9792  1.4321
  158SAPE   C3517612   3.725   3.464   5.661 -0.0889  0.0059  0.2390
  158SAPE   H5X17613   3.619   3.474   5.692 -0.2052 -1.9010  0.5700
  158SAPE   H5Y17614   3.768   3.381   5.721 -1.7075 -0.4042  0.8805
  158SAPE   C3617615   3.711   3.422   5.515 -0.0215  0.0378 -0.8310
  158SAPE   H6X17616   3.647   3.500   5.469  0.2090  1.8757  1.7524
  158SAPE   H6Y17617   3.660   3.323   5.517  2.8262 -1.5668 -1.1630
  158SAPE   C3717618   3.842   3.403   5.437  0.0497 -1.0201 -0.0397
  158SAPE   H7X17619   3.931   3.385   5.500  1.4257  0.0612 -1.6127
  158SAPE   H7Y17620   3.861   3.498   5.383 -2.7885  0.5244  1.3980
  158SAPE   C3817621   3.827   3.287   5.332  0.0270  0.4877  0.6049
  158SAPE   H8X17622   3.792   3.196   5.386 -0.9829  0.1928 -0.4981
  158SAPE   H8Y17623   3.931   3.272   5.294 -0.7329  0.5089 -1.6480
  158SAPE   C3917624   3.740   3.326   5.213 -0.4272  0.5836  0.4622
  158SAPE   H9X17625   3.761   3.430   5.179  0.0307  0.3657  0.0682
  158SAPE   H9Y17626   3.636   3.330   5.251  0.9401  2.7566  4.6273
  158SAPE  C31017627   3.767   3.224   5.097  0.5518  0.0769 -0.2614
  158SAPE  H10X17628   3.762   3.120   5.134  0.3806 -0.1177 -0.8206
  158SAPE  H10Y17629   3.861   3.249   5.045 -0.4995  0.8813 -1.8676
  158SAPE  C31117630   3.677   3.241   4.976  1.2209 -0.1572 -0.6203
  158SAPE  H11X17631   3.652   3.348   4.963 -0.4056 -0.7188 -2.8612
  158SAPE  H11Y17632   3.575   3.196   4.974  1.1608 -0.2200 -4.8078
  158SAPE  C31217633   3.748   3.208   4.849  0.0192  1.0115  0.2210
  158SAPE  H12X17634   3.775   3.100   4.851  1.8884  1.4146 -1.1958
  158SAPE  H12Y17635   3.844   3.262   4.836  0.4182 -0.2272 -2.8136
  158SAPE  C31317636   3.673   3.237   4.719 -0.3722  0.0397 -0.1445
  158SAPE  H13X17637   3.652   3.346   4.708 -1.4704  0.0286  1.4589
  158SAPE  H13Y17638   3.572   3.193   4.724 -0.3507 -0.3334 -2.3353
  158SAPE  C31417639   3.755   3.192   4.592  0.3298  0.3850 -0.0041
  158SAPE  H14X17640   3.780   3.087   4.619 -1.4998  0.9986  5.1462
  158SAPE  H14Y17641   3.849   3.246   4.569  1.3910 -1.9951 -1.6818
  158SAPE  C31517642   3.662   3.186   4.463  0.1482 -0.0177 -0.7422
  158SAPE  H15X17643   3.601   3.279   4.451 -0.3866 -0.2792 -0.0955
  158SAPE  H15Y17644   3.594   3.101   4.484 -0.6604  0.9629  0.8178
  158SAPE  C31617645   3.734   3.153   4.332  0.0803 -0.0100  0.1645
  158SAPE  H16X17646   3.776   3.053   4.355  1.3944  0.8195  1.5922
  158SAPE  H16Y17647   3.824   3.217   4.316  1.1794 -1.1826  1.3679
  158SAPE  C31717648   3.635   3.146   4.211 -0.2068 -0.2257  0.0622
  158SAPE  H17X17649   3.571   3.237   4.210 -0.4019 -0.2771 -3.0999
  158SAPE  H17Y17650   3.577   3.056   4.241  0.7909 -0.4246  1.4701
  158SAPE  C31817651   3.704   3.118   4.079  0.1304 -0.3784 -0.0190
  158SAPE  H18X17652   3.749   3.213   4.042 -1.3836  0.7973  1.0403
  158SAPE  H18Y17653   3.628   3.078   4.009 -1.2923  1.5340  0.3586
  158SAPE  H18Z17654   3.785   3.042   4.087 -0.1277 -0.4662  2.2925
  159SAPE     N17655   4.844   4.624   2.737 -0.1894  0.0771 -0.1011
  159SAPE   HN117656   4.911   4.573   2.676 -0.6056 -0.1985 -0.3310
  159SAPE   HN217657   4.894   4.693   2.796 -0.5109  1.4476 -1.3595
  159SAPE   HN317658   4.806   4.551   2.799  3.0762 -1.9775 -0.2938
  159SAPE   C1217659   4.750   4.700   2.644 -0.7115  0.8566 -0.2715
  159SAPE  H12A17660   4.706   4.623   2.577 -0.0810 -0.4006  0.7370
  159SAPE  H12B17661   4.820   4.762   2.583 -1.1830  1.0459 -0.6363
  159SAPE   C1117662   4.651   4.782   2.732 -0.2311  0.0846 -0.6062
  159SAPE  H11A17663   4.578   4.814   2.655  1.8052  1.9406 -1.9034
  159SAPE  H11B17664   4.696   4.876   2.771 -1.1554  0.3603 -0.1878
  159SAPE     P17665   4.505   4.593   2.837  0.0491  0.1008 -0.2935
  159SAPE   O1317666   4.396   4.631   2.746 -0.5568 -0.1587 -0.0899
  159SAPE   O1417667   4.589   4.480   2.789 -0.3742  0.2956 -0.1157
  159SAPE   O1217668   4.605   4.715   2.849 -0.3300  0.3771  0.2457
  159SAPE   O1117669   4.450   4.572   2.980 -0.3520  0.0480 -0.4234
  159SAPE    C117670   4.530   4.579   3.104 -0.0758  0.5139  0.3114
  159SAPE    HA17671   4.633   4.537   3.095  0.0948  0.5886  1.7686
  159SAPE    HB17672   4.566   4.684   3.115 -1.1977  0.8222  1.1717
  159SAPE    C217673   4.460   4.523   3.228 -0.3157  0.0318 -0.5953
  159SAPE    HS17674   4.540   4.490   3.298 -1.6001 -0.3601  0.7364
  159SAPE   O2117675   4.378   4.406   3.193  0.4225  0.3043  0.3293
  159SAPE   C2117676   4.443   4.294   3.161  0.3514 -0.8417 -0.0184
  159SAPE   O2217677   4.563   4.288   3.141  0.5714  0.5594  0.8904
  159SAPE   C2217678   4.343   4.190   3.161  0.2243  0.8523 -0.0425
  159SAPE   H2R17679   4.244   4.228   3.195 -0.6913 -1.3561 -0.1170
  159SAPE   H2S17680   4.332   4.148   3.060 -0.7315  2.1652 -0.5174
  159SAPE    C317681   4.381   4.631   3.311  0.3733  0.6708  0.0990
  159SAPE    HX17682   4.372   4.580   3.409  0.8261 -1.4856 -0.9283
  159SAPE    HY17683   4.282   4.641   3.261  0.5612 -0.9910 -0.6585
  159SAPE   O3117684   4.445   4.762   3.311  0.2124  0.5759 -0.2135
  159SAPE   C3117685   4.538   4.781   3.399 -0.6683  0.1835 -0.5819
  159SAPE   O3217686   4.597   4.694   3.460 -0.0467  0.1725  0.4192
  159SAPE   C3217687   4.553   4.930   3.436 -0.1044 -0.4263 -0.3152
  159SAPE   H2X17688   4.553   4.994   3.345 -4.0955 -1.1206 -1.0140
  159SAPE   H2Y17689   4.651   4.950   3.484  0.0128 -0.1401 -0.6690
  159SAPE   C2317690   4.375   4.074   3.258  0.1714 -0.3404 -0.9749
  159SAPE   H3R17691   4.472   4.020   3.249  0.4787 -0.0178  0.1429
  159SAPE   H3S17692   4.292   4.004   3.234  0.6423 -1.3674  0.2563
  159SAPE   C2417693   4.364   4.104   3.412  0.4324  0.3089 -0.2397
  159SAPE   H4R17694   4.345   4.008   3.464 -1.0524 -0.3516 -1.9150
  159SAPE   H4S17695   4.271   4.162   3.427  0.1949 -0.5031  1.7498
  159SAPE   C2517696   4.482   4.170   3.478  0.1627  0.2730 -0.2317
  159SAPE   H5R17697   4.583   4.136   3.451 -0.3229 -0.0106 -1.7908
  159SAPE   C2617698   4.477   4.272   3.567  0.0368  0.2066 -0.0683
  159SAPE   H6R17699   4.572   4.305   3.612 -1.0408  1.8825  1.1016
  159SAPE   C2717700   4.362   4.353   3.608  0.1880  0.2600 -0.7513
  159SAPE   H7R17701   4.308   4.289   3.680 -2.0622  0.5002 -2.1493
  159SAPE   H7S17702   4.293   4.382   3.526 -0.4245 -0.9620 -0.6823
  159SAPE   C2817703   4.389   4.480   3.678  0.9682  0.4933 -0.3155
  159SAPE   H8R17704   4.461   4.540   3.621  2.3278 -0.6035  0.1694
  159SAPE   C2917705   4.345   4.530   3.798  0.1988  0.4031  0.2924
  159SAPE   H9R17706   4.379   4.633   3.821 -0.0403  0.3022  1.1177
  159SAPE  C21017707   4.262   4.461   3.897 -0.9740 -0.6799  0.9907
  159SAPE  H10R17708   4.330   4.387   3.945 -0.1216 -0.3025  0.3946
  159SAPE  H10S17709   4.194   4.392   3.843  1.0388 -2.1793  0.2142
  159SAPE  C21117710   4.177   4.547   3.984  0.0689 -0.3652  0.3502
  159SAPE  H11R17711   4.083   4.586   3.940  0.2631  0.9834  1.0593
  159SAPE  C21217712   4.200   4.580   4.112  0.6398  0.3152  0.0537
  159SAPE  H12R17713   4.141   4.661   4.157 -0.5233 -0.5352  0.1080
  159SAPE  C21317714   4.310   4.525   4.199 -0.2386 -0.2467 -0.6602
  159SAPE  H13R17715   4.307   4.582   4.294 -0.1570  1.9843 -1.9095
  159SAPE  H13S17716   4.405   4.532   4.143  1.3071 -0.5244  1.7987
  159SAPE  C21417717   4.310   4.377   4.228 -0.0818  0.3037 -0.3723
  159SAPE  H14R17718   4.216   4.331   4.195 -1.4940  1.4337  1.8846
  159SAPE  C21517719   4.405   4.304   4.291 -0.3623  0.3226  0.2401
  159SAPE  H15R17720   4.403   4.196   4.310  2.6944 -0.1789 -1.5596
  159SAPE  C21617721   4.532   4.358   4.344 -0.0070 -0.7846 -0.1785
  159SAPE  H16R17722   4.529   4.469   4.338  1.8040 -0.7449 -1.2093
  159SAPE  H16S17723   4.619   4.303   4.303 -0.1411 -1.7853  0.8293
  159SAPE  C21717724   4.543   4.338   4.488 -0.1808  0.2733 -0.6511
  159SAPE  H17R17725   4.642   4.368   4.527  0.3041 -1.3450 -0.5556
  159SAPE  H17S17726   4.514   4.236   4.522 -0.4756  1.2028  2.1178
  159SAPE  C21817727   4.445   4.424   4.571  0.5513  0.3487 -0.1118
  159SAPE  H18R17728   4.347   4.373   4.563  1.2956 -0.8197 -2.4287
  159SAPE  H18S17729   4.435   4.517   4.512  3.1828 -0.1664 -1.5229
  159SAPE  C21917730   4.496   4.457   4.713  0.6454 -0.3324 -0.3084
  159SAPE  H19R17731   4.590   4.515   4.700  0.1847  0.0597 -2.2412
  159SAPE  H19S17732   4.510   4.359   4.762 -0.0686  0.5536  1.7623
  159SAPE  C22017733   4.396   4.544   4.802  0.3740 -0.4935  0.2018
  159SAPE  H20R17734   4.301   4.487   4.803 -0.0039  0.0817 -0.7837
  159SAPE  H20S17735   4.384   4.643   4.753  3.0574 -1.2518 -2.2764
  159SAPE  H20T17736   4.452   4.564   4.896  1.6798 -1.1965 -0.4022
  159SAPE   C3317737   4.446   4.976   3.531  0.0838  0.2824 -0.2265
  159SAPE   H3X17738   4.349   4.960   3.478  0.8926 -1.0156 -1.3992
  159SAPE   H3Y17739   4.459   5.085   3.549  4.0903 -0.4943  2.8455
  159SAPE   C3417740   4.443   4.910   3.670  0.1806 -0.2794 -0.3577
  159SAPE   H4X17741   4.474   4.804   3.657 -0.2676 -0.1876 -2.4508
  159SAPE   H4Y17742   4.336   4.921   3.699 -0.2382 -0.8212 -1.6499
  159SAPE   C3517743   4.527   4.986   3.778 -0.3313 -0.4550 -0.3492
  159SAPE   H5X17744   4.478   5.084   3.793  1.2409  0.5351 -1.3410
  159SAPE   H5Y17745   4.630   5.011   3.745 -0.6686  2.2730  0.4263
  159SAPE   C3617746   4.522   4.905   3.903 -0.9750  0.2887 -0.5546
  159SAPE   H6X17747   4.602   4.828   3.895 -0.2951  1.0056 -0.8221
  159SAPE   H6Y17748   4.426   4.848   3.902 -1.3949  0.9476  0.4358
  159SAPE   C3717749   4.554   4.984   4.025  0.2373  0.6204 -0.3612
  159SAPE   H7X17750   4.468   5.050   4.049  0.9371  0.4705  3.1302
  159SAPE   H7Y17751   4.645   5.046   4.007 -0.9000  2.2146 -0.8224
  159SAPE   C3817752   4.562   4.883   4.144  0.0916  0.0729 -0.3464
  159SAPE   H8X17753   4.476   4.820   4.175  0.5239 -0.8853 -1.0276
  159SAPE   H8Y17754   4.584   4.942   4.235 -0.2311 -0.0864 -0.1628
  159SAPE   C3917755   4.678   4.781   4.136  0.3065 -0.1109  0.9957
  159SAPE   H9X17756   4.756   4.838   4.082 -1.4311  1.1917 -0.2541
  159SAPE   H9Y17757   4.634   4.701   4.072  0.3435  2.5470 -2.6651
  159SAPE  C31017758   4.716   4.730   4.275  0.5917 -0.6425  0.2402
  159SAPE  H10X17759   4.629   4.698   4.336  0.7400  1.6284  1.7915
  159SAPE  H10Y17760   4.762   4.820   4.322  0.3074  0.9001 -2.2308
  159SAPE  C31117761   4.822   4.624   4.261  0.3278  0.1714  0.1647
  159SAPE  H11X17762   4.905   4.658   4.196  0.5125  2.9967  1.7509
  159SAPE  H11Y17763   4.763   4.538   4.223  0.7098 -0.0164 -0.0023
  159SAPE  C31217764   4.883   4.594   4.399  0.4264 -0.1315  0.3285
  159SAPE  H12X17765   4.803   4.567   4.471  0.4705  0.2901  0.5375
  159SAPE  H12Y17766   4.934   4.681   4.445  1.2223 -1.3523  1.8345
  159SAPE  C31317767   4.987   4.480   4.397  0.2678 -0.2548 -0.1637
  159SAPE  H13X17768   5.072   4.499   4.328 -0.1091 -1.4882 -1.0138
  159SAPE  H13Y17769   4.943   4.382   4.366  0.4400 -0.0057 -1.2388
  159SAPE  C31417770   5.043   4.455   4.536 -0.1181  0.3046 -0.4750
  159SAPE  H14X17771   4.954   4.439   4.601  0.1013  0.5079 -0.1152
  159SAPE  H14Y17772   5.087   4.549   4.576 -0.9469  1.2720 -1.7672
  159SAPE  C31517773   5.154   4.346   4.531  0.8140 -0.2670 -1.0256
  159SAPE  H15X17774   5.235   4.384   4.466  0.9850 -0.8768 -1.1735
  159SAPE  H15Y17775   5.103   4.257   4.487 -1.4069  1.3118 -1.8539
  159SAPE  C31617776   5.219   4.322   4.674 -0.1886  0.1055 -0.5516
  159SAPE  H16X17777   5.131   4.315   4.741  1.2686 -1.2361  1.3604
  159SAPE  H16Y17778   5.278   4.412   4.703 -0.4264 -0.1677  0.8532
  159SAPE  C31717779   5.311   4.201   4.698  0.1040 -0.3864 -0.1933
  159SAPE  H17X17780   5.400   4.207   4.632 -0.6526  1.0528 -1.1325
  159SAPE  H17Y17781   5.258   4.109   4.664  1.4042 -1.2325  0.0017
  159SAPE  C31817782   5.335   4.169   4.852 -0.0803 -0.0911 -0.2994
  159SAPE  H18X17783   5.395   4.255   4.889  0.2608 -0.4942  0.0839
  159SAPE  H18Y17784   5.382   4.073   4.880 -0.9022 -0.1568  0.9113
  159SAPE  H18Z17785   5.235   4.172   4.901 -1.1616  0.5599 -2.4016
  160SAPE     N17786   3.965   2.921   2.224  0.1115 -0.1731  0.2930
  160SAPE   HN117787   3.870   2.892   2.256 -0.0635 -1.8542 -1.4994
  160SAPE   HN217788   4.042   2.876   2.277  0.3307 -0.2155 -0.0552
  160SAPE   HN317789   3.978   3.024   2.230  0.5862 -0.2684  0.9807
  160SAPE   C1217790   3.976   2.877   2.078  0.3750  0.7260 -0.6170
  160SAPE  H12A17791   4.030   2.780   2.078 -1.4260 -0.3323 -0.7514
  160SAPE  H12B17792   4.046   2.951   2.034  0.4900  0.7121 -0.4571
  160SAPE   C1117793   3.846   2.867   1.998 -0.0248 -0.6892  0.9629
  160SAPE  H11A17794   3.802   2.769   2.025  2.2831 -2.5875 -1.6611
  160SAPE  H11B17795   3.856   2.849   1.889 -2.1767  0.1975  0.5662
  160SAPE     P17796   3.610   2.936   2.107 -0.1673 -0.2136  0.0886
  160SAPE   O1317797   3.535   3.064   2.134  0.1290 -0.1989  0.5915
  160SAPE   O1417798   3.531   2.844   2.023 -0.6849  0.0011 -0.5110
  160SAPE   O1217799   3.743   2.968   2.027 -0.4257 -0.2632 -0.7561
  160SAPE   O1117800   3.668   2.872   2.237 -0.4771  0.1865 -0.2293
  160SAPE    C117801   3.579   2.817   2.333 -0.7458  0.0859 -0.0620
  160SAPE    HA17802   3.481   2.784   2.292 -1.5025  0.3816  1.4222
  160SAPE    HB17803   3.612   2.719   2.374 -0.7177 -1.8351 -4.2042
  160SAPE    C217804   3.545   2.934   2.434  0.7887 -0.3177  0.0023
  160SAPE    HS17805   3.475   3.001   2.379 -1.8321 -2.1339  0.9038
  160SAPE   O2117806   3.668   2.990   2.479  0.5459 -0.2707 -0.2141
  160SAPE   C2117807   3.644   3.103   2.543  0.2623  0.1820  0.0112
  160SAPE   O2217808   3.542   3.172   2.539  0.2201 -0.3571 -0.2424
  160SAPE   C2217809   3.763   3.146   2.621 -0.7783  0.4223  0.2642
  160SAPE   H2R17810   3.823   3.055   2.645 -0.8711  0.4855  0.7501
  160SAPE   H2S17811   3.818   3.207   2.547  0.4375 -1.8607 -0.8368
  160SAPE    C317812   3.466   2.873   2.549 -0.7672  0.1550 -0.2668
  160SAPE    HX17813   3.534   2.817   2.617 -1.3921  1.5333  1.5890
  160SAPE    HY17814   3.396   2.800   2.504 -0.1155  0.6502 -2.1587
  160SAPE   O3117815   3.403   2.962   2.639 -0.0822 -0.0872  0.8762
  160SAPE   C3117816   3.292   3.028   2.604  0.7219  0.0040 -0.0361
  160SAPE   O3217817   3.231   3.028   2.498 -0.1938 -0.5347 -0.2563
  160SAPE   C3217818   3.265   3.114   2.725  0.2760 -0.2521 -0.1896
  160SAPE   H2X17819   3.335   3.199   2.712 -0.6162  0.1865 -2.7758
  160SAPE   H2Y17820   3.281   3.045   2.810 -1.0296 -1.6468 -1.0172
  160SAPE   C2317821   3.724   3.225   2.746 -0.2935 -0.3760 -0.6983
  160SAPE   H3R17822   3.705   3.162   2.836 -2.4390 -2.1281 -2.2490
  160SAPE   H3S17823   3.622   3.270   2.743  0.3156  0.9989 -2.2146
  160SAPE   C2417824   3.825   3.347   2.754  0.2076 -0.5080 -0.6921
  160SAPE   H4R17825   3.818   3.419   2.671  1.9234  1.0826  0.4599
  160SAPE   H4S17826   3.929   3.308   2.754  0.7906  0.9246 -2.9106
  160SAPE   C2517827   3.798   3.419   2.888 -0.5261  0.1029 -0.2968
  160SAPE   H5R17828   3.744   3.513   2.870  0.6658  1.3098  2.0392
  160SAPE   C2617829   3.839   3.384   3.012  0.1159 -0.3375 -0.0477
  160SAPE   H6R17830   3.821   3.455   3.093 -1.7185 -1.7686  0.8792
  160SAPE   C2717831   3.929   3.266   3.052  0.3150 -0.3943  0.3760
  160SAPE   H7R17832   4.007   3.296   3.125 -1.4545  0.8686  1.8435
  160SAPE   H7S17833   3.980   3.218   2.967 -3.1390 -3.6640 -0.1458
  160SAPE   C2817834   3.850   3.153   3.107  0.5669  0.9175  0.2219
  160SAPE   H8R17835   3.810   3.086   3.030 -0.1909  0.5858  0.8827
  160SAPE   C2917836   3.827   3.127   3.234 -0.4095 -0.1327 -0.3495
  160SAPE   H9R17837   3.759   3.042   3.249  1.2238 -1.3455  0.5671
  160SAPE  C21017838   3.867   3.203   3.364 -0.6806 -0.6793  0.3428
  160SAPE  H10R17839   3.777   3.239   3.419 -0.5399 -1.2194  0.9396
  160SAPE  H10S17840   3.928   3.289   3.330 -0.7128 -1.3534 -1.5149
  160SAPE  C21117841   3.957   3.121   3.453 -1.2427  0.0727  0.4018
  160SAPE  H11R17842   4.058   3.100   3.417 -1.0115 -0.0020  1.0696
  160SAPE  C21217843   3.931   3.087   3.584  0.1689 -0.4444  0.4165
  160SAPE  H12R17844   4.014   3.038   3.637  0.6958  1.6974  1.7372
  160SAPE  C21317845   3.814   3.124   3.668  0.1005 -0.4857 -0.7464
  160SAPE  H13R17846   3.789   3.229   3.642  0.9618  0.1213  0.7664
  160SAPE  H13S17847   3.834   3.123   3.777  2.4671 -2.4936 -1.1068
  160SAPE  C21417848   3.702   3.028   3.647 -0.3264  0.0639 -0.2448
  160SAPE  H14R17849   3.718   2.928   3.691 -4.2693 -1.0314 -0.9355
  160SAPE  C21517850   3.574   3.052   3.594 -0.0241 -0.3019  0.5325
  160SAPE  H15R17851   3.498   2.973   3.589  0.7606 -1.0130 -0.6035
  160SAPE  C21617852   3.528   3.186   3.539 -0.1088  0.3013  0.8546
  160SAPE  H16R17853   3.476   3.170   3.442  0.7761  0.3647  0.3611
  160SAPE  H16S17854   3.604   3.264   3.520 -0.8594  0.4924 -1.7316
  160SAPE  C21717855   3.417   3.244   3.637 -0.4923  0.3103  0.7014
  160SAPE  H17R17856   3.333   3.173   3.652 -1.3774  0.7554 -1.6816
  160SAPE  H17S17857   3.361   3.326   3.588  0.5912 -0.3973 -1.9102
  160SAPE  C21817858   3.488   3.289   3.766  0.4427  0.0455  0.0115
  160SAPE  H18R17859   3.594   3.316   3.748  0.4990 -0.9155 -1.2265
  160SAPE  H18S17860   3.485   3.199   3.830 -3.6191 -0.4118 -0.5336
  160SAPE  C21917861   3.415   3.389   3.859  0.2376 -0.2544 -0.0429
  160SAPE  H19R17862   3.313   3.406   3.819  0.8723  1.4102 -1.1005
  160SAPE  H19S17863   3.461   3.490   3.867 -0.7514  0.1476  1.0424
  160SAPE  C22017864   3.389   3.342   3.999 -0.4433 -0.3500 -0.8370
  160SAPE  H20R17865   3.308   3.405   4.040 -0.0972 -1.0506  1.0208
  160SAPE  H20S17866   3.483   3.342   4.059  0.7401  2.4199 -2.4757
  160SAPE  H20T17867   3.340   3.243   4.004 -0.7115 -0.1761  0.2445
  160SAPE   C3317868   3.121   3.183   2.728  0.6434  0.3260  0.8820
  160SAPE   H3X17869   3.041   3.107   2.743 -1.6356  2.7333  1.8995
  160SAPE   H3Y17870   3.105   3.226   2.626  2.4963  0.6158  0.6884
  160SAPE   C3417871   3.111   3.280   2.838  0.7020  0.1634 -0.6910
  160SAPE   H4X17872   3.187   3.361   2.841 -0.2770  1.0710  1.7477
  160SAPE   H4Y17873   3.141   3.227   2.931  2.5125  4.6955  1.6108
  160SAPE   C3517874   2.974   3.340   2.848  0.3294  0.5532  0.7226
  160SAPE   H5X17875   2.889   3.272   2.826  2.2012 -1.0345 -2.4058
  160SAPE   H5Y17876   2.969   3.416   2.768 -0.7440 -0.1997  0.0483
  160SAPE   C3617877   2.952   3.415   2.978  1.0056 -0.3894 -0.1532
  160SAPE   H6X17878   2.871   3.489   2.962 -0.9714 -2.4963 -0.3936
  160SAPE   H6Y17879   3.042   3.476   3.002 -0.0087  1.0299  0.1408
  160SAPE   C3717880   2.922   3.317   3.099 -0.3495  0.2279 -0.0905
  160SAPE   H7X17881   3.014   3.257   3.104 -1.4534 -1.4006  2.7419
  160SAPE   H7Y17882   2.837   3.253   3.066  1.1291 -2.1356  0.5171
  160SAPE   C3817883   2.909   3.382   3.237  0.0727 -0.4527  0.6789
  160SAPE   H8X17884   2.853   3.334   3.320 -1.2453  2.3445  1.5489
  160SAPE   H8Y17885   2.843   3.469   3.214 -1.6508 -2.3553 -2.3355
  160SAPE   C3917886   3.040   3.448   3.304 -0.2239  0.3771  0.4397
  160SAPE   H9X17887   3.078   3.519   3.227 -0.8830 -1.4865 -1.7048
  160SAPE   H9Y17888   3.111   3.365   3.323 -1.9406 -0.8461  1.8658
  160SAPE  C31017889   3.007   3.521   3.430 -0.5409  0.5347  0.1918
  160SAPE  H10X17890   2.986   3.442   3.506  0.4090 -1.0383 -1.1055
  160SAPE  H10Y17891   2.919   3.587   3.416 -0.2283  1.1121  0.8627
  160SAPE  C31117892   3.130   3.611   3.485  0.4641  0.4816 -0.5305
  160SAPE  H11X17893   3.168   3.671   3.399 -0.7354 -0.4087 -1.7306
  160SAPE  H11Y17894   3.213   3.546   3.518  0.5545 -0.0242 -1.6982
  160SAPE  C31217895   3.087   3.703   3.592  0.1037 -0.2200 -0.4851
  160SAPE  H12X17896   3.007   3.653   3.651 -0.4166 -0.4201 -1.3385
  160SAPE  H12Y17897   3.036   3.791   3.547  1.8636  0.2788 -1.5987
  160SAPE  C31317898   3.200   3.746   3.679  0.4100 -0.5504  0.8524
  160SAPE  H13X17899   3.264   3.669   3.726  2.0925 -1.8740 -3.1713
  160SAPE  H13Y17900   3.162   3.817   3.756 -1.6086  0.4056 -0.9026
  160SAPE  C31417901   3.292   3.844   3.594 -0.4731 -0.2440  0.2451
  160SAPE  H14X17902   3.221   3.915   3.546 -0.9067 -0.3490  0.7198
  160SAPE  H14Y17903   3.346   3.802   3.507 -2.1093 -1.3683 -0.2904
  160SAPE  C31517904   3.396   3.917   3.683  0.3172 -0.0418  0.3020
  160SAPE  H15X17905   3.364   3.912   3.789  1.5171  1.2743  0.7610
  160SAPE  H15Y17906   3.401   4.025   3.657  1.0079 -0.6403 -2.4253
  160SAPE  C31617907   3.534   3.860   3.656 -0.2691  0.3747 -0.4350
  160SAPE  H16X17908   3.609   3.932   3.695  0.0080  0.9278 -1.8977
  160SAPE  H16Y17909   3.551   3.855   3.546  0.3797 -1.0746 -0.2857
  160SAPE  C31717910   3.565   3.722   3.718  0.4287 -0.2159 -0.2001
  160SAPE  H17X17911   3.505   3.649   3.661 -1.0354  1.2201 -0.5480
  160SAPE  H17Y17912   3.542   3.726   3.827  2.0920 -0.1655  0.1789
  160SAPE  C31817913   3.716   3.684   3.696  0.7771 -0.6255 -0.4621
  160SAPE  H18X17914   3.752   3.611   3.771  1.5278 -0.4430 -0.6383
  160SAPE  H18Y17915   3.780   3.775   3.702 -0.8820  0.5793 -0.0661
  160SAPE  H18Z17916   3.735   3.640   3.596  0.0796 -1.0067 -0.4305
  161SAPE     N17917   2.932   5.321   2.375  0.2329  0.2636  0.2445
  161SAPE   HN117918   2.960   5.230   2.333 -0.6244  0.3768 -0.6152
  161SAPE   HN217919   2.839   5.346   2.336  1.3462  2.7977 -0.9785
  161SAPE   HN317920   2.999   5.388   2.333  2.1042 -1.2681  0.6567
  161SAPE   C1217921   2.926   5.321   2.526  0.3534  0.1911  0.4583
  161SAPE  H12A17922   2.867   5.231   2.552 -1.1474  0.9226 -0.2762
  161SAPE  H12B17923   2.866   5.409   2.556 -1.0216 -0.9504  1.1745
  161SAPE   C1117924   3.065   5.316   2.591 -0.4503 -0.2160 -0.1123
  161SAPE  H11A17925   3.056   5.319   2.702  1.9315 -1.6518  0.1940
  161SAPE  H11B17926   3.124   5.408   2.574 -2.0120  0.9336  0.4226
  161SAPE     P17927   3.270   5.172   2.484 -0.1870 -0.3028 -0.3914
  161SAPE   O1317928   3.265   5.050   2.400  0.5737 -0.0044 -0.0186
  161SAPE   O1417929   3.318   5.293   2.418  0.3827 -0.1255  0.0027
  161SAPE   O1217930   3.138   5.196   2.568  0.4865 -0.2702 -0.0425
  161SAPE   O1117931   3.360   5.156   2.606 -0.5642  0.0754  1.0267
  161SAPE    C117932   3.349   5.054   2.709  0.1521 -0.2519  0.3299
  161SAPE    HA17933   3.274   4.979   2.674  0.2880 -0.7701  1.1181
  161SAPE    HB17934   3.443   4.995   2.718 -0.9271 -2.4493 -1.7920
  161SAPE    C217935   3.314   5.110   2.845 -0.0225 -0.7227 -0.2429
  161SAPE    HS17936   3.217   5.165   2.841 -0.3602 -1.3203 -0.3705
  161SAPE   O2117937   3.419   5.192   2.888 -0.5245  0.1766 -0.3795
  161SAPE   C2117938   3.388   5.296   2.967 -0.6520  0.1211 -0.0205
  161SAPE   O2217939   3.274   5.335   2.992  0.0396 -0.4079  0.2769
  161SAPE   C2217940   3.517   5.365   3.015  0.4581  0.7987  0.2430
  161SAPE   H2R17941   3.595   5.290   3.042  1.1383  1.6953  0.8294
  161SAPE   H2S17942   3.547   5.430   2.930 -0.4972  0.3473 -0.4579
  161SAPE    C317943   3.295   4.989   2.945 -1.0763 -0.1974  0.5856
  161SAPE    HX17944   3.390   4.932   2.950 -1.0892 -0.3622 -0.6366
  161SAPE    HY17945   3.223   4.926   2.887  0.4163  0.1338 -1.7851
  161SAPE   O3117946   3.251   5.025   3.078  0.6611 -0.4530  0.0679
  161SAPE   C3117947   3.132   5.069   3.091  0.1958 -0.3442  0.4625
  161SAPE   O3217948   3.048   5.069   3.000  0.6106  0.8451 -0.8182
  161SAPE   C3217949   3.109   5.129   3.228 -0.3092  0.5299  1.3245
  161SAPE   H2X17950   3.156   5.230   3.225  0.6630  0.0633 -0.4906
  161SAPE   H2Y17951   3.165   5.073   3.305 -0.2670  0.7162  1.4282
  161SAPE   C2317952   3.500   5.459   3.133  0.1925  0.2101 -0.7149
  161SAPE   H3R17953   3.436   5.548   3.115 -0.5071  0.1697  1.3167
  161SAPE   H3S17954   3.601   5.497   3.160  0.7718 -0.4807 -1.8586
  161SAPE   C2417955   3.449   5.376   3.261 -0.4545  0.2618 -0.3891
  161SAPE   H4R17956   3.359   5.318   3.234 -0.8563  0.5282  0.3488
  161SAPE   H4S17957   3.423   5.448   3.341  0.5603 -0.2664  0.4408
  161SAPE   C2517958   3.566   5.286   3.307  0.2027  0.1861  0.1916
  161SAPE   H5R17959   3.624   5.242   3.225  0.2902 -0.5149  0.6240
  161SAPE   C2617960   3.604   5.272   3.437  0.2256  0.6689  0.4416
  161SAPE   H6R17961   3.677   5.191   3.451 -0.4931 -0.4674 -1.8339
  161SAPE   C2717962   3.536   5.331   3.558 -0.2561  0.2515 -0.2184
  161SAPE   H7R17963   3.526   5.254   3.637  1.7053 -1.8127 -1.8667
  161SAPE   H7S17964   3.428   5.347   3.536 -0.5165 -0.7870  0.2672
  161SAPE   C2817965   3.587   5.463   3.615 -0.3202 -0.0245 -0.4903
  161SAPE   H8R17966   3.606   5.543   3.542  0.8324  0.7370  0.6019
  161SAPE   C2917967   3.618   5.501   3.741 -0.1515  0.1380 -0.0748
  161SAPE   H9R17968   3.667   5.597   3.764 -3.7592  1.7305  1.7956
  161SAPE  C21017969   3.599   5.404   3.860 -0.4068 -0.4065 -0.1511
  161SAPE  H10R17970   3.694   5.355   3.889 -0.9970 -0.4229  1.8790
  161SAPE  H10S17971   3.517   5.331   3.841 -0.3806 -0.1304 -1.3954
  161SAPE  C21117972   3.553   5.496   3.975  0.4504  0.3824  0.3515
  161SAPE  H11R17973   3.450   5.532   3.963  0.7292  1.3332  0.6543
  161SAPE  C21217974   3.626   5.554   4.075 -0.7356 -0.4003  0.0292
  161SAPE  H12R17975   3.578   5.615   4.153  1.8680  2.6990 -0.5850
  161SAPE  C21317976   3.766   5.514   4.119  0.3232 -0.6531  0.2471
  161SAPE  H13R17977   3.768   5.403   4.123  0.5602 -0.8006 -2.5123
  161SAPE  H13S17978   3.784   5.559   4.220  3.3103  2.4769 -1.4631
  161SAPE  C21417979   3.877   5.538   4.022 -0.3267 -0.2614 -0.4624
  161SAPE  H14R17980   3.841   5.528   3.919 -1.2874 -0.6955 -0.0950
  161SAPE  C21517981   4.004   5.589   4.036 -0.0150 -0.2399 -0.2518
  161SAPE  H15R17982   4.066   5.603   3.946 -1.0579  1.4930 -0.7419
  161SAPE  C21617983   4.071   5.615   4.168 -0.2337  0.0722 -0.1793
  161SAPE  H16R17984   3.995   5.597   4.247 -1.3363  1.6334 -0.8282
  161SAPE  H16S17985   4.105   5.719   4.182 -0.3787  0.0785  0.1405
  161SAPE  C21717986   4.191   5.513   4.187  0.2844  0.3698 -0.6021
  161SAPE  H17R17987   4.258   5.512   4.098  0.5357 -0.0404 -0.4125
  161SAPE  H17S17988   4.142   5.413   4.187 -0.2889  0.6003  1.7156
  161SAPE  C21817989   4.264   5.537   4.318 -0.7994  0.4760 -0.0997
  161SAPE  H18R17990   4.208   5.506   4.409  0.2494 -1.3754 -0.0318
  161SAPE  H18S17991   4.285   5.646   4.322 -0.8258  0.4616  0.5275
  161SAPE  C21917992   4.401   5.473   4.318 -0.0682  0.2517 -0.3944
  161SAPE  H19R17993   4.445   5.501   4.417 -1.2668 -0.0742  0.2480
  161SAPE  H19S17994   4.466   5.517   4.240  0.0914 -1.2112 -1.1164
  161SAPE  C22017995   4.394   5.320   4.290 -0.2664  0.1384 -0.0212
  161SAPE  H20R17996   4.395   5.279   4.187  1.0328  1.2248 -0.4550
  161SAPE  H20S17997   4.303   5.279   4.341  1.3018 -0.9712  2.0616
  161SAPE  H20T17998   4.480   5.270   4.340 -1.0258 -1.1488  0.0501
  161SAPE   C3317999   2.957   5.141   3.268  0.2036  0.5580 -0.2779
  161SAPE   H3X18000   2.927   5.039   3.298  0.0404  0.9842  1.0913
  161SAPE   H3Y18001   2.895   5.179   3.183  0.8112 -0.2973 -1.1246
  161SAPE   C3418002   2.928   5.237   3.378  0.0062 -0.2072 -0.7679
  161SAPE   H4X18003   2.829   5.212   3.422  0.5467 -0.7078  0.2038
  161SAPE   H4Y18004   2.907   5.336   3.334 -1.1121 -0.5189 -0.9788
  161SAPE   C3518005   3.030   5.234   3.492 -0.1940  0.3093  0.2403
  161SAPE   H5X18006   3.129   5.259   3.447 -0.3275 -0.5928 -0.5637
  161SAPE   H5Y18007   3.042   5.133   3.536 -0.4399  0.6879  1.2078
  161SAPE   C3618008   2.991   5.333   3.608 -0.8855  0.0827  0.5073
  161SAPE   H6X18009   2.976   5.438   3.576 -0.9364 -0.3573 -1.0197
  161SAPE   H6Y18010   3.085   5.337   3.666 -2.3670  2.3335  3.0002
  161SAPE   C3718011   2.887   5.281   3.700 -0.1443  0.6241 -0.0362
  161SAPE   H7X18012   2.888   5.170   3.692 -1.8359  0.4754  1.1540
  161SAPE   H7Y18013   2.786   5.322   3.678 -0.0278 -0.2819 -2.7255
  161SAPE   C3818014   2.918   5.324   3.842 -0.5435  0.2938 -0.6597
  161SAPE   H8X18015   2.918   5.435   3.851 -0.0766  0.3781 -1.5691
  161SAPE   H8Y18016   3.018   5.282   3.867 -0.5985  0.2130 -0.5753
  161SAPE   C3918017   2.815   5.264   3.940 -0.0595  0.3421 -0.0903
  161SAPE   H9X18018   2.800   5.156   3.919 -0.2827  0.4204 -0.3526
  161SAPE   H9Y18019   2.721   5.313   3.905 -0.1044 -0.8686 -1.7970
  161SAPE  C31018020   2.855   5.295   4.089  0.1838 -0.1323 -0.3651
  161SAPE  H10X18021   2.770   5.256   4.149  1.1184 -1.7702 -0.0408
  161SAPE  H10Y18022   2.848   5.405   4.098  1.9858 -0.1294  2.1144
  161SAPE  C31118023   2.985   5.248   4.153 -0.2720  0.6262  0.3597
  161SAPE  H11X18024   2.998   5.263   4.262 -0.8611  1.2923  0.3458
  161SAPE  H11Y18025   3.071   5.291   4.097  0.7829 -2.7477 -0.8299
  161SAPE  C31218026   2.993   5.096   4.123 -0.0480 -0.5314  0.1377
  161SAPE  H12X18027   2.955   5.069   4.022 -0.9708 -0.5245  0.4738
  161SAPE  H12Y18028   2.927   5.045   4.197  1.2138  0.3043  1.9084
  161SAPE  C31318029   3.145   5.059   4.144  0.4091  0.2784  1.1778
  161SAPE  H13X18030   3.207   5.115   4.070  0.1091  0.1416  0.8189
  161SAPE  H13Y18031   3.148   4.951   4.120  1.3014  0.3788  0.8093
  161SAPE  C31418032   3.204   5.062   4.286 -0.5986 -0.1069 -0.3324
  161SAPE  H14X18033   3.130   5.008   4.349  1.8448 -2.3461  0.7803
  161SAPE  H14Y18034   3.210   5.171   4.305 -0.8620 -0.0999 -0.2794
  161SAPE  C31518035   3.352   5.009   4.302  0.9022  0.7896 -0.3427
  161SAPE  H15X18036   3.349   4.902   4.271 -2.7165  0.4789  0.5844
  161SAPE  H15Y18037   3.372   5.017   4.410 -0.8984  2.0225 -0.0402
  161SAPE  C31618038   3.447   5.088   4.220  0.2199 -0.7054 -0.1398
  161SAPE  H16X18039   3.444   5.194   4.252 -0.6696 -0.7049 -0.2072
  161SAPE  H16Y18040   3.422   5.100   4.112 -0.7559  2.6200  0.3318
  161SAPE  C31718041   3.594   5.037   4.233  0.6577 -0.0863 -0.1667
  161SAPE  H17X18042   3.585   4.932   4.200  3.5635 -1.3551  2.5595
  161SAPE  H17Y18043   3.621   5.042   4.341  0.7360  1.2554 -0.2300
  161SAPE  C31818044   3.704   5.110   4.153 -0.1467 -0.1525  0.2552
  161SAPE  H18X18045   3.793   5.147   4.209  1.0703  0.2393 -1.8314
  161SAPE  H18Y18046   3.660   5.199   4.102  0.7397  1.8640  2.7662
  161SAPE  H18Z18047   3.745   5.036   4.081  0.6421 -1.1131  1.6537
  162SAPE     N18048   1.090   1.905   1.856 -0.5960 -0.0241 -0.6136
  162SAPE   HN118049   1.172   1.956   1.892  0.8776 -0.1019 -3.5417
  162SAPE   HN218050   1.109   1.807   1.886 -1.2345  0.2493  0.7432
  162SAPE   HN318051   1.088   1.908   1.752  0.0197 -3.9311 -0.9070
  162SAPE   C1218052   0.979   1.987   1.908  0.4756 -0.1841 -0.6481
  162SAPE  H12A18053   0.928   2.032   1.821  0.0164 -2.2044 -1.4887
  162SAPE  H12B18054   1.034   2.065   1.966  2.9931 -1.9301 -0.5254
  162SAPE   C1118055   0.874   1.909   1.988 -0.5538 -0.1719  0.4110
  162SAPE  H11A18056   0.807   1.980   2.039 -2.2320 -1.8658  0.6890
  162SAPE  H11B18057   0.925   1.864   2.076  0.7099  0.5942  0.1066
  162SAPE     P18058   0.681   1.737   1.973 -0.2052 -0.6019 -0.1850
  162SAPE   O1318059   0.557   1.801   1.936  0.4937  0.3155  0.3436
  162SAPE   O1418060   0.690   1.597   1.928  0.5811 -0.6375 -0.2973
  162SAPE   O1218061   0.796   1.824   1.906  0.2440  0.1701  0.9023
  162SAPE   O1118062   0.706   1.752   2.132  0.5991 -0.1193 -0.2776
  162SAPE    C118063   0.716   1.632   2.218 -1.0641  0.1133  0.2111
  162SAPE    HA18064   0.779   1.550   2.175  0.2743 -0.0497  2.3068
  162SAPE    HB18065   0.761   1.665   2.314 -0.1229 -0.1913 -0.1073
  162SAPE    C218066   0.572   1.576   2.238 -0.0181 -0.4688 -0.3700
  162SAPE    HS18067   0.530   1.532   2.145  0.4858 -1.9763  0.0841
  162SAPE   O2118068   0.490   1.696   2.286 -0.2568  0.1889 -0.1835
  162SAPE   C2118069   0.365   1.690   2.273 -0.3948  0.3353 -0.1653
  162SAPE   O2218070   0.295   1.600   2.224  0.1578  0.3130  0.2125
  162SAPE   C2218071   0.309   1.818   2.335 -0.7693  0.2129  0.1890
  162SAPE   H2R18072   0.388   1.890   2.366 -1.5319  0.9060  0.5597
  162SAPE   H2S18073   0.257   1.879   2.257 -0.4340  0.0349 -0.1813
  162SAPE    C318074   0.593   1.472   2.348 -0.4439  0.8870 -0.1332
  162SAPE    HX18075   0.654   1.388   2.309 -0.2760  0.9114  0.0772
  162SAPE    HY18076   0.492   1.426   2.357 -1.2779  2.5814 -0.2736
  162SAPE   O3118077   0.645   1.529   2.470  0.3263 -0.3361 -0.4971
  162SAPE   C3118078   0.549   1.563   2.559  0.5437 -0.1677 -0.2981
  162SAPE   O3218079   0.431   1.534   2.546 -0.2591 -0.0670  0.0918
  162SAPE   C3218080   0.597   1.655   2.676 -0.4474 -0.9331  0.0273
  162SAPE   H2X18081   0.678   1.716   2.630 -0.2105 -1.2705 -0.0102
  162SAPE   H2Y18082   0.642   1.589   2.753 -1.0348 -0.2991  0.9312
  162SAPE   C2318083   0.206   1.798   2.447 -0.3981  0.6962  0.0972
  162SAPE   H3R18084   0.262   1.745   2.527  0.9059 -0.8175 -1.7429
  162SAPE   H3S18085   0.131   1.723   2.416 -1.7172  0.6113  3.1363
  162SAPE   C2418086   0.142   1.919   2.508  0.3250  0.0194  0.4402
  162SAPE   H4R18087   0.087   1.974   2.428  1.0417 -0.1133 -0.1589
  162SAPE   H4S18088   0.228   1.982   2.538 -0.2111  0.7022  0.5711
  162SAPE   C2518089   0.050   1.885   2.622  0.7480 -1.2340 -0.5959
  162SAPE   H5R18090  -0.009   1.793   2.609 -2.3320  0.1819  1.9702
  162SAPE   C2618091   0.048   1.938   2.747 -0.7399 -0.6726  1.0933
  162SAPE   H6R18092  -0.031   1.898   2.813 -0.8328 -0.2547  1.2338
  162SAPE   C2718093   0.117   2.059   2.804  0.1216 -0.4189  0.6161
  162SAPE   H7R18094   0.151   2.119   2.717 -1.0477 -1.2913 -0.4852
  162SAPE   H7S18095   0.202   2.026   2.868  0.9586 -0.4436 -0.4765
  162SAPE   C2818096   0.019   2.149   2.882 -0.3629  0.3784 -0.3791
  162SAPE   H8R18097  -0.043   2.211   2.815 -0.4558 -0.5727 -1.1994
  162SAPE   C2918098   0.007   2.158   3.021 -0.1145 -0.3469  0.6141
  162SAPE   H9R18099  -0.055   2.238   3.063 -1.0022 -0.5288 -0.2950
  162SAPE  C21018100   0.084   2.088   3.125 -0.1485  0.9359 -0.0012
  162SAPE  H10R18101   0.093   2.169   3.200 -0.6775  0.6159  0.4209
  162SAPE  H10S18102   0.180   2.056   3.081 -0.7277  0.3967 -0.9096
  162SAPE  C21118103   0.008   1.964   3.176 -0.0104  0.6337 -0.0965
  162SAPE  H11R18104   0.004   1.873   3.114  0.2415  0.0157  0.7694
  162SAPE  C21218105  -0.059   1.952   3.293  0.3311  0.3141  0.4578
  162SAPE  H12R18106  -0.106   1.853   3.300  1.5778 -0.2605  1.1424
  162SAPE  C21318107  -0.074   2.044   3.408 -0.4448 -0.8114  0.0758
  162SAPE  H13R18108  -0.176   2.087   3.399  0.9872  2.9283 -0.0303
  162SAPE  H13S18109  -0.008   2.134   3.401 -1.0712 -0.2932  0.6682
  162SAPE  C21418110  -0.065   1.978   3.547 -0.4523  0.1829 -0.0414
  162SAPE  H14R18111  -0.112   1.879   3.560  2.8932 -1.2634  2.7897
  162SAPE  C21518112  -0.018   2.023   3.663  0.0634 -0.0056 -0.1516
  162SAPE  H15R18113  -0.057   1.977   3.755 -1.7581  0.6974 -0.5219
  162SAPE  C21618114   0.069   2.143   3.675  0.3016 -0.3576 -0.1366
  162SAPE  H16R18115   0.113   2.173   3.577  0.2873  1.1345  0.2848
  162SAPE  H16S18116   0.157   2.122   3.739  1.9025  1.7655 -1.4544
  162SAPE  C21718117  -0.001   2.266   3.745 -0.0287  0.4121 -0.1982
  162SAPE  H17R18118   0.082   2.339   3.750  2.8458 -2.5358 -1.2057
  162SAPE  H17S18119  -0.026   2.252   3.852  1.1567  1.1936  0.1985
  162SAPE  C21818120  -0.123   2.323   3.670  0.1857 -0.2732 -0.4575
  162SAPE  H18R18121  -0.188   2.235   3.654  1.3066 -1.5261  1.5842
  162SAPE  H18S18122  -0.092   2.367   3.572  2.4253  1.6692  1.0154
  162SAPE  C21918123  -0.195   2.435   3.752  0.2748  0.0412 -0.3010
  162SAPE  H19R18124  -0.119   2.504   3.794 -0.4303 -0.8897  2.6906
  162SAPE  H19S18125  -0.247   2.388   3.838  0.6404  2.2901  1.2458
  162SAPE  C22018126  -0.300   2.521   3.676  0.5603 -0.2205  0.1216
  162SAPE  H20R18127  -0.310   2.618   3.730  1.4148  0.6792 -1.2711
  162SAPE  H20S18128  -0.394   2.463   3.677  1.2126 -1.3076 -0.0122
  162SAPE  H20T18129  -0.275   2.534   3.569  2.6301 -1.9501  0.3217
  162SAPE   C3318130   0.482   1.748   2.736 -0.2108  0.1966  0.1448
  162SAPE   H3X18131   0.430   1.809   2.659  0.9269 -1.0137 -1.6685
  162SAPE   H3Y18132   0.541   1.818   2.800  1.0604 -1.1918  0.5621
  162SAPE   C3418133   0.379   1.662   2.816 -0.2462  0.0700 -0.5426
  162SAPE   H4X18134   0.445   1.583   2.859  0.0531 -0.3297 -1.7127
  162SAPE   H4Y18135   0.303   1.611   2.753  1.5419  1.2061 -3.8706
  162SAPE   C3518136   0.328   1.745   2.932  0.7755 -0.3008  0.1984
  162SAPE   H5X18137   0.221   1.723   2.952  0.4422 -0.0950 -1.2497
  162SAPE   H5Y18138   0.319   1.849   2.893  4.3366 -0.6619 -2.1278
  162SAPE   C3618139   0.423   1.744   3.048  0.6488  0.2830  0.1970
  162SAPE   H6X18140   0.523   1.767   3.005  0.3020  2.2424  0.3226
  162SAPE   H6Y18141   0.434   1.641   3.087 -0.4656 -0.2166 -0.7417
  162SAPE   C3718142   0.382   1.839   3.162 -0.6224 -0.2331 -0.7960
  162SAPE   H7X18143   0.293   1.796   3.213 -0.4733 -1.3007 -1.3912
  162SAPE   H7Y18144   0.356   1.935   3.112 -3.0070 -0.8814 -0.9320
  162SAPE   C3818145   0.493   1.854   3.263 -0.7676  0.5279 -0.7213
  162SAPE   H8X18146   0.584   1.891   3.210 -0.3785 -1.2296 -1.3564
  162SAPE   H8Y18147   0.516   1.751   3.299  0.0827 -0.4752 -3.7725
  162SAPE   C3918148   0.460   1.936   3.387 -0.8177  0.1925 -0.0360
  162SAPE   H9X18149   0.417   2.036   3.366 -1.2207 -0.1576 -0.8889
  162SAPE   H9Y18150   0.554   1.960   3.441  0.0180 -1.3476 -0.7344
  162SAPE  C31018151   0.358   1.868   3.475  0.1351  0.1282  0.0142
  162SAPE  H10X18152   0.386   1.761   3.484  0.1992 -0.3312 -3.6992
  162SAPE  H10Y18153   0.265   1.869   3.413  1.8778 -1.6735 -2.9301
  162SAPE  C31118154   0.342   1.931   3.617 -0.8752 -0.1022 -0.1548
  162SAPE  H11X18155   0.251   1.880   3.657 -0.5672 -2.9186 -2.6319
  162SAPE  H11Y18156   0.311   2.038   3.619 -0.1992  0.0887  1.7152
  162SAPE  C31218157   0.460   1.925   3.714 -0.6281 -0.2372  0.2578
  162SAPE  H12X18158   0.543   1.980   3.665 -2.5893  0.3424 -2.6660
  162SAPE  H12Y18159   0.496   1.821   3.729  0.7173  0.3328  1.2056
  162SAPE  C31318160   0.413   1.974   3.856  0.0007  0.2450  0.5882
  162SAPE  H13X18161   0.313   1.929   3.872 -1.5677  2.1710 -2.6150
  162SAPE  H13Y18162   0.401   2.084   3.858  1.6865  0.4506  0.9999
  162SAPE  C31418163   0.521   1.934   3.958 -0.3826 -0.3439 -0.3486
  162SAPE  H14X18164   0.611   1.994   3.936 -0.4037  0.0964  0.7189
  162SAPE  H14Y18165   0.550   1.827   3.949  0.4425 -0.2417  0.9004
  162SAPE  C31518166   0.475   1.971   4.101  1.1422  0.1077 -0.5821
  162SAPE  H15X18167   0.535   1.924   4.182 -1.6596 -0.6927  1.1748
  162SAPE  H15Y18168   0.373   1.932   4.122  2.1622 -2.2704  0.3076
  162SAPE  C31618169   0.470   2.128   4.130 -0.0725  0.3255  0.1918
  162SAPE  H16X18170   0.392   2.173   4.065  0.1545  0.0387 -0.2882
  162SAPE  H16Y18171   0.568   2.176   4.107  0.0412 -0.4900 -1.1690
  162SAPE  C31718172   0.442   2.171   4.273 -0.0571  0.3443 -0.4606
  162SAPE  H17X18173   0.512   2.136   4.352 -0.7584 -0.1799 -0.0637
  162SAPE  H17Y18174   0.338   2.137   4.292 -0.5160  1.0939 -1.5352
  162SAPE  C31818175   0.432   2.328   4.290 -0.1207  0.5712  0.0991
  162SAPE  H18X18176   0.499   2.366   4.211  0.8469 -1.4961 -0.1475
  162SAPE  H18Y18177   0.474   2.361   4.388  1.4274  1.0262 -0.6955
  162SAPE  H18Z18178   0.324   2.353   4.284 -0.0923  1.0132  1.1215
  163SAPE     N18179   1.142   6.775   2.293 -0.1072  0.5273  0.1057
  163SAPE   HN118180   1.220   6.816   2.349 -1.1282  1.9261  0.5574
  163SAPE   HN218181   1.062   6.772   2.358 -0.5654  0.4454 -0.4519
  163SAPE   HN318182   1.150   6.674   2.269 -1.8138 -0.1571  2.1883
  163SAPE   C1218183   1.101   6.868   2.187 -1.0451 -0.0406  0.2065
  163SAPE  H12A18184   1.087   6.961   2.245 -0.2293 -0.5461  1.2592
  163SAPE  H12B18185   1.009   6.833   2.135  0.0491 -0.7168 -1.3384
  163SAPE   C1118186   1.210   6.886   2.079 -0.0243  0.6983 -0.7335
  163SAPE  H11A18187   1.168   6.921   1.983  1.4855  1.1237 -1.2666
  163SAPE  H11B18188   1.257   6.791   2.047  0.1320  1.1026 -1.7498
  163SAPE     P18189   1.449   6.936   2.163 -0.1120 -0.0931 -0.1926
  163SAPE   O1318190   1.506   6.857   2.050  0.2579  0.4669 -0.1219
  163SAPE   O1418191   1.537   7.042   2.212  0.3239  0.3458  0.0080
  163SAPE   O1218192   1.305   6.988   2.125 -0.2076 -0.5236 -0.3904
  163SAPE   O1118193   1.412   6.843   2.287  0.4984  0.0315  0.0527
  163SAPE    C118194   1.517   6.752   2.331  0.4399  0.0931 -0.6658
  163SAPE    HA18195   1.512   6.671   2.256  2.0975 -0.2370 -0.4656
  163SAPE    HB18196   1.620   6.791   2.321 -0.1506  1.6370 -0.9634
  163SAPE    C218197   1.489   6.682   2.471  0.0819  0.2035  0.0779
  163SAPE    HS18198   1.383   6.648   2.477  0.2788 -0.2201  1.7446
  163SAPE   O2118199   1.508   6.780   2.571  0.6400 -0.0851  0.1760
  163SAPE   C2118200   1.396   6.859   2.591 -0.2624 -0.4685 -0.4199
  163SAPE   O2218201   1.290   6.835   2.540 -0.2721 -0.0554  0.1409
  163SAPE   C2218202   1.432   6.960   2.693  0.2391 -0.2834 -0.3278
  163SAPE   H2R18203   1.472   6.913   2.785  0.5387 -4.1730 -2.2663
  163SAPE   H2S18204   1.511   7.027   2.652 -0.5937  0.8030 -0.2116
  163SAPE    C318205   1.590   6.563   2.479 -0.1798  0.1259 -0.4801
  163SAPE    HX18206   1.689   6.610   2.461 -0.2758  0.5892  0.1693
  163SAPE    HY18207   1.567   6.485   2.403  0.3824 -2.8644  2.1643
  163SAPE   O3118208   1.601   6.505   2.615 -0.3129  0.3314 -0.1987
  163SAPE   C3118209   1.651   6.385   2.612 -0.3848 -0.5987 -0.3220
  163SAPE   O3218210   1.709   6.331   2.517  0.4794 -0.3986  0.0737
  163SAPE   C3218211   1.634   6.319   2.752 -0.0309  0.5817  0.0576
  163SAPE   H2X18212   1.645   6.208   2.746  0.7913  0.6900 -0.5404
  163SAPE   H2Y18213   1.536   6.343   2.799  0.5361  1.1098  0.9933
  163SAPE   C2318214   1.314   7.065   2.721 -0.2899 -0.0260 -0.2068
  163SAPE   H3R18215   1.226   7.011   2.764 -1.4809 -1.0779 -3.6347
  163SAPE   H3S18216   1.283   7.112   2.625 -0.7216 -2.1911 -1.1813
  163SAPE   C2418217   1.357   7.186   2.805  0.1742  0.2384 -0.2760
  163SAPE   H4R18218   1.285   7.270   2.813  1.1676  1.0210  0.8263
  163SAPE   H4S18219   1.453   7.223   2.764  1.3388 -1.4640  0.7922
  163SAPE   C2518220   1.371   7.129   2.943 -0.1198  0.1877  0.9568
  163SAPE   H5R18221   1.414   7.028   2.946  0.2765  0.2918 -0.4829
  163SAPE   C2618222   1.328   7.184   3.058 -0.3572  0.1924  0.1573
  163SAPE   H6R18223   1.344   7.129   3.152  2.0714  1.1562  0.3881
  163SAPE   C2718224   1.262   7.315   3.086 -0.3751 -0.1964  0.4740
  163SAPE   H7R18225   1.181   7.323   3.011 -1.0479  0.4382  1.2504
  163SAPE   H7S18226   1.338   7.394   3.068  0.6460 -0.5587  2.8454
  163SAPE   C2818227   1.194   7.330   3.222 -0.3243  0.2420  0.2535
  163SAPE   H8R18228   1.093   7.286   3.225  0.0350 -0.7322 -0.7890
  163SAPE   C2918229   1.252   7.355   3.338  0.5456 -0.4680 -0.2825
  163SAPE   H9R18230   1.183   7.362   3.423  0.6778  1.2066 -0.2752
  163SAPE  C21018231   1.394   7.393   3.361 -0.3596 -0.1997 -1.2552
  163SAPE  H10R18232   1.445   7.411   3.264  0.3171 -2.7296 -1.4273
  163SAPE  H10S18233   1.444   7.303   3.403  0.3053  0.0165 -1.5852
  163SAPE  C21118234   1.413   7.516   3.452 -0.0219 -0.2948  1.0075
  163SAPE  H11R18235   1.441   7.613   3.409  0.4577 -0.5378  0.7679
  163SAPE  C21218236   1.428   7.518   3.585  1.0239 -0.1388 -0.3775
  163SAPE  H12R18237   1.419   7.616   3.636  0.2400 -1.2354  1.7057
  163SAPE  C21318238   1.416   7.402   3.684  0.2781  0.0116  0.5090
  163SAPE  H13R18239   1.359   7.321   3.633 -1.0706  1.3390 -0.1407
  163SAPE  H13S18240   1.351   7.429   3.770  0.8015  0.1455  0.8741
  163SAPE  C21418241   1.544   7.341   3.727  0.1657  0.1975 -0.0061
  163SAPE  H14R18242   1.607   7.313   3.642 -0.7329 -1.3647 -0.1998
  163SAPE  C21518243   1.598   7.326   3.851  0.5639  0.0488 -0.2036
  163SAPE  H15R18244   1.700   7.285   3.851 -0.1911 -2.0713 -2.3943
  163SAPE  C21618245   1.537   7.375   3.980  0.2650  0.0756 -0.3784
  163SAPE  H16R18246   1.426   7.380   3.969  0.0314 -2.0927  0.5358
  163SAPE  H16S18247   1.572   7.478   4.002 -0.6651 -0.0423  1.9085
  163SAPE  C21718248   1.595   7.288   4.088 -0.3773  0.5823  0.1442
  163SAPE  H17R18249   1.705   7.294   4.078 -0.3240 -0.2279  0.1263
  163SAPE  H17S18250   1.568   7.181   4.073  0.8459  0.0668  1.3680
  163SAPE  C21818251   1.555   7.343   4.228  0.1456 -0.0220 -0.2589
  163SAPE  H18R18252   1.454   7.304   4.255  1.0025 -0.3599  2.7532
  163SAPE  H18S18253   1.548   7.454   4.226 -2.9719 -0.1087  0.6028
  163SAPE  C21918254   1.645   7.305   4.344  0.3226  0.2349 -0.0315
  163SAPE  H19R18255   1.751   7.298   4.314 -0.0004 -0.1094 -1.1281
  163SAPE  H19S18256   1.611   7.206   4.383 -0.0572  1.7367  3.9087
  163SAPE  C22018257   1.639   7.397   4.466  0.1145 -0.2588 -0.3849
  163SAPE  H20R18258   1.537   7.425   4.500  0.1987  0.0969 -0.4127
  163SAPE  H20S18259   1.707   7.483   4.448  0.4793 -0.1470  1.3422
  163SAPE  H20T18260   1.675   7.335   4.550 -0.9894 -0.2864  0.0782
  163SAPE   C3318261   1.743   6.349   2.855  0.2217  0.3817 -1.3564
  163SAPE   H3X18262   1.840   6.371   2.806 -0.1403  1.5605 -1.5699
  163SAPE   H3Y18263   1.745   6.267   2.930  1.5185  0.8539 -0.8534
  163SAPE   C3418264   1.702   6.468   2.940  0.1318 -0.3468  1.3163
  163SAPE   H4X18265   1.615   6.441   3.002  0.3066 -0.7273  1.4035
  163SAPE   H4Y18266   1.680   6.556   2.876  1.7747 -1.4695 -0.9741
  163SAPE   C3518267   1.809   6.507   3.044 -0.4098  0.8113  0.0527
  163SAPE   H5X18268   1.779   6.467   3.144  2.0634  0.8834  0.8862
  163SAPE   H5Y18269   1.800   6.618   3.051 -0.5296  1.0441 -2.7794
  163SAPE   C3618270   1.956   6.471   3.011  0.6227  0.0774 -0.0425
  163SAPE   H6X18271   1.987   6.529   2.922  0.7890  0.9423  0.5653
  163SAPE   H6Y18272   1.965   6.361   2.996  2.1283  0.2482 -0.6390
  163SAPE   C3718273   2.049   6.501   3.131 -0.6215 -0.4927 -0.6220
  163SAPE   H7X18274   2.154   6.488   3.095 -0.2583 -0.9041  0.5453
  163SAPE   H7Y18275   2.027   6.422   3.206  1.1426 -0.6760 -0.2407
  163SAPE   C3818276   2.034   6.640   3.186 -0.7835 -0.1550  0.3662
  163SAPE   H8X18277   1.935   6.650   3.236 -0.9943  1.2528 -0.2869
  163SAPE   H8Y18278   2.042   6.723   3.113 -1.9244  0.8665  1.3528
  163SAPE   C3918279   2.132   6.680   3.299  0.2220 -0.0921 -1.1140
  163SAPE   H9X18280   2.109   6.779   3.342 -1.0634 -0.8872  0.1087
  163SAPE   H9Y18281   2.235   6.682   3.257  1.6309  2.5029  2.0656
  163SAPE  C31018282   2.125   6.575   3.414 -0.4330 -0.5393 -1.0370
  163SAPE  H10X18283   2.155   6.474   3.378 -2.1525 -1.4325 -0.1179
  163SAPE  H10Y18284   2.022   6.564   3.454 -0.4202  1.4748 -0.3409
  163SAPE  C31118285   2.230   6.620   3.520 -0.4919  0.2671  0.8101
  163SAPE  H11X18286   2.232   6.731   3.532  1.9822  0.2131  1.2985
  163SAPE  H11Y18287   2.333   6.603   3.482  0.4357  2.1602  2.2994
  163SAPE  C31218288   2.200   6.567   3.660  0.4752  0.7605 -0.5635
  163SAPE  H12X18289   2.090   6.570   3.679  0.3253 -3.5871  0.4223
  163SAPE  H12Y18290   2.249   6.623   3.741  1.7013  1.0230 -1.4604
  163SAPE  C31318291   2.237   6.425   3.694 -0.0051  0.5063  0.1823
  163SAPE  H13X18292   2.348   6.419   3.688 -0.0790  0.2195 -2.4752
  163SAPE  H13Y18293   2.204   6.363   3.608 -1.9793  0.2464  1.0862
  163SAPE  C31418294   2.176   6.376   3.827 -0.6725 -0.1700  0.2139
  163SAPE  H14X18295   2.164   6.266   3.825 -0.4202 -0.2129 -2.2489
  163SAPE  H14Y18296   2.076   6.422   3.838 -0.3121  0.5292  0.6357
  163SAPE  C31518297   2.257   6.432   3.945 -0.1972 -0.5259  0.0054
  163SAPE  H15X18298   2.251   6.543   3.938  0.3467 -0.4201  0.9040
  163SAPE  H15Y18299   2.360   6.389   3.937  0.5926  1.5674 -2.5385
  163SAPE  C31618300   2.203   6.381   4.078  0.1828  0.0597 -0.4521
  163SAPE  H16X18301   2.231   6.274   4.089  0.5908  0.3041  1.2342
  163SAPE  H16Y18302   2.092   6.391   4.068  0.3378  2.8404 -0.3900
  163SAPE  C31718303   2.262   6.445   4.204 -0.7314 -0.3906  0.2262
  163SAPE  H17X18304   2.233   6.551   4.220  1.8671  0.2360  1.2846
  163SAPE  H17Y18305   2.373   6.445   4.196 -0.8112  1.2090 -1.3442
  163SAPE  C31818306   2.222   6.391   4.339  0.1567 -0.1436 -0.3112
  163SAPE  H18X18307   2.301   6.411   4.414  0.9348 -1.0381 -0.8497
  163SAPE  H18Y18308   2.190   6.284   4.337  0.3259 -0.1969 -2.1759
  163SAPE  H18Z18309   2.129   6.435   4.378  0.2761  0.2132 -0.4263
  164SAPE     N18310   0.660   6.637   2.092 -0.1238 -0.0317 -0.6577
  164SAPE   HN118311   0.632   6.720   2.149  0.7574 -0.7085  0.8105
  164SAPE   HN218312   0.746   6.584   2.117 -0.5076 -1.1472 -1.6014
  164SAPE   HN318313   0.672   6.669   1.994 -2.2450  0.7628 -0.7105
  164SAPE   C1218314   0.543   6.544   2.096  1.1587  0.3510  0.5251
  164SAPE  H12A18315   0.479   6.561   2.185  0.7295 -2.6650  0.8893
  164SAPE  H12B18316   0.579   6.439   2.089  0.3577  0.0575  0.7112
  164SAPE   C1118317   0.449   6.553   1.973 -0.1465 -0.6568 -1.1252
  164SAPE  H11A18318   0.410   6.452   1.947 -1.0644 -0.6114 -0.0179
  164SAPE  H11B18319   0.510   6.576   1.883 -0.8897 -1.2107 -1.7912
  164SAPE     P18320   0.203   6.632   1.999  0.3104 -0.5644  0.1056
  164SAPE   O1318321   0.126   6.757   1.964  0.0569 -0.3140 -0.0328
  164SAPE   O1418322   0.170   6.516   1.909  0.0516 -0.4388  0.1016
  164SAPE   O1218323   0.360   6.668   1.980  0.7592 -0.1339 -0.6147
  164SAPE   O1118324   0.185   6.595   2.149 -0.2288  0.1922 -0.0736
  164SAPE    C118325   0.234   6.667   2.259  0.3456  0.2497  0.0857
  164SAPE    HA18326   0.281   6.596   2.331  1.3001  1.3482  0.5809
  164SAPE    HB18327   0.308   6.742   2.222  0.4471  0.3984  0.5733
  164SAPE    C218328   0.126   6.729   2.349  0.1870 -0.6910  0.7533
  164SAPE    HS18329   0.160   6.776   2.444 -0.6065 -1.7404  1.5912
  164SAPE   O2118330   0.022   6.639   2.395 -0.3686  0.0644  0.2933
  164SAPE   C2118331   0.043   6.561   2.498 -0.4966 -0.0095  0.1177
  164SAPE   O2218332   0.149   6.542   2.560  0.6064  0.2024 -0.1670
  164SAPE   C2218333  -0.093   6.490   2.524 -0.2399 -0.4660  0.5830
  164SAPE   H2R18334  -0.176   6.562   2.513  2.4108  2.8149  0.6405
  164SAPE   H2S18335  -0.098   6.416   2.441 -1.5796  0.7016 -0.4179
  164SAPE    C318336   0.061   6.850   2.277 -0.0503 -0.0793  0.3632
  164SAPE    HX18337  -0.012   6.799   2.210  1.3917 -2.0034  0.1607
  164SAPE    HY18338   0.128   6.902   2.204  0.7673  0.9043  1.7635
  164SAPE   O3118339   0.006   6.942   2.372 -0.1276  0.2782  0.7700
  164SAPE   C3118340  -0.129   6.957   2.365 -0.4815 -0.0717 -0.2113
  164SAPE   O3218341  -0.201   6.934   2.269  0.1745 -0.0309 -0.2920
  164SAPE   C3218342  -0.177   7.027   2.496  0.1333 -0.2797  0.5074
  164SAPE   H2X18343  -0.159   7.136   2.483  0.5586 -0.5719 -1.9263
  164SAPE   H2Y18344  -0.111   6.983   2.573 -0.9291 -0.8320  1.1338
  164SAPE   C2318345  -0.081   6.428   2.659 -0.0356 -0.9076 -0.6255
  164SAPE   H3R18346   0.008   6.363   2.671  0.0282 -0.8242 -0.6497
  164SAPE   H3S18347  -0.163   6.355   2.680 -1.6657  1.0215  0.0313
  164SAPE   C2418348  -0.078   6.529   2.783  0.6004 -0.6185 -0.0782
  164SAPE   H4R18349   0.027   6.566   2.782  0.6880 -0.7244  1.8719
  164SAPE   H4S18350  -0.105   6.471   2.874 -2.3259  0.3700 -0.2060
  164SAPE   C2518351  -0.182   6.635   2.767  0.4009 -0.4000  0.0860
  164SAPE   H5R18352  -0.284   6.594   2.757  0.7152 -0.8647 -1.5218
  164SAPE   C2618353  -0.172   6.767   2.782 -0.5049  0.1005 -0.1022
  164SAPE   H6R18354  -0.257   6.832   2.756 -0.1331 -0.3260 -2.5800
  164SAPE   C2718355  -0.042   6.828   2.823  0.3513  0.2733  0.5241
  164SAPE   H7R18356   0.028   6.849   2.739 -0.4000  0.4624 -0.0596
  164SAPE   H7S18357   0.006   6.752   2.889  0.6170  1.1351  1.3509
  164SAPE   C2818358  -0.056   6.961   2.896  0.3924  0.1053 -0.1504
  164SAPE   H8R18359  -0.093   7.053   2.849 -0.8037 -0.6618 -0.7332
  164SAPE   C2918360  -0.057   6.976   3.035 -0.0872 -0.1464  0.0236
  164SAPE   H9R18361  -0.092   7.073   3.074 -0.0176 -0.5457  1.1201
  164SAPE  C21018362  -0.049   6.876   3.144  0.5980 -0.4938  0.0658
  164SAPE  H10R18363   0.001   6.928   3.229  1.6197  0.9014 -1.3346
  164SAPE  H10S18364   0.024   6.808   3.095  0.7837 -0.5840  0.4622
  164SAPE  C21118365  -0.186   6.817   3.185  0.3627 -0.5879  0.3858
  164SAPE  H11R18366  -0.268   6.843   3.116  1.1773 -1.9649 -1.1511
  164SAPE  C21218367  -0.210   6.743   3.293 -0.0679 -0.1098 -0.6895
  164SAPE  H12R18368  -0.308   6.697   3.312 -0.7895  1.5888 -0.1165
  164SAPE  C21318369  -0.115   6.719   3.409  0.1366 -0.8524 -0.0980
  164SAPE  H13R18370  -0.169   6.749   3.501  2.8465  2.4632  0.6137
  164SAPE  H13S18371  -0.024   6.779   3.391 -0.5915  0.3221  0.0674
  164SAPE  C21418372  -0.097   6.569   3.385 -0.2271 -0.7165  0.0329
  164SAPE  H14R18373  -0.025   6.540   3.307  1.7207  0.3361  1.3728
  164SAPE  C21518374  -0.142   6.466   3.453 -0.3798 -0.7684  0.2511
  164SAPE  H15R18375  -0.116   6.361   3.431 -1.9445 -1.1966  0.3496
  164SAPE  C21618376  -0.245   6.482   3.564  0.3550 -0.3205 -0.2893
  164SAPE  H16R18377  -0.315   6.396   3.557  0.1601 -0.0295 -2.2610
  164SAPE  H16S18378  -0.317   6.566   3.557  0.9670  0.4593  1.8004
  164SAPE  C21718379  -0.181   6.478   3.704  0.8443 -0.2550 -0.1393
  164SAPE  H17R18380  -0.100   6.553   3.699  0.4782  0.0636 -1.7480
  164SAPE  H17S18381  -0.151   6.372   3.718 -1.5248 -1.0293 -0.4893
  164SAPE  C21818382  -0.267   6.542   3.820  0.0318  0.5893 -0.4357
  164SAPE  H18R18383  -0.365   6.493   3.840 -0.9934  2.2973 -1.0579
  164SAPE  H18S18384  -0.283   6.650   3.798  0.3634  1.2159  2.0148
  164SAPE  C21918385  -0.200   6.530   3.957 -0.2993  1.0815  0.1960
  164SAPE  H19R18386  -0.249   6.599   4.028 -1.0841 -0.2046  0.9465
  164SAPE  H19S18387  -0.095   6.564   3.946  0.5436 -1.0704  1.0301
  164SAPE  C22018388  -0.196   6.389   4.013 -0.1733 -0.1105  0.3345
  164SAPE  H20R18389  -0.298   6.346   4.022 -1.1695  1.4918 -2.1181
  164SAPE  H20S18390  -0.153   6.395   4.115  0.2893 -3.3055  0.4263
  164SAPE  H20T18391  -0.131   6.328   3.946  0.5404  0.2991  0.6414
  164SAPE   C3318392  -0.333   6.998   2.530 -0.3728  0.0173 -0.6454
  164SAPE   H3X18393  -0.351   6.899   2.577  0.2799  0.3299  0.3009
  164SAPE   H3Y18394  -0.403   7.020   2.447 -1.6519  0.6442  0.5526
  164SAPE   C3418395  -0.378   7.110   2.638 -0.0448  0.7680  0.1985
  164SAPE   H4X18396  -0.376   7.211   2.593  1.0263  0.4568 -0.5042
  164SAPE   H4Y18397  -0.293   7.115   2.710 -1.0938  2.0277  1.4094
  164SAPE   C3518398  -0.517   7.093   2.716  1.1397  0.5493  0.3117
  164SAPE   H5X18399  -0.582   7.035   2.647  1.3371  1.6014 -0.7830
  164SAPE   H5Y18400  -0.565   7.191   2.739  0.0165  0.1020 -0.0489
  164SAPE   C3618401  -0.486   7.012   2.842  0.3153  0.5828  0.4386
  164SAPE   H6X18402  -0.402   7.064   2.893  1.7666  0.9577 -2.1741
  164SAPE   H6Y18403  -0.452   6.912   2.807 -2.7532 -0.7246  0.8331
  164SAPE   C3718404  -0.604   6.994   2.939 -0.0849  0.3757  0.1592
  164SAPE   H7X18405  -0.681   6.931   2.890  1.0181  1.2859 -2.9819
  164SAPE   H7Y18406  -0.656   7.091   2.950 -0.6671  0.1023 -0.1615
  164SAPE   C3818407  -0.560   6.942   3.082 -0.8632 -0.3951 -0.6986
  164SAPE   H8X18408  -0.468   7.000   3.104 -2.1987  2.0905 -1.2985
  164SAPE   H8Y18409  -0.528   6.837   3.069  0.4898 -0.0641 -0.2006
  164SAPE   C3918410  -0.673   6.958   3.179 -1.1035 -0.6276 -0.8498
  164SAPE   H9X18411  -0.761   6.905   3.136 -1.4776 -0.3974 -0.3867
  164SAPE   H9Y18412  -0.691   7.067   3.188  1.3998 -0.2993  1.5178
  164SAPE  C31018413  -0.646   6.899   3.313 -0.8381  0.1812  0.5673
  164SAPE  H10X18414  -0.627   6.790   3.304  1.0587  0.5925 -1.1859
  164SAPE  H10Y18415  -0.746   6.900   3.362 -0.7420  0.4272  0.7620
  164SAPE  C31118416  -0.529   6.969   3.391 -0.0597  0.3795 -0.3997
  164SAPE  H11X18417  -0.547   7.078   3.400 -1.2823  0.3191 -1.7225
  164SAPE  H11Y18418  -0.431   6.946   3.343 -0.2675 -1.9907  0.1616
  164SAPE  C31218419  -0.516   6.911   3.529  0.7435 -0.7960 -0.4071
  164SAPE  H12X18420  -0.506   6.802   3.545  0.0943 -0.5516  2.2170
  164SAPE  H12Y18421  -0.612   6.925   3.584  0.5660 -1.3112 -0.5816
  164SAPE  C31318422  -0.392   6.970   3.591 -0.4820 -0.4185  0.2218
  164SAPE  H13X18423  -0.426   7.076   3.595 -0.5313 -0.2692 -2.4917
  164SAPE  H13Y18424  -0.301   6.953   3.531 -1.7004 -0.1090 -1.8030
  164SAPE  C31418425  -0.379   6.930   3.738 -0.4177  0.0694 -0.1816
  164SAPE  H14X18426  -0.325   6.833   3.741 -0.7988 -0.2167 -1.7166
  164SAPE  H14Y18427  -0.476   6.911   3.788 -0.1508  0.1994  0.3971
  164SAPE  C31518428  -0.301   7.025   3.822 -0.4553 -0.2999 -0.3189
  164SAPE  H15X18429  -0.341   7.127   3.803 -2.4560 -1.1343 -0.8925
  164SAPE  H15Y18430  -0.193   7.029   3.797 -0.0575  0.6688  1.3856
  164SAPE  C31618431  -0.322   7.001   3.974 -0.1251  0.3740 -0.0335
  164SAPE  H16X18432  -0.269   6.909   4.006 -1.2631 -0.1993  0.2635
  164SAPE  H16Y18433  -0.430   6.998   3.999  0.0002  0.9665  0.6120
  164SAPE  C31718434  -0.263   7.112   4.054  0.6373  0.1460  0.6112
  164SAPE  H17X18435  -0.297   7.216   4.035  0.9558  0.0734 -0.4180
  164SAPE  H17Y18436  -0.153   7.100   4.043  0.4947 -1.9012  1.1285
  164SAPE  C31818437  -0.281   7.083   4.207  0.1204  0.0566  0.0563
  164SAPE  H18X18438  -0.388   7.066   4.232  0.2855 -0.2079  0.5990
  164SAPE  H18Y18439  -0.222   7.155   4.268 -1.4041  1.0091  0.4386
  164SAPE  H18Z18440  -0.232   6.985   4.229  2.2774  0.9222 -0.6258
  165SAPE     N18441   5.580   2.061   2.073  0.1267 -0.3053  0.1069
  165SAPE   HN118442   5.681   2.061   2.047  0.5886  0.2136  1.7472
  165SAPE   HN218443   5.530   2.024   1.990  0.3047  0.6072 -0.4304
  165SAPE   HN318444   5.533   2.151   2.098  0.1315 -0.5651  1.0720
  165SAPE   C1218445   5.567   1.956   2.177 -0.0342  0.1597 -0.2284
  165SAPE  H12A18446   5.465   1.941   2.218  0.0736  1.3259  0.4864
  165SAPE  H12B18447   5.636   1.990   2.257 -2.4948  3.2422  0.7690
  165SAPE   C1118448   5.612   1.817   2.124 -0.2820 -0.0664 -0.3618
  165SAPE  H11A18449   5.543   1.797   2.039  1.9386  0.6061 -2.4302
  165SAPE  H11B18450   5.612   1.747   2.210  1.4864  0.4487  0.0983
  165SAPE     P18451   5.842   1.708   2.092 -0.1023 -0.5306  0.1359
  165SAPE   O1318452   5.780   1.577   2.086  0.0485 -0.3842  0.0211
  165SAPE   O1418453   5.961   1.720   2.012  0.1615  0.1423  0.7106
  165SAPE   O1218454   5.741   1.821   2.062  0.2390  0.4027  0.7242
  165SAPE   O1118455   5.881   1.727   2.244  0.2526 -0.5224 -0.0426
  165SAPE    C118456   5.942   1.626   2.321  0.0996 -0.0436  0.0670
  165SAPE    HA18457   6.017   1.573   2.259  2.1686  1.4403  1.1713
  165SAPE    HB18458   6.001   1.686   2.393  0.8826  0.1688 -0.7410
  165SAPE    C218459   5.834   1.542   2.394  0.4524 -0.0023 -0.1790
  165SAPE    HS18460   5.794   1.467   2.323 -0.0617 -0.8196  0.9386
  165SAPE   O2118461   5.734   1.632   2.452  0.2977  0.2484 -0.1258
  165SAPE   C2118462   5.613   1.587   2.456 -0.2322 -0.3906  0.0799
  165SAPE   O2218463   5.566   1.480   2.433  0.6229  0.3218  0.3007
  165SAPE   C2218464   5.523   1.695   2.512  0.4816  0.3825 -0.0351
  165SAPE   H2R18465   5.507   1.777   2.438 -0.4188 -0.3501 -0.6875
  165SAPE   H2S18466   5.421   1.652   2.522  0.0982  1.2463 -0.1160
  165SAPE    C318467   5.907   1.455   2.503  0.1908  0.3805 -0.5314
  165SAPE    HX18468   5.986   1.513   2.555 -1.8768  2.8641  0.0175
  165SAPE    HY18469   5.945   1.372   2.439 -3.3305 -2.1891  0.4262
  165SAPE   O3118470   5.824   1.403   2.605  0.6875  0.2781  0.1781
  165SAPE   C3118471   5.748   1.288   2.575  0.2550  0.3145  1.0402
  165SAPE   O3218472   5.746   1.228   2.471 -0.0838  0.9285  0.1358
  165SAPE   C3218473   5.687   1.241   2.706  0.4476  0.3119 -0.2808
  165SAPE   H2X18474   5.589   1.294   2.706  0.7241  1.2628 -4.7569
  165SAPE   H2Y18475   5.754   1.261   2.792 -1.4897  1.7789  0.9859
  165SAPE   C2318476   5.568   1.743   2.650 -0.0167 -0.0585 -0.5900
  165SAPE   H3R18477   5.518   1.838   2.680  0.1575 -0.5274  1.3128
  165SAPE   H3S18478   5.676   1.767   2.637  0.1859 -0.6517 -0.0781
  165SAPE   C2418479   5.536   1.644   2.765 -0.9533 -0.1842  0.2068
  165SAPE   H4R18480   5.611   1.561   2.757  1.1597  1.7463 -1.3992
  165SAPE   H4S18481   5.440   1.589   2.757  0.0141 -2.2892  2.0329
  165SAPE   C2518482   5.532   1.709   2.895 -0.5932 -0.0223 -0.4345
  165SAPE   H5R18483   5.465   1.794   2.913  1.7107  1.6766  0.5499
  165SAPE   C2618484   5.595   1.672   3.003 -0.1348 -0.0941 -0.1763
  165SAPE   H6R18485   5.581   1.733   3.094 -0.2578 -2.6045  1.5839
  165SAPE   C2718486   5.683   1.552   3.029 -0.0181  0.2194 -0.4801
  165SAPE   H7R18487   5.729   1.511   2.936  2.8205  1.1858  0.4242
  165SAPE   H7S18488   5.631   1.462   3.068  1.2731 -1.3157 -2.0838
  165SAPE   C2818489   5.813   1.586   3.092  0.3699  0.3959 -0.5988
  165SAPE   H8R18490   5.893   1.607   3.020  1.3025 -1.9528 -0.3151
  165SAPE   C2918491   5.847   1.590   3.226 -0.4680  0.0600 -0.1991
  165SAPE   H9R18492   5.952   1.613   3.251 -0.8201  0.8349  0.6061
  165SAPE  C21018493   5.766   1.555   3.354 -0.2743 -0.0304  0.4943
  165SAPE  H10R18494   5.664   1.598   3.343  0.5205  2.0892  0.9034
  165SAPE  H10S18495   5.809   1.597   3.447 -1.0108 -0.0943  0.8734
  165SAPE  C21118496   5.736   1.403   3.375  0.5666 -0.2463 -1.1706
  165SAPE  H11R18497   5.720   1.349   3.280  1.7541 -0.5170 -1.2414
  165SAPE  C21218498   5.734   1.344   3.496 -0.3684  0.3981  0.1124
  165SAPE  H12R18499   5.712   1.236   3.497 -0.1173  0.3497  1.5396
  165SAPE  C21318500   5.757   1.402   3.634 -0.0659 -0.1042  0.1511
  165SAPE  H13R18501   5.863   1.433   3.642 -0.6652  1.9387  0.9162
  165SAPE  H13S18502   5.747   1.314   3.701  0.3651 -0.5407 -0.3485
  165SAPE  C21418503   5.663   1.514   3.684  0.1321  0.1372 -0.2862
  165SAPE  H14R18504   5.605   1.556   3.601  2.9003 -0.2627 -2.5607
  165SAPE  C21518505   5.648   1.565   3.809 -0.4285  0.8228 -0.3837
  165SAPE  H15R18506   5.580   1.649   3.830  0.3252  1.1573  0.7794
  165SAPE  C21618507   5.724   1.521   3.932 -0.5380 -0.6431  0.9131
  165SAPE  H16R18508   5.802   1.597   3.953 -0.1891 -1.1211  1.3706
  165SAPE  H16S18509   5.790   1.433   3.914  1.1447  0.8033 -0.4393
  165SAPE  C21718510   5.637   1.501   4.045  0.1267 -0.4690  0.8953
  165SAPE  H17R18511   5.575   1.411   4.029  0.2785 -0.6828  1.4682
  165SAPE  H17S18512   5.581   1.594   4.067  1.9651  0.8547  0.2404
  165SAPE  C21818513   5.708   1.465   4.168  0.0235 -0.4876  0.0939
  165SAPE  H18R18514   5.786   1.541   4.191  0.0299 -0.6888  0.7718
  165SAPE  H18S18515   5.759   1.366   4.176  0.8113 -0.1996 -1.0585
  165SAPE  C21918516   5.608   1.464   4.282 -0.1095  0.2254  0.1852
  165SAPE  H19R18517   5.534   1.381   4.276  0.0265  0.0908  0.3458
  165SAPE  H19S18518   5.546   1.555   4.294 -2.3831 -1.1981 -0.0636
  165SAPE  C22018519   5.680   1.440   4.420 -0.0673 -0.0045  0.1852
  165SAPE  H20R18520   5.712   1.334   4.422 -1.8250 -0.5886  3.3788
  165SAPE  H20S18521   5.625   1.457   4.515 -0.5223 -0.0146 -0.0695
  165SAPE  H20T18522   5.773   1.501   4.425 -0.5917  0.7266  1.3473
  165SAPE   C3318523   5.634   1.093   2.723 -0.5603  0.2965  0.5135
  165SAPE   H3X18524   5.691   1.026   2.655  2.1500  2.0077  0.9385
  165SAPE   H3Y18525   5.530   1.095   2.684 -0.0630  0.3838 -0.8818
  165SAPE   C3418526   5.630   1.039   2.867  0.4877 -0.4714 -0.0545
  165SAPE   H4X18527   5.736   1.033   2.900 -0.2754 -0.5173  2.6345
  165SAPE   H4Y18528   5.587   0.938   2.850 -1.0379  0.5601 -3.0937
  165SAPE   C3518529   5.549   1.123   2.969  0.5656 -0.3867  0.6126
  165SAPE   H5X18530   5.442   1.133   2.940  1.1865  0.2335 -1.6610
  165SAPE   H5Y18531   5.593   1.224   2.980  0.9239 -0.3960 -0.5645
  165SAPE   C3618532   5.549   1.069   3.113  0.0363 -0.1019  0.2454
  165SAPE   H6X18533   5.477   1.129   3.172  0.3828 -0.0105  0.5773
  165SAPE   H6Y18534   5.648   1.071   3.163  0.8912  1.2527 -1.3934
  165SAPE   C3718535   5.508   0.918   3.118 -0.1150 -0.1548  0.6345
  165SAPE   H7X18536   5.597   0.857   3.089 -0.3846 -0.5307  0.5896
  165SAPE   H7Y18537   5.432   0.912   3.038  0.7052 -1.6557 -0.0944
  165SAPE   C3818538   5.435   0.867   3.241 -0.1809  0.0149 -0.1455
  165SAPE   H8X18539   5.396   0.764   3.230  1.2727 -0.9129  2.5831
  165SAPE   H8Y18540   5.344   0.922   3.274 -1.2478 -2.1437  0.7001
  165SAPE   C3918541   5.512   0.865   3.373  0.3109  0.1236 -0.7000
  165SAPE   H9X18542   5.437   0.847   3.454 -0.4248 -0.6061 -1.5267
  165SAPE   H9Y18543   5.568   0.955   3.406 -0.2057 -0.4134  1.9346
  165SAPE  C31018544   5.616   0.755   3.370 -0.6961  0.0629 -0.0943
  165SAPE  H10X18545   5.686   0.795   3.293  0.6814  0.8971  1.5385
  165SAPE  H10Y18546   5.580   0.656   3.335  0.5307 -0.2715 -0.4422
  165SAPE  C31118547   5.701   0.736   3.497  0.3938  0.1240 -1.0839
  165SAPE  H11X18548   5.758   0.831   3.509 -0.6262  0.4616  1.8851
  165SAPE  H11Y18549   5.777   0.658   3.480  2.2775  1.2841  1.4513
  165SAPE  C31218550   5.612   0.713   3.620  0.0181  0.0563 -0.4472
  165SAPE  H12X18551   5.537   0.634   3.601  0.7037 -0.7677  0.1984
  165SAPE  H12Y18552   5.554   0.803   3.649  1.0669  0.5715  0.1086
  165SAPE  C31318553   5.689   0.669   3.748  1.2758 -0.7202 -0.3638
  165SAPE  H13X18554   5.766   0.746   3.771  1.1912 -0.5604 -0.6041
  165SAPE  H13Y18555   5.755   0.581   3.736  0.8026 -1.7123  3.3178
  165SAPE  C31418556   5.590   0.634   3.855  0.3658  0.1851 -0.0700
  165SAPE  H14X18557   5.526   0.562   3.801 -0.1300  0.7558 -0.2589
  165SAPE  H14Y18558   5.526   0.720   3.886 -1.1546 -0.5127 -1.1438
  165SAPE  C31518559   5.653   0.584   3.983  0.0281  0.0460 -0.2150
  165SAPE  H15X18560   5.700   0.489   3.949 -0.1954  0.6291 -2.2269
  165SAPE  H15Y18561   5.581   0.554   4.063  0.6401 -0.1311  0.2774
  165SAPE  C31618562   5.753   0.679   4.050  0.0208 -0.1175 -0.2950
  165SAPE  H16X18563   5.711   0.782   4.055 -1.8683 -0.8583 -0.0640
  165SAPE  H16Y18564   5.836   0.683   3.976  0.5981  0.4225  0.3691
  165SAPE  C31718565   5.799   0.625   4.186 -0.0225 -0.2348  0.0900
  165SAPE  H17X18566   5.810   0.516   4.172  1.2503 -0.0272 -0.7293
  165SAPE  H17Y18567   5.716   0.648   4.256  0.6979  1.5027  0.4419
  165SAPE  C31818568   5.932   0.675   4.239  0.2985 -0.5655 -0.4277
  165SAPE  H18X18569   5.948   0.782   4.212  1.5730 -0.3441  1.0905
  165SAPE  H18Y18570   6.013   0.614   4.192  0.4788 -0.5471 -0.1416
  165SAPE  H18Z18571   5.935   0.658   4.349 -0.0225 -0.7093 -0.4387
  166SAPE     N18572   0.082   6.018   1.859  0.3236 -0.6269  0.3853
  166SAPE   HN118573   0.118   6.024   1.762  1.6778 -1.6045  0.7944
  166SAPE   HN218574   0.085   6.116   1.892  0.4346  0.6221 -2.9801
  166SAPE   HN318575   0.150   5.961   1.913 -1.2211  0.8028  4.1692
  166SAPE   C1218576  -0.048   5.948   1.870  0.0857  1.0446  0.3484
  166SAPE  H12A18577  -0.028   5.848   1.825  2.1094  1.5578 -0.0357
  166SAPE  H12B18578  -0.120   6.006   1.808 -0.5694 -1.6839 -1.6893
  166SAPE   C1118579  -0.093   5.938   2.015 -0.0367 -0.0405  0.6727
  166SAPE  H11A18580  -0.189   5.882   2.015 -0.3929  0.5663  1.0265
  166SAPE  H11B18581  -0.108   6.042   2.051  1.0761  0.7901 -1.1260
  166SAPE     P18582  -0.028   5.845   2.260  0.0931  0.1798  0.0962
  166SAPE   O1318583  -0.148   5.765   2.295 -0.1797  0.0163 -0.0284
  166SAPE   O1418584   0.101   5.790   2.312 -0.4284 -0.0893  0.3604
  166SAPE   O1218585  -0.005   5.862   2.099  0.0928 -0.0964  0.0495
  166SAPE   O1118586  -0.045   5.996   2.310  0.5056  0.0343  0.3336
  166SAPE    C118587   0.064   6.079   2.337 -0.1204  0.0643 -0.2590
  166SAPE    HA18588   0.147   6.060   2.265 -1.3223 -1.1460 -1.3648
  166SAPE    HB18589   0.027   6.182   2.322 -0.3694 -0.0999 -0.8074
  166SAPE    C218590   0.119   6.067   2.485 -0.5252  0.1662  0.0307
  166SAPE    HS18591   0.183   5.977   2.494 -0.4644  0.2426  0.3510
  166SAPE   O2118592   0.015   6.084   2.583  0.2575  0.5722 -0.2021
  166SAPE   C2118593  -0.019   5.983   2.658  0.2313  0.7796  0.3759
  166SAPE   O2218594   0.015   5.865   2.641  0.1440 -0.1274  0.0761
  166SAPE   C2218595  -0.123   6.037   2.764 -0.4298 -0.0804 -0.8844
  166SAPE   H2R18596  -0.091   6.139   2.796 -1.9830 -0.1111  0.9100
  166SAPE   H2S18597  -0.224   6.044   2.720 -0.5664 -3.1745 -1.2821
  166SAPE    C318598   0.222   6.188   2.507  0.4245  0.1960 -0.1896
  166SAPE    HX18599   0.173   6.286   2.489 -0.4658 -0.1092  0.5107
  166SAPE    HY18600   0.303   6.170   2.433  1.1893  1.1469  0.3790
  166SAPE   O3118601   0.268   6.178   2.644 -0.4413 -0.4735 -0.2517
  166SAPE   C3118602   0.390   6.231   2.662 -0.5702 -0.2377 -1.2613
  166SAPE   O3218603   0.459   6.292   2.580  0.0325 -0.0569  0.3387
  166SAPE   C3218604   0.423   6.209   2.811 -1.2138 -0.0941  1.1838
  166SAPE   H2X18605   0.534   6.207   2.810 -1.1329 -0.3637 -2.1934
  166SAPE   H2Y18606   0.375   6.111   2.830  1.0512 -2.4998 -3.6753
  166SAPE   C2318607  -0.138   5.946   2.890  0.6054  0.3001  0.6795
  166SAPE   H3R18608  -0.140   5.839   2.861 -0.2865  0.6677 -0.7389
  166SAPE   H3S18609  -0.233   5.967   2.944  0.2669 -0.4820  0.4058
  166SAPE   C2418610  -0.024   5.967   2.985 -0.4495 -0.6147 -1.3963
  166SAPE   H4R18611  -0.032   6.064   3.039 -1.0487 -2.4277  1.9658
  166SAPE   H4S18612   0.073   5.978   2.930 -0.2930 -1.3489 -1.2687
  166SAPE   C2518613  -0.016   5.858   3.084 -0.1857  0.4861  0.2399
  166SAPE   H5R18614   0.027   5.764   3.045 -1.4664 -0.1866  0.3909
  166SAPE   C2618615  -0.049   5.868   3.214  0.2862 -0.4372 -0.1113
  166SAPE   H6R18616  -0.043   5.777   3.276  1.4650 -0.1284  0.2462
  166SAPE   C2718617  -0.098   5.987   3.294 -0.3466 -0.0105  0.0368
  166SAPE   H7R18618  -0.203   5.985   3.329 -0.5632  3.6396 -0.0247
  166SAPE   H7S18619  -0.112   6.079   3.233 -3.2929  0.4247  1.2030
  166SAPE   C2818620  -0.000   6.018   3.412  0.4706  0.8649  0.0993
  166SAPE   H8R18621   0.099   6.060   3.390  0.4722  1.6213  1.4734
  166SAPE   C2918622  -0.028   6.018   3.540  0.2749  0.1946  0.0014
  166SAPE   H9R18623   0.047   6.066   3.605  1.4039 -0.4556 -0.7643
  166SAPE  C21018624  -0.152   5.959   3.602 -0.5625  0.2264  0.4973
  166SAPE  H10R18625  -0.119   5.869   3.657  1.3437 -0.1004 -1.0886
  166SAPE  H10S18626  -0.223   5.922   3.524  1.1824 -0.7976 -0.6660
  166SAPE  C21118627  -0.218   6.053   3.702 -0.0805 -0.9894  0.4191
  166SAPE  H11R18628  -0.287   6.129   3.663  0.3714 -1.1338 -0.6810
  166SAPE  C21218629  -0.198   6.052   3.836  0.0736  0.1596 -0.4715
  166SAPE  H12R18630  -0.242   6.136   3.893  1.3869  0.0085  0.8192
  166SAPE  C21318631  -0.091   5.975   3.917  0.6693 -0.0292  0.3657
  166SAPE  H13R18632  -0.018   5.929   3.847 -1.8216  1.8379 -3.8445
  166SAPE  H13S18633  -0.135   5.886   3.966  1.0163 -1.8807 -2.4666
  166SAPE  C21418634  -0.005   6.054   4.006  0.0366  0.7631 -0.1784
  166SAPE  H14R18635   0.062   6.127   3.959  1.9581  0.4200  1.8591
  166SAPE  C21518636   0.013   6.041   4.138 -0.9459 -0.9815 -1.0788
  166SAPE  H15R18637   0.098   6.086   4.191 -0.8735  1.7071 -3.2728
  166SAPE  C21618638  -0.077   5.962   4.231  0.0300 -0.0495  0.4666
  166SAPE  H16R18639  -0.019   5.872   4.261  1.5521  1.2044  1.4160
  166SAPE  H16S18640  -0.175   5.933   4.188  0.0731  0.9344 -0.3130
  166SAPE  C21718641  -0.115   6.056   4.348  0.4254  1.0369 -0.4929
  166SAPE  H17R18642  -0.149   6.149   4.299 -0.9192  1.5166  1.2509
  166SAPE  H17S18643  -0.020   6.072   4.403  2.0057  0.2440 -2.8153
  166SAPE  C21818644  -0.220   5.991   4.436 -0.2781  0.0254  0.1637
  166SAPE  H18R18645  -0.174   5.898   4.475 -2.4571 -0.8658  0.7573
  166SAPE  H18S18646  -0.310   5.967   4.374 -0.6368  2.7403 -0.5023
  166SAPE  C21918647  -0.268   6.086   4.550 -0.0637  0.0697  0.5517
  166SAPE  H19R18648  -0.369   6.066   4.590 -0.0551 -0.5410  0.2774
  166SAPE  H19S18649  -0.265   6.183   4.495  3.4998 -0.6151 -0.7553
  166SAPE  C22018650  -0.170   6.123   4.663  0.4335  0.1364  0.4263
  166SAPE  H20R18651  -0.073   6.161   4.623  0.8584 -0.3136  1.0226
  166SAPE  H20S18652  -0.160   6.036   4.730  1.8917  1.7700  2.4671
  166SAPE  H20T18653  -0.212   6.207   4.723  2.3319  1.7017 -0.3190
  166SAPE   C3318654   0.370   6.322   2.907 -0.2215 -0.2108 -0.5688
  166SAPE   H3X18655   0.374   6.427   2.870  4.9286  0.5274  1.1773
  166SAPE   H3Y18656   0.437   6.321   2.996  0.5190 -1.4605 -1.1176
  166SAPE   C3418657   0.218   6.292   2.956 -0.1354  0.4493 -0.4989
  166SAPE   H4X18658   0.220   6.203   3.022  0.7785 -0.0225 -1.1421
  166SAPE   H4Y18659   0.145   6.277   2.873  0.9762  0.7076 -1.5645
  166SAPE   C3518660   0.159   6.413   3.039 -0.3392 -0.5590 -0.2020
  166SAPE   H5X18661   0.052   6.398   3.065  0.4522 -0.4136  3.7187
  166SAPE   H5Y18662   0.155   6.494   2.962 -0.4855  1.3844  1.7423
  166SAPE   C3618663   0.241   6.455   3.158  0.2925 -0.8084  0.1593
  166SAPE   H6X18664   0.188   6.548   3.190 -1.1691 -2.3746  2.6505
  166SAPE   H6Y18665   0.345   6.482   3.132  0.4686  0.1026  1.6978
  166SAPE   C3718666   0.225   6.359   3.277 -0.0918  0.8107 -0.9391
  166SAPE   H7X18667   0.303   6.280   3.271  2.5867  3.0763  1.1576
  166SAPE   H7Y18668   0.124   6.313   3.269 -0.0099  0.4424  0.0623
  166SAPE   C3818669   0.250   6.429   3.412  0.5031  0.5053  0.1514
  166SAPE   H8X18670   0.172   6.505   3.430 -0.5470 -0.2346 -1.0926
  166SAPE   H8Y18671   0.352   6.473   3.411  1.5820 -1.6007  2.9639
  166SAPE   C3918672   0.237   6.338   3.528  0.3311  0.3407 -0.0597
  166SAPE   H9X18673   0.331   6.282   3.543  1.1181  1.6560  0.0455
  166SAPE   H9Y18674   0.150   6.268   3.519 -0.7505  1.6341  0.0293
  166SAPE  C31018675   0.219   6.408   3.659 -0.1466  0.3340 -0.6204
  166SAPE  H10X18676   0.110   6.424   3.668 -0.4998 -2.1119  0.1617
  166SAPE  H10Y18677   0.274   6.505   3.652 -0.5627  0.5925 -0.2889
  166SAPE  C31118678   0.269   6.330   3.781 -0.2100 -0.3390  0.0402
  166SAPE  H11X18679   0.378   6.313   3.771 -0.1634 -0.9238  1.3141
  166SAPE  H11Y18680   0.209   6.236   3.780 -0.6340 -0.0925  0.7978
  166SAPE  C31218681   0.228   6.408   3.914 -0.5148  0.0821 -0.0004
  166SAPE  H12X18682   0.130   6.371   3.952  0.1062 -2.3543 -0.6121
  166SAPE  H12Y18683   0.223   6.516   3.886  0.5591  0.2189  0.2703
  166SAPE  C31318684   0.328   6.382   4.019  0.2721  0.0735 -0.1376
  166SAPE  H13X18685   0.431   6.397   3.979  0.0186  1.3520 -0.3722
  166SAPE  H13Y18686   0.324   6.276   4.052  1.0588 -0.3158 -1.2043
  166SAPE  C31418687   0.314   6.460   4.149 -0.2438 -0.3907 -0.5851
  166SAPE  H14X18688   0.214   6.442   4.195  0.1303 -1.6001 -0.1948
  166SAPE  H14Y18689   0.327   6.566   4.120 -1.3827 -0.3304 -0.9280
  166SAPE  C31518690   0.422   6.429   4.257  0.0045 -0.2059  0.1802
  166SAPE  H15X18691   0.402   6.492   4.346 -0.3908  0.8351 -0.6094
  166SAPE  H15Y18692   0.517   6.467   4.214 -0.9331 -1.1248 -3.0306
  166SAPE  C31618693   0.449   6.278   4.293  0.0938 -0.5019  0.1646
  166SAPE  H16X18694   0.536   6.264   4.360 -1.4384 -1.1565  2.0906
  166SAPE  H16Y18695   0.465   6.228   4.195 -0.2229  0.6986 -0.5319
  166SAPE  C31718696   0.323   6.224   4.361 -0.3783 -0.2200  0.8553
  166SAPE  H17X18697   0.243   6.227   4.284 -0.0790  2.0232  0.5509
  166SAPE  H17Y18698   0.289   6.299   4.436  0.0064 -1.7220  2.5816
  166SAPE  C31818699   0.336   6.092   4.429 -0.2125  0.6070 -0.1089
  166SAPE  H18X18700   0.375   6.013   4.361  1.7232  2.1957 -0.9380
  166SAPE  H18Y18701   0.233   6.069   4.463 -0.3795 -1.6324 -1.8935
  166SAPE  H18Z18702   0.410   6.104   4.510 -0.9999 -1.7733  1.0299
  167SAPE     N18703   5.505   4.435   2.410 -0.3256 -0.5067 -0.7024
  167SAPE   HN118704   5.554   4.465   2.497 -0.0865  2.9471 -1.8795
  167SAPE   HN218705   5.535   4.513   2.348 -0.8867  1.4807  1.3807
  167SAPE   HN318706   5.403   4.447   2.426  0.1068  2.2203  0.6873
  167SAPE   C1218707   5.557   4.299   2.359  0.0114  0.1774 -0.1679
  167SAPE  H12A18708   5.485   4.272   2.278 -2.2918  4.2547  0.2344
  167SAPE  H12B18709   5.555   4.226   2.442 -2.1485 -0.0236 -0.3181
  167SAPE   C1118710   5.701   4.327   2.305  0.1385 -0.0350 -0.3430
  167SAPE  H11A18711   5.705   4.416   2.239  2.0698  0.9193  0.9403
  167SAPE  H11B18712   5.738   4.240   2.247 -0.7267 -0.4331 -0.3116
  167SAPE     P18713   5.952   4.384   2.382  0.1718 -0.3544 -0.1181
  167SAPE   O1318714   5.998   4.301   2.271 -0.3254  0.3285 -0.1795
  167SAPE   O1418715   5.979   4.531   2.370 -0.3420  0.0543 -0.4247
  167SAPE   O1218716   5.796   4.354   2.408  0.1814  0.1136 -0.6309
  167SAPE   O1118717   6.023   4.331   2.518 -0.1785 -1.0177 -0.1254
  167SAPE    C118718   5.979   4.215   2.589  0.0371  0.1662 -0.3177
  167SAPE    HA18719   5.916   4.157   2.518  0.0729  0.8917 -0.9552
  167SAPE    HB18720   6.068   4.155   2.617 -0.0191  0.7322  1.1875
  167SAPE    C218721   5.885   4.246   2.710  0.3293 -1.0820 -1.1185
  167SAPE    HS18722   5.795   4.302   2.676  0.1461  1.0680  2.3494
  167SAPE   O2118723   5.974   4.314   2.805 -0.1013 -0.6849  0.3588
  167SAPE   C2118724   5.924   4.429   2.844 -0.3825 -0.2672  0.1578
  167SAPE   O2218725   5.810   4.469   2.825  0.3839 -0.2890 -0.1846
  167SAPE   C2218726   6.034   4.510   2.918  0.0360  0.0194  0.7447
  167SAPE   H2R18727   6.045   4.453   3.012 -2.2637  1.0807  1.7319
  167SAPE   H2S18728   6.128   4.498   2.859 -1.6719 -0.3630 -2.1079
  167SAPE    C318729   5.825   4.118   2.777  0.0808 -0.3408  0.7160
  167SAPE    HX18730   5.904   4.040   2.779 -0.4983 -1.0459 -1.4501
  167SAPE    HY18731   5.762   4.070   2.700  0.4756  1.6376 -0.9304
  167SAPE   O3118732   5.759   4.139   2.899 -0.4344  0.5794  0.0782
  167SAPE   C3118733   5.631   4.154   2.907  0.0772  0.7219 -0.8257
  167SAPE   O3218734   5.562   4.184   2.813 -0.3816 -0.1727 -0.1471
  167SAPE   C3218735   5.585   4.148   3.050 -0.3386 -0.4416 -0.1323
  167SAPE   H2X18736   5.630   4.240   3.094  1.6782 -1.4918  0.1139
  167SAPE   H2Y18737   5.646   4.070   3.101  1.0730 -0.5535 -1.8906
  167SAPE   C2318738   5.990   4.656   2.947  0.5233 -0.3446 -0.1667
  167SAPE   H3R18739   5.946   4.687   2.849 -0.6918  1.9991  1.0347
  167SAPE   H3S18740   6.076   4.722   2.971  0.1552  0.0827  0.0030
  167SAPE   C2418741   5.889   4.673   3.058 -0.3850 -0.3657 -0.2081
  167SAPE   H4R18742   5.945   4.637   3.147 -1.0085 -0.4967  0.1428
  167SAPE   H4S18743   5.797   4.618   3.031 -0.1247 -0.8565 -0.0951
  167SAPE   C2518744   5.843   4.815   3.068 -0.5467  0.0617 -0.3614
  167SAPE   H5R18745   5.821   4.863   2.972  0.0158  0.4385 -0.3093
  167SAPE   C2618746   5.825   4.887   3.181  0.1213 -0.4486 -0.2927
  167SAPE   H6R18747   5.801   4.994   3.169 -0.7132 -0.4849  0.8962
  167SAPE   C2718748   5.847   4.844   3.318 -0.3563 -0.0619 -0.2761
  167SAPE   H7R18749   5.880   4.738   3.326 -1.4560 -0.5150 -1.5507
  167SAPE   H7S18750   5.752   4.844   3.375 -0.8503  0.6405 -1.0751
  167SAPE   C2818751   5.945   4.933   3.392 -0.0948  0.0995  0.2604
  167SAPE   H8R18752   6.008   4.993   3.324  0.4878  0.6079  1.2175
  167SAPE   C2918753   5.955   4.944   3.529 -0.0261  0.1688  0.2995
  167SAPE   H9R18754   6.033   5.008   3.572  0.1645 -1.0535  1.9016
  167SAPE  C21018755   5.885   4.861   3.630 -0.0299  0.2184  0.5692
  167SAPE  H10R18756   5.796   4.823   3.575 -0.6400 -0.0694  1.7089
  167SAPE  H10S18757   5.841   4.929   3.707  0.0888  1.5127 -0.4714
  167SAPE  C21118758   5.953   4.747   3.691  0.1158  0.3408 -0.5299
  167SAPE  H11R18759   5.958   4.653   3.635  4.1194 -0.9790  1.6591
  167SAPE  C21218760   5.983   4.744   3.820  0.5528 -0.9387 -0.2802
  167SAPE  H12R18761   6.042   4.655   3.845  1.0984 -2.5774 -6.1130
  167SAPE  C21318762   5.986   4.861   3.921 -0.3123 -0.2494 -0.4140
  167SAPE  H13R18763   5.979   4.822   4.024  1.0388 -1.4006 -0.7274
  167SAPE  H13S18764   5.900   4.930   3.910 -0.5474 -0.7212 -1.8039
  167SAPE  C21418765   6.116   4.942   3.895  0.2971  0.9413  0.4540
  167SAPE  H14R18766   6.105   5.022   3.820 -0.5386 -0.8475 -1.4098
  167SAPE  C21518767   6.233   4.929   3.962  0.7609 -0.1005 -1.1989
  167SAPE  H15R18768   6.316   4.999   3.947 -1.2392  2.6394 -0.4146
  167SAPE  C21618769   6.257   4.822   4.069  0.1900 -0.2045 -0.4614
  167SAPE  H16R18770   6.360   4.788   4.047 -0.1852 -1.5650 -0.2188
  167SAPE  H16S18771   6.189   4.734   4.064  0.0477 -0.0731 -0.8917
  167SAPE  C21718772   6.263   4.888   4.202 -0.4119  0.3259 -0.4497
  167SAPE  H17R18773   6.160   4.899   4.239 -0.6710 -0.7612 -0.8080
  167SAPE  H17S18774   6.300   4.993   4.199 -1.0940  0.6009  0.5355
  167SAPE  C21818775   6.340   4.797   4.302  0.0645 -0.3047  0.0426
  167SAPE  H18R18776   6.442   4.783   4.260  0.5924 -0.7104  1.4248
  167SAPE  H18S18777   6.294   4.696   4.293  0.0175 -0.2459 -0.4028
  167SAPE  C21918778   6.352   4.848   4.451  0.1637  0.0588  0.5258
  167SAPE  H19R18779   6.248   4.856   4.490  0.0672 -0.5130  0.3969
  167SAPE  H19S18780   6.392   4.952   4.453 -1.1452  0.5890  0.6718
  167SAPE  C22018781   6.431   4.755   4.543  0.2602  0.5562 -0.5838
  167SAPE  H20R18782   6.535   4.729   4.517  0.6709  0.1433  1.3408
  167SAPE  H20S18783   6.379   4.657   4.551  1.6881 -0.1323  0.6296
  167SAPE  H20T18784   6.431   4.799   4.645  1.6820 -0.5879 -0.0647
  167SAPE   C3318785   5.436   4.129   3.088 -0.0848  0.2972 -0.8834
  167SAPE   H3X18786   5.401   4.050   3.018 -0.9058 -0.1551  0.0093
  167SAPE   H3Y18787   5.376   4.221   3.070  0.6561  0.7309 -1.1567
  167SAPE   C3418788   5.419   4.092   3.236  0.1410  0.2309  0.0100
  167SAPE   H4X18789   5.318   4.114   3.277  1.3628  1.1264  2.7473
  167SAPE   H4Y18790   5.485   4.158   3.296 -0.5642  0.9584 -0.0090
  167SAPE   C3518791   5.457   3.950   3.264 -0.7811  0.0230  0.1866
  167SAPE   H5X18792   5.566   3.940   3.244 -0.4707 -0.2754  1.9390
  167SAPE   H5Y18793   5.402   3.887   3.191 -0.1007  1.1303 -1.3425
  167SAPE   C3618794   5.424   3.905   3.408 -0.7252 -0.0746 -0.4454
  167SAPE   H6X18795   5.438   3.795   3.416  0.5162  0.0548 -0.5828
  167SAPE   H6Y18796   5.317   3.932   3.415 -0.4197  1.1137 -0.1778
  167SAPE   C3718797   5.502   3.959   3.520 -0.2697 -0.1514  0.3830
  167SAPE   H7X18798   5.500   4.070   3.527 -1.1849 -0.2380  1.8462
  167SAPE   H7Y18799   5.607   3.934   3.495  0.2632 -1.1940  3.3305
  167SAPE   C3818800   5.456   3.908   3.656 -0.4025  0.4961 -0.4112
  167SAPE   H8X18801   5.468   3.798   3.664  1.2324  0.7343  1.0958
  167SAPE   H8Y18802   5.351   3.945   3.653 -0.9734 -1.0864 -2.2058
  167SAPE   C3918803   5.530   3.956   3.771  0.2548  0.0580 -0.4375
  167SAPE   H9X18804   5.550   4.065   3.764 -0.3134  0.3450  1.6612
  167SAPE   H9Y18805   5.632   3.912   3.765 -0.3889 -1.5864  0.1504
  167SAPE  C31018806   5.455   3.938   3.905 -0.6775 -0.1374 -0.0916
  167SAPE  H10X18807   5.438   3.832   3.933 -0.6590 -0.2053 -0.3357
  167SAPE  H10Y18808   5.357   3.991   3.901 -0.0351  1.3114  1.9254
  167SAPE  C31118809   5.539   3.998   4.023 -0.0122  0.0815 -0.1311
  167SAPE  H11X18810   5.556   4.106   4.007  0.0902 -0.0030 -0.5943
  167SAPE  H11Y18811   5.640   3.952   4.022 -0.3114 -0.6822  1.6161
  167SAPE  C31218812   5.473   3.978   4.157  0.4048 -0.1612  0.4014
  167SAPE  H12X18813   5.411   3.886   4.152  0.8916 -0.4360 -2.4798
  167SAPE  H12Y18814   5.404   4.062   4.178  0.4839 -0.1011  0.4217
  167SAPE  C31318815   5.568   3.958   4.277  0.0887  0.6850  0.1005
  167SAPE  H13X18816   5.642   4.040   4.285  1.4367 -0.2389 -1.9774
  167SAPE  H13Y18817   5.624   3.864   4.254 -0.9557 -0.0661  0.5511
  167SAPE  C31418818   5.491   3.947   4.412 -0.1710  0.7163  0.2359
  167SAPE  H14X18819   5.417   3.866   4.395 -0.9690  1.7075 -1.2852
  167SAPE  H14Y18820   5.433   4.041   4.426 -0.3967  1.2432 -3.2186
  167SAPE  C31518821   5.586   3.907   4.525  0.0017 -0.0854 -0.6554
  167SAPE  H15X18822   5.538   3.925   4.624 -0.6678 -0.3257 -0.9394
  167SAPE  H15Y18823   5.675   3.973   4.509 -0.5189  0.5357 -1.0307
  167SAPE  C31618824   5.632   3.757   4.534 -0.5332  0.7117  0.4845
  167SAPE  H16X18825   5.701   3.737   4.450 -0.2231  0.4058  0.8082
  167SAPE  H16Y18826   5.551   3.682   4.519 -0.2434  0.4809  0.0494
  167SAPE  C31718827   5.714   3.732   4.657  0.1843 -0.5828 -0.3780
  167SAPE  H17X18828   5.650   3.741   4.747  3.0017 -4.0932  2.2792
  167SAPE  H17Y18829   5.797   3.805   4.661 -0.2189 -0.0905 -0.8488
  167SAPE  C31818830   5.775   3.594   4.667  0.1280  0.6490 -0.2481
  167SAPE  H18X18831   5.850   3.570   4.745  0.5360 -1.9978 -1.3180
  167SAPE  H18Y18832   5.845   3.580   4.582  1.0325  2.1952  0.2202
  167SAPE  H18Z18833   5.693   3.518   4.668  0.9481 -0.2436  0.4188
  168SAPE     N18834   1.508   1.203   2.137 -0.1164  0.3071 -0.3304
  168SAPE   HN118835   1.433   1.235   2.074 -3.8229 -0.4074  3.2726
  168SAPE   HN218836   1.574   1.284   2.146  0.3388  0.1808 -2.2166
  168SAPE   HN318837   1.558   1.127   2.086 -1.8932 -1.6243  0.6523
  168SAPE   C1218838   1.463   1.155   2.280 -0.6941  0.0181 -0.0901
  168SAPE  H12A18839   1.554   1.111   2.326 -2.8438 -1.2169  3.3383
  168SAPE  H12B18840   1.391   1.071   2.264  0.6515 -0.7639 -2.5715
  168SAPE   C1118841   1.405   1.269   2.362  0.5457 -0.1118 -0.6679
  168SAPE  H11A18842   1.492   1.337   2.374  1.7628 -1.7852  0.3929
  168SAPE  H11B18843   1.383   1.243   2.468  4.9954 -2.2648 -0.0430
  168SAPE     P18844   1.151   1.302   2.337 -0.2485 -0.0366 -0.3545
  168SAPE   O1318845   1.057   1.329   2.229 -0.6249 -0.2897 -0.0853
  168SAPE   O1418846   1.129   1.168   2.401  0.3817  0.0834 -0.2011
  168SAPE   O1218847   1.300   1.341   2.291 -0.3488  0.7985  0.6338
  168SAPE   O1118848   1.132   1.415   2.452  0.1145  0.2397 -0.2197
  168SAPE    C118849   1.166   1.552   2.431 -0.3810  0.4579  0.4198
  168SAPE    HA18850   1.264   1.553   2.379 -0.2592 -3.6057  0.2329
  168SAPE    HB18851   1.101   1.607   2.360  0.6516  1.6171  0.3342
  168SAPE    C218852   1.148   1.641   2.555 -0.0462 -0.7784 -0.9119
  168SAPE    HS18853   1.193   1.742   2.553 -1.1528 -0.1727  1.7394
  168SAPE   O2118854   1.208   1.583   2.670 -0.1878  0.0006 -0.1480
  168SAPE   C2118855   1.328   1.536   2.677 -0.0627 -0.8095  0.0396
  168SAPE   O2218856   1.409   1.539   2.585 -0.2909 -0.0307  0.0449
  168SAPE   C2218857   1.350   1.469   2.808 -0.3158  0.1326 -0.3864
  168SAPE   H2R18858   1.387   1.550   2.874 -1.1455  0.0459  0.2060
  168SAPE   H2S18859   1.253   1.431   2.846 -1.3222  1.5507 -1.4559
  168SAPE    C318860   0.997   1.662   2.588 -0.2273  0.1775 -0.1884
  168SAPE    HX18861   0.944   1.576   2.541 -0.6568 -0.1021  0.7797
  168SAPE    HY18862   0.968   1.755   2.535 -1.4025 -0.0196  0.0792
  168SAPE   O3118863   0.965   1.689   2.725  0.1804 -0.3722  0.4332
  168SAPE   C3118864   0.936   1.591   2.809 -0.8380  0.7989  1.1697
  168SAPE   O3218865   0.937   1.473   2.785  0.3320  0.2654  0.4805
  168SAPE   C3218866   0.903   1.644   2.947 -0.3787  0.6301  0.0753
  168SAPE   H2X18867   0.830   1.723   2.920  0.1450  0.0819 -3.3372
  168SAPE   H2Y18868   0.996   1.686   2.993  0.2003  0.1465 -0.6213
  168SAPE   C2318869   1.456   1.356   2.793 -0.0881 -0.1394 -0.1401
  168SAPE   H3R18870   1.548   1.397   2.747 -0.1431  1.5465  1.1394
  168SAPE   H3S18871   1.420   1.282   2.718 -1.8649  0.5989 -0.0664
  168SAPE   C2418872   1.480   1.289   2.932  0.6620  0.2353  0.0531
  168SAPE   H4R18873   1.531   1.360   3.001  0.2030  1.8570 -1.2128
  168SAPE   H4S18874   1.554   1.211   2.902  1.7020  1.6858 -1.3456
  168SAPE   C2518875   1.361   1.228   3.001 -0.6077 -0.1253  0.6306
  168SAPE   H5R18876   1.320   1.145   2.942 -0.3983  0.9560 -1.1379
  168SAPE   C2618877   1.297   1.266   3.112 -0.8097  0.0689  0.1788
  168SAPE   H6R18878   1.202   1.215   3.132 -1.2346  0.5569 -0.5656
  168SAPE   C2718879   1.338   1.381   3.203 -0.0201  0.2798  1.1028
  168SAPE   H7R18880   1.420   1.436   3.151 -0.3590 -0.7732 -0.6492
  168SAPE   H7S18881   1.374   1.337   3.298 -1.0596  0.8680  1.7791
  168SAPE   C2818882   1.227   1.487   3.230  0.3182 -0.2016 -0.3938
  168SAPE   H8R18883   1.151   1.499   3.152  0.9702 -0.6289 -1.1072
  168SAPE   C2918884   1.202   1.546   3.350  0.5539 -0.4823  0.2126
  168SAPE   H9R18885   1.114   1.611   3.361 -1.1648 -2.5639 -0.5411
  168SAPE  C21018886   1.295   1.526   3.471  0.6925 -0.3413 -0.6023
  168SAPE  H10R18887   1.368   1.609   3.463 -0.6859  1.0518  0.7995
  168SAPE  H10S18888   1.363   1.437   3.474  0.7036 -0.4288 -2.3354
  168SAPE  C21118889   1.226   1.544   3.606  0.0312  0.1081 -0.1672
  168SAPE  H11R18890   1.126   1.502   3.622 -0.2064  0.9515  0.6015
  168SAPE  C21218891   1.270   1.607   3.717  0.1810 -0.0297 -0.1175
  168SAPE  H12R18892   1.202   1.612   3.803 -1.3632  1.4227 -1.3519
  168SAPE  C21318893   1.404   1.666   3.738 -0.7978 -0.6240  0.0850
  168SAPE  H13R18894   1.448   1.696   3.641  0.2482  1.8537  1.2356
  168SAPE  H13S18895   1.481   1.594   3.773 -1.1313 -1.7531 -1.4248
  168SAPE  C21418896   1.389   1.791   3.825 -0.0811  0.4393 -0.1643
  168SAPE  H14R18897   1.432   1.780   3.926  0.5355 -1.8900 -0.6206
  168SAPE  C21518898   1.338   1.908   3.788 -0.1200 -0.2488  0.6663
  168SAPE  H15R18899   1.335   1.994   3.856  0.2071 -0.5048  1.0067
  168SAPE  C21618900   1.300   1.941   3.642 -0.9199  1.2061  0.1778
  168SAPE  H16R18901   1.203   1.994   3.630 -0.5550  1.6475 -0.9136
  168SAPE  H16S18902   1.298   1.850   3.578  3.5169  0.5522  0.6584
  168SAPE  C21718903   1.416   2.030   3.585 -0.4027 -0.5259 -0.6521
  168SAPE  H17R18904   1.514   1.979   3.574  0.0358 -0.0020  0.5994
  168SAPE  H17S18905   1.431   2.104   3.667  2.0324 -0.9683 -0.6143
  168SAPE  C21818906   1.373   2.100   3.455 -0.0931  0.0405  0.2915
  168SAPE  H18R18907   1.311   2.191   3.468  0.3837  0.6035 -1.1634
  168SAPE  H18S18908   1.320   2.039   3.379 -0.4236  0.4141  0.2207
  168SAPE  C21918909   1.497   2.144   3.367 -0.1036  0.0400 -0.6665
  168SAPE  H19R18910   1.458   2.168   3.266 -0.5440  0.2633 -0.4461
  168SAPE  H19S18911   1.562   2.056   3.349  0.8834  0.1370  1.9905
  168SAPE  C22018912   1.579   2.253   3.435  0.5937 -1.0790 -0.1212
  168SAPE  H20R18913   1.659   2.284   3.364 -2.7013  4.0666 -2.1243
  168SAPE  H20S18914   1.616   2.212   3.532 -1.9699 -1.7792  0.6274
  168SAPE  H20T18915   1.503   2.332   3.453 -0.4256 -1.3078 -3.0869
  168SAPE   C3318916   0.824   1.548   3.045  0.4765  0.2576 -0.2013
  168SAPE   H3X18917   0.882   1.456   3.069 -0.4803  0.1021  1.7352
  168SAPE   H3Y18918   0.732   1.517   2.990  1.0491 -0.0951 -0.9806
  168SAPE   C3418919   0.755   1.610   3.174 -0.4054 -0.3411 -0.1597
  168SAPE   H4X18920   0.682   1.537   3.214 -0.0677 -0.1420  0.8635
  168SAPE   H4Y18921   0.706   1.707   3.151 -0.3223 -0.6029 -1.4962
  168SAPE   C3518922   0.857   1.634   3.285  0.4926  0.6175  0.3979
  168SAPE   H5X18923   0.947   1.679   3.238  0.0159 -0.8515 -2.0962
  168SAPE   H5Y18924   0.888   1.530   3.309 -2.4232 -0.6841 -0.9630
  168SAPE   C3618925   0.803   1.707   3.412  0.2555  0.3852  0.0082
  168SAPE   H6X18926   0.706   1.655   3.432  1.4637 -1.2999  1.9433
  168SAPE   H6Y18927   0.774   1.811   3.385  0.3051 -0.0966 -2.1220
  168SAPE   C3718928   0.904   1.698   3.528  0.1501 -0.4012  0.1025
  168SAPE   H7X18929   1.004   1.738   3.499 -0.6777  0.1521 -2.1941
  168SAPE   H7Y18930   0.921   1.590   3.546 -1.5623 -0.6954  0.0658
  168SAPE   C3818931   0.851   1.752   3.660 -0.3581 -0.0253 -0.6781
  168SAPE   H8X18932   0.747   1.719   3.681 -0.4555  0.8844  0.2907
  168SAPE   H8Y18933   0.844   1.863   3.652  0.6741  0.2824  1.9062
  168SAPE   C3918934   0.938   1.722   3.784 -0.5876 -0.5105 -0.4271
  168SAPE   H9X18935   1.044   1.752   3.771  0.1713 -3.0223 -0.5017
  168SAPE   H9Y18936   0.947   1.613   3.801 -1.2861 -0.5049  0.0365
  168SAPE  C31018937   0.888   1.792   3.912 -0.1619  0.1754  0.2957
  168SAPE  H10X18938   0.801   1.731   3.946 -0.5415 -1.3627 -3.0456
  168SAPE  H10Y18939   0.879   1.902   3.908 -1.7245  0.0585  0.1067
  168SAPE  C31118940   1.002   1.781   4.017 -0.3655  0.1978  0.1920
  168SAPE  H11X18941   1.086   1.848   3.988 -0.3729  0.0578 -0.1501
  168SAPE  H11Y18942   1.051   1.682   4.011  0.3848  0.5052  0.9420
  168SAPE  C31218943   0.954   1.789   4.159  0.1947  0.7396 -0.7467
  168SAPE  H12X18944   1.038   1.751   4.221 -0.8993 -0.2634  0.1844
  168SAPE  H12Y18945   0.859   1.738   4.186  1.7156 -1.6542  0.3592
  168SAPE  C31318946   0.944   1.938   4.198 -0.3195  0.2195 -0.2495
  168SAPE  H13X18947   0.886   1.992   4.119  1.9056  0.2693 -1.9608
  168SAPE  H13Y18948   1.043   1.989   4.193  0.1443 -0.7488 -2.0379
  168SAPE  C31418949   0.892   1.963   4.336 -0.0511 -1.0083  0.2086
  168SAPE  H14X18950   0.894   2.072   4.358 -1.5218 -0.5524 -1.6370
  168SAPE  H14Y18951   0.964   1.916   4.406 -0.4254 -0.9048  0.6727
  168SAPE  C31518952   0.738   1.923   4.363 -0.3769  0.0077 -0.0004
  168SAPE  H15X18953   0.711   1.825   4.316 -0.3029  0.7468 -1.6619
  168SAPE  H15Y18954   0.676   1.993   4.304  0.0193  1.1031  0.8475
  168SAPE  C31618955   0.699   1.928   4.514 -0.1239  0.9189 -0.0467
  168SAPE  H16X18956   0.588   1.933   4.508 -0.1199  0.1142 -1.0746
  168SAPE  H16Y18957   0.737   2.021   4.561  0.4242 -0.5364  2.6151
  168SAPE  C31718958   0.753   1.821   4.601 -0.1568 -0.2817  0.3358
  168SAPE  H17X18959   0.863   1.824   4.586 -0.0998 -0.8670  0.6043
  168SAPE  H17Y18960   0.714   1.725   4.561 -1.7480 -0.3505  1.9493
  168SAPE  C31818961   0.726   1.843   4.754  0.4311  0.5003 -0.3512
  168SAPE  H18X18962   0.616   1.841   4.769 -0.0144 -1.8467 -2.9330
  168SAPE  H18Y18963   0.770   1.941   4.782  2.8211 -0.6837  0.3731
  168SAPE  H18Z18964   0.770   1.771   4.827 -1.6049  2.7365  3.3446
  169SAPE     N18965   4.487   5.387   2.011  0.0967  0.2522 -0.2046
  169SAPE   HN118966   4.445   5.415   1.920 -0.0448 -0.1618 -0.2687
  169SAPE   HN218967   4.586   5.361   1.990 -0.2882 -1.7754  0.2957
  169SAPE   HN318968   4.449   5.303   2.059 -0.1126  0.9048  0.7951
  169SAPE   C1218969   4.490   5.501   2.108 -0.1552 -0.3836  0.6934
  169SAPE  H12A18970   4.387   5.542   2.100  0.2568  0.6617  0.5404
  169SAPE  H12B18971   4.562   5.579   2.076 -0.9264 -0.1786 -0.6211
  169SAPE   C1118972   4.534   5.461   2.256  0.6772 -0.1385 -0.0813
  169SAPE  H11A18973   4.442   5.414   2.297  0.3580  1.3584  1.0188
  169SAPE  H11B18974   4.550   5.553   2.316  1.6247 -0.0461 -0.4583
  169SAPE     P18975   4.763   5.376   2.354  0.2194  0.2405  0.0204
  169SAPE   O1318976   4.820   5.239   2.366 -0.2847 -0.5349 -0.0836
  169SAPE   O1418977   4.854   5.477   2.297  0.2079  0.6181  0.2763
  169SAPE   O1218978   4.643   5.363   2.255  0.3971 -0.3427 -0.2748
  169SAPE   O1118979   4.706   5.422   2.496  0.1698  0.5395  0.2024
  169SAPE    C118980   4.577   5.409   2.555 -0.8776 -0.0834 -0.2944
  169SAPE    HA18981   4.534   5.512   2.550 -0.4122  0.2345  1.5590
  169SAPE    HB18982   4.517   5.337   2.495 -3.2786  2.8071 -1.6570
  169SAPE    C218983   4.583   5.353   2.696 -0.2862  0.3731  0.3661
  169SAPE    HS18984   4.479   5.351   2.735 -0.5242 -0.2699 -0.2850
  169SAPE   O2118985   4.664   5.431   2.790 -0.1147 -0.3834  0.1194
  169SAPE   C2118986   4.607   5.548   2.825  0.7084  0.4612 -0.3993
  169SAPE   O2218987   4.499   5.590   2.788 -0.0130  0.4535  0.1473
  169SAPE   C2218988   4.699   5.616   2.924 -0.4279 -0.6133 -0.0131
  169SAPE   H2R18989   4.776   5.543   2.955 -0.3219 -0.8857 -0.8852
  169SAPE   H2S18990   4.743   5.704   2.872 -2.2283  0.9217  0.9000
  169SAPE    C318991   4.642   5.210   2.699  0.4882 -0.5185 -0.4756
  169SAPE    HX18992   4.729   5.205   2.630  1.2611 -0.6532  0.4886
  169SAPE    HY18993   4.564   5.152   2.644  0.7318 -1.9816  0.6715
  169SAPE   O3118994   4.657   5.159   2.832  0.0117 -0.5342  0.2518
  169SAPE   C3118995   4.778   5.177   2.883 -0.0665  0.0677  0.0314
  169SAPE   O3218996   4.872   5.221   2.815 -0.4018 -0.3550 -0.0888
  169SAPE   C3218997   4.780   5.148   3.034 -0.5672 -0.4683  0.0395
  169SAPE   H2X18998   4.687   5.190   3.077 -0.9434 -0.0572 -1.1397
  169SAPE   H2Y18999   4.874   5.197   3.067 -1.3515  1.0136  0.1801
  169SAPE   C2319000   4.631   5.671   3.059  0.0179  0.4497  0.2781
  169SAPE   H3R19001   4.583   5.592   3.120 -0.8773  0.5660 -0.2550
  169SAPE   H3S19002   4.550   5.746   3.039 -0.6609 -0.8128 -2.1151
  169SAPE   C2419003   4.738   5.730   3.158  0.2934  0.0078 -0.0861
  169SAPE   H4R19004   4.815   5.650   3.156 -0.4132 -0.6753 -0.3335
  169SAPE   H4S19005   4.693   5.742   3.259 -1.8921 -3.8128 -0.4188
  169SAPE   C2519006   4.795   5.864   3.100  0.1055  0.4246 -0.2563
  169SAPE   H5R19007   4.717   5.937   3.075 -0.9462  0.3727  2.5718
  169SAPE   C2619008   4.923   5.891   3.079  0.5307 -0.0186  0.2259
  169SAPE   H6R19009   4.948   5.991   3.040 -1.6194 -0.3184 -2.2196
  169SAPE   C2719010   5.033   5.793   3.107 -0.1096  0.2764  0.3620
  169SAPE   H7R19011   5.023   5.746   3.207  0.7244  1.4856  1.0373
  169SAPE   H7S19012   5.130   5.846   3.107  1.2420 -2.0163 -1.8834
  169SAPE   C2819013   5.040   5.687   2.993 -0.0355 -0.1841 -0.2529
  169SAPE   H8R19014   5.002   5.723   2.896  1.4237  0.5224 -0.5917
  169SAPE   C2919015   5.074   5.557   3.007  0.1600  0.3565  0.9938
  169SAPE   H9R19016   5.064   5.502   2.913 -3.3971  1.9135  0.2782
  169SAPE  C21019017   5.131   5.494   3.130 -0.8212  0.5174 -0.2127
  169SAPE  H10R19018   5.163   5.562   3.211  0.7918  1.1170 -1.3041
  169SAPE  H10S19019   5.227   5.448   3.098 -1.6344  0.5174 -2.8912
  169SAPE  C21119020   5.045   5.380   3.198  0.5311  0.0134 -0.0379
  169SAPE  H11R19021   5.037   5.292   3.132  0.8413  0.2737 -0.4305
  169SAPE  C21219022   4.982   5.365   3.315 -0.2795 -0.5406 -0.9851
  169SAPE  H12R19023   4.928   5.275   3.346  0.6307 -1.3652 -1.7216
  169SAPE  C21319024   4.992   5.472   3.423 -0.6757 -0.2681 -0.3021
  169SAPE  H13R19025   4.896   5.494   3.474 -0.8150  0.7062 -0.9629
  169SAPE  H13S19026   5.014   5.567   3.371 -0.4260 -0.1567  0.0101
  169SAPE  C21419027   5.110   5.467   3.522 -0.6412 -0.2642  0.2019
  169SAPE  H14R19028   5.200   5.516   3.483 -0.3667 -1.8906 -1.3062
  169SAPE  C21519029   5.107   5.394   3.634 -0.7524  0.0147 -0.3429
  169SAPE  H15R19030   5.203   5.388   3.687 -0.5729  2.4727 -0.2828
  169SAPE  C21619031   4.995   5.302   3.682 -0.5164  0.2174  0.4755
  169SAPE  H16R19032   4.997   5.216   3.611 -1.1652  0.0561  0.6495
  169SAPE  H16S19033   4.899   5.357   3.674  0.2675  1.3565 -1.5898
  169SAPE  C21719034   5.018   5.248   3.822 -0.1700  0.3960 -0.3068
  169SAPE  H17R19035   5.123   5.213   3.813 -0.4198 -0.2187 -0.9629
  169SAPE  H17S19036   4.955   5.159   3.842  0.5325  0.1113  0.6874
  169SAPE  C21819037   4.989   5.352   3.939 -0.3838 -0.2806 -0.0709
  169SAPE  H18R19038   4.881   5.376   3.930 -0.2909  0.0579 -0.3445
  169SAPE  H18S19039   5.048   5.444   3.919  1.3395 -1.1298  0.8436
  169SAPE  C21919040   5.004   5.303   4.078  0.4162 -0.0640  0.3725
  169SAPE  H19R19041   5.108   5.267   4.091  0.1876 -0.9408 -0.0727
  169SAPE  H19S19042   4.941   5.215   4.106 -1.7651  1.5823  0.9391
  169SAPE  C22019043   4.969   5.421   4.169  0.4347  0.4455  0.5366
  169SAPE  H20R19044   4.864   5.453   4.152  0.6381  0.3094 -1.1041
  169SAPE  H20S19045   5.029   5.513   4.152 -0.2789  0.8656  0.2769
  169SAPE  H20T19046   4.978   5.391   4.276 -3.1771 -0.3236  0.7557
  169SAPE   C3319047   4.785   4.996   3.071 -0.3049  0.0094  0.0570
  169SAPE   H3X19048   4.851   4.946   2.997 -0.5566 -0.5394  0.1959
  169SAPE   H3Y19049   4.684   4.955   3.046  0.0470  0.6964 -2.7952
  169SAPE   C3419050   4.833   4.951   3.206 -0.2193 -0.2298 -0.1439
  169SAPE   H4X19051   4.816   4.842   3.217 -0.8590 -0.1177 -0.0060
  169SAPE   H4Y19052   4.785   4.999   3.293  2.0677  1.3673  0.3458
  169SAPE   C3519053   4.983   4.976   3.229  0.1780 -0.4056 -0.2455
  169SAPE   H5X19054   5.016   5.071   3.181 -1.3432 -0.2055 -0.9363
  169SAPE   H5Y19055   5.046   4.897   3.182  2.0016  0.2387  0.9751
  169SAPE   C3619056   5.008   4.993   3.381 -0.7037 -0.1949  0.7692
  169SAPE   H6X19057   4.939   5.073   3.416 -1.7214  1.3622 -4.0022
  169SAPE   H6Y19058   5.111   5.031   3.398 -0.7571  0.7123 -0.7097
  169SAPE   C3719059   5.000   4.864   3.453 -0.1755  0.0804 -0.0614
  169SAPE   H7X19060   5.082   4.793   3.427 -0.2971  0.3518 -1.2363
  169SAPE   H7Y19061   4.907   4.809   3.424  0.9356 -1.3000 -1.1379
  169SAPE   C3819062   5.000   4.882   3.608  0.2515  0.3303 -0.3119
  169SAPE   H8X19063   4.913   4.948   3.628  0.7941  1.4414 -1.5498
  169SAPE   H8Y19064   5.093   4.930   3.644 -0.2583  1.6299 -0.6990
  169SAPE   C3919065   4.964   4.756   3.692 -0.3942 -0.1247 -0.3016
  169SAPE   H9X19066   4.903   4.686   3.629 -1.5639  0.1053  0.5438
  169SAPE   H9Y19067   4.894   4.782   3.774 -0.0792  1.9391 -0.6341
  169SAPE  C31019068   5.076   4.674   3.746 -0.4574 -0.5284  0.9226
  169SAPE  H10X19069   5.139   4.738   3.812  1.4297 -1.1407 -0.1973
  169SAPE  H10Y19070   5.140   4.636   3.664 -0.8220  1.5018 -0.3635
  169SAPE  C31119071   5.026   4.561   3.835  0.3358  0.2560 -0.6706
  169SAPE  H11X19072   4.957   4.504   3.768 -1.7481  4.0360 -2.0184
  169SAPE  H11Y19073   4.952   4.600   3.908 -1.2161 -1.6702 -1.0929
  169SAPE  C31219074   5.133   4.480   3.906 -0.2849 -0.0317  0.3800
  169SAPE  H12X19075   5.192   4.532   3.985  1.4516 -0.5437 -0.5128
  169SAPE  H12Y19076   5.210   4.447   3.832 -0.6266 -0.1545  0.0774
  169SAPE  C31319077   5.067   4.373   3.989  0.3221 -0.6245  0.2858
  169SAPE  H13X19078   4.993   4.339   3.914  0.1884  2.6391 -1.2291
  169SAPE  H13Y19079   5.012   4.413   4.077  3.3256  1.2813  1.4676
  169SAPE  C31419080   5.161   4.265   4.041 -0.5259  0.4815 -0.2618
  169SAPE  H14X19081   5.237   4.304   4.113 -1.0604  0.9709  0.0473
  169SAPE  H14Y19082   5.211   4.229   3.948  0.1026 -2.1253  0.9961
  169SAPE  C31519083   5.106   4.134   4.098 -0.3279 -0.1601  0.0901
  169SAPE  H15X19084   5.178   4.061   4.056 -0.6790  0.6111 -1.9393
  169SAPE  H15Y19085   5.002   4.109   4.069 -0.7485 -2.1838  2.8617
  169SAPE  C31619086   5.117   4.112   4.247  0.2728  0.0360 -0.3759
  169SAPE  H16X19087   5.036   4.167   4.299  2.0668  1.3836  1.1834
  169SAPE  H16Y19088   5.212   4.157   4.285  0.8720 -2.1574  0.8907
  169SAPE  C31719089   5.114   3.960   4.282 -0.0661  0.1140  0.2482
  169SAPE  H17X19090   5.196   3.904   4.233  1.4337  3.8818 -2.0060
  169SAPE  H17Y19091   5.028   3.925   4.221 -0.3500  2.1508 -0.6066
  169SAPE  C31819092   5.114   3.921   4.429  0.1611 -0.0640  0.0254
  169SAPE  H18X19093   5.078   3.816   4.439 -4.1506  1.0764 -1.2029
  169SAPE  H18Y19094   5.048   3.986   4.491  2.1754 -0.6589  3.0124
  169SAPE  H18Z19095   5.215   3.931   4.475  0.1174 -0.2086  0.1527
  170SAPE     N19096   0.332   1.071   2.289 -0.5699  0.1994  0.0945
  170SAPE   HN119097   0.421   1.048   2.238  0.6797  2.0492  1.3221
  170SAPE   HN219098   0.272   0.987   2.281 -0.2509  0.0283 -0.6510
  170SAPE   HN319099   0.287   1.150   2.237  0.3442 -0.3187 -1.5663
  170SAPE   C1219100   0.356   1.106   2.429 -0.4181  0.3450 -0.5621
  170SAPE  H12A19101   0.263   1.116   2.490  0.2344 -0.7645  0.6920
  170SAPE  H12B19102   0.412   1.201   2.440  1.1075 -0.7495  2.1435
  170SAPE   C1119103   0.451   0.995   2.489 -0.1633  0.3274 -0.5264
  170SAPE  H11A19104   0.479   1.042   2.586 -0.1137 -0.7191 -0.0111
  170SAPE  H11B19105   0.542   0.993   2.425 -0.6203  1.8460 -1.2556
  170SAPE     P19106   0.411   0.750   2.421  0.3734  0.5274 -0.0569
  170SAPE   O1319107   0.344   0.626   2.470 -0.0499  0.1645  0.5596
  170SAPE   O1419108   0.374   0.783   2.284 -0.4110  0.6519 -0.1806
  170SAPE   O1219109   0.377   0.872   2.514  0.3118 -1.2288  0.5926
  170SAPE   O1119110   0.570   0.747   2.434  0.6323  0.3896 -0.1189
  170SAPE    C119111   0.644   0.658   2.519  0.2250 -0.2539 -0.2702
  170SAPE    HA19112   0.596   0.558   2.510 -0.5884  0.1259 -0.1858
  170SAPE    HB19113   0.742   0.633   2.471  0.0444  0.8168 -1.2350
  170SAPE    C219114   0.660   0.700   2.672  0.3914  0.7421  0.7677
  170SAPE    HS19115   0.732   0.626   2.711  0.0567 -0.7699 -1.2635
  170SAPE   O2119116   0.543   0.708   2.747 -0.3525  0.0129 -0.0738
  170SAPE   C2119117   0.492   0.589   2.778 -0.8411  0.0092 -0.0922
  170SAPE   O2219118   0.531   0.483   2.739  0.0032  0.5171 -0.6098
  170SAPE   C2219119   0.372   0.599   2.877  0.1175 -0.0937 -0.4593
  170SAPE   H2R19120   0.288   0.632   2.813  1.2647  2.2416 -0.8737
  170SAPE   H2S19121   0.340   0.500   2.915 -0.1916  0.9686  2.2788
  170SAPE    C319122   0.728   0.838   2.680 -1.1176  1.0032 -0.0928
  170SAPE    HX19123   0.649   0.916   2.684 -1.2952  0.7820  1.3312
  170SAPE    HY19124   0.800   0.858   2.598  0.9060 -0.2506  1.2635
  170SAPE   O3119125   0.809   0.843   2.804  0.3237  0.1374  0.3323
  170SAPE   C3119126   0.921   0.775   2.818 -0.0755 -0.4467  0.2789
  170SAPE   O3219127   0.970   0.701   2.733  0.1264  0.1765 -0.0961
  170SAPE   C3219128   0.977   0.796   2.958 -0.0945  0.0590 -0.2802
  170SAPE   H2X19129   0.972   0.704   3.021  1.4356 -0.0673 -0.3161
  170SAPE   H2Y19130   0.912   0.875   3.003 -0.0353 -0.7009  1.1854
  170SAPE   C2319131   0.397   0.682   3.004  0.2801  0.6772  0.0120
  170SAPE   H3R19132   0.296   0.672   3.048  0.1802 -0.7219 -0.4589
  170SAPE   H3S19133   0.403   0.791   2.988  1.0093  0.7471  0.7028
  170SAPE   C2419134   0.503   0.633   3.109  0.3858  0.9712 -0.2449
  170SAPE   H4R19135   0.478   0.677   3.208  1.3798  1.3882 -0.1710
  170SAPE   H4S19136   0.597   0.683   3.076 -0.3233  1.0960 -2.2615
  170SAPE   C2519137   0.526   0.483   3.126  0.3930 -0.7544  0.1794
  170SAPE   H5R19138   0.565   0.436   3.034 -0.3488  2.5122 -1.9567
  170SAPE   C2619139   0.513   0.401   3.229  0.0585  0.0884  0.5053
  170SAPE   H6R19140   0.539   0.295   3.224 -0.2090  0.0852 -1.5754
  170SAPE   C2719141   0.461   0.448   3.358  0.3123 -0.3557  0.0012
  170SAPE   H7R19142   0.397   0.367   3.398  1.1641 -1.0098  0.0703
  170SAPE   H7S19143   0.414   0.548   3.344 -0.3597 -0.6412  0.1725
  170SAPE   C2819144   0.582   0.464   3.454  0.3088 -0.2281  0.3137
  170SAPE   H8R19145   0.681   0.422   3.431  0.2150  0.4217 -1.4494
  170SAPE   C2919146   0.569   0.523   3.575  0.3223 -0.5493  0.5299
  170SAPE   H9R19147   0.666   0.533   3.626  0.7882 -1.6749 -0.0825
  170SAPE  C21019148   0.454   0.596   3.643  0.4454 -0.0608  0.0332
  170SAPE  H10R19149   0.354   0.591   3.596  0.9552  0.8861 -1.1933
  170SAPE  H10S19150   0.486   0.702   3.638 -2.4038  1.0280  2.1522
  170SAPE  C21119151   0.451   0.534   3.782 -0.3904  0.1101 -0.5344
  170SAPE  H11R19152   0.406   0.433   3.786  0.9254 -0.4983 -0.5135
  170SAPE  C21219153   0.509   0.582   3.895  0.2152  0.2718 -0.5127
  170SAPE  H12R19154   0.500   0.534   3.994 -0.1924  1.4183  0.0216
  170SAPE  C21319155   0.593   0.709   3.897  0.1449  0.2619  0.3345
  170SAPE  H13R19156   0.558   0.788   3.827  0.9225  1.0750  0.8455
  170SAPE  H13S19157   0.695   0.679   3.866 -0.6374 -0.6372 -1.5537
  170SAPE  C21419158   0.603   0.774   4.033  0.7039 -0.0213  0.4446
  170SAPE  H14R19159   0.510   0.815   4.074 -0.8771 -2.7089 -0.2546
  170SAPE  C21519160   0.717   0.783   4.102  0.2115 -0.2267 -0.1696
  170SAPE  H15R19161   0.706   0.813   4.208 -0.6546 -0.6879 -0.1240
  170SAPE  C21619162   0.856   0.747   4.067 -0.4517  0.3021 -0.3240
  170SAPE  H16R19163   0.894   0.810   3.984 -2.9102 -0.5765 -2.2419
  170SAPE  H16S19164   0.872   0.639   4.043 -1.9027  0.1104 -0.5257
  170SAPE  C21719165   0.948   0.781   4.189 -0.0317  0.5678  0.6724
  170SAPE  H17R19166   0.901   0.751   4.285 -0.5738 -0.8879 -0.0220
  170SAPE  H17S19167   0.961   0.891   4.201  0.9822  0.1977  4.0787
  170SAPE  C21819168   1.083   0.715   4.178 -0.5186 -0.0862  0.5033
  170SAPE  H18R19169   1.143   0.761   4.097 -0.3414  0.3305  0.8702
  170SAPE  H18S19170   1.069   0.605   4.164  0.5949 -0.1402 -0.2869
  170SAPE  C21919171   1.179   0.718   4.301 -0.2195  0.0194  0.2594
  170SAPE  H19R19172   1.209   0.824   4.315  1.0429 -0.1961 -0.6279
  170SAPE  H19S19173   1.259   0.654   4.258  1.4872 -0.0158  3.1686
  170SAPE  C22019174   1.123   0.652   4.431 -0.7827 -0.0758  0.4397
  170SAPE  H20R19175   1.022   0.686   4.463 -0.6492 -0.6791  1.5277
  170SAPE  H20S19176   1.197   0.660   4.513 -2.2715  1.8621  1.6741
  170SAPE  H20T19177   1.124   0.543   4.409  0.0514 -0.0895  0.4876
  170SAPE   C3319178   1.118   0.844   2.951 -0.0593 -0.2617  0.3075
  170SAPE   H3X19179   1.129   0.925   2.875 -0.5309  0.4009  0.9312
  170SAPE   H3Y19180   1.191   0.764   2.924  1.5625  1.1176  0.4044
  170SAPE   C3419181   1.175   0.898   3.089  0.6232  0.5061  0.3563
  170SAPE   H4X19182   1.130   0.994   3.121  0.1498  0.8390 -1.2324
  170SAPE   H4Y19183   1.282   0.916   3.066  0.1391  0.5058 -2.2676
  170SAPE   C3519184   1.159   0.798   3.210  0.3498 -1.0174 -0.3334
  170SAPE   H5X19185   1.234   0.828   3.287  0.6804 -0.1076 -0.9911
  170SAPE   H5Y19186   1.179   0.694   3.174  0.0196 -1.3693  0.4716
  170SAPE   C3619187   1.029   0.814   3.284  0.6721  0.8033  0.3129
  170SAPE   H6X19188   0.946   0.780   3.218  1.4411 -1.6868  0.5065
  170SAPE   H6Y19189   1.009   0.922   3.297 -0.4440  0.7959 -1.1368
  170SAPE   C3719190   1.032   0.756   3.426  0.3789  0.0300  0.3171
  170SAPE   H7X19191   1.081   0.833   3.489  1.6406 -1.5936  1.4131
  170SAPE   H7Y19192   1.090   0.661   3.426  0.2144 -0.0711  0.2132
  170SAPE   C3819193   0.890   0.720   3.475  0.5154  0.8504  0.0640
  170SAPE   H8X19194   0.854   0.635   3.413 -0.2259  0.9109  0.4025
  170SAPE   H8Y19195   0.824   0.807   3.452  0.5449  0.6553 -0.8229
  170SAPE   C3919196   0.901   0.675   3.619  0.0951  0.6644 -0.0373
  170SAPE   H9X19197   0.805   0.684   3.674 -0.9278  0.8997 -1.8013
  170SAPE   H9Y19198   0.977   0.737   3.671 -0.8593  1.0807  0.9030
  170SAPE  C31019199   0.935   0.534   3.627 -1.0165  0.0288 -0.8545
  170SAPE  H10X19200   1.032   0.511   3.577  0.1604 -0.8309  1.6483
  170SAPE  H10Y19201   0.859   0.466   3.584 -0.1303 -0.7151 -1.2957
  170SAPE  C31119202   0.958   0.499   3.775  0.2742 -1.0925  0.7000
  170SAPE  H11X19203   0.857   0.512   3.819 -0.1121  1.3791 -0.7540
  170SAPE  H11Y19204   1.035   0.572   3.808 -0.6919  1.4365 -2.1533
  170SAPE  C31219205   1.009   0.358   3.803  0.1029  0.0562 -0.2507
  170SAPE  H12X19206   1.114   0.361   3.766 -0.4257  0.6753 -1.8199
  170SAPE  H12Y19207   0.958   0.283   3.738 -0.7417 -2.0737  2.6910
  170SAPE  C31319208   1.015   0.315   3.950  1.0657  0.0072 -0.0722
  170SAPE  H13X19209   1.071   0.385   4.015 -0.8797 -0.6964  2.5383
  170SAPE  H13Y19210   1.052   0.211   3.967  2.4040  0.6778  1.3860
  170SAPE  C31419211   0.870   0.322   4.026 -0.6500  0.0592 -0.0950
  170SAPE  H14X19212   0.806   0.246   3.976 -1.5720  2.0779 -2.1476
  170SAPE  H14Y19213   0.847   0.430   4.020 -0.0049  0.3144  1.5507
  170SAPE  C31519214   0.886   0.288   4.171 -0.1653 -0.2577  0.1161
  170SAPE  H15X19215   0.960   0.356   4.219  1.6334 -0.7800 -1.7635
  170SAPE  H15Y19216   0.920   0.183   4.182 -1.4899 -0.7116  0.0857
  170SAPE  C31619217   0.742   0.297   4.245 -0.4480  0.3172 -0.0077
  170SAPE  H16X19218   0.760   0.255   4.346  2.1470 -0.9911 -0.9492
  170SAPE  H16Y19219   0.659   0.248   4.189 -1.6868  2.8249 -0.5091
  170SAPE  C31719220   0.697   0.444   4.245 -0.3699  0.4803  0.0513
  170SAPE  H17X19221   0.681   0.469   4.138 -0.0790 -0.5729 -0.2476
  170SAPE  H17Y19222   0.782   0.501   4.288  0.3210 -1.2702  1.1233
  170SAPE  C31819223   0.575   0.480   4.324 -0.0887  0.1416 -0.1802
  170SAPE  H18X19224   0.584   0.453   4.431 -0.9715  1.1487  0.1647
  170SAPE  H18Y19225   0.487   0.423   4.288  0.5159 -0.1948 -1.1794
  170SAPE  H18Z19226   0.548   0.588   4.325 -1.2516 -0.1384  1.1214
  171SAPE     N19227   5.384   4.864   2.342  0.2947 -0.0871  0.6601
  171SAPE   HN119228   5.295   4.828   2.302  0.6920 -0.2247 -0.1232
  171SAPE   HN219229   5.419   4.955   2.305  1.6443 -0.9057 -0.2092
  171SAPE   HN319230   5.457   4.793   2.320 -0.8913 -2.1502  2.9339
  171SAPE   C1219231   5.374   4.859   2.489  0.2465 -0.8834 -0.1516
  171SAPE  H12A19232   5.291   4.926   2.520  0.7460 -1.4479  2.6354
  171SAPE  H12B19233   5.459   4.892   2.552 -1.3902  3.4051  0.0931
  171SAPE   C1119234   5.331   4.719   2.540  0.1089 -0.2950  0.1643
  171SAPE  H11A19235   5.286   4.719   2.642 -0.0971  0.4792  0.0855
  171SAPE  H11B19236   5.423   4.659   2.554 -0.0674  0.0423  4.0990
  171SAPE     P19237   5.156   4.522   2.494 -0.2691  0.2426 -0.1619
  171SAPE   O1319238   5.040   4.565   2.572 -0.1719  0.5460 -0.4539
  171SAPE   O1419239   5.139   4.428   2.383 -0.2817 -0.0411  1.0123
  171SAPE   O1219240   5.244   4.643   2.448 -0.5475 -0.4283 -0.2433
  171SAPE   O1119241   5.268   4.465   2.584 -0.2116 -0.2611 -0.2159
  171SAPE    C119242   5.221   4.353   2.667 -0.7224 -0.2209 -0.4621
  171SAPE    HA19243   5.124   4.305   2.643 -0.4936 -2.2107  2.1918
  171SAPE    HB19244   5.296   4.271   2.659 -1.1897 -0.7091  0.0842
  171SAPE    C219245   5.203   4.405   2.813 -0.6130 -0.7222  0.7942
  171SAPE    HS19246   5.135   4.492   2.822  0.1956  0.0347 -0.2331
  171SAPE   O2119247   5.339   4.444   2.865  0.0081  0.1321  0.3939
  171SAPE   C2119248   5.341   4.557   2.936 -0.2981  0.2527 -0.4027
  171SAPE   O2219249   5.249   4.637   2.944  0.0293 -0.3299  0.0044
  171SAPE   C2219250   5.472   4.572   3.010 -0.8720 -0.7677 -0.3363
  171SAPE   H2R19251   5.517   4.473   3.029 -0.4248 -0.0924  2.6055
  171SAPE   H2S19252   5.541   4.629   2.944  0.1615 -1.4149  0.1560
  171SAPE    C319253   5.148   4.298   2.907  0.2673  0.0266 -0.5599
  171SAPE    HX19254   5.221   4.214   2.907  1.1262  0.7719 -0.4508
  171SAPE    HY19255   5.057   4.247   2.867 -0.9781 -1.6175  3.7335
  171SAPE   O3119256   5.128   4.346   3.039 -0.1286  0.8093  0.1263
  171SAPE   C3119257   5.017   4.424   3.057 -1.0126 -0.0302  0.3252
  171SAPE   O3219258   4.932   4.445   2.973 -0.2409 -0.4559  0.0084
  171SAPE   C3219259   5.042   4.498   3.185  0.1571 -0.4644 -0.0579
  171SAPE   H2X19260   5.093   4.594   3.163  1.4186 -1.1558 -0.2120
  171SAPE   H2Y19261   5.122   4.443   3.238  0.1601 -1.4595 -1.0634
  171SAPE   C2319262   5.447   4.628   3.153 -0.0128 -0.7239 -0.1632
  171SAPE   H3R19263   5.372   4.711   3.148  0.6327 -0.1255 -0.0527
  171SAPE   H3S19264   5.539   4.677   3.190  0.2094  0.1667 -1.7932
  171SAPE   C2419265   5.403   4.528   3.261 -0.2815  0.3174  0.1391
  171SAPE   H4R19266   5.490   4.463   3.286 -2.3114 -3.1085 -0.9711
  171SAPE   H4S19267   5.340   4.460   3.200  0.9837  0.4969 -1.4565
  171SAPE   C2519268   5.345   4.603   3.377 -0.0135  0.3811  0.4871
  171SAPE   H5R19269   5.245   4.648   3.368  0.1469  0.4369 -1.3650
  171SAPE   C2619270   5.411   4.604   3.499  0.1501  0.2554  0.2072
  171SAPE   H6R19271   5.367   4.652   3.588 -0.6772  2.0802 -1.1080
  171SAPE   C2719272   5.549   4.550   3.526  0.7293  0.6924 -0.5070
  171SAPE   H7R19273   5.599   4.600   3.612 -1.1715  1.3384  0.2785
  171SAPE   H7S19274   5.621   4.585   3.449  1.9427  0.6119  0.5666
  171SAPE   C2819275   5.558   4.402   3.555 -0.1547  0.2072 -0.6727
  171SAPE   H8R19276   5.470   4.345   3.522  0.7345 -0.6562 -1.6120
  171SAPE   C2919277   5.644   4.337   3.637  0.1380  0.2200 -0.6098
  171SAPE   H9R19278   5.622   4.232   3.660 -1.2816  0.5163 -0.5204
  171SAPE  C21019279   5.773   4.388   3.697  1.2395 -0.1729 -0.0032
  171SAPE  H10R19280   5.781   4.497   3.674 -0.3725 -0.0245  0.0204
  171SAPE  H10S19281   5.858   4.333   3.652 -1.0283 -2.5160 -1.7428
  171SAPE  C21119282   5.757   4.381   3.844 -0.7458  0.8487 -0.4418
  171SAPE  H11R19283   5.684   4.453   3.884  0.2137  0.8403  1.4723
  171SAPE  C21219284   5.831   4.317   3.937 -0.3139  0.9358  0.6757
  171SAPE  H12R19285   5.812   4.326   4.045  0.1054 -0.7593  0.9129
  171SAPE  C21319286   5.949   4.224   3.909  0.0755 -0.2284  0.3404
  171SAPE  H13R19287   6.029   4.245   3.983 -1.9193  2.0869  2.0283
  171SAPE  H13S19288   5.994   4.255   3.812  1.0054 -1.2220  0.4407
  171SAPE  C21419289   5.916   4.077   3.908 -0.3690 -0.6488  0.4885
  171SAPE  H14R19290   5.868   4.036   3.999 -4.2521 -0.8180 -1.4061
  171SAPE  C21519291   5.921   3.993   3.796 -0.1080 -0.3044  0.0505
  171SAPE  H15R19292   5.902   3.885   3.807 -0.2655 -0.1415  1.6730
  171SAPE  C21619293   5.954   4.031   3.651 -1.0429  0.1151 -0.7060
  171SAPE  H16R19294   6.058   3.993   3.639 -0.7687  0.3427  0.7149
  171SAPE  H16S19295   5.970   4.140   3.635  0.8040 -0.3864 -2.6874
  171SAPE  C21719296   5.864   3.986   3.543  0.6774 -0.4041  0.1485
  171SAPE  H17R19297   5.761   4.020   3.565  0.8262  0.8384 -0.9511
  171SAPE  H17S19298   5.866   3.874   3.541  1.4776 -0.3875 -0.3610
  171SAPE  C21819299   5.900   4.040   3.410 -0.2879 -0.4427 -0.0257
  171SAPE  H18R19300   5.864   3.963   3.339  1.0881 -2.1809  1.0724
  171SAPE  H18S19301   6.012   4.043   3.410 -0.1653 -3.0108 -0.0715
  171SAPE  C21919302   5.859   4.183   3.382  0.6750  0.1104 -0.3361
  171SAPE  H19R19303   5.911   4.241   3.461  2.2485 -0.7249 -0.7121
  171SAPE  H19S19304   5.755   4.196   3.419  1.3538 -0.1749  1.8184
  171SAPE  C22019305   5.894   4.244   3.248 -0.5286 -0.5956 -0.0810
  171SAPE  H20R19306   5.835   4.203   3.163 -3.1490  0.2031  1.2719
  171SAPE  H20S19307   6.003   4.234   3.225 -0.1248  0.6741  1.1837
  171SAPE  H20T19308   5.864   4.350   3.246 -1.5770 -0.8803  0.3944
  171SAPE   C3319309   4.920   4.539   3.278 -0.1851  0.2793  0.8147
  171SAPE   H3X19310   4.852   4.605   3.219  0.4191 -0.1355 -0.4008
  171SAPE   H3Y19311   4.958   4.607   3.357 -2.7994  4.0618 -0.8814
  171SAPE   C3419312   4.852   4.407   3.327 -0.7090 -0.2228 -0.0987
  171SAPE   H4X19313   4.791   4.364   3.245 -2.2811  1.4649  0.1167
  171SAPE   H4Y19314   4.778   4.429   3.408 -1.8491 -1.3973 -0.7779
  171SAPE   C3519315   4.941   4.299   3.395  0.4127 -0.1871 -0.1018
  171SAPE   H5X19316   5.033   4.271   3.340 -0.8423 -1.9975 -1.4034
  171SAPE   H5Y19317   4.869   4.215   3.399 -1.2326  1.1865  0.1537
  171SAPE   C3619318   4.998   4.342   3.536  0.9953  0.1441  0.0187
  171SAPE   H6X19319   4.914   4.371   3.602  0.1546 -1.0730 -0.4809
  171SAPE   H6Y19320   5.056   4.436   3.524 -1.7068  2.0435  0.8861
  171SAPE   C3719321   5.080   4.234   3.608 -0.0969  0.6601  0.0155
  171SAPE   H7X19322   5.121   4.290   3.695 -0.5152 -0.5582  1.0286
  171SAPE   H7Y19323   5.164   4.192   3.550  0.2168  3.7307 -2.0426
  171SAPE   C3819324   4.991   4.118   3.660  0.4575  0.5282  0.3627
  171SAPE   H8X19325   4.935   4.074   3.574  1.2080 -0.6992  0.4830
  171SAPE   H8Y19326   4.923   4.155   3.739 -2.4313  0.1167 -1.7555
  171SAPE   C3919327   5.081   4.010   3.713  0.5094  0.0301 -0.4986
  171SAPE   H9X19328   5.165   4.059   3.766  2.1353 -1.1372 -1.8991
  171SAPE   H9Y19329   5.133   3.946   3.639  0.2650  0.3228 -0.9257
  171SAPE  C31019330   5.011   3.911   3.809  0.5223 -0.6918  0.7601
  171SAPE  H10X19331   4.945   3.865   3.733  0.9769 -2.1760  1.2209
  171SAPE  H10Y19332   4.949   3.951   3.892 -0.7325  1.7685 -1.2231
  171SAPE  C31119333   5.102   3.802   3.854  0.1659 -0.6432  0.0635
  171SAPE  H11X19334   5.134   3.809   3.960 -0.2687  1.6469  0.0880
  171SAPE  H11Y19335   5.195   3.802   3.793  0.5869  0.0350  0.6982
  171SAPE  C31219336   5.027   3.655   3.853  0.2644  0.4353 -0.6158
  171SAPE  H12X19337   5.095   3.567   3.858 -0.1359  0.2066  2.6139
  171SAPE  H12Y19338   4.975   3.630   3.758  3.1993 -1.4334 -1.8809
  171SAPE  C31319339   4.927   3.647   3.970  0.4649 -0.0539  0.0447
  171SAPE  H13X19340   4.830   3.693   3.942 -0.0383 -0.8561  0.4308
  171SAPE  H13Y19341   4.968   3.697   4.060 -0.0316  0.5772 -0.0758
  171SAPE  C31419342   4.905   3.494   4.005  0.3439 -0.3374 -0.2789
  171SAPE  H14X19343   5.003   3.451   4.034  0.1123 -0.4299  0.3763
  171SAPE  H14Y19344   4.867   3.439   3.916 -0.0688 -2.4885  1.1821
  171SAPE  C31519345   4.803   3.473   4.123 -1.1628 -0.1695  0.4744
  171SAPE  H15X19346   4.707   3.515   4.087 -0.8831  1.8121  1.8886
  171SAPE  H15Y19347   4.844   3.536   4.205 -0.3441 -1.5830  1.1919
  171SAPE  C31619348   4.781   3.333   4.172  0.5597 -0.4044  0.0160
  171SAPE  H16X19349   4.866   3.300   4.236  1.4799 -0.2365 -1.0987
  171SAPE  H16Y19350   4.770   3.265   4.085 -2.4157 -2.3931  1.7388
  171SAPE  C31719351   4.651   3.314   4.250  0.3370  0.3173  0.1261
  171SAPE  H17X19352   4.611   3.409   4.292 -2.2081 -0.8903  0.6724
  171SAPE  H17Y19353   4.682   3.253   4.337  0.5109 -2.3349 -1.6566
  171SAPE  C31819354   4.543   3.257   4.165  0.1095  0.6052 -0.5426
  171SAPE  H18X19355   4.526   3.149   4.185 -1.4892  0.4141 -2.5725
  171SAPE  H18Y19356   4.540   3.278   4.056  0.7409  0.6116 -0.5613
  171SAPE  H18Z19357   4.444   3.291   4.204 -1.6112 -1.6187 -2.6918
  172SAPE     N19358   5.781   2.506   1.855  0.5090  0.0317 -0.5961
  172SAPE   HN119359   5.775   2.422   1.795 -2.9358  0.1369 -0.5639
  172SAPE   HN219360   5.695   2.558   1.831  2.7991  3.7951 -1.4985
  172SAPE   HN319361   5.857   2.573   1.833  0.1479 -0.0979 -2.3413
  172SAPE   C1219362   5.814   2.471   1.999  0.6814  0.2905  0.6793
  172SAPE  H12A19363   5.729   2.405   2.026 -0.9329  0.5770 -2.9824
  172SAPE  H12B19364   5.815   2.563   2.061  1.4854  0.2607  0.7149
  172SAPE   C1119365   5.950   2.404   2.019  0.0521  0.0943 -0.3482
  172SAPE  H11A19366   5.954   2.369   2.124 -1.1696 -1.3865 -0.7522
  172SAPE  H11B19367   6.020   2.488   1.999 -1.6634  2.2631  2.1379
  172SAPE     P19368   5.959   2.147   1.967  0.0239 -0.0962 -0.1722
  172SAPE   O1319369   5.818   2.122   1.997  0.3133  0.1468  0.4330
  172SAPE   O1419370   6.009   2.062   1.851 -0.1325 -0.1225 -0.3181
  172SAPE   O1219371   5.962   2.298   1.927  0.1793 -0.0291  0.6247
  172SAPE   O1119372   6.050   2.122   2.094 -0.5125 -0.8089  0.1312
  172SAPE    C119373   5.999   2.068   2.217 -0.2614  0.3504  0.2596
  172SAPE    HA19374   5.926   2.139   2.260  0.6539  2.2648 -1.1764
  172SAPE    HB19375   5.940   1.978   2.192 -2.6585  2.5407 -2.7799
  172SAPE    C219376   6.112   2.039   2.318 -0.6275 -0.1176  0.1868
  172SAPE    HS19377   6.082   1.973   2.401  0.8064 -2.6400 -1.1854
  172SAPE   O2119378   6.182   2.164   2.363  0.0925  0.0713  0.3266
  172SAPE   C2119379   6.119   2.231   2.454  0.2058 -0.0858 -0.3647
  172SAPE   O2219380   6.008   2.203   2.500  0.1740 -0.6896 -0.0083
  172SAPE   C2219381   6.213   2.348   2.505  0.7331  0.1723  0.6112
  172SAPE   H2R19382   6.317   2.318   2.477  0.6946 -0.1738  0.8332
  172SAPE   H2S19383   6.189   2.438   2.445  0.9436 -1.2562 -1.7660
  172SAPE    C319384   6.215   1.950   2.244 -0.6801  0.7735 -0.3177
  172SAPE    HX19385   6.249   2.008   2.155 -0.3168  0.9189 -0.0855
  172SAPE    HY19386   6.182   1.852   2.202  5.3500 -2.1671  0.7259
  172SAPE   O3119387   6.312   1.919   2.349  0.1256  0.6728 -0.3144
  172SAPE   C3119388   6.439   1.962   2.331  0.3667  0.2660  0.7266
  172SAPE   O3219389   6.482   2.014   2.231 -0.2873 -0.3723 -0.2076
  172SAPE   C3219390   6.505   1.939   2.468 -0.3544  0.1627  0.5893
  172SAPE   H2X19391   6.611   1.967   2.449 -1.1709  1.4176 -2.8801
  172SAPE   H2Y19392   6.499   1.831   2.494  0.6494 -0.0688 -0.1022
  172SAPE   C2319393   6.204   2.375   2.660 -0.1498  0.8649  0.6304
  172SAPE   H3R19394   6.302   2.413   2.696  0.1665  1.2741 -0.6258
  172SAPE   H3S19395   6.184   2.276   2.706 -3.3437  1.4443  0.7041
  172SAPE   C2419396   6.087   2.467   2.694 -0.7700 -0.0475  0.2438
  172SAPE   H4R19397   6.077   2.467   2.805 -3.1532 -0.0051  0.0674
  172SAPE   H4S19398   5.994   2.420   2.657 -0.9577 -0.8751  1.6918
  172SAPE   C2519399   6.095   2.605   2.648 -0.1235  0.2680 -0.1913
  172SAPE   H5R19400   6.084   2.618   2.539  0.4918 -0.6289 -0.3735
  172SAPE   C2619401   6.120   2.712   2.722 -0.1941 -0.2535 -0.6326
  172SAPE   H6R19402   6.128   2.805   2.663  1.0086 -1.4007 -2.3750
  172SAPE   C2719403   6.154   2.722   2.870 -0.6291 -0.7765 -0.6389
  172SAPE   H7R19404   6.151   2.830   2.896  0.0347 -0.7425 -0.6816
  172SAPE   H7S19405   6.263   2.707   2.882 -0.7471  0.0719  2.4185
  172SAPE   C2819406   6.073   2.653   2.974  0.3453 -0.3885 -0.6503
  172SAPE   H8R19407   5.965   2.677   2.972  0.0241 -1.7585 -0.5676
  172SAPE   C2919408   6.127   2.574   3.074  0.1182  0.1843  0.1706
  172SAPE   H9R19409   6.048   2.532   3.138 -0.9337  1.0050 -0.5555
  172SAPE  C21019410   6.270   2.543   3.105  0.5745  0.6296  0.3648
  172SAPE  H10R19411   6.334   2.549   3.014 -0.4676 -1.3300 -0.5609
  172SAPE  H10S19412   6.270   2.434   3.121  0.9450  0.2671 -1.7493
  172SAPE  C21119413   6.327   2.620   3.220 -0.4871 -0.2444  0.2158
  172SAPE  H11R19414   6.404   2.690   3.184 -0.5480 -1.7006 -3.1629
  172SAPE  C21219415   6.303   2.608   3.356  1.3054  0.5265 -0.2375
  172SAPE  H12R19416   6.349   2.675   3.430  0.4341  0.7900  0.0854
  172SAPE  C21319417   6.199   2.514   3.409 -0.1352 -0.4693 -0.3462
  172SAPE  H13R19418   6.236   2.438   3.482 -0.0838  2.1923  2.6332
  172SAPE  H13S19419   6.146   2.458   3.330  2.8246 -0.1347 -2.7440
  172SAPE  C21419420   6.090   2.588   3.486  0.0233  0.6280 -0.1121
  172SAPE  H14R19421   6.001   2.617   3.427 -1.0225  0.7767  1.4655
  172SAPE  C21519422   6.087   2.631   3.617 -0.0638  0.8646  0.8359
  172SAPE  H15R19423   6.002   2.686   3.659 -0.1308  1.7514 -0.4284
  172SAPE  C21619424   6.193   2.603   3.717  0.3207 -0.2608 -0.2237
  172SAPE  H16R19425   6.195   2.682   3.795 -0.5072 -1.9523  1.6097
  172SAPE  H16S19426   6.288   2.588   3.662 -0.8774  0.0677 -2.5038
  172SAPE  C21719427   6.177   2.476   3.805  0.4138 -0.8691  0.1938
  172SAPE  H17R19428   6.274   2.463   3.858 -0.2212 -1.5317  1.2116
  172SAPE  H17S19429   6.166   2.394   3.730  0.9551 -0.9677  0.2127
  172SAPE  C21819430   6.057   2.461   3.906 -1.0464  0.2217 -0.1768
  172SAPE  H18R19431   5.967   2.467   3.840  0.3126  0.0903 -2.1449
  172SAPE  H18S19432   6.056   2.544   3.980  1.2228 -0.3849  0.6275
  172SAPE  C21919433   6.052   2.327   3.983 -0.0191 -0.6234  0.1204
  172SAPE  H19R19434   6.146   2.304   4.037  0.2599 -2.3750 -1.0438
  172SAPE  H19S19435   6.042   2.246   3.908 -0.8565 -0.9644  0.5914
  172SAPE  C22019436   5.933   2.328   4.082 -0.1795 -0.0796  0.0288
  172SAPE  H20R19437   5.909   2.235   4.138 -0.4397  1.1064  1.9973
  172SAPE  H20S19438   5.843   2.355   4.023  0.6546  0.1594 -1.1590
  172SAPE  H20T19439   5.950   2.411   4.154  2.1772 -1.0513  0.6806
  172SAPE   C3319440   6.456   2.036   2.572 -0.2230 -0.8131 -0.5966
  172SAPE   H3X19441   6.346   2.039   2.587 -0.2209  0.6862 -0.7239
  172SAPE   H3Y19442   6.485   2.139   2.541 -1.5870  0.0557  0.8418
  172SAPE   C3419443   6.517   2.004   2.712  0.7595 -0.1528 -0.1424
  172SAPE   H4X19444   6.626   1.983   2.704  0.4512 -1.7349 -0.6354
  172SAPE   H4Y19445   6.478   1.906   2.748 -0.3236 -0.4423 -1.9644
  172SAPE   C3519446   6.477   2.112   2.817  0.4383  0.2460  0.2276
  172SAPE   H5X19447   6.367   2.099   2.820  0.5724 -0.9042  1.8507
  172SAPE   H5Y19448   6.503   2.213   2.780 -1.4250  0.6850  0.0064
  172SAPE   C3619449   6.531   2.090   2.961 -0.3239 -0.3172 -0.2809
  172SAPE   H6X19450   6.621   2.153   2.976 -0.2650 -0.0493 -1.5870
  172SAPE   H6Y19451   6.551   1.986   2.993  1.1034  1.0830  4.1516
  172SAPE   C3719452   6.432   2.140   3.070  0.3013  0.2216  0.1107
  172SAPE   H7X19453   6.340   2.080   3.056 -1.2468  2.1871  1.2621
  172SAPE   H7Y19454   6.386   2.239   3.044 -1.7579 -0.8308 -0.5085
  172SAPE   C3819455   6.482   2.158   3.214 -0.0437 -0.2588 -0.2304
  172SAPE   H8X19456   6.545   2.249   3.217  3.1734 -2.2753 -1.1137
  172SAPE   H8Y19457   6.550   2.072   3.233  2.0246  1.0213 -1.4594
  172SAPE   C3919458   6.378   2.164   3.327  0.0010  0.0154 -1.0903
  172SAPE   H9X19459   6.327   2.065   3.324 -3.1053  1.4897 -0.7548
  172SAPE   H9Y19460   6.295   2.238   3.322  0.3283  0.5880  1.0925
  172SAPE  C31019461   6.446   2.173   3.464 -0.0868 -0.5931  0.7207
  172SAPE  H10X19462   6.514   2.261   3.463 -0.0565 -0.6111  1.2546
  172SAPE  H10Y19463   6.511   2.085   3.482 -0.6940 -1.2519 -0.1986
  172SAPE  C31119464   6.359   2.166   3.584 -0.4989  0.5401 -0.5186
  172SAPE  H11X19465   6.295   2.078   3.562 -0.6817  0.9266 -1.5812
  172SAPE  H11Y19466   6.304   2.260   3.606  2.3374  2.2543 -0.2248
  172SAPE  C31219467   6.439   2.133   3.713 -0.1890 -0.0293 -0.0559
  172SAPE  H12X19468   6.526   2.201   3.725  0.0550 -0.5807  1.6371
  172SAPE  H12Y19469   6.473   2.027   3.706 -0.1555 -0.1400  1.4439
  172SAPE  C31319470   6.342   2.138   3.829  0.1998 -0.3719  0.3187
  172SAPE  H13X19471   6.271   2.055   3.811 -2.1566  1.6284 -0.1361
  172SAPE  H13Y19472   6.288   2.235   3.835  0.4751  0.0425 -2.6080
  172SAPE  C31419473   6.416   2.102   3.954  0.1486 -0.8824 -0.0635
  172SAPE  H14X19474   6.345   2.098   4.040 -0.7426 -0.0812 -0.7420
  172SAPE  H14Y19475   6.477   2.192   3.975 -0.4877 -0.5084  0.2098
  172SAPE  C31519476   6.517   1.984   3.956  0.1327 -0.0299 -0.4469
  172SAPE  H15X19477   6.604   1.980   3.887  1.4119 -0.8034  1.1274
  172SAPE  H15Y19478   6.455   1.897   3.927 -0.5113  0.0103  0.7513
  172SAPE  C31619479   6.564   1.971   4.101 -0.4689 -0.4140  0.5188
  172SAPE  H16X19480   6.578   1.865   4.129  0.0250 -0.5801 -0.3160
  172SAPE  H16Y19481   6.496   2.019   4.174 -1.2705 -2.4497  1.1521
  172SAPE  C31719482   6.690   2.060   4.116  0.2546  0.1232  0.6683
  172SAPE  H17X19483   6.700   2.092   4.223 -0.3295  0.9370  0.4910
  172SAPE  H17Y19484   6.671   2.154   4.059  0.4949 -1.3134 -1.9108
  172SAPE  C31819485   6.816   1.994   4.064 -0.2085 -0.2380  0.0487
  172SAPE  H18X19486   6.837   1.895   4.110  0.4213  0.6042  1.6581
  172SAPE  H18Y19487   6.901   2.062   4.080 -0.6316  0.9416 -2.3190
  172SAPE  H18Z19488   6.815   1.969   3.956  1.5501  1.4657 -0.4057
  173SLPC     N19489   1.704   5.949   6.987 -0.4301 -0.3781 -0.4697
  173SLPC   C1319490   1.768   6.049   7.080  0.1268  0.7271  0.2846
  173SLPC  H13A19491   1.744   6.027   7.183  0.0420 -2.0174 -0.2341
  173SLPC  H13B19492   1.875   6.058   7.068  0.0231 -0.6014 -2.7276
  173SLPC  H13C19493   1.731   6.150   7.069  0.0622  0.5810 -0.9836
  173SLPC   C1419494   1.557   5.935   7.022  0.2808 -0.2227 -0.5130
  173SLPC  H14A19495   1.543   5.954   7.128  2.0372 -2.1811  0.1424
  173SLPC  H14B19496   1.489   6.004   6.975 -0.7903 -1.0142 -0.1753
  173SLPC  H14C19497   1.522   5.833   7.010 -1.8458  0.3407  0.4019
  173SLPC   C1519498   1.776   5.824   7.001  0.0417  0.2715 -0.8154
  173SLPC  H15A19499   1.741   5.750   6.930  0.1832 -0.0735 -0.5260
  173SLPC  H15B19500   1.881   5.820   6.979  0.0785  0.5527 -0.6803
  173SLPC  H15C19501   1.772   5.784   7.101 -2.2777  1.3584 -0.4040
  173SLPC   C1219502   1.723   5.996   6.844 -0.1574  0.0929 -0.4750
  173SLPC  H12A19503   1.682   5.921   6.779 -0.4488  0.3979 -0.6484
  173SLPC  H12B19504   1.828   5.999   6.821  0.0926 -1.5637  0.2978
  173SLPC   C1119505   1.654   6.134   6.802  0.2197  0.2718  0.3893
  173SLPC  H11A19506   1.685   6.153   6.697 -0.4297  0.1881  0.1777
  173SLPC  H11B19507   1.692   6.212   6.871  1.4765 -2.0219  2.4738
  173SLPC     P19508   1.429   6.135   6.657  0.0505  0.4779  0.0875
  173SLPC   O1319509   1.508   6.041   6.570  0.2310  0.2500 -0.4134
  173SLPC   O1419510   1.285   6.093   6.689  0.1755  1.1122 -0.8006
  173SLPC   O1219511   1.510   6.134   6.801  0.2474  0.0598  0.1207
  173SLPC   O1119512   1.459   6.282   6.614 -0.4263  0.2492 -0.0368
  173SLPC    C119513   1.358   6.382   6.589  0.4339  0.9463 -0.5273
  173SLPC    HA19514   1.270   6.365   6.656  1.4937  2.3722  1.3176
  173SLPC    HB19515   1.401   6.480   6.619  1.1289  0.5015 -0.0526
  173SLPC    C219516   1.330   6.409   6.439  0.3431 -0.1709 -0.2914
  173SLPC    HS19517   1.304   6.307   6.401  0.4744 -0.7406  1.0822
  173SLPC   O2119518   1.432   6.479   6.369 -0.4194 -0.1377 -0.1462
  173SLPC   C2119519   1.475   6.434   6.255 -0.2974 -0.4655 -1.2534
  173SLPC   O2219520   1.425   6.334   6.202  0.2547 -0.5903 -0.5264
  173SLPC   C2219521   1.588   6.509   6.197 -1.0655  0.0815  0.7310
  173SLPC   H2R19522   1.541   6.594   6.143 -1.7337 -0.8320 -0.1734
  173SLPC   H2S19523   1.658   6.547   6.274 -1.8090  1.2224  0.8602
  173SLPC    C319524   1.193   6.493   6.433  0.1244 -0.2807  1.1418
  173SLPC    HX19525   1.206   6.591   6.484 -0.2066  0.0192  0.6554
  173SLPC    HY19526   1.108   6.451   6.489  0.4217 -1.0974  0.9967
  173SLPC   O3119527   1.162   6.513   6.294 -0.3002  0.4131  0.0099
  173SLPC   C3119528   1.109   6.422   6.223  0.1357 -0.0608  0.3257
  173SLPC   O3219529   1.073   6.310   6.266  0.0294  0.0504 -0.5597
  173SLPC   C3219530   1.092   6.464   6.079 -0.1354  0.4167  0.5142
  173SLPC   H2X19531   1.184   6.516   6.043  0.1129 -0.9776 -1.0127
  173SLPC   H2Y19532   1.014   6.542   6.086  0.0591  0.6718 -0.0723
  173SLPC   C2319533   1.664   6.436   6.083 -0.3485 -0.2339  0.4036
  173SLPC   H3R19534   1.597   6.395   6.005 -1.1189 -0.0520  0.9569
  173SLPC   H3S19535   1.724   6.351   6.121 -0.8146 -0.8283 -0.1784
  173SLPC   C2419536   1.762   6.535   6.017  0.1633  0.0833  0.1276
  173SLPC   H4R19537   1.835   6.467   5.968 -1.8807 -1.0194 -1.5356
  173SLPC   H4S19538   1.805   6.598   6.098  1.5127 -0.8184  0.1341
  173SLPC   C2519539   1.700   6.627   5.913  0.5544  0.5927 -0.5270
  173SLPC   H5R19540   1.785   6.692   5.884  1.0742  0.7383  1.2282
  173SLPC   H5S19541   1.622   6.678   5.972  2.1060  0.1350  2.0843
  173SLPC   C2619542   1.633   6.560   5.794  1.0552 -0.4423  0.5700
  173SLPC   H6R19543   1.590   6.645   5.736 -0.6177 -1.0912  0.7974
  173SLPC   H6S19544   1.551   6.494   5.828 -0.5169 -0.0815 -2.2217
  173SLPC   C2719545   1.729   6.474   5.707  0.2883 -0.2529 -0.0234
  173SLPC   H7R19546   1.756   6.385   5.769 -1.4947  0.1378  1.4055
  173SLPC   H7S19547   1.820   6.533   5.685 -0.4926  0.9387 -0.1539
  173SLPC   C2819548   1.657   6.423   5.580 -0.0110 -0.0960  0.8736
  173SLPC   H8R19549   1.599   6.498   5.522 -0.3048 -0.3615  0.8179
  173SLPC   H8S19550   1.586   6.349   5.622  0.2538 -0.9808 -0.1722
  173SLPC   C2919551   1.767   6.351   5.501  0.0406 -0.2650 -0.0392
  173SLPC   H9R19552   1.797   6.268   5.566  0.9693  0.5588  0.6166
  173SLPC  C21019553   1.803   6.373   5.379 -0.1621  0.0944  0.6562
  173SLPC  H10R19554   1.883   6.304   5.349 -0.8277 -0.8367  0.9919
  173SLPC  C21119555   1.746   6.481   5.282 -0.1731 -0.2913 -0.9796
  173SLPC  H11R19556   1.698   6.566   5.335  0.6432 -0.4491  0.0641
  173SLPC  H11S19557   1.665   6.425   5.232 -2.6593  1.2790  1.0316
  173SLPC  C21219558   1.859   6.536   5.202 -0.5993 -0.0961  0.5815
  173SLPC  H12R19559   1.949   6.576   5.250 -0.5697  0.9348 -0.3052
  173SLPC  C21319560   1.860   6.541   5.067  0.2465 -1.1844 -0.4846
  173SLPC  H13R19561   1.954   6.572   5.019  0.5153 -0.3956  0.5125
  173SLPC  C21419562   1.746   6.508   4.968  0.3889  0.1719  0.0691
  173SLPC  H14R19563   1.754   6.569   4.876 -2.1158  0.3391 -0.1090
  173SLPC  H14S19564   1.653   6.547   5.014  2.6654  4.9002  1.2641
  173SLPC  C21519565   1.742   6.364   4.943  0.9633  0.6998 -0.1806
  173SLPC  H15R19566   1.666   6.348   4.864  1.1628 -0.0898 -0.2165
  173SLPC  H15S19567   1.721   6.294   5.027 -0.8464 -0.3029 -1.4093
  173SLPC  C21619568   1.880   6.327   4.879  0.4495 -0.1483 -0.1226
  173SLPC  H16R19569   1.961   6.340   4.954 -0.7836  3.0820  0.7930
  173SLPC  H16S19570   1.877   6.396   4.793 -1.5988  0.8913  0.7136
  173SLPC  C21719571   1.899   6.182   4.837 -0.0571 -0.6003 -0.0598
  173SLPC  H17R19572   1.898   6.109   4.920  1.0636  0.4400  0.8907
  173SLPC  H17S19573   2.005   6.171   4.807 -0.4326 -2.4767 -0.8716
  173SLPC  C21819574   1.812   6.140   4.719 -0.1324 -0.0450  0.1761
  173SLPC  H18R19575   1.853   6.190   4.628  0.7071 -0.3734  0.3652
  173SLPC  H18S19576   1.704   6.157   4.738 -0.0664  1.7107 -0.7611
  173SLPC  H18T19577   1.824   6.033   4.693  0.2494  0.6570 -3.0599
  173SLPC   C3319578   1.052   6.337   5.999  0.3133 -0.2506  0.5369
  173SLPC   H3X19579   0.952   6.308   6.039 -0.5138  1.3568 -0.2799
  173SLPC   H3Y19580   1.112   6.246   6.020  0.9149 -0.1058 -0.4939
  173SLPC   C3419581   1.036   6.353   5.849 -0.3078 -0.3988 -0.0499
  173SLPC   H4X19582   0.976   6.445   5.829  1.2504  0.7221  0.2545
  173SLPC   H4Y19583   0.989   6.260   5.811  0.7610 -1.2539  0.6669
  173SLPC   C3519584   1.167   6.369   5.765  0.1234  0.1576 -0.1753
  173SLPC   H5X19585   1.238   6.286   5.786 -1.1610 -0.9246 -0.0445
  173SLPC   H5Y19586   1.218   6.465   5.792  1.8805 -0.4094 -1.2996
  173SLPC   C3619587   1.144   6.383   5.620 -0.8233 -0.2190 -0.8760
  173SLPC   H6X19588   1.068   6.461   5.595 -1.5544 -1.0916 -1.4345
  173SLPC   H6Y19589   1.109   6.285   5.580  0.7386 -1.4735  0.6918
  173SLPC   C3719590   1.270   6.430   5.535  0.0781 -0.1734  0.1028
  173SLPC   H7X19591   1.360   6.378   5.575  2.2834  3.1149 -0.1157
  173SLPC   H7Y19592   1.277   6.541   5.548 -1.4259  0.2792 -2.3459
  173SLPC   C3819593   1.255   6.418   5.386 -0.0694  0.5828 -0.8485
  173SLPC   H8X19594   1.252   6.515   5.332  0.2325  0.6591 -0.7289
  173SLPC   H8Y19595   1.161   6.361   5.369 -1.2568  2.7085 -1.8170
  173SLPC   C3919596   1.379   6.341   5.328 -0.2853  0.0193 -0.0933
  173SLPC   H9X19597   1.414   6.253   5.385  1.8975  0.6494 -0.3447
  173SLPC   H9Y19598   1.464   6.412   5.336  0.7093 -1.3346  2.3646
  173SLPC  C31019599   1.348   6.297   5.186 -0.0690  0.3658 -0.3421
  173SLPC  H10X19600   1.246   6.253   5.178 -0.5671  1.6092 -1.1228
  173SLPC  H10Y19601   1.428   6.225   5.158 -0.5956 -0.2442 -0.3003
  173SLPC  C31119602   1.353   6.420   5.093 -0.0035  0.2432 -0.1175
  173SLPC  H11X19603   1.455   6.465   5.098  1.1611 -2.1475 -1.0314
  173SLPC  H11Y19604   1.285   6.502   5.126 -1.4481 -0.6853 -0.7269
  173SLPC  C31219605   1.344   6.394   4.947  0.7702 -0.0144  0.9805
  173SLPC  H12X19606   1.250   6.339   4.927  0.6639 -0.3006  2.1928
  173SLPC  H12Y19607   1.433   6.337   4.912  1.8168  3.0059 -1.8183
  173SLPC  C31319608   1.360   6.524   4.867  0.2886 -0.3422 -0.2637
  173SLPC  H13X19609   1.446   6.582   4.906  0.7314 -0.8913 -0.4168
  173SLPC  H13Y19610   1.270   6.581   4.900 -0.2520 -2.0880  1.4299
  173SLPC  C31419611   1.362   6.499   4.713  1.1474 -0.1207 -0.2813
  173SLPC  H14X19612   1.275   6.434   4.688  0.4206  0.5475  0.4614
  173SLPC  H14Y19613   1.453   6.452   4.670  0.2731 -0.3090 -1.9945
  173SLPC  C31519614   1.338   6.623   4.620 -0.1269  0.6986  0.4627
  173SLPC  H15X19615   1.233   6.649   4.646 -1.5140 -1.6369 -2.2386
  173SLPC  H15Y19616   1.336   6.594   4.513  3.4101  2.6722 -0.3091
  173SLPC  C31619617   1.438   6.738   4.635 -0.2690 -0.4367 -0.0503
  173SLPC  H16X19618   1.524   6.713   4.569 -0.5020  0.3309 -0.6696
  173SLPC  H16Y19619   1.460   6.756   4.742  0.9373 -0.9686 -0.1974
  173SLPC  C31719620   1.372   6.862   4.583 -0.5659 -0.4539  0.2195
  173SLPC  H17X19621   1.300   6.901   4.657 -2.1230  1.0663 -1.9536
  173SLPC  H17Y19622   1.303   6.842   4.498 -1.5176 -1.8442  1.2832
  173SLPC  C31819623   1.464   6.975   4.522 -0.2343 -0.4380 -0.2179
  173SLPC  H18X19624   1.545   6.928   4.462  0.7539 -0.7237  1.2923
  173SLPC  H18Y19625   1.512   7.042   4.596 -2.1837  1.7315 -0.7956
  173SLPC  H18Z19626   1.409   7.033   4.445  0.3211 -1.6742 -1.6075
  174SLPC     N19627   5.382   0.406   6.214 -1.0465  0.7451 -0.8073
  174SLPC   C1319628   5.359   0.557   6.214 -0.4372  0.8148  0.4380
  174SLPC  H13A19629   5.387   0.617   6.299 -3.0075 -1.3402  3.0212
  174SLPC  H13B19630   5.410   0.588   6.124 -1.1570  0.4364 -0.1094
  174SLPC  H13C19631   5.254   0.576   6.194 -0.6925 -1.0538 -0.2080
  174SLPC   C1419632   5.365   0.355   6.077  0.6064 -0.8587 -0.0059
  174SLPC  H14A19633   5.425   0.269   6.050 -0.0858 -1.0862 -0.8694
  174SLPC  H14B19634   5.267   0.312   6.059 -0.7894  1.7207  0.9520
  174SLPC  H14C19635   5.389   0.435   6.009 -0.9561  0.4186  0.8952
  174SLPC   C1519636   5.300   0.343   6.316 -0.1152 -0.1783 -1.3678
  174SLPC  H15A19637   5.336   0.241   6.326  1.1683  0.4685  3.2798
  174SLPC  H15B19638   5.318   0.396   6.409 -3.4474  0.1319 -0.7584
  174SLPC  H15C19639   5.195   0.335   6.291 -0.0481 -1.8744 -1.2421
  174SLPC   C1219640   5.528   0.386   6.248  0.0179  0.1808  0.3809
  174SLPC  H12A19641   5.561   0.435   6.339  1.5582 -0.9042  0.4481
  174SLPC  H12B19642   5.599   0.429   6.178  1.8506 -0.2975  1.8687
  174SLPC   C1119643   5.579   0.235   6.257 -0.0341 -0.3057 -0.6119
  174SLPC  H11A19644   5.683   0.246   6.295 -0.0811 -2.2529  0.1957
  174SLPC  H11B19645   5.576   0.197   6.153  0.5149  1.9698 -1.5361
  174SLPC     P19646   5.471   0.010   6.339  0.2240  0.2061 -0.0400
  174SLPC   O1319647   5.523  -0.073   6.454 -0.3910 -0.2558 -0.3300
  174SLPC   O1419648   5.319   0.009   6.325 -0.1728  0.0586 -0.4192
  174SLPC   O1219649   5.508   0.168   6.359  0.3189 -0.4436  0.3346
  174SLPC   O1119650   5.537  -0.023   6.197 -0.1364  0.2921  0.4849
  174SLPC    C119651   5.659  -0.099   6.194  0.2544  0.2741  0.1634
  174SLPC    HA19652   5.674  -0.165   6.282  0.0400 -0.5987 -0.4402
  174SLPC    HB19653   5.655  -0.165   6.105 -0.9801  1.5586 -0.7754
  174SLPC    C219654   5.796  -0.015   6.175 -0.3287  0.3123  0.3191
  174SLPC    HS19655   5.815   0.041   6.269  0.4598 -0.7435  0.8134
  174SLPC   O2119656   5.796   0.066   6.054 -0.4631  0.7603 -0.3361
  174SLPC   C2119657   5.891   0.154   6.036  0.9586  0.3098 -0.4453
  174SLPC   O2219658   5.983   0.170   6.115 -0.3068 -0.6162 -0.4818
  174SLPC   C2219659   5.865   0.224   5.910 -0.2614  0.5222  0.4134
  174SLPC   H2R19660   5.759   0.257   5.910  0.0611  1.6064  1.5852
  174SLPC   H2S19661   5.919   0.321   5.912 -0.5500  0.7532 -1.2088
  174SLPC    C319662   5.919  -0.114   6.166  0.3338  0.3992  0.5425
  174SLPC    HX19663   5.903  -0.176   6.257  0.1203 -0.9844 -0.3957
  174SLPC    HY19664   6.014  -0.059   6.182  0.9269 -0.2339 -0.6487
  174SLPC   O3119665   5.923  -0.203   6.050  0.6042 -0.1511 -0.3681
  174SLPC   C3119666   6.026  -0.280   6.044 -0.1801 -1.1617 -0.4998
  174SLPC   O3219667   6.117  -0.280   6.126 -0.5865  0.1311 -0.0946
  174SLPC   C3219668   6.011  -0.393   5.934 -0.1586  0.7367  0.0378
  174SLPC   H2X19669   5.934  -0.359   5.861 -0.3188  0.7187  0.1974
  174SLPC   H2Y19670   5.980  -0.486   5.987  1.7558  1.4506  2.5700
  174SLPC   C2319671   5.890   0.137   5.781 -1.1889 -0.0002  0.7679
  174SLPC   H3R19672   5.819   0.053   5.791 -0.2759 -0.8056  0.6661
  174SLPC   H3S19673   5.997   0.104   5.786 -1.0249  0.2081 -0.8260
  174SLPC   C2419674   5.873   0.220   5.656 -0.6674  0.9800 -0.5208
  174SLPC   H4R19675   5.942   0.304   5.633  2.4363 -1.3530 -0.4259
  174SLPC   H4S19676   5.769   0.257   5.664 -0.8867  0.4008 -0.6508
  174SLPC   C2519677   5.885   0.124   5.528  0.0465 -1.4113 -0.0791
  174SLPC   H5R19678   5.791   0.066   5.517 -0.8296 -0.1279  0.4211
  174SLPC   H5S19679   5.972   0.059   5.550  0.5113 -0.3606  1.3778
  174SLPC   C2619680   5.918   0.209   5.403 -0.2549  0.1970 -1.0179
  174SLPC   H6R19681   6.005   0.274   5.425  0.5891 -1.0810 -0.4515
  174SLPC   H6S19682   5.831   0.275   5.388 -1.3318  0.3355  3.9851
  174SLPC   C2719683   5.949   0.119   5.280  0.6634  0.3654  0.0722
  174SLPC   H7R19684   5.862   0.050   5.274  0.9246 -0.0645  1.0634
  174SLPC   H7S19685   6.032   0.050   5.310  1.0249 -0.1652 -1.9647
  174SLPC   C2819686   5.977   0.183   5.141 -0.0519 -0.7345 -0.9580
  174SLPC   H8R19687   5.989   0.095   5.073 -0.7488 -1.0641 -0.6623
  174SLPC   H8S19688   6.070   0.244   5.145 -0.2706 -0.4240 -0.5311
  174SLPC   C2919689   5.869   0.272   5.095 -0.1106 -0.5528 -1.0353
  174SLPC   H9R19690   5.812   0.324   5.174  2.0301  1.1870 -0.5372
  174SLPC  C21019691   5.838   0.300   4.968 -0.1142  0.7049  0.4422
  174SLPC  H10R19692   5.765   0.379   4.945 -0.8206  0.0240  0.3034
  174SLPC  C21119693   5.916   0.243   4.854 -0.0319  0.5209  1.0526
  174SLPC  H11R19694   5.864   0.153   4.817 -0.7657  1.5740 -0.5683
  174SLPC  H11S19695   6.024   0.225   4.871  0.6736 -0.7688 -3.5228
  174SLPC  C21219696   5.899   0.339   4.739 -0.2051  0.1824 -0.2333
  174SLPC  H12R19697   5.893   0.449   4.750 -0.2277  0.2627 -0.9961
  174SLPC  C21319698   5.885   0.296   4.609 -0.2418 -0.1219 -0.2963
  174SLPC  H13R19699   5.870   0.367   4.527 -0.4541 -0.6268 -0.7052
  174SLPC  C21419700   5.875   0.153   4.556  0.5063  0.2169  0.3796
  174SLPC  H14R19701   5.824   0.083   4.626 -0.6677 -1.2832 -1.8841
  174SLPC  H14S19702   5.979   0.119   4.535  0.7422  0.8734  0.4559
  174SLPC  C21519703   5.785   0.141   4.425 -0.6538  0.2048 -0.5681
  174SLPC  H15R19704   5.679   0.164   4.450 -0.4961 -0.5240  0.9114
  174SLPC  H15S19705   5.796   0.034   4.395  1.6800 -0.0067  0.7990
  174SLPC  C21619706   5.824   0.227   4.306  0.6283  0.2696  0.5218
  174SLPC  H16R19707   5.814   0.334   4.335 -2.8412  0.6543 -1.5237
  174SLPC  H16S19708   5.747   0.204   4.229 -0.7050 -0.0397  1.8905
  174SLPC  C21719709   5.965   0.205   4.250  0.2646  0.0855  0.2345
  174SLPC  H17R19710   5.983   0.095   4.247  2.4087  0.2173  3.0921
  174SLPC  H17S19711   6.038   0.247   4.323 -0.1387 -0.6988  1.1060
  174SLPC  C21819712   5.986   0.264   4.114 -0.6398  0.5329 -0.0803
  174SLPC  H18R19713   6.074   0.224   4.060 -0.0925  2.8248 -0.9647
  174SLPC  H18S19714   5.989   0.375   4.114  1.3158  0.5091 -0.8766
  174SLPC  H18T19715   5.913   0.218   4.043 -0.7966 -0.1723  0.5186
  174SLPC   C3319716   6.150  -0.438   5.874  0.0412 -0.1904  0.3249
  174SLPC   H3X19717   6.138  -0.511   5.791  1.9516 -1.0543  0.7504
  174SLPC   H3Y19718   6.214  -0.474   5.957  0.2646 -0.1573  0.1675
  174SLPC   C3419719   6.218  -0.322   5.804 -0.3832  0.2285  0.4068
  174SLPC   H4X19720   6.322  -0.352   5.778 -1.0756 -0.9719 -1.1275
  174SLPC   H4Y19721   6.227  -0.234   5.872  0.9663  1.6524 -1.5063
  174SLPC   C3519722   6.143  -0.271   5.679  0.1626 -0.7731 -0.2918
  174SLPC   H5X19723   6.175  -0.165   5.670 -1.3432 -0.3348 -0.8241
  174SLPC   H5Y19724   6.034  -0.257   5.696  0.2088  0.8181 -1.1115
  174SLPC   C3619725   6.184  -0.323   5.543  0.1180  0.2607  0.1515
  174SLPC   H6X19726   6.135  -0.422   5.529 -0.3674  0.8084 -2.6602
  174SLPC   H6Y19727   6.291  -0.351   5.539 -0.0368 -0.2197 -1.4150
  174SLPC   C3719728   6.157  -0.228   5.429 -1.0352 -0.2577  0.2846
  174SLPC   H7X19729   6.203  -0.130   5.451 -1.2243  0.4733 -2.2241
  174SLPC   H7Y19730   6.047  -0.211   5.424 -1.1275 -1.0203 -1.2101
  174SLPC   C3819731   6.197  -0.280   5.292 -0.6675  0.9426  0.0591
  174SLPC   H8X19732   6.141  -0.372   5.267  2.0955 -0.3626 -1.7083
  174SLPC   H8Y19733   6.306  -0.300   5.294 -0.6384  1.0090 -0.5898
  174SLPC   C3919734   6.158  -0.173   5.183 -0.6911  0.1869  0.1434
  174SLPC   H9X19735   6.224  -0.088   5.211 -0.6070  0.9918 -2.2136
  174SLPC   H9Y19736   6.058  -0.131   5.207  0.5800  2.6444  1.6591
  174SLPC  C31019737   6.187  -0.228   5.046 -0.0047 -0.1383  0.3157
  174SLPC  H10X19738   6.157  -0.335   5.039  0.4708 -0.2579  0.0406
  174SLPC  H10Y19739   6.294  -0.222   5.016 -0.6068 -0.8036 -2.1578
  174SLPC  C31119740   6.109  -0.155   4.933  0.7018  0.0264  0.5941
  174SLPC  H11X19741   6.117  -0.045   4.940 -2.6275  0.4782 -0.8971
  174SLPC  H11Y19742   6.002  -0.185   4.932  0.9437 -0.9302 -1.0358
  174SLPC  C31219743   6.176  -0.189   4.802  0.9430  0.2644  0.0191
  174SLPC  H12X19744   6.171  -0.295   4.769  1.4530  0.3204 -0.2637
  174SLPC  H12Y19745   6.285  -0.167   4.806  1.7018 -2.1723 -3.0683
  174SLPC  C31319746   6.138  -0.095   4.681 -0.0891 -0.0757  0.1601
  174SLPC  H13X19747   6.165   0.010   4.707 -2.3547  1.0013 -1.4659
  174SLPC  H13Y19748   6.030  -0.102   4.657 -0.0892 -1.9524  0.5499
  174SLPC  C31419749   6.201  -0.127   4.537 -0.3243 -0.3981 -0.1050
  174SLPC  H14X19750   6.166  -0.051   4.464  1.6756  1.4429  0.7374
  174SLPC  H14Y19751   6.183  -0.233   4.509 -0.1550 -0.7135  0.9555
  174SLPC  C31519752   6.354  -0.104   4.532  0.0355 -0.4434 -0.0364
  174SLPC  H15X19753   6.407  -0.178   4.596  0.4421 -2.2464 -2.3195
  174SLPC  H15Y19754   6.377  -0.005   4.577  0.6057 -0.8285  0.5240
  174SLPC  C31619755   6.422  -0.115   4.399 -0.9339  0.0339  0.6435
  174SLPC  H16X19756   6.526  -0.076   4.404 -1.5038  1.8802 -0.7662
  174SLPC  H16Y19757   6.374  -0.036   4.337 -0.4948  1.2183  1.7548
  174SLPC  C31719758   6.414  -0.254   4.334 -0.1470  0.0513 -0.5275
  174SLPC  H17X19759   6.311  -0.294   4.349  0.5363 -1.1606  1.3516
  174SLPC  H17Y19760   6.485  -0.327   4.377  0.3433  0.1648 -1.1428
  174SLPC  C31819761   6.443  -0.244   4.184  0.3483  0.0820  0.1243
  174SLPC  H18X19762   6.348  -0.215   4.135  0.9940  0.2352 -1.0677
  174SLPC  H18Y19763   6.470  -0.344   4.144  0.0745 -0.0747  0.3282
  174SLPC  H18Z19764   6.522  -0.174   4.151 -0.7030  0.8408 -0.8389
  175SLPC     N19765   1.646   2.382   6.804  0.3260 -0.5376  0.1687
  175SLPC   C1319766   1.707   2.371   6.938  0.0515 -0.1640 -0.0998
  175SLPC  H13A19767   1.808   2.331   6.934 -0.2595 -0.8814 -1.0983
  175SLPC  H13B19768   1.708   2.474   6.972 -2.2458  1.3128 -3.8545
  175SLPC  H13C19769   1.654   2.311   7.010 -0.5236  0.6871  0.2064
  175SLPC   C1419770   1.512   2.456   6.815 -0.3505 -0.4258  0.3142
  175SLPC  H14A19771   1.433   2.412   6.874  0.1928  2.4518  3.4703
  175SLPC  H14B19772   1.538   2.555   6.848 -0.8952 -0.3548  0.5498
  175SLPC  H14C19773   1.467   2.468   6.717 -2.3526 -2.5060  0.8783
  175SLPC   C1519774   1.613   2.245   6.755  0.9737  0.3599 -0.1879
  175SLPC  H15A19775   1.549   2.194   6.825  1.1087 -1.3758 -1.2828
  175SLPC  H15B19776   1.573   2.236   6.655  0.2409 -0.0377  0.1391
  175SLPC  H15C19777   1.695   2.176   6.765  1.5530  1.1494  0.7128
  175SLPC   C1219778   1.739   2.460   6.705 -0.1802  0.0897 -0.8311
  175SLPC  H12A19779   1.814   2.522   6.751 -0.3297 -1.8584  2.3336
  175SLPC  H12B19780   1.680   2.519   6.637 -0.8161 -0.4216 -0.7324
  175SLPC   C1119781   1.835   2.368   6.621  0.1388 -0.6007  0.6306
  175SLPC  H11A19782   1.882   2.432   6.544  1.3601 -1.1199  0.9248
  175SLPC  H11B19783   1.774   2.295   6.562 -0.2684  0.9500 -0.9507
  175SLPC     P19784   2.038   2.205   6.666 -0.2778 -0.1470  0.5055
  175SLPC   O1319785   2.167   2.270   6.699 -0.0491  0.0430  0.2124
  175SLPC   O1419786   2.009   2.080   6.740  0.5415  0.0576 -0.9953
  175SLPC   O1219787   1.928   2.310   6.706  0.0458 -0.0243  1.0495
  175SLPC   O1119788   2.016   2.178   6.514 -0.2495  0.2887 -0.1824
  175SLPC    C119789   2.069   2.065   6.444 -0.0719 -0.0648 -0.9855
  175SLPC    HA19790   2.180   2.059   6.442 -0.1240 -1.2430 -1.2782
  175SLPC    HB19791   2.030   1.971   6.489  1.4927 -0.3808 -0.2139
  175SLPC    C219792   2.023   2.067   6.295 -0.0932  0.0904 -0.4339
  175SLPC    HS19793   1.990   1.964   6.268  2.4483 -0.8722 -0.1699
  175SLPC   O2119794   2.134   2.107   6.209  0.9727 -0.3808  0.8336
  175SLPC   C2119795   2.223   2.005   6.193 -0.5071 -0.8232 -0.2171
  175SLPC   O2219796   2.210   1.891   6.235  0.8280  0.2464  0.4548
  175SLPC   C2219797   2.354   2.056   6.124  0.3842  0.0251 -1.3599
  175SLPC   H2R19798   2.353   2.167   6.130  0.0175 -0.0082 -0.6755
  175SLPC   H2S19799   2.436   2.018   6.188  0.3438  1.0276 -0.6865
  175SLPC    C319800   1.890   2.153   6.275 -0.4196  0.1232 -0.5904
  175SLPC    HX19801   1.914   2.260   6.264  1.2141  0.0046  1.2608
  175SLPC    HY19802   1.844   2.145   6.376  1.4816 -1.8938  0.2069
  175SLPC   O3119803   1.813   2.101   6.169 -0.3095 -0.0896  0.3757
  175SLPC   C3119804   1.723   2.182   6.115  0.3553  0.3887 -0.4983
  175SLPC   O3219805   1.722   2.305   6.137  0.1859  0.9129  0.4550
  175SLPC   C3219806   1.634   2.118   6.017 -0.0074  0.4354 -0.3100
  175SLPC   H2X19807   1.532   2.110   6.061 -0.6688 -0.0409 -1.8555
  175SLPC   H2Y19808   1.663   2.017   5.983 -0.6695  0.4046 -0.8125
  175SLPC   C2319809   2.386   1.999   5.979  0.1993 -1.1096  0.3400
  175SLPC   H3R19810   2.368   1.889   5.979  3.8312 -1.8457 -0.3231
  175SLPC   H3S19811   2.496   2.011   5.967  0.1211 -0.3034  0.3596
  175SLPC   C2419812   2.316   2.087   5.876 -0.6583 -0.1503 -0.6164
  175SLPC   H4R19813   2.347   2.191   5.895 -1.3210 -0.2340  1.0449
  175SLPC   H4S19814   2.206   2.080   5.889 -1.1342  1.8927 -2.8601
  175SLPC   C2519815   2.357   2.057   5.727 -0.3614  0.2750 -0.8795
  175SLPC   H5R19816   2.355   1.948   5.706 -0.1877 -0.4079  2.1987
  175SLPC   H5S19817   2.462   2.089   5.713  1.1312 -3.3193  0.7303
  175SLPC   C2619818   2.268   2.148   5.645 -0.6781  0.2219 -0.6698
  175SLPC   H6R19819   2.287   2.255   5.667 -1.3587  0.0882  0.6370
  175SLPC   H6S19820   2.163   2.126   5.672 -0.0736 -0.4022  1.3548
  175SLPC   C2719821   2.270   2.125   5.494  0.0730  0.1718 -0.1352
  175SLPC   H7R19822   2.201   2.197   5.445  0.3962  0.0681 -0.7516
  175SLPC   H7S19823   2.249   2.016   5.492  0.5473 -0.0247  2.1145
  175SLPC   C2819824   2.413   2.151   5.443 -0.3176  0.2870 -0.0012
  175SLPC   H8R19825   2.413   2.121   5.336  2.1451  4.8177 -1.5719
  175SLPC   H8S19826   2.484   2.079   5.489 -0.4956 -0.1151 -0.3621
  175SLPC   C2919827   2.461   2.290   5.452 -1.0847  0.6880 -0.0914
  175SLPC   H9R19828   2.514   2.309   5.546  0.2618 -0.6751 -0.5340
  175SLPC  C21019829   2.478   2.376   5.348 -0.6007 -0.5283  0.1103
  175SLPC  H10R19830   2.524   2.474   5.367  0.5602 -1.2800  1.4502
  175SLPC  C21119831   2.423   2.350   5.211  0.2208  0.8670 -0.3752
  175SLPC  H11R19832   2.318   2.315   5.211  0.8747 -1.2113 -0.4063
  175SLPC  H11S19833   2.488   2.270   5.169  2.7353  2.8977 -0.5965
  175SLPC  C21219834   2.436   2.461   5.108  0.3212 -0.5944 -0.5400
  175SLPC  H12R19835   2.341   2.505   5.075 -0.4459 -1.2820  0.6661
  175SLPC  C21319836   2.550   2.501   5.052  0.2754 -0.1426 -0.0135
  175SLPC  H13R19837   2.548   2.574   4.970  0.4938  0.5037  0.5452
  175SLPC  C21419838   2.688   2.443   5.060 -1.1077  0.2556  0.2374
  175SLPC  H14R19839   2.703   2.363   5.135  0.6742  0.7426  0.4613
  175SLPC  H14S19840   2.749   2.529   5.095  0.7784  0.0993 -2.3883
  175SLPC  C21519841   2.738   2.388   4.926  0.8143  1.0162  0.3392
  175SLPC  H15R19842   2.671   2.305   4.894  1.2701  0.6818  0.2442
  175SLPC  H15S19843   2.836   2.336   4.922 -0.1790 -0.9626  0.0893
  175SLPC  C21619844   2.741   2.488   4.810 -0.0480  0.6117  0.1873
  175SLPC  H16R19845   2.785   2.586   4.839  0.3459  1.1619 -2.0062
  175SLPC  H16S19846   2.633   2.510   4.800 -0.1855  1.4082  2.7365
  175SLPC  C21719847   2.790   2.430   4.675  0.0841 -0.1743 -0.3720
  175SLPC  H17R19848   2.712   2.367   4.627  0.3818 -0.9089  0.0824
  175SLPC  H17S19849   2.873   2.362   4.702  0.2486  0.1103 -0.1537
  175SLPC  C21819850   2.831   2.545   4.574  1.1415 -0.9840 -0.2111
  175SLPC  H18R19851   2.885   2.506   4.485  2.1117  1.0418 -0.5736
  175SLPC  H18S19852   2.896   2.621   4.622  1.0638  0.5790 -2.3957
  175SLPC  H18T19853   2.742   2.590   4.524  0.6205 -2.1815 -0.3908
  175SLPC   C3319854   1.618   2.198   5.890 -0.1184 -0.5327  0.1656
  175SLPC   H3X19855   1.578   2.302   5.896 -0.2237 -0.5021 -0.9610
  175SLPC   H3Y19856   1.541   2.154   5.823 -1.0953  1.3298  0.0027
  175SLPC   C3419857   1.745   2.200   5.802 -0.0908  0.3224 -0.4671
  175SLPC   H4X19858   1.764   2.097   5.766 -0.1220  0.2991 -0.4165
  175SLPC   H4Y19859   1.836   2.229   5.858  0.7073 -0.4814 -1.3152
  175SLPC   C3519860   1.732   2.295   5.678  0.1413  0.7463 -0.5991
  175SLPC   H5X19861   1.759   2.398   5.710 -0.8231  0.5256  1.0676
  175SLPC   H5Y19862   1.631   2.294   5.631 -0.2100  2.2832  0.0327
  175SLPC   C3619863   1.840   2.254   5.566 -0.1373 -0.4246  0.3345
  175SLPC   H6X19864   1.822   2.151   5.529  0.8318  0.2269 -2.1418
  175SLPC   H6Y19865   1.942   2.270   5.608 -0.2186  1.9278 -0.2293
  175SLPC   C3719866   1.837   2.354   5.441  0.2715 -0.6451 -0.6522
  175SLPC   H7X19867   1.835   2.458   5.479  0.4582 -0.4628 -1.1266
  175SLPC   H7Y19868   1.743   2.337   5.385 -2.0333  1.7367  2.1591
  175SLPC   C3819869   1.948   2.342   5.341 -0.1368  0.8142 -0.7361
  175SLPC   H8X19870   1.963   2.234   5.323  0.7660  0.7800  0.0977
  175SLPC   H8Y19871   2.047   2.386   5.365  0.4356  1.1160 -3.4129
  175SLPC   C3919872   1.931   2.432   5.211 -0.3150 -0.5602  0.3187
  175SLPC   H9X19873   1.903   2.532   5.249  0.7295  0.6018 -1.7937
  175SLPC   H9Y19874   1.847   2.382   5.158 -0.4511  0.1382 -0.1416
  175SLPC  C31019875   2.060   2.451   5.121  0.6303  1.5769 -0.3201
  175SLPC  H10X19876   2.077   2.344   5.098 -3.3375  1.0171 -1.5316
  175SLPC  H10Y19877   2.155   2.472   5.174  1.0887  0.0399 -0.5014
  175SLPC  C31119878   2.038   2.543   5.003 -0.7650  0.0830  0.6208
  175SLPC  H11X19879   2.066   2.647   5.030 -0.5687  0.1085  0.3248
  175SLPC  H11Y19880   1.933   2.536   4.967 -0.3778 -0.3837 -0.4780
  175SLPC  C31219881   2.133   2.506   4.878 -0.0469 -0.0907  0.0653
  175SLPC  H12X19882   2.146   2.397   4.859  0.3213  0.2892 -2.1108
  175SLPC  H12Y19883   2.237   2.541   4.896 -0.3753  1.2764 -0.5538
  175SLPC  C31319884   2.092   2.571   4.747  0.0292  0.2000  1.0736
  175SLPC  H13X19885   2.099   2.681   4.739  1.8527 -0.0205 -1.2394
  175SLPC  H13Y19886   1.985   2.546   4.728  0.9327 -3.3897 -0.2497
  175SLPC  C31419887   2.181   2.517   4.640 -0.4351  0.2524  0.2748
  175SLPC  H14X19888   2.190   2.407   4.648 -0.8061  0.2930  1.4977
  175SLPC  H14Y19889   2.282   2.561   4.648 -0.6140  0.9970 -1.2478
  175SLPC  C31519890   2.140   2.578   4.497  0.0029 -0.4116  0.1178
  175SLPC  H15X19891   2.234   2.589   4.440  2.5787 -2.2427  3.5718
  175SLPC  H15Y19892   2.100   2.681   4.508 -0.9652 -0.6427 -0.9895
  175SLPC  C31619893   2.032   2.500   4.417 -0.3703  0.3208 -1.2526
  175SLPC  H16X19894   1.930   2.510   4.460  0.4179  0.4463  0.7065
  175SLPC  H16Y19895   2.062   2.393   4.421 -1.0243  0.1684 -0.0704
  175SLPC  C31719896   2.041   2.550   4.274 -0.1202  0.3609  0.6263
  175SLPC  H17X19897   2.142   2.532   4.232 -0.0053 -0.2034  1.1284
  175SLPC  H17Y19898   2.032   2.661   4.275 -1.2970  0.2745  0.7544
  175SLPC  C31819899   1.938   2.497   4.177  0.6575 -0.0153  0.5176
  175SLPC  H18X19900   1.839   2.517   4.222  0.4645  2.3152 -0.7737
  175SLPC  H18Y19901   1.940   2.390   4.146  1.9441  0.4436 -1.1707
  175SLPC  H18Z19902   1.941   2.547   4.077  2.2756 -3.5133 -1.3912
  176SLPC     N19903   1.664   0.950   6.920 -0.0851 -0.6479  0.1042
  176SLPC   C1319904   1.701   1.081   6.976  0.0946 -0.0827  0.5010
  176SLPC  H13A19905   1.805   1.080   7.006  0.9384 -0.9271 -2.2057
  176SLPC  H13B19906   1.679   1.151   6.897 -2.0350 -1.6232 -0.3459
  176SLPC  H13C19907   1.635   1.118   7.053 -0.8878  0.9436 -0.7932
  176SLPC   C1419908   1.513   0.944   6.879 -0.4544  0.2677 -0.2568
  176SLPC  H14A19909   1.491   1.017   6.802 -0.7797  3.1616  2.3816
  176SLPC  H14B19910   1.500   0.841   6.849 -0.8658 -0.4038  2.0363
  176SLPC  H14C19911   1.454   0.969   6.966 -0.8823 -0.9650 -0.1793
  176SLPC   C1519912   1.673   0.849   7.026  0.5176 -0.3845 -0.4326
  176SLPC  H15A19913   1.641   0.755   6.985 -2.1904  0.2784 -0.0142
  176SLPC  H15B19914   1.773   0.835   7.065  0.1451 -0.7344  0.4100
  176SLPC  H15C19915   1.598   0.869   7.101  0.4763  0.5668 -0.7135
  176SLPC   C1219916   1.750   0.909   6.797 -0.1501 -0.4064  0.0152
  176SLPC  H12A19917   1.855   0.903   6.820  0.3924  0.0658 -2.1392
  176SLPC  H12B19918   1.740   0.985   6.721 -1.8455 -1.1956 -0.6192
  176SLPC   C1119919   1.722   0.782   6.724  0.9915  0.5345  0.0791
  176SLPC  H11A19920   1.798   0.773   6.643  0.6171  0.0619 -0.2269
  176SLPC  H11B19921   1.628   0.798   6.667  1.5815  0.7613 -0.8660
  176SLPC     P19922   1.835   0.584   6.860 -0.0758 -0.2745 -0.1482
  176SLPC   O1319923   1.950   0.679   6.858  0.2101  0.2759  0.3711
  176SLPC   O1419924   1.800   0.529   6.991 -0.6379  0.1294 -0.4537
  176SLPC   O1219925   1.708   0.662   6.798 -0.4790 -0.3361 -0.0819
  176SLPC   O1119926   1.864   0.473   6.755  0.5089 -0.4064  0.1758
  176SLPC    C119927   1.754   0.385   6.727  0.1265  0.2512  0.4298
  176SLPC    HA19928   1.769   0.284   6.770 -0.0829  0.4223  0.9085
  176SLPC    HB19929   1.654   0.418   6.765  0.3977  2.0555 -0.2922
  176SLPC    C219930   1.743   0.363   6.577  0.1060  0.2802  0.1101
  176SLPC    HS19931   1.690   0.269   6.553  0.0755 -0.0582  1.4222
  176SLPC   O2119932   1.870   0.362   6.514  0.1810  0.7564 -0.3420
  176SLPC   C2119933   1.939   0.254   6.544 -0.3993 -0.4228 -0.5353
  176SLPC   O2219934   1.897   0.165   6.615  0.0032  0.3225 -0.8475
  176SLPC   C2219935   2.065   0.245   6.464  0.1590  0.4773 -0.2258
  176SLPC   H2R19936   2.115   0.344   6.471 -0.8459  0.9591  0.2927
  176SLPC   H2S19937   2.136   0.174   6.512 -0.5497  1.1438  1.9180
  176SLPC    C319938   1.661   0.478   6.502 -0.2167  0.2917 -0.1205
  176SLPC    HX19939   1.705   0.572   6.543 -0.0638  0.3048 -0.3130
  176SLPC    HY19940   1.551   0.468   6.509 -0.5548  1.9507 -2.0300
  176SLPC   O3119941   1.688   0.472   6.363 -0.1240  0.2391  0.1436
  176SLPC   C3119942   1.625   0.389   6.281 -0.3934  0.3157 -0.2326
  176SLPC   O3219943   1.526   0.327   6.313  0.0417  0.4555 -0.9607
  176SLPC   C3219944   1.705   0.371   6.151  0.3563 -0.2941 -0.4673
  176SLPC   H2X19945   1.775   0.287   6.171 -0.6175 -0.8930  0.5353
  176SLPC   H2Y19946   1.768   0.460   6.130 -2.7090  2.0176 -0.5863
  176SLPC   C2319947   2.011   0.203   6.330  0.1206  0.1446  0.4713
  176SLPC   H3R19948   1.932   0.275   6.298  0.8585  0.0117 -1.8620
  176SLPC   H3S19949   1.966   0.102   6.338  0.1318  0.2467  1.9710
  176SLPC   C2419950   2.116   0.202   6.219 -0.1016  0.4066  0.5971
  176SLPC   H4R19951   2.194   0.126   6.240  1.6110  0.1000 -5.2363
  176SLPC   H4S19952   2.171   0.298   6.210  0.0367  0.2091 -1.0884
  176SLPC   C2519953   2.059   0.180   6.078  0.1990 -0.0149  0.2326
  176SLPC   H5R19954   1.978   0.253   6.059  1.8033  2.1414  1.3308
  176SLPC   H5S19955   2.009   0.081   6.069 -1.7111  0.8428  0.9889
  176SLPC   C2619956   2.164   0.189   5.964  0.0033 -0.5317  0.3577
  176SLPC   H6R19957   2.198   0.295   5.962  2.5653 -1.2225  1.9340
  176SLPC   H6S19958   2.107   0.162   5.873  0.6895  0.8060 -0.4983
  176SLPC   C2719959   2.282   0.091   5.978  0.4130 -0.1518  0.2458
  176SLPC   H7R19960   2.248  -0.005   6.021 -0.4323  1.4197  3.3908
  176SLPC   H7S19961   2.358   0.126   6.050 -0.6358  1.1661  0.7679
  176SLPC   C2819962   2.347   0.079   5.839 -0.0589 -0.3094 -0.2099
  176SLPC   H8R19963   2.274   0.042   5.763  0.4594  1.6847 -1.7629
  176SLPC   H8S19964   2.425   0.000   5.842 -0.7687 -1.0602 -0.8600
  176SLPC   C2919965   2.403   0.213   5.786 -0.1647  0.4302  0.3035
  176SLPC   H9R19966   2.430   0.292   5.858  0.5628  0.2041  0.2876
  176SLPC  C21019967   2.411   0.258   5.654 -0.0626 -0.3554 -0.1490
  176SLPC  H10R19968   2.447   0.359   5.631  1.0827 -0.6851  0.1321
  176SLPC  C21119969   2.374   0.185   5.529 -0.1261  0.0877  0.1406
  176SLPC  H11R19970   2.328   0.247   5.449 -2.2325 -2.2733 -0.6084
  176SLPC  H11S19971   2.292   0.111   5.541 -0.4220  0.1228 -1.3707
  176SLPC  C21219972   2.504   0.108   5.485 -0.8713  0.0164  0.1550
  176SLPC  H12R19973   2.563   0.057   5.563  0.6548  1.8244  0.2708
  176SLPC  C21319974   2.552   0.085   5.359  0.4029 -0.7392  0.2818
  176SLPC  H13R19975   2.646   0.031   5.342  0.8586  0.2687 -0.4866
  176SLPC  C21419976   2.499   0.133   5.231  0.2610  0.1481 -0.1827
  176SLPC  H14R19977   2.401   0.179   5.259  0.4598 -0.0311  0.8324
  176SLPC  H14S19978   2.471   0.047   5.168 -1.6596 -0.4676  1.3813
  176SLPC  C21519979   2.578   0.241   5.170  0.3874 -0.6736 -0.4184
  176SLPC  H15R19980   2.680   0.203   5.147  0.8419 -0.2609  0.8301
  176SLPC  H15S19981   2.590   0.325   5.241  1.3199  0.4195 -1.8129
  176SLPC  C21619982   2.519   0.296   5.040 -0.0696 -0.8572 -0.3932
  176SLPC  H16R19983   2.589   0.369   4.994 -1.8882 -0.4125 -2.6716
  176SLPC  H16S19984   2.424   0.339   5.080 -0.7538 -1.9475 -0.8024
  176SLPC  C21719985   2.497   0.201   4.928  0.4086  0.1725 -0.0912
  176SLPC  H17R19986   2.431   0.119   4.965  3.1676 -2.8342 -1.2986
  176SLPC  H17S19987   2.587   0.143   4.899  1.9238  0.3987  3.5612
  176SLPC  C21819988   2.433   0.273   4.808 -0.3078 -0.1577 -0.4678
  176SLPC  H18R19989   2.396   0.192   4.741 -1.8144 -0.6340  0.8938
  176SLPC  H18S19990   2.503   0.342   4.755  0.0938  0.4607  0.8359
  176SLPC  H18T19991   2.337   0.324   4.829 -0.8811 -1.1266 -0.6732
  176SLPC   C3319992   1.611   0.334   6.041  1.2936 -0.2185  0.1895
  176SLPC   H3X19993   1.551   0.423   6.014  2.6001  0.9368  1.0229
  176SLPC   H3Y19994   1.527   0.271   6.079 -1.7672  2.8732 -0.8674
  176SLPC   C3419995   1.675   0.288   5.908 -0.1713 -0.2924 -0.3589
  176SLPC   H4X19996   1.770   0.344   5.895 -0.7821  0.3560 -2.4894
  176SLPC   H4Y19997   1.604   0.311   5.825  0.9878 -0.1745 -1.3403
  176SLPC   C3519998   1.691   0.135   5.903 -0.1896  0.5726 -0.2135
  176SLPC   H5X19999   1.590   0.093   5.878 -0.0667  2.1374 -4.0691
  176SLPC   H5Y20000   1.726   0.094   6.000  0.7852 -2.0016 -1.5325
  176SLPC   C3620001   1.788   0.096   5.788  0.3713  0.4063  0.5433
  176SLPC   H6X20002   1.773  -0.010   5.762  0.2322  1.0664 -2.3431
  176SLPC   H6Y20003   1.895   0.111   5.814  1.0993 -0.5850 -1.6933
  176SLPC   C3720004   1.763   0.178   5.656  0.8295 -0.0248 -1.0771
  176SLPC   H7X20005   1.816   0.275   5.667 -0.3581  0.3891  1.6768
  176SLPC   H7Y20006   1.653   0.196   5.650  0.4644 -0.5288  2.2884
  176SLPC   C3820007   1.813   0.095   5.537  0.1244 -0.1233  0.2676
  176SLPC   H8X20008   1.806   0.165   5.451 -0.6440  0.5471  0.8616
  176SLPC   H8Y20009   1.739   0.015   5.517  0.2819 -0.4789  1.0804
  176SLPC   C3920010   1.964   0.053   5.540 -0.1583 -0.4613  0.1401
  176SLPC   H9X20011   1.982  -0.019   5.623  0.5267 -2.6727 -1.8284
  176SLPC   H9Y20012   2.018   0.149   5.553 -1.1597  0.0230  0.8202
  176SLPC  C31020013   2.009  -0.018   5.410 -0.3731 -0.6696 -0.4129
  176SLPC  H10X20014   1.933  -0.094   5.381 -1.4357  1.0016 -2.2646
  176SLPC  H10Y20015   2.108  -0.063   5.431  0.9471  1.4670 -1.7734
  176SLPC  C31120016   2.019   0.080   5.293  0.3898  0.6097  0.6446
  176SLPC  H11X20017   2.053   0.181   5.324  1.2369  1.4749 -2.6805
  176SLPC  H11Y20018   1.926   0.091   5.234  1.1020  0.3906 -0.5628
  176SLPC  C31220019   2.126   0.031   5.192  0.2754 -0.5875  0.2889
  176SLPC  H12X20020   2.141  -0.079   5.182 -1.7897 -0.8175 -0.9295
  176SLPC  H12Y20021   2.226   0.061   5.228  1.4963 -2.5115 -1.3002
  176SLPC  C31320022   2.098   0.090   5.052 -0.5192 -0.0018  0.2511
  176SLPC  H13X20023   2.195   0.106   5.000 -1.5263  2.3885 -1.0574
  176SLPC  H13Y20024   2.044   0.186   5.063  2.0171  1.3574  2.2479
  176SLPC  C31420025   2.027  -0.007   4.968  0.6020 -0.1093  0.3818
  176SLPC  H14X20026   1.973   0.039   4.882  0.3529  0.8829  1.0564
  176SLPC  H14Y20027   1.947  -0.044   5.035  1.0368  0.1517  1.0465
  176SLPC  C31520028   2.126  -0.116   4.920  0.3573  0.1401  0.0920
  176SLPC  H15X20029   2.065  -0.199   4.879  0.5788 -0.2658  0.5734
  176SLPC  H15Y20030   2.185  -0.170   4.996  0.4750 -0.9958 -0.7741
  176SLPC  C31620031   2.211  -0.060   4.806 -0.0691 -0.1735  0.0208
  176SLPC  H16X20032   2.281   0.015   4.849  0.5688 -1.3441  1.0881
  176SLPC  H16Y20033   2.141  -0.016   4.732  0.0208 -2.8467 -1.7874
  176SLPC  C31720034   2.291  -0.174   4.741  0.6726  0.2283 -0.5018
  176SLPC  H17X20035   2.211  -0.232   4.690  0.9533 -0.9901  0.4053
  176SLPC  H17Y20036   2.320  -0.247   4.820 -1.7199  2.1664  2.4126
  176SLPC  C31820037   2.397  -0.147   4.640 -0.2436 -0.7124  0.2699
  176SLPC  H18X20038   2.353  -0.082   4.561 -0.3001  0.2349  1.0622
  176SLPC  H18Y20039   2.461  -0.233   4.609  2.7338  1.3838  0.1998
  176SLPC  H18Z20040   2.476  -0.079   4.677  0.4610 -0.6443 -1.2832
  177SLPC     N20041   2.206   1.459   6.758  0.0978 -0.2260  0.1513
  177SLPC   C1320042   2.120   1.368   6.828  0.4819  0.8428 -0.1712
  177SLPC  H13A20043   2.015   1.390   6.817  0.4476  2.2234  2.1155
  177SLPC  H13B20044   2.142   1.263   6.812 -1.1228  0.1527  1.7601
  177SLPC  H13C20045   2.133   1.374   6.935 -0.3394 -1.7955  0.1468
  177SLPC   C1420046   2.183   1.599   6.805  0.4103 -0.0418  0.3215
  177SLPC  H14A20047   2.077   1.620   6.808  0.4115 -0.1214  2.9953
  177SLPC  H14B20048   2.217   1.612   6.907 -0.6550  0.4963  0.6298
  177SLPC  H14C20049   2.236   1.670   6.743 -0.3431 -0.3313 -0.6869
  177SLPC   C1520050   2.172   1.451   6.617  0.1181 -0.6669  0.9162
  177SLPC  H15A20051   2.184   1.350   6.578 -1.2581 -0.7134  0.5379
  177SLPC  H15B20052   2.069   1.479   6.602 -0.2253 -1.3389  1.8865
  177SLPC  H15C20053   2.242   1.516   6.567  1.1790 -0.7324  2.2725
  177SLPC   C1220054   2.349   1.418   6.782 -0.1612 -0.0415  0.5356
  177SLPC  H12A20055   2.374   1.435   6.886  0.8293  1.9736  0.0200
  177SLPC  H12B20056   2.417   1.480   6.727 -0.6498 -0.5681 -0.7000
  177SLPC   C1120057   2.393   1.277   6.736  0.1033 -0.1053 -0.0129
  177SLPC  H11A20058   2.504   1.279   6.731  0.0554 -0.4832 -1.4555
  177SLPC  H11B20059   2.353   1.260   6.634 -0.0245  0.1995 -0.0152
  177SLPC     P20060   2.298   1.034   6.794 -0.1849 -0.1773 -0.1515
  177SLPC   O1320061   2.418   0.949   6.783 -0.1626 -0.2451 -0.2505
  177SLPC   O1420062   2.189   0.995   6.886  0.1921 -0.5721 -0.2927
  177SLPC   O1220063   2.348   1.181   6.836 -0.4044 -0.2018  0.1950
  177SLPC   O1120064   2.241   1.044   6.644  0.4058  0.3740  0.0655
  177SLPC    C120065   2.142   0.947   6.599 -0.3141 -0.0914 -0.5007
  177SLPC    HA20066   2.051   0.952   6.663  0.8462  0.4002  1.1857
  177SLPC    HB20067   2.112   0.980   6.497 -1.2044  0.2644 -0.1270
  177SLPC    C220068   2.191   0.794   6.590 -0.2486  0.5213  0.3476
  177SLPC    HS20069   2.217   0.769   6.694  0.4437  0.2919  0.1215
  177SLPC   O2120070   2.297   0.776   6.496  0.4333 -0.3152 -0.2257
  177SLPC   C2120071   2.390   0.692   6.535 -0.6459 -0.6456 -0.5146
  177SLPC   O2220072   2.417   0.643   6.643  0.0133  1.1965  0.1876
  177SLPC   C2220073   2.471   0.661   6.412  0.3483  0.9879  0.7067
  177SLPC   H2R20074   2.569   0.613   6.433 -0.3686 -0.2175  1.4543
  177SLPC   H2S20075   2.422   0.578   6.356  2.6011  0.0726 -0.0174
  177SLPC    C320076   2.076   0.693   6.545 -0.5361 -0.1871 -1.0776
  177SLPC    HX20077   1.998   0.707   6.623  0.7918  2.1621 -0.0606
  177SLPC    HY20078   2.113   0.589   6.557  0.4621 -0.0054 -2.3117
  177SLPC   O3120079   2.025   0.711   6.414  0.1504 -0.0382  0.8434
  177SLPC   C3120080   2.092   0.632   6.317 -0.1901 -0.2795  0.0921
  177SLPC   O3220081   2.176   0.554   6.347 -0.5896  0.2739 -0.0977
  177SLPC   C3220082   2.045   0.667   6.170  0.0963  0.5262  0.0217
  177SLPC   H2X20083   2.020   0.774   6.157  3.0017  1.4137  1.0251
  177SLPC   H2Y20084   1.954   0.607   6.150  1.0405 -0.5573 -1.2393
  177SLPC   C2320085   2.492   0.774   6.301  0.5174  0.0299 -0.5408
  177SLPC   H3R20086   2.544   0.857   6.351 -0.1340  0.6054 -0.7983
  177SLPC   H3S20087   2.396   0.816   6.263  0.4936 -0.6072 -1.2235
  177SLPC   C2420088   2.574   0.723   6.177 -0.4585  0.1977 -0.1122
  177SLPC   H4R20089   2.511   0.637   6.146 -0.3276  0.0568  0.0104
  177SLPC   H4S20090   2.674   0.690   6.214 -1.2080  0.7290  2.6215
  177SLPC   C2520091   2.588   0.823   6.068 -0.3458 -0.4247  0.2020
  177SLPC   H5R20092   2.668   0.893   6.100 -2.0155  1.2091  0.9713
  177SLPC   H5S20093   2.499   0.890   6.064  0.2212  0.2986 -2.5342
  177SLPC   C2620094   2.616   0.755   5.926 -0.1892 -0.1101  0.0367
  177SLPC   H6R20095   2.531   0.688   5.902 -2.0384  1.7826  0.9447
  177SLPC   H6S20096   2.714   0.702   5.928 -0.5887 -0.8579 -0.2310
  177SLPC   C2720097   2.617   0.856   5.817  0.0290 -0.0409 -0.4237
  177SLPC   H7R20098   2.716   0.905   5.829 -0.5853  1.0684  0.3381
  177SLPC   H7S20099   2.534   0.925   5.843 -1.6543 -2.2393  0.3850
  177SLPC   C2820100   2.590   0.791   5.682  0.0509  0.0201  0.4532
  177SLPC   H8R20101   2.489   0.745   5.688  0.6750 -1.3563  0.5080
  177SLPC   H8S20102   2.665   0.713   5.659 -1.5811 -2.0363  1.8112
  177SLPC   C2920103   2.585   0.906   5.581  0.8488  0.4084 -0.2166
  177SLPC   H9R20104   2.626   0.999   5.622  1.4686 -0.4373  1.1226
  177SLPC  C21020105   2.520   0.899   5.462  0.0205 -0.6351  0.3879
  177SLPC  H10R20106   2.520   0.995   5.408  3.3527  0.1899  1.6100
  177SLPC  C21120107   2.439   0.786   5.395  0.3988 -1.2109  0.0644
  177SLPC  H11R20108   2.381   0.821   5.307 -3.3385 -1.9896  2.0177
  177SLPC  H11S20109   2.361   0.745   5.463 -0.7472 -0.7064 -0.9129
  177SLPC  C21220110   2.520   0.670   5.351 -0.7436 -0.4053  0.7407
  177SLPC  H12R20111   2.502   0.581   5.414  3.4651 -0.8064  1.6593
  177SLPC  C21320112   2.624   0.658   5.266  0.0305  0.4556  0.4238
  177SLPC  H13R20113   2.658   0.558   5.235  0.4640  0.9107 -0.6141
  177SLPC  C21420114   2.682   0.765   5.185  0.6645 -0.0441 -0.5483
  177SLPC  H14R20115   2.790   0.778   5.204  0.3941  0.6735  0.6302
  177SLPC  H14S20116   2.643   0.867   5.206 -3.3733 -1.1649 -1.6614
  177SLPC  C21520117   2.669   0.745   5.033 -0.2815  0.1738 -0.3393
  177SLPC  H15R20118   2.693   0.847   4.996 -0.7084  0.8269  1.1090
  177SLPC  H15S20119   2.570   0.704   5.004 -0.6393 -0.6386  1.7923
  177SLPC  C21620120   2.775   0.645   4.966 -0.4806  0.4859  0.6566
  177SLPC  H16R20121   2.756   0.546   5.011  3.3537  0.2458  2.1536
  177SLPC  H16S20122   2.876   0.678   5.001 -0.5122  2.0333 -0.6030
  177SLPC  C21720123   2.752   0.633   4.819 -0.3431 -0.9112  0.3862
  177SLPC  H17R20124   2.780   0.731   4.774 -1.6327 -0.1601  1.1434
  177SLPC  H17S20125   2.641   0.629   4.814 -0.3911  0.9043 -1.0984
  177SLPC  C21820126   2.827   0.512   4.768 -0.1319  0.0513  0.3879
  177SLPC  H18R20127   2.801   0.422   4.828  1.3615  0.1113  1.1625
  177SLPC  H18S20128   2.935   0.537   4.773 -0.5102  1.7484  0.8544
  177SLPC  H18T20129   2.789   0.481   4.668 -1.3581  0.0633  0.8322
  177SLPC   C3320130   2.160   0.644   6.071  0.0383 -0.0130 -0.2495
  177SLPC   H3X20131   2.184   0.536   6.085 -2.1499 -0.2793  2.2985
  177SLPC   H3Y20132   2.248   0.709   6.090 -0.2971  0.5695 -0.6804
  177SLPC   C3420133   2.124   0.669   5.927  0.3813  0.8972  0.9368
  177SLPC   H4X20134   2.210   0.662   5.857 -0.2880 -0.9134  0.2143
  177SLPC   H4Y20135   2.073   0.766   5.911 -0.7475  0.0709 -0.7847
  177SLPC   C3520136   2.027   0.556   5.869 -0.3650 -0.1541  0.3222
  177SLPC   H5X20137   1.927   0.600   5.849 -0.1137  0.5024  0.4839
  177SLPC   H5Y20138   2.028   0.485   5.954  0.9781  0.1632  0.6050
  177SLPC   C3620139   2.089   0.478   5.751 -0.9990 -0.4466  0.1475
  177SLPC   H6X20140   2.023   0.390   5.740 -0.6376 -0.7165  0.1103
  177SLPC   H6Y20141   2.189   0.437   5.775  0.7960  3.5432  0.2818
  177SLPC   C3720142   2.089   0.547   5.622  0.1602  0.1761  0.0236
  177SLPC   H7X20143   2.157   0.635   5.633 -0.7529  1.0848 -1.3274
  177SLPC   H7Y20144   1.989   0.585   5.594 -0.3968 -1.6511 -0.5781
  177SLPC   C3820145   2.150   0.466   5.506 -0.3848 -1.0008 -0.1025
  177SLPC   H8X20146   2.108   0.364   5.493 -1.4770 -0.7056  0.9216
  177SLPC   H8Y20147   2.261   0.475   5.514  0.0109 -2.7807 -2.5308
  177SLPC   C3920148   2.116   0.534   5.367 -0.2451 -0.0682 -1.0457
  177SLPC   H9X20149   2.123   0.645   5.372  1.4032 -0.1890  0.2420
  177SLPC   H9Y20150   2.009   0.511   5.347 -0.6162 -1.6043  2.1092
  177SLPC  C31020151   2.193   0.466   5.251 -0.3634 -0.7110  0.0521
  177SLPC  H10X20152   2.170   0.358   5.262 -0.9246 -0.4932  1.2433
  177SLPC  H10Y20153   2.302   0.478   5.266 -0.6441  2.5453  0.3611
  177SLPC  C31120154   2.172   0.525   5.108  0.4155  0.1376  0.4486
  177SLPC  H11X20155   2.070   0.497   5.073  0.8713 -0.1311 -0.7022
  177SLPC  H11Y20156   2.241   0.460   5.051  1.6905  1.0022  0.9520
  177SLPC  C31220157   2.211   0.668   5.084 -0.0713 -0.0886 -0.2648
  177SLPC  H12X20158   2.311   0.681   5.132 -0.3265 -2.5112  1.0964
  177SLPC  H12Y20159   2.145   0.739   5.137 -1.0434  0.3306 -1.9808
  177SLPC  C31320160   2.221   0.693   4.933  0.4257 -0.5536 -0.0247
  177SLPC  H13X20161   2.117   0.686   4.894  0.0215  0.1204  0.8942
  177SLPC  H13Y20162   2.291   0.618   4.890  0.3174 -1.8650  1.9715
  177SLPC  C31420163   2.282   0.829   4.899  0.3143  0.1452 -0.0719
  177SLPC  H14X20164   2.385   0.831   4.940 -0.6876  0.1447  2.6458
  177SLPC  H14Y20165   2.221   0.908   4.949 -2.2706 -1.1352 -1.0048
  177SLPC  C31520166   2.280   0.863   4.748 -0.1396  0.0628 -0.4896
  177SLPC  H15X20167   2.171   0.873   4.728 -0.9915 -2.2259  2.3463
  177SLPC  H15Y20168   2.310   0.779   4.682 -0.5188  0.1936 -0.8389
  177SLPC  C31620169   2.362   0.985   4.710 -0.2656 -0.3422  0.2293
  177SLPC  H16X20170   2.469   0.960   4.727 -0.3119  0.6654  2.3477
  177SLPC  H16Y20171   2.342   1.066   4.784 -0.1706  0.8084 -0.9699
  177SLPC  C31720172   2.347   1.028   4.562  0.1279  0.3532 -0.9156
  177SLPC  H17X20173   2.245   1.072   4.551 -0.0438 -0.2814 -1.9808
  177SLPC  H17Y20174   2.355   0.932   4.507  0.0564 -2.5383  3.6748
  177SLPC  C31820175   2.434   1.140   4.512  0.3803  0.2601  0.4033
  177SLPC  H18X20176   2.400   1.154   4.407  2.1341 -0.3115 -0.2794
  177SLPC  H18Y20177   2.543   1.120   4.515 -0.0625 -2.4537  0.4496
  177SLPC  H18Z20178   2.410   1.231   4.571  1.3134  0.1926  0.9099
  178SLPC     N20179   5.772   5.786   6.726 -0.0925 -0.5108  0.1366
  178SLPC   C1320180   5.812   5.722   6.853  0.0823  0.2740 -0.2745
  178SLPC  H13A20181   5.826   5.791   6.935  0.8913  0.2518 -0.3878
  178SLPC  H13B20182   5.736   5.653   6.886 -0.4869  0.2340 -1.5966
  178SLPC  H13C20183   5.910   5.679   6.843 -0.0304  0.4454 -2.9092
  178SLPC   C1420184   5.827   5.706   6.616  0.0518  0.1119 -0.1796
  178SLPC  H14A20185   5.933   5.690   6.628 -0.2194 -0.8701  1.1220
  178SLPC  H14B20186   5.773   5.613   6.609 -1.9408  1.1569  0.2821
  178SLPC  H14C20187   5.822   5.746   6.515 -2.2770 -2.1053 -1.0619
  178SLPC   C1520188   5.837   5.919   6.724 -0.3691 -0.4121 -0.3532
  178SLPC  H15A20189   5.789   5.989   6.791  0.3332  1.0537 -1.3358
  178SLPC  H15B20190   5.941   5.909   6.749 -0.8852  0.6404  2.7232
  178SLPC  H15C20191   5.829   5.964   6.626  0.3826 -1.5383 -0.9399
  178SLPC   C1220192   5.620   5.815   6.721  0.6188 -0.6228 -0.2163
  178SLPC  H12A20193   5.586   5.881   6.643  0.2174 -1.7769 -1.0559
  178SLPC  H12B20194   5.592   5.861   6.815  1.1934 -0.7361  0.0129
  178SLPC   C1120195   5.529   5.695   6.721  0.5837  0.8583  0.1565
  178SLPC  H11A20196   5.528   5.647   6.821 -0.0369  0.6390  0.0536
  178SLPC  H11B20197   5.558   5.615   6.650  3.0090  0.6604  1.2526
  178SLPC     P20198   5.346   5.824   6.580  0.6509 -0.1596 -0.3528
  178SLPC   O1320199   5.202   5.845   6.592  0.0584  0.6825  0.5177
  178SLPC   O1420200   5.423   5.948   6.570  0.0147  0.0873  0.2578
  178SLPC   O1220201   5.398   5.752   6.706 -0.2007  0.3791  0.0990
  178SLPC   O1120202   5.376   5.715   6.470 -0.3817 -0.2180  0.9660
  178SLPC    C120203   5.491   5.723   6.382 -0.5879  1.1211  0.0278
  178SLPC    HA20204   5.547   5.818   6.370 -0.2144  0.8701 -0.2742
  178SLPC    HB20205   5.573   5.657   6.418 -1.6536  0.1830  0.7838
  178SLPC    C220206   5.467   5.678   6.235  0.5571  0.5128  0.5656
  178SLPC    HS20207   5.568   5.672   6.188  1.1015 -3.0464  1.8777
  178SLPC   O2120208   5.373   5.758   6.163  0.0733 -0.0960  0.1939
  178SLPC   C2120209   5.412   5.876   6.130  0.3536 -1.0577 -1.2171
  178SLPC   O2220210   5.524   5.924   6.157 -0.2529 -0.0913  0.0614
  178SLPC   C2220211   5.307   5.949   6.049 -0.3548  0.1742 -0.2864
  178SLPC   H2R20212   5.240   6.007   6.116 -1.0958  1.1723 -1.8153
  178SLPC   H2S20213   5.352   6.024   5.980  1.1726 -0.1328  0.3354
  178SLPC    C320214   5.418   5.533   6.216 -0.0754  0.4947  0.5051
  178SLPC    HX20215   5.314   5.540   6.255 -0.1688 -1.8574  0.8142
  178SLPC    HY20216   5.481   5.460   6.272 -1.3103 -0.6537  0.4477
  178SLPC   O3120217   5.432   5.489   6.079 -0.3981  0.0668  0.3736
  178SLPC   C3120218   5.326   5.438   6.022 -1.0312 -0.5126  0.0039
  178SLPC   O3220219   5.219   5.421   6.076 -0.0378  0.1639 -0.2351
  178SLPC   C3220220   5.363   5.393   5.879  0.3124  0.6794 -0.3099
  178SLPC   H2X20221   5.474   5.392   5.874  0.2611 -0.6462 -1.8629
  178SLPC   H2Y20222   5.325   5.472   5.811  0.1238  1.2735  0.4691
  178SLPC   C2320223   5.218   5.849   5.966 -0.3081 -0.5892 -0.0525
  178SLPC   H3R20224   5.128   5.909   5.940 -0.9744 -2.0401 -1.2231
  178SLPC   H3S20225   5.186   5.755   6.016 -3.3313  0.0805 -0.5184
  178SLPC   C2420226   5.284   5.804   5.837 -0.1584 -0.3629  0.1420
  178SLPC   H4R20227   5.360   5.726   5.860  0.3697 -0.0135 -0.3897
  178SLPC   H4S20228   5.329   5.890   5.782 -2.5806  0.7163 -0.2988
  178SLPC   C2520229   5.189   5.755   5.733  0.6663  0.4034 -0.1674
  178SLPC   H5R20230   5.137   5.841   5.687 -1.1860  0.5118  1.9526
  178SLPC   H5S20231   5.125   5.675   5.776  1.8554 -0.5116 -0.0441
  178SLPC   C2620232   5.261   5.687   5.609 -0.1326  0.3595 -0.2738
  178SLPC   H6R20233   5.189   5.608   5.579 -1.2419  0.0249  2.9266
  178SLPC   H6S20234   5.361   5.644   5.632 -1.2700 -1.9692  0.6957
  178SLPC   C2720235   5.269   5.786   5.486  0.5121  0.4178 -0.4640
  178SLPC   H7R20236   5.329   5.876   5.512  1.2845 -0.4485  0.8432
  178SLPC   H7S20237   5.167   5.816   5.453  1.3865  2.9547 -1.1381
  178SLPC   C2820238   5.335   5.713   5.368 -0.3017  0.1437 -0.2522
  178SLPC   H8R20239   5.426   5.670   5.415 -2.1510 -2.5639  1.1147
  178SLPC   H8S20240   5.367   5.792   5.297 -1.8058  0.0161 -1.1139
  178SLPC   C2920241   5.273   5.593   5.298  0.0563 -0.1236  0.4478
  178SLPC   H9R20242   5.229   5.515   5.362  0.3665  0.2098  1.0720
  178SLPC  C21020243   5.270   5.580   5.161 -0.1273  0.0508 -0.0223
  178SLPC  H10R20244   5.219   5.493   5.117 -1.2472  0.3493  0.6259
  178SLPC  C21120245   5.330   5.679   5.065  0.4370  0.3029  0.1118
  178SLPC  H11R20246   5.431   5.644   5.037 -0.1420  0.3627 -2.1997
  178SLPC  H11S20247   5.345   5.782   5.104 -0.3205  0.3251  0.3702
  178SLPC  C21220248   5.231   5.709   4.957 -0.5084  0.1634  0.0893
  178SLPC  H12R20249   5.128   5.729   4.991 -2.0985 -4.3881 -1.3174
  178SLPC  C21320250   5.256   5.716   4.827  0.1759  0.2710 -0.9957
  178SLPC  H13R20251   5.173   5.744   4.760 -1.4183  3.2482  1.9220
  178SLPC  C21420252   5.384   5.678   4.753 -0.0501 -0.2016  0.6528
  178SLPC  H14R20253   5.472   5.647   4.812  1.2813 -0.7621 -1.5358
  178SLPC  H14S20254   5.425   5.766   4.698 -2.1013 -0.2675 -1.1421
  178SLPC  C21520255   5.339   5.565   4.656 -0.7747  0.1320  0.4913
  178SLPC  H15R20256   5.244   5.570   4.599 -1.0927 -2.6091  0.6254
  178SLPC  H15S20257   5.343   5.488   4.736  2.7383  2.4085  2.7595
  178SLPC  C21620258   5.441   5.528   4.544  0.4988 -0.6603 -0.3639
  178SLPC  H16R20259   5.532   5.495   4.599  1.4589 -0.1083 -1.5812
  178SLPC  H16S20260   5.462   5.616   4.481  1.3798 -0.9719 -0.5295
  178SLPC  C21720261   5.396   5.415   4.449 -0.8452 -0.2508  0.1767
  178SLPC  H17R20262   5.377   5.328   4.515  0.3086 -0.5129  0.1795
  178SLPC  H17S20263   5.481   5.393   4.381 -0.4747  0.8069  0.2767
  178SLPC  C21820264   5.268   5.436   4.368 -0.3605  0.3575 -0.3652
  178SLPC  H18R20265   5.182   5.461   4.433 -1.6476 -0.8782 -1.5434
  178SLPC  H18S20266   5.230   5.354   4.305  3.7025 -1.0106 -1.3497
  178SLPC  H18T20267   5.289   5.522   4.300  0.1205  2.3280  2.1053
  178SLPC   C3320268   5.305   5.258   5.833 -0.0960  0.7134 -0.2478
  178SLPC   H3X20269   5.196   5.244   5.845  0.0664 -0.7162 -0.2097
  178SLPC   H3Y20270   5.340   5.175   5.898 -1.9742  1.0888  1.3438
  178SLPC   C3420271   5.327   5.221   5.683 -0.3913 -0.2327 -0.4338
  178SLPC   H4X20272   5.291   5.310   5.626 -1.1838 -0.0292  0.3703
  178SLPC   H4Y20273   5.267   5.136   5.643  1.6655 -1.7518 -0.4453
  178SLPC   C3520274   5.478   5.208   5.656 -0.3837 -0.4708 -0.0408
  178SLPC   H5X20275   5.516   5.130   5.725 -2.2575 -0.2294  1.3581
  178SLPC   H5Y20276   5.521   5.301   5.698 -1.1773  0.7247 -1.7775
  178SLPC   C3620277   5.511   5.187   5.501 -0.9577 -0.1409  0.7347
  178SLPC   H6X20278   5.481   5.274   5.439 -1.5280  1.2547  2.8833
  178SLPC   H6Y20279   5.442   5.103   5.476 -0.6071  0.3977 -2.4951
  178SLPC   C3720280   5.659   5.151   5.470  0.0228 -0.6153 -0.4095
  178SLPC   H7X20281   5.677   5.056   5.524 -0.6541 -0.1508  0.6717
  178SLPC   H7Y20282   5.724   5.230   5.514 -1.2512  0.3140 -0.1368
  178SLPC   C3820283   5.706   5.122   5.325 -0.2188  0.2263 -0.1863
  178SLPC   H8X20284   5.624   5.068   5.273  0.4626 -2.3526  1.2295
  178SLPC   H8Y20285   5.802   5.066   5.330 -1.1868 -1.8085 -2.3863
  178SLPC   C3920286   5.732   5.252   5.244  0.6293  0.3138 -0.1894
  178SLPC   H9X20287   5.822   5.308   5.275  1.2329  1.1773 -3.1860
  178SLPC   H9Y20288   5.646   5.321   5.256  0.8392  0.7797 -1.3143
  178SLPC  C31020289   5.736   5.211   5.095 -0.5734 -0.2256  0.0105
  178SLPC  H10X20290   5.645   5.152   5.072 -0.0568 -0.6715 -0.9581
  178SLPC  H10Y20291   5.818   5.137   5.082  0.1728  0.5507  0.1484
  178SLPC  C31120292   5.753   5.327   4.998  0.3090 -0.2797 -0.6325
  178SLPC  H11X20293   5.834   5.390   5.043 -0.0088 -1.0959  1.2000
  178SLPC  H11Y20294   5.667   5.397   4.989  0.7016  0.2727 -0.2139
  178SLPC  C31220295   5.785   5.280   4.856 -0.6677  0.0731 -0.1069
  178SLPC  H12X20296   5.857   5.198   4.875 -1.4639  0.0109  3.3263
  178SLPC  H12Y20297   5.833   5.364   4.801 -2.4687  1.8392  0.8971
  178SLPC  C31320298   5.668   5.224   4.778 -0.0263  0.4722 -0.7838
  178SLPC  H13X20299   5.586   5.299   4.781  1.0588  1.6937  1.7340
  178SLPC  H13Y20300   5.637   5.134   4.835 -0.1842  0.7272 -0.4599
  178SLPC  C31420301   5.712   5.188   4.639 -0.5823  0.5552 -0.0607
  178SLPC  H14X20302   5.798   5.118   4.642 -0.4912  0.6911  0.9394
  178SLPC  H14Y20303   5.741   5.281   4.585  1.1354 -1.6106 -3.1670
  178SLPC  C31520304   5.598   5.119   4.564 -0.1094 -0.2467  0.1974
  178SLPC  H15X20305   5.519   5.196   4.559 -2.3756 -2.4229  0.4859
  178SLPC  H15Y20306   5.560   5.037   4.629  1.8072 -2.3314 -1.1375
  178SLPC  C31620307   5.651   5.068   4.429  0.0760  0.3721 -0.2399
  178SLPC  H16X20308   5.565   5.025   4.373 -0.7299  2.6217 -0.8265
  178SLPC  H16Y20309   5.721   4.988   4.462  0.8545  1.4674  0.8424
  178SLPC  C31720310   5.728   5.161   4.340 -0.5733  0.6327  0.0658
  178SLPC  H17X20311   5.815   5.205   4.394  0.1044  1.2256 -1.4600
  178SLPC  H17Y20312   5.664   5.246   4.309 -0.3343  0.4727 -0.8890
  178SLPC  C31820313   5.778   5.092   4.209 -0.4427 -0.2647 -0.1120
  178SLPC  H18X20314   5.839   5.162   4.147  1.5788 -2.1630 -0.3754
  178SLPC  H18Y20315   5.690   5.066   4.146 -0.2918 -0.9593 -0.0441
  178SLPC  H18Z20316   5.847   5.010   4.236 -0.6395 -0.4849 -0.2704
  179SLPC     N20317   2.495   2.463   2.043 -0.3197  0.4332  0.5623
  179SLPC   C1320318   2.480   2.560   1.938  0.2416 -0.0448  0.1771
  179SLPC  H13A20319   2.439   2.654   1.973  0.5792  0.2655 -0.2456
  179SLPC  H13B20320   2.582   2.589   1.917  0.3990  0.7973  1.8974
  179SLPC  H13C20321   2.418   2.529   1.856  1.0539  2.5407 -1.5485
  179SLPC   C1420322   2.554   2.338   1.972  0.5937  0.2678  0.3578
  179SLPC  H14A20323   2.639   2.374   1.915 -0.0358  0.2262 -0.6178
  179SLPC  H14B20324   2.583   2.259   2.040  1.3643 -0.3619 -0.6729
  179SLPC  H14C20325   2.480   2.297   1.906 -0.2022  0.3837  1.1660
  179SLPC   C1520326   2.368   2.416   2.112  0.7022 -0.5935 -0.6325
  179SLPC  H15A20327   2.308   2.359   2.042 -0.0072 -1.5270  0.6975
  179SLPC  H15B20328   2.394   2.364   2.203  0.6496  3.5424  2.0041
  179SLPC  H15C20329   2.309   2.499   2.148  1.7226  0.2102 -0.7624
  179SLPC   C1220330   2.597   2.516   2.152  0.4466  0.9126 -0.3074
  179SLPC  H12A20331   2.694   2.527   2.106  1.1388 -1.1795  0.5279
  179SLPC  H12B20332   2.609   2.440   2.228 -4.8285 -1.2860 -1.1964
  179SLPC   C1120333   2.561   2.647   2.220 -0.1627  0.0019  0.1275
  179SLPC  H11A20334   2.626   2.659   2.309  1.8838 -0.6782 -1.2025
  179SLPC  H11B20335   2.457   2.632   2.257  0.9483 -0.2330  3.4672
  179SLPC     P20336   2.714   2.822   2.099 -0.1514  0.1338 -0.1328
  179SLPC   O1320337   2.807   2.707   2.082  0.0406  0.5242 -0.2053
  179SLPC   O1420338   2.696   2.907   1.977 -0.6664  0.0277  0.2978
  179SLPC   O1220339   2.571   2.750   2.127 -0.4516 -0.3386 -0.8015
  179SLPC   O1120340   2.737   2.909   2.230  0.2511  0.3047 -0.6147
  179SLPC    C120341   2.626   2.962   2.300  0.0475  0.0579 -0.6059
  179SLPC    HA20342   2.580   3.050   2.252 -0.0564  1.0043  1.1497
  179SLPC    HB20343   2.543   2.889   2.312 -0.0128  0.3516  0.9220
  179SLPC    C220344   2.672   2.998   2.451  1.1058  0.1507  0.0713
  179SLPC    HS20345   2.750   3.076   2.439  0.0401  1.1496 -0.6374
  179SLPC   O2120346   2.719   2.884   2.522 -0.1442  0.1318 -0.7428
  179SLPC   C2120347   2.845   2.848   2.511  0.7128  0.1174  0.3843
  179SLPC   O2220348   2.940   2.908   2.459  0.0889 -0.2894 -0.5322
  179SLPC   C2220349   2.860   2.709   2.569  0.1076 -0.2365 -0.2699
  179SLPC   H2R20350   2.810   2.698   2.668  0.7742 -0.1747  0.0850
  179SLPC   H2S20351   2.806   2.648   2.494  2.8995 -0.1573 -2.5141
  179SLPC    C320352   2.561   3.068   2.530  0.3833 -0.3842 -0.2020
  179SLPC    HX20353   2.469   3.005   2.528  0.3012 -0.2876  0.4863
  179SLPC    HY20354   2.529   3.165   2.486  0.4865 -1.3952 -2.7037
  179SLPC   O3120355   2.608   3.092   2.667  0.1905 -0.3987  0.1412
  179SLPC   C3120356   2.560   3.012   2.765  0.4398 -0.3611 -0.0370
  179SLPC   O3220357   2.475   2.927   2.752 -0.2550 -0.1520  0.4577
  179SLPC   C3220358   2.636   3.037   2.888 -0.1903 -0.4602 -0.0378
  179SLPC   H2X20359   2.674   3.140   2.880 -0.9278 -0.1170  0.7124
  179SLPC   H2Y20360   2.721   2.968   2.904  2.5197  2.4122 -1.0648
  179SLPC   C2320361   3.003   2.650   2.582 -0.0283  0.4086  0.3890
  179SLPC   H3R20362   3.056   2.668   2.485 -1.0256 -0.7975 -0.4167
  179SLPC   H3S20363   3.005   2.540   2.596 -1.5231 -0.1781 -2.9339
  179SLPC   C2420364   3.094   2.709   2.695 -0.2354  0.0366 -0.0721
  179SLPC   H4R20365   3.089   2.820   2.698  0.1288  0.0541 -0.0847
  179SLPC   H4S20366   3.203   2.689   2.697 -0.1521  0.5134  0.8543
  179SLPC   C2520367   3.042   2.670   2.832 -0.2053 -0.2145 -0.0721
  179SLPC   H5R20368   3.045   2.559   2.842  1.4452 -0.2822 -0.9537
  179SLPC   H5S20369   2.942   2.717   2.838  1.2891  3.4076 -0.8638
  179SLPC   C2620370   3.116   2.734   2.951  0.5811  0.0825  0.8612
  179SLPC   H6R20371   3.101   2.843   2.964  2.9419  0.4584  0.9287
  179SLPC   H6S20372   3.224   2.706   2.939  0.3462 -0.6679  0.3538
  179SLPC   C2720373   3.089   2.647   3.077  0.5306  0.7584 -0.2310
  179SLPC   H7R20374   3.118   2.543   3.049  0.8221  1.0688 -1.0940
  179SLPC   H7S20375   2.978   2.642   3.090  0.3659 -3.3721 -1.7807
  179SLPC   C2820376   3.151   2.693   3.214 -0.1219 -0.4936 -0.3724
  179SLPC   H8R20377   3.261   2.679   3.225  0.1214  0.3948 -1.5114
  179SLPC   H8S20378   3.093   2.643   3.295  1.1131 -3.1538 -1.0127
  179SLPC   C2920379   3.126   2.838   3.226 -0.5922  0.4701  0.5381
  179SLPC   H9R20380   3.018   2.861   3.226 -0.6234  0.3281  0.8185
  179SLPC  C21020381   3.221   2.935   3.222 -0.3840 -0.4264  0.1774
  179SLPC  H10R20382   3.196   3.040   3.243  0.8710 -0.1548  0.4423
  179SLPC  C21120383   3.371   2.930   3.213  0.6132 -0.4534 -0.3669
  179SLPC  H11R20384   3.422   2.850   3.270 -0.9263 -0.5224  0.9761
  179SLPC  H11S20385   3.410   3.014   3.274 -1.0441 -1.1459  1.7416
  179SLPC  C21220386   3.416   2.938   3.070 -1.0073 -0.2115  0.2700
  179SLPC  H12R20387   3.415   2.850   3.005  3.9866 -0.6555  0.3655
  179SLPC  C21320388   3.488   3.049   3.031  0.1362 -0.0322 -1.0532
  179SLPC  H13R20389   3.522   3.061   2.927  2.5933 -1.4319 -0.5083
  179SLPC  C21420390   3.507   3.177   3.105 -0.0003  0.0422 -0.0497
  179SLPC  H14R20391   3.608   3.210   3.072  1.1487 -2.3718  0.8312
  179SLPC  H14S20392   3.503   3.172   3.216  2.4723  2.0299  0.2280
  179SLPC  C21520393   3.396   3.285   3.077  0.6273  0.0663  0.5246
  179SLPC  H15R20394   3.301   3.230   3.059  1.2799 -0.0748 -3.1742
  179SLPC  H15S20395   3.405   3.318   2.972 -2.3824 -1.0390 -0.1886
  179SLPC  C21620396   3.375   3.396   3.180 -0.6372 -0.1371  0.2628
  179SLPC  H16R20397   3.365   3.354   3.282 -1.1548 -1.9725 -0.4910
  179SLPC  H16S20398   3.274   3.439   3.157 -0.8865  0.1193  1.7780
  179SLPC  C21720399   3.488   3.491   3.165  0.0171 -0.2779 -0.3009
  179SLPC  H17R20400   3.502   3.510   3.056  0.1945 -1.4629 -0.4967
  179SLPC  H17S20401   3.584   3.450   3.203  0.4917  0.4106 -0.7236
  179SLPC  C21820402   3.458   3.623   3.238  0.3056  0.6006 -0.0548
  179SLPC  H18R20403   3.369   3.669   3.191 -1.7307 -1.2143  1.7545
  179SLPC  H18S20404   3.528   3.709   3.248  1.4563 -0.2334 -0.7114
  179SLPC  H18T20405   3.427   3.596   3.341 -0.1340  1.5504  0.0740
  179SLPC   C3320406   2.552   3.015   3.010 -0.0104 -0.4192 -0.3497
  179SLPC   H3X20407   2.508   2.913   3.017  0.3720 -0.5200  0.8902
  179SLPC   H3Y20408   2.466   3.085   3.019  0.1493 -0.0440 -1.6067
  179SLPC   C3420409   2.633   3.022   3.139 -0.6213 -0.0115  0.3997
  179SLPC   H4X20410   2.555   3.046   3.214 -2.2886  0.0214 -1.2852
  179SLPC   H4Y20411   2.703   3.109   3.145  0.0504 -0.3203 -1.9579
  179SLPC   C3520412   2.708   2.891   3.179  0.1185  0.2952  0.3444
  179SLPC   H5X20413   2.630   2.811   3.177  0.3818  0.0492 -0.4075
  179SLPC   H5Y20414   2.790   2.865   3.110 -0.1139  0.6323 -0.0611
  179SLPC   C3620415   2.755   2.901   3.325 -0.0584  0.6352  0.2322
  179SLPC   H6X20416   2.826   2.818   3.345  0.3177  1.3497  2.1110
  179SLPC   H6Y20417   2.665   2.885   3.388  0.3916 -0.2089  0.6843
  179SLPC   C3720418   2.828   3.035   3.367  0.4771  0.2858  0.5305
  179SLPC   H7X20419   2.754   3.117   3.349  1.7651  1.4797  0.5190
  179SLPC   H7Y20420   2.911   3.059   3.297  0.7817 -0.0893  0.7627
  179SLPC   C3820421   2.861   3.024   3.517 -0.3851 -0.8754  0.4969
  179SLPC   H8X20422   2.905   2.924   3.536  0.3062 -0.7447 -0.3150
  179SLPC   H8Y20423   2.769   3.030   3.578  0.5547 -1.1684  1.9715
  179SLPC   C3920424   2.956   3.124   3.565 -1.1919  0.3619  0.2092
  179SLPC   H9X20425   2.938   3.229   3.535 -1.6779  0.1070 -0.4032
  179SLPC   H9Y20426   3.055   3.095   3.523 -1.5708 -0.7737  0.0742
  179SLPC  C31020427   2.977   3.130   3.721  0.2545  0.2118 -0.1604
  179SLPC  H10X20428   3.013   3.028   3.746  0.1227 -0.5245 -2.7205
  179SLPC  H10Y20429   2.882   3.144   3.777  0.2698 -1.2718  0.2954
  179SLPC  C31120430   3.066   3.243   3.765 -0.3342  0.2218 -0.3608
  179SLPC  H11X20431   3.079   3.318   3.685 -3.9249  0.4733 -0.8825
  179SLPC  H11Y20432   3.165   3.207   3.800 -0.2688  2.4256  2.0771
  179SLPC  C31220433   3.009   3.323   3.884 -0.0518  0.2145 -0.6721
  179SLPC  H12X20434   3.087   3.397   3.911  0.0524 -0.0334 -0.2795
  179SLPC  H12Y20435   2.981   3.247   3.960  1.0907 -1.4616 -1.8679
  179SLPC  C31320436   2.891   3.406   3.845 -0.0456  0.3684  0.2833
  179SLPC  H13X20437   2.798   3.350   3.820  0.2900  0.8000 -2.2555
  179SLPC  H13Y20438   2.922   3.456   3.750 -0.7407  1.4655  0.6064
  179SLPC  C31420439   2.839   3.515   3.946 -0.3580 -0.4794 -0.5307
  179SLPC  H14X20440   2.816   3.449   4.032  0.0202 -0.8212 -0.6889
  179SLPC  H14Y20441   2.741   3.555   3.912 -2.0637 -1.3755  2.8162
  179SLPC  C31520442   2.941   3.615   3.990 -1.2838  0.9507  0.6743
  179SLPC  H15X20443   2.962   3.667   3.894 -0.1252 -1.4068 -0.4146
  179SLPC  H15Y20444   3.030   3.560   4.024 -0.9671 -1.2772 -3.2104
  179SLPC  C31620445   2.890   3.691   4.106 -0.1802 -0.4755 -0.1286
  179SLPC  H16X20446   2.870   3.620   4.189 -0.6506 -0.7783 -0.4946
  179SLPC  H16Y20447   2.791   3.741   4.095 -0.7780 -1.5097  0.4885
  179SLPC  C31720448   2.996   3.798   4.155 -0.1659 -0.1344  0.0115
  179SLPC  H17X20449   3.096   3.750   4.164 -0.3141 -0.3120  0.7559
  179SLPC  H17Y20450   2.967   3.812   4.261 -1.1842  2.0919 -0.5026
  179SLPC  C31820451   2.998   3.931   4.080  0.3450  0.0254 -0.1394
  179SLPC  H18X20452   2.897   3.976   4.089 -0.5631 -1.0636 -3.6160
  179SLPC  H18Y20453   3.012   3.918   3.971  0.0201  0.4461 -0.2323
  179SLPC  H18Z20454   3.079   3.994   4.122  0.4343 -1.0204  1.3615
  180SLPC     N20455   6.848   2.730   2.233 -0.0644  0.3555 -0.7132
  180SLPC   C1320456   6.743   2.722   2.341  0.3835 -0.0908  0.3152
  180SLPC  H13A20457   6.659   2.660   2.314 -0.7147  1.9630 -1.3394
  180SLPC  H13B20458   6.787   2.698   2.436 -1.0016 -1.4381  0.6538
  180SLPC  H13C20459   6.709   2.824   2.349  2.6581  0.9903 -2.1893
  180SLPC   C1420460   6.765   2.755   2.110  0.1604 -0.4174 -0.6941
  180SLPC  H14A20461   6.822   2.756   2.019  0.1034  1.4683 -0.7575
  180SLPC  H14B20462   6.686   2.681   2.102  0.1785 -0.5561  0.2895
  180SLPC  H14C20463   6.710   2.849   2.118 -0.2658 -0.6103 -1.2809
  180SLPC   C1520464   6.918   2.600   2.219  0.2097  0.1907  0.0351
  180SLPC  H15A20465   6.863   2.526   2.162 -0.5787  0.4346  0.4635
  180SLPC  H15B20466   7.008   2.608   2.160 -0.0826 -1.1689 -0.6392
  180SLPC  H15C20467   6.957   2.556   2.310  1.5314 -1.3960 -1.2349
  180SLPC   C1220468   6.955   2.833   2.268 -0.2435 -0.5540  0.0928
  180SLPC  H12A20469   7.014   2.805   2.353 -1.1314  0.8150  1.2068
  180SLPC  H12B20470   6.914   2.924   2.310 -0.7420 -2.1625  3.3851
  180SLPC   C1120471   7.050   2.873   2.152  0.7743  0.5969 -0.5969
  180SLPC  H11A20472   7.097   2.971   2.177 -0.7137  1.5883 -1.4357
  180SLPC  H11B20473   6.990   2.894   2.060  0.5016 -1.9290 -1.0553
  180SLPC     P20474   7.262   2.730   2.228 -0.2676 -0.7764 -0.0017
  180SLPC   O1320475   7.263   2.585   2.234  0.3685  0.1406  0.0709
  180SLPC   O1420476   7.388   2.796   2.182 -0.1709  0.4323  0.4013
  180SLPC   O1220477   7.149   2.771   2.121 -0.2776 -0.2589 -0.6042
  180SLPC   O1120478   7.217   2.798   2.364  0.6504 -0.0355  0.4200
  180SLPC    C120479   7.308   2.872   2.444  0.1698 -0.1273  0.4819
  180SLPC    HA20480   7.351   2.954   2.382 -3.8003  1.7626 -0.1345
  180SLPC    HB20481   7.249   2.939   2.510 -0.2914 -0.2152  0.1685
  180SLPC    C220482   7.408   2.786   2.522  0.4440 -0.0727  0.7154
  180SLPC    HS20483   7.474   2.736   2.447 -1.2849 -2.6440  0.7429
  180SLPC   O2120484   7.323   2.692   2.597 -0.0833 -0.1938  0.1674
  180SLPC   C2120485   7.396   2.587   2.640 -0.3886  0.5569  0.1399
  180SLPC   O2220486   7.504   2.561   2.598 -0.5242 -0.5286  0.1847
  180SLPC   C2220487   7.334   2.501   2.750  0.0665 -0.2568 -0.4469
  180SLPC   H2R20488   7.289   2.409   2.708  2.2001 -0.8269 -1.6373
  180SLPC   H2S20489   7.421   2.469   2.812  1.7118 -0.7065 -2.8603
  180SLPC    C320490   7.492   2.873   2.605 -0.6640 -0.1178 -0.4886
  180SLPC    HX20491   7.544   2.935   2.528 -0.8811 -0.0389 -0.5722
  180SLPC    HY20492   7.568   2.816   2.662 -0.5555  0.3953 -0.1014
  180SLPC   O3120493   7.419   2.951   2.703 -0.5588  0.9575  0.4267
  180SLPC   C3120494   7.395   3.073   2.672 -0.1057 -0.5822  0.2945
  180SLPC   O3220495   7.408   3.126   2.562  1.0066  0.0931  0.5363
  180SLPC   C3220496   7.350   3.162   2.789  0.1977  0.6687  1.1883
  180SLPC   H2X20497   7.292   3.243   2.742  0.1142  1.1107  2.0218
  180SLPC   H2Y20498   7.443   3.205   2.834  2.2831 -0.8790 -1.3253
  180SLPC   C2320499   7.233   2.575   2.829  0.0436 -0.1828  0.3950
  180SLPC   H3R20500   7.169   2.507   2.890  1.9695  0.5261  3.4836
  180SLPC   H3S20501   7.168   2.622   2.753  2.4697  2.8450 -0.0265
  180SLPC   C2420502   7.291   2.689   2.917  0.1057  0.1341  0.5243
  180SLPC   H4R20503   7.201   2.740   2.957 -0.1841  0.1796 -0.1773
  180SLPC   H4S20504   7.329   2.768   2.848 -0.5340  1.8400  2.0364
  180SLPC   C2520505   7.396   2.654   3.016  0.3193  0.4195 -0.4225
  180SLPC   H5R20506   7.477   2.600   2.962 -0.3290  1.6374 -2.7614
  180SLPC   H5S20507   7.347   2.578   3.081 -1.7162  0.9373 -1.2685
  180SLPC   C2620508   7.434   2.775   3.105 -0.0498 -0.2414 -0.7432
  180SLPC   H6R20509   7.345   2.811   3.161 -0.0244 -3.1264  1.4022
  180SLPC   H6S20510   7.474   2.860   3.047 -0.1488 -0.2363 -0.8056
  180SLPC   C2720511   7.536   2.745   3.216  0.4267  0.3114 -0.1485
  180SLPC   H7R20512   7.565   2.842   3.259  1.1418 -0.6013  1.5169
  180SLPC   H7S20513   7.629   2.700   3.176  1.0443  1.4888 -0.0758
  180SLPC   C2820514   7.466   2.673   3.343  0.2654  0.3671 -0.0185
  180SLPC   H8R20515   7.411   2.586   3.300  0.3050 -0.1023  0.8650
  180SLPC   H8S20516   7.386   2.740   3.380 -0.6022 -0.9140  0.4927
  180SLPC   C2920517   7.570   2.621   3.436  0.1694 -0.0450 -1.3204
  180SLPC   H9R20518   7.573   2.511   3.445  1.6262  0.1510  1.6798
  180SLPC  C21020519   7.642   2.699   3.527  0.4848  0.5732  0.0291
  180SLPC  H10R20520   7.703   2.635   3.593  1.4168  2.4938  1.1277
  180SLPC  C21120521   7.651   2.847   3.549  0.4473 -0.4810 -0.0095
  180SLPC  H11R20522   7.582   2.890   3.624  0.4901  0.7559 -0.6558
  180SLPC  H11S20523   7.609   2.891   3.456 -0.4750 -3.7802 -1.3150
  180SLPC  C21220524   7.787   2.903   3.558  0.7175 -0.6681  0.4591
  180SLPC  H12R20525   7.853   2.880   3.473  0.6512 -1.8926  0.7279
  180SLPC  C21320526   7.834   2.978   3.656 -0.0263 -0.3653 -0.3086
  180SLPC  H13R20527   7.938   3.012   3.647  1.1334 -3.6912 -1.0207
  180SLPC  C21420528   7.761   3.007   3.782 -0.1044 -0.6018  0.2347
  180SLPC  H14R20529   7.653   2.985   3.776 -0.3972  0.8103  0.1480
  180SLPC  H14S20530   7.770   3.115   3.805  3.7034 -0.5560 -0.7432
  180SLPC  C21520531   7.818   2.921   3.905  0.9473 -0.0457 -0.1780
  180SLPC  H15R20532   7.821   2.811   3.891 -0.1556 -0.2026  0.6837
  180SLPC  H15S20533   7.750   2.940   3.991  0.4010 -1.1943 -0.3398
  180SLPC  C21620534   7.945   2.979   3.951  0.0472 -0.3277 -0.0859
  180SLPC  H16R20535   7.947   3.089   3.933 -2.3370 -0.1134  0.5970
  180SLPC  H16S20536   8.022   2.944   3.879 -0.2734  1.1424 -1.1825
  180SLPC  C21720537   7.979   2.945   4.093 -0.8470 -0.4973  0.1295
  180SLPC  H17R20538   7.968   2.835   4.106 -1.0461 -0.3471  1.3321
  180SLPC  H17S20539   7.903   2.980   4.166 -2.1892 -0.6866 -1.1299
  180SLPC  C21820540   8.124   2.977   4.129  0.4651  0.8901  0.2963
  180SLPC  H18R20541   8.187   2.896   4.086  0.4662 -0.2068  2.2512
  180SLPC  H18S20542   8.138   2.964   4.238  0.4334 -0.1840  0.1813
  180SLPC  H18T20543   8.158   3.075   4.087 -0.0846  1.2453  0.6651
  180SLPC   C3320544   7.264   3.086   2.892  0.1235  0.4298 -0.6679
  180SLPC   H3X20545   7.319   2.993   2.921 -1.1397 -0.5003 -1.1547
  180SLPC   H3Y20546   7.165   3.057   2.849  0.6588 -1.4173 -0.7663
  180SLPC   C3420547   7.218   3.170   3.016 -0.8395 -0.6212 -0.0508
  180SLPC   H4X20548   7.152   3.250   2.975  0.9143  0.4765 -0.8301
  180SLPC   H4Y20549   7.310   3.218   3.055 -0.3387 -1.2757 -0.4015
  180SLPC   C3520550   7.147   3.093   3.115 -0.0019  0.7827 -0.3186
  180SLPC   H5X20551   7.112   3.159   3.196 -0.2986  0.3622 -0.0993
  180SLPC   H5Y20552   7.214   3.019   3.164 -2.6043 -0.7762  1.1376
  180SLPC   C3620553   7.032   3.005   3.063  0.4717  0.2690 -0.0961
  180SLPC   H6X20554   6.998   2.936   3.143 -0.6910  2.6855  1.6225
  180SLPC   H6Y20555   7.069   2.934   2.986  0.4032  2.4730 -2.2603
  180SLPC   C3720556   6.908   3.069   3.004  0.0195 -0.1756 -0.5138
  180SLPC   H7X20557   6.947   3.112   2.909  2.0151  0.6956  0.6460
  180SLPC   H7Y20558   6.883   3.148   3.078  1.6527 -0.5860  0.5305
  180SLPC   C3820559   6.797   2.970   2.976 -0.0216  0.2484  0.4262
  180SLPC   H8X20560   6.844   2.881   2.929  0.9925  2.3833 -2.9821
  180SLPC   H8Y20561   6.727   3.020   2.906  1.9244  3.4789  0.5367
  180SLPC   C3920562   6.722   2.932   3.104 -0.8126 -0.4948 -0.2691
  180SLPC   H9X20563   6.781   2.871   3.176 -0.4172  1.3893  1.0720
  180SLPC   H9Y20564   6.633   2.869   3.081 -0.1746 -1.3155 -0.5807
  180SLPC  C31020565   6.665   3.049   3.180  0.5301 -0.1965 -0.2381
  180SLPC  H10X20566   6.608   3.103   3.102  0.5248 -2.0752 -1.6012
  180SLPC  H10Y20567   6.738   3.121   3.223 -1.8532  1.3749  1.4427
  180SLPC  C31120568   6.575   3.009   3.292 -0.5631 -0.0094  0.0922
  180SLPC  H11X20569   6.484   2.955   3.260 -2.7910  2.0881  2.5256
  180SLPC  H11Y20570   6.535   3.104   3.334 -0.7239 -0.4617  0.9812
  180SLPC  C31220571   6.641   2.925   3.401  0.2361  0.1285  0.1820
  180SLPC  H12X20572   6.724   2.981   3.449 -2.6433  3.2998  1.9298
  180SLPC  H12Y20573   6.681   2.834   3.352 -0.0226  1.2728 -2.3026
  180SLPC  C31320574   6.551   2.881   3.519 -0.2580 -0.4408 -0.7153
  180SLPC  H13X20575   6.612   2.814   3.583  0.1571  1.2883  0.7724
  180SLPC  H13Y20576   6.457   2.832   3.485  0.5850 -2.3482 -0.4048
  180SLPC  C31420577   6.512   3.002   3.604 -1.4635 -0.2889 -0.8869
  180SLPC  H14X20578   6.457   3.070   3.536 -5.3565 -0.8289  1.4437
  180SLPC  H14Y20579   6.607   3.051   3.635  0.3888 -2.5834 -2.5202
  180SLPC  C31520580   6.422   2.964   3.722  0.3603 -0.4030  0.8392
  180SLPC  H15X20581   6.346   2.892   3.685 -0.6285  0.1756  1.7122
  180SLPC  H15Y20582   6.374   3.061   3.748  0.4024 -0.5727  1.5820
  180SLPC  C31620583   6.485   2.925   3.854  0.1709  0.0258  0.6535
  180SLPC  H16X20584   6.549   3.008   3.888 -1.6230  1.7464 -0.0028
  180SLPC  H16Y20585   6.554   2.841   3.830  2.9126  1.8104  1.7794
  180SLPC  C31720586   6.388   2.876   3.957  0.3402  0.6853 -0.0501
  180SLPC  H17X20587   6.282   2.898   3.933  0.5813  1.1262 -0.7846
  180SLPC  H17Y20588   6.408   2.921   4.057  0.6732 -1.9925  1.1574
  180SLPC  C31820589   6.410   2.725   3.993 -0.0253  0.2208 -0.5148
  180SLPC  H18X20590   6.342   2.685   4.071 -0.7037 -0.4979 -1.4568
  180SLPC  H18Y20591   6.511   2.716   4.039  0.3182  1.9400 -0.8324
  180SLPC  H18Z20592   6.398   2.659   3.904 -1.2582  0.8725 -0.8603
  181SLPC     N20593   6.265   3.396   1.917 -0.3096 -0.5887  0.3384
  181SLPC   C1320594   6.396   3.422   1.990  0.1204  0.6931  0.1698
  181SLPC  H13A20595   6.450   3.335   2.022 -1.2927 -0.4822 -0.5159
  181SLPC  H13B20596   6.463   3.479   1.927 -0.5154  0.4299 -0.7671
  181SLPC  H13C20597   6.376   3.488   2.073  0.7315  2.3219 -0.9285
  181SLPC   C1420598   6.280   3.273   1.836  0.0369  0.1241 -0.5839
  181SLPC  H14A20599   6.189   3.243   1.786 -2.1875 -0.3704  3.3442
  181SLPC  H14B20600   6.372   3.283   1.780  1.1248  2.1582  1.3785
  181SLPC  H14C20601   6.295   3.192   1.905  0.0554  1.5026  1.1243
  181SLPC   C1520602   6.224   3.519   1.836  0.4213 -0.2702 -0.0610
  181SLPC  H15A20603   6.124   3.506   1.796 -0.0922 -0.9600  1.3517
  181SLPC  H15B20604   6.228   3.610   1.893 -0.1986  0.3538 -0.9891
  181SLPC  H15C20605   6.296   3.537   1.758 -1.2730 -1.4572 -2.0309
  181SLPC   C1220606   6.159   3.366   2.017  0.2160 -0.0372  0.1246
  181SLPC  H12A20607   6.170   3.268   2.061 -1.3885 -0.9156 -1.3075
  181SLPC  H12B20608   6.063   3.359   1.966  0.9264  0.4809 -1.3351
  181SLPC   C1120609   6.139   3.452   2.145 -0.0708  0.0393  0.3237
  181SLPC  H11A20610   6.240   3.452   2.193  0.4240  0.7889 -0.6709
  181SLPC  H11B20611   6.064   3.402   2.210 -0.9163  0.0544 -0.6229
  181SLPC     P20612   6.124   3.703   2.202 -0.0827 -0.2352  0.1212
  181SLPC   O1320613   6.273   3.736   2.216 -0.0826 -0.2644 -0.0794
  181SLPC   O1420614   6.033   3.809   2.157  0.5443 -0.3043  0.6777
  181SLPC   O1220615   6.098   3.579   2.109  0.0627 -0.1262  0.5819
  181SLPC   O1120616   6.073   3.652   2.337 -0.4151  0.2325 -0.1872
  181SLPC    C120617   5.938   3.600   2.347  0.4467 -0.2029 -0.4427
  181SLPC    HA20618   5.877   3.611   2.254 -1.5160 -0.1461  0.8092
  181SLPC    HB20619   5.945   3.490   2.359 -2.0094 -0.2952  0.6936
  181SLPC    C220620   5.860   3.638   2.477  0.3624  0.1339  0.5891
  181SLPC    HS20621   5.820   3.741   2.462 -3.4061 -1.1308  0.8413
  181SLPC   O2120622   5.948   3.621   2.593 -0.7506  0.3004  0.4204
  181SLPC   C2120623   5.909   3.708   2.689  0.2355 -0.1838  0.3446
  181SLPC   O2220624   5.839   3.808   2.676  0.0593  0.4714  0.7570
  181SLPC   C2220625   5.970   3.662   2.813 -0.2151 -0.2956 -0.0521
  181SLPC   H2R20626   5.945   3.555   2.831 -0.7123 -0.5387 -1.9266
  181SLPC   H2S20627   6.079   3.656   2.793 -0.1318  0.4332  0.1812
  181SLPC    C320628   5.733   3.552   2.489  0.4843 -0.0139  0.5251
  181SLPC    HX20629   5.757   3.444   2.476  1.4239  0.1964  0.4003
  181SLPC    HY20630   5.671   3.576   2.400 -1.0392  0.1790  1.6032
  181SLPC   O3120631   5.661   3.567   2.615  0.4292  0.3941 -0.0569
  181SLPC   C3120632   5.560   3.651   2.605  0.7365 -0.9579 -0.3234
  181SLPC   O3220633   5.538   3.718   2.507 -0.1611  0.2689  0.0434
  181SLPC   C3220634   5.466   3.650   2.723 -0.0254 -0.6622  0.4992
  181SLPC   H2X20635   5.435   3.544   2.731  0.4326 -0.8489 -0.0699
  181SLPC   H2Y20636   5.377   3.712   2.701  0.5781  0.1857  0.3789
  181SLPC   C2320637   5.938   3.738   2.947 -0.0348  0.0607 -0.3496
  181SLPC   H3R20638   5.828   3.755   2.949 -0.1328 -0.6471  0.5962
  181SLPC   H3S20639   5.981   3.841   2.948 -1.3938  0.7213 -2.3901
  181SLPC   C2420640   5.989   3.662   3.070 -0.1328 -0.1778  0.2362
  181SLPC   H4R20641   6.100   3.661   3.063 -0.0770  1.0604  0.5916
  181SLPC   H4S20642   5.960   3.555   3.077  0.1350 -0.2008  1.1964
  181SLPC   C2520643   5.945   3.732   3.194 -0.5846  0.2832  0.6529
  181SLPC   H5R20644   5.838   3.710   3.216 -0.5404 -2.0192 -1.0478
  181SLPC   H5S20645   5.967   3.840   3.190 -0.6095  0.2746  0.3150
  181SLPC   C2620646   6.026   3.672   3.314  0.3951  0.8119  0.3053
  181SLPC   H6R20647   6.054   3.757   3.381 -0.5933  1.1463  0.3132
  181SLPC   H6S20648   6.126   3.635   3.285  0.8620  1.1551  1.4337
  181SLPC   C2720649   5.952   3.570   3.393  0.4882  0.4366  0.3302
  181SLPC   H7R20650   5.936   3.486   3.321  0.8527  2.4131 -2.2163
  181SLPC   H7S20651   5.860   3.602   3.447 -0.8327 -3.2312  0.5350
  181SLPC   C2820652   6.046   3.512   3.503 -0.3800 -0.9998 -0.3778
  181SLPC   H8R20653   6.112   3.435   3.457  1.5765 -0.6979  1.7767
  181SLPC   H8S20654   5.985   3.452   3.573 -0.9653 -0.9454 -0.8295
  181SLPC   C2920655   6.133   3.602   3.587 -0.0564  0.4396  0.0113
  181SLPC   H9R20656   6.219   3.644   3.533  1.0669 -1.0756  0.5725
  181SLPC  C21020657   6.122   3.617   3.720  0.7311  0.0375  0.0417
  181SLPC  H10R20658   6.174   3.708   3.755 -1.5940  0.9098  1.4820
  181SLPC  C21120659   6.019   3.548   3.809  0.2286  0.4108  0.3087
  181SLPC  H11R20660   6.078   3.483   3.877  0.6621 -0.5355 -0.9378
  181SLPC  H11S20661   5.961   3.468   3.758  2.3890 -0.9204 -0.1761
  181SLPC  C21220662   5.944   3.649   3.892  0.5311 -0.6947 -0.4373
  181SLPC  H12R20663   5.848   3.681   3.848 -0.0123 -0.9670  0.5107
  181SLPC  C21320664   5.973   3.700   4.016  0.4033  0.3112 -0.3129
  181SLPC  H13R20665   5.913   3.779   4.062  1.5155  0.5365  0.8303
  181SLPC  C21420666   6.094   3.674   4.095  0.7296 -0.2705  0.1771
  181SLPC  H14R20667   6.139   3.775   4.098  0.3988 -0.1328  2.6241
  181SLPC  H14S20668   6.174   3.608   4.055  2.0780  0.6199  1.2939
  181SLPC  C21520669   6.058   3.621   4.238 -0.1470  0.4171  0.2093
  181SLPC  H15R20670   6.014   3.697   4.306 -0.7960  1.0791 -0.9204
  181SLPC  H15S20671   6.157   3.589   4.277 -0.3088  0.7113  0.8808
  181SLPC  C21620672   5.976   3.493   4.223 -0.7009 -0.1362 -0.0700
  181SLPC  H16R20673   6.041   3.437   4.153  1.7773  0.7075  1.4301
  181SLPC  H16S20674   5.882   3.506   4.165 -1.2074  2.1068  1.1427
  181SLPC  C21720675   5.936   3.425   4.360 -0.3435 -0.4151 -0.4500
  181SLPC  H17R20676   5.870   3.501   4.406  1.8267  1.2820  0.0307
  181SLPC  H17S20677   6.013   3.413   4.439 -1.6946 -0.0214  0.9896
  181SLPC  C21820678   5.859   3.301   4.346  0.7892  0.1041 -0.6104
  181SLPC  H18R20679   5.801   3.310   4.251  0.1881  0.8144 -0.1890
  181SLPC  H18S20680   5.782   3.274   4.421  2.0439  0.8238  0.9841
  181SLPC  H18T20681   5.931   3.218   4.332  0.1890 -0.8338  1.5159
  181SLPC   C3320682   5.542   3.708   2.843 -0.0695  0.4358  0.4005
  181SLPC   H3X20683   5.526   3.818   2.842 -2.4921  0.2176 -3.1504
  181SLPC   H3Y20684   5.650   3.688   2.827 -0.3067 -1.3406  0.8170
  181SLPC   C3420685   5.506   3.657   2.986  0.4158  0.3548 -0.5040
  181SLPC   H4X20686   5.401   3.669   3.020  0.7965  0.9380  0.5120
  181SLPC   H4Y20687   5.573   3.724   3.043  1.4877 -0.7577 -0.4213
  181SLPC   C3520688   5.542   3.509   2.996  0.2998 -0.3854  0.3070
  181SLPC   H5X20689   5.642   3.482   2.956  1.7027 -0.1804  3.4267
  181SLPC   H5Y20690   5.467   3.456   2.934  0.0079 -0.6261  0.8646
  181SLPC   C3620691   5.538   3.445   3.133 -0.6897  0.2427  0.1050
  181SLPC   H6X20692   5.549   3.335   3.121  1.2556  0.6188 -2.5651
  181SLPC   H6Y20693   5.433   3.457   3.169 -0.0169  0.1813  2.2110
  181SLPC   C3720694   5.632   3.496   3.232  0.0979 -0.0772 -0.1557
  181SLPC   H7X20695   5.632   3.606   3.248 -2.0867  0.0554 -0.8172
  181SLPC   H7Y20696   5.733   3.476   3.188  1.3341  1.4072  1.8274
  181SLPC   C3820697   5.623   3.433   3.368 -0.8693  0.1671  0.4380
  181SLPC   H8X20698   5.718   3.423   3.424 -1.4603 -1.0587  1.2684
  181SLPC   H8Y20699   5.596   3.325   3.364  0.3815 -0.1585  0.4530
  181SLPC   C3920700   5.522   3.506   3.453 -0.2585  0.5274  0.0184
  181SLPC   H9X20701   5.420   3.504   3.409 -1.1524  0.9238  1.9543
  181SLPC   H9Y20702   5.552   3.613   3.456  1.8779  0.0901 -2.3474
  181SLPC  C31020703   5.515   3.471   3.608 -0.1397 -0.1806  0.2262
  181SLPC  H10X20704   5.516   3.360   3.611 -0.8574 -0.2681 -1.4976
  181SLPC  H10Y20705   5.417   3.496   3.655  0.7418 -1.1694  2.7933
  181SLPC  C31120706   5.623   3.523   3.693  0.5415 -1.0114  0.1444
  181SLPC  H11X20707   5.600   3.632   3.699 -0.1155 -1.0579 -1.1747
  181SLPC  H11Y20708   5.714   3.527   3.629  0.6499  0.5550  0.3475
  181SLPC  C31220709   5.634   3.465   3.834 -0.3285 -0.4387  0.7117
  181SLPC  H12X20710   5.737   3.478   3.876 -0.5636  0.9068  0.9290
  181SLPC  H12Y20711   5.622   3.355   3.836  3.8313 -1.1049 -0.7422
  181SLPC  C31320712   5.535   3.538   3.924  0.7810  0.5359 -0.3403
  181SLPC  H13X20713   5.433   3.532   3.881  1.0662 -2.4530 -0.8275
  181SLPC  H13Y20714   5.558   3.647   3.924 -1.1687  0.9946 -1.3779
  181SLPC  C31420715   5.540   3.498   4.068  0.1602 -0.0225  1.1685
  181SLPC  H14X20716   5.639   3.527   4.108  1.9048 -1.3361 -1.8383
  181SLPC  H14Y20717   5.542   3.387   4.071 -0.4986 -0.0165  2.0753
  181SLPC  C31520718   5.428   3.570   4.145  0.5583 -0.2302  0.0657
  181SLPC  H15X20719   5.331   3.563   4.091 -0.2982 -0.0614  1.5256
  181SLPC  H15Y20720   5.456   3.676   4.163 -0.4702  0.0915 -0.1553
  181SLPC  C31620721   5.397   3.506   4.281 -0.1553  0.4043  0.2133
  181SLPC  H16X20722   5.492   3.508   4.338 -1.2797 -0.4693  2.2144
  181SLPC  H16Y20723   5.373   3.398   4.267 -1.3988  0.6114  0.6947
  181SLPC  C31720724   5.286   3.569   4.366  0.6067 -0.0873 -0.0183
  181SLPC  H17X20725   5.316   3.675   4.377  1.0864 -0.0786 -1.1878
  181SLPC  H17Y20726   5.275   3.514   4.462  0.9648  1.4433  0.9170
  181SLPC  C31820727   5.160   3.571   4.278  0.4401 -0.3519 -0.5586
  181SLPC  H18X20728   5.133   3.467   4.250 -2.2413 -0.0966  0.6720
  181SLPC  H18Y20729   5.173   3.639   4.191  0.2043  2.4112  1.4306
  181SLPC  H18Z20730   5.071   3.612   4.331  2.1489  3.0518 -0.0634
  182SLPC     N20731   4.470   2.224   1.663  0.0658 -0.7177 -0.3102
  182SLPC   C1320732   4.332   2.176   1.646  0.2190 -0.2580 -0.0954
  182SLPC  H13A20733   4.323   2.156   1.540  0.8461 -0.7835 -0.0563
  182SLPC  H13B20734   4.310   2.089   1.706 -1.3365  0.5150  0.5188
  182SLPC  H13C20735   4.255   2.248   1.669  0.0869 -0.0258 -1.2093
  182SLPC   C1420736   4.488   2.361   1.611  0.0394 -0.2883  0.2403
  182SLPC  H14A20737   4.586   2.390   1.576  1.2543 -2.2493  1.7990
  182SLPC  H14B20738   4.430   2.380   1.521 -0.3213  1.1176  0.7559
  182SLPC  H14C20739   4.441   2.432   1.677  1.2091  0.2336  0.5350
  182SLPC   C1520740   4.564   2.136   1.593 -0.4268  0.0601 -0.1539
  182SLPC  H15A20741   4.540   2.031   1.605 -1.6579 -0.0972 -3.1408
  182SLPC  H15B20742   4.556   2.144   1.485 -1.8194 -1.7627 -0.2248
  182SLPC  H15C20743   4.665   2.165   1.618 -0.8493  2.4660 -1.0074
  182SLPC   C1220744   4.503   2.214   1.809  0.1165 -0.1136 -0.3990
  182SLPC  H12A20745   4.442   2.266   1.881  0.3341 -2.2839  1.4290
  182SLPC  H12B20746   4.601   2.256   1.821 -0.0931 -0.1485  1.8194
  182SLPC   C1120747   4.509   2.071   1.879 -0.2638  0.0197  0.0481
  182SLPC  H11A20748   4.556   2.100   1.975  0.4043 -0.7731 -0.0224
  182SLPC  H11B20749   4.573   1.996   1.828 -3.3364 -1.2921 -2.2384
  182SLPC     P20750   4.303   1.990   2.025 -0.1164 -0.0288 -0.1254
  182SLPC   O1320751   4.334   2.092   2.126 -0.0978 -0.0617  0.3214
  182SLPC   O1420752   4.158   1.986   1.996  0.4296  0.6598 -0.5990
  182SLPC   O1220753   4.385   2.009   1.887 -0.0290  0.1279  0.2409
  182SLPC   O1120754   4.360   1.846   2.069 -0.4046  0.2561 -0.1725
  182SLPC    C120755   4.279   1.766   2.158 -0.0568  0.1736 -0.2895
  182SLPC    HA20756   4.176   1.753   2.120  0.8595 -1.7443 -2.3681
  182SLPC    HB20757   4.325   1.665   2.161 -0.3754 -0.0126 -1.3838
  182SLPC    C220758   4.275   1.827   2.296 -0.3181 -0.2317  0.2575
  182SLPC    HS20759   4.200   1.907   2.281  0.3360  0.5208  0.8999
  182SLPC   O2120760   4.402   1.874   2.338 -0.2056  0.2347 -0.2398
  182SLPC   C2120761   4.402   2.007   2.383 -0.4696  0.4473 -0.1116
  182SLPC   O2220762   4.304   2.065   2.424 -0.5504 -0.7274 -0.3564
  182SLPC   C2220763   4.545   2.065   2.386 -0.1199  0.4126  0.3070
  182SLPC   H2R20764   4.584   2.071   2.282  0.0908  1.7664  0.4402
  182SLPC   H2S20765   4.545   2.171   2.418  4.5412  0.3625  1.1753
  182SLPC    C320766   4.225   1.722   2.399 -0.3737 -0.9098  0.8443
  182SLPC    HX20767   4.310   1.650   2.406  0.2910 -0.3395 -0.9556
  182SLPC    HY20768   4.132   1.674   2.362 -0.1504 -1.4733  0.9915
  182SLPC   O3120769   4.194   1.781   2.524 -0.2478 -0.1225  0.3407
  182SLPC   C3120770   4.197   1.697   2.620 -0.2691 -0.0702 -0.3668
  182SLPC   O3220771   4.222   1.578   2.613  0.5843 -0.5166  0.4314
  182SLPC   C3220772   4.170   1.783   2.750  0.1695  0.3538  0.8196
  182SLPC   H2X20773   4.089   1.853   2.722  0.8544 -0.3035 -3.3647
  182SLPC   H2Y20774   4.265   1.839   2.767 -0.1858  1.4457 -0.6314
  182SLPC   C2320775   4.642   1.991   2.489 -0.3473  0.3862 -0.2947
  182SLPC   H3R20776   4.731   2.057   2.500 -0.2242  0.0844  0.6482
  182SLPC   H3S20777   4.666   1.895   2.440 -0.1934  1.8029 -3.1690
  182SLPC   C2420778   4.575   1.968   2.624 -0.6802 -0.7092  0.0907
  182SLPC   H4R20779   4.628   1.888   2.681 -0.6385 -0.4946  0.3542
  182SLPC   H4S20780   4.473   1.927   2.607 -0.2467 -1.1868 -1.5801
  182SLPC   C2520781   4.556   2.090   2.711  0.6644 -0.3022  0.4898
  182SLPC   H5R20782   4.525   2.172   2.643  0.9043 -1.3215 -0.8998
  182SLPC   H5S20783   4.651   2.125   2.757 -0.1973  0.8695  1.4488
  182SLPC   C2620784   4.462   2.064   2.826 -0.1577  0.2945 -0.6280
  182SLPC   H6R20785   4.524   2.002   2.894  0.8552 -0.1021 -1.8850
  182SLPC   H6S20786   4.362   2.017   2.814  0.5320 -1.9795  1.6386
  182SLPC   C2720787   4.439   2.194   2.902 -0.2047 -0.4060  0.1051
  182SLPC   H7R20788   4.503   2.270   2.853  2.3746  0.4695  4.3526
  182SLPC   H7S20789   4.482   2.193   3.004  2.2141 -0.9496 -0.8514
  182SLPC   C2820790   4.295   2.243   2.902  0.2600  0.3609  1.3573
  182SLPC   H8R20791   4.234   2.170   2.959 -0.8970 -0.8215 -1.2377
  182SLPC   H8S20792   4.264   2.242   2.795  0.5512  1.7864  1.2376
  182SLPC   C2920793   4.272   2.384   2.949  0.0807 -0.3603  0.4622
  182SLPC   H9R20794   4.255   2.459   2.871 -0.0512 -0.0176  0.8209
  182SLPC  C21020795   4.261   2.418   3.082  0.2322  0.1359  0.4807
  182SLPC  H10R20796   4.237   2.521   3.111 -0.4001  0.2501 -0.4140
  182SLPC  C21120797   4.291   2.332   3.203 -1.0929 -0.5169 -0.2433
  182SLPC  H11R20798   4.363   2.389   3.265  0.0259 -1.1289 -0.9432
  182SLPC  H11S20799   4.348   2.242   3.169 -0.7091 -0.6940  0.8316
  182SLPC  C21220800   4.167   2.288   3.281  0.0531 -0.1554 -0.1741
  182SLPC  H12R20801   4.070   2.320   3.240  1.0767  2.4166 -0.8070
  182SLPC  C21320802   4.164   2.223   3.400  0.2206 -0.7361  0.1516
  182SLPC  H13R20803   4.065   2.197   3.442 -0.4407  0.1582 -0.7993
  182SLPC  C21420804   4.280   2.173   3.483  0.0552  0.3519 -0.3218
  182SLPC  H14R20805   4.375   2.197   3.432  2.0701  0.4775  3.1787
  182SLPC  H14S20806   4.280   2.062   3.491  2.3965  0.3026 -0.5027
  182SLPC  C21520807   4.292   2.222   3.630 -0.5760 -0.1232 -0.2372
  182SLPC  H15R20808   4.200   2.205   3.690  0.6467 -2.9562  1.0477
  182SLPC  H15S20809   4.310   2.331   3.641  2.2765 -0.5817  0.4769
  182SLPC  C21620810   4.403   2.146   3.702 -0.6170 -0.0016 -0.2966
  182SLPC  H16R20811   4.504   2.179   3.671 -0.1738 -0.1642  0.9147
  182SLPC  H16S20812   4.373   2.041   3.683 -1.9868  0.6940 -2.2166
  182SLPC  C21720813   4.404   2.181   3.851 -0.1388 -0.5694  0.5211
  182SLPC  H17R20814   4.408   2.291   3.863 -3.2767 -0.2519 -0.5261
  182SLPC  H17S20815   4.500   2.150   3.897 -0.2565 -1.0557  0.4385
  182SLPC  C21820816   4.299   2.106   3.933  0.4626  0.4594 -0.8642
  182SLPC  H18R20817   4.198   2.149   3.911  0.8517  0.5238 -2.7338
  182SLPC  H18S20818   4.325   2.121   4.040 -2.4662 -2.4675  0.4309
  182SLPC  H18T20819   4.294   2.000   3.899 -0.0715  0.7228 -1.6458
  182SLPC   C3320820   4.131   1.702   2.881 -0.1186 -0.4318  0.3934
  182SLPC   H3X20821   4.179   1.602   2.891  0.9974 -0.3409 -2.7486
  182SLPC   H3Y20822   4.023   1.679   2.876 -0.2714 -0.1150  1.9862
  182SLPC   C3420823   4.153   1.779   3.007  0.6183 -0.4305 -0.0611
  182SLPC   H4X20824   4.093   1.872   3.011 -1.4970 -1.7320  2.4777
  182SLPC   H4Y20825   4.261   1.803   3.012  1.0056 -2.1701  0.7996
  182SLPC   C3520826   4.137   1.695   3.136  0.2672  0.1995  0.1153
  182SLPC   H5X20827   4.199   1.604   3.127  0.3109  0.2750 -0.3738
  182SLPC   H5Y20828   4.030   1.667   3.145  0.5175 -1.1040 -0.7056
  182SLPC   C3620829   4.189   1.772   3.259 -0.1003 -0.6993 -0.7238
  182SLPC   H6X20830   4.142   1.873   3.266  1.5743  0.0083  2.2746
  182SLPC   H6Y20831   4.296   1.800   3.252  0.4948 -2.6522 -0.0765
  182SLPC   C3720832   4.183   1.690   3.387 -0.0852 -0.2735 -0.1340
  182SLPC   H7X20833   4.246   1.602   3.361 -1.0814 -1.2709  0.7368
  182SLPC   H7Y20834   4.077   1.665   3.407 -1.2164  3.5620 -0.4924
  182SLPC   C3820835   4.257   1.756   3.503  0.0304 -0.8709 -0.5122
  182SLPC   H8X20836   4.199   1.848   3.523 -0.2915 -0.5789 -2.5798
  182SLPC   H8Y20837   4.362   1.786   3.483 -0.2342  1.2774  0.9646
  182SLPC   C3920838   4.250   1.663   3.625  0.1693 -0.1507  0.8785
  182SLPC   H9X20839   4.301   1.570   3.594 -0.4037 -0.8085  1.8360
  182SLPC   H9Y20840   4.145   1.632   3.645 -0.2573  1.1718  0.8260
  182SLPC  C31020841   4.316   1.712   3.750  0.3635  0.4324  0.6802
  182SLPC  H10X20842   4.268   1.810   3.772  0.6612  0.6215  0.4995
  182SLPC  H10Y20843   4.423   1.727   3.724 -0.0578  1.2089 -0.7247
  182SLPC  C31120844   4.288   1.613   3.868 -0.9121 -0.2408 -0.1876
  182SLPC  H11X20845   4.295   1.513   3.820 -3.4095 -1.0109  0.8860
  182SLPC  H11Y20846   4.182   1.613   3.902 -0.9831 -2.4137 -0.2749
  182SLPC  C31220847   4.378   1.642   3.989 -0.1602 -0.0164  0.2698
  182SLPC  H12X20848   4.353   1.743   4.027  0.1061  0.1002  0.1307
  182SLPC  H12Y20849   4.483   1.630   3.956 -0.7312 -2.5594 -0.8667
  182SLPC  C31320850   4.354   1.535   4.101 -0.4920  0.1134  0.3693
  182SLPC  H13X20851   4.245   1.518   4.118 -0.4649 -1.2224 -0.6810
  182SLPC  H13Y20852   4.399   1.582   4.191 -0.1917  0.7341 -0.0941
  182SLPC  C31420853   4.410   1.397   4.069  0.1236  0.1549  0.3609
  182SLPC  H14X20854   4.484   1.400   3.986 -0.8695  0.7828 -0.5233
  182SLPC  H14Y20855   4.332   1.325   4.037 -0.1698  0.8644 -0.5681
  182SLPC  C31520856   4.485   1.345   4.194  0.6453  0.0193 -0.0926
  182SLPC  H15X20857   4.549   1.421   4.243  0.3770 -0.5905  1.2273
  182SLPC  H15Y20858   4.545   1.260   4.155 -2.2129 -1.3322 -1.9253
  182SLPC  C31620859   4.385   1.294   4.302 -0.3010 -0.1663 -0.3802
  182SLPC  H16X20860   4.324   1.207   4.269 -0.0008 -0.7787  0.6376
  182SLPC  H16Y20861   4.319   1.380   4.330 -1.4600 -0.7146 -1.3328
  182SLPC  C31720862   4.445   1.250   4.433 -0.2185  0.7086 -0.1357
  182SLPC  H17X20863   4.515   1.324   4.478 -0.6817 -0.4043  2.6628
  182SLPC  H17Y20864   4.502   1.155   4.421 -0.3724  0.3922  1.3420
  182SLPC  C31820865   4.344   1.216   4.541  0.6596  0.5788  0.1428
  182SLPC  H18X20866   4.394   1.213   4.640  0.4836 -0.0485  0.2147
  182SLPC  H18Y20867   4.293   1.121   4.517 -1.0940  1.4364  0.3359
  182SLPC  H18Z20868   4.259   1.288   4.546  1.2684  1.3976 -0.8061
  183SLPC     N20869   0.128   3.639   1.983 -0.0530  0.2308  0.8316
  183SLPC   C1320870   0.058   3.753   1.926  0.0933 -0.4857  0.0618
  183SLPC  H13A20871   0.001   3.738   1.836 -0.0636  0.5044 -0.0191
  183SLPC  H13B20872  -0.016   3.791   1.996  0.2609  1.7131 -0.8633
  183SLPC  H13C20873   0.129   3.833   1.916  0.3011 -0.6308  0.3608
  183SLPC   C1420874   0.215   3.582   1.877  0.1559 -0.0164 -1.1190
  183SLPC  H14A20875   0.279   3.501   1.907 -2.2563 -2.6417 -2.5830
  183SLPC  H14B20876   0.149   3.538   1.804 -0.3640 -1.6092  0.2488
  183SLPC  H14C20877   0.272   3.658   1.825  0.0263 -0.0855 -1.3627
  183SLPC   C1520878   0.028   3.532   2.028  0.0419 -0.7784  0.0375
  183SLPC  H15A20879   0.068   3.441   2.071  1.2035 -1.4643 -2.3161
  183SLPC  H15B20880  -0.034   3.572   2.106 -0.7653 -0.8274 -0.5722
  183SLPC  H15C20881  -0.034   3.506   1.944 -1.8630  1.7575  0.5566
  183SLPC   C1220882   0.227   3.692   2.094  0.3349  0.2917 -0.1523
  183SLPC  H12A20883   0.277   3.771   2.040  0.0704 -0.7767 -2.0473
  183SLPC  H12B20884   0.295   3.612   2.119 -1.1705 -0.5729  1.4387
  183SLPC   C1120885   0.152   3.726   2.225 -0.2555 -0.9938  0.0251
  183SLPC  H11A20886   0.064   3.789   2.200 -0.7591 -1.4909  0.5129
  183SLPC  H11B20887   0.212   3.799   2.284 -0.9061 -0.7364  0.3870
  183SLPC     P20888   0.207   3.542   2.386 -0.3719 -0.0201  0.0590
  183SLPC   O1320889   0.152   3.410   2.420 -0.3697 -0.0103  0.1393
  183SLPC   O1420890   0.345   3.545   2.326 -0.1973  0.1795  0.3509
  183SLPC   O1220891   0.112   3.608   2.295  0.2175 -0.1665 -0.1116
  183SLPC   O1120892   0.199   3.640   2.504  0.4705 -0.4443  0.0168
  183SLPC    C120893   0.074   3.649   2.582 -0.4878  0.8220 -0.6179
  183SLPC    HA20894   0.028   3.744   2.547 -1.5171 -0.4939 -3.0824
  183SLPC    HB20895   0.005   3.564   2.562  1.2779 -1.2528  1.4710
  183SLPC    C220896   0.091   3.646   2.737  0.0463  0.9212 -0.4905
  183SLPC    HS20897  -0.007   3.645   2.789  0.3411  0.3671  0.0586
  183SLPC   O2120898   0.163   3.759   2.778 -0.2473 -0.5170  0.2038
  183SLPC   C2120899   0.089   3.875   2.777 -0.4690 -0.1549  0.5820
  183SLPC   O2220900  -0.029   3.876   2.752  0.2043 -0.2869 -0.4769
  183SLPC   C2220901   0.170   3.989   2.832 -0.3273 -0.1056  0.0438
  183SLPC   H2R20902   0.280   3.981   2.825  0.2645  4.4847  0.7530
  183SLPC   H2S20903   0.151   4.082   2.774  0.6135  1.2498  1.7789
  183SLPC    C320904   0.156   3.517   2.801  0.2273 -0.1652 -1.3734
  183SLPC    HX20905   0.259   3.503   2.760  1.1107  1.5636  0.1380
  183SLPC    HY20906   0.092   3.436   2.760 -0.1885 -0.1111 -0.8329
  183SLPC   O3120907   0.165   3.519   2.941 -0.1089 -0.0820  0.1371
  183SLPC   C3120908   0.066   3.481   3.020 -0.2623 -0.1774 -0.2083
  183SLPC   O3220909  -0.042   3.442   2.984  0.2388 -0.3669 -0.7035
  183SLPC   C3220910   0.112   3.489   3.164  0.1794 -0.3858  0.5297
  183SLPC   H2X20911   0.159   3.589   3.171  1.0201 -0.7915  0.7274
  183SLPC   H2Y20912   0.198   3.420   3.177  1.9672  1.5557 -0.5633
  183SLPC   C2320913   0.147   4.011   2.987 -0.3750 -0.6434 -0.0668
  183SLPC   H3R20914   0.041   3.981   3.007  0.0727 -1.0412  1.9513
  183SLPC   H3S20915   0.146   4.119   3.009 -0.6541 -0.5997 -0.2857
  183SLPC   C2420916   0.230   3.933   3.087 -0.3913 -0.2062  0.0800
  183SLPC   H4R20917   0.337   3.952   3.062 -0.2956 -1.0778 -0.2382
  183SLPC   H4S20918   0.210   3.825   3.067 -0.7671  0.1379 -1.5363
  183SLPC   C2520919   0.195   3.972   3.238  0.8279 -0.7479  0.7072
  183SLPC   H5R20920   0.090   3.943   3.260  0.2493  0.7977  0.0886
  183SLPC   H5S20921   0.189   4.083   3.237 -0.4529 -0.7850  1.6347
  183SLPC   C2620922   0.283   3.916   3.345 -0.0242 -0.1103 -0.6740
  183SLPC   H6R20923   0.251   3.967   3.438 -0.7691 -0.5938 -0.6572
  183SLPC   H6S20924   0.390   3.942   3.329  0.0371  0.8234  1.0793
  183SLPC   C2720925   0.277   3.761   3.380 -0.3290 -0.3789 -0.2425
  183SLPC   H7R20926   0.318   3.703   3.294  1.6136  1.4303 -0.6230
  183SLPC   H7S20927   0.171   3.730   3.382 -0.6749  0.6373 -1.3379
  183SLPC   C2820928   0.363   3.724   3.503 -0.2767  0.1532 -0.5684
  183SLPC   H8R20929   0.471   3.740   3.486  0.9720 -5.2079  0.2824
  183SLPC   H8S20930   0.353   3.614   3.514  0.2856  0.2766  1.9074
  183SLPC   C2920931   0.306   3.790   3.624 -0.2335 -0.0778  0.0763
  183SLPC   H9R20932   0.279   3.896   3.618  2.2922  0.6591  0.4285
  183SLPC  C21020933   0.277   3.736   3.740 -0.6094  0.1010 -0.1246
  183SLPC  H10R20934   0.234   3.803   3.816  2.0175 -0.0752  1.6895
  183SLPC  C21120935   0.305   3.591   3.778 -0.2144  0.3907  0.0905
  183SLPC  H11R20936   0.378   3.543   3.710  0.1407  0.1375  0.6416
  183SLPC  H11S20937   0.205   3.542   3.787 -0.1775 -0.1127 -1.8801
  183SLPC  C21220938   0.344   3.583   3.920  0.0073  0.0655 -0.2332
  183SLPC  H12R20939   0.355   3.679   3.972 -0.7619 -1.2490  2.5975
  183SLPC  C21320940   0.398   3.474   3.980  0.2106 -0.1448 -0.2578
  183SLPC  H13R20941   0.434   3.487   4.084 -1.1171  1.5228  0.0464
  183SLPC  C21420942   0.424   3.335   3.929  0.4739 -0.1585 -0.3739
  183SLPC  H14R20943   0.368   3.328   3.834 -1.2043  2.1267  0.3617
  183SLPC  H14S20944   0.377   3.257   3.993  0.2872  0.3836  0.1698
  183SLPC  C21520945   0.572   3.293   3.920 -0.4505 -0.0042 -0.4292
  183SLPC  H15R20946   0.624   3.378   3.871  0.7631 -0.2165  0.4361
  183SLPC  H15S20947   0.593   3.204   3.857 -0.4802 -1.1161  1.0715
  183SLPC  C21620948   0.644   3.267   4.053 -0.3516 -0.1659 -1.1463
  183SLPC  H16R20949   0.601   3.338   4.128 -1.2144  0.0836 -1.8540
  183SLPC  H16S20950   0.750   3.297   4.039 -0.4167  0.9012  0.4156
  183SLPC  C21720951   0.638   3.122   4.106  0.1399  0.4964 -0.3044
  183SLPC  H17R20952   0.670   3.049   4.029  3.0284  0.1339  1.1052
  183SLPC  H17S20953   0.532   3.110   4.135  1.1485 -1.2193  3.2739
  183SLPC  C21820954   0.723   3.091   4.232 -0.4051 -0.2762  0.2746
  183SLPC  H18R20955   0.689   3.159   4.313  0.9790 -0.7734  1.2958
  183SLPC  H18S20956   0.830   3.098   4.202 -0.6257 -1.7239 -0.9782
  183SLPC  H18T20957   0.703   2.988   4.268 -2.3758  0.4261  1.3786
  183SLPC   C3320958  -0.004   3.485   3.268 -0.4125  0.3644 -0.8039
  183SLPC   H3X20959  -0.090   3.554   3.262 -1.3944 -0.7404  0.0579
  183SLPC   H3Y20960   0.057   3.509   3.358  1.0408  1.5708 -2.0668
  183SLPC   C3420961  -0.046   3.336   3.295 -0.5391 -0.0770  0.8622
  183SLPC   H4X20962   0.046   3.275   3.286  0.6777  1.6863  0.8123
  183SLPC   H4Y20963  -0.116   3.319   3.211  0.0989  1.8300 -0.1213
  183SLPC   C3520964  -0.097   3.293   3.430  0.4275 -0.9686 -0.5461
  183SLPC   H5X20965  -0.112   3.183   3.433  2.2449 -1.2143  1.4546
  183SLPC   H5Y20966  -0.193   3.348   3.441  0.3371 -1.1820 -0.2602
  183SLPC   C3620967  -0.006   3.328   3.549 -0.3651 -0.2347  0.1068
  183SLPC   H6X20968   0.007   3.438   3.551  0.1867 -0.2998  1.7050
  183SLPC   H6Y20969   0.097   3.292   3.526  0.4766  1.8111  0.4735
  183SLPC   C3720970  -0.059   3.271   3.671 -0.0298 -1.1843 -0.4419
  183SLPC   H7X20971  -0.027   3.164   3.667 -0.1833 -1.2900  0.7657
  183SLPC   H7Y20972  -0.170   3.280   3.675  0.1246  1.4108 -0.6012
  183SLPC   C3820973  -0.007   3.339   3.800 -0.0861 -0.3202 -0.8003
  183SLPC   H8X20974  -0.069   3.430   3.815  0.1103 -0.0847 -1.3599
  183SLPC   H8Y20975   0.101   3.365   3.792 -0.3088  0.8112 -0.3535
  183SLPC   C3920976  -0.024   3.252   3.921 -0.1092 -0.2844  0.4804
  183SLPC   H9X20977   0.031   3.156   3.926  1.0875  0.4397  2.6324
  183SLPC   H9Y20978  -0.133   3.235   3.921 -0.5335  2.1339  0.2975
  183SLPC  C31020979   0.014   3.328   4.043 -0.1866  0.5634  0.5390
  183SLPC  H10X20980  -0.023   3.432   4.026 -1.2136  0.1658  0.2318
  183SLPC  H10Y20981   0.124   3.315   4.051  0.0633 -0.3939 -2.8341
  183SLPC  C31120982  -0.073   3.276   4.160 -1.4706 -0.4995  0.0595
  183SLPC  H11X20983  -0.182   3.282   4.140 -0.8546 -0.8233 -4.2295
  183SLPC  H11Y20984  -0.053   3.347   4.243  2.2353 -2.6377  1.2846
  183SLPC  C31220985  -0.041   3.130   4.199 -0.7929 -0.0069  0.5617
  183SLPC  H12X20986   0.067   3.125   4.224 -1.2055  0.1102  2.4907
  183SLPC  H12Y20987  -0.061   3.063   4.113  2.9096  1.2556 -1.4974
  183SLPC  C31320988  -0.104   3.088   4.333 -0.4808 -0.8293 -0.1195
  183SLPC  H13X20989  -0.204   3.136   4.327  0.5576  1.2689 -1.9351
  183SLPC  H13Y20990  -0.056   3.133   4.422 -0.1876  1.8991 -1.5386
  183SLPC  C31420991  -0.118   2.936   4.342 -0.4047  0.9650 -0.3481
  183SLPC  H14X20992  -0.021   2.887   4.318  0.6141  2.1084  1.2405
  183SLPC  H14Y20993  -0.199   2.919   4.267  1.0330  0.4256 -1.8404
  183SLPC  C31520994  -0.165   2.902   4.487 -0.9678  0.3108 -0.4947
  183SLPC  H15X20995  -0.268   2.945   4.488 -0.3999  1.7439 -0.0010
  183SLPC  H15Y20996  -0.105   2.949   4.568 -2.4641 -2.0680  2.1847
  183SLPC  C31620997  -0.185   2.758   4.519 -0.3843 -0.1641  0.5929
  183SLPC  H16X20998  -0.090   2.704   4.536  0.6564  1.5795  0.5993
  183SLPC  H16Y20999  -0.217   2.713   4.422  3.3569  1.1608 -1.4925
  183SLPC  C31721000  -0.267   2.743   4.649 -0.9089  0.5810 -0.1265
  183SLPC  H17X21001  -0.217   2.812   4.720  2.3069 -1.7836  0.1324
  183SLPC  H17Y21002  -0.255   2.641   4.691  1.0500 -0.0047 -1.9157
  183SLPC  C31821003  -0.414   2.751   4.631  0.5632 -0.6108  0.5776
  183SLPC  H18X21004  -0.469   2.725   4.724 -3.7215  1.2901 -1.1430
  183SLPC  H18Y21005  -0.449   2.682   4.552  1.3606 -1.1862  0.7161
  183SLPC  H18Z21006  -0.446   2.853   4.600  1.0932 -1.4465 -3.1342
  184SLPC     N21007   5.560   6.885   1.821  0.1208  0.1216 -0.2811
  184SLPC   C1321008   5.672   6.882   1.716  0.1112  0.3803  0.1242
  184SLPC  H13A21009   5.763   6.916   1.764 -0.1445  0.3653  0.6207
  184SLPC  H13B21010   5.688   6.780   1.685  2.3154  0.3429  1.1941
  184SLPC  H13C21011   5.642   6.934   1.626  2.2390  0.0664 -0.8292
  184SLPC   C1421012   5.442   6.826   1.750 -0.6683 -0.0334 -0.0115
  184SLPC  H14A21013   5.366   6.830   1.827  0.2596  1.5065  0.8742
  184SLPC  H14B21014   5.422   6.881   1.659 -0.1615  0.9891  0.4871
  184SLPC  H14C21015   5.459   6.723   1.724 -0.1012  0.1041 -0.2091
  184SLPC   C1521016   5.535   7.025   1.853  0.8271  0.4940  0.1170
  184SLPC  H15A21017   5.627   7.080   1.837 -1.0818  3.4750 -1.7397
  184SLPC  H15B21018   5.458   7.069   1.791  0.5166 -2.1970 -1.5369
  184SLPC  H15C21019   5.518   7.033   1.960 -0.6298 -1.8783  0.1333
  184SLPC   C1221020   5.584   6.804   1.947 -0.5296 -0.2683  0.5161
  184SLPC  H12A21021   5.497   6.818   2.009  0.6629  1.6202  1.8986
  184SLPC  H12B21022   5.672   6.844   1.996 -1.0095  0.1890  1.0146
  184SLPC   C1121023   5.611   6.650   1.938  0.2322  0.5231  0.6360
  184SLPC  H11A21024   5.649   6.620   2.038 -0.5388 -0.8972  0.5271
  184SLPC  H11B21025   5.689   6.624   1.863 -0.9894 -0.2403 -0.4152
  184SLPC     P21026   5.438   6.464   1.845 -0.2721 -0.3232  0.1010
  184SLPC   O1321027   5.377   6.503   1.717  0.1471 -0.2778  0.3438
  184SLPC   O1421028   5.554   6.372   1.833 -0.0880 -0.5199  0.0347
  184SLPC   O1221029   5.486   6.595   1.917 -0.0485  0.2440 -0.2591
  184SLPC   O1121030   5.331   6.402   1.939  0.4615  0.2979 -0.3825
  184SLPC    C121031   5.336   6.419   2.084  0.3056 -0.3881 -0.0268
  184SLPC    HA21032   5.428   6.467   2.126 -0.9387  1.1507  1.0883
  184SLPC    HB21033   5.259   6.494   2.112 -0.3086 -1.5474  1.4914
  184SLPC    C221034   5.294   6.291   2.163  1.0391 -0.3398 -0.1399
  184SLPC    HS21035   5.196   6.258   2.125  0.2495  0.7962  0.8422
  184SLPC   O2121036   5.279   6.318   2.301 -0.4383  0.5251 -0.2336
  184SLPC   C2121037   5.189   6.246   2.370 -0.4099 -0.1458  0.6983
  184SLPC   O2221038   5.112   6.172   2.325  0.2322  0.0264  0.1001
  184SLPC   C2221039   5.197   6.280   2.517  0.1472  0.3722 -0.4363
  184SLPC   H2R21040   5.300   6.309   2.546 -0.0350 -0.0226  0.6686
  184SLPC   H2S21041   5.131   6.369   2.526 -2.9103 -1.7280 -0.5552
  184SLPC    C321042   5.388   6.169   2.126 -0.3436  0.2526 -0.3528
  184SLPC    HX21043   5.393   6.166   2.015  1.1227 -0.7791 -0.2853
  184SLPC    HY21044   5.340   6.073   2.156 -1.7560  0.7843 -0.8052
  184SLPC   O3121045   5.527   6.192   2.172  0.2003  0.1618  0.1056
  184SLPC   C3121046   5.546   6.146   2.297 -0.0264  0.7977 -0.0081
  184SLPC   O3221047   5.461   6.097   2.374  0.2492 -0.4667  0.0896
  184SLPC   C3221048   5.700   6.147   2.335  0.1880 -0.6608  0.0030
  184SLPC   H2X21049   5.738   6.246   2.300 -0.5033 -0.5439 -0.4217
  184SLPC   H2Y21050   5.734   6.068   2.265  0.5024 -1.6099  1.1842
  184SLPC   C2321051   5.153   6.168   2.609 -0.4585 -0.3864 -1.2037
  184SLPC   H3R21052   5.204   6.074   2.577  0.8516  0.3037 -1.1844
  184SLPC   H3S21053   5.046   6.147   2.586 -1.0571  0.2590  0.8677
  184SLPC   C2421054   5.169   6.196   2.759  0.3552 -0.5683 -0.2035
  184SLPC   H4R21055   5.104   6.121   2.808  0.6526 -0.4322  0.4140
  184SLPC   H4S21056   5.117   6.294   2.765  3.0531  0.8594  2.0259
  184SLPC   C2521057   5.308   6.223   2.818  0.8456 -0.3690 -0.1390
  184SLPC   H5R21058   5.353   6.322   2.799 -0.6097 -0.2698 -3.7477
  184SLPC   H5S21059   5.380   6.147   2.781  1.0286  0.0444 -0.6274
  184SLPC   C2621060   5.293   6.221   2.972 -0.8937 -0.5994  0.0817
  184SLPC   H6R21061   5.396   6.242   3.009 -0.6413  0.4106 -1.1119
  184SLPC   H6S21062   5.270   6.123   3.019 -0.8134 -1.0735 -0.8348
  184SLPC   C2721063   5.204   6.323   3.039 -0.2760  0.3161  0.5085
  184SLPC   H7R21064   5.103   6.314   2.994 -0.6490 -1.6160  1.6383
  184SLPC   H7S21065   5.252   6.416   3.001  0.5442 -0.5680 -0.6759
  184SLPC   C2821066   5.195   6.318   3.192 -0.4058  0.0745  0.9886
  184SLPC   H8R21067   5.135   6.396   3.245 -0.4827 -1.0217  2.5611
  184SLPC   H8S21068   5.294   6.332   3.240  0.3038 -0.7732 -0.1676
  184SLPC   C2921069   5.142   6.190   3.245 -0.5589 -0.0284  0.1220
  184SLPC   H9R21070   5.203   6.103   3.216 -0.3970 -0.3276  1.3403
  184SLPC  C21021071   5.023   6.169   3.307  0.5391  0.3482  0.0459
  184SLPC  H10R21072   4.991   6.067   3.332  5.2899 -0.9278  2.1720
  184SLPC  C21121073   4.913   6.273   3.331  0.2230  0.2218  0.5313
  184SLPC  H11R21074   4.910   6.348   3.249 -0.8631 -0.5610 -0.1583
  184SLPC  H11S21075   4.936   6.325   3.427  2.0429 -1.9977  1.3791
  184SLPC  C21221076   4.772   6.209   3.321 -0.4715 -0.5617  0.4693
  184SLPC  H12R21077   4.762   6.191   3.213  1.3720  3.0919 -0.4795
  184SLPC  C21321078   4.685   6.189   3.419  0.2359 -0.6728 -0.6584
  184SLPC  H13R21079   4.587   6.141   3.408  1.3879 -2.8655 -2.2458
  184SLPC  C21421080   4.718   6.219   3.558  0.2263  0.0160  0.0387
  184SLPC  H14R21081   4.629   6.274   3.594  1.0618  2.4200 -1.3296
  184SLPC  H14S21082   4.805   6.286   3.577  0.4147 -0.0453 -0.5644
  184SLPC  C21521083   4.737   6.086   3.636  0.2153  0.6674 -0.5234
  184SLPC  H15R21084   4.829   6.034   3.602 -0.9561 -2.3685  0.6402
  184SLPC  H15S21085   4.655   6.014   3.616 -1.4037  1.8893  1.3353
  184SLPC  C21621086   4.749   6.117   3.792 -0.2905  0.3563  0.5961
  184SLPC  H16R21087   4.803   6.214   3.798  0.7694 -0.1508 -0.2844
  184SLPC  H16S21088   4.812   6.040   3.842 -2.6109 -4.1822 -2.7001
  184SLPC  C21721089   4.618   6.139   3.869 -0.4034  0.0439 -0.0050
  184SLPC  H17R21090   4.567   6.041   3.878  2.4932 -1.3394  3.6172
  184SLPC  H17S21091   4.557   6.217   3.818  1.5592  2.1865  0.7578
  184SLPC  C21821092   4.646   6.194   4.012  0.3775 -0.4296  0.4294
  184SLPC  H18R21093   4.681   6.116   4.082  1.4884  0.4947  0.9319
  184SLPC  H18S21094   4.547   6.223   4.053 -1.1812 -2.0565 -1.8965
  184SLPC  H18T21095   4.710   6.284   4.005  0.4399 -0.6025 -2.4371
  184SLPC   C3321096   5.725   6.117   2.480  0.8205 -0.4284 -0.3703
  184SLPC   H3X21097   5.835   6.117   2.500  0.6526 -2.0319  0.7095
  184SLPC   H3Y21098   5.696   6.013   2.504  2.6596 -0.8983  0.0136
  184SLPC   C3421099   5.660   6.218   2.574 -0.7353  0.5668  0.2897
  184SLPC   H4X21100   5.554   6.193   2.599 -0.2382 -0.0130  2.0047
  184SLPC   H4Y21101   5.676   6.324   2.544  0.1086 -0.3894 -3.0647
  184SLPC   C3521102   5.729   6.209   2.716  0.4906 -0.1212  0.0935
  184SLPC   H5X21103   5.837   6.235   2.710  1.2230 -2.0400  3.0924
  184SLPC   H5Y21104   5.729   6.101   2.743  1.2544  0.2933  1.8560
  184SLPC   C3621105   5.661   6.299   2.818 -0.8761  0.2194 -0.2345
  184SLPC   H6X21106   5.563   6.259   2.851 -0.7651  0.0357 -0.1261
  184SLPC   H6Y21107   5.662   6.401   2.775  0.8429  0.9721  1.4457
  184SLPC   C3721108   5.747   6.308   2.943 -0.1952  0.2453 -0.3108
  184SLPC   H7X21109   5.711   6.392   3.006 -2.0609 -0.7400 -0.0014
  184SLPC   H7Y21110   5.854   6.317   2.911 -0.3749 -0.1077 -1.0322
  184SLPC   C3821111   5.733   6.171   3.015  0.2014 -0.1947  1.4249
  184SLPC   H8X21112   5.756   6.085   2.949 -1.9695 -2.3191  3.2331
  184SLPC   H8Y21113   5.627   6.154   3.045 -0.9529  1.4897 -1.2807
  184SLPC   C3921114   5.815   6.164   3.141 -0.3401  0.2987 -0.5087
  184SLPC   H9X21115   5.917   6.206   3.125  0.1296 -0.3863  0.5530
  184SLPC   H9Y21116   5.829   6.059   3.173 -0.2383 -0.2395 -2.2077
  184SLPC  C31021117   5.765   6.267   3.246 -0.2401 -0.0601 -0.1402
  184SLPC  H10X21118   5.761   6.371   3.206 -0.0699 -1.0436 -2.8466
  184SLPC  H10Y21119   5.847   6.269   3.322  0.1755 -1.6631 -0.5216
  184SLPC  C31121120   5.630   6.228   3.311  0.2957  0.6520 -0.3401
  184SLPC  H11X21121   5.634   6.121   3.342  0.6803  0.9961  0.8286
  184SLPC  H11Y21122   5.551   6.234   3.233 -0.7649  3.2661  0.8584
  184SLPC  C31221123   5.584   6.322   3.430  0.3186 -0.6207  0.3314
  184SLPC  H12X21124   5.474   6.321   3.441  0.0162 -1.6764 -2.1681
  184SLPC  H12Y21125   5.601   6.424   3.391 -0.3844  0.8261  3.4797
  184SLPC  C31321126   5.651   6.295   3.569 -0.1528  0.2484 -0.0504
  184SLPC  H13X21127   5.760   6.303   3.552 -0.1960  2.0781  0.3509
  184SLPC  H13Y21128   5.629   6.189   3.596  1.3963 -0.7942 -2.5090
  184SLPC  C31421129   5.588   6.383   3.679 -0.3946  0.0445  0.4329
  184SLPC  H14X21130   5.485   6.347   3.701 -0.3153 -0.5665 -0.1624
  184SLPC  H14Y21131   5.584   6.490   3.649  0.1132 -0.3694 -1.2036
  184SLPC  C31521132   5.670   6.374   3.810 -0.2909  1.1621  0.3153
  184SLPC  H15X21133   5.659   6.464   3.875  1.1404  0.9637  0.8726
  184SLPC  H15Y21134   5.777   6.382   3.780 -0.5655 -0.0839 -1.0844
  184SLPC  C31621135   5.640   6.244   3.893  0.3203  0.0164 -0.1727
  184SLPC  H16X21136   5.735   6.219   3.946  0.7470  0.8172 -0.5499
  184SLPC  H16Y21137   5.623   6.157   3.825  2.7986  0.0274 -0.9106
  184SLPC  C31721138   5.523   6.267   3.993  0.0025  0.1400  0.6328
  184SLPC  H17X21139   5.423   6.264   3.944 -1.2570  0.1368  3.0373
  184SLPC  H17Y21140   5.547   6.361   4.046  2.2137 -0.6598  1.1537
  184SLPC  C31821141   5.524   6.150   4.092 -0.3319 -0.2662  0.0799
  184SLPC  H18X21142   5.621   6.146   4.146 -0.5478 -0.2670  0.4721
  184SLPC  H18Y21143   5.507   6.054   4.038  0.6555 -1.1249  1.2348
  184SLPC  H18Z21144   5.445   6.169   4.168 -0.2883  0.8831 -0.1502
  185POPC     N21145   6.579   4.364   6.622 -0.1331 -0.5017  0.4248
  185POPC   C1221146   6.630   4.418   6.762  0.2243 -0.0183  0.1330
  185POPC  H12A21147   6.663   4.332   6.819  1.4835  1.2034  1.3230
  185POPC  H12B21148   6.549   4.470   6.810  0.2354  0.9047 -0.8209
  185POPC   C1321149   6.527   4.479   6.552  0.0001 -0.8154 -0.7414
  185POPC  H13A21150   6.611   4.543   6.534  1.0076 -2.2100 -1.2041
  185POPC  H13B21151   6.490   4.450   6.455  0.1220 -0.9692 -0.7433
  185POPC  H13C21152   6.452   4.535   6.607  0.3627 -0.4479 -0.6166
  185POPC   C1421153   6.677   4.292   6.539  0.0284 -0.0102  0.1413
  185POPC  H14A21154   6.703   4.194   6.575  0.8136  0.9280  2.2501
  185POPC  H14B21155   6.636   4.284   6.439 -0.1741 -1.2956  0.3079
  185POPC  H14C21156   6.772   4.342   6.530 -0.0976  0.3969  1.0564
  185POPC   C1521157   6.461   4.265   6.640 -0.3229  0.0200  0.6091
  185POPC  H15A21158   6.422   4.245   6.541  1.4429 -1.4291  0.1731
  185POPC  H15B21159   6.377   4.308   6.693 -0.6063  2.2647 -1.4393
  185POPC  H15C21160   6.492   4.173   6.685  1.4986  0.4223  0.2396
  185POPC   C1121161   6.741   4.537   6.762  0.1551  0.0015 -0.0547
  185POPC  H11A21162   6.762   4.565   6.868 -0.1242 -1.5083  0.4222
  185POPC  H11B21163   6.692   4.624   6.713 -0.2019 -1.0161 -1.5890
  185POPC     P21164   6.973   4.439   6.745 -0.2143  0.1785 -0.1940
  185POPC   O1321165   6.941   4.301   6.788 -0.4419 -0.2704 -1.0021
  185POPC   O1421166   7.034   4.520   6.849 -0.4274  0.2207 -0.1918
  185POPC   O1221167   6.855   4.509   6.679  0.0142 -0.4462 -0.7461
  185POPC   O1121168   7.080   4.431   6.633  0.6428 -0.3993  0.5023
  185POPC    C121169   7.058   4.338   6.525  0.0797 -0.6912 -0.0086
  185POPC    HA21170   6.965   4.277   6.530 -0.3462 -0.0328  0.3491
  185POPC    HB21171   7.149   4.274   6.529  0.2602 -0.4854 -0.6766
  185POPC    C221172   7.054   4.413   6.393  0.0352 -0.4131  0.0483
  185POPC    HS21173   7.138   4.486   6.397 -0.1932 -0.0110 -1.5345
  185POPC   O2121174   6.930   4.488   6.389 -0.2084  0.1975 -0.6445
  185POPC   C2121175   6.918   4.588   6.302  0.7203  0.5086 -0.3886
  185POPC   O2221176   7.009   4.645   6.244  0.6547  0.2094 -0.2821
  185POPC   C2221177   6.768   4.617   6.296 -0.6960  0.3362 -0.3481
  185POPC   H2R21178   6.734   4.669   6.389  0.3499  0.3553  0.0478
  185POPC   H2S21179   6.720   4.518   6.286 -0.5178  0.0164  1.4492
  185POPC    C321180   7.067   4.320   6.269 -0.5775  0.6137  0.0957
  185POPC    HX21181   7.002   4.230   6.275 -0.3708  0.5075  0.8464
  185POPC    HY21182   7.168   4.274   6.266 -0.3086  1.2251 -3.1537
  185POPC   O3121183   7.043   4.388   6.149 -0.4098 -0.7784  0.6314
  185POPC   C3121184   7.137   4.447   6.077  0.3729 -0.1370 -0.0044
  185POPC   O3221185   7.259   4.450   6.109 -0.2683 -0.8714 -0.3656
  185POPC   C3221186   7.082   4.492   5.942  0.9288 -0.7958 -0.2067
  185POPC   H2X21187   7.009   4.574   5.959  0.6385 -0.9946 -0.4956
  185POPC   H2Y21188   7.027   4.408   5.895 -0.2916  1.1640 -2.5081
  185POPC   C2321189   6.719   4.708   6.187 -0.7572  0.4335  0.6742
  185POPC   H3R21190   6.790   4.794   6.184  0.0679 -0.2535 -0.0167
  185POPC   H3S21191   6.619   4.750   6.208 -0.6227 -0.0926  2.5571
  185POPC   C2421192   6.713   4.657   6.040  0.4991 -0.2920  0.0663
  185POPC   H4R21193   6.625   4.594   6.016  0.4370 -0.9169  1.7767
  185POPC   H4S21194   6.803   4.594   6.024 -0.5837 -1.9025  0.0571
  185POPC   C2521195   6.734   4.768   5.930  0.1756 -0.0591 -0.2951
  185POPC   H5R21196   6.797   4.718   5.854  0.2041 -3.3204  1.7193
  185POPC   H5S21197   6.786   4.855   5.975 -0.8632  0.1321  0.5956
  185POPC   C2621198   6.604   4.807   5.868  0.1456 -0.0310  1.0655
  185POPC   H6R21199   6.533   4.822   5.952 -0.5416 -2.5253  1.0151
  185POPC   H6S21200   6.573   4.724   5.801  0.3285  0.7340  0.0132
  185POPC   C2721201   6.614   4.941   5.787  0.4567  0.2325  0.9273
  185POPC   H7R21202   6.680   5.011   5.842 -0.6179  0.3948  2.0635
  185POPC   H7S21203   6.511   4.983   5.784  0.1858 -0.3569  1.7236
  185POPC   C2821204   6.661   4.912   5.642 -0.0534  0.3314  0.3527
  185POPC   H8R21205   6.739   4.833   5.647  1.8893  2.1693  0.5471
  185POPC   H8S21206   6.716   5.001   5.605 -0.8312  1.4428  1.7846
  185POPC   C2921207   6.558   4.880   5.540 -0.7427  0.2824  0.2538
  185POPC   H9121208   6.455   4.863   5.576 -0.7576  2.4609  1.4243
  185POPC  C21021209   6.586   4.885   5.406 -0.3176  0.7173  0.6880
  185POPC  H10121210   6.511   4.857   5.331  1.4750  0.6401 -1.1685
  185POPC  C21121211   6.725   4.915   5.338  0.8852 -0.6854 -0.3254
  185POPC  H11R21212   6.810   4.878   5.399  0.3471 -0.0424  0.8633
  185POPC  H11S21213   6.738   5.025   5.332  2.0956 -0.6087  2.1800
  185POPC  C21221214   6.717   4.883   5.196  0.1478 -0.0860  0.7586
  185POPC  H12R21215   6.627   4.924   5.145 -0.7472  1.7719  3.5877
  185POPC  H12S21216   6.711   4.773   5.179  0.0008  0.3375 -2.5246
  185POPC  C21321217   6.840   4.919   5.110 -0.0218  0.6142  1.2576
  185POPC  H13R21218   6.939   4.874   5.133  0.9748  1.6470 -0.7302
  185POPC  H13S21219   6.869   5.027   5.114 -0.3568  0.9237 -1.9597
  185POPC  C21421220   6.804   4.900   4.957 -0.2200  0.2173 -0.0494
  185POPC  H14R21221   6.716   4.967   4.957 -1.6241 -1.4067  3.2128
  185POPC  H14S21222   6.769   4.799   4.927 -1.8545 -0.0088  2.3693
  185POPC  C21521223   6.906   4.960   4.861  0.7055 -0.1861  0.2981
  185POPC  H15R21224   6.998   4.897   4.860 -0.0733 -1.3505 -0.4993
  185POPC  H15S21225   6.937   5.056   4.907  0.0373 -0.2339  0.8727
  185POPC  C21621226   6.863   4.984   4.717  0.1070  1.0286  0.1066
  185POPC  H16R21227   6.800   4.908   4.666 -0.3750  0.6060  1.2848
  185POPC  H16S21228   6.957   5.008   4.663 -0.5484  2.7255 -0.3254
  185POPC  C21721229   6.770   5.104   4.713 -0.3484  0.3206 -0.1073
  185POPC  H17R21230   6.807   5.181   4.784 -2.2301  0.3052  0.9623
  185POPC  H17S21231   6.674   5.074   4.760 -0.2680 -0.8878 -0.6594
  185POPC  C21821232   6.741   5.163   4.576 -0.5003  0.7731  0.4853
  185POPC  H18R21233   6.650   5.226   4.571 -1.1816 -0.2440 -0.2311
  185POPC  H18S21234   6.717   5.084   4.502  0.9530  0.3518  0.4444
  185POPC  H18T21235   6.808   5.249   4.555  0.2967  0.1301  0.3277
  185POPC   C3321236   7.197   4.552   5.854 -0.5190  0.0688 -0.1534
  185POPC   H3X21237   7.296   4.502   5.851  1.5730  3.3014  4.0789
  185POPC   H3Y21238   7.229   4.646   5.903  0.8213 -0.3231 -0.2491
  185POPC   C3421239   7.151   4.585   5.710 -0.3133 -0.3727 -0.0941
  185POPC   H4X21240   7.046   4.618   5.722  0.3241  1.0505  2.6480
  185POPC   H4Y21241   7.165   4.492   5.651  0.6185  0.8907 -1.9642
  185POPC   C3521242   7.244   4.687   5.649 -0.3037 -0.3365 -0.6118
  185POPC   H5X21243   7.343   4.642   5.625 -0.6381 -1.2070 -0.4190
  185POPC   H5Y21244   7.268   4.774   5.713  0.7640 -0.3644 -0.9464
  185POPC   C3621245   7.177   4.739   5.525  0.2060  0.6186 -0.1269
  185POPC   H6X21246   7.072   4.773   5.536  0.5305  0.8819  3.1901
  185POPC   H6Y21247   7.175   4.644   5.468 -0.6362 -0.6907  1.9744
  185POPC   C3721248   7.259   4.843   5.443  0.4552  1.0782 -0.2912
  185POPC   H7X21249   7.368   4.821   5.441  0.6096  1.3065  2.0635
  185POPC   H7Y21250   7.244   4.936   5.501 -0.6409  1.2634 -0.8575
  185POPC   C3821251   7.190   4.853   5.306  0.3583 -0.7398 -0.0990
  185POPC   H8X21252   7.085   4.888   5.309  0.5431 -0.2454  1.2731
  185POPC   H8Y21253   7.198   4.754   5.255  1.9573 -0.4693 -0.4383
  185POPC   C3921254   7.266   4.934   5.203 -0.6319 -0.2672 -1.2918
  185POPC   H9X21255   7.365   4.885   5.204 -0.0002  0.9290 -2.6705
  185POPC   H9Y21256   7.275   5.042   5.229 -0.2662 -0.4550 -0.6009
  185POPC  C31021257   7.225   4.917   5.057  0.1806 -0.3802  0.8733
  185POPC  H10X21258   7.135   4.978   5.038  1.6281  1.8638  0.7861
  185POPC  H10Y21259   7.218   4.809   5.035  1.3194  0.0397 -2.0615
  185POPC  C31121260   7.334   4.969   4.969 -0.0154  0.0389  0.0615
  185POPC  H11X21261   7.425   4.907   4.982 -1.4602 -2.0971  0.4355
  185POPC  H11Y21262   7.353   5.071   5.012 -0.6839 -0.1936  0.9367
  185POPC  C31221263   7.303   4.979   4.820 -0.2034 -0.4969 -0.6327
  185POPC  H12X21264   7.207   5.032   4.803 -0.4028 -0.7939 -0.4479
  185POPC  H12Y21265   7.289   4.885   4.763 -2.6778  0.2656 -1.4231
  185POPC  C31321266   7.405   5.069   4.751 -0.3450  0.9139  0.7431
  185POPC  H13X21267   7.455   5.135   4.826  1.6205 -0.2540  0.5296
  185POPC  H13Y21268   7.355   5.141   4.683 -1.4033  1.2976  1.8922
  185POPC  C31421269   7.514   4.989   4.674 -0.2218  0.0825 -0.2625
  185POPC  H14X21270   7.572   4.927   4.746 -0.2844 -2.4069 -2.2001
  185POPC  H14Y21271   7.590   5.057   4.629  2.1866 -2.0931  0.2219
  185POPC  C31521272   7.477   4.895   4.568  0.1885  0.0062  0.0784
  185POPC  H15X21273   7.439   4.949   4.479  2.6455  0.6148 -0.6755
  185POPC  H15Y21274   7.397   4.826   4.603 -0.3816 -1.4143 -3.5461
  185POPC  C31621275   7.591   4.826   4.497 -0.0244 -0.7164  0.5898
  185POPC  H16X21276   7.542   4.753   4.428  1.5200 -0.5885 -0.6844
  185POPC  H16Y21277   7.656   4.770   4.568 -1.3457 -1.1339  1.5262
  185POPC  H16Z21278   7.657   4.896   4.442 -2.0439  1.4440  0.7541
  186POPC     N21279   0.150   3.648   6.726  0.2891 -0.4123 -0.0300
  186POPC   C1221280   0.241   3.749   6.653  0.9356  1.0243  0.3605
  186POPC  H12A21281   0.334   3.769   6.703  0.3319  0.1052  1.9202
  186POPC  H12B21282   0.188   3.843   6.660 -1.4643 -0.2634  0.7168
  186POPC   C1321283   0.043   3.599   6.639 -0.2088 -0.7996 -0.6510
  186POPC  H13A21284   0.087   3.545   6.556  1.7295 -3.2877  1.8066
  186POPC  H13B21285  -0.022   3.533   6.694  1.5358 -1.9401  0.1273
  186POPC  H13C21286  -0.008   3.683   6.595 -0.3439 -0.6672 -0.2475
  186POPC   C1421287   0.230   3.534   6.771 -0.3747  0.2893  0.5070
  186POPC  H14A21288   0.196   3.488   6.862  0.5624  1.9446  1.7627
  186POPC  H14B21289   0.236   3.465   6.688  0.3513  0.8362  0.0886
  186POPC  H14C21290   0.331   3.570   6.788 -1.1086  3.8076 -1.4950
  186POPC   C1521291   0.099   3.729   6.848  0.0675 -0.1488 -0.3983
  186POPC  H15A21292   0.044   3.813   6.807  1.9469  0.8997 -0.8799
  186POPC  H15B21293   0.187   3.774   6.892 -0.3191  0.8602 -0.6364
  186POPC  H15C21294   0.031   3.670   6.908  0.2328 -1.0897 -1.1207
  186POPC   C1121295   0.264   3.720   6.500  0.4594  0.4374  0.2403
  186POPC  H11A21296   0.298   3.819   6.462  1.2429  0.5792  1.2550
  186POPC  H11B21297   0.164   3.696   6.458 -0.3524 -1.3950  2.9037
  186POPC     P21298   0.332   3.495   6.395 -0.2130  0.0426  0.0488
  186POPC   O1321299   0.193   3.449   6.420  0.0035  0.6582 -0.1462
  186POPC   O1421300   0.440   3.394   6.404  0.3075 -0.2933 -0.4498
  186POPC   O1221301   0.366   3.623   6.482 -0.1954  0.3234 -0.4599
  186POPC   O1121302   0.340   3.558   6.251 -0.3235  0.0459  0.0993
  186POPC    C121303   0.463   3.623   6.209  0.4335  0.2061 -0.3010
  186POPC    HA21304   0.551   3.573   6.256 -1.4520 -1.7281  1.3581
  186POPC    HB21305   0.458   3.730   6.236 -0.6451  0.4778 -1.4671
  186POPC    C221306   0.485   3.597   6.064  0.4117 -0.2478  0.4778
  186POPC    HS21307   0.577   3.654   6.039  0.3272 -0.4596 -0.3473
  186POPC   O2121308   0.383   3.645   5.975  0.2351  0.7354 -0.2365
  186POPC   C2121309   0.364   3.775   5.978 -0.0896  0.1761  0.2146
  186POPC   O2221310   0.420   3.851   6.053  0.6408  0.4960  0.1316
  186POPC   C2221311   0.256   3.819   5.881 -0.3171  0.2958 -0.3077
  186POPC   H2R21312   0.164   3.776   5.927 -1.3561 -0.1982 -2.7394
  186POPC   H2S21313   0.276   3.770   5.784 -3.4670  0.0999 -0.9815
  186POPC    C321314   0.519   3.448   6.036  0.4092 -0.0490 -0.4373
  186POPC    HX21315   0.427   3.389   6.017  0.6374  0.3499 -3.2079
  186POPC    HY21316   0.568   3.397   6.121  1.2694  0.1353 -0.8155
  186POPC   O3121317   0.604   3.438   5.922 -0.0594  0.4104  0.1795
  186POPC   C3121318   0.742   3.447   5.940 -0.9236  0.3833  0.7517
  186POPC   O3221319   0.795   3.460   6.051  0.1957 -0.6955 -0.4187
  186POPC   C3221320   0.816   3.436   5.807  0.5426  0.3495 -0.0494
  186POPC   H2X21321   0.787   3.523   5.743 -1.3101  1.0080  1.5958
  186POPC   H2Y21322   0.791   3.341   5.755 -1.2533  0.4788  0.5102
  186POPC   C2321323   0.249   3.970   5.869  0.1238 -1.2334 -0.0625
  186POPC   H3R21324   0.266   4.019   5.968  2.3833 -3.2427  0.6372
  186POPC   H3S21325   0.147   4.002   5.839  0.7949 -1.3220 -2.6606
  186POPC   C2421326   0.336   4.023   5.756 -0.5715  0.5106 -0.7218
  186POPC   H4R21327   0.315   3.980   5.655 -1.5068  1.2833 -0.8708
  186POPC   H4S21328   0.443   4.011   5.783 -1.0013  0.5639  1.1297
  186POPC   C2521329   0.323   4.177   5.736 -0.0552 -0.3313 -0.3901
  186POPC   H5R21330   0.342   4.228   5.832 -0.0163  0.9951 -1.0777
  186POPC   H5S21331   0.221   4.206   5.701  0.4924  0.5228 -1.3572
  186POPC   C2621332   0.409   4.235   5.622  0.3506 -0.0026 -0.1415
  186POPC   H6R21333   0.514   4.198   5.627  0.8557  1.4883  1.1747
  186POPC   H6S21334   0.420   4.346   5.620 -2.9696  0.4407  0.6247
  186POPC   C2721335   0.373   4.195   5.482 -0.0906 -0.2268  0.2904
  186POPC   H7R21336   0.268   4.211   5.448 -0.3384  0.0146  1.1513
  186POPC   H7S21337   0.405   4.091   5.458  0.3808 -0.1084  0.4019
  186POPC   C2821338   0.469   4.287   5.395  0.1915  0.1050 -0.3669
  186POPC   H8R21339   0.479   4.228   5.302  2.5970  1.5244 -1.0927
  186POPC   H8S21340   0.567   4.300   5.446  0.1457  1.5364 -0.5949
  186POPC   C2921341   0.413   4.423   5.370  0.1417  0.5506 -0.3273
  186POPC   H9121342   0.310   4.441   5.405  0.1965 -0.4266  0.3789
  186POPC  C21021343   0.480   4.518   5.301 -0.4947 -0.0299 -0.5201
  186POPC  H10121344   0.438   4.619   5.288 -0.4423 -0.0250 -0.6556
  186POPC  C21121345   0.620   4.495   5.251  0.4607 -0.3827  0.0976
  186POPC  H11R21346   0.669   4.411   5.306  0.4781 -0.8627 -0.6305
  186POPC  H11S21347   0.679   4.584   5.281 -0.0230  0.4708 -1.3939
  186POPC  C21221348   0.641   4.448   5.104  0.3336  0.4215 -0.1524
  186POPC  H12R21349   0.549   4.393   5.073 -0.9259  2.5259 -0.3132
  186POPC  H12S21350   0.727   4.379   5.088 -0.0187  0.5270 -2.9169
  186POPC  C21321351   0.647   4.574   5.015 -0.3679  0.6769 -0.4476
  186POPC  H13R21352   0.731   4.639   5.046 -0.0739 -0.2874  0.8433
  186POPC  H13S21353   0.554   4.630   5.038 -0.7852 -0.3697  0.5356
  186POPC  C21421354   0.656   4.552   4.865  0.3405 -0.0002  0.6485
  186POPC  H14R21355   0.657   4.652   4.816 -0.9326 -0.6644 -0.8425
  186POPC  H14S21356   0.576   4.488   4.820  0.8865  0.6060 -1.3113
  186POPC  C21521357   0.798   4.495   4.824 -0.2034  0.2711  0.6908
  186POPC  H15R21358   0.793   4.478   4.714  0.8910  1.3148  0.4680
  186POPC  H15S21359   0.809   4.398   4.876  1.8949 -0.6563 -1.3260
  186POPC  C21621360   0.922   4.577   4.857 -0.5370  0.4258  0.1750
  186POPC  H16R21361   0.928   4.589   4.967  0.7516 -0.2803  0.2045
  186POPC  H16S21362   0.903   4.678   4.814  1.4397  0.7627  0.0014
  186POPC  C21721363   1.046   4.517   4.792 -0.7223  0.2709  0.1806
  186POPC  H17R21364   1.043   4.498   4.682  1.8445 -0.4164  0.1527
  186POPC  H17S21365   1.057   4.415   4.835 -1.0188 -0.2418 -0.9125
  186POPC  C21821366   1.159   4.601   4.843 -0.1924  0.7224 -0.1195
  186POPC  H18R21367   1.257   4.570   4.800 -0.6312  0.2036 -0.7661
  186POPC  H18S21368   1.163   4.600   4.954 -0.5028 -0.2939 -0.1052
  186POPC  H18T21369   1.134   4.699   4.797 -1.7338 -0.3255 -1.6588
  186POPC   C3321370   0.975   3.451   5.838  0.1513  0.6661 -0.0952
  186POPC   H3X21371   1.007   3.376   5.914  2.9002  2.0039  0.1728
  186POPC   H3Y21372   0.982   3.556   5.873 -1.1268  0.8373 -0.3021
  186POPC   C3421373   1.060   3.414   5.715 -0.3339 -0.3921 -0.5829
  186POPC   H4X21374   1.061   3.303   5.708 -0.5377 -0.3553 -1.3915
  186POPC   H4Y21375   1.160   3.454   5.740 -0.6551  0.1250 -0.1095
  186POPC   C3521376   1.020   3.452   5.578  0.5514 -0.5935  0.8301
  186POPC   H5X21377   0.919   3.419   5.546  0.2116  1.2357 -0.0996
  186POPC   H5Y21378   1.087   3.397   5.510  1.4776 -0.3287  1.5103
  186POPC   C3621379   1.039   3.601   5.551  0.2308 -0.6043 -0.4501
  186POPC   H6X21380   1.147   3.626   5.562 -0.0743  0.5220  0.1126
  186POPC   H6Y21381   0.979   3.670   5.614 -3.0059 -1.7778 -2.0207
  186POPC   C3721382   1.005   3.646   5.412  0.1962 -0.5602 -0.4813
  186POPC   H7X21383   0.994   3.756   5.402 -0.7926 -0.4172  1.6364
  186POPC   H7Y21384   0.907   3.597   5.391 -0.3655  0.2272  0.1979
  186POPC   C3821385   1.101   3.608   5.303  0.1133  0.2088  0.0235
  186POPC   H8X21386   1.121   3.499   5.311 -0.8976  0.1191  2.2986
  186POPC   H8Y21387   1.203   3.647   5.325  0.5238 -0.6634 -0.2843
  186POPC   C3921388   1.071   3.650   5.154  0.6964 -1.3744  0.7505
  186POPC   H9X21389   1.042   3.757   5.149  1.7691 -1.1279 -0.8061
  186POPC   H9Y21390   0.984   3.588   5.124  0.8083 -1.0683 -0.2244
  186POPC  C31021391   1.196   3.629   5.063 -0.3676 -0.4524 -0.2303
  186POPC  H10X21392   1.210   3.528   5.018  0.9831 -0.3074 -0.1720
  186POPC  H10Y21393   1.290   3.667   5.109 -1.3586  0.4899  1.0925
  186POPC  C31121394   1.176   3.725   4.940 -0.5836  0.7236 -0.2208
  186POPC  H11X21395   1.191   3.832   4.966 -1.2550  0.5665  0.8894
  186POPC  H11Y21396   1.071   3.727   4.905 -0.3927  0.0078 -0.8641
  186POPC  C31221397   1.271   3.699   4.825  0.4831  0.7482  0.1249
  186POPC  H12X21398   1.235   3.614   4.765  0.2480  0.9100  0.0355
  186POPC  H12Y21399   1.375   3.671   4.854  0.4794 -0.5696 -1.0579
  186POPC  C31321400   1.281   3.828   4.737 -0.1251  0.6683 -0.3760
  186POPC  H13X21401   1.319   3.914   4.795  1.2554 -0.3767  0.3083
  186POPC  H13Y21402   1.179   3.859   4.704 -0.4364  1.4032  1.2180
  186POPC  C31421403   1.371   3.800   4.612 -0.1620  0.5315  0.6261
  186POPC  H14X21404   1.325   3.719   4.553  0.5569  1.5639 -1.4697
  186POPC  H14Y21405   1.475   3.773   4.641 -0.6044 -0.6223  1.2128
  186POPC  C31521406   1.386   3.922   4.524  0.2119  0.0286  0.3362
  186POPC  H15X21407   1.441   3.890   4.433  2.4320 -0.5921  1.8389
  186POPC  H15Y21408   1.465   3.990   4.564  1.0747 -0.7733  0.0207
  186POPC  C31621409   1.261   4.002   4.491 -0.2359  0.4147  0.3242
  186POPC  H16X21410   1.194   3.939   4.430 -0.0345 -0.0316  0.5576
  186POPC  H16Y21411   1.286   4.100   4.445  1.9356 -0.5107 -0.6357
  186POPC  H16Z21412   1.214   4.027   4.589  0.3713  0.4955  0.6042
  187POPC     N21413   6.089   5.424   1.861  0.3213 -0.6278  0.1375
  187POPC   C1221414   6.032   5.540   1.945  0.0981  0.3631  0.6736
  187POPC  H12A21415   5.950   5.498   2.002 -1.9356 -0.5303 -2.6073
  187POPC  H12B21416   5.990   5.618   1.883  0.4438  0.2600  0.3089
  187POPC   C1321417   6.144   5.319   1.948  0.4832 -0.3099  0.4327
  187POPC  H13A21418   6.175   5.233   1.890  0.2422  0.5333 -0.9789
  187POPC  H13B21419   6.233   5.359   1.995 -0.2198  0.2284  1.3352
  187POPC  H13C21420   6.078   5.289   2.028 -0.3125  0.5119  0.0974
  187POPC   C1421421   5.975   5.364   1.778 -0.2050  0.1119 -0.1489
  187POPC  H14A21422   5.885   5.335   1.831 -0.8239  2.4114  0.1705
  187POPC  H14B21423   5.929   5.436   1.712 -0.2893  0.8366  0.6827
  187POPC  H14C21424   6.015   5.282   1.721 -1.1356  0.4001 -1.2553
  187POPC   C1521425   6.195   5.462   1.771 -0.6135  0.6011  0.3044
  187POPC  H15A21426   6.279   5.509   1.821 -1.5242  1.2364  1.2676
  187POPC  H15B21427   6.158   5.534   1.700 -0.5847  0.1841 -0.1408
  187POPC  H15C21428   6.235   5.383   1.709  1.8882  1.6989  0.3792
  187POPC   C1121429   6.124   5.605   2.050  1.0149  0.2568  0.3418
  187POPC  H11A21430   6.154   5.532   2.128  0.9470  1.5004  1.5694
  187POPC  H11B21431   6.066   5.689   2.092  0.4890  1.0200 -1.7624
  187POPC     P21432   6.244   5.794   1.911 -0.0263  0.6308  0.0146
  187POPC   O1321433   6.123   5.797   1.822 -0.2729  0.0878 -0.1584
  187POPC   O1421434   6.376   5.805   1.844  0.7249 -0.4740 -0.2287
  187POPC   O1221435   6.243   5.657   1.992 -0.2706 -0.5240  0.1017
  187POPC   O1121436   6.224   5.894   2.036 -0.3525 -0.3331 -0.5350
  187POPC    C121437   6.336   5.899   2.130  0.3762  0.8702 -1.1641
  187POPC    HA21438   6.350   6.005   2.158  0.8837  0.1037  1.7831
  187POPC    HB21439   6.429   5.873   2.076 -1.1559  0.0362 -3.6033
  187POPC    C221440   6.306   5.826   2.259 -0.3508 -0.1889 -0.4222
  187POPC    HS21441   6.292   5.718   2.235 -0.2467 -0.7169  1.6645
  187POPC   O2121442   6.203   5.891   2.338  0.0819 -0.4329 -0.9555
  187POPC   C2121443   6.124   5.806   2.410 -0.0249  0.2804  0.1424
  187POPC   O2221444   6.132   5.685   2.402 -0.1601  0.4542  0.4460
  187POPC   C2221445   6.027   5.875   2.505  0.7523 -0.7794  0.6295
  187POPC   H2R21446   5.995   5.969   2.455  1.1992 -0.9810 -0.0480
  187POPC   H2S21447   6.086   5.910   2.592  2.4310  0.4377 -0.9114
  187POPC    C321448   6.431   5.831   2.352 -0.4279 -0.2995 -0.3927
  187POPC    HX21449   6.444   5.939   2.376  1.3795 -0.1608 -1.7562
  187POPC    HY21450   6.521   5.807   2.291  1.9968  1.9011  2.0760
  187POPC   O3121451   6.411   5.756   2.471 -0.5986  0.3698  0.5021
  187POPC   C3121452   6.476   5.802   2.584 -0.1911 -0.4725  0.8599
  187POPC   O3221453   6.535   5.909   2.599  0.5072  0.3365  0.3630
  187POPC   C3221454   6.450   5.704   2.701  0.2109  0.3115 -0.2438
  187POPC   H2X21455   6.542   5.642   2.712 -0.9211 -1.2243  0.9088
  187POPC   H2Y21456   6.366   5.637   2.672  1.4053 -0.1102 -3.0943
  187POPC   C2321457   5.898   5.796   2.528 -0.3010  0.6283  0.5098
  187POPC   H3R21458   5.906   5.693   2.486  1.2472  0.7798  0.3792
  187POPC   H3S21459   5.819   5.850   2.472 -0.3951  1.1715  1.1637
  187POPC   C2421460   5.852   5.792   2.674 -0.1971 -0.0993  0.3662
  187POPC   H4R21461   5.755   5.737   2.679  0.2877 -0.9642  0.4066
  187POPC   H4S21462   5.839   5.900   2.697  1.9713  0.8450 -2.2377
  187POPC   C2521463   5.946   5.723   2.772 -0.2483  0.1887 -0.7533
  187POPC   H5R21464   6.046   5.770   2.764 -0.3965  0.5785 -0.2844
  187POPC   H5S21465   5.966   5.615   2.752  2.2990  0.3535  0.4156
  187POPC   C2621466   5.903   5.734   2.917 -0.0241  0.2328 -0.2336
  187POPC   H6R21467   5.805   5.688   2.940  0.7152  0.0102  2.9507
  187POPC   H6S21468   5.900   5.843   2.933  0.2813  0.1416  0.4745
  187POPC   C2721469   6.010   5.668   3.012 -0.4012 -0.1172 -0.4646
  187POPC   H7R21470   6.113   5.684   2.973 -0.1010  0.8626  0.6832
  187POPC   H7S21471   5.994   5.559   3.020 -0.0164 -0.1894 -0.6664
  187POPC   C2821472   5.997   5.722   3.155 -0.8978  0.1478  0.5147
  187POPC   H8R21473   6.039   5.825   3.148 -0.5636 -0.0424 -0.5219
  187POPC   H8S21474   6.074   5.661   3.207 -0.2480 -0.1380 -0.7462
  187POPC   C2921475   5.858   5.722   3.227  0.3024  0.1596 -0.0679
  187POPC   H9121476   5.785   5.654   3.179  1.4645 -1.0897 -0.1323
  187POPC  C21021477   5.813   5.807   3.324 -0.0091 -0.4564 -0.1290
  187POPC  H10121478   5.721   5.781   3.379  0.2488  3.7399  2.7379
  187POPC  C21121479   5.896   5.905   3.406 -0.2092 -0.0494  0.5628
  187POPC  H11R21480   5.843   6.002   3.407  1.0630  0.6781  0.7758
  187POPC  H11S21481   5.997   5.916   3.360 -0.8010  1.2829 -0.4722
  187POPC  C21221482   5.912   5.859   3.557  0.4275 -0.0307  0.5599
  187POPC  H12R21483   5.808   5.846   3.595  0.0861 -3.5667 -1.2034
  187POPC  H12S21484   5.976   5.936   3.605  2.0210 -0.2705 -1.0675
  187POPC  C21321485   5.976   5.721   3.564  0.6883  0.6876  0.3172
  187POPC  H13R21486   6.064   5.724   3.496  0.4530 -0.5921 -0.0873
  187POPC  H13S21487   5.909   5.645   3.517 -0.5898  1.2326  1.1957
  187POPC  C21421488   6.021   5.657   3.701 -0.3241  0.4592 -0.5868
  187POPC  H14R21489   6.082   5.738   3.747  0.8751  0.3611 -1.9531
  187POPC  H14S21490   6.089   5.570   3.687 -2.0064 -1.2996  1.5331
  187POPC  C21521491   5.900   5.616   3.791  0.6620 -0.0596  0.0312
  187POPC  H15R21492   5.816   5.687   3.776  0.3880 -0.5506 -0.8562
  187POPC  H15S21493   5.917   5.620   3.900  0.5569 -0.3754  0.0595
  187POPC  C21621494   5.861   5.467   3.766 -0.5636 -0.2482  0.0124
  187POPC  H16R21495   5.953   5.409   3.746 -2.2328 -2.1927 -2.6484
  187POPC  H16S21496   5.796   5.467   3.676  0.0212 -0.9632 -0.4225
  187POPC  C21721497   5.792   5.414   3.887  0.8890 -0.0830 -0.2065
  187POPC  H17R21498   5.724   5.495   3.922  0.9643  0.4491 -1.2741
  187POPC  H17S21499   5.855   5.375   3.969  1.6138 -1.0597 -1.2095
  187POPC  C21821500   5.723   5.285   3.862 -0.0162  0.9060  1.0014
  187POPC  H18R21501   5.785   5.217   3.800 -1.2793  0.0240  0.6657
  187POPC  H18S21502   5.625   5.309   3.815 -0.6884  3.2971  3.3692
  187POPC  H18T21503   5.697   5.239   3.961  1.1247  3.2238  2.4536
  187POPC   C3321504   6.426   5.784   2.828  0.0650 -0.4327 -0.6051
  187POPC   H3X21505   6.341   5.855   2.822  0.4566  0.7081  3.6104
  187POPC   H3Y21506   6.521   5.841   2.843 -1.2342  1.6937  0.0135
  187POPC   C3421507   6.390   5.692   2.947  0.1008  0.1366 -0.5823
  187POPC   H4X21508   6.334   5.601   2.915 -0.8544  0.4178  0.2227
  187POPC   H4Y21509   6.328   5.760   3.009  0.0089  0.8252 -1.4166
  187POPC   C3521510   6.516   5.654   3.026  0.8448  0.0743  0.5021
  187POPC   H5X21511   6.590   5.737   3.026  2.6778 -1.5148  0.8657
  187POPC   H5Y21512   6.571   5.581   2.964 -2.2443 -1.1306 -1.0543
  187POPC   C3621513   6.499   5.610   3.172  0.1368  0.3699  0.4191
  187POPC   H6X21514   6.598   5.570   3.202 -0.5007  0.5173  2.9286
  187POPC   H6Y21515   6.441   5.516   3.185  2.7159 -1.6535 -1.6915
  187POPC   C3721516   6.455   5.719   3.265  0.3691 -0.5172 -0.7192
  187POPC   H7X21517   6.345   5.729   3.255  0.2405 -1.9083 -0.8735
  187POPC   H7Y21518   6.515   5.808   3.237  1.7215 -0.8215  1.0404
  187POPC   C3821519   6.470   5.682   3.411 -0.4165  0.2818  0.5018
  187POPC   H8X21520   6.577   5.663   3.434 -0.3095  1.4592  1.0729
  187POPC   H8Y21521   6.420   5.585   3.428 -1.6543  1.1581  2.0830
  187POPC   C3921522   6.416   5.787   3.506  0.3320 -0.4255 -0.1630
  187POPC   H9X21523   6.314   5.819   3.476 -0.4255 -1.1979  1.4439
  187POPC   H9Y21524   6.482   5.876   3.513  0.0258  0.0370 -2.3937
  187POPC  C31021525   6.380   5.725   3.647 -0.5904 -0.0365 -0.0667
  187POPC  H10X21526   6.310   5.640   3.634 -0.0140 -0.4547 -0.5231
  187POPC  H10Y21527   6.327   5.808   3.697  0.1990  0.0168  0.7092
  187POPC  C31121528   6.513   5.707   3.728  0.4515  0.2188  0.1475
  187POPC  H11X21529   6.581   5.792   3.706 -0.7750  1.1182 -0.2937
  187POPC  H11Y21530   6.556   5.608   3.702  0.1102 -0.2774  1.3985
  187POPC  C31221531   6.481   5.685   3.882  0.0106 -0.4159 -0.4108
  187POPC  H12X21532   6.573   5.662   3.940 -0.4873  1.3205  1.1832
  187POPC  H12Y21533   6.411   5.602   3.906  0.4090 -0.7603 -0.4347
  187POPC  C31321534   6.411   5.813   3.936  0.6985 -0.8111 -0.2328
  187POPC  H13X21535   6.304   5.823   3.907  1.4100  1.5255 -2.4849
  187POPC  H13Y21536   6.459   5.900   3.886  0.1050 -0.4456 -0.1724
  187POPC  C31421537   6.425   5.830   4.090 -0.0732  0.1675  0.0178
  187POPC  H14X21538   6.397   5.933   4.121  1.2609  0.5703 -0.0438
  187POPC  H14Y21539   6.533   5.822   4.113 -0.0431  0.5161  0.0021
  187POPC  C31521540   6.339   5.731   4.178 -0.1016  0.2503 -0.3224
  187POPC  H15X21541   6.372   5.632   4.141  0.7860 -0.1799  1.4845
  187POPC  H15Y21542   6.231   5.739   4.153 -0.6283 -3.0381  0.3602
  187POPC  C31621543   6.357   5.763   4.329 -0.2114 -0.0244 -0.2557
  187POPC  H16X21544   6.318   5.691   4.405  0.2756 -1.7544 -1.5700
  187POPC  H16Y21545   6.303   5.856   4.355 -0.2445 -0.1596  0.1743
  187POPC  H16Z21546   6.466   5.770   4.349 -0.3210 -0.7859  0.7296
  188POPC     N21547   3.689   5.090   2.252 -0.7707  0.6960 -0.3380
  188POPC   C1221548   3.791   5.205   2.223  0.8190  0.1197 -1.0401
  188POPC  H12A21549   3.869   5.163   2.161  1.4387  1.7781 -1.4260
  188POPC  H12B21550   3.828   5.236   2.320  1.4629  0.0414 -1.2562
  188POPC   C1321551   3.756   4.983   2.332 -0.7006  0.2646 -0.0744
  188POPC  H13A21552   3.818   4.919   2.270 -0.6258  0.3483 -0.0865
  188POPC  H13B21553   3.814   5.029   2.411  0.0348  1.3924 -1.2225
  188POPC  H13C21554   3.686   4.921   2.386 -0.2014  0.8016  1.2318
  188POPC   C1421555   3.569   5.130   2.328  0.4673 -0.0704 -0.8423
  188POPC  H14A21556   3.491   5.056   2.324 -1.7123  1.9129  1.4190
  188POPC  H14B21557   3.601   5.152   2.429 -0.6543  0.4615 -0.5933
  188POPC  H14C21558   3.533   5.226   2.293 -1.6641 -1.1801 -1.8553
  188POPC   C1521559   3.643   5.043   2.117  0.0060  0.2722  0.2997
  188POPC  H15A21560   3.572   5.110   2.071  1.2689  0.9089 -0.7954
  188POPC  H15B21561   3.597   4.946   2.117  1.1959 -0.3837 -2.1067
  188POPC  H15C21562   3.726   5.027   2.050  0.4623  1.7873  0.4545
  188POPC   C1121563   3.739   5.334   2.146  0.1517 -0.5279  0.2407
  188POPC  H11A21564   3.696   5.298   2.050  0.3623 -0.2892  0.0555
  188POPC  H11B21565   3.825   5.403   2.128 -1.1878  1.7675  2.0095
  188POPC     P21566   3.668   5.561   2.260 -0.3041 -0.1425 -0.0039
  188POPC   O1321567   3.556   5.624   2.335 -0.1537 -0.2447 -0.0967
  188POPC   O1421568   3.708   5.623   2.131  0.1482  0.2170 -0.1249
  188POPC   O1221569   3.633   5.409   2.213  0.2032  0.3546 -0.1522
  188POPC   O1121570   3.793   5.544   2.356  0.2474 -0.2833 -0.1129
  188POPC    C121571   3.765   5.493   2.489  0.1595 -0.7845  0.9455
  188POPC    HA21572   3.843   5.429   2.535  1.5133 -0.5371 -0.8849
  188POPC    HB21573   3.670   5.436   2.495 -1.1997  1.3543  0.7836
  188POPC    C221574   3.763   5.617   2.589 -0.2581  0.4876  0.2496
  188POPC    HS21575   3.690   5.686   2.543 -0.8893  0.4825  1.2068
  188POPC   O2121576   3.895   5.672   2.576  0.0372  0.1237 -0.1484
  188POPC   C2121577   3.897   5.803   2.590  0.0409 -0.2493 -0.0453
  188POPC   O2221578   3.798   5.878   2.614  0.0554  0.2027  0.1504
  188POPC   C2221579   4.038   5.858   2.547  0.3866  0.6059 -0.2728
  188POPC   H2R21580   4.060   5.815   2.447  0.8276 -3.1687  1.2890
  188POPC   H2S21581   4.108   5.808   2.616  0.7094  2.4692  0.8340
  188POPC    C321582   3.714   5.578   2.735 -0.2779 -0.0104  0.4977
  188POPC    HX21583   3.756   5.477   2.753  1.1156 -0.0241 -2.1996
  188POPC    HY21584   3.603   5.571   2.726 -0.1641  0.3496 -1.8184
  188POPC   O3121585   3.763   5.670   2.838  0.2781 -0.1388  0.5056
  188POPC   C3121586   3.667   5.741   2.895 -0.1716  0.0716 -0.3677
  188POPC   O3221587   3.543   5.724   2.877  0.0830  0.3356 -0.2115
  188POPC   C3221588   3.734   5.831   2.996 -0.5556 -0.7221 -0.1841
  188POPC   H2X21589   3.676   5.925   2.991 -1.0609 -1.0724 -1.1112
  188POPC   H2Y21590   3.839   5.861   2.972 -0.8277  0.7088  0.3361
  188POPC   C2321591   4.052   6.014   2.558  0.5660 -0.9109 -0.3445
  188POPC   H3R21592   3.972   6.068   2.503 -0.3980 -0.4646  1.4062
  188POPC   H3S21593   4.139   6.055   2.503 -1.1476  1.4388 -1.4699
  188POPC   C2421594   4.052   6.057   2.707  0.1869  0.1315  0.4468
  188POPC   H4R21595   3.951   6.034   2.747  0.0843  0.3403  0.3066
  188POPC   H4S21596   4.055   6.167   2.720  0.6817 -0.1680  3.6357
  188POPC   C2521597   4.167   6.007   2.795 -0.2843  0.2815 -0.1861
  188POPC   H5R21598   4.259   6.052   2.754 -0.0095  0.2784  0.4135
  188POPC   H5S21599   4.178   5.897   2.792 -0.5320  0.2479  0.1118
  188POPC   C2621600   4.155   6.038   2.944 -0.3786 -0.8004  0.2810
  188POPC   H6R21601   4.062   6.002   2.992 -1.3540  1.1824 -0.0120
  188POPC   H6S21602   4.161   6.147   2.965  1.7502 -0.9565  0.6749
  188POPC   C2721603   4.276   5.977   3.014  0.4908 -0.0615  0.0439
  188POPC   H7R21604   4.370   6.000   2.958  0.7601  1.4784  1.0556
  188POPC   H7S21605   4.264   5.868   3.027  3.0394 -0.4193 -0.1250
  188POPC   C2821606   4.298   6.023   3.164  0.7462 -0.3936  0.8801
  188POPC   H8R21607   4.207   6.003   3.224  1.4540 -1.8103  1.5495
  188POPC   H8S21608   4.310   6.133   3.161  2.3180 -0.5585 -0.7988
  188POPC   C2921609   4.410   5.957   3.232 -0.2538 -0.5028  0.5956
  188POPC   H9121610   4.499   6.017   3.212  0.1954 -0.7622  1.7327
  188POPC  C21021611   4.405   5.867   3.328  0.0874  0.6198  0.2437
  188POPC  H10121612   4.505   5.833   3.357 -0.4735 -0.9705  0.4040
  188POPC  C21121613   4.280   5.798   3.387  0.2020 -0.3598 -0.0964
  188POPC  H11R21614   4.299   5.689   3.387  2.9719  0.0383 -0.8348
  188POPC  H11S21615   4.182   5.825   3.341 -0.2140  1.2418  1.6021
  188POPC  C21221616   4.241   5.832   3.539 -0.0159 -0.7118  0.4791
  188POPC  H12R21617   4.333   5.801   3.593  2.0486  1.7420 -1.4129
  188POPC  H12S21618   4.154   5.766   3.562 -0.4158 -0.9274 -1.5353
  188POPC  C21321619   4.205   5.975   3.569 -0.6445  0.2224 -0.1405
  188POPC  H13R21620   4.105   5.990   3.525 -0.1901  2.2770 -0.5642
  188POPC  H13S21621   4.270   6.044   3.511 -1.1002 -0.2008 -1.1638
  188POPC  C21421622   4.214   6.017   3.716 -0.5857 -0.2518  0.6530
  188POPC  H14R21623   4.172   6.118   3.738  1.2444  1.1125 -1.6313
  188POPC  H14S21624   4.322   6.031   3.738 -0.0587 -2.0249 -0.5681
  188POPC  C21521625   4.156   5.921   3.809 -0.0791  0.7242 -0.2581
  188POPC  H15R21626   4.220   5.831   3.816 -2.9211 -1.3436  1.6165
  188POPC  H15S21627   4.064   5.876   3.767 -0.2517 -0.9524  1.7639
  188POPC  C21621628   4.130   5.972   3.954  0.2684  0.9741  0.0437
  188POPC  H16R21629   4.077   5.892   4.010  1.0496 -0.5565 -1.3148
  188POPC  H16S21630   4.059   6.057   3.947 -0.3852  0.3729 -0.9200
  188POPC  C21721631   4.252   6.020   4.024 -0.0819 -0.1463  0.1644
  188POPC  H17R21632   4.299   6.093   3.955 -1.7751 -1.7930 -2.9521
  188POPC  H17S21633   4.316   5.934   4.054 -1.2790 -1.0357  0.2487
  188POPC  C21821634   4.211   6.095   4.152 -0.5352 -0.1493  0.4602
  188POPC  H18R21635   4.158   6.186   4.118  1.7629  0.8565 -0.6132
  188POPC  H18S21636   4.309   6.120   4.197  0.3564 -0.4364 -1.2170
  188POPC  H18T21637   4.167   6.025   4.227  0.3451 -2.7792 -1.3137
  188POPC   C3321638   3.723   5.772   3.132 -0.6133 -0.0430 -0.0968
  188POPC   H3X21639   3.791   5.684   3.134 -3.2946 -2.2743 -1.3505
  188POPC   H3Y21640   3.617   5.742   3.146 -1.1617  1.8131  0.0546
  188POPC   C3421641   3.761   5.868   3.245 -0.0379  0.3910 -0.5276
  188POPC   H4X21642   3.692   5.955   3.244 -0.0657  0.3903 -2.2354
  188POPC   H4Y21643   3.851   5.919   3.205  0.8632  1.0650  2.1403
  188POPC   C3521644   3.784   5.811   3.382  0.6230 -0.0583 -0.1013
  188POPC   H5X21645   3.878   5.752   3.382  0.8401  0.2750 -0.5839
  188POPC   H5Y21646   3.706   5.734   3.393 -1.0961  1.3231 -1.8440
  188POPC   C3621647   3.775   5.913   3.490 -0.6712 -0.7553  0.1540
  188POPC   H6X21648   3.711   6.000   3.464  0.7381  0.3860  0.3697
  188POPC   H6Y21649   3.877   5.952   3.510 -0.8233  0.8286 -1.7582
  188POPC   C3721650   3.708   5.851   3.613 -0.0055  0.1131 -0.0115
  188POPC   H7X21651   3.767   5.760   3.635 -1.5803 -1.0105 -0.1993
  188POPC   H7Y21652   3.608   5.812   3.583 -0.1230  0.7523 -0.4635
  188POPC   C3821653   3.701   5.952   3.734  0.3050 -0.1664  0.6838
  188POPC   H8X21654   3.633   6.038   3.713  0.3526 -0.3761 -0.3523
  188POPC   H8Y21655   3.805   5.985   3.749  0.8809  0.4162 -3.4691
  188POPC   C3921656   3.643   5.888   3.853  0.6622  0.1008 -0.2489
  188POPC   H9X21657   3.724   5.827   3.898  0.3729 -0.4307 -0.4359
  188POPC   H9Y21658   3.563   5.814   3.830  1.4758 -0.3276 -1.8474
  188POPC  C31021659   3.584   5.990   3.957  0.4075  0.3582  0.1284
  188POPC  H10X21660   3.516   6.057   3.900 -1.0911 -1.5969 -0.5213
  188POPC  H10Y21661   3.669   6.052   3.993  1.0035  0.1475 -0.8754
  188POPC  C31121662   3.512   5.920   4.074  0.0716 -0.5764 -0.1138
  188POPC  H11X21663   3.580   5.842   4.117  0.8528  1.1273  1.9138
  188POPC  H11Y21664   3.420   5.874   4.031 -0.1826 -0.5924  0.4383
  188POPC  C31221665   3.478   6.011   4.191  0.1706  0.2863  0.0778
  188POPC  H12X21666   3.429   6.107   4.164 -0.8629 -0.5799 -1.2961
  188POPC  H12Y21667   3.576   6.036   4.236 -0.0546  1.0659  0.1431
  188POPC  C31321668   3.396   5.945   4.304  0.2911  0.3677 -0.3784
  188POPC  H13X21669   3.453   5.858   4.341 -2.3037 -2.2466 -2.0187
  188POPC  H13Y21670   3.302   5.903   4.260 -0.4323  0.5077  0.9815
  188POPC  C31421671   3.351   6.044   4.416  0.3478 -0.0240  0.4343
  188POPC  H14X21672   3.280   5.991   4.483  0.4190 -0.0368  0.5010
  188POPC  H14Y21673   3.301   6.130   4.367 -1.3574 -0.9611  0.4477
  188POPC  C31521674   3.459   6.106   4.493 -0.0316  0.6692  0.3378
  188POPC  H15X21675   3.532   6.155   4.425  0.5585  0.4090  0.7687
  188POPC  H15Y21676   3.509   6.020   4.543  0.0849  1.0394  0.8576
  188POPC  C31621677   3.406   6.207   4.589 -0.3284  0.4181 -1.1062
  188POPC  H16X21678   3.334   6.162   4.661  1.9242 -0.9827  0.3930
  188POPC  H16Y21679   3.367   6.297   4.537  0.9220  0.7376 -1.5257
  188POPC  H16Z21680   3.487   6.241   4.656  1.1382 -0.6043 -2.2795
  189SAPI   C1221681   2.967   6.420   7.464 -0.9373 -0.4821  0.3958
  189SAPI    H221682   2.893   6.501   7.443 -0.5530 -0.4571 -0.9870
  189SAPI    O221683   3.067   6.467   7.557  0.3597 -0.1786  0.6529
  189SAPI   HO221684   3.104   6.553   7.535  1.4653 -0.9404 -0.6743
  189SAPI   C1321685   2.887   6.308   7.517 -0.6407  0.2606  0.2629
  189SAPI    H321686   2.824   6.269   7.435 -1.0706 -1.0428  1.1889
  189SAPI    O321687   2.800   6.353   7.620 -0.0397 -0.2183  0.3632
  189SAPI   HO321688   2.770   6.283   7.678  1.4623 -0.5060  0.8323
  189SAPI   C1421689   2.983   6.194   7.563 -0.3974 -0.3844  0.0556
  189SAPI    H421690   3.030   6.223   7.659  1.3224 -1.1935 -0.5027
  189SAPI    O421691   2.893   6.085   7.597 -1.1293  0.2792  0.5137
  189SAPI   HO421692   2.855   6.043   7.520 -0.0097 -0.0185  0.1025
  189SAPI   C1521693   3.090   6.157   7.463  0.2811  0.1151  1.0709
  189SAPI    H521694   3.036   6.081   7.402 -0.5139 -0.4334  2.3951
  189SAPI    O521695   3.196   6.073   7.515 -0.1068 -0.1312  0.2838
  189SAPI   HO521696   3.214   6.089   7.607  0.3883 -1.3255  0.4174
  189SAPI   C1621697   3.139   6.271   7.361 -0.5387 -0.0805 -0.1916
  189SAPI    H621698   3.223   6.320   7.415 -0.1459  2.0825 -2.5404
  189SAPI    O621699   3.199   6.215   7.244 -0.4241  0.0249  0.0306
  189SAPI   HO621700   3.259   6.143   7.265 -0.7013  0.0716  1.0252
  189SAPI   C1121701   3.041   6.388   7.335  0.5470  0.6552  0.1950
  189SAPI    H121702   2.965   6.362   7.259 -0.6432 -0.1938  1.6447
  189SAPI     P21703   3.051   6.626   7.206  0.4373  0.4382  0.1536
  189SAPI   O1321704   3.116   6.746   7.257  0.0802 -0.0388  0.2755
  189SAPI   O1421705   2.902   6.622   7.214 -0.0242 -0.3609  0.1118
  189SAPI   O1221706   3.113   6.508   7.294 -0.4743  0.2874 -0.1114
  189SAPI   O1121707   3.110   6.597   7.057  0.9412  0.3122 -0.2769
  189SAPI    C121708   3.067   6.478   6.995  0.6613  0.8477 -0.0301
  189SAPI    HA21709   3.138   6.398   7.025 -1.1929 -1.0476 -0.4763
  189SAPI    HB21710   2.963   6.445   7.014  1.4514 -0.1376  3.2698
  189SAPI    C221711   3.079   6.487   6.838  0.3015 -0.3310  0.0347
  189SAPI    HS21712   3.058   6.382   6.807  0.5931 -1.0120  2.0134
  189SAPI   O2121713   3.210   6.536   6.801 -0.4259  0.3812  0.0339
  189SAPI   C2121714   3.305   6.443   6.809 -0.0375 -0.3156 -0.9111
  189SAPI   O2221715   3.293   6.325   6.838 -0.5194 -0.1286  0.3508
  189SAPI   C2221716   3.443   6.509   6.798  0.1847 -0.4260  0.0106
  189SAPI   H2R21717   3.433   6.618   6.781  3.4232 -0.0391  0.0554
  189SAPI   H2S21718   3.484   6.496   6.900 -0.0249  1.0549  0.3034
  189SAPI    C321719   2.965   6.581   6.784  0.5318  0.0044  0.0520
  189SAPI    HX21720   2.973   6.674   6.843  1.7863 -0.8314  1.2745
  189SAPI    HY21721   2.870   6.526   6.800  1.1571 -0.5316  2.1621
  189SAPI   O3121722   2.971   6.615   6.646 -0.2908 -0.3200 -0.0129
  189SAPI   C3121723   2.974   6.509   6.569  0.3355  0.2042  0.2359
  189SAPI   O3221724   2.948   6.396   6.604 -0.6232  0.2845 -0.1824
  189SAPI   C3221725   3.035   6.539   6.434  0.6682 -0.1728  0.4076
  189SAPI   H2X21726   3.113   6.617   6.449 -1.4779  1.8855  1.5902
  189SAPI   H2Y21727   2.951   6.581   6.375  1.7347 -0.4182 -1.3794
  189SAPI   C2321728   3.530   6.444   6.691 -0.6810  0.2717 -0.8083
  189SAPI   H3R21729   3.552   6.337   6.712  0.6564  0.8755  1.1652
  189SAPI   H3S21730   3.623   6.495   6.722 -2.0199  1.4737  1.5229
  189SAPI   C2421731   3.481   6.482   6.554  0.2092  0.3392 -0.4527
  189SAPI   H4R21732   3.466   6.592   6.550  0.1274  0.3103 -0.8970
  189SAPI   H4S21733   3.382   6.432   6.547  0.4420 -0.3892  1.0596
  189SAPI   C2521734   3.579   6.426   6.461  0.0709  0.3882  0.0813
  189SAPI   H5R21735   3.677   6.430   6.510  0.1629 -2.4329  0.2820
  189SAPI   C2621736   3.559   6.357   6.349  0.0176  0.3887  0.1798
  189SAPI   H6R21737   3.650   6.317   6.302 -0.8516 -1.0636 -0.3147
  189SAPI   C2721738   3.439   6.324   6.271 -0.5477  0.4765  0.7353
  189SAPI   H7R21739   3.454   6.323   6.161 -3.4000 -0.5002  0.2557
  189SAPI   H7S21740   3.359   6.399   6.293 -0.8096  1.4716 -2.8695
  189SAPI   C2821741   3.392   6.184   6.297 -1.0429  0.3931 -0.5265
  189SAPI   H8R21742   3.359   6.166   6.401 -1.8707 -0.9303 -0.9917
  189SAPI   C2921743   3.375   6.082   6.211 -0.0592  0.2753  0.2282
  189SAPI   H9R21744   3.358   5.980   6.249 -1.1915 -0.5468 -2.2427
  189SAPI  C21021745   3.399   6.077   6.061  0.7216 -0.9316  0.6233
  189SAPI  H10R21746   3.445   5.981   6.029 -2.4634 -1.8562 -1.6347
  189SAPI  H10S21747   3.460   6.166   6.033 -0.2315 -0.3487  0.3773
  189SAPI  C21121748   3.279   6.102   5.973  0.1832 -0.0693  0.4588
  189SAPI  H11R21749   3.200   6.165   6.015  1.2756  1.4250  0.3535
  189SAPI  C21221750   3.263   6.052   5.847 -0.4001 -0.9742 -0.6189
  189SAPI  H12R21751   3.177   6.098   5.796 -0.5050 -0.3710  0.0981
  189SAPI  C21321752   3.350   5.970   5.760 -0.4832 -0.5861  0.0876
  189SAPI  H13R21753   3.457   5.954   5.787  0.2991  0.4971 -2.1499
  189SAPI  H13S21754   3.353   6.029   5.666  1.0079  0.4599  0.7543
  189SAPI  C21421755   3.286   5.839   5.732  0.1405  0.0227 -0.8423
  189SAPI  H14R21756   3.287   5.791   5.831  1.3521  0.6722 -0.5224
  189SAPI  C21521757   3.251   5.783   5.612 -0.5260 -0.3036 -0.5501
  189SAPI  H15R21758   3.202   5.684   5.612  1.3897 -1.3693  2.4472
  189SAPI  C21621759   3.274   5.848   5.479 -0.2270  0.9269  0.6122
  189SAPI  H16R21760   3.307   5.953   5.485 -0.9898  1.3132 -1.1060
  189SAPI  H16S21761   3.188   5.828   5.411 -0.5967 -1.1435  1.6150
  189SAPI  C21721762   3.391   5.782   5.402 -0.4135 -0.9471 -0.2664
  189SAPI  H17R21763   3.478   5.786   5.471 -0.2050  0.9283 -0.5699
  189SAPI  H17S21764   3.410   5.851   5.316  0.7105  1.0292  1.4525
  189SAPI  C21821765   3.362   5.639   5.358  0.0383 -0.6850  0.1038
  189SAPI  H18R21766   3.275   5.640   5.289 -0.2838 -1.9116  0.4682
  189SAPI  H18S21767   3.339   5.570   5.442  1.0263 -1.1935 -0.0206
  189SAPI  C21921768   3.482   5.590   5.282  0.0927  0.3879  0.1032
  189SAPI  H19R21769   3.576   5.607   5.339 -0.2907 -0.3596  0.9800
  189SAPI  H19S21770   3.493   5.643   5.185 -1.1880 -2.5086 -1.7764
  189SAPI  C22021771   3.482   5.439   5.240 -0.6020  0.5354 -0.3594
  189SAPI  H20R21772   3.495   5.374   5.329 -1.2107  0.5674 -0.2444
  189SAPI  H20S21773   3.561   5.430   5.163  0.4290 -0.6012  0.7689
  189SAPI  H20T21774   3.385   5.411   5.193 -0.7376 -0.9586  0.7284
  189SAPI   C3321775   3.102   6.425   6.368  0.7906  0.3374 -0.0530
  189SAPI   H3X21776   3.174   6.387   6.444  0.9274  0.3193 -0.1913
  189SAPI   H3Y21777   3.161   6.461   6.282  1.0076  0.3943  0.1178
  189SAPI   C3421778   3.027   6.304   6.304  0.1659 -0.3377  0.4662
  189SAPI   H4X21779   2.971   6.265   6.392 -1.7487  1.4858  0.1536
  189SAPI   H4Y21780   3.103   6.229   6.275 -2.0509 -3.0755  1.3002
  189SAPI   C3521781   2.933   6.360   6.198 -0.3026  0.0752 -0.1972
  189SAPI   H5X21782   2.995   6.425   6.132 -0.7575  2.0810  1.2427
  189SAPI   H5Y21783   2.840   6.400   6.244 -0.6613 -1.6480  0.6346
  189SAPI   C3621784   2.900   6.238   6.115 -0.2249  0.0962  0.5541
  189SAPI   H6X21785   2.835   6.172   6.175  0.6212 -0.4600  0.8844
  189SAPI   H6Y21786   2.996   6.194   6.079  0.3368  1.9948 -0.4635
  189SAPI   C3721787   2.827   6.281   5.981 -0.6880  0.1257 -0.0969
  189SAPI   H7X21788   2.876   6.365   5.929  0.5778  0.2755  1.2791
  189SAPI   H7Y21789   2.728   6.322   6.011 -0.7570  0.3874 -0.6648
  189SAPI   C3821790   2.798   6.160   5.896 -0.1468 -0.0669  0.8342
  189SAPI   H8X21791   2.747   6.077   5.950 -1.6756 -0.3539 -0.9465
  189SAPI   H8Y21792   2.899   6.121   5.868 -0.6090  0.3042 -1.5294
  189SAPI   C3921793   2.720   6.198   5.772  0.5973 -0.4531  0.9040
  189SAPI   H9X21794   2.789   6.261   5.712 -0.1999 -0.1933  0.2471
  189SAPI   H9Y21795   2.629   6.257   5.793 -0.3240 -2.5692  3.4295
  189SAPI  C31021796   2.671   6.076   5.685  0.3104  0.7274  0.2336
  189SAPI  H10X21797   2.610   6.104   5.597  0.8749  0.3450 -0.2872
  189SAPI  H10Y21798   2.618   6.000   5.745  0.1935  1.2276  0.7811
  189SAPI  C31121799   2.799   5.999   5.625  0.6722  0.0048  0.3355
  189SAPI  H11X21800   2.850   5.939   5.704 -0.0455  0.2283  0.9843
  189SAPI  H11Y21801   2.876   6.062   5.575  1.2678 -0.8862  0.1181
  189SAPI  C31221802   2.755   5.898   5.509 -0.9047 -0.0990 -0.3990
  189SAPI  H12X21803   2.712   5.972   5.439 -2.8889 -0.5125  0.3294
  189SAPI  H12Y21804   2.675   5.830   5.546 -0.0816 -0.5337  0.6578
  189SAPI  C31321805   2.876   5.816   5.462 -0.9940 -1.1342  0.4274
  189SAPI  H13X21806   2.888   5.735   5.537 -2.3897 -0.9921  0.8318
  189SAPI  H13Y21807   2.967   5.880   5.463 -1.6592 -0.0085 -2.2583
  189SAPI  C31421808   2.853   5.754   5.321 -0.9449  0.6734  0.3509
  189SAPI  H14X21809   2.797   5.825   5.256 -0.9124 -0.7964 -1.3550
  189SAPI  H14Y21810   2.788   5.665   5.329  0.0525 -0.0154  0.9905
  189SAPI  C31521811   2.987   5.698   5.264 -0.1019 -0.0627  0.0997
  189SAPI  H15X21812   3.026   5.621   5.333  0.1926  0.6153  0.6961
  189SAPI  H15Y21813   3.049   5.790   5.254  0.8329 -0.8533 -2.1684
  189SAPI  C31621814   2.971   5.628   5.128 -0.6141  0.1976 -0.2926
  189SAPI  H16X21815   2.922   5.700   5.059 -0.9203  0.7979  0.5274
  189SAPI  H16Y21816   2.895   5.547   5.134  0.9679 -1.2820  0.5325
  189SAPI  C31721817   3.097   5.570   5.070 -0.2282  0.5322  0.5986
  189SAPI  H17X21818   3.137   5.495   5.141 -2.2636  0.0465  1.2972
  189SAPI  H17Y21819   3.179   5.645   5.076 -0.9310  1.3434  0.3791
  189SAPI  C31821820   3.083   5.503   4.930  0.0826  0.5533 -0.0366
  189SAPI  H18X21821   3.022   5.411   4.938  0.2670  0.4933  0.8008
  189SAPI  H18Y21822   3.186   5.475   4.898 -0.2380  2.2194 -2.9129
  189SAPI  H18Z21823   3.043   5.570   4.851 -1.1987  0.9817  0.9377
  190SAPI   C1221824   4.933   6.283   6.381 -0.1015 -0.3200  0.0488
  190SAPI    H221825   4.887   6.294   6.280 -2.8308  0.6864  1.2777
  190SAPI    O221826   4.934   6.149   6.430  0.2701 -0.3893 -0.0471
  190SAPI   HO221827   4.848   6.107   6.419  0.8083 -1.3887 -0.5945
  190SAPI   C1321828   5.074   6.332   6.370  0.0369  0.1940  0.2127
  190SAPI    H321829   5.077   6.441   6.349  0.5696 -0.1558 -1.6043
  190SAPI    O321830   5.144   6.268   6.263  0.1541 -0.2575  1.3304
  190SAPI   HO321831   5.143   6.175   6.286 -2.9149 -0.0827  2.3975
  190SAPI   C1421832   5.145   6.304   6.501  0.1015  0.2419 -0.5882
  190SAPI    H421833   5.170   6.196   6.511 -2.3693 -0.2114  1.7654
  190SAPI    O421834   5.274   6.374   6.508 -0.1405  0.1682  0.4660
  190SAPI   HO421835   5.264   6.463   6.475 -0.6319  1.1463  3.0130
  190SAPI   C1521836   5.059   6.328   6.624  0.1655  0.1048  0.4670
  190SAPI    H521837   5.084   6.432   6.654 -2.9811  1.2182 -0.2824
  190SAPI    O521838   5.100   6.247   6.734  0.2553  0.5603  0.1068
  190SAPI   HO521839   5.053   6.278   6.811  0.8187 -0.6649  0.9833
  190SAPI   C1621840   4.906   6.349   6.610  0.3048 -0.5151  0.2765
  190SAPI    H621841   4.862   6.254   6.646  2.1470 -0.2061  3.8075
  190SAPI    O621842   4.859   6.448   6.706 -0.8806 -0.1619  0.6066
  190SAPI   HO621843   4.800   6.503   6.655 -0.0490  0.7879  0.6240
  190SAPI   C1121844   4.857   6.378   6.474  0.3944  0.2685 -0.1962
  190SAPI    H121845   4.870   6.478   6.427 -1.4693  0.3166 -0.6942
  190SAPI     P21846   4.599   6.428   6.511 -0.1670 -0.1096 -0.0221
  190SAPI   O1321847   4.645   6.540   6.595 -0.4317 -0.1282 -0.1932
  190SAPI   O1421848   4.504   6.336   6.577 -0.2531  0.2252 -0.2543
  190SAPI   O1221849   4.722   6.336   6.466  0.5284 -0.1281 -0.5154
  190SAPI   O1121850   4.527   6.476   6.379 -0.8807 -0.8160 -0.1310
  190SAPI    C121851   4.584   6.579   6.312 -0.4508  0.3655  0.6750
  190SAPI    HA21852   4.500   6.630   6.261 -1.5956 -1.3207  0.8049
  190SAPI    HB21853   4.639   6.648   6.380  0.1462 -1.3962  2.0697
  190SAPI    C221854   4.672   6.523   6.191  0.1162 -0.1252 -0.1812
  190SAPI    HS21855   4.763   6.485   6.242 -0.9631 -1.6688  0.6886
  190SAPI   O2121856   4.699   6.626   6.092 -0.2182 -0.5577  0.1157
  190SAPI   C2121857   4.795   6.711   6.130  0.1941  0.7665 -0.2851
  190SAPI   O2221858   4.873   6.701   6.219 -0.2754 -0.5771 -0.7395
  190SAPI   C2221859   4.791   6.830   6.040 -0.2676 -0.7964  0.0894
  190SAPI   H2R21860   4.713   6.816   5.962  0.4339  2.5669 -1.3883
  190SAPI   H2S21861   4.763   6.914   6.106 -0.7291 -1.6732  1.0441
  190SAPI    C321862   4.596   6.406   6.124  0.2246  0.4470  0.0390
  190SAPI    HX21863   4.490   6.438   6.116  0.1680  0.1792 -0.3041
  190SAPI    HY21864   4.591   6.322   6.197  2.0938 -0.6303 -1.0077
  190SAPI   O3121865   4.652   6.344   6.005 -0.1869 -0.2915 -0.2172
  190SAPI   C3121866   4.599   6.385   5.891  0.3925  0.1503 -0.2756
  190SAPI   O3221867   4.530   6.485   5.872  0.3696 -0.5876  0.1351
  190SAPI   C3221868   4.655   6.296   5.778 -0.1270  0.1424  1.1444
  190SAPI   H2X21869   4.629   6.193   5.810  2.3532 -0.7510  0.4893
  190SAPI   H2Y21870   4.765   6.290   5.781 -0.1396  0.1274  1.6389
  190SAPI   C2321871   4.919   6.842   5.962 -0.7607  0.2518 -0.3266
  190SAPI   H3R21872   4.945   6.768   5.883 -0.7613  0.3354 -0.4046
  190SAPI   H3S21873   5.002   6.832   6.035 -0.7595  1.6096 -0.1304
  190SAPI   C2421874   4.933   6.985   5.899 -0.5134 -0.4866 -0.9066
  190SAPI   H4R21875   5.029   6.986   5.844 -0.3171 -0.9388 -0.5754
  190SAPI   H4S21876   4.938   7.042   5.995 -1.9115 -3.9020  1.4125
  190SAPI   C2521877   4.823   7.038   5.812  0.1807 -0.4212  0.0851
  190SAPI   H5R21878   4.751   7.111   5.853  0.4574  0.0741 -0.3001
  190SAPI   C2621879   4.809   7.002   5.689  0.0058  0.0794  0.0902
  190SAPI   H6R21880   4.731   7.049   5.627  0.1582  1.4269  0.8889
  190SAPI   C2721881   4.881   6.898   5.612  0.2990 -0.6677  0.3221
  190SAPI   H7R21882   4.927   6.820   5.678  2.2029  0.0074 -0.1471
  190SAPI   H7S21883   4.971   6.935   5.559 -0.2806 -2.7698 -2.3686
  190SAPI   C2821884   4.791   6.820   5.516  0.2323 -0.3775 -0.2004
  190SAPI   H8R21885   4.699   6.785   5.566  1.8801 -0.9031  2.7323
  190SAPI   C2921886   4.812   6.811   5.384  0.3602 -0.2384 -0.2534
  190SAPI   H9R21887   4.743   6.744   5.331  0.0049  0.2817 -0.4466
  190SAPI  C21021888   4.921   6.876   5.293  0.0978 -0.4670  0.0883
  190SAPI  H10R21889   4.975   6.957   5.346  0.4930 -1.3761  1.1296
  190SAPI  H10S21890   4.870   6.923   5.206  2.5545  1.5572 -0.3964
  190SAPI  C21121891   5.025   6.778   5.252 -0.0279 -0.2245  0.6013
  190SAPI  H11R21892   5.096   6.743   5.328 -1.5205 -1.2659  1.5812
  190SAPI  C21221893   5.036   6.729   5.123 -0.1516 -0.0490 -0.5931
  190SAPI  H12R21894   5.115   6.653   5.108 -1.8737 -1.9340 -0.4756
  190SAPI  C21321895   4.950   6.772   5.006 -0.3680 -0.1026  0.1174
  190SAPI  H13R21896   4.895   6.868   5.009  0.3131  0.3158 -0.6031
  190SAPI  H13S21897   4.867   6.697   5.004  0.4573 -1.0369 -0.0094
  190SAPI  C21421898   5.032   6.782   4.884  0.0891  0.1456  0.7615
  190SAPI  H14R21899   5.103   6.864   4.866 -0.0677  0.3172  0.9081
  190SAPI  C21521900   5.061   6.679   4.796 -0.3371 -0.0301 -0.8757
  190SAPI  H15R21901   5.107   6.708   4.701  1.4467 -0.6534 -0.2306
  190SAPI  C21621902   4.999   6.539   4.805 -0.7352 -0.0184  0.5938
  190SAPI  H16R21903   4.932   6.519   4.891  0.6805  1.7038  2.1583
  190SAPI  H16S21904   5.072   6.457   4.787 -3.1325 -2.2130  0.2734
  190SAPI  C21721905   4.896   6.513   4.688  0.5813 -0.2089  0.0702
  190SAPI  H17R21906   4.943   6.540   4.591 -1.1774  1.8278 -0.3090
  190SAPI  H17S21907   4.804   6.571   4.712  0.6014 -0.1425 -0.0110
  190SAPI  C21821908   4.863   6.360   4.699 -0.2668 -0.4115  0.5175
  190SAPI  H18R21909   4.813   6.342   4.796  0.3062  0.5485  1.0034
  190SAPI  H18S21910   4.960   6.307   4.686 -1.0912 -1.2916 -3.7697
  190SAPI  C21921911   4.767   6.316   4.585 -0.4867 -0.3135 -0.8552
  190SAPI  H19R21912   4.685   6.391   4.584  2.0121  2.5849 -2.6559
  190SAPI  H19S21913   4.725   6.213   4.597 -1.6054  0.2391  0.1663
  190SAPI  C22021914   4.820   6.331   4.448  0.0819 -0.4478  0.0150
  190SAPI  H20R21915   4.751   6.287   4.372 -0.6264  1.1632 -0.3071
  190SAPI  H20S21916   4.916   6.278   4.433  0.3229 -0.1692  0.5458
  190SAPI  H20T21917   4.851   6.436   4.431  1.4043 -0.7941  0.1991
  190SAPI   C3321918   4.593   6.333   5.634 -0.7865  0.3258 -0.0187
  190SAPI   H3X21919   4.641   6.429   5.601  1.7451 -1.1165 -0.8704
  190SAPI   H3Y21920   4.486   6.359   5.644 -1.1158 -1.0515  0.1256
  190SAPI   C3421921   4.631   6.214   5.544 -0.0639  0.1457  0.3439
  190SAPI   H4X21922   4.578   6.124   5.583  1.2952 -0.3160  1.1875
  190SAPI   H4Y21923   4.741   6.199   5.545 -0.2855 -1.7080  0.8835
  190SAPI   C3521924   4.583   6.236   5.405 -0.9632 -0.2571  0.9367
  190SAPI   H5X21925   4.633   6.329   5.371 -0.3593 -1.1982 -0.8773
  190SAPI   H5Y21926   4.474   6.260   5.411 -0.5987  2.3116 -1.1126
  190SAPI   C3621927   4.608   6.116   5.309 -0.0425  0.7597  0.3744
  190SAPI   H6X21928   4.562   6.027   5.357  0.5187 -0.3630 -1.1153
  190SAPI   H6Y21929   4.716   6.100   5.289 -0.2373 -0.8990  0.5505
  190SAPI   C3721930   4.552   6.145   5.163 -0.3314  0.3139 -0.7143
  190SAPI   H7X21931   4.595   6.244   5.135 -0.7150  0.9207  0.7253
  190SAPI   H7Y21932   4.441   6.153   5.158 -0.3617  1.0400  0.4565
  190SAPI   C3821933   4.615   6.037   5.068 -0.1041 -0.4392  0.2075
  190SAPI   H8X21934   4.561   5.941   5.082 -0.4590 -0.2381  0.2267
  190SAPI   H8Y21935   4.720   6.025   5.101  0.0932 -1.3589 -0.6880
  190SAPI   C3921936   4.598   6.073   4.916  0.5184 -0.3257  0.2244
  190SAPI   H9X21937   4.660   6.161   4.891 -0.5667  0.7825  1.2809
  190SAPI   H9Y21938   4.491   6.096   4.895  1.0881  0.9042 -1.5774
  190SAPI  C31021939   4.644   5.957   4.819 -0.0571 -1.5133  0.0221
  190SAPI  H10X21940   4.591   5.980   4.724  0.2866 -2.0861 -0.3156
  190SAPI  H10Y21941   4.619   5.860   4.866 -2.1087 -1.9264 -1.7737
  190SAPI  C31121942   4.794   5.965   4.798 -0.8596  0.2751  0.1603
  190SAPI  H11X21943   4.842   5.931   4.892 -0.0268  2.4474  0.5840
  190SAPI  H11Y21944   4.833   6.068   4.783  1.6185 -0.5192  0.6058
  190SAPI  C31221945   4.860   5.881   4.684  0.1127  0.2990  0.6364
  190SAPI  H12X21946   4.967   5.905   4.669 -0.2779  0.6476 -2.3603
  190SAPI  H12Y21947   4.810   5.912   4.590 -0.9208  0.5709  1.2579
  190SAPI  C31321948   4.830   5.732   4.702 -0.1927  0.1654  0.1288
  190SAPI  H13X21949   4.731   5.717   4.750 -0.7267  0.9258 -0.6951
  190SAPI  H13Y21950   4.906   5.692   4.772  1.5865 -0.5026 -2.0750
  190SAPI  C31421951   4.822   5.649   4.572 -0.2405 -0.5976  0.4456
  190SAPI  H14X21952   4.920   5.651   4.520  0.4042 -1.6313  1.5857
  190SAPI  H14Y21953   4.745   5.689   4.502  1.6776 -0.5472 -1.7676
  190SAPI  C31521954   4.803   5.498   4.611 -0.1672 -0.0097 -0.8017
  190SAPI  H15X21955   4.701   5.496   4.656 -0.1174 -0.1791 -0.6947
  190SAPI  H15Y21956   4.871   5.454   4.687 -0.3429 -1.4471 -1.4536
  190SAPI  C31621957   4.806   5.389   4.503 -0.1690 -0.1847 -0.1229
  190SAPI  H16X21958   4.912   5.385   4.472  0.1349  2.1851  0.4296
  190SAPI  H16Y21959   4.750   5.416   4.410  1.3216  1.5932 -0.5592
  190SAPI  C31721960   4.769   5.251   4.549 -0.7924  0.0957  0.0568
  190SAPI  H17X21961   4.667   5.227   4.587 -0.3798 -2.1734 -0.1159
  190SAPI  H17Y21962   4.836   5.233   4.635  1.3534  3.0928 -0.8390
  190SAPI  C31821963   4.802   5.138   4.442 -0.8949  0.0039 -0.6084
  190SAPI  H18X21964   4.811   5.039   4.491  0.3115 -0.4956 -1.7905
  190SAPI  H18Y21965   4.903   5.156   4.400 -0.6838  1.8848  0.5695
  190SAPI  H18Z21966   4.727   5.146   4.360 -0.2109  1.8702 -1.1042
  191SAPI   C1221967   4.234   4.994   1.948  0.7119  0.1194  0.1290
  191SAPI    H221968   4.315   5.070   1.946  0.4266  0.4136 -1.1518
  191SAPI    O221969   4.132   5.048   1.859  0.0389 -0.6617 -0.4058
  191SAPI   HO221970   4.112   5.139   1.882  2.4069 -0.4159  1.0026
  191SAPI   C1321971   4.289   4.866   1.892  0.6313  0.5151 -0.2270
  191SAPI    H321972   4.352   4.824   1.973  0.8092  2.3134  0.6303
  191SAPI    O321973   4.359   4.879   1.767 -0.0973  0.5828 -0.1324
  191SAPI   HO321974   4.328   4.962   1.729  1.5455  0.6409 -1.4637
  191SAPI   C1421975   4.177   4.765   1.873  0.4456 -0.4439 -0.5181
  191SAPI    H421976   4.099   4.798   1.800  0.1701 -2.2170 -1.0607
  191SAPI    O421977   4.226   4.642   1.831  0.5024  0.7540  0.3905
  191SAPI   HO421978   4.255   4.650   1.740  1.1404  1.0298  0.6136
  191SAPI   C1521979   4.090   4.752   2.011  0.3307 -0.1696 -0.0959
  191SAPI    H521980   4.155   4.688   2.076  0.2264 -2.2873 -1.9525
  191SAPI    O521981   3.975   4.674   1.989 -0.1367 -0.0765 -0.3244
  191SAPI   HO521982   3.928   4.711   1.914 -2.3397 -0.4336  0.7892
  191SAPI   C1621983   4.051   4.883   2.083  0.6142 -0.6140  0.0053
  191SAPI    H621984   3.967   4.938   2.034  1.0096  1.5565  1.5964
  191SAPI    O621985   4.009   4.862   2.214  0.2460  0.1223 -0.2538
  191SAPI   HO621986   4.035   4.938   2.266  0.1840  0.0150 -0.0640
  191SAPI   C1121987   4.167   4.978   2.084 -0.5500 -0.3455 -0.3440
  191SAPI    H121988   4.236   4.930   2.157 -0.3455 -1.3283 -1.1674
  191SAPI     P21989   4.230   5.191   2.227 -0.4471  0.4665  0.1236
  191SAPI   O1321990   4.168   5.321   2.258 -0.2422 -0.6813 -0.0942
  191SAPI   O1421991   4.357   5.191   2.146 -0.0526  0.3919  0.0326
  191SAPI   O1221992   4.120   5.099   2.153 -0.3195  0.1885 -0.1722
  191SAPI   O1121993   4.247   5.106   2.365  0.1483  0.0549  0.0180
  191SAPI    C121994   4.140   5.117   2.464 -0.0412 -0.0008 -0.2745
  191SAPI    HA21995   4.085   5.213   2.451  1.2463  0.9773  1.1560
  191SAPI    HB21996   4.070   5.031   2.455  0.0425 -0.2111  0.8906
  191SAPI    C221997   4.191   5.129   2.615  0.1000  0.7850  0.3650
  191SAPI    HS21998   4.112   5.091   2.684  2.0654 -5.1133 -0.1567
  191SAPI   O2121999   4.232   5.264   2.639 -0.1440  0.3069  0.0066
  191SAPI   C2122000   4.131   5.351   2.663 -0.2870 -0.0856 -0.4100
  191SAPI   O2222001   4.012   5.326   2.673 -0.0818 -0.1019  0.0018
  191SAPI   C2222002   4.183   5.492   2.684 -0.9796 -0.4401  0.2838
  191SAPI   H2R22003   4.294   5.488   2.685 -0.9707 -0.9341 -0.8366
  191SAPI   H2S22004   4.158   5.549   2.592  2.3737 -0.7800 -1.0139
  191SAPI    C322005   4.305   5.024   2.632  0.3972  0.1142 -0.8140
  191SAPI    HX22006   4.378   5.051   2.553  1.6679 -1.1227 -0.1126
  191SAPI    HY22007   4.270   4.920   2.616  0.8655 -0.7194  2.6584
  191SAPI   O3122008   4.376   5.025   2.757 -0.2746  1.1629  0.6888
  191SAPI   C3122009   4.310   4.977   2.855  0.7821  0.0404 -0.2015
  191SAPI   O3222010   4.190   4.947   2.859 -0.0163  0.3881  0.4418
  191SAPI   C3222011   4.385   5.003   2.982 -0.1836  0.1131  0.5548
  191SAPI   H2X22012   4.490   4.976   2.958 -0.6694 -0.8603 -0.5946
  191SAPI   H2Y22013   4.354   4.926   3.056 -3.0870 -0.9660 -1.5907
  191SAPI   C2322014   4.139   5.577   2.803  0.4994 -0.1903 -0.1932
  191SAPI   H3R22015   4.029   5.595   2.791  0.1490 -1.5093  0.8941
  191SAPI   H3S22016   4.200   5.669   2.787  2.3220 -1.2531  0.4057
  191SAPI   C2422017   4.165   5.503   2.938  0.0891  0.0602 -0.1903
  191SAPI   H4R22018   4.269   5.467   2.949  0.2614 -0.6695 -3.4033
  191SAPI   H4S22019   4.106   5.410   2.944 -1.7161  1.2150  1.1450
  191SAPI   C2522020   4.117   5.598   3.054 -0.7208  0.3448  0.5821
  191SAPI   H5R22021   4.139   5.704   3.039 -0.2486  0.1053 -0.5230
  191SAPI   C2622022   4.048   5.557   3.163  0.1997 -0.2508 -0.4194
  191SAPI   H6R22023   4.019   5.637   3.233  2.3720  2.6958 -2.6133
  191SAPI   C2722024   3.995   5.419   3.181 -0.6644  0.8403  0.0893
  191SAPI   H7R22025   4.080   5.351   3.204 -0.3952  1.3190  0.5158
  191SAPI   H7S22026   3.941   5.387   3.089 -1.2934  1.5521  0.2005
  191SAPI   C2822027   3.894   5.416   3.298 -0.0967 -0.2213 -0.0442
  191SAPI   H8R22028   3.797   5.378   3.263  1.0453 -2.9695 -0.4795
  191SAPI   C2922029   3.918   5.436   3.437  0.0067  0.1909  0.2633
  191SAPI   H9R22030   3.831   5.448   3.503 -1.5254 -0.1234 -1.6138
  191SAPI  C21022031   4.036   5.488   3.508  0.4444 -0.0015  0.2661
  191SAPI  H10R22032   4.001   5.531   3.604  1.5453 -3.4167  2.3949
  191SAPI  H10S22033   4.077   5.574   3.451 -3.3558  1.2806 -0.8195
  191SAPI  C21122034   4.144   5.382   3.528 -0.1778  0.0206  0.4110
  191SAPI  H11R22035   4.210   5.365   3.441  0.8187  0.2289  1.1155
  191SAPI  C21222036   4.160   5.304   3.642 -0.3078 -0.2678  1.6041
  191SAPI  H12R22037   4.242   5.231   3.648 -1.5796 -1.7551  1.4409
  191SAPI  C21322038   4.077   5.313   3.768  0.6356 -0.3236 -0.6244
  191SAPI  H13R22039   4.013   5.404   3.760  2.3029  0.8734 -1.0163
  191SAPI  H13S22040   4.138   5.318   3.861  1.6973  1.2665 -1.3545
  191SAPI  C21422041   3.980   5.197   3.772  0.0198  0.3557  0.5304
  191SAPI  H14R22042   3.886   5.220   3.719 -1.2575 -0.3174  2.3811
  191SAPI  C21522043   4.004   5.088   3.847 -0.0953  1.1451  0.7252
  191SAPI  H15R22044   3.929   5.010   3.829  1.0340  0.2971 -0.5000
  191SAPI  C21622045   4.124   5.042   3.929 -0.1120 -0.0435  0.5590
  191SAPI  H16R22046   4.201   5.118   3.952  2.2784 -2.4567  1.0938
  191SAPI  H16S22047   4.170   4.963   3.866 -0.2873 -1.5171  2.1997
  191SAPI  C21722048   4.069   4.983   4.060 -0.3166 -0.7648  0.1075
  191SAPI  H17R22049   4.034   4.878   4.047  0.6597 -1.0832 -0.0702
  191SAPI  H17S22050   3.983   5.045   4.092  0.9810 -0.2087  2.7683
  191SAPI  C21822051   4.160   5.009   4.178 -0.6648 -0.8148  0.3378
  191SAPI  H18R22052   4.186   5.116   4.191 -0.8828 -0.6050 -0.7967
  191SAPI  H18S22053   4.248   4.949   4.147 -1.2762 -0.8673 -1.4218
  191SAPI  C21922054   4.117   4.958   4.320 -1.0658  0.5775 -0.5164
  191SAPI  H19R22055   4.130   4.849   4.333  0.0449  1.0619  3.7749
  191SAPI  H19S22056   4.009   4.982   4.328 -1.4192 -1.2613  0.6841
  191SAPI  C22022057   4.209   5.015   4.430  0.2738 -0.7152 -0.0982
  191SAPI  H20R22058   4.162   5.108   4.467  1.4155 -0.0280 -0.3373
  191SAPI  H20S22059   4.313   5.017   4.392 -0.1443  1.5290 -1.2473
  191SAPI  H20T22060   4.216   4.947   4.518  0.7904 -3.5796 -2.2234
  191SAPI   C3322061   4.371   5.147   3.011  0.5773 -0.1292  0.0158
  191SAPI   H3X22062   4.267   5.187   3.000  1.7332  3.5436  0.9423
  191SAPI   H3Y22063   4.441   5.204   2.947 -0.0875  0.7539  0.0433
  191SAPI   C3422064   4.423   5.161   3.152  0.0444 -0.0499 -0.4470
  191SAPI   H4X22065   4.519   5.110   3.176  0.0719  0.5869  0.9099
  191SAPI   H4Y22066   4.355   5.120   3.229 -1.4881  2.5587 -0.2995
  191SAPI   C3522067   4.443   5.307   3.193 -0.1979  0.5484 -0.1501
  191SAPI   H5X22068   4.343   5.353   3.201  0.5648  2.3103 -0.3656
  191SAPI   H5Y22069   4.498   5.375   3.124 -1.3074  1.6803  0.0546
  191SAPI   C3622070   4.489   5.324   3.336 -0.4840  0.8940  0.6787
  191SAPI   H6X22071   4.568   5.249   3.360 -1.8670 -0.4535  1.1476
  191SAPI   H6Y22072   4.409   5.294   3.406  1.1038 -1.2422  1.6987
  191SAPI   C3722073   4.556   5.460   3.364  0.1972  0.3850 -0.1971
  191SAPI   H7X22074   4.476   5.537   3.359  1.9794  2.6737  2.9416
  191SAPI   H7Y22075   4.630   5.481   3.284  1.2535 -2.5871 -0.1324
  191SAPI   C3822076   4.606   5.466   3.507  0.4567  0.1708  0.2144
  191SAPI   H8X22077   4.663   5.561   3.520  0.9600  0.1487 -1.5549
  191SAPI   H8Y22078   4.682   5.386   3.520  1.4614  0.7343 -1.8827
  191SAPI   C3922079   4.502   5.454   3.617 -0.0265  0.3159 -0.3662
  191SAPI   H9X22080   4.445   5.360   3.603  0.4544 -0.2747  1.4312
  191SAPI   H9Y22081   4.427   5.536   3.611 -2.3590 -1.6480  0.3779
  191SAPI  C31022082   4.552   5.439   3.763 -0.4403  0.0059 -0.1480
  191SAPI  H10X22083   4.606   5.343   3.780 -2.9641 -1.4383  0.2030
  191SAPI  H10Y22084   4.457   5.446   3.820  1.7305  2.5057  3.6027
  191SAPI  C31122085   4.650   5.553   3.806  0.2322 -0.0551 -0.5415
  191SAPI  H11X22086   4.621   5.648   3.756  0.5442  0.6107  0.5064
  191SAPI  H11Y22087   4.744   5.529   3.753  0.4102 -0.6655  0.0468
  191SAPI  C31222088   4.673   5.563   3.960  0.0834 -0.9276 -0.0261
  191SAPI  H12X22089   4.781   5.587   3.972 -0.0813 -0.0818 -0.2083
  191SAPI  H12Y22090   4.646   5.464   4.003  1.8552 -2.5619 -2.4384
  191SAPI  C31322091   4.600   5.679   4.031 -0.2314 -0.6022  0.1093
  191SAPI  H13X22092   4.499   5.648   4.066 -0.4346  1.3116  1.3652
  191SAPI  H13Y22093   4.585   5.759   3.955  1.4055 -0.3598  0.0210
  191SAPI  C31422094   4.677   5.735   4.144 -0.3581 -0.0475 -0.1631
  191SAPI  H14X22095   4.686   5.658   4.224 -1.0071 -0.8670 -0.8530
  191SAPI  H14Y22096   4.617   5.819   4.185 -1.4735 -0.5332 -0.7707
  191SAPI  C31522097   4.812   5.804   4.114  0.3579  0.9189 -0.0616
  191SAPI  H15X22098   4.776   5.875   4.036 -3.4605  1.7149  2.1364
  191SAPI  H15Y22099   4.894   5.740   4.077  0.6871  0.8094  0.8376
  191SAPI  C31622100   4.872   5.892   4.224  0.5473  0.4442 -0.8999
  191SAPI  H16X22101   4.900   5.832   4.313  1.3274 -0.3367 -1.6567
  191SAPI  H16Y22102   4.815   5.985   4.249 -0.9355 -0.7259  0.2420
  191SAPI  C31722103   5.010   5.942   4.172 -0.1952 -0.3431  0.5691
  191SAPI  H17X22104   4.994   6.009   4.085  0.1163 -2.0007 -0.8295
  191SAPI  H17Y22105   5.056   5.848   4.134  1.5321  0.6018  0.2234
  191SAPI  C31822106   5.105   5.990   4.284  0.0515 -0.3523  0.2938
  191SAPI  H18X22107   5.045   6.041   4.362  1.1248 -0.7386  1.3897
  191SAPI  H18Y22108   5.188   6.057   4.253  0.1230 -0.2397  0.7261
  191SAPI  H18Z22109   5.149   5.905   4.341  1.4881  0.6448  0.7179
  192SAPI   C1222110   6.068   2.901   1.902  0.1113  0.3935 -0.6375
  192SAPI    H222111   6.151   2.829   1.920  0.3578  1.2650  2.2247
  192SAPI    O222112   6.092   2.975   1.773  0.3228  0.2636 -0.3887
  192SAPI   HO222113   6.136   2.917   1.710 -1.1176 -0.0876 -1.1225
  192SAPI   C1322114   5.945   2.819   1.907  1.0783 -0.1522  0.4987
  192SAPI    H322115   5.955   2.769   2.006 -2.5345 -1.1731  0.5187
  192SAPI    O322116   5.950   2.728   1.794  0.2380 -0.3178  0.1322
  192SAPI   HO322117   6.013   2.762   1.731  0.4509 -2.6073 -1.0117
  192SAPI   C1422118   5.820   2.907   1.909  0.2603  0.5179  0.4849
  192SAPI    H422119   5.814   2.938   1.803 -0.6569 -0.1088  0.3382
  192SAPI    O422120   5.703   2.828   1.949 -0.2398 -0.3048  0.3508
  192SAPI   HO422121   5.628   2.865   1.901 -1.1013 -1.6288  0.6321
  192SAPI   C1522122   5.823   3.045   1.977  0.5232 -0.2460 -0.1295
  192SAPI    H522123   5.767   3.034   2.073 -0.4569 -1.2926 -0.7986
  192SAPI    O522124   5.742   3.138   1.901 -0.7455 -0.8517 -0.0804
  192SAPI   HO522125   5.734   3.225   1.941  2.4635  1.0423 -3.0180
  192SAPI   C1622126   5.961   3.103   2.019  0.1533  0.0768  0.4124
  192SAPI    H622127   5.998   3.168   1.937  0.4118  1.1275  1.3368
  192SAPI    O622128   5.954   3.185   2.138 -0.1343  0.2488  0.0941
  192SAPI   HO622129   5.881   3.246   2.129  1.0593  1.5776 -0.8994
  192SAPI   C1122130   6.068   2.996   2.027  0.3066  0.0431 -0.6417
  192SAPI    H122131   6.055   2.928   2.114  3.2454 -1.0172 -0.9175
  192SAPI     P22132   6.304   2.997   2.149 -0.0060 -0.2429  0.1313
  192SAPI   O1322133   6.427   3.080   2.124  1.0055 -0.2190 -0.1704
  192SAPI   O1422134   6.320   2.850   2.134  0.2101 -0.3344  0.4108
  192SAPI   O1222135   6.198   3.050   2.039  0.3009 -0.1895 -0.1768
  192SAPI   O1122136   6.240   3.034   2.291 -0.0708 -0.0358  0.1545
  192SAPI    C122137   6.294   3.130   2.374  0.6570  0.2536  0.2669
  192SAPI    HA22138   6.318   3.225   2.322  1.1264  0.7563  1.3646
  192SAPI    HB22139   6.224   3.157   2.455 -1.1764  0.5730 -1.3562
  192SAPI    C222140   6.428   3.083   2.433 -0.1115  0.3748 -0.3409
  192SAPI    HS22141   6.488   3.049   2.345  1.4062 -0.0489  0.8134
  192SAPI   O2122142   6.391   2.975   2.524 -0.7913 -0.1865  0.8142
  192SAPI   C2122143   6.488   2.892   2.544  0.4662  0.2320 -0.4671
  192SAPI   O2222144   6.598   2.895   2.491 -0.6280 -0.3208  0.1876
  192SAPI   C2222145   6.443   2.795   2.646  0.0716 -0.1721 -0.2785
  192SAPI   H2R22146   6.456   2.847   2.744  0.3010 -1.3665  0.3366
  192SAPI   H2S22147   6.336   2.773   2.627  0.5806 -1.8355 -1.3548
  192SAPI    C322148   6.500   3.217   2.499 -0.1025 -0.2060  0.1013
  192SAPI    HX22149   6.526   3.293   2.422  1.0775  0.0475  0.7161
  192SAPI    HY22150   6.598   3.183   2.538 -0.5814 -0.5484  1.0271
  192SAPI   O3122151   6.411   3.287   2.595 -0.1198  0.5112 -0.4042
  192SAPI   C3122152   6.443   3.276   2.719 -0.1768  0.3186  0.0759
  192SAPI   O3222153   6.524   3.190   2.758 -0.0016 -0.2160 -0.1965
  192SAPI   C3222154   6.381   3.385   2.811 -0.1870  0.4299  0.2750
  192SAPI   H2X22155   6.274   3.360   2.822  0.1949 -1.5530 -0.2662
  192SAPI   H2Y22156   6.401   3.483   2.763  1.6255 -1.1278 -2.3738
  192SAPI   C2322157   6.525   2.663   2.660 -0.4639 -0.2528  0.3337
  192SAPI   H3R22158   6.548   2.615   2.563 -3.3591 -2.4081  0.5670
  192SAPI   H3S22159   6.464   2.580   2.701 -0.4189 -1.2902 -1.5644
  192SAPI   C2422160   6.654   2.694   2.728  0.2035 -0.0861 -0.3324
  192SAPI   H4R22161   6.618   2.729   2.827 -0.7121 -1.3807 -0.1707
  192SAPI   H4S22162   6.721   2.770   2.682  3.4715 -1.2988  2.0340
  192SAPI   C2522163   6.735   2.566   2.739  0.6220  0.2591 -0.3470
  192SAPI   H5R22164   6.770   2.516   2.648 -2.1345  1.1465 -2.0355
  192SAPI   C2622165   6.773   2.518   2.858 -0.4876 -0.2336  0.3595
  192SAPI   H6R22166   6.846   2.436   2.859  0.5528  0.6190 -1.4521
  192SAPI   C2722167   6.747   2.577   2.999  0.1883  0.1235  0.8828
  192SAPI   H7R22168   6.668   2.655   3.003  0.8831  0.8156  1.4623
  192SAPI   H7S22169   6.836   2.639   3.023  0.1680  1.8494 -2.8254
  192SAPI   C2822170   6.710   2.476   3.107 -0.6589  0.0763  0.0997
  192SAPI   H8R22171   6.624   2.412   3.082 -0.3348 -0.4592  0.3480
  192SAPI   C2922172   6.768   2.456   3.227 -0.0333 -0.8553 -0.0423
  192SAPI   H9R22173   6.713   2.387   3.292  0.0365 -1.6118 -0.7758
  192SAPI  C21022174   6.886   2.526   3.299  1.0200  0.1736 -0.1521
  192SAPI  H10R22175   6.881   2.515   3.410  0.4797  0.7782 -0.1141
  192SAPI  H10S22176   6.877   2.636   3.290  0.6144  0.4232  2.4701
  192SAPI  C21122177   7.022   2.483   3.250  0.5062  0.7249  0.3502
  192SAPI  H11R22178   7.038   2.467   3.142 -0.5704 -0.3247  0.3240
  192SAPI  C21222179   7.131   2.463   3.332  0.3395 -0.1054 -0.2325
  192SAPI  H12R22180   7.225   2.424   3.292  2.1799  1.5742  2.1830
  192SAPI  C21322181   7.130   2.474   3.483  0.3933  0.2474 -0.1192
  192SAPI  H13R22182   7.032   2.487   3.533  1.1378  0.9085  1.2437
  192SAPI  H13S22183   7.181   2.569   3.508 -0.7673  0.5677  1.0988
  192SAPI  C21422184   7.197   2.368   3.556  0.0686 -1.2210 -0.4750
  192SAPI  H14R22185   7.175   2.272   3.508 -0.9174 -1.3026  0.1169
  192SAPI  C21522186   7.292   2.378   3.652  0.4663  0.0427 -0.4925
  192SAPI  H15R22187   7.325   2.288   3.705  0.1159 -0.2963 -0.8407
  192SAPI  C21622188   7.357   2.500   3.714  0.1262  0.1415 -0.1373
  192SAPI  H16R22189   7.335   2.595   3.660  1.2877  0.9973  0.8344
  192SAPI  H16S22190   7.467   2.487   3.707 -0.1845 -1.9641 -2.7245
  192SAPI  C21722191   7.303   2.497   3.863 -0.8229  0.0620 -0.2042
  192SAPI  H17R22192   7.348   2.411   3.918  1.6373  0.4411 -1.4916
  192SAPI  H17S22193   7.193   2.488   3.871 -0.8614  0.9040  0.3482
  192SAPI  C21822194   7.368   2.617   3.938 -0.1091 -0.6850 -0.5166
  192SAPI  H18R22195   7.476   2.604   3.918  0.0702 -0.1213  0.0549
  192SAPI  H18S22196   7.361   2.608   4.049 -2.2064 -0.7827 -0.6061
  192SAPI  C21922197   7.309   2.746   3.898 -0.2408  0.1714  0.7065
  192SAPI  H19R22198   7.214   2.757   3.954 -0.0644 -0.1563  1.0780
  192SAPI  H19S22199   7.292   2.742   3.789 -0.5351 -3.2839  0.7799
  192SAPI  C22022200   7.402   2.867   3.930  0.2748  0.0685 -0.2918
  192SAPI  H20R22201   7.421   2.876   4.039 -0.7677 -0.0349 -0.0940
  192SAPI  H20S22202   7.348   2.960   3.901  0.8703  0.3582 -0.4969
  192SAPI  H20T22203   7.497   2.863   3.872 -0.7684 -2.1336 -1.9978
  192SAPI   C3322204   6.433   3.394   2.954 -0.3608 -0.0823 -0.2196
  192SAPI   H3X22205   6.541   3.421   2.946  0.3940 -1.9066  2.3673
  192SAPI   H3Y22206   6.423   3.298   3.009  1.8952  0.4208  1.2254
  192SAPI   C3422207   6.359   3.503   3.039 -0.1025  0.2166 -0.3158
  192SAPI   H4X22208   6.253   3.476   3.058 -0.1795  0.9548  0.3485
  192SAPI   H4Y22209   6.360   3.596   2.979 -1.9226 -0.1785 -1.0110
  192SAPI   C3522210   6.413   3.540   3.172 -0.4039 -0.2766 -0.4062
  192SAPI   H5X22211   6.364   3.632   3.212  0.8188  0.3268 -0.2391
  192SAPI   H5Y22212   6.523   3.554   3.157 -0.6920  1.0769 -1.5337
  192SAPI   C3622213   6.393   3.432   3.281 -0.9248  0.2516 -0.1913
  192SAPI   H6X22214   6.448   3.338   3.260  0.8451  1.0012  0.8916
  192SAPI   H6Y22215   6.288   3.395   3.278 -0.9700 -0.0356  2.6941
  192SAPI   C3722216   6.446   3.487   3.415  0.3420  0.1425  0.2489
  192SAPI   H7X22217   6.386   3.579   3.435  1.2459  0.3158  2.3985
  192SAPI   H7Y22218   6.549   3.526   3.401 -0.9187  3.2559 -1.4852
  192SAPI   C3822219   6.430   3.386   3.523  0.8115  0.0298  0.0267
  192SAPI   H8X22220   6.489   3.295   3.502 -0.3807 -0.7507 -0.0105
  192SAPI   H8Y22221   6.323   3.358   3.530  0.7213  0.2874 -0.2442
  192SAPI   C3922222   6.457   3.441   3.664  0.5749 -0.4013 -0.6434
  192SAPI   H9X22223   6.384   3.523   3.683  1.2398 -0.0926  0.6416
  192SAPI   H9Y22224   6.560   3.482   3.666  0.3833  0.0493  0.9028
  192SAPI  C31022225   6.428   3.350   3.792  0.1924 -0.4320 -0.0676
  192SAPI  H10X22226   6.515   3.282   3.795  0.3868 -0.1845 -0.1145
  192SAPI  H10Y22227   6.338   3.291   3.763  0.6456 -0.6158 -1.1475
  192SAPI  C31122228   6.424   3.434   3.918 -0.1836  0.0554  0.3320
  192SAPI  H11X22229   6.331   3.494   3.905 -1.4730 -1.7886  0.7015
  192SAPI  H11Y22230   6.506   3.509   3.919 -2.7139  3.0160  0.2711
  192SAPI  C31222231   6.406   3.354   4.045 -0.4085  0.7616 -0.3432
  192SAPI  H12X22232   6.395   3.412   4.138 -2.1367  1.4060 -0.8967
  192SAPI  H12Y22233   6.497   3.292   4.062 -0.7467  0.4153  0.2467
  192SAPI  C31322234   6.281   3.256   4.052  0.3739 -0.3294  0.0053
  192SAPI  H13X22235   6.283   3.190   3.963  0.8659 -0.9202  0.4490
  192SAPI  H13Y22236   6.184   3.307   4.036 -1.2231 -3.1956  0.0700
  192SAPI  C31422237   6.281   3.162   4.181 -0.0422 -0.3907  0.0846
  192SAPI  H14X22238   6.260   3.239   4.259  0.3190 -0.1315 -0.0675
  192SAPI  H14Y22239   6.384   3.119   4.184  0.6953  1.3067  0.3184
  192SAPI  C31522240   6.188   3.043   4.200  0.1775 -1.3377  0.0554
  192SAPI  H15X22241   6.212   2.973   4.117  1.4757 -2.5096  1.3571
  192SAPI  H15Y22242   6.083   3.081   4.199  0.2089 -1.1733  1.3297
  192SAPI  C31622243   6.197   2.976   4.339 -0.5328  0.2271  0.7158
  192SAPI  H16X22244   6.170   3.048   4.419  0.7622 -0.1419  1.5001
  192SAPI  H16Y22245   6.297   2.932   4.357 -0.0674  1.0048  0.1104
  192SAPI  C31722246   6.088   2.867   4.356 -0.0434 -0.1859 -0.2559
  192SAPI  H17X22247   5.982   2.900   4.352 -0.1440  0.2110  3.1460
  192SAPI  H17Y22248   6.094   2.846   4.465  0.4399  1.5304  0.0789
  192SAPI  C31822249   6.123   2.744   4.274 -0.1364  0.3678  0.4229
  192SAPI  H18X22250   6.226   2.703   4.287 -0.4048  0.1819  2.1547
  192SAPI  H18Y22251   6.122   2.792   4.173  1.3493  3.0492  1.5706
  192SAPI  H18Z22252   6.056   2.656   4.276  0.7521 -0.3909 -0.8749
  193SOD    SOD22253   6.235   4.491   8.535 -0.3730 -0.1238  0.0410
  194SOD    SOD22254   3.284   5.993   0.035 -0.2170 -0.5610  0.0138
  195SOD    SOD22255   1.886   6.410   2.390 -0.0813  0.3443 -0.4084
  196SOD    SOD22256   5.413   0.844   8.494 -0.2503  0.2516 -0.0711
  197SOD    SOD22257   3.057   2.655   7.022 -0.3020 -0.3554  0.5969
  198SOD    SOD22258   6.655   3.889   7.823 -0.0733 -0.4318 -0.4031
  199SOD    SOD22259   0.439   1.224   6.364 -0.2879  0.0172 -0.1773
  200SOD    SOD22260   6.664   1.174   2.183 -0.6581  0.2147  0.1570
  201SOD    SOD22261   2.482   3.258   7.408 -0.5684 -0.1468  0.3044
  202SOD    SOD22262   5.311   1.995   0.975  0.1769 -0.2932  0.0635
  203SOD    SOD22263   3.858   4.753   7.369 -0.1436 -0.3035  0.1110
  204SOD    SOD22264   5.920   1.964   1.078 -0.1228  0.2159  0.2122
  205SOD    SOD22265   3.522   5.912   6.882  0.4363  0.1506 -0.0268
  206SOD    SOD22266   2.950   5.141   7.865  0.0082 -0.1669  0.1959
  207SOD    SOD22267   6.549   2.453   0.097  0.2790 -0.4011 -0.2358
  208SOD    SOD22268   5.204   1.962   7.671  0.1689 -0.0839  0.0362
  209SOD    SOD22269   0.263   1.369   7.018 -0.0430  0.0312 -0.1570
  210SOD    SOD22270   2.583   5.887   1.961 -0.2457  0.3399  0.1771
  211SOD    SOD22271   2.231   0.953   7.402  0.0875  0.3012 -0.2186
  212SOD    SOD22272   3.835   3.175   6.950 -0.2001  0.0418 -1.1477
  213SOD    SOD22273   1.056   6.477   7.552  0.5219  0.2278  0.0678
  214SOD    SOD22274   3.080   3.046   2.323 -0.2832 -0.0611  0.7016
  215SOD    SOD22275   5.413   3.940   2.016 -0.2970  0.3691 -0.3347
  216SOD    SOD22276   2.718   0.941   2.421  0.5930  0.2846  0.0718
  217SOD    SOD22277   1.805   2.989   0.911 -0.3280  0.2798  0.7694
  218SOD    SOD22278   0.805   2.020   6.901  0.2751 -0.0536 -0.1035
  219SOD    SOD22279   1.069   5.309   2.265  0.2293  0.1378 -0.0279
  220SOD    SOD22280   3.739   0.603   8.038 -0.0860 -0.0264  0.1653
  221SOD    SOD22281   0.920   3.464   6.279 -0.4061  0.4338 -0.0580
  222SOD    SOD22282   2.842   0.537   6.706 -0.0431 -0.5041  0.3875
  223SOD    SOD22283   2.746   2.042   1.257  0.5156 -0.2234  0.1521
  224SOD    SOD22284   4.715   4.538   0.456  0.0134  0.1494 -0.1340
  225SOD    SOD22285   2.463   2.538   1.431  0.1954 -0.4440 -0.1871
  226SOD    SOD22286   0.648   4.425   6.481  0.0110 -0.3452 -0.7385
  227SOD    SOD22287   3.597   3.476   1.963 -0.0621 -0.3248 -0.2118
  228SOD    SOD22288   1.623   5.292   1.046 -0.1553 -0.4645 -0.1064
  229SOD    SOD22289   0.015   5.494   1.505  0.0560  0.0028 -0.0984
  230SOD    SOD22290   5.332   4.833   7.542  0.0349 -0.1100  0.4949
  231SOD    SOD22291   2.021   4.071   2.315  0.0725 -0.1443  0.1010
  232SOD    SOD22292   3.933   4.254   1.869  0.1153  0.9301  0.2767
  233SOD    SOD22293   2.867   3.149   1.669 -0.4287 -0.9239  0.1978
  234CLA    CLA22294   6.666   3.865   7.314 -0.0164 -0.0343 -0.4228
  235CLA    CLA22295   5.485   2.767   0.957 -0.3178 -0.4341 -0.3324
  236CLA    CLA22296   5.486   5.087   0.060 -0.2538 -0.0919  0.3247
  237CLA    CLA22297   2.460   2.823   1.329  0.0064 -0.0840 -0.4259
  238CLA    CLA22298   1.448   5.584   1.975 -0.1285  0.0863  0.0672
  239CLA    CLA22299   0.586   1.202   7.594  0.2151 -0.1612 -0.5996
  240CLA    CLA22300   1.415   6.644   7.707 -0.3858  0.1796 -0.1799
  241CLA    CLA22301   2.920   4.642   8.010 -0.0334  0.1775 -0.0271
  242CLA    CLA22302   1.306   5.145   0.732  0.4113 -0.3445 -0.1036
  243CLA    CLA22303   3.218   1.702   0.300 -0.2152  0.2312 -0.3676
  244CLA    CLA22304   5.053   6.216   0.367  0.2396 -0.1083  0.2439
  245CLA    CLA22305   6.192   0.535   8.426  0.0130 -0.3806  0.0518
  246CLA    CLA22306   4.526   6.377   7.831 -0.0489  0.0020  0.0487
  247CLA    CLA22307   1.272   3.415   7.965  0.0641  0.0220 -0.2898
  248CLA    CLA22308   6.654   4.572   8.357  0.1522  0.1607  0.1944
  249CLA    CLA22309   5.300   2.386   1.292 -0.0093 -0.1475  0.5548
  250CLA    CLA22310   3.591   4.345   0.359  0.2361  0.1243  0.0378
  251TIP3   OH222311   5.118   6.726   0.845 -0.4646 -0.1893 -0.2314
  251TIP3    H122312   5.150   6.816   0.851  1.5382 -0.8427 -0.4100
  251TIP3    H222313   5.189   6.673   0.882 -2.5406 -1.5488  2.0944
  252TIP3   OH222314   5.497   2.975   1.240  0.3700  0.1549 -0.3518
  252TIP3    H122315   5.487   2.905   1.175  0.4018 -1.1705  1.0137
  252TIP3    H222316   5.513   2.929   1.323  1.4280  1.8046  0.4248
  253TIP3   OH222317   1.713   4.264   1.607  1.1252  0.0151  0.4794
  253TIP3    H122318   1.779   4.308   1.553 -1.0510  1.3735 -1.2553
  253TIP3    H222319   1.744   4.277   1.697  2.2923  2.2244 -0.1513
  254TIP3   OH222320   1.550   1.672   8.189  0.1925  0.1252 -0.4333
  254TIP3    H122321   1.562   1.579   8.168 -1.5730 -0.3238  0.3648
  254TIP3    H222322   1.506   1.708   8.112  0.9692  0.3367 -0.7847
  255TIP3   OH222323   6.395   6.312   6.292  0.4018 -0.6891  0.1060
  255TIP3    H122324   6.321   6.328   6.233 -0.2007 -2.4023  0.3459
  255TIP3    H222325   6.412   6.397   6.332 -1.2596 -0.1896 -0.1609
  256TIP3   OH222326   1.907   1.128   1.723  0.3013  0.1612 -0.2779
  256TIP3    H122327   1.972   1.194   1.747  0.8682  0.1106 -1.5885
  256TIP3    H222328   1.942   1.046   1.758  0.6092  0.2418 -0.3921
  257TIP3   OH222329   4.070   6.872   0.133  0.4262  0.7514  0.9322
  257TIP3    H122330   4.054   6.942   0.197  0.2017  2.3940 -0.8462
  257TIP3    H222331   4.030   6.903   0.052 -0.9151 -2.0747  0.3841
  258TIP3   OH222332   5.400   4.040   2.232  0.2622 -0.3082 -0.4713
  258TIP3    H122333   5.332   4.085   2.281 -0.6185 -0.5824 -1.4194
  258TIP3    H222334   5.469   4.023   2.297 -1.8490 -2.8383  1.3221
  259TIP3   OH222335   2.236   5.723   8.213  0.4883  0.4192 -0.1578
  259TIP3    H122336   2.323   5.761   8.230 -0.1035  1.7379  0.0363
  259TIP3    H222337   2.199   5.709   8.300  0.6101 -0.4438 -0.2329
  260TIP3   OH222338   1.513   6.290   8.259  0.1717 -0.2203  0.3875
  260TIP3    H122339   1.606   6.308   8.251  0.5912 -1.6435  1.6906
  260TIP3    H222340   1.479   6.299   8.170  1.5792  0.0899 -0.1353
  261TIP3   OH222341   5.676   1.383   7.325  0.3801 -0.1461  0.0703
  261TIP3    H122342   5.670   1.479   7.332  0.4009 -0.2196  1.2439
  261TIP3    H222343   5.649   1.351   7.411  1.5182 -1.1520  0.0766
  262TIP3   OH222344   6.532   0.631   1.946 -0.4794  0.1094  0.8014
  262TIP3    H122345   6.592   0.619   2.020  0.6247  2.5979  0.4363
  262TIP3    H222346   6.445   0.618   1.984  0.0505  1.3513  2.6208
  263TIP3   OH222347   1.450   5.219   7.620  0.2035  0.0729  0.3805
  263TIP3    H122348   1.445   5.139   7.567  0.7550 -0.3099  0.8989
  263TIP3    H222349   1.391   5.280   7.576  0.1142 -0.4723 -0.2744
  264TIP3   OH222350   1.028   3.253   6.189 -0.2757 -0.0243  0.0497
  264TIP3    H122351   1.120   3.271   6.208 -0.7536  0.5473  2.0880
  264TIP3    H222352   1.030   3.176   6.132  1.4412 -0.6553  0.8859
  265TIP3   OH222353   2.701   2.260   0.234 -0.0506 -0.4072  0.0282
  265TIP3    H122354   2.669   2.194   0.173 -0.6450  0.5267 -0.6788
  265TIP3    H222355   2.796   2.248   0.234 -0.1772 -1.5776  0.2879
  266TIP3   OH222356   6.775   6.614   1.601  0.6975 -1.1353  0.1085
  266TIP3    H122357   6.838   6.685   1.612 -0.5794  0.4753 -2.0365
  266TIP3    H222358   6.824   6.545   1.557  1.7105 -1.2295  1.3237
  267TIP3   OH222359   3.204   2.448   1.934  0.3836 -0.0474  0.3534
  267TIP3    H122360   3.228   2.395   2.010  0.1608  0.2878  0.6610
  267TIP3    H222361   3.214   2.389   1.859 -0.4172 -0.7004  0.7421
  268TIP3   OH222362   6.302   1.818   6.999  0.6862  0.4330  0.1428
  268TIP3    H122363   6.268   1.729   6.997 -0.1263  0.6772  1.4847
  268TIP3    H222364   6.225   1.873   7.014  1.3184  1.2589  0.4626
  269TIP3   OH222365   4.286   6.324   7.056  0.1819  0.2384  0.2938
  269TIP3    H122366   4.323   6.364   6.977 -0.4552 -0.5849 -0.4398
  269TIP3    H222367   4.340   6.247   7.072  0.8915  0.9061  1.2252
  270TIP3   OH222368   4.829   1.566   0.392  0.6573 -0.2037 -0.5853
  270TIP3    H122369   4.851   1.581   0.300  0.1310 -0.0866 -0.6942
  270TIP3    H222370   4.841   1.651   0.434 -0.8175  0.1789 -0.8981
  271TIP3   OH222371   1.851   3.653   1.352 -0.2566  0.5144 -0.0928
  271TIP3    H122372   1.758   3.675   1.358 -0.6339 -0.6133 -1.3500
  271TIP3    H222373   1.855   3.560   1.375  0.2194 -0.0448 -2.2638
  272TIP3   OH222374   1.733   4.039   8.513 -0.1702 -0.7826 -0.2834
  272TIP3    H122375   1.663   4.059   8.451 -0.6096 -0.0818  0.4153
  272TIP3    H222376   1.694   3.975   8.573 -0.5861  0.3832  0.7294
  273TIP3   OH222377   5.989   4.922   8.511  0.2125 -0.3652  0.2483
  273TIP3    H122378   5.963   4.875   8.432 -1.7160  2.0124 -0.6434
  273TIP3    H222379   5.909   4.931   8.562  0.9086  0.3481  1.2652
  274TIP3   OH222380   2.990   2.479   8.474 -0.1238 -0.7372  0.2161
  274TIP3    H122381   3.012   2.390   8.445 -0.8690 -0.8352 -0.0870
  274TIP3    H222382   3.063   2.505   8.530  0.7531 -1.0219 -0.7669
  275TIP3   OH222383   3.721   4.715   2.163 -0.5412 -0.2430  0.1660
  275TIP3    H122384   3.795   4.775   2.156  0.0490 -0.9232  0.4434
  275TIP3    H222385   3.708   4.683   2.074 -0.0644 -0.6153  0.2202
  276TIP3   OH222386   2.661   5.163   2.723 -0.6147  0.0657  0.5213
  276TIP3    H122387   2.624   5.250   2.710 -0.3709  0.1716  0.5383
  276TIP3    H222388   2.595   5.104   2.687 -0.2725  0.3210 -0.5537
  277TIP3   OH222389   1.087   0.977   8.011  0.0031  0.0657  0.2765
  277TIP3    H122390   1.031   0.910   7.972 -0.9202  0.4670  0.8516
  277TIP3    H222391   1.152   0.927   8.060  1.3470 -0.4434 -1.9179
  278TIP3   OH222392   2.397   4.676   1.178 -0.0575 -0.5631 -0.3294
  278TIP3    H122393   2.447   4.736   1.233 -0.7297  0.8034 -1.1505
  278TIP3    H222394   2.441   4.592   1.188  2.4860  0.5713 -1.0861
  279TIP3   OH222395   3.770   2.604   0.448 -0.6781 -0.1081 -0.0216
  279TIP3    H122396   3.825   2.630   0.522  0.0174  1.5899 -1.0853
  279TIP3    H222397   3.709   2.677   0.437 -0.1014  0.1486 -1.7353
  280TIP3   OH222398   1.286   2.137   1.807 -0.3044  0.5309 -0.1740
  280TIP3    H122399   1.203   2.161   1.767 -0.2218 -1.0153 -1.3684
  280TIP3    H222400   1.349   2.200   1.771 -0.8149  1.2447  0.1640
  281TIP3   OH222401   3.983   5.321   7.536 -0.3142 -0.0194 -0.9613
  281TIP3    H122402   3.987   5.414   7.512 -0.2355 -0.0048 -0.8912
  281TIP3    H222403   4.042   5.277   7.475  0.0461  0.0456 -0.6594
  282TIP3   OH222404   4.528   5.965   7.275 -0.3125 -0.1272  0.1930
  282TIP3    H122405   4.512   5.943   7.367 -2.0333 -0.5185 -0.1694
  282TIP3    H222406   4.623   5.981   7.271 -0.0609 -0.9422  1.8434
  283TIP3   OH222407   6.530   5.868   6.668 -0.7481 -0.3893  0.0753
  283TIP3    H122408   6.526   5.934   6.598  0.6096 -1.3445 -0.9537
  283TIP3    H222409   6.447   5.822   6.661 -1.2625  0.4995  0.0985
  284TIP3   OH222410   5.089   4.372   1.292 -0.2993  0.2785  0.8349
  284TIP3    H122411   5.123   4.454   1.256  0.3964 -0.0812  0.6461
  284TIP3    H222412   5.066   4.319   1.216 -0.6411  0.2524  0.9537
  285TIP3   OH222413   2.358   0.053   1.774  0.1554 -0.1222 -0.0528
  285TIP3    H122414   2.398   0.062   1.860  0.9834 -0.1710 -0.4223
  285TIP3    H222415   2.264   0.044   1.791  0.3556 -0.5297  0.8619
  286TIP3   OH222416   2.304   5.909   2.564  0.1082  0.1384  0.7184
  286TIP3    H122417   2.373   5.972   2.543 -0.3317  0.1724 -0.7327
  286TIP3    H222418   2.227   5.962   2.580 -0.4002 -0.0159 -1.0500
  287TIP3   OH222419   5.495   1.197   0.696 -0.1613  0.3347 -0.2820
  287TIP3    H122420   5.577   1.209   0.650 -0.2191  0.7703 -0.2769
  287TIP3    H222421   5.454   1.284   0.695 -0.0970  0.3897  0.7094
  288TIP3   OH222422   1.353   5.082   1.478 -0.1540  0.7113 -0.8020
  288TIP3    H122423   1.387   5.014   1.420  1.9276 -0.7390  1.9068
  288TIP3    H222424   1.280   5.041   1.524  0.5325  0.6015  0.2013
  289TIP3   OH222425   6.192   0.581   0.135 -0.4777 -0.0317 -0.3251
  289TIP3    H122426   6.181   0.552   0.044 -1.1268  0.2516 -0.3450
  289TIP3    H222427   6.174   0.503   0.188 -2.1347  0.2784 -0.3794
  290TIP3   OH222428   2.895   1.535   0.209  0.3560  0.1612  0.4959
  290TIP3    H122429   2.828   1.467   0.210  0.8186 -0.4855 -2.5652
  290TIP3    H222430   2.975   1.491   0.237  0.0898  0.2239  1.3853
  291TIP3   OH222431   2.752   4.776   0.575 -0.2103 -0.2839  0.4272
  291TIP3    H122432   2.712   4.717   0.639  1.9958 -0.0269  2.2018
  291TIP3    H222433   2.812   4.721   0.526  2.3209  0.3985  2.5006
  292TIP3   OH222434   4.477   6.686   2.297 -0.5750  0.7839 -0.1551
  292TIP3    H122435   4.525   6.690   2.215 -0.3599  0.9575 -0.0215
  292TIP3    H222436   4.544   6.681   2.365 -0.7684 -0.9461 -0.0653
  293TIP3   OH222437   3.978   5.784   7.201  0.0842  0.1507 -0.2825
  293TIP3    H122438   3.952   5.845   7.132  0.0142  0.2400 -0.1781
  293TIP3    H222439   4.062   5.817   7.232  0.1801  0.0318 -0.4186
  294TIP3   OH222440   3.195   6.175   0.182 -0.5426 -0.3107  0.6380
  294TIP3    H122441   3.221   6.188   0.273 -0.4740 -0.3759  0.6280
  294TIP3    H222442   3.179   6.264   0.149 -1.0731 -0.3208  0.8603
  295TIP3   OH222443   1.368   4.439   1.691  0.1682  0.0268  0.5507
  295TIP3    H122444   1.429   4.450   1.618 -2.4239 -0.6896 -1.9432
  295TIP3    H222445   1.344   4.528   1.716  0.5035  0.2910 -0.0386
  296TIP3   OH222446   4.588   6.527   7.031 -0.2248 -0.2793  0.2267
  296TIP3    H122447   4.637   6.452   7.063  0.0301 -1.2088 -2.1457
  296TIP3    H222448   4.527   6.490   6.966 -2.3348  1.1675  1.2572
  297TIP3   OH222449   2.498   3.063   0.268 -0.2906 -0.8740  0.1756
  297TIP3    H122450   2.593   3.073   0.277 -0.0942 -2.2478 -0.0725
  297TIP3    H222451   2.483   2.969   0.281 -1.7003 -0.5694  0.8671
  298TIP3   OH222452   6.455   3.572   1.143  0.6543 -0.3813  0.2382
  298TIP3    H122453   6.383   3.518   1.177  1.1049 -2.1692 -1.5133
  298TIP3    H222454   6.411   3.639   1.091  0.2051 -0.9378 -0.1164
  299TIP3   OH222455   0.964   1.096   1.867  0.0303  0.1652 -0.1735
  299TIP3    H122456   0.964   1.065   1.957 -1.1776 -2.6121 -0.9961
  299TIP3    H222457   0.873   1.085   1.838  0.4283  0.8001 -1.7708
  300TIP3   OH222458   0.689   5.954   7.693 -0.2222  0.1734 -0.0696
  300TIP3    H122459   0.685   6.049   7.684  1.2504  0.3913  1.0485
  300TIP3    H222460   0.680   5.938   7.787  1.6419 -0.5864  0.0361
  301TIP3   OH222461   3.279   6.738   7.482  0.5384  0.6483 -0.5466
  301TIP3    H122462   3.251   6.751   7.391 -0.8818 -0.6004 -0.3263
  301TIP3    H222463   3.221   6.793   7.533  0.3360  0.2055 -0.2932
  302TIP3   OH222464   4.484   0.103   8.480 -0.1122 -0.3816 -0.1275
  302TIP3    H122465   4.543   0.048   8.531 -0.9604 -0.4566  0.7858
  302TIP3    H222466   4.415   0.128   8.541 -0.3965  0.6865 -0.8657
  303TIP3   OH222467   4.079   2.106   7.974 -0.6550 -0.1195 -0.1055
  303TIP3    H122468   4.174   2.111   7.961 -0.6305  1.0012  0.3378
  303TIP3    H222469   4.043   2.118   7.887 -0.3935 -0.9360 -0.3365
  304TIP3   OH222470   4.677   4.260   2.908 -0.1475  0.0534  0.7189
  304TIP3    H122471   4.670   4.267   3.003 -1.3591  1.0177  0.5964
  304TIP3    H222472   4.652   4.347   2.876  0.4161 -0.1974 -0.4807
  305TIP3   OH222473   2.641   6.707   0.756  0.1511 -0.2990 -0.0806
  305TIP3    H122474   2.724   6.670   0.724  0.6674  0.0365  0.8457
  305TIP3    H222475   2.636   6.680   0.847 -0.1842  0.6640  0.1947
  306TIP3   OH222476   3.148   5.814   7.667  0.8067 -0.8173 -0.3465
  306TIP3    H122477   3.218   5.791   7.728  1.2353 -2.0405 -1.2587
  306TIP3    H222478   3.162   5.906   7.648  0.8052 -0.4694  1.2013
  307TIP3   OH222479   3.760   0.277   0.368 -0.3652 -0.1913 -0.1362
  307TIP3    H122480   3.779   0.326   0.448  2.3533  2.0623 -1.9990
  307TIP3    H222481   3.692   0.328   0.324  0.6826  0.5855 -0.8933
  308TIP3   OH222482   3.581   1.492   8.449  0.1867 -0.1224 -0.4467
  308TIP3    H122483   3.623   1.568   8.490  0.3373 -0.4424  0.0022
  308TIP3    H222484   3.491   1.520   8.433 -0.2702 -0.4446  1.3811
  309TIP3   OH222485   4.679   3.589   1.494  0.1798  0.1071  0.3826
  309TIP3    H122486   4.656   3.682   1.499 -2.0588 -0.3245 -0.7370
  309TIP3    H222487   4.726   3.571   1.576  2.7827  2.6999 -0.3680
  310TIP3   OH222488   4.080   3.748   7.996 -0.5823  0.3912  0.3383
  310TIP3    H122489   4.052   3.659   7.976 -1.2298  0.4239  1.0440
  310TIP3    H222490   4.079   3.753   8.092  1.0254  0.6697  0.3684
  311TIP3   OH222491   0.585   5.882   7.962  0.6099 -0.6287  0.3833
  311TIP3    H122492   0.660   5.829   7.990 -0.0679 -1.1118  1.3272
  311TIP3    H222493   0.557   5.928   8.042  0.3569  0.1336 -0.1295
  312TIP3   OH222494   5.951   5.895   2.134 -0.8094 -0.3849 -0.2147
  312TIP3    H122495   6.041   5.871   2.111 -0.6242  0.3869 -0.3196
  312TIP3    H222496   5.934   5.976   2.086 -0.9944  0.3496  1.0392
  313TIP3   OH222497   2.804   0.900   8.490  0.3524  0.3110 -0.1347
  313TIP3    H122498   2.855   0.963   8.440  0.0846 -0.5400 -1.5355
  313TIP3    H222499   2.730   0.951   8.524 -0.6916  0.5090 -2.4991
  314TIP3   OH222500   4.005   6.689   1.233 -0.2370 -0.8796  0.1981
  314TIP3    H122501   4.088   6.678   1.278  0.9961 -0.1723 -1.7899
  314TIP3    H222502   4.011   6.631   1.157 -0.6540  0.7513 -1.1266
  315TIP3   OH222503   1.409   0.790   2.425 -0.5119  0.3864 -0.3427
  315TIP3    H122504   1.329   0.835   2.399 -0.1516  0.5575 -1.1979
  315TIP3    H222505   1.389   0.697   2.413 -0.6602  0.4159 -0.3261
  316TIP3   OH222506   5.293   1.856   8.454  0.1246 -0.4272  0.3718
  316TIP3    H122507   5.316   1.933   8.402  1.6064 -0.3642  1.0745
  316TIP3    H222508   5.266   1.791   8.389 -1.7655  0.8363 -0.1981
  317TIP3   OH222509   2.217   6.748   6.971  0.2498 -0.3135 -0.1287
  317TIP3    H122510   2.253   6.802   6.901  0.2107  2.5624  1.8891
  317TIP3    H222511   2.284   6.682   6.988 -0.2620 -1.9388 -3.5715
  318TIP3   OH222512   1.898   2.711   8.288 -0.1921  0.3579  0.0618
  318TIP3    H122513   1.910   2.624   8.325 -0.7645  0.6360  0.9155
  318TIP3    H222514   1.967   2.719   8.222  1.0218 -0.0351  1.2580
  319TIP3   OH222515   2.094   6.577   0.996  1.1133  0.0692  0.1381
  319TIP3    H122516   2.127   6.493   0.965 -1.2633 -0.7388 -0.3945
  319TIP3    H222517   2.024   6.555   1.057  1.0983  1.6726  0.7462
  320TIP3   OH222518   1.826   2.621   2.431  0.5303 -0.5839 -0.0369
  320TIP3    H122519   1.844   2.693   2.371  0.6767 -0.5333  0.0689
  320TIP3    H222520   1.736   2.595   2.410 -0.8614  1.8701  2.1792
  321TIP3   OH222521   1.543   6.702   0.304  0.2396  0.0720  0.0179
  321TIP3    H122522   1.463   6.754   0.296  0.3927  0.4741  1.0181
  321TIP3    H222523   1.600   6.733   0.233 -0.0208  0.6143  0.0464
  322TIP3   OH222524   5.358   2.326   0.800  0.0265 -0.3114  0.0295
  322TIP3    H122525   5.319   2.289   0.721  1.3069 -0.1707 -0.7039
  322TIP3    H222526   5.360   2.420   0.784  0.4890 -0.3005  0.1320
  323TIP3   OH222527   1.976   5.485   2.148  0.6723 -0.2488 -0.3237
  323TIP3    H122528   1.922   5.443   2.215  0.9062 -0.0265 -0.0012
  323TIP3    H222529   1.974   5.578   2.169  1.7948 -0.3181  0.1235
  324TIP3   OH222530   5.651   1.051   8.069 -0.1010 -0.5878  0.1565
  324TIP3    H122531   5.564   1.068   8.032  0.2629  0.1353 -0.3854
  324TIP3    H222532   5.654   1.107   8.147 -0.3493 -1.0789  0.5238
  325TIP3   OH222533   3.651   3.679   8.114 -0.5524  0.2054  0.1567
  325TIP3    H122534   3.576   3.623   8.095 -1.7595  1.6486  0.4754
  325TIP3    H222535   3.641   3.701   8.207  1.1470 -0.8149  0.6222
  326TIP3   OH222536   2.925   0.267   6.410  0.0522 -0.3521 -0.3015
  326TIP3    H122537   2.889   0.180   6.390  0.3458 -0.3823 -0.7281
  326TIP3    H222538   2.973   0.255   6.491  1.4662 -0.9977 -1.1939
  327TIP3   OH222539   4.553   1.342   1.011 -0.4191 -0.8390  0.4111
  327TIP3    H122540   4.607   1.290   1.069 -0.1917  0.3632  1.3196
  327TIP3    H222541   4.588   1.431   1.019 -2.1536 -0.1248  0.5994
  328TIP3   OH222542   6.862   4.224   0.432 -0.1132 -0.2711 -0.1027
  328TIP3    H122543   6.873   4.185   0.345 -1.5557 -0.5458 -0.1919
  328TIP3    H222544   6.922   4.174   0.489 -0.3436 -1.1758 -0.6352
  329TIP3   OH222545   2.072   2.472   0.300 -0.1119  0.2048  0.4784
  329TIP3    H122546   2.137   2.419   0.253  1.4139  0.2070  2.4449
  329TIP3    H222547   2.050   2.542   0.240 -3.3420 -3.2272 -2.8784
  330TIP3   OH222548   4.441   6.702   6.690 -0.0863 -0.1453 -0.6425
  330TIP3    H122549   4.522   6.652   6.679  1.0613  0.9814  1.7948
  330TIP3    H222550   4.449   6.774   6.628 -0.3550 -1.3133 -2.0682
  331TIP3   OH222551   0.231   2.488   6.522  0.2589  0.5080  0.5705
  331TIP3    H122552   0.139   2.510   6.513 -0.1228 -1.0087  0.6065
  331TIP3    H222553   0.236   2.435   6.601  0.9514 -0.4180 -0.0655
  332TIP3   OH222554   4.116   4.541   6.799  0.4432  0.5529  0.0751
  332TIP3    H122555   4.210   4.522   6.807  0.0151 -1.8790  0.1129
  332TIP3    H222556   4.086   4.480   6.731 -1.2685  0.6880  0.6811
  333TIP3   OH222557   0.401   5.530   0.511  0.3782 -0.7346  0.2578
  333TIP3    H122558   0.330   5.594   0.518  1.1323  0.2615 -0.8086
  333TIP3    H222559   0.479   5.583   0.497  1.1208 -1.8747  0.0002
  334TIP3   OH222560   2.327   2.455   6.818 -0.1902  0.8230  0.2259
  334TIP3    H122561   2.254   2.403   6.783  0.4956  1.0621 -1.6791
  334TIP3    H222562   2.367   2.495   6.741  3.8390 -1.6855  0.6980
  335TIP3   OH222563   4.972   3.710   1.606 -0.6057 -0.1635  0.0119
  335TIP3    H122564   4.943   3.734   1.518 -0.7807  1.2438  0.4324
  335TIP3    H222565   4.931   3.625   1.622 -0.1357 -0.7016 -1.4641
  336TIP3   OH222566   5.018   3.133   1.485 -0.3430 -0.3147  0.9880
  336TIP3    H122567   5.090   3.087   1.442 -0.9101 -2.0171  1.7400
  336TIP3    H222568   4.953   3.147   1.415  0.8989  1.7691  0.1754
  337TIP3   OH222569   0.168   2.408   7.740 -0.1643 -0.0906  0.2840
  337TIP3    H122570   0.263   2.420   7.747 -0.0116 -0.2816 -1.1961
  337TIP3    H222571   0.142   2.466   7.669 -1.0527 -0.6056  0.1743
  338TIP3   OH222572   5.046   1.377   0.527  0.0607  0.7771  0.5758
  338TIP3    H122573   4.983   1.449   0.517  0.6453  1.2667  0.3230
  338TIP3    H222574   5.127   1.420   0.553  0.7353  0.3509 -0.7060
  339TIP3   OH222575   6.712   2.401   0.537  0.1326  0.0041  0.1577
  339TIP3    H122576   6.618   2.387   0.549  0.0753 -0.1604 -0.4396
  339TIP3    H222577   6.753   2.347   0.605 -0.2211  0.9805  1.1813
  340TIP3   OH222578   0.571   1.617   1.008  0.1818 -0.0138  0.7165
  340TIP3    H122579   0.663   1.646   1.005 -0.1428  0.9604 -0.5085
  340TIP3    H222580   0.576   1.521   0.997  1.0596  0.0110  0.8146
  341TIP3   OH222581   3.032   1.055   0.029 -0.4426 -0.1221 -0.0309
  341TIP3    H122582   3.078   1.134   0.002  0.7005 -0.4655  0.8448
  341TIP3    H222583   3.094   1.008   0.085 -1.0972 -1.6345 -0.5059
  342TIP3   OH222584   5.558   5.329   0.251  0.4809  0.2899  0.8687
  342TIP3    H122585   5.559   5.271   0.176  1.6291  0.3198  0.8339
  342TIP3    H222586   5.634   5.302   0.303  0.0769  0.6858  1.6836
  343TIP3   OH222587   4.250   3.629   1.297 -0.2621 -0.5782  0.8288
  343TIP3    H122588   4.241   3.718   1.331 -1.7555 -0.5548  0.4453
  343TIP3    H222589   4.271   3.576   1.374 -0.1678 -0.0150  1.1978
  344TIP3   OH222590   4.827   4.790   0.184  0.4775 -0.3320  0.2823
  344TIP3    H122591   4.855   4.773   0.274  0.4210 -0.8994  0.1986
  344TIP3    H222592   4.882   4.733   0.131 -0.7327 -1.3840  0.1107
  345TIP3   OH222593   3.994   2.972   8.201 -0.2079 -1.1197  0.4144
  345TIP3    H122594   3.992   2.881   8.172 -0.5805 -1.2322  0.7867
  345TIP3    H222595   3.983   3.024   8.121  1.4424 -1.3522 -0.0175
  346TIP3   OH222596   4.295   5.769   6.947  0.3887  0.1362  0.6735
  346TIP3    H122597   4.368   5.713   6.971  0.1695  0.8645  3.3504
  346TIP3    H222598   4.304   5.781   6.852  3.2500 -0.4399  0.7841
  347TIP3   OH222599   5.903   3.882   6.960 -0.0427  0.5857 -0.1053
  347TIP3    H122600   5.854   3.848   7.035  0.7045 -0.4794 -0.0886
  347TIP3    H222601   5.993   3.853   6.974  1.7347  5.9280  2.0589
  348TIP3   OH222602   2.458   5.399   8.184  0.1318  0.5675  0.0447
  348TIP3    H122603   2.394   5.405   8.256 -0.7789 -2.3678 -0.3574
  348TIP3    H222604   2.532   5.351   8.222  0.0600 -0.1394 -0.6784
  349TIP3   OH222605   0.565   6.242   0.808  0.7696  0.1159  0.0725
  349TIP3    H122606   0.519   6.197   0.878 -0.3497 -0.5977 -1.0756
  349TIP3    H222607   0.655   6.250   0.839  0.1408  0.4981  1.8848
  350TIP3   OH222608   6.502   6.721   7.908  0.5189  0.1042  0.1506
  350TIP3    H122609   6.449   6.798   7.885  0.4075  0.1473  0.5399
  350TIP3    H222610   6.447   6.646   7.885  1.0885  0.1063 -1.3429
  351TIP3   OH222611   4.988   1.785   0.983 -0.2356  0.4455 -0.6281
  351TIP3    H122612   5.026   1.796   1.070 -0.3870 -2.5494 -0.0978
  351TIP3    H222613   5.025   1.857   0.932  3.0836 -0.0684  0.8302
  352TIP3   OH222614   0.236   0.919   7.928 -0.0591 -0.9429  0.0040
  352TIP3    H122615   0.248   0.929   8.023  1.2774  1.7984 -0.3474
  352TIP3    H222616   0.296   0.848   7.904  0.2096 -1.1051  1.1066
  353TIP3   OH222617   1.077   6.825   0.884  0.6927  0.0057  0.1106
  353TIP3    H122618   1.159   6.862   0.853  0.0044 -0.3528 -2.3974
  353TIP3    H222619   1.098   6.735   0.908  1.1887  0.1714  0.2979
  354TIP3   OH222620   5.287   3.770   1.433 -0.2233  0.1310  0.5950
  354TIP3    H122621   5.266   3.842   1.492  1.7319  0.7350  0.6395
  354TIP3    H222622   5.221   3.703   1.451 -0.7174  0.9976  2.1814
  355TIP3   OH222623   2.419   3.936   8.441  0.0587 -0.0165  0.0466
  355TIP3    H122624   2.497   3.922   8.388 -0.0343 -0.3031 -0.0158
  355TIP3    H222625   2.408   3.854   8.490 -0.5437 -0.1977 -0.3853
  356TIP3   OH222626   1.778   3.691   2.191  0.3668  0.2371 -0.4616
  356TIP3    H122627   1.735   3.692   2.105  1.2499  0.7536 -0.9211
  356TIP3    H222628   1.728   3.629   2.243 -1.7167  1.7455 -0.5487
  357TIP3   OH222629   6.825   2.189   1.239  0.2845  0.3428  0.1498
  357TIP3    H122630   6.879   2.266   1.229  1.4072 -0.3536  0.6606
  357TIP3    H222631   6.781   2.201   1.323  0.3202  0.5056  0.1446
  358TIP3   OH222632   1.152   0.977   1.694 -0.1155  0.1718  0.1075
  358TIP3    H122633   1.096   0.942   1.625  0.2038  0.3882 -0.2662
  358TIP3    H222634   1.093   1.025   1.752 -0.0473  2.2931 -1.4722
  359TIP3   OH222635   5.131   1.164   1.772  0.6447 -0.1699  0.2514
  359TIP3    H122636   5.148   1.174   1.866 -0.7905 -1.4388  0.6852
  359TIP3    H222637   5.066   1.232   1.752  1.3058  0.4124  0.0582
  360TIP3   OH222638   6.774   5.646   2.565 -0.6093 -0.8678 -0.0055
  360TIP3    H122639   6.766   5.660   2.471 -0.9136 -0.1569  0.1182
  360TIP3    H222640   6.825   5.720   2.596 -0.0808 -1.3598  0.3276
  361TIP3   OH222641   0.064   0.285   7.199 -0.3594  0.3977  0.1805
  361TIP3    H122642   0.069   0.365   7.147 -1.3013  0.3730  0.0369
  361TIP3    H222643   0.104   0.218   7.142  1.4858  0.9579  0.7595
  362TIP3   OH222644   6.789   2.645   0.482  0.2785 -0.3630  0.3470
  362TIP3    H122645   6.726   2.574   0.492 -0.1960 -0.0952 -0.5602
  362TIP3    H222646   6.841   2.621   0.405  0.8284 -0.2424  0.6709
  363TIP3   OH222647   4.356   0.647   1.483  0.5668  0.3269 -0.5496
  363TIP3    H122648   4.431   0.662   1.427 -0.1403 -0.7211 -1.8318
  363TIP3    H222649   4.282   0.687   1.437  0.0030 -0.4219 -0.3270
  364TIP3   OH222650   4.592   3.411   1.060  0.9183  0.4369  0.4929
  364TIP3    H122651   4.547   3.390   0.978  1.0099 -2.5011  1.1000
  364TIP3    H222652   4.662   3.471   1.034 -0.2896  1.1898 -1.2225
  365TIP3   OH222653   6.656   5.340   1.794  0.1781 -0.1371  0.3493
  365TIP3    H122654   6.615   5.260   1.760  0.0919 -0.7638  1.8426
  365TIP3    H222655   6.589   5.379   1.849 -0.2474  1.6998 -1.3449
  366TIP3   OH222656   2.246   1.134   1.132  0.4891  0.4996 -0.9666
  366TIP3    H122657   2.192   1.153   1.208 -0.2201 -0.3807 -1.2316
  366TIP3    H222658   2.225   1.203   1.069  0.4013  0.7090 -0.7105
  367TIP3   OH222659   2.621   5.849   2.521  0.0118  0.1919 -0.6068
  367TIP3    H122660   2.604   5.783   2.454  0.5306 -1.2924  0.6762
  367TIP3    H222661   2.650   5.799   2.598  1.1859  1.9567  0.1659
  368TIP3   OH222662   6.354   0.090   1.563  0.0243  0.7279  0.4444
  368TIP3    H122663   6.277   0.106   1.509  0.5784  1.2212 -0.2002
  368TIP3    H222664   6.378  -0.000   1.544 -0.0957  0.7304  0.2820
  369TIP3   OH222665   1.974   6.453   7.708  0.5123  0.0749 -0.0590
  369TIP3    H122666   1.922   6.516   7.657 -0.5624 -0.7570 -0.0240
  369TIP3    H222667   1.949   6.469   7.799 -0.1185 -0.7075 -0.0881
  370TIP3   OH222668   5.518   0.917   1.679  0.1222  0.2248 -0.1007
  370TIP3    H122669   5.439   0.901   1.730  0.6652 -0.7443  0.4522
  370TIP3    H222670   5.493   0.989   1.620 -0.6556  1.0608  1.1859
  371TIP3   OH222671   3.301   6.854   8.195 -0.1269  0.2074  0.3506
  371TIP3    H122672   3.365   6.905   8.245  0.5486 -1.3136  1.0889
  371TIP3    H222673   3.353   6.798   8.138 -0.6233 -2.3566  2.2209
  372TIP3   OH222674   0.283   5.537   8.601  0.8107  0.4894  0.4705
  372TIP3    H122675   0.324   5.500   8.523 -1.7499 -1.3539 -0.1360
  372TIP3    H222676   0.228   5.608   8.568 -0.7708 -0.7004  0.4140
  373TIP3   OH222677   5.162   0.486   0.112  0.6413 -0.0090  0.1976
  373TIP3    H122678   5.208   0.488   0.196 -0.4601 -0.2111  0.8284
  373TIP3    H222679   5.230   0.471   0.047  1.4437 -0.3691  1.1056
  374TIP3   OH222680   2.656   3.078   0.539 -0.2237  0.6253  0.3980
  374TIP3    H122681   2.717   3.039   0.477  0.5774  1.1014  0.8633
  374TIP3    H222682   2.693   3.057   0.625 -0.0896  1.8482  0.6714
  375TIP3   OH222683   1.719   6.040   8.266 -0.7780 -0.0379 -0.2746
  375TIP3    H122684   1.787   6.090   8.309 -0.5021 -1.0975  0.5628
  375TIP3    H222685   1.750   5.949   8.269 -2.6984 -0.7161  1.1426
  376TIP3   OH222686   4.470   1.698   0.866 -0.5334 -0.0766  0.3948
  376TIP3    H122687   4.548   1.690   0.921 -0.1515 -0.4265 -0.1910
  376TIP3    H222688   4.495   1.759   0.797 -0.2816 -1.2960 -0.6231
  377TIP3   OH222689   2.496   6.140   0.475  0.4975  0.2617  0.7140
  377TIP3    H122690   2.537   6.225   0.463  0.8616  0.2872  1.9886
  377TIP3    H222691   2.568   6.077   0.475  0.2066 -0.0973 -0.5051
  378TIP3   OH222692   6.086   3.045   1.033 -0.6932 -0.7311 -0.2539
  378TIP3    H122693   6.065   3.104   1.106 -0.5012 -1.8719  0.7626
  378TIP3    H222694   6.144   3.097   0.977  0.3506 -0.2773  1.1653
  379TIP3   OH222695   4.411   0.159   7.664 -0.7463  0.2162 -0.0557
  379TIP3    H122696   4.333   0.109   7.639 -0.4761 -0.3331  0.1739
  379TIP3    H222697   4.387   0.202   7.745 -1.3053  1.2386 -0.7446
  380TIP3   OH222698   3.014   1.177   1.736 -0.3831  0.4118 -0.1440
  380TIP3    H122699   3.076   1.110   1.708 -0.1430  0.7409 -0.4029
  380TIP3    H222700   2.992   1.154   1.826  0.0580  0.2561 -0.0767
  381TIP3   OH222701   5.703   5.728   0.762  0.4648  0.8559  0.0050
  381TIP3    H122702   5.706   5.822   0.781 -3.3401  1.0585  0.5069
  381TIP3    H222703   5.670   5.688   0.842 -3.3153 -0.0044 -1.7100
  382TIP3   OH222704   4.582   3.009   8.513 -0.0104  0.0942  0.0176
  382TIP3    H122705   4.589   2.932   8.457  2.0288  0.6125 -0.5086
  382TIP3    H222706   4.583   3.083   8.453  1.4329  0.6303  0.6473
  383TIP3   OH222707   2.769   3.340   1.567  0.0930  0.6890  0.5817
  383TIP3    H122708   2.679   3.340   1.535  0.2844  1.2563  0.0382
  383TIP3    H222709   2.822   3.342   1.488  0.6003 -0.2631  0.8763
  384TIP3   OH222710   1.365   4.289   2.468 -0.0222  0.3687 -0.1038
  384TIP3    H122711   1.306   4.231   2.420  2.5429 -1.9059 -0.7373
  384TIP3    H222712   1.342   4.277   2.560  0.3127 -1.5539 -0.2397
  385TIP3   OH222713   0.523   2.643   6.852 -0.2662  0.2430 -0.0127
  385TIP3    H122714   0.436   2.658   6.889 -0.2629  0.2528 -0.0087
  385TIP3    H222715   0.528   2.548   6.841 -0.6661  0.3095 -0.9350
  386TIP3   OH222716   5.877   3.106   7.342  0.8739  0.3585 -0.3601
  386TIP3    H122717   5.927   3.187   7.329  0.5475  0.6169 -0.0280
  386TIP3    H222718   5.944   3.038   7.349  1.1814  0.6911 -0.0128
  387TIP3   OH222719   2.152   1.199   7.877 -0.0362 -0.0412  0.2011
  387TIP3    H122720   2.244   1.213   7.899  0.1905 -0.2858 -0.5423
  387TIP3    H222721   2.104   1.237   7.950  0.6448  0.5820  0.3423
  388TIP3   OH222722   0.982   2.719   1.418 -0.4481 -0.0838 -0.5098
  388TIP3    H122723   0.926   2.771   1.475  0.8441  0.1895  0.5507
  388TIP3    H222724   0.985   2.769   1.336  0.8796  1.6354  0.5265
  389TIP3   OH222725   6.024   6.148   0.112 -0.5417  0.1251  0.0090
  389TIP3    H122726   6.058   6.094   0.041 -0.5851  2.4298 -1.8908
  389TIP3    H222727   6.025   6.090   0.188  2.9419 -1.4507 -0.9919
  390TIP3   OH222728   0.678   2.332   8.004 -0.2383  0.2526 -0.1587
  390TIP3    H122729   0.665   2.243   7.972  1.4033 -0.2324  0.3837
  390TIP3    H222730   0.609   2.344   8.069  0.0570 -0.9932  0.4240
  391TIP3   OH222731   6.589   0.332   7.764  0.3904 -0.2700 -0.1647
  391TIP3    H122732   6.609   0.252   7.715  1.0353 -0.6904  0.7513
  391TIP3    H222733   6.494   0.340   7.760  0.4269 -0.2892 -1.4732
  392TIP3   OH222734   6.265   2.238   1.489  0.1467  0.5596  0.3769
  392TIP3    H122735   6.327   2.306   1.517  1.1758 -0.5988  0.9942
  392TIP3    H222736   6.220   2.212   1.569 -1.1791  1.3862 -0.0672
  393TIP3   OH222737   0.529   4.967   1.211 -0.6880  0.4551  0.2308
  393TIP3    H122738   0.624   4.960   1.200 -0.6801 -0.2962  0.7496
  393TIP3    H222739   0.495   4.880   1.192 -1.3761  0.9326 -0.8207
  394TIP3   OH222740   6.366   1.826   1.801 -0.0342 -0.1020  0.8008
  394TIP3    H122741   6.422   1.875   1.861  1.2795 -1.3080  0.5938
  394TIP3    H222742   6.317   1.766   1.857  0.5155 -0.5847  0.7715
  395TIP3   OH222743   4.841   6.000   7.637  0.2359  0.2752  0.2740
  395TIP3    H122744   4.903   6.027   7.704 -0.1278  1.1588  0.2681
  395TIP3    H222745   4.811   6.081   7.597  0.3058 -0.2257 -0.8410
  396TIP3   OH222746   6.612   4.312   0.443  0.0237  0.2628  0.9056
  396TIP3    H122747   6.700   4.279   0.426 -0.4343 -1.1282  1.1696
  396TIP3    H222748   6.626   4.396   0.486  1.2184  1.2127 -1.1856
  397TIP3   OH222749   1.633   2.070   2.477  0.1940  0.2401 -0.0733
  397TIP3    H122750   1.577   2.049   2.551 -0.5842 -2.4619 -1.3120
  397TIP3    H222751   1.615   2.163   2.459 -1.2484  0.3643  1.6997
  398TIP3   OH222752   1.859   2.919   7.822  0.5927 -0.2370  0.4291
  398TIP3    H122753   1.786   2.950   7.768  0.0200 -1.6412  0.3657
  398TIP3    H222754   1.932   2.976   7.798  0.3137 -0.6937 -1.7068
  399TIP3   OH222755   6.495   1.952   8.163 -0.3705  0.0711  0.0278
  399TIP3    H122756   6.588   1.947   8.184 -0.3795  0.1043  0.0760
  399TIP3    H222757   6.477   2.045   8.152 -0.0654 -0.0354 -1.5143
  400TIP3   OH222758   3.908   6.607   0.150 -0.5241  0.4287  0.3613
  400TIP3    H122759   3.847   6.628   0.080 -1.2496  0.7643  1.0751
  400TIP3    H222760   3.942   6.692   0.179  0.3698  0.2400 -0.0989
  401TIP3   OH222761   5.179   1.196   1.067 -0.0865 -0.3039  0.0189
  401TIP3    H122762   5.266   1.202   1.029 -0.1937  1.6733 -0.0249
  401TIP3    H222763   5.119   1.210   0.994 -0.3445  1.0679  0.4541
  402TIP3   OH222764   4.294   3.658   1.720  0.3885  0.0364 -0.4756
  402TIP3    H122765   4.388   3.665   1.737  0.4375  0.8480 -1.0092
  402TIP3    H222766   4.288   3.621   1.632  0.2566  1.1827 -0.9790
  403TIP3   OH222767   1.848   0.057   6.977  0.1337  0.6721  0.7659
  403TIP3    H122768   1.798   0.132   7.010  0.3804  1.4493 -0.5624
  403TIP3    H222769   1.910   0.095   6.915  1.1297 -0.5026  1.0051
  404TIP3   OH222770   1.677   5.393   6.441  0.2038  0.0905  0.4031
  404TIP3    H122771   1.624   5.472   6.450  2.7264  2.1287 -1.1503
  404TIP3    H222772   1.613   5.323   6.429 -2.1710  1.7660  2.1383
  405TIP3   OH222773   1.474   1.563   1.695 -0.0334  0.6096 -0.7300
  405TIP3    H122774   1.379   1.559   1.689 -0.3237  1.2027  2.1622
  405TIP3    H222775   1.502   1.471   1.694 -0.6823  0.4140 -0.9147
  406TIP3   OH222776   5.045   3.343   1.257 -0.2708  0.5809 -0.4563
  406TIP3    H122777   5.110   3.343   1.187  0.7200  0.3161  0.4440
  406TIP3    H222778   5.096   3.348   1.338 -1.3290 -0.3420  0.3075
  407TIP3   OH222779   2.581   6.572   8.293 -0.1584  0.0419 -0.1796
  407TIP3    H122780   2.500   6.619   8.270  0.7139  1.6212 -0.1267
  407TIP3    H222781   2.646   6.641   8.307  1.1287 -1.1880  0.1083
  408TIP3   OH222782   3.734   1.784   8.052  0.6538  0.3762 -0.0468
  408TIP3    H122783   3.710   1.841   7.979 -1.1828  0.2091  0.3906
  408TIP3    H222784   3.665   1.717   8.055  1.4918 -0.4880  0.9303
  409TIP3   OH222785   5.651   2.279   0.791  0.3291  0.3643 -0.6987
  409TIP3    H122786   5.559   2.296   0.774  0.0932 -0.8506 -0.7542
  409TIP3    H222787   5.689   2.267   0.704 -0.0232 -1.7027 -0.6304
  410TIP3   OH222788   3.693   0.761   0.614 -0.4111 -0.1681  0.2877
  410TIP3    H122789   3.742   0.822   0.559 -0.2752  0.1771  0.7868
  410TIP3    H222790   3.752   0.686   0.624 -0.8209 -0.6480 -0.8277
  411TIP3   OH222791   3.853   3.631   6.244  0.5968  0.3283  0.3930
  411TIP3    H122792   3.771   3.583   6.231 -0.1759  1.9726 -1.1887
  411TIP3    H222793   3.868   3.676   6.161  2.3444  1.2333  1.1509
  412TIP3   OH222794   0.867   3.494   7.028  0.4841 -0.0290 -0.6837
  412TIP3    H122795   0.793   3.438   7.005  0.8160 -0.8225  0.0928
  412TIP3    H222796   0.927   3.486   6.954  0.6127 -0.8672 -0.5009
  413TIP3   OH222797   2.322   2.183   0.781 -0.1817 -0.5071  0.2434
  413TIP3    H122798   2.283   2.163   0.866 -1.2085 -1.4754 -0.4159
  413TIP3    H222799   2.252   2.229   0.734  0.3160 -0.1424 -0.1483
  414TIP3   OH222800   0.478   1.739   0.186  0.0559  0.2605  0.3282
  414TIP3    H122801   0.386   1.717   0.205  0.1031  0.3227  0.6242
  414TIP3    H222802   0.473   1.797   0.110 -0.1278 -0.0399  0.1096
  415TIP3   OH222803   6.675   1.145   1.123 -0.2189  0.0072  0.2064
  415TIP3    H122804   6.607   1.079   1.114 -1.7883  1.5057  0.5815
  415TIP3    H222805   6.757   1.097   1.114 -1.2704 -1.4259 -3.3339
  416TIP3   OH222806   3.701   3.061   0.765  0.0436 -0.3592 -0.1850
  416TIP3    H122807   3.790   3.087   0.741  1.2744  0.1137  4.1165
  416TIP3    H222808   3.645   3.117   0.711  2.4350  2.3462 -0.1405
  417TIP3   OH222809   3.678   5.706   1.645  0.0551 -0.4132 -0.2879
  417TIP3    H122810   3.680   5.708   1.741 -1.0051 -0.3375 -0.2557
  417TIP3    H222811   3.744   5.641   1.621 -0.9148 -1.7807  0.5752
  418TIP3   OH222812   1.775   0.172   7.569  0.8293 -0.2703  0.4953
  418TIP3    H122813   1.766   0.198   7.477 -2.9585 -0.5128  0.6086
  418TIP3    H222814   1.731   0.087   7.573 -1.3012  0.8199  2.8683
  419TIP3   OH222815   6.555   6.042   1.476  0.4262  0.9530  0.0842
  419TIP3    H122816   6.492   5.996   1.421  2.0123  0.4943 -1.4145
  419TIP3    H222817   6.508   6.056   1.559 -0.8561 -1.3904 -0.1640
  420TIP3   OH222818   1.418   6.682   0.765 -0.1216 -0.2396  0.1102
  420TIP3    H122819   1.398   6.767   0.805  0.3383  1.2975 -2.6685
  420TIP3    H222820   1.496   6.699   0.713  0.2358 -2.5308 -0.1853
  421TIP3   OH222821   3.447   3.052   1.684  0.3606 -0.4103 -0.3326
  421TIP3    H122822   3.377   3.014   1.632 -1.1578  0.5695  0.8923
  421TIP3    H222823   3.403   3.092   1.759  2.3061 -0.4368  0.9221
  422TIP3   OH222824   5.634   3.822   2.045 -0.4780 -0.0186  0.2586
  422TIP3    H122825   5.707   3.841   1.986 -0.3900 -0.3620  0.2507
  422TIP3    H222826   5.638   3.727   2.057  1.1000  0.2864  2.8610
  423TIP3   OH222827   2.021   0.550   0.557 -0.0827 -0.2083  0.2527
  423TIP3    H122828   2.075   0.589   0.626  0.3090 -1.6570  0.8202
  423TIP3    H222829   2.069   0.471   0.531 -0.8737 -0.3807 -0.7640
  424TIP3   OH222830   4.223   2.529   8.140  0.3905  0.1128  0.0547
  424TIP3    H122831   4.314   2.529   8.168  1.1333  2.1897 -2.1015
  424TIP3    H222832   4.188   2.613   8.170 -1.0028 -0.8267  1.2344
  425TIP3   OH222833   1.346   1.779   6.099 -0.1217  0.1305 -0.8116
  425TIP3    H122834   1.256   1.747   6.098  0.2559 -0.9966 -0.6063
  425TIP3    H222835   1.381   1.751   6.183  0.0348  1.7452 -0.3039
  426TIP3   OH222836   5.849   6.566   2.278  0.1521  0.2046 -0.2784
  426TIP3    H122837   5.936   6.599   2.257 -0.0927 -0.1704 -1.9619
  426TIP3    H222838   5.830   6.500   2.211 -0.8382 -0.7806  0.9072
  427TIP3   OH222839   4.819   1.951   0.112 -0.3313  0.1794  0.4280
  427TIP3    H122840   4.762   1.948   0.035  0.3405 -0.1577 -0.0622
  427TIP3    H222841   4.893   2.005   0.085  1.3909 -2.3400 -0.2232
  428TIP3   OH222842   6.619   5.671   1.878 -0.1015 -0.2586  0.0162
  428TIP3    H122843   6.588   5.586   1.908  1.1508 -0.2071  1.5866
  428TIP3    H222844   6.540   5.725   1.871 -0.6893 -0.9674  1.0037
  429TIP3   OH222845   3.853   3.691   6.505 -0.0160  0.4213  0.1127
  429TIP3    H122846   3.940   3.730   6.517 -0.1210  0.2446  1.6350
  429TIP3    H222847   3.842   3.687   6.410  0.4682  3.0639 -0.1389
  430TIP3   OH222848   1.160   1.324   0.196  0.5761  0.1070 -0.2249
  430TIP3    H122849   1.171   1.411   0.157  3.3027 -0.3669 -0.7083
  430TIP3    H222850   1.230   1.317   0.261 -0.5235 -1.1861  0.8836
  431TIP3   OH222851   5.441   1.326   1.756 -0.6558  0.2787  0.3270
  431TIP3    H122852   5.504   1.290   1.818 -0.1864  0.1155 -0.2424
  431TIP3    H222853   5.453   1.274   1.677 -0.2946  1.3932 -0.3604
  432TIP3   OH222854   4.401   4.888   6.535 -0.1750  0.2600 -0.4446
  432TIP3    H122855   4.381   4.962   6.478 -0.2465  1.0402  0.5604
  432TIP3    H222856   4.495   4.876   6.528 -0.1652  0.4363 -0.6239
  433TIP3   OH222857   6.542   3.603   7.397  0.1224  0.2300 -0.6352
  433TIP3    H122858   6.589   3.665   7.341 -1.2592  1.3950 -0.5805
  433TIP3    H222859   6.450   3.619   7.377 -0.2879 -1.7523 -0.5078
  434TIP3   OH222860   2.667   3.101   1.799 -0.1058  0.0678 -0.3648
  434TIP3    H122861   2.689   3.040   1.870  1.6332  0.5564 -0.4398
  434TIP3    H222862   2.584   3.067   1.764 -0.7432 -0.4995  1.5231
  435TIP3   OH222863   4.372   4.329   6.403  0.2094 -0.6041  0.0313
  435TIP3    H122864   4.371   4.254   6.344 -2.1261 -0.2335 -0.5045
  435TIP3    H222865   4.311   4.305   6.473 -0.1323  0.5431  0.1512
  436TIP3   OH222866   4.290   6.451   6.246 -0.3599  0.0116  0.4777
  436TIP3    H122867   4.357   6.456   6.314  1.9554 -0.0553 -1.6454
  436TIP3    H222868   4.221   6.511   6.274  0.0524 -0.6951  3.2611
  437TIP3   OH222869   0.176   0.503   1.867  1.0322  0.0801  0.4930
  437TIP3    H122870   0.180   0.561   1.943 -1.2178 -0.1620  0.8579
  437TIP3    H222871   0.207   0.419   1.900 -1.1381 -0.3717  1.5852
  438TIP3   OH222872   2.143   2.802   1.267  0.3374 -0.2105  0.1729
  438TIP3    H122873   2.131   2.708   1.249  2.1202 -0.5158  0.3773
  438TIP3    H222874   2.236   2.810   1.290  0.3174  1.6804 -0.2687
  439TIP3   OH222875   3.186   0.427   7.216 -0.0277  0.5940 -0.0387
  439TIP3    H122876   3.139   0.353   7.177  0.5065  0.5219 -0.5532
  439TIP3    H222877   3.172   0.499   7.153 -0.0139  0.7567  0.1439
  440TIP3   OH222878   5.260   3.057   1.388 -0.7450  0.5649 -0.2608
  440TIP3    H122879   5.345   3.016   1.376 -1.0130 -0.0712 -0.0432
  440TIP3    H222880   5.263   3.136   1.335  0.4019  1.1649  0.6676
  441TIP3   OH222881   2.643   4.347   0.926 -0.5286  0.4080  0.2662
  441TIP3    H122882   2.643   4.372   0.834 -1.8626  0.2557  0.1980
  441TIP3    H222883   2.717   4.393   0.964  0.2188  0.2419 -0.9349
  442TIP3   OH222884   3.365   6.032   2.053  0.2449 -0.3316  0.2199
  442TIP3    H122885   3.314   6.103   2.092  1.8969 -0.0161  1.9560
  442TIP3    H222886   3.451   6.071   2.036  0.9887 -1.7380  0.6020
  443TIP3   OH222887   4.267   4.979   0.843  0.4822  0.3499  0.1486
  443TIP3    H122888   4.237   5.069   0.858  0.2333  0.4535 -0.8918
  443TIP3    H222889   4.186   4.928   0.834  0.6231  0.0652  0.5016
  444TIP3   OH222890   1.968   2.761   2.227  0.1275  0.2674 -0.1969
  444TIP3    H122891   2.037   2.775   2.161 -1.0601  0.1057 -1.5234
  444TIP3    H222892   1.888   2.747   2.176 -0.9084  0.4425  1.2982
  445TIP3   OH222893   1.892   4.156   2.498  0.6839  0.0177  0.1172
  445TIP3    H122894   1.806   4.174   2.461  0.8737  1.8624  0.4585
  445TIP3    H222895   1.916   4.237   2.544  2.7842 -0.2695 -0.3484
  446TIP3   OH222896   3.412   0.061   7.239  0.4804 -0.4084  0.3257
  446TIP3    H122897   3.507   0.049   7.238  0.6454  0.7625  0.9743
  446TIP3    H222898   3.397   0.137   7.296 -0.8742 -0.8205  0.5646
  447TIP3   OH222899   4.393   1.331   1.998 -0.0140 -0.3221 -0.1374
  447TIP3    H122900   4.394   1.237   1.983 -2.8661 -0.5264  0.3998
  447TIP3    H222901   4.383   1.369   1.910  1.7760 -0.4246 -0.4224
  448TIP3   OH222902   0.750   1.879   8.113 -0.3162 -0.2169 -0.1230
  448TIP3    H122903   0.796   1.806   8.155  2.5655  2.0145  0.9454
  448TIP3    H222904   0.772   1.872   8.020  0.3032 -0.4790  0.0416
  449TIP3   OH222905   0.063   3.443   7.753  0.7642  0.5269  0.2082
  449TIP3    H122906   0.045   3.462   7.660  2.3648 -0.8139 -0.4333
  449TIP3    H222907   0.127   3.372   7.750  0.5165  0.1694  2.3735
  450TIP3   OH222908   1.537   5.254   0.327 -1.0492 -0.3138 -0.2698
  450TIP3    H122909   1.494   5.278   0.409  1.3397  1.8797  0.4655
  450TIP3    H222910   1.515   5.325   0.267  1.0139  0.5617 -0.0392
  451TIP3   OH222911   2.823   5.909   8.293  0.1487  0.0800  0.0498
  451TIP3    H122912   2.870   5.837   8.250  0.6440 -0.0418  0.7871
  451TIP3    H222913   2.807   5.879   8.382 -1.9393 -0.1511 -0.3505
  452TIP3   OH222914   5.663   4.639   7.040 -0.4516  0.2503  0.2728
  452TIP3    H122915   5.567   4.636   7.035 -0.5861 -1.7972  2.1913
  452TIP3    H222916   5.680   4.687   7.122  0.1974  0.8037 -0.1775
  453TIP3   OH222917   4.286   5.411   8.236  0.4485 -0.1601  0.2896
  453TIP3    H122918   4.305   5.360   8.315  0.3585 -0.3828  0.1675
  453TIP3    H222919   4.263   5.346   8.170  2.6894 -0.1634 -0.5708
  454TIP3   OH222920   3.850   1.200   6.295  0.6231  0.0861 -0.3256
  454TIP3    H122921   3.842   1.294   6.280 -1.3817 -0.2277 -1.5133
  454TIP3    H222922   3.905   1.168   6.223  1.0158  0.2819 -0.1161
  455TIP3   OH222923   1.277   6.736   8.537  0.1024  0.2504  0.0931
  455TIP3    H122924   1.197   6.755   8.487  0.5531  2.0636  0.0088
  455TIP3    H222925   1.316   6.661   8.491 -0.5622  0.5713 -1.0307
  456TIP3   OH222926   5.102   0.851   1.494 -0.2110  0.7836 -0.0383
  456TIP3    H122927   5.088   0.889   1.581  1.2916 -0.5327  0.8236
  456TIP3    H222928   5.197   0.845   1.486 -0.3702 -0.7675 -1.0262
  457TIP3   OH222929   3.459   2.338   7.048  1.0003  0.5104  0.0663
  457TIP3    H122930   3.474   2.244   7.040 -0.3131  0.0668  2.0516
  457TIP3    H222931   3.525   2.378   6.992  0.9197 -1.5973 -1.6739
  458TIP3   OH222932   3.435   4.762   1.229 -0.5996  0.5512 -0.1995
  458TIP3    H122933   3.469   4.796   1.312 -0.9506 -0.0957  0.2220
  458TIP3    H222934   3.514   4.744   1.177 -0.3841  1.1668 -0.1004
  459TIP3   OH222935   3.646   3.831   7.498  0.5122 -0.6372 -0.0210
  459TIP3    H122936   3.575   3.878   7.542 -0.6959 -2.2683 -0.1370
  459TIP3    H222937   3.610   3.806   7.413  1.4295 -0.9865 -0.3255
  460TIP3   OH222938   6.633   3.442   7.605 -0.0190 -0.0399  0.3041
  460TIP3    H122939   6.718   3.461   7.644  0.4683  0.4844 -0.9614
  460TIP3    H222940   6.633   3.490   7.523 -0.6990 -1.6814 -0.7130
  461TIP3   OH222941   1.413   2.670   1.206  0.3597 -0.0551  0.6491
  461TIP3    H122942   1.416   2.576   1.190  0.9132  0.3903 -2.3955
  461TIP3    H222943   1.347   2.702   1.145  0.5184  1.6103  1.3100
  462TIP3   OH222944   0.458   6.547   7.865  0.1681 -0.1913  0.1766
  462TIP3    H122945   0.475   6.462   7.825  1.9146  0.3094 -0.2033
  462TIP3    H222946   0.472   6.610   7.794  0.1753  0.5086  0.7872
  463TIP3   OH222947   3.847   0.957   0.484 -0.5135  0.4471  0.1686
  463TIP3    H122948   3.835   1.020   0.414 -0.9449  0.1209 -0.0531
  463TIP3    H222949   3.927   0.910   0.461  1.7959  3.1085  2.0160
  464TIP3   OH222950   4.545   1.856   6.955 -0.5227 -0.0618  0.4133
  464TIP3    H122951   4.530   1.762   6.964  1.9296 -0.6852 -1.2824
  464TIP3    H222952   4.553   1.871   6.861  2.5961  1.1652  0.7592
  465TIP3   OH222953   3.242   2.609   1.048 -0.3287 -0.4575 -0.0812
  465TIP3    H122954   3.328   2.596   1.008  0.9506  0.0672  2.3398
  465TIP3    H222955   3.199   2.524   1.042  0.5524 -0.8624 -0.8554
  466TIP3   OH222956   1.488   1.395   7.088 -0.8935  0.1306 -0.4509
  466TIP3    H122957   1.505   1.308   7.125  0.1388  1.1549  1.7442
  466TIP3    H222958   1.539   1.397   7.007 -0.4427 -1.1131 -0.2265
  467TIP3   OH222959   0.162   4.743   7.882  0.4670  0.1752  0.2900
  467TIP3    H122960   0.205   4.823   7.852 -2.3167  2.2088  1.2722
  467TIP3    H222961   0.105   4.772   7.954 -1.4770 -2.4776 -0.0286
  468TIP3   OH222962   1.137   1.023   1.344 -0.3045 -0.6816 -0.1326
  468TIP3    H122963   1.184   1.062   1.271 -0.3738 -0.7182 -0.1981
  468TIP3    H222964   1.114   1.096   1.401 -1.3102 -0.4844 -0.7562
  469TIP3   OH222965   5.756   6.887   7.343 -0.1394 -0.2027  0.0592
  469TIP3    H122966   5.673   6.871   7.298 -0.4251 -0.1183  0.5447
  469TIP3    H222967   5.808   6.808   7.327 -0.9031 -0.9382  1.0422
  470TIP3   OH222968   3.512   1.453   7.659  0.0569  0.1063 -0.0061
  470TIP3    H122969   3.563   1.386   7.613 -0.0741  0.2374 -0.3426
  470TIP3    H222970   3.494   1.519   7.593 -0.8852 -0.1230  0.0106
  471TIP3   OH222971   5.320   2.142   2.304  0.3104  0.5111  0.1768
  471TIP3    H122972   5.365   2.137   2.388 -0.0965  0.7588  0.4158
  471TIP3    H222973   5.319   2.236   2.283 -1.6546  0.7294  1.0527
  472TIP3   OH222974   1.851   5.267   7.497  0.0167 -0.2001  0.1502
  472TIP3    H122975   1.787   5.262   7.568  1.3341  0.5843  1.4528
  472TIP3    H222976   1.933   5.241   7.537  0.6913 -0.3606 -1.2729
  473TIP3   OH222977   0.459   1.077   0.399  0.5296 -0.5862 -0.5289
  473TIP3    H122978   0.425   1.102   0.485 -0.4479 -1.5811 -0.6141
  473TIP3    H222979   0.479   1.160   0.356 -1.0821 -0.0024 -0.1864
  474TIP3   OH222980   0.575   5.976   8.218  0.4505  0.3383  0.1379
  474TIP3    H122981   0.560   6.002   8.309  1.0640 -0.2070  0.3993
  474TIP3    H222982   0.563   5.881   8.218 -1.9331  0.5735 -0.8360
  475TIP3   OH222983   1.400   6.426   0.672 -0.2098 -0.3140 -0.0778
  475TIP3    H122984   1.411   6.504   0.727 -0.3305  0.0928 -0.6123
  475TIP3    H222985   1.441   6.450   0.589 -1.8102 -0.1336 -0.8661
  476TIP3   OH222986   2.861   2.405   2.247  0.0723  0.0647  0.0808
  476TIP3    H122987   2.916   2.482   2.242 -1.1595  0.9484 -0.3570
  476TIP3    H222988   2.833   2.401   2.338  0.3210  0.0077  0.1536
  477TIP3   OH222989   6.532   5.665   7.246 -0.2314 -0.3046  0.4375
  477TIP3    H122990   6.438   5.666   7.263 -0.1256  0.1349  1.0221
  477TIP3    H222991   6.539   5.673   7.151 -0.7767  0.4607  0.4486
  478TIP3   OH222992   5.492   1.227   0.169 -0.5615  0.3085  0.2966
  478TIP3    H122993   5.426   1.281   0.211 -0.2737  0.9151 -0.0278
  478TIP3    H222994   5.494   1.147   0.222 -0.9167  0.6485  0.8348
  479TIP3   OH222995   3.301   2.740   1.278 -0.5613 -0.3117  0.6309
  479TIP3    H122996   3.387   2.700   1.294  2.8729  4.3047 -3.2212
  479TIP3    H222997   3.262   2.687   1.209  0.0928 -1.3664  1.0532
  480TIP3   OH222998   0.264   4.103   8.147  0.7212 -0.2125  0.0110
  480TIP3    H122999   0.316   4.115   8.067  0.6592 -1.8492 -0.3192
  480TIP3    H223000   0.176   4.086   8.115  0.7884 -1.3471  0.3812
  481TIP3   OH223001   1.532   0.734   1.149 -0.6119  0.5657  0.0802
  481TIP3    H123002   1.603   0.735   1.213  0.2885  3.0447 -0.8373
  481TIP3    H223003   1.561   0.794   1.080 -2.0611 -1.0437 -2.0998
  482TIP3   OH223004   4.320   3.941   2.191 -0.1397 -0.3344 -0.4453
  482TIP3    H123005   4.361   3.894   2.263 -0.1667  0.8807  0.3953
  482TIP3    H223006   4.247   3.988   2.231  1.9732  3.2839 -0.4329
  483TIP3   OH223007   5.491   4.016   1.289  0.1521  0.1557 -0.2248
  483TIP3    H123008   5.466   4.102   1.323 -1.2411 -0.9851  1.8894
  483TIP3    H223009   5.516   3.966   1.367 -2.4863 -2.4120 -0.8410
  484TIP3   OH223010   5.508   5.036   6.971  0.3986  0.0602 -0.0548
  484TIP3    H123011   5.440   5.018   7.036  0.6889  2.0698  0.8824
  484TIP3    H223012   5.575   4.970   6.988 -0.7052 -1.0988 -0.0990
  485TIP3   OH223013   3.145   1.238   0.643 -0.0823 -0.1676  0.4402
  485TIP3    H123014   3.058   1.270   0.617  0.0138 -0.7977 -0.6954
  485TIP3    H223015   3.206   1.304   0.609 -0.0874  0.1074  0.9548
  486TIP3   OH223016   6.290   0.763   7.915  0.6552  0.1818 -0.7569
  486TIP3    H123017   6.373   0.794   7.952 -0.0916  1.0997  0.2176
  486TIP3    H223018   6.226   0.830   7.940 -0.2257 -0.0580 -2.2448
  487TIP3   OH223019   2.055   4.366   0.413 -0.5220 -0.0134  0.4645
  487TIP3    H123020   2.123   4.413   0.366 -1.2709  0.4346 -0.2094
  487TIP3    H223021   2.101   4.317   0.481  0.5169 -0.2206 -0.3733
  488TIP3   OH223022   1.956   0.501   7.925 -0.4643  0.3020  0.0794
  488TIP3    H123023   1.934   0.583   7.970 -2.3193 -0.0963  0.0100
  488TIP3    H223024   1.871   0.467   7.896  0.4517 -0.6446 -1.6477
  489TIP3   OH223025   2.976   1.753   0.491  0.2199 -0.5912 -0.5177
  489TIP3    H123026   3.047   1.722   0.434  0.6691  2.4603 -1.8116
  489TIP3    H223027   3.020   1.792   0.566  0.1699  2.5408 -1.9523
  490TIP3   OH223028   0.348   4.166   0.303 -0.4407 -0.2556  0.2537
  490TIP3    H123029   0.300   4.208   0.373 -1.6864  0.4068 -0.9515
  490TIP3    H223030   0.337   4.072   0.318 -0.7617 -0.1168  0.8849
  491TIP3   OH223031   3.704   1.018   6.157  0.9011  0.1916  0.2236
  491TIP3    H123032   3.614   1.025   6.190 -0.4154  2.2994 -3.2107
  491TIP3    H223033   3.755   1.072   6.217  0.1305 -1.6041  2.6579
  492TIP3   OH223034   3.793   2.825   8.462 -0.2928 -0.0416 -0.2172
  492TIP3    H123035   3.724   2.792   8.519 -1.0379  2.7549  0.6508
  492TIP3    H223036   3.759   2.814   8.374 -0.7942 -0.8770  0.0658
  493TIP3   OH223037   6.166   2.255   1.236  0.0209  0.8090  0.5276
  493TIP3    H123038   6.180   2.242   1.330 -0.5869  0.1088  0.5285
  493TIP3    H223039   6.084   2.303   1.231  0.5997  1.8220  0.3836
  494TIP3   OH223040   3.503   3.478   1.751  0.3776  0.7899  0.7932
  494TIP3    H123041   3.549   3.498   1.669 -0.0576  0.1430  0.3878
  494TIP3    H223042   3.418   3.444   1.724  0.8112 -0.9015  1.4782
  495TIP3   OH223043   2.663   6.135   8.548  0.1213 -0.2719 -0.0004
  495TIP3    H123044   2.597   6.065   8.544  0.6432 -0.8313  0.9340
  495TIP3    H223045   2.624   6.207   8.497 -0.4058 -1.2444 -1.0191
  496TIP3   OH223046   0.962   0.264   1.459 -0.1334  0.0895 -0.4662
  496TIP3    H123047   0.895   0.198   1.478 -0.2719 -0.0495 -1.4062
  496TIP3    H223048   0.927   0.344   1.497 -1.0754  0.1253 -1.3686
  497TIP3   OH223049   0.100   1.588   1.764 -0.8494  0.1003 -0.1570
  497TIP3    H123050   0.024   1.638   1.793 -1.5333 -0.9144 -0.1257
  497TIP3    H223051   0.175   1.630   1.806 -1.3161  1.5060 -0.6965
  498TIP3   OH223052   3.207   0.867   2.238 -0.1490 -0.1937  0.0396
  498TIP3    H123053   3.251   0.807   2.298  0.0917 -0.2506 -0.1928
  498TIP3    H223054   3.276   0.897   2.178 -0.7718 -1.7982 -1.5782
  499TIP3   OH223055   4.346   2.182   0.232  0.0140  0.2640  0.1606
  499TIP3    H123056   4.416   2.185   0.297  1.6099  0.5018 -1.4610
  499TIP3    H223057   4.312   2.272   0.229  0.5764  0.4809  0.0447
  500TIP3   OH223058   2.049   6.803   7.430  1.0193 -0.1257  0.4253
  500TIP3    H123059   2.048   6.823   7.336  0.1646  0.1887  0.4932
  500TIP3    H223060   2.129   6.844   7.462  0.4904  1.2302  0.1231
  501TIP3   OH223061   3.464   3.479   8.094 -0.4525  0.5104 -0.0793
  501TIP3    H123062   3.538   3.420   8.075 -0.1795  1.0683 -0.8110
  501TIP3    H223063   3.419   3.438   8.168  0.8722  0.4113  0.6996
  502TIP3   OH223064   0.398   3.401   0.159  0.0054  0.0812  0.1839
  502TIP3    H123065   0.314   3.435   0.190  1.1217  1.9327  1.3384
  502TIP3    H223066   0.377   3.314   0.125 -2.3210  0.3782  0.6923
  503TIP3   OH223067   5.751   4.008   7.822  0.4411 -0.4724 -0.6134
  503TIP3    H123068   5.717   4.009   7.912  0.5497  1.6792 -0.5474
  503TIP3    H223069   5.844   3.990   7.832  0.5220  0.1170 -0.2516
  504TIP3   OH223070   3.620   5.161   7.311 -0.2609  0.4602  0.8885
  504TIP3    H123071   3.651   5.248   7.336  0.8953  0.7350 -1.3310
  504TIP3    H223072   3.593   5.170   7.220  0.6643 -1.6829  0.3444
  505TIP3   OH223073   1.177   3.284   1.466  0.4623  0.2313  0.3297
  505TIP3    H123074   1.272   3.288   1.455  0.4835 -1.9429 -0.9703
  505TIP3    H223075   1.163   3.202   1.513 -0.8391 -0.5566 -1.3301
  506TIP3   OH223076   4.328   0.623   0.171 -0.1568 -0.1578  0.0922
  506TIP3    H123077   4.409   0.615   0.120  0.0658 -0.4213  0.4800
  506TIP3    H223078   4.315   0.536   0.209  0.3802  0.3508  1.5118
  507TIP3   OH223079   1.607   3.129   8.295  0.1353 -0.7008 -0.2146
  507TIP3    H123080   1.638   3.047   8.257  0.3281 -0.4915 -0.5143
  507TIP3    H223081   1.606   3.190   8.221  0.3054 -0.3463  0.0759
  508TIP3   OH223082   2.712   4.167   7.000 -0.1432  0.3878 -0.1142
  508TIP3    H123083   2.716   4.160   7.096  0.4900  0.4618 -0.1315
  508TIP3    H223084   2.716   4.077   6.969 -3.3286  0.0932 -0.0056
  509TIP3   OH223085   1.561   1.615   7.891  0.3807  0.1796 -0.7342
  509TIP3    H123086   1.558   1.697   7.842  2.0821  0.5829 -0.2366
  509TIP3    H223087   1.650   1.582   7.878  1.0109  0.4165  2.2057
  510TIP3   OH223088   0.080   0.395   1.171 -0.3712 -0.1084 -0.1111
  510TIP3    H123089   0.067   0.359   1.083  1.2727  1.1024 -0.8998
  510TIP3    H223090   0.013   0.462   1.179 -1.2477 -0.9800  0.0232
  511TIP3   OH223091   0.072   2.877   2.655 -0.1581 -0.0814  0.8892
  511TIP3    H123092   0.055   2.930   2.577 -0.7263  1.0408  1.7425
  511TIP3    H223093   0.086   2.941   2.725 -0.8801 -1.0617  1.9642
  512TIP3   OH223094   5.734   5.543   0.216  0.3737  0.0256  0.6497
  512TIP3    H123095   5.658   5.486   0.224 -0.5727  1.2187  0.3598
  512TIP3    H223096   5.709   5.624   0.260  1.6777  0.2625  1.0202
  513TIP3   OH223097   2.849   4.953   7.953  0.6585  0.1473 -0.6331
  513TIP3    H123098   2.866   4.860   7.939  1.1004  0.1139  0.0990
  513TIP3    H223099   2.753   4.960   7.955  0.5850 -0.0303 -2.3002
  514TIP3   OH223100   5.945   2.410   7.021 -0.2450 -0.8557  0.3299
  514TIP3    H123101   5.945   2.405   7.116  0.7656 -2.6718  0.2767
  514TIP3    H223102   6.034   2.435   6.998 -0.6407  0.1978 -0.1599
  515TIP3   OH223103   0.179   6.889   1.079 -0.1120  0.2657 -0.4730
  515TIP3    H123104   0.100   6.926   1.040  0.4077  0.6766 -1.1657
  515TIP3    H223105   0.232   6.861   1.004  0.7621  0.7561 -0.0595
  516TIP3   OH223106   0.757   5.434   7.972 -0.5553  0.6216  0.6470
  516TIP3    H123107   0.765   5.529   7.974  0.8222  0.5231  1.0984
  516TIP3    H223108   0.838   5.402   8.012 -0.1067 -0.7732 -1.2473
  517TIP3   OH223109   6.535   4.268   8.254  0.3874 -0.6474  0.5418
  517TIP3    H123110   6.617   4.235   8.220  1.1130  1.5231  0.0208
  517TIP3    H223111   6.552   4.361   8.271 -1.7479 -0.3063  1.0915
  518TIP3   OH223112   1.242   1.338   7.808  0.5979  0.0191  0.2429
  518TIP3    H123113   1.211   1.357   7.897  1.3208  1.4505  0.2292
  518TIP3    H223114   1.262   1.424   7.772  1.4435 -0.6363 -0.8957
  519TIP3   OH223115   3.817   2.190   6.505  0.3792  0.0700  0.0560
  519TIP3    H123116   3.784   2.276   6.531  1.5731  0.1595  1.3751
  519TIP3    H223117   3.860   2.206   6.420  0.0235  0.6317 -0.0250
  520TIP3   OH223118   0.730   3.915   7.924  0.6717  0.3006  0.3528
  520TIP3    H123119   0.639   3.936   7.906  1.0900  0.7528 -1.3826
  520TIP3    H223120   0.728   3.824   7.955 -0.3850  0.4155  0.6674
  521TIP3   OH223121   0.161   2.373   0.146 -0.7521  0.4101  0.0378
  521TIP3    H123122   0.222   2.359   0.219 -0.6171  1.0831  0.0569
  521TIP3    H223123   0.138   2.284   0.118 -0.7047  0.1416  0.8144
  522TIP3   OH223124   5.022   3.075   6.496  0.4210 -0.2125 -0.7110
  522TIP3    H123125   4.958   3.050   6.430  1.7171  1.8702 -2.8953
  522TIP3    H223126   4.995   3.161   6.526 -0.6049 -1.4265  2.2357
  523TIP3   OH223127   4.468   6.844   8.051 -0.1593 -0.2114 -0.1267
  523TIP3    H123128   4.405   6.817   7.984 -0.7374 -0.9114  0.6672
  523TIP3    H223129   4.529   6.770   8.058  0.7516  0.4515 -0.8729
  524TIP3   OH223130   5.710   5.413   7.377 -0.5680  0.1793 -0.0732
  524TIP3    H123131   5.777   5.390   7.441  0.2973  2.8329  0.1049
  524TIP3    H223132   5.636   5.445   7.430 -0.1494  1.6381 -0.3315
  525TIP3   OH223133   5.722   5.230   1.659  0.8319  0.5932 -0.3076
  525TIP3    H123134   5.787   5.168   1.628  1.8504  0.6791  1.4923
  525TIP3    H223135   5.709   5.207   1.752  1.2134  2.9972  0.4117
  526TIP3   OH223136   4.813   2.315   0.490  0.2476 -0.1418  0.0814
  526TIP3    H123137   4.731   2.363   0.501 -0.4516 -1.2382 -0.1896
  526TIP3    H223138   4.839   2.291   0.579 -0.1114 -0.4094  0.1159
  527TIP3   OH223139   0.688   6.819   0.029  0.8396  0.1767  0.0878
  527TIP3    H123140   0.666   6.796  -0.062 -0.6534  1.0615  0.1854
  527TIP3    H223141   0.705   6.913   0.026  0.8770  0.1900  0.7051
  528TIP3   OH223142   5.980   3.364   1.031 -0.2422  0.0628 -0.3647
  528TIP3    H123143   5.951   3.298   1.095  4.3681 -0.1028  1.9786
  528TIP3    H223144   5.941   3.446   1.062  0.6754 -0.2899  1.9515
  529TIP3   OH223145   1.647   2.166   0.232 -0.1483 -0.1212  0.1269
  529TIP3    H123146   1.615   2.255   0.249  1.5138  0.8124 -1.3817
  529TIP3    H223147   1.571   2.110   0.249 -1.6351  1.7017 -0.2087
  530TIP3   OH223148   2.594   2.444   8.433  0.5792 -0.4931 -0.7216
  530TIP3    H123149   2.610   2.409   8.520 -0.6937 -2.7227 -1.3098
  530TIP3    H223150   2.663   2.510   8.420  1.6838 -1.1611  1.3676
  531TIP3   OH223151   5.681   2.157   7.521  0.7259  0.1028 -0.4052
  531TIP3    H123152   5.730   2.148   7.439  0.2163 -0.8149 -0.6266
  531TIP3    H223153   5.594   2.186   7.495  0.2535 -1.1642 -0.2978
  532TIP3   OH223154   6.021   6.533   6.476 -0.2583  0.0415 -0.2569
  532TIP3    H123155   5.959   6.603   6.492 -0.8754 -0.3200 -1.0271
  532TIP3    H223156   5.979   6.477   6.411 -0.6275 -2.0981  1.6753
  533TIP3   OH223157   6.806   5.884   7.764  0.0500 -0.2323 -0.4361
  533TIP3    H123158   6.828   5.965   7.810  0.8245 -0.0051 -1.1859
  533TIP3    H223159   6.890   5.844   7.743 -0.3168 -1.4367  0.2406
  534TIP3   OH223160   1.151   1.216   8.141  0.0470  0.2766 -0.5927
  534TIP3    H123161   1.120   1.149   8.080 -1.2416 -1.1686  1.5225
  534TIP3    H223162   1.165   1.168   8.223 -0.3800  2.5084  0.8533
  535TIP3   OH223163   2.981   1.489   6.995  0.2929  0.8681 -0.5562
  535TIP3    H123164   2.894   1.451   7.008  0.2863  0.9140 -0.4567
  535TIP3    H223165   3.013   1.505   7.084 -0.2746  2.3757 -0.6036
  536TIP3   OH223166   4.321   1.188   8.180  0.1391 -0.1874 -0.0397
  536TIP3    H123167   4.324   1.206   8.274 -0.2784 -1.0178  0.1427
  536TIP3    H223168   4.317   1.093   8.174  1.3850 -0.2165 -0.9380
  537TIP3   OH223169   1.641   1.278   1.676 -0.0480  0.4650  0.4331
  537TIP3    H123170   1.674   1.225   1.748  0.0921  0.0545  0.0743
  537TIP3    H223171   1.713   1.338   1.656 -0.0520  0.5170  0.5774
  538TIP3   OH223172   1.361   3.637   2.432  0.4645  0.1897  0.1087
  538TIP3    H123173   1.356   3.669   2.342  0.8711 -0.1851 -0.0494
  538TIP3    H223174   1.374   3.542   2.423  1.2129  0.2492  0.5566
  539TIP3   OH223175   0.104   5.145   8.587  0.3387 -0.6099  0.4637
  539TIP3    H123176   0.045   5.072   8.605 -0.0458 -0.5875 -0.6301
  539TIP3    H223177   0.070   5.217   8.640 -0.0233 -0.8796  0.6020
  540TIP3   OH223178   4.732   5.735   7.144 -0.1609 -0.2983  0.1156
  540TIP3    H123179   4.668   5.725   7.074 -1.9140 -1.2646  1.7449
  540TIP3    H223180   4.695   5.803   7.200  1.2157  0.4673  0.1283
  541TIP3   OH223181   5.841   2.546   1.458  0.8556 -0.5047  0.4943
  541TIP3    H123182   5.932   2.519   1.467 -0.1128 -4.2639  0.7369
  541TIP3    H223183   5.841   2.611   1.388  3.6542 -0.5939  0.3316
  542TIP3   OH223184   6.126   2.045   6.903 -0.1502 -0.0954 -0.0032
  542TIP3    H123185   6.081   1.967   6.871 -0.6550  0.5942 -1.0058
  542TIP3    H223186   6.137   2.101   6.826 -0.7852  1.3033  0.8704
  543TIP3   OH223187   1.829   1.647   0.680 -0.2775  0.0778  0.5907
  543TIP3    H123188   1.899   1.609   0.733  0.3579 -0.7488 -0.7885
  543TIP3    H223189   1.766   1.576   0.669  0.9969 -0.7256 -2.1403
  544TIP3   OH223190   0.769   2.028   8.335 -0.0061  0.1908  0.2839
  544TIP3    H123191   0.694   2.085   8.349 -0.6256 -0.6453  0.4286
  544TIP3    H223192   0.751   1.984   8.252  0.0156 -0.4902  0.6354
  545TIP3   OH223193   6.237   5.129   7.947  0.1305 -0.5781 -0.1746
  545TIP3    H123194   6.270   5.192   7.882 -0.6309  0.6665  0.6087
  545TIP3    H223195   6.170   5.177   7.995 -0.4912 -2.0134  0.4466
  546TIP3   OH223196   2.018   2.668   0.080  0.2469 -0.6266  0.3585
  546TIP3    H123197   2.096   2.629   0.043  0.4313 -0.3839  0.4859
  546TIP3    H223198   2.006   2.750   0.032 -0.4567 -1.0975 -0.2929
  547TIP3   OH223199   3.824   4.439   1.722  0.3366 -0.2298  0.4144
  547TIP3    H123200   3.818   4.510   1.658  1.1309 -0.2589  0.2866
  547TIP3    H223201   3.735   4.407   1.733  0.3053 -0.8613 -1.4143
  548TIP3   OH223202   4.686   4.220   1.525 -0.6395  0.0308 -0.4423
  548TIP3    H123203   4.780   4.239   1.528 -0.9944  1.8505  1.3597
  548TIP3    H223204   4.678   4.148   1.462  1.8474  0.3831 -1.2666
  549TIP3   OH223205   1.941   2.437   1.132  0.1332  0.0348  0.0449
  549TIP3    H123206   1.878   2.365   1.135  1.2351 -0.9607 -0.3110
  549TIP3    H223207   1.907   2.501   1.196 -0.7758 -0.8538  0.4779
  550TIP3   OH223208   0.037   6.550   7.359 -0.2378 -0.2222  0.2021
  550TIP3    H123209   0.002   6.464   7.384 -0.2343 -0.5125 -0.7787
  550TIP3    H223210  -0.039   6.599   7.328 -0.2986  0.2642  1.0669
  551TIP3   OH223211   0.358   0.480   1.595  0.4517  0.2601  0.3116
  551TIP3    H123212   0.393   0.529   1.669 -0.3534  0.1306  0.7819
  551TIP3    H223213   0.413   0.402   1.589  0.8093  0.4984  0.4773
  552TIP3   OH223214   0.265   1.420   1.986  0.3221 -0.5331 -0.0882
  552TIP3    H123215   0.288   1.327   1.984 -1.3022 -0.9558 -0.3128
  552TIP3    H223216   0.175   1.423   1.954 -0.4569  0.8815  2.0587
  553TIP3   OH223217   4.975   2.290   7.252  0.3667 -0.2294 -0.4022
  553TIP3    H123218   4.959   2.196   7.248  2.0724 -0.5519 -0.3116
  553TIP3    H223219   4.975   2.318   7.161  0.3904 -0.4194 -0.4617
  554TIP3   OH223220   0.579   5.496   1.044  0.7163 -0.2461  0.4304
  554TIP3    H123221   0.552   5.477   1.134  0.6870  0.5218  0.5906
  554TIP3    H223222   0.497   5.507   0.996  0.7182  1.2069  0.7250
  555TIP3   OH223223   3.395   2.216   8.506  0.5202 -0.0066 -0.1729
  555TIP3    H123224   3.384   2.205   8.412  1.3022 -1.0589 -0.1576
  555TIP3    H223225   3.462   2.151   8.531  2.8787  2.5169  0.5574
  556TIP3   OH223226   6.236   5.731   7.246  0.0036  0.5389 -0.2395
  556TIP3    H123227   6.219   5.703   7.156  0.2927  0.6171 -0.3209
  556TIP3    H223228   6.176   5.804   7.261 -0.7463 -0.1038 -0.0312
  557TIP3   OH223229   1.969   0.090   8.250  0.4760  0.3763  0.1443
  557TIP3    H123230   1.951   0.135   8.167  0.6220 -1.0705 -0.7208
  557TIP3    H223231   1.888   0.099   8.300 -0.6717 -1.0700 -1.3246
  558TIP3   OH223232   5.074   4.895   2.598  0.3037  0.1713  0.2506
  558TIP3    H123233   5.083   4.990   2.590  2.2199  0.0597  0.5688
  558TIP3    H223234   5.043   4.866   2.512  1.7277  0.8909 -0.5317
  559TIP3   OH223235   3.121   1.804   1.902 -0.2814 -0.1218 -0.0308
  559TIP3    H123236   3.153   1.796   1.992 -1.4537 -0.2399  0.3947
  559TIP3    H223237   3.164   1.881   1.868  0.8511 -0.5724  0.3408
  560TIP3   OH223238   2.008   0.223   0.951 -0.3386 -0.4523 -0.6814
  560TIP3    H123239   2.058   0.261   0.879  3.5109 -0.4469  1.7146
  560TIP3    H223240   2.016   0.129   0.939  4.0229 -0.6361  1.6636
  561TIP3   OH223241   1.389   2.119   6.889  0.8908 -0.4655  0.1782
  561TIP3    H123242   1.352   2.174   6.820 -2.0695 -1.6919  0.6529
  561TIP3    H223243   1.355   2.156   6.970 -0.1653 -2.2346  0.5830
  562TIP3   OH223244   3.680   6.217   8.610 -0.1362 -0.2153 -0.3744
  562TIP3    H123245   3.656   6.269   8.687 -2.3481  0.3209 -1.3412
  562TIP3    H223246   3.740   6.151   8.644  0.7287  1.3489  1.3810
  563TIP3   OH223247   1.794   3.530   8.177 -0.2646  0.5537  0.7144
  563TIP3    H123248   1.776   3.565   8.090  0.0120  1.5239  1.0392
  563TIP3    H223249   1.743   3.585   8.236  0.8258  0.9618  1.3087
  564TIP3   OH223250   2.704   6.341   1.115 -0.5221  0.3281  0.3576
  564TIP3    H123251   2.644   6.339   1.190  1.0074  0.3858  1.6245
  564TIP3    H223252   2.729   6.249   1.103 -0.0714  0.4264  0.5167
  565TIP3   OH223253   4.090   1.188   6.528  0.1364 -0.1054  0.4772
  565TIP3    H123254   4.038   1.196   6.448 -1.2592  1.6119  1.4725
  565TIP3    H223255   4.132   1.273   6.538  2.1733 -1.0474  0.3963
  566TIP3   OH223256   1.289   6.358   0.014  0.1066 -0.1459  0.1029
  566TIP3    H123257   1.287   6.266  -0.013  0.1202 -0.1790  0.2114
  566TIP3    H223258   1.350   6.400  -0.046  1.7032 -0.6169  1.3302
  567TIP3   OH223259   4.342   2.658   1.438 -0.8323 -0.0630 -0.8845
  567TIP3    H123260   4.295   2.578   1.457  0.4933 -1.2813 -2.4648
  567TIP3    H223261   4.394   2.675   1.517  0.6583 -2.1246 -1.3377
  568TIP3   OH223262   0.219   0.596   7.586 -0.4162  0.3103 -0.3370
  568TIP3    H123263   0.245   0.555   7.503 -0.0613  2.2795 -1.2558
  568TIP3    H223264   0.178   0.678   7.560 -2.1098  0.0561  1.3920
  569TIP3   OH223265   4.562   1.721   1.923  0.0122  0.1567  0.2217
  569TIP3    H123266   4.495   1.764   1.975  0.7165 -1.8154  3.0286
  569TIP3    H223267   4.625   1.790   1.902 -1.3556  1.4283  0.1450
  570TIP3   OH223268   2.488   6.400   1.791 -0.3756 -0.5178 -0.7907
  570TIP3    H123269   2.575   6.440   1.795  0.2436 -1.6973 -1.7651
  570TIP3    H223270   2.427   6.473   1.799  0.6774  0.2180  1.2239
  571TIP3   OH223271   4.409   3.511   1.508 -0.3431 -0.3510  0.0749
  571TIP3    H123272   4.423   3.449   1.437 -0.8764  0.4310 -0.7458
  571TIP3    H223273   4.492   3.559   1.515 -0.4866 -0.0098 -0.4627
  572TIP3   OH223274   5.068   2.537   0.891 -0.0965 -0.6796  0.3382
  572TIP3    H123275   5.035   2.622   0.865  1.3055 -0.0010  0.6578
  572TIP3    H223276   5.079   2.489   0.809  0.7907  0.1098 -0.0282
  573TIP3   OH223277   1.897   5.093   2.093  0.0577  0.1779  0.3089
  573TIP3    H123278   1.818   5.148   2.086  0.5145  0.6978 -1.0136
  573TIP3    H223279   1.937   5.121   2.176  0.0701  1.5912 -0.1403
  574TIP3   OH223280   6.124   3.990   1.294  0.4163 -0.2424 -0.1903
  574TIP3    H123281   6.029   3.977   1.298  0.3869 -0.5217 -1.4747
  574TIP3    H223282   6.160   3.903   1.280  0.7488  0.0353 -1.1653
  575TIP3   OH223283   0.592   4.984   7.697  0.3074 -0.5606  0.6679
  575TIP3    H123284   0.627   4.895   7.702 -2.9265 -2.0835 -0.7865
  575TIP3    H223285   0.532   4.982   7.622 -2.1109  1.9895  2.3422
  576TIP3   OH223286   4.014   2.381   6.723 -0.1334 -0.0926  0.2706
  576TIP3    H123287   4.084   2.396   6.785 -2.0044  0.3149  2.4089
  576TIP3    H223288   3.980   2.468   6.703 -0.1126 -0.2863 -0.6979
  577TIP3   OH223289   4.761   2.202   7.444  0.3179  0.7374  0.4038
  577TIP3    H123290   4.834   2.260   7.422  1.5027 -0.7572  0.2471
  577TIP3    H223291   4.772   2.127   7.386 -0.5731 -0.1106  1.2919
  578TIP3   OH223292   5.186   5.305   8.167 -0.9459 -0.1068 -0.2947
  578TIP3    H123293   5.230   5.337   8.088  0.4842 -0.8633  0.1611
  578TIP3    H223294   5.239   5.231   8.196 -1.6896 -0.1112  1.1561
  579TIP3   OH223295   6.678   3.777   6.810 -0.7142 -0.2469 -0.4749
  579TIP3    H123296   6.676   3.867   6.778 -1.1610 -0.1758 -0.2541
  579TIP3    H223297   6.629   3.727   6.745 -0.0918 -0.4112 -0.8278
  580TIP3   OH223298   2.507   5.084   0.206 -0.0743  0.1029  0.0751
  580TIP3    H123299   2.526   5.154   0.143  2.1737 -0.0302  0.5317
  580TIP3    H223300   2.437   5.119   0.261 -0.2208  1.2657 -0.8165
  581TIP3   OH223301   6.560   6.068   7.810  0.1461 -0.1790  0.0020
  581TIP3    H123302   6.624   6.004   7.840  0.2281  0.3500  0.9941
  581TIP3    H223303   6.548   6.048   7.717 -0.9262 -2.5336  0.6039
  582TIP3   OH223304   1.784   4.715   1.403  0.0583  0.2232 -0.0676
  582TIP3    H123305   1.851   4.777   1.375  1.4179 -0.9018  0.5924
  582TIP3    H223306   1.753   4.675   1.322 -0.3190  1.2264 -0.4334
  583TIP3   OH223307   3.101   3.592   1.488  0.9224  0.0851 -0.3748
  583TIP3    H123308   3.138   3.660   1.432 -1.2347  1.8425  0.2104
  583TIP3    H223309   3.110   3.512   1.437  3.3748  0.7488 -1.1720
  584TIP3   OH223310   1.845   4.011   1.145 -0.4637 -0.1579  0.7962
  584TIP3    H123311   1.830   4.011   1.240 -1.1357  0.4992  0.6968
  584TIP3    H223312   1.793   3.938   1.112  1.1458 -1.5249  1.1129
  585TIP3   OH223313   0.670   0.093   6.950 -0.1273  0.2647  0.1837
  585TIP3    H123314   0.580   0.072   6.926 -0.0955  0.5246 -0.1637
  585TIP3    H223315   0.716   0.010   6.943 -0.4230  0.0439  0.7652
  586TIP3   OH223316   0.414   4.538   0.302  0.8666 -0.0582  0.0869
  586TIP3    H123317   0.394   4.613   0.247  0.1294 -0.5968 -0.4111
  586TIP3    H223318   0.376   4.463   0.255 -0.5828 -0.4261  1.7111
  587TIP3   OH223319   2.861   6.560   0.946 -0.2587  0.1629 -0.3919
  587TIP3    H123320   2.908   6.623   1.000  1.5842 -2.3014  1.0526
  587TIP3    H223321   2.769   6.569   0.974  0.5144 -0.5564  2.8311
  588TIP3   OH223322   6.250   4.305   2.179 -0.0287  0.7482 -0.4451
  588TIP3    H123323   6.160   4.314   2.213 -0.2034 -0.6860 -0.4541
  588TIP3    H223324   6.276   4.217   2.206  0.5362  0.2841 -2.4009
  589TIP3   OH223325   4.603   1.380   7.868 -0.2451 -0.3742 -0.0106
  589TIP3    H123326   4.612   1.351   7.959  0.9238 -0.6340 -0.1931
  589TIP3    H223327   4.522   1.338   7.838  0.7086 -2.4413  0.1384
  590TIP3   OH223328   3.642   6.261   7.407 -0.1113 -0.0716 -0.5733
  590TIP3    H123329   3.568   6.227   7.356  0.6216  0.7504 -2.2772
  590TIP3    H223330   3.637   6.356   7.397  1.0273  0.0090 -0.5405
  591TIP3   OH223331   0.202   5.354   1.489  0.0644  0.1039 -0.3985
  591TIP3    H123332   0.201   5.305   1.572  1.4729  1.0044  0.2049
  591TIP3    H223333   0.266   5.307   1.435 -0.7419 -0.3930 -0.9485
  592TIP3   OH223334   4.752   4.057   1.305 -0.1636 -0.1310  0.9165
  592TIP3    H123335   4.840   4.054   1.267  0.2336 -0.1987  1.8328
  592TIP3    H223336   4.695   4.075   1.230  0.6515  0.1669  0.3507
  593TIP3   OH223337   1.775   3.205   0.814 -0.0237  0.2819  0.3597
  593TIP3    H123338   1.811   3.290   0.787  0.1043 -0.2863 -1.3751
  593TIP3    H223339   1.683   3.224   0.833 -0.3437  0.5937 -1.3350
  594TIP3   OH223340   5.829   3.296   1.470  0.2594  0.6530  0.6167
  594TIP3    H123341   5.744   3.253   1.466  0.9364 -0.8138  1.5017
  594TIP3    H223342   5.845   3.325   1.380 -0.9062  0.4397  0.3246
  595TIP3   OH223343   2.491   0.067   8.274  0.0607 -0.2559  0.1925
  595TIP3    H123344   2.403   0.029   8.277 -0.0338 -0.0972 -0.4255
  595TIP3    H223345   2.478   0.158   8.300  0.1040 -0.3410  0.5087
  596TIP3   OH223346   4.981   6.873   8.036 -0.4152 -0.5154 -0.4295
  596TIP3    H123347   4.887   6.861   8.051 -0.4494 -0.9111 -0.9266
  596TIP3    H223348   5.013   6.786   8.012  0.0101 -0.3100 -0.6181
  597TIP3   OH223349   5.056   5.773   7.906 -0.5579 -0.4947 -0.2003
  597TIP3    H123350   5.115   5.729   7.968  0.2953  1.6082  0.5929
  597TIP3    H223351   4.995   5.822   7.962 -0.8986  0.0253 -1.0085
  598TIP3   OH223352   6.826   3.259   2.318  0.3039 -0.5148  0.1222
  598TIP3    H123353   6.901   3.303   2.357  0.5509  0.5949 -1.5475
  598TIP3    H223354   6.857   3.227   2.234 -0.2085 -2.9177  0.7589
  599TIP3   OH223355   3.029   5.400   0.806  0.2700 -0.1564 -0.4195
  599TIP3    H123356   2.934   5.407   0.803  0.2939  0.9929  0.7329
  599TIP3    H223357   3.060   5.456   0.734  0.0996  0.0776 -0.3092
  600TIP3   OH223358   1.855   5.906   6.506  0.1056 -0.1773  0.4323
  600TIP3    H123359   1.831   5.991   6.471  2.6938 -0.0937 -1.4762
  600TIP3    H223360   1.810   5.843   6.450  0.5447 -0.0293 -0.0991
  601TIP3   OH223361   1.008   6.546   0.726 -0.2272 -0.1959  0.1747
  601TIP3    H123362   0.936   6.590   0.681 -0.8808 -1.0278  0.3851
  601TIP3    H223363   1.001   6.455   0.700 -1.1150 -0.8701  2.5179
  602TIP3   OH223364   4.359   6.638   0.399 -0.0389 -0.4826  0.3557
  602TIP3    H123365   4.302   6.641   0.476  1.2826  0.8528  1.3402
  602TIP3    H223366   4.415   6.562   0.413 -0.0318 -0.4438  0.5327
  603TIP3   OH223367   6.883   6.470   1.161  0.1448 -0.0512  0.0063
  603TIP3    H123368   6.788   6.484   1.160  0.0163 -0.6956  1.3641
  603TIP3    H223369   6.909   6.474   1.069 -1.1536  0.4293 -0.3564
  604TIP3   OH223370   5.620   3.803   6.276  0.2617  0.0981 -0.2702
  604TIP3    H123371   5.712   3.778   6.273  0.5328  0.6949  1.5687
  604TIP3    H223372   5.576   3.730   6.320 -0.1919 -0.2765 -1.3225
  605TIP3   OH223373   1.318   4.388   1.377 -0.2049  0.2625  0.0126
  605TIP3    H123374   1.360   4.458   1.327  0.4035 -0.5561 -0.6539
  605TIP3    H223375   1.389   4.326   1.395 -0.8974 -0.5855 -0.1307
  606TIP3   OH223376   0.756   6.741   0.301 -0.4445 -0.5528 -0.0484
  606TIP3    H123377   0.736   6.819   0.352  0.8858  0.5048 -1.0314
  606TIP3    H223378   0.728   6.763   0.212  0.0242 -1.1404 -0.3525
  607TIP3   OH223379   2.622   0.606   6.801 -0.1072  0.7213 -0.0675
  607TIP3    H123380   2.609   0.682   6.859 -1.5912  0.1562  0.4027
  607TIP3    H223381   2.539   0.600   6.753 -0.1671 -0.8289  0.1948
  608TIP3   OH223382   4.331   1.227   8.465  0.1919  0.3692  0.3152
  608TIP3    H123383   4.392   1.289   8.505  1.5120 -1.2395  0.9237
  608TIP3    H223384   4.246   1.250   8.504  0.5603  1.9813  0.2562
  609TIP3   OH223385   2.879   3.436   0.515 -0.3438  0.6869 -0.0003
  609TIP3    H123386   2.956   3.476   0.475 -0.4761  1.0679  0.1151
  609TIP3    H223387   2.863   3.357   0.464 -0.3297  1.0079 -0.5040
  610TIP3   OH223388   5.998   5.683   7.578 -0.5209  0.1271  0.1464
  610TIP3    H123389   6.002   5.635   7.496 -0.5538 -1.1833  0.8833
  610TIP3    H223390   6.076   5.740   7.577 -1.8994  2.1295 -1.9347
  611TIP3   OH223391   2.255   1.729   0.169  0.5919 -0.3078 -0.1463
  611TIP3    H123392   2.274   1.670   0.242  1.3718  0.4317  0.2636
  611TIP3    H223393   2.324   1.796   0.174 -0.2937  0.6521 -0.5855
  612TIP3   OH223394   4.264   3.776   0.103  0.4195 -0.2118  0.1434
  612TIP3    H123395   4.278   3.690   0.063  0.2019 -0.0087 -0.3854
  612TIP3    H223396   4.207   3.759   0.178 -2.6314 -0.1300 -1.9744
  613TIP3   OH223397   4.682   0.969   1.743 -0.9086 -0.2200  0.6338
  613TIP3    H123398   4.768   0.927   1.748 -1.0017 -0.4993 -0.0347
  613TIP3    H223399   4.649   0.966   1.833  0.0677  0.5128  1.0316
  614TIP3   OH223400   0.870   3.695   7.183 -0.1113 -0.1137  0.3429
  614TIP3    H123401   0.890   3.605   7.157  1.4828 -0.2007  1.6833
  614TIP3    H223402   0.791   3.687   7.237  0.8551 -0.9474  1.6880
  615TIP3   OH223403   6.437   2.884   0.973 -0.1268  0.7822 -0.9224
  615TIP3    H123404   6.346   2.880   0.943 -0.4807  1.0721  0.0490
  615TIP3    H223405   6.478   2.806   0.935 -1.2130 -0.2551 -0.0796
  616TIP3   OH223406   1.114   2.970   8.418  0.1011 -0.5023 -0.1554
  616TIP3    H123407   1.187   2.949   8.477 -0.7030 -0.4197  0.9075
  616TIP3    H223408   1.121   3.065   8.404 -0.7708 -0.1728  1.3600
  617TIP3   OH223409   0.656   4.589   7.258  0.3764  0.1823  0.2637
  617TIP3    H123410   0.715   4.636   7.316  0.2868 -0.1301  0.6119
  617TIP3    H223411   0.569   4.606   7.293  0.2986  0.2504  0.0370
  618TIP3   OH223412   0.760   5.872   0.596  0.0436 -1.0406  0.2332
  618TIP3    H123413   0.665   5.883   0.592  0.2552  1.7577  0.4334
  618TIP3    H223414   0.778   5.859   0.689 -0.1492 -1.6924  0.1809
  619TIP3   OH223415   6.497   4.538   0.242 -0.3944  0.2073  0.0830
  619TIP3    H123416   6.585   4.575   0.237  0.1454 -1.1283 -0.7662
  619TIP3    H223417   6.488   4.508   0.332  0.4487 -0.6441 -0.1108
  620TIP3   OH223418   3.940   5.574   1.559  0.3880 -0.2242  0.0741
  620TIP3    H123419   4.013   5.543   1.505  0.7393 -0.9964  0.9634
  620TIP3    H223420   3.982   5.629   1.626  0.0009  0.4248 -0.2149
  621TIP3   OH223421   2.373   4.287   8.190  0.0793 -0.8582  0.2633
  621TIP3    H123422   2.434   4.331   8.250  0.3342  0.0786 -0.6612
  621TIP3    H223423   2.311   4.243   8.248  1.1576 -1.1851  1.2223
  622TIP3   OH223424   2.496   0.223   1.401  0.2742  0.4235  0.0184
  622TIP3    H123425   2.437   0.232   1.326 -1.8691 -0.2384  1.5296
  622TIP3    H223426   2.443   0.180   1.469  2.4724 -0.0852  1.5336
  623TIP3   OH223427   3.418   1.949   1.002 -0.7537 -0.5597 -0.7029
  623TIP3    H123428   3.403   2.023   0.943 -0.8344  1.4584  1.7005
  623TIP3    H223429   3.507   1.963   1.036 -1.4885 -0.4104  1.2683
  624TIP3   OH223430   6.490   5.090   2.690 -0.3156  0.6051 -0.3392
  624TIP3    H123431   6.503   4.997   2.706 -1.5859  0.4236 -0.2357
  624TIP3    H223432   6.439   5.093   2.608  1.2234  1.2898 -1.3273
  625TIP3   OH223433   6.791   6.503   1.854 -0.3717 -0.4725 -0.4465
  625TIP3    H123434   6.884   6.496   1.835 -0.1812 -2.0449  0.8787
  625TIP3    H223435   6.754   6.548   1.778  1.3746 -0.2594 -1.2074
  626TIP3   OH223436   0.954   3.186   7.522  0.2968  0.6128 -0.0399
  626TIP3    H123437   0.942   3.095   7.496 -0.7351  0.4641  0.9011
  626TIP3    H223438   1.048   3.195   7.535  0.2908 -0.6591  1.0445
  627TIP3   OH223439   6.682   3.497   2.242 -0.1568 -0.4908  0.0158
  627TIP3    H123440   6.679   3.401   2.244 -3.0148 -0.5798 -2.2703
  627TIP3    H223441   6.609   3.524   2.298  0.4323  0.3495  0.3859
  628TIP3   OH223442   2.685   2.727   0.931  0.2446 -0.0625  0.3884
  628TIP3    H123443   2.592   2.704   0.936  0.2522 -0.6875 -1.4542
  628TIP3    H223444   2.705   2.768   1.015 -2.3552  2.5276 -0.1197
  629TIP3   OH223445   0.130   3.373   0.041  0.5256 -0.3152  0.0904
  629TIP3    H123446   0.163   3.367  -0.048 -1.7360  1.6461 -0.9825
  629TIP3    H223447   0.079   3.292   0.054  0.5562 -0.4338 -0.5304
  630TIP3   OH223448   4.721   6.618   7.870  0.1582  0.3543  0.1822
  630TIP3    H123449   4.682   6.540   7.831  2.4169 -0.0660 -1.4146
  630TIP3    H223450   4.673   6.691   7.831 -1.3655 -0.1607  0.9961
  631TIP3   OH223451   1.241   3.248   8.445  0.3383 -0.2697 -0.5198
  631TIP3    H123452   1.211   3.338   8.439 -1.1859 -0.6961  0.2604
  631TIP3    H223453   1.337   3.254   8.438  0.3111  1.4522  0.1802
  632TIP3   OH223454   2.945   3.569   6.165 -0.1270 -0.4382  0.4581
  632TIP3    H123455   3.009   3.639   6.180 -0.8838  0.6690 -1.1707
  632TIP3    H223456   2.969   3.500   6.227  0.4264  1.4020  2.4041
  633TIP3   OH223457   4.288   0.700   8.271 -0.3305  0.0505  0.1310
  633TIP3    H123458   4.339   0.705   8.190  2.0734  0.3241  1.5474
  633TIP3    H223459   4.337   0.637   8.325 -0.0450  2.1834  2.5038
  634TIP3   OH223460   3.180   0.637   7.036  0.8551 -0.3845  0.1152
  634TIP3    H123461   3.172   0.696   7.111  0.8066  0.9122 -0.8690
  634TIP3    H223462   3.274   0.637   7.017  0.6886  0.5466 -0.7711
  635TIP3   OH223463   1.826   6.292   7.931 -0.5556  0.7128  0.1988
  635TIP3    H123464   1.870   6.261   7.852 -0.8551  0.6244  0.0634
  635TIP3    H223465   1.874   6.252   8.003 -1.2541 -0.5136  0.0162
  636TIP3   OH223466   5.556   0.076   8.257 -0.2264  0.7184  0.2822
  636TIP3    H123467   5.543  -0.018   8.268  0.9787  0.6031  0.9184
  636TIP3    H223468   5.649   0.085   8.233 -0.5804  1.6698 -0.8385
  637TIP3   OH223469   3.315   2.281   1.743  0.5094 -0.0582  0.2265
  637TIP3    H123470   3.409   2.302   1.747  0.5674 -0.2709  0.0223
  637TIP3    H223471   3.311   2.188   1.765  0.3752 -0.1221 -0.0763
  638TIP3   OH223472   5.208   6.535   7.871 -0.2849 -0.6302 -0.0317
  638TIP3    H123473   5.242   6.445   7.874 -0.7257 -0.7789  2.0218
  638TIP3    H223474   5.115   6.525   7.891 -0.1515  0.3558  1.1490
  639TIP3   OH223475   1.154   0.963   0.912 -0.7087  0.0507 -0.5675
  639TIP3    H123476   1.173   1.044   0.959 -0.8982 -0.7921  1.0133
  639TIP3    H223477   1.232   0.950   0.857  1.0460 -0.5778  1.8903
  640TIP3   OH223478   4.306   1.784   1.688  0.2979  0.3633  0.4689
  640TIP3    H123479   4.348   1.858   1.732 -0.0551  0.9360 -0.1466
  640TIP3    H223480   4.367   1.711   1.702 -0.0508  0.3830  2.3698
  641TIP3   OH223481   3.019   3.559   8.608 -0.4297  0.3924 -0.1493
  641TIP3    H123482   3.008   3.654   8.602 -0.2695  0.3368 -1.6721
  641TIP3    H223483   3.108   3.543   8.578 -0.8381 -0.3216 -1.0436
  642TIP3   OH223484   6.543   3.190   1.716 -0.3233  0.1609  0.4516
  642TIP3    H123485   6.626   3.159   1.679  0.2471  0.5203  1.3958
  642TIP3    H223486   6.500   3.234   1.643  0.1547 -0.3245 -0.1407
  643TIP3   OH223487   5.591   4.987   6.399 -0.7715 -0.9826 -0.9883
  643TIP3    H123488   5.530   4.964   6.329 -0.7315 -0.3763 -1.2333
  643TIP3    H223489   5.613   5.079   6.382  0.3035 -1.2247 -0.9779
  644TIP3   OH223490   2.953   0.055   7.358 -0.1670  0.0046 -0.2668
  644TIP3    H123491   2.973   0.131   7.303 -1.5892 -0.6803 -1.8135
  644TIP3    H223492   3.023  -0.007   7.341 -0.7594 -0.3246 -1.5861
  645TIP3   OH223493   6.873   2.590   6.829 -0.1714  0.0285 -0.3467
  645TIP3    H123494   6.868   2.651   6.755 -0.7342  0.9746  0.4382
  645TIP3    H223495   6.784   2.555   6.838 -0.7543  1.7573  1.3366
  646TIP3   OH223496   0.402   0.434   2.285 -0.3201 -0.5908 -0.2416
  646TIP3    H123497   0.386   0.489   2.362 -0.2923  0.2858 -0.8422
  646TIP3    H223498   0.326   0.377   2.280 -1.1358  0.4808 -0.5052
  647TIP3   OH223499   0.441   4.679   1.078 -0.2446  0.1720 -0.0324
  647TIP3    H123500   0.352   4.670   1.112 -0.6365  0.0304 -1.0488
  647TIP3    H223501   0.459   4.595   1.035  1.5912 -1.0241  2.7996
  648TIP3   OH223502   0.176   4.853   1.545  0.1472  0.4570 -0.6777
  648TIP3    H123503   0.196   4.793   1.617  0.7743  1.4045 -0.0354
  648TIP3    H223504   0.100   4.903   1.575  1.9012  2.6405  0.5223
  649TIP3   OH223505   5.620   3.816   1.509  0.1383  0.3690  0.1189
  649TIP3    H123506   5.591   3.726   1.498  0.4243  0.0380  1.7701
  649TIP3    H223507   5.714   3.809   1.527  0.3107  1.0623 -0.4328
  650TIP3   OH223508   0.330   0.512   6.248  0.5968 -0.1524  0.2565
  650TIP3    H123509   0.261   0.509   6.315  1.1656  1.1071  0.9435
  650TIP3    H223510   0.398   0.454   6.281  0.0967 -1.0057 -0.1768
  651TIP3   OH223511   1.025   4.688   1.420 -0.1656  0.9925 -0.2972
  651TIP3    H123512   1.021   4.592   1.414 -0.1143  0.9726 -0.0266
  651TIP3    H223513   0.958   4.710   1.485  0.6608  1.0428  0.5636
  652TIP3   OH223514   3.746   0.151   6.892  0.2769 -0.7420 -0.0640
  652TIP3    H123515   3.816   0.099   6.932  0.4358  1.0312  2.2049
  652TIP3    H223516   3.791   0.223   6.848 -0.0585 -0.3499  0.2249
  653TIP3   OH223517   3.239   3.437   1.779 -0.0369 -0.4833 -0.1181
  653TIP3    H123518   3.270   3.444   1.869 -0.4858 -0.7566  0.0635
  653TIP3    H223519   3.211   3.525   1.756  0.4391 -0.3325 -0.1257
  654TIP3   OH223520   2.510   5.823   8.242  0.3281  0.3352 -0.0717
  654TIP3    H123521   2.594   5.777   8.233  0.0790 -0.0015 -0.7589
  654TIP3    H223522   2.534   5.910   8.274  1.0395  0.5805 -1.1916
  655TIP3   OH223523   3.811   1.459   8.254 -0.2742 -0.5370 -0.1227
  655TIP3    H123524   3.835   1.372   8.223 -0.4654 -1.1863  1.4354
  655TIP3    H223525   3.736   1.443   8.312  1.5183  0.2330  2.5817
  656TIP3   OH223526   5.803   0.499   7.091 -0.3031  0.2222  0.3894
  656TIP3    H123527   5.844   0.512   7.005  0.0750  0.5023  0.6096
  656TIP3    H223528   5.767   0.585   7.114 -1.4713 -0.1266 -0.0213
  657TIP3   OH223529   2.473   3.018   1.113 -0.6383  0.2311  0.4466
  657TIP3    H123530   2.446   2.943   1.165  1.5505  0.7759  2.5432
  657TIP3    H223531   2.532   2.981   1.047 -0.2266 -0.0008  0.9382
  658TIP3   OH223532   5.346   4.799   7.307  0.3876  0.4939  0.5559
  658TIP3    H123533   5.330   4.831   7.218  0.5769  0.8514  0.6504
  658TIP3    H223534   5.330   4.705   7.301 -1.2931  0.7430  0.5366
  659TIP3   OH223535   2.930   5.479   0.377  0.4948  0.2085 -0.1081
  659TIP3    H123536   2.902   5.398   0.419  0.2101  1.0204  1.3426
  659TIP3    H223537   3.023   5.467   0.360  0.1734 -0.9286 -1.1621
  660TIP3   OH223538   0.337   4.979   7.857  0.4147  0.1527 -0.5629
  660TIP3    H123539   0.421   4.990   7.812  1.0949 -0.1667  0.6014
  660TIP3    H223540   0.345   5.030   7.937 -0.8525  0.8630 -0.8534
  661TIP3   OH223541   4.398   0.649   0.940 -0.0767 -0.0179  0.4000
  661TIP3    H123542   4.416   0.721   0.880  0.1725  0.7064  1.3086
  661TIP3    H223543   4.376   0.575   0.884 -1.0489  0.9538 -0.5437
  662TIP3   OH223544   2.182   4.709   7.300  0.4832  0.0072 -0.1548
  662TIP3    H123545   2.137   4.724   7.217 -0.8322 -0.5024  0.4502
  662TIP3    H223546   2.112   4.696   7.364  1.4799 -0.3441  0.8995
  663TIP3   OH223547   5.673   2.307   1.348  0.3308  0.8535 -0.4598
  663TIP3    H123548   5.700   2.398   1.339 -1.8611  1.8399  1.6877
  663TIP3    H223549   5.594   2.301   1.293  0.8315  0.0301 -1.1084
  664TIP3   OH223550   0.655   2.835   1.252  1.0574 -0.7804 -0.7620
  664TIP3    H123551   0.611   2.756   1.221  0.1032 -0.3819 -0.4660
  664TIP3    H223552   0.681   2.880   1.172  1.1032 -1.1189 -0.9407
  665TIP3   OH223553   5.678   1.349   7.971  0.1485 -0.4316 -0.1967
  665TIP3    H123554   5.634   1.404   7.907  0.7372 -0.6375 -0.7878
  665TIP3    H223555   5.692   1.406   8.046 -3.6595 -1.0630  1.2188
  666TIP3   OH223556   5.529   2.454   0.597  0.1252  0.1381 -0.0362
  666TIP3    H123557   5.624   2.460   0.587  0.1255 -0.1299 -0.1747
  666TIP3    H223558   5.500   2.395   0.528  0.0170 -0.8762  0.8585
  667TIP3   OH223559   3.327   0.096   1.540 -0.1195  0.4018 -0.3267
  667TIP3    H123560   3.318   0.185   1.504 -0.9372  0.4134 -0.1301
  667TIP3    H223561   3.334   0.040   1.463  0.7488  0.6646 -0.4466
  668TIP3   OH223562   6.878   4.251   7.878  0.7231 -0.1647 -0.4332
  668TIP3    H123563   6.931   4.332   7.881  2.1203 -1.0492 -0.1533
  668TIP3    H223564   6.886   4.215   7.967 -0.9034 -0.0057 -0.2030
  669TIP3   OH223565   3.939   5.523   0.480  0.1719 -0.1444  0.9785
  669TIP3    H123566   3.891   5.459   0.532 -1.5033  0.3676  0.1518
  669TIP3    H223567   3.928   5.495   0.390  0.1696  0.8137  0.6644
  670TIP3   OH223568   5.482   4.933   0.696 -0.7710 -0.2456 -0.1303
  670TIP3    H123569   5.557   4.875   0.704 -2.1361 -2.0333  0.2294
  670TIP3    H223570   5.517   5.011   0.652  1.8326  0.0517  2.1883
  671TIP3   OH223571   1.192   4.022   7.507  0.0196  0.1095 -0.4785
  671TIP3    H123572   1.195   3.926   7.502 -0.6540  0.0662 -0.2177
  671TIP3    H223573   1.109   4.040   7.552  0.4017  0.7982 -0.0392
  672TIP3   OH223574   0.098   6.606   1.387 -0.4016  0.3095 -0.0010
  672TIP3    H123575   0.068   6.527   1.341  0.8752 -0.6876  0.8208
  672TIP3    H223576   0.024   6.666   1.381 -0.2979  0.3233 -3.4492
  673TIP3   OH223577   0.673   3.592   1.469  0.0413 -0.4664 -0.0559
  673TIP3    H123578   0.596   3.640   1.500 -1.1012 -1.5657 -1.1021
  673TIP3    H223579   0.671   3.510   1.519  1.0983 -0.1086  0.6017
  674TIP3   OH223580   5.261   6.788   7.859  0.0965  0.3363  0.3774
  674TIP3    H123581   5.225   6.700   7.875 -2.3887  0.8786 -1.4356
  674TIP3    H223582   5.356   6.776   7.858 -0.1761 -2.6335 -1.0923
  675TIP3   OH223583   1.820   4.485   0.484 -0.0326  0.5399 -0.3087
  675TIP3    H123584   1.847   4.531   0.564  0.7907  1.7751 -1.2550
  675TIP3    H223585   1.892   4.425   0.465 -1.5950 -2.0967  1.5456
  676TIP3   OH223586   6.174   3.894   2.528 -0.2358  0.2352  0.1382
  676TIP3    H123587   6.144   3.825   2.469  0.7299 -0.9557  1.0117
  676TIP3    H223588   6.229   3.850   2.592 -0.7196  1.5997  1.5600
  677TIP3   OH223589   2.017   3.890   0.431 -0.3958 -0.1483  0.2315
  677TIP3    H123590   2.053   3.898   0.519 -0.6360  0.8421  0.2445
  677TIP3    H223591   2.091   3.909   0.373  0.0280 -1.7790  0.1663
  678TIP3   OH223592   4.250   4.830   1.385  0.6043 -0.4041  0.3400
  678TIP3    H123593   4.180   4.872   1.436  0.1369  0.3490 -0.8900
  678TIP3    H223594   4.267   4.748   1.432 -0.9154 -0.4829  0.8231
  679TIP3   OH223595   5.933   4.574   7.983  0.9051 -0.0618  0.2832
  679TIP3    H123596   5.989   4.652   7.987  2.5861 -1.1210 -1.0923
  679TIP3    H223597   5.958   4.522   8.060  2.3621 -0.8203 -0.6481
  680TIP3   OH223598   6.308   3.744   0.972  0.2559  0.1280 -0.3479
  680TIP3    H123599   6.247   3.737   0.899  0.6762  2.2272 -0.9767
  680TIP3    H223600   6.335   3.836   0.972  1.6738 -0.2278  1.3267
  681TIP3   OH223601   1.680   1.715   1.841 -0.3978  0.0718 -0.0261
  681TIP3    H123602   1.664   1.803   1.805 -1.7072 -0.7331 -1.5594
  681TIP3    H223603   1.610   1.661   1.804 -0.1643 -1.4472  1.6193
  682TIP3   OH223604   5.095   3.756   0.717 -0.0169  0.1616 -0.0125
  682TIP3    H123605   5.053   3.794   0.639  0.8388  0.5378 -0.3010
  682TIP3    H223606   5.045   3.792   0.791 -0.6378  0.0526 -0.3670
  683TIP3   OH223607   5.652   5.090   7.985  0.2707  0.1984 -0.2566
  683TIP3    H123608   5.720   5.137   7.938 -0.5554  0.6711 -1.0068
  683TIP3    H223609   5.572   5.140   7.969 -0.5542 -1.1883 -0.6947
  684TIP3   OH223610   4.595   3.127   0.571  0.0454  0.4465  0.1757
  684TIP3    H123611   4.654   3.201   0.585 -0.1494  0.7026 -0.3341
  684TIP3    H223612   4.555   3.144   0.486 -0.8617  0.3382  0.5689
  685TIP3   OH223613   4.548   6.535   0.841  0.0370  0.0235 -0.1772
  685TIP3    H123614   4.560   6.446   0.809  1.2413  0.4172 -0.9160
  685TIP3    H223615   4.519   6.525   0.932  1.7386 -1.1244  0.2877
  686TIP3   OH223616   4.549   6.262   1.294 -0.5091 -0.0233  0.9646
  686TIP3    H123617   4.460   6.277   1.260 -0.2079  0.0724  0.2140
  686TIP3    H223618   4.584   6.191   1.240  0.6515  1.3758 -0.1797
  687TIP3   OH223619   5.877   6.794   1.296 -0.0726  0.2279 -0.4869
  687TIP3    H123620   5.907   6.703   1.304  0.5828  0.3805 -1.0972
  687TIP3    H223621   5.796   6.797   1.347  0.0211 -0.6419 -0.2687
  688TIP3   OH223622   2.607   3.585   0.562 -0.7126 -0.2206 -0.4975
  688TIP3    H123623   2.524   3.589   0.609 -1.3056  4.4430 -1.4700
  688TIP3    H223624   2.585   3.546   0.477 -1.6021 -0.3981 -0.1919
  689TIP3   OH223625   2.049   5.825   1.931 -0.7402 -0.0775  0.0563
  689TIP3    H123626   2.103   5.746   1.925  0.0641  0.5373 -1.2432
  689TIP3    H223627   2.046   5.859   1.842 -3.7438 -0.3370 -0.0462
  690TIP3   OH223628   4.761   3.589   8.187  0.0344 -0.8022 -0.4172
  690TIP3    H123629   4.776   3.676   8.225 -1.3796 -0.3849 -0.7466
  690TIP3    H223630   4.808   3.591   8.104  2.9146 -1.6164  1.0645
  691TIP3   OH223631   6.581   5.435   0.523 -0.1910 -0.6144 -0.0672
  691TIP3    H123632   6.669   5.410   0.494 -1.1057 -1.7967 -2.0463
  691TIP3    H223633   6.524   5.366   0.489 -1.9551  0.3479  0.7932
  692TIP3   OH223634   3.509   3.037   7.397  0.1220 -0.1960 -0.5372
  692TIP3    H123635   3.458   2.985   7.460 -0.4751  1.2099  0.1673
  692TIP3    H223636   3.523   2.977   7.323  1.0050 -1.9527  0.9847
  693TIP3   OH223637   3.879   3.556   7.981 -0.7621 -0.6925  0.1245
  693TIP3    H123638   3.857   3.569   7.889 -0.1868  0.7484  0.1609
  693TIP3    H223639   3.801   3.585   8.028 -0.2629  0.6870  0.1381
  694TIP3   OH223640   3.848   2.201   8.472 -0.2700  0.1857  0.4741
  694TIP3    H123641   3.835   2.262   8.400  0.4855  2.2491  1.9717
  694TIP3    H223642   3.839   2.114   8.433  1.4670  1.1656 -2.3835
  695TIP3   OH223643   4.058   1.831   1.580  0.3891 -0.0471  0.0803
  695TIP3    H123644   4.133   1.814   1.636 -0.3952 -1.5231  0.7257
  695TIP3    H223645   4.068   1.770   1.507  1.2661  1.6767 -1.3356
  696TIP3   OH223646   2.711   2.009   1.035  0.3138 -0.7498 -0.6107
  696TIP3    H123647   2.773   2.066   0.989  0.2472  0.1457  0.3675
  696TIP3    H223648   2.700   1.934   0.977 -2.3591  1.7624 -3.7342
  697TIP3   OH223649   1.097   4.539   6.556  0.3333 -0.3110  0.1260
  697TIP3    H123650   1.048   4.522   6.637  1.4143  0.7144  1.0280
  697TIP3    H223651   1.077   4.631   6.535 -0.7726 -0.8496 -1.3972
  698TIP3   OH223652   4.005   6.107   1.482 -0.5262  0.3124  0.2259
  698TIP3    H123653   4.085   6.110   1.429 -0.0500 -0.8645  0.8386
  698TIP3    H223654   4.008   6.188   1.534  1.2230 -0.5086  1.5343
  699TIP3   OH223655   4.549   5.533   7.464  0.0782  0.1558 -0.3158
  699TIP3    H123656   4.615   5.575   7.519 -0.4231  1.1345 -0.4347
  699TIP3    H223657   4.590   5.451   7.435  0.9118  0.3481  0.2878
  700TIP3   OH223658   3.858   3.596   1.037  0.0993  0.3394 -0.5896
  700TIP3    H123659   3.846   3.503   1.053 -0.0427 -0.1287 -3.0410
  700TIP3    H223660   3.772   3.627   1.008  0.1450  1.2605  0.2026
  701TIP3   OH223661   2.714   0.648   1.778 -0.1280 -0.1075 -0.4122
  701TIP3    H123662   2.673   0.711   1.837  0.8904 -1.3575  1.7653
  701TIP3    H223663   2.793   0.693   1.746 -0.3305  0.3538 -0.2737
  702TIP3   OH223664   6.440   4.293   7.768  0.6580 -0.6803  0.0288
  702TIP3    H123665   6.363   4.313   7.821  1.3285  0.7467  0.5143
  702TIP3    H223666   6.413   4.313   7.678 -0.2638 -2.4658 -0.1326
  703TIP3   OH223667   1.421   2.020   8.337 -0.6158 -0.3148 -0.4096
  703TIP3    H123668   1.507   2.055   8.316 -0.6948  1.9593  2.3052
  703TIP3    H223669   1.371   2.028   8.256  1.2973 -0.2934 -1.6394
  704TIP3   OH223670   1.815   4.351   8.228  0.4123  0.3113  0.0094
  704TIP3    H123671   1.787   4.421   8.170  0.0266 -0.6260 -0.9840
  704TIP3    H223672   1.865   4.394   8.296  1.3262  1.4190 -1.3021
  705TIP3   OH223673   3.665   6.630   8.593  0.5390 -0.0067  0.1699
  705TIP3    H123674   3.713   6.570   8.534 -0.2003  0.5169 -1.0068
  705TIP3    H223675   3.704   6.716   8.576 -1.3473  0.6086 -1.5182
  706TIP3   OH223676   5.144   2.099   0.854  0.2805 -0.1854  0.2904
  706TIP3    H123677   5.150   2.105   0.759  0.4003 -1.2625  0.2160
  706TIP3    H223678   5.052   2.120   0.874 -0.6439 -3.0568 -0.3883
  707TIP3   OH223679   5.333   5.380   6.916  0.4586 -0.1136 -0.0620
  707TIP3    H123680   5.336   5.475   6.925  0.7504 -0.2162  1.0598
  707TIP3    H223681   5.248   5.362   6.876 -1.8269  0.3793  3.9931
  708TIP3   OH223682   1.876   2.342   0.432 -0.1018  0.0616 -0.1535
  708TIP3    H123683   1.947   2.392   0.391  0.6204  0.0631  1.0759
  708TIP3    H223684   1.797   2.376   0.390  0.2235  3.0648  1.3570
  709TIP3   OH223685   6.446   3.539   2.404  0.7039  0.9083 -0.1613
  709TIP3    H123686   6.391   3.597   2.351 -1.8512 -1.1913  0.0284
  709TIP3    H223687   6.385   3.483   2.450  3.0163 -1.5855  0.1244
  710TIP3   OH223688   6.390   1.069   1.004  0.2939  0.2327 -0.5068
  710TIP3    H123689   6.349   1.138   1.056 -0.3692  0.4022 -1.2337
  710TIP3    H223690   6.463   1.113   0.959  1.4318 -0.1140  0.9433
  711TIP3   OH223691   0.924   1.061   8.313  0.1167  0.3942  0.2936
  711TIP3    H123692   1.009   1.061   8.356  0.0440  0.2283  0.4382
  711TIP3    H223693   0.937   1.015   8.230  0.1291  0.2278  0.3899
  712TIP3   OH223694   2.379   0.192   7.845 -0.2863  0.7298 -0.5487
  712TIP3    H123695   2.320   0.126   7.880  0.1695  0.4310 -0.3380
  712TIP3    H223696   2.438   0.144   7.788 -0.7703  1.1534 -1.4282
  713TIP3   OH223697   4.803   4.919   8.531 -0.1530 -0.0051 -0.1165
  713TIP3    H123698   4.777   4.859   8.462 -0.0713 -1.9821  1.4887
  713TIP3    H223699   4.827   4.863   8.605  1.3873  1.9493  0.9870
  714TIP3   OH223700   2.961   6.017   1.418 -0.6387  0.5585  0.2344
  714TIP3    H123701   3.023   6.019   1.491 -0.4871 -0.3438  0.1359
  714TIP3    H223702   3.005   6.066   1.348  0.1318 -0.3994  0.0400
  715TIP3   OH223703   4.650   0.121   8.271 -0.0159 -0.4890  0.6153
  715TIP3    H123704   4.594   0.131   8.348  0.4749 -0.1689  0.9310
  715TIP3    H223705   4.710   0.195   8.274 -0.9795  0.4220 -0.9179
  716TIP3   OH223706   6.030   6.875   7.786 -0.0367  0.3377 -0.2642
  716TIP3    H123707   6.125   6.881   7.775  0.1275  0.3793  1.0375
  716TIP3    H223708   6.018   6.805   7.850 -0.9458 -0.2235 -1.0263
  717TIP3   OH223709   2.365   2.485   0.243  0.2964 -0.2631 -0.5293
  717TIP3    H123710   2.427   2.544   0.287 -0.3851 -0.3443  0.5846
  717TIP3    H223711   2.382   2.399   0.281  0.3303 -0.5249 -1.1225
  718TIP3   OH223712   6.276   2.666   1.713  0.0487 -0.4086 -1.2086
  718TIP3    H123713   6.369   2.657   1.693  0.7981 -0.6514  1.9111
  718TIP3    H223714   6.262   2.760   1.723  0.5714 -0.4811  0.5649
  719TIP3   OH223715   4.341   0.128   0.085  0.0190 -0.1952  0.0801
  719TIP3    H123716   4.281   0.053   0.093  0.7474 -0.8624 -0.5548
  719TIP3    H223717   4.402   0.117   0.158 -0.7767  0.6464  0.9022
  720TIP3   OH223718   4.201   3.407   8.076 -0.3626  0.0542 -0.5430
  720TIP3    H123719   4.184   3.486   8.128 -1.5803 -1.2469  1.1882
  720TIP3    H223720   4.174   3.335   8.134  1.0479 -1.6571 -1.9109
  721TIP3   OH223721   3.139   6.464   0.986  0.3079 -0.3927  0.0588
  721TIP3    H123722   3.152   6.543   1.039  1.9149 -0.1755 -0.6021
  721TIP3    H223723   3.054   6.478   0.945  0.7118  1.2078 -0.3283
  722TIP3   OH223724   0.051   3.746   7.215 -0.0208  0.1421  0.1289
  722TIP3    H123725   0.093   3.709   7.292  0.5746 -0.9174 -0.6731
  722TIP3    H223726  -0.021   3.799   7.249  0.2470 -0.2945  1.4006
  723TIP3   OH223727   5.985   5.383   1.117 -0.0417  0.2373 -0.6885
  723TIP3    H123728   6.051   5.357   1.181  0.5020 -0.2667 -1.4338
  723TIP3    H223729   5.946   5.463   1.153 -0.3778 -0.5245  0.7029
  724TIP3   OH223730   2.228   2.893   0.870 -0.5273  0.5205  0.6154
  724TIP3    H123731   2.313   2.936   0.861 -0.8080  1.3453  1.6823
  724TIP3    H223732   2.244   2.803   0.844  0.6346  0.7116  0.6029
  725TIP3   OH223733   3.490   2.863   0.754 -0.5922  0.1724 -0.1713
  725TIP3    H123734   3.495   2.946   0.707 -2.7305  0.3144 -0.2361
  725TIP3    H223735   3.477   2.887   0.845 -0.3382 -0.0898 -0.0645
  726TIP3   OH223736   6.338   6.268   1.490  0.8078  0.2378  0.3632
  726TIP3    H123737   6.295   6.197   1.443 -0.5000 -1.8100  4.2418
  726TIP3    H223738   6.288   6.346   1.465 -0.6588 -0.9541 -0.6218
  727TIP3   OH223739   1.868   3.878   8.227 -0.3610 -0.1774 -0.4962
  727TIP3    H123740   1.899   3.837   8.309  0.9969  0.3106 -0.7422
  727TIP3    H223741   1.773   3.871   8.232 -0.4111  0.9549  1.7408
  728TIP3   OH223742   2.868   6.881   6.400 -0.3290 -0.3121 -0.3552
  728TIP3    H123743   2.957   6.885   6.434 -0.6573 -1.6966  0.7705
  728TIP3    H223744   2.822   6.822   6.461 -1.6017 -0.8816 -1.8093
  729TIP3   OH223745   5.215   6.286   1.571 -0.2180 -0.0047 -0.0023
  729TIP3    H123746   5.193   6.199   1.537 -1.8000  0.3687 -0.0002
  729TIP3    H223747   5.155   6.299   1.644 -0.1522  1.1706 -0.1395
  730TIP3   OH223748   2.520   2.256   7.519 -0.3767 -0.1100 -0.4329
  730TIP3    H123749   2.495   2.214   7.601 -2.0701 -0.9607 -1.3132
  730TIP3    H223750   2.442   2.248   7.464  0.3809  1.3159 -1.7876
  731TIP3   OH223751   6.579   2.010   6.701 -0.1170 -0.5833 -0.4058
  731TIP3    H123752   6.565   2.101   6.674 -1.8984 -0.8318 -0.4135
  731TIP3    H223753   6.628   2.017   6.783 -0.3394  0.3931 -0.3427
  732TIP3   OH223754   2.117   6.331   0.886  0.0949 -0.1437 -0.7230
  732TIP3    H123755   2.198   6.311   0.840  0.6877  1.2303 -0.3123
  732TIP3    H223756   2.058   6.260   0.861  1.8512 -2.0059  0.1161
  733TIP3   OH223757   2.811   1.723   1.532  0.0974 -0.0726 -0.7394
  733TIP3    H123758   2.866   1.741   1.608 -0.6076 -0.0549 -0.2221
  733TIP3    H223759   2.794   1.809   1.494 -0.9545  0.1076  0.0919
  734TIP3   OH223760   2.402   0.440   2.022  0.9930  0.4554 -0.3197
  734TIP3    H123761   2.380   0.522   2.067 -0.9494 -0.9585  1.4809
  734TIP3    H223762   2.493   0.424   2.048  1.4973  2.1278 -0.9103
  735TIP3   OH223763   3.111   6.124   6.675  0.1712  0.1603  0.2346
  735TIP3    H123764   3.190   6.071   6.690 -0.1131 -0.5474 -0.6773
  735TIP3    H223765   3.132   6.209   6.713  0.1139 -0.9794  3.0142
  736TIP3   OH223766   4.137   6.505   6.836 -0.7103  0.3043  0.0430
  736TIP3    H123767   4.072   6.484   6.902 -1.8366  0.1660 -1.0669
  736TIP3    H223768   4.092   6.563   6.775  0.5500  1.1162 -0.1676
  737TIP3   OH223769   6.771   6.323   7.035 -0.0414  0.0689 -0.2315
  737TIP3    H123770   6.746   6.321   6.942  0.4219 -3.0672 -0.4196
  737TIP3    H223771   6.687   6.320   7.082 -0.2830 -1.9583 -0.6894
  738TIP3   OH223772   6.754   6.359   1.464 -0.0165  0.2237  0.2108
  738TIP3    H123773   6.692   6.315   1.405  0.2699 -0.6461  0.5433
  738TIP3    H223774   6.718   6.343   1.551  1.1038 -1.0529  0.4844
  739TIP3   OH223775   0.216   0.852   0.259  0.5176 -0.1944  0.0118
  739TIP3    H123776   0.128   0.865   0.295  0.2430 -1.7990  0.0057
  739TIP3    H223777   0.201   0.815   0.172  1.1974  2.1192 -1.1620
  740TIP3   OH223778   6.034   1.065   1.181 -0.1015 -0.9473 -0.2738
  740TIP3    H123779   5.954   1.028   1.219 -1.6524  1.5551 -0.8593
  740TIP3    H223780   6.086   0.989   1.156 -2.2361 -2.6776  0.2299
  741TIP3   OH223781   0.028   3.507   8.020  1.0330  0.0352  0.0720
  741TIP3    H123782   0.043   3.477   7.930 -0.3506  2.2878 -0.9861
  741TIP3    H223783   0.082   3.586   8.028 -1.6127  1.9980 -0.1437
  742TIP3   OH223784   1.639   1.009   0.530  0.3243 -0.5165 -0.2460
  742TIP3    H123785   1.596   1.094   0.521 -1.3041 -1.1919  0.6910
  742TIP3    H223786   1.625   0.966   0.446 -0.9419 -0.7456  0.0555
  743TIP3   OH223787   3.726   4.934   7.793  0.1239  0.4171 -0.1342
  743TIP3    H123788   3.812   4.935   7.751  0.2877 -1.4169  0.0585
  743TIP3    H223789   3.693   5.023   7.781  1.6460  0.9162 -1.0261
  744TIP3   OH223790   3.810   0.467   1.905  0.1412 -0.3091  0.0812
  744TIP3    H123791   3.815   0.508   1.992 -1.1983 -3.4132  1.7872
  744TIP3    H223792   3.897   0.430   1.892 -0.0996 -1.1759  0.8607
  745TIP3   OH223793   1.440   4.468   2.286 -0.2551 -0.1951  0.0848
  745TIP3    H123794   1.462   4.552   2.326 -1.5995  0.6819 -0.9281
  745TIP3    H223795   1.453   4.404   2.355 -2.2347  1.2285  1.8889
  746TIP3   OH223796   6.734   4.626   0.103  0.2884 -0.2667  0.1754
  746TIP3    H123797   6.695   4.625   0.016 -0.0568  0.0853  0.3225
  746TIP3    H223798   6.814   4.679   0.093 -0.8121  1.5439  0.5009
  747TIP3   OH223799   4.142   6.416   0.117 -0.2986 -0.6038  0.0479
  747TIP3    H123800   4.101   6.499   0.142 -0.0012 -0.9166  1.6286
  747TIP3    H223801   4.140   6.362   0.196  0.6024 -1.6662 -0.6152
  748TIP3   OH223802   3.132   6.848   8.451  0.4294 -0.5836 -0.1138
  748TIP3    H123803   3.203   6.818   8.507  1.4113  0.8124 -0.5413
  748TIP3    H223804   3.165   6.837   8.362  0.0478 -0.1036 -0.3231
  749TIP3   OH223805   6.336   5.162   5.928  0.2231  0.7794  0.8758
  749TIP3    H123806   6.402   5.190   5.864 -0.4463 -2.1178 -1.2897
  749TIP3    H223807   6.384   5.110   5.992  0.2614 -0.2079  0.0579
  750TIP3   OH223808   3.780   4.526   8.050 -0.1019  0.1546 -1.1536
  750TIP3    H123809   3.858   4.562   8.091 -0.1354  1.5418 -2.2521
  750TIP3    H223810   3.804   4.517   7.958 -0.3464 -2.0062 -1.0760
  751TIP3   OH223811   0.075   5.101   7.887 -0.4119 -0.1813  0.4860
  751TIP3    H123812  -0.006   5.051   7.892 -0.6995 -0.4162 -3.4028
  751TIP3    H223813   0.145   5.036   7.899 -0.7471 -0.3399  1.7062
  752TIP3   OH223814   0.513   2.281   1.394  0.0381  0.1647 -0.4619
  752TIP3    H123815   0.491   2.214   1.459  1.2327 -0.3094 -0.5179
  752TIP3    H223816   0.535   2.231   1.315  0.7318  0.6322 -0.5691
  753TIP3   OH223817   5.032   2.076   8.152  0.3890 -0.0824 -0.2835
  753TIP3    H123818   5.008   2.166   8.174 -0.1839 -0.4234  0.5243
  753TIP3    H223819   5.101   2.054   8.215 -0.3112 -0.6038  0.3234
  754TIP3   OH223820   6.379   2.839   6.390  0.8846  0.3153 -0.2749
  754TIP3    H123821   6.297   2.830   6.341  0.7996 -2.9186  0.2416
  754TIP3    H223822   6.446   2.806   6.329  1.1591 -1.0585  0.7228
  755TIP3   OH223823   1.788   3.413   1.521  0.1918 -0.3497  0.4062
  755TIP3    H123824   1.714   3.366   1.560 -0.5229 -0.5941 -1.1788
  755TIP3    H223825   1.848   3.344   1.492  0.1934 -0.2106  0.0741
  756TIP3   OH223826   6.013   3.572   7.756 -0.0858  0.1298  0.1675
  756TIP3    H123827   6.021   3.629   7.833  1.0820 -0.3294  0.4135
  756TIP3    H223828   6.087   3.596   7.701  0.1436 -0.8091  0.0505
  757TIP3   OH223829   2.192   1.538   7.567  0.2962 -0.3226  0.3483
  757TIP3    H123830   2.273   1.534   7.618 -1.4211 -0.7735  3.3067
  757TIP3    H223831   2.133   1.476   7.611 -2.2632  1.3753 -0.4698
  758TIP3   OH223832   4.500   5.210   7.956  0.2520 -0.3387 -0.1666
  758TIP3    H123833   4.582   5.245   7.991  0.4722 -0.6901 -0.3292
  758TIP3    H223834   4.440   5.285   7.957  1.2939  0.6378 -2.3569
  759TIP3   OH223835   2.799   2.189   7.905 -0.1387 -0.3647 -0.2590
  759TIP3    H123836   2.835   2.194   7.993 -0.7722  0.4704 -0.0435
  759TIP3    H223837   2.872   2.158   7.852  0.4183 -0.3071  0.4581
  760TIP3   OH223838   2.392   5.442   1.662  0.3921  0.3438  0.5644
  760TIP3    H123839   2.447   5.371   1.630 -0.8857  0.0658 -1.1495
  760TIP3    H223840   2.432   5.467   1.746  2.8908 -0.0570 -0.4128
  761TIP3   OH223841   2.703   6.105   1.521 -0.1893  0.4158 -0.0195
  761TIP3    H123842   2.668   6.018   1.502  2.3995 -1.3705  2.4401
  761TIP3    H223843   2.793   6.102   1.488  0.4149  1.5979  1.4284
  762TIP3   OH223844   3.444   5.359   7.561 -0.3943  0.5118  0.5280
  762TIP3    H123845   3.533   5.386   7.584 -0.8277 -0.0387  3.1605
  762TIP3    H223846   3.388   5.431   7.590 -0.9225  0.1655  0.3918
  763TIP3   OH223847   4.776   4.545   2.294 -0.0900  0.0844  0.4175
  763TIP3    H123848   4.787   4.451   2.307 -2.0480 -0.4079 -1.0267
  763TIP3    H223849   4.800   4.560   2.203  1.3135  1.2332  0.9333
  764TIP3   OH223850   4.219   6.053   1.770 -0.3306  0.6677  0.0231
  764TIP3    H123851   4.160   6.073   1.843 -1.5395  0.9991 -0.9969
  764TIP3    H223852   4.305   6.043   1.810 -0.9283  1.0333  1.4607
  765TIP3   OH223853   2.119   4.367   1.192 -0.0626  0.4828 -0.5455
  765TIP3    H123854   2.185   4.335   1.130 -1.8305 -1.0983 -1.7422
  765TIP3    H223855   2.039   4.375   1.139 -1.1567  1.0649  1.1170
  766TIP3   OH223856   5.618   6.479   6.207  0.1357 -0.0030 -0.5597
  766TIP3    H123857   5.546   6.538   6.184 -1.7073 -1.8700  0.0863
  766TIP3    H223858   5.577   6.393   6.215  2.2879 -0.9952  0.7974
  767TIP3   OH223859   6.658   3.534   0.277  0.4700  0.0221  0.7732
  767TIP3    H123860   6.702   3.592   0.339 -0.0410 -1.8368  2.9785
  767TIP3    H223861   6.564   3.549   0.292  0.2895 -2.2922  2.4190
  768TIP3   OH223862   0.017   5.630   0.919 -0.4015  0.8187  0.8195
  768TIP3    H123863   0.061   5.601   0.840 -1.3701  0.5332  0.3634
  768TIP3    H223864   0.006   5.550   0.971 -2.6414  0.3403 -0.2254
  769TIP3   OH223865   6.513   2.032   0.638  0.3399 -0.3061 -0.6122
  769TIP3    H123866   6.467   2.070   0.712  1.1448  2.3774 -1.3695
  769TIP3    H223867   6.583   1.980   0.677  0.6573  0.9266  0.5376
  770TIP3   OH223868   6.521   5.162   1.625 -0.7525 -0.0547  0.2302
  770TIP3    H123869   6.564   5.120   1.550  2.3738 -0.1418  1.9136
  770TIP3    H223870   6.510   5.092   1.689 -0.6526  0.5719  0.9486
  771TIP3   OH223871   0.711   6.150   2.283  0.0704 -0.1483  0.0797
  771TIP3    H123872   0.803   6.126   2.272 -0.4145 -1.4068 -1.6429
  771TIP3    H223873   0.713   6.242   2.310  1.8253 -0.2099  0.2601
  772TIP3   OH223874   0.425   4.089   7.386 -0.6186 -0.8148  0.0831
  772TIP3    H123875   0.347   4.125   7.344 -0.6838 -0.8447  0.1801
  772TIP3    H223876   0.491   4.089   7.316  0.0975  1.7094  0.6625
  773TIP3   OH223877   1.086   6.737   1.465 -0.2708 -0.1545  0.4167
  773TIP3    H123878   1.170   6.756   1.507 -0.2919 -0.7016  0.7224
  773TIP3    H223879   1.109   6.704   1.378 -0.1847  0.0658  0.3569
  774TIP3   OH223880   5.987   2.778   7.067  0.1236  0.2223  0.4380
  774TIP3    H123881   5.982   2.689   7.032 -2.2875 -0.1170  1.4945
  774TIP3    H223882   6.043   2.770   7.144  0.8368 -0.1216 -0.0947
  775TIP3   OH223883   0.539   6.242   7.856 -0.5961  0.7747  0.1219
  775TIP3    H123884   0.458   6.196   7.879 -0.0864  0.8829  2.4362
  775TIP3    H223885   0.595   6.230   7.933  0.8236  2.4414 -0.5903
  776TIP3   OH223886   5.561   4.943   5.976 -0.0270 -0.1966  0.0879
  776TIP3    H123887   5.466   4.927   5.975 -0.4640  2.0023 -1.2657
  776TIP3    H223888   5.569   5.034   6.005  1.7028 -0.4583  0.5040
  777TIP3   OH223889   2.204   4.925   1.899 -0.7295  0.3632  0.1639
  777TIP3    H123890   2.219   4.871   1.976  0.5070  1.6380  0.8682
  777TIP3    H223891   2.226   4.869   1.825  3.1893  0.6094  0.9439
  778TIP3   OH223892   1.756   3.061   6.948 -0.8238 -0.1561 -0.2562
  778TIP3    H123893   1.836   3.026   6.911 -1.0920 -1.8636  0.6960
  778TIP3    H223894   1.775   3.070   7.042 -2.1346 -1.8894  0.2241
  779TIP3   OH223895   2.689   6.772   2.444 -1.1989  0.1400  0.4989
  779TIP3    H123896   2.742   6.818   2.379  1.2994  0.3137  2.4977
  779TIP3    H223897   2.629   6.839   2.477  0.2020  1.1471  1.1012
  780TIP3   OH223898   3.644   3.743   8.402 -0.0276 -0.0819 -0.0776
  780TIP3    H123899   3.595   3.820   8.432  0.3552 -0.3083  1.1963
  780TIP3    H223900   3.662   3.694   8.482  1.1815 -0.6439 -0.6686
  781TIP3   OH223901   3.026   4.436   0.904  0.0784 -0.3968 -0.3256
  781TIP3    H123902   3.072   4.400   0.980  0.5056 -0.4462 -0.6000
  781TIP3    H223903   2.946   4.386   0.897  0.7088 -1.3714 -0.7656
  782TIP3   OH223904   3.882   4.556   2.325  0.6073 -0.1636  0.1153
  782TIP3    H123905   3.825   4.606   2.266  1.4261 -1.2885 -1.7382
  782TIP3    H223906   3.844   4.468   2.326  0.8806 -0.2765  0.9049
  783TIP3   OH223907   4.595   4.992   0.211  0.1397 -0.0527 -0.1058
  783TIP3    H123908   4.634   5.050   0.277 -0.4341  0.2668 -0.0412
  783TIP3    H223909   4.666   4.933   0.186  0.8040  0.8183 -0.3381
  784TIP3   OH223910   0.315   4.055   7.664  0.6126  0.4131 -0.0181
  784TIP3    H123911   0.242   3.994   7.652  0.2537  0.7064  0.6305
  784TIP3    H223912   0.334   4.086   7.576 -1.6719  2.1737  0.0261
  785TIP3   OH223913   4.333   5.447   7.948  0.5358  0.1102  0.2677
  785TIP3    H123914   4.372   5.516   7.894 -1.4884  1.3149  0.2089
  785TIP3    H223915   4.326   5.486   8.035 -1.7505  0.5204 -0.0393
  786TIP3   OH223916   3.788   2.793   1.545  0.1056 -0.1836 -0.2753
  786TIP3    H123917   3.725   2.828   1.609  0.5001  3.2490 -1.5723
  786TIP3    H223918   3.865   2.769   1.597  0.6117  2.9859  0.6079
  787TIP3   OH223919   5.220   1.170   2.019  0.2352  0.2973  0.3653
  787TIP3    H123920   5.212   1.083   2.059  1.6404 -0.2243 -0.4073
  787TIP3    H223921   5.200   1.231   2.090  0.4443 -0.6304  1.2469
  788TIP3   OH223922   4.389   1.200   1.265  0.0665  0.1539 -0.2918
  788TIP3    H123923   4.369   1.110   1.239 -0.8497  0.4724 -0.6969
  788TIP3    H223924   4.483   1.209   1.249  0.2421 -0.8469  0.1142
  789TIP3   OH223925   3.976   5.338   6.936  0.5198 -0.2269 -0.1983
  789TIP3    H123926   3.943   5.316   6.849  0.7031  0.1314 -0.3627
  789TIP3    H223927   3.981   5.434   6.936 -0.1670 -0.1877  0.4659
  790TIP3   OH223928   0.544   4.583   2.307  0.1541  0.1093 -0.3750
  790TIP3    H123929   0.524   4.504   2.357  0.4979 -0.4075 -1.0524
  790TIP3    H223930   0.470   4.641   2.325 -0.4013 -0.5914 -0.3611
  791TIP3   OH223931   3.451   5.254   8.432 -0.2522  0.2059  0.3335
  791TIP3    H123932   3.431   5.172   8.387  0.1525  0.4379 -0.2756
  791TIP3    H223933   3.371   5.307   8.423 -0.1902  0.2310 -0.0665
  792TIP3   OH223934   1.319   0.271   1.617 -0.3207  0.0329  0.2034
  792TIP3    H123935   1.408   0.256   1.585 -0.6202 -2.0372  0.2120
  792TIP3    H223936   1.292   0.187   1.655 -1.8055  0.9858  1.3965
  793TIP3   OH223937   2.773   0.489   6.489 -0.2281  0.2804 -0.0899
  793TIP3    H123938   2.812   0.403   6.472  0.2248  0.5078 -0.2048
  793TIP3    H223939   2.679   0.474   6.480 -0.2662 -0.5406  1.3495
  794TIP3   OH223940   0.108   0.975   1.373 -0.7550  0.4452 -0.1136
  794TIP3    H123941   0.192   0.937   1.397 -0.0246  1.5601 -0.8347
  794TIP3    H223942   0.088   1.036   1.444  0.1144  1.7649 -0.9536
  795TIP3   OH223943   1.193   3.218   0.105  1.0788  0.4141 -0.5502
  795TIP3    H123944   1.273   3.182   0.144  1.0029 -1.2246 -1.8207
  795TIP3    H223945   1.212   3.224   0.012  1.0693  3.8101 -0.4688
  796TIP3   OH223946   0.818   6.656   8.159 -0.0547  0.1648  0.5549
  796TIP3    H123947   0.886   6.664   8.092  0.0775  0.6811  0.7508
  796TIP3    H223948   0.736   6.668   8.111 -0.0583 -1.1381  0.1968
  797TIP3   OH223949   6.449   6.060   0.527  0.6831  0.3782 -0.7353
  797TIP3    H123950   6.499   6.131   0.567  2.5943 -0.8673 -0.8109
  797TIP3    H223951   6.512   5.989   0.515 -0.6981 -0.6396 -2.5028
  798TIP3   OH223952   5.403   4.872   8.451 -0.1437  0.1708 -1.2377
  798TIP3    H123953   5.470   4.899   8.389 -0.3882  0.7300 -1.2610
  798TIP3    H223954   5.411   4.933   8.524  0.8150 -1.0839 -0.2404
  799TIP3   OH223955   6.842   2.199   0.926  0.4964 -0.5218 -0.1897
  799TIP3    H123956   6.870   2.202   1.018  1.7764  1.1321 -0.5760
  799TIP3    H223957   6.747   2.186   0.930  0.4892 -0.1940  1.3765
  800TIP3   OH223958   6.666   5.474   6.469 -0.0583 -0.2266  0.5442
  800TIP3    H123959   6.592   5.508   6.420 -0.7193 -2.4489 -0.1446
  800TIP3    H223960   6.743   5.512   6.427 -0.6675 -1.0139 -1.4070
  801TIP3   OH223961   2.215   3.133   0.250  1.1775  0.4048 -0.1809
  801TIP3    H123962   2.305   3.127   0.220  0.3676 -1.2432 -2.5936
  801TIP3    H223963   2.213   3.083   0.332  2.4840  0.7850  0.1060
  802TIP3   OH223964   4.882   4.313   2.417 -0.2750 -0.0986 -0.2604
  802TIP3    H123965   4.861   4.314   2.511 -0.6983 -0.0338 -0.3516
  802TIP3    H223966   4.968   4.354   2.411 -0.4310  0.2814  0.0560
  803TIP3   OH223967   5.947   0.424   1.495  0.1448 -0.4853  0.0774
  803TIP3    H123968   5.889   0.465   1.559  0.2697  2.5630 -1.5732
  803TIP3    H223969   6.033   0.460   1.515  0.2574  0.1782 -1.4880
  804TIP3   OH223970   5.585   0.280   6.583  0.4348 -0.6118 -0.3202
  804TIP3    H123971   5.596   0.373   6.561 -1.6960 -0.5353 -1.2421
  804TIP3    H223972   5.549   0.240   6.504 -2.1897 -1.4450  1.1840
  805TIP3   OH223973   3.803   3.287   2.301 -0.0714 -0.1416 -0.7053
  805TIP3    H123974   3.844   3.236   2.231 -0.7100  1.7562 -2.5871
  805TIP3    H223975   3.877   3.320   2.353  0.3913 -1.8684 -0.2033
  806TIP3   OH223976   4.421   1.633   1.393  0.3455  0.3436 -0.5160
  806TIP3    H123977   4.383   1.548   1.414 -0.6510  0.5610 -1.3649
  806TIP3    H223978   4.485   1.615   1.324  0.2425  0.2639 -0.5900
  807TIP3   OH223979   5.240   2.570   0.457 -0.2011 -0.7634 -0.0816
  807TIP3    H123980   5.149   2.600   0.462  0.2287  0.6774 -0.3794
  807TIP3    H223981   5.269   2.563   0.548 -0.6966 -1.5245  0.0203
  808TIP3   OH223982   3.542   0.518   7.552 -0.0268 -0.1582 -0.3341
  808TIP3    H123983   3.565   0.426   7.537 -1.4485 -0.3528 -1.4823
  808TIP3    H223984   3.557   0.561   7.468 -1.2870  0.2304 -0.3838
  809TIP3   OH223985   0.794   4.946   1.173 -0.3177 -0.6993  0.2591
  809TIP3    H123986   0.862   4.931   1.238 -2.1773 -1.3489  2.1777
  809TIP3    H223987   0.816   4.888   1.101  1.2910 -0.6664  0.6876
  810TIP3   OH223988   2.829   2.659   7.059  0.3101 -0.2131  0.4853
  810TIP3    H123989   2.775   2.587   7.092  0.8571 -1.1515 -0.5986
  810TIP3    H223990   2.800   2.735   7.108 -1.3170 -0.8839  0.6164
  811TIP3   OH223991   1.683   0.798   1.362  0.5753  0.1356  0.0036
  811TIP3    H123992   1.681   0.853   1.440  0.2058  0.3798 -0.1767
  811TIP3    H223993   1.766   0.751   1.369  0.5365  0.1358  0.5565
  812TIP3   OH223994   4.090   5.375   1.786 -0.1545 -0.2313  0.3312
  812TIP3    H123995   4.073   5.396   1.878  2.1721 -1.0731  1.0185
  812TIP3    H223996   4.135   5.452   1.752 -0.7465 -0.0422 -0.0407
  813TIP3   OH223997   2.733   4.560   8.437  0.1021 -0.0094  0.1492
  813TIP3    H123998   2.766   4.492   8.378  0.4213 -0.5819  0.9698
  813TIP3    H223999   2.739   4.640   8.386  1.1790 -0.3638 -0.3176
  814TIP3   OH224000   0.741   5.973   1.041  0.2589 -0.8424  0.4385
  814TIP3    H124001   0.706   6.049   1.088 -0.6429  0.1698 -1.7233
  814TIP3    H224002   0.762   5.910   1.110 -0.4497  0.7536  2.2095
  815TIP3   OH224003   6.685   2.773   7.575 -0.5316 -0.5089  0.5664
  815TIP3    H124004   6.772   2.781   7.536 -0.0173 -0.9765  1.5736
  815TIP3    H224005   6.662   2.680   7.564 -0.0860 -0.7959  1.9480
  816TIP3   OH224006   2.835   0.304   6.737 -0.2709  0.0899 -0.5042
  816TIP3    H124007   2.777   0.266   6.803  0.3766  1.3831  0.8658
  816TIP3    H224008   2.920   0.262   6.753  0.0528  0.8962 -0.0420
  817TIP3   OH224009   1.666   3.794   1.528  0.1244 -0.3422 -0.2231
  817TIP3    H124010   1.627   3.747   1.455  1.3830  0.8835 -1.7470
  817TIP3    H224011   1.681   3.883   1.495  1.1264  0.1346  1.3746
  818TIP3   OH224012   2.221   6.158   0.402  0.7943 -0.5796 -0.2385
  818TIP3    H124013   2.311   6.157   0.437  0.5304  2.1888  0.7741
  818TIP3    H224014   2.166   6.143   0.479  0.2824 -3.2037 -0.9906
  819TIP3   OH224015   4.853   0.562   0.101  0.3583 -0.7881 -0.4344
  819TIP3    H124016   4.876   0.589   0.012  0.2991 -1.1277 -0.5565
  819TIP3    H224017   4.938   0.548   0.144  0.4390 -2.9541 -1.1687
  820TIP3   OH224018   0.668   3.794   0.806  0.4767 -0.7059 -0.2091
  820TIP3    H124019   0.635   3.827   0.722  1.7071  2.1006  0.2887
  820TIP3    H224020   0.763   3.808   0.802  0.4213  0.9543  2.1540
  821TIP3   OH224021   6.821   1.605   7.684 -0.0209 -0.2392 -0.2384
  821TIP3    H124022   6.813   1.686   7.735  2.4219 -1.0314  1.6272
  821TIP3    H224023   6.753   1.549   7.719 -0.0226  0.1200  0.3557
  822TIP3   OH224024   4.417   6.615   1.966  0.2002  0.2708  0.4668
  822TIP3    H124025   4.443   6.645   1.879  1.7989 -1.8882  0.1218
  822TIP3    H224026   4.500   6.606   2.013 -0.5449  0.0835  1.7720
  823TIP3   OH224027   6.858   0.573   1.501  0.0660 -0.4936 -0.2509
  823TIP3    H124028   6.829   0.578   1.410 -0.1337 -0.1056 -0.1667
  823TIP3    H224029   6.776   0.572   1.552  0.1809 -0.5174 -0.0670
  824TIP3   OH224030   4.957   1.341   7.057  0.3281  0.1410 -0.9222
  824TIP3    H124031   5.045   1.377   7.049 -0.3384  2.1760 -0.0246
  824TIP3    H224032   4.907   1.384   6.988 -0.4279  0.7142 -0.0401
  825TIP3   OH224033   6.780   1.340   2.077  0.0648  0.1102 -0.7354
  825TIP3    H124034   6.804   1.413   2.134 -2.1779  1.1684 -1.0239
  825TIP3    H224035   6.725   1.380   2.009 -2.0439 -1.9548 -0.3597
  826TIP3   OH224036   2.891   1.490   1.428 -0.1282  0.2550 -0.0683
  826TIP3    H124037   2.900   1.436   1.507 -0.8159 -0.1335 -0.2506
  826TIP3    H224038   2.860   1.575   1.461  0.5855  0.4291  0.1781
  827TIP3   OH224039   5.429   0.762   7.610 -0.4119  0.2195  0.1404
  827TIP3    H124040   5.436   0.816   7.689  1.5032  2.5994 -1.5374
  827TIP3    H224041   5.334   0.754   7.595 -0.7798  1.0839  1.7656
  828TIP3   OH224042   2.728   4.846   6.388 -0.2418 -0.0571  0.0767
  828TIP3    H124043   2.812   4.807   6.364  0.9197  1.8787  0.7284
  828TIP3    H224044   2.675   4.840   6.308  0.9890 -0.1722 -0.7576
  829TIP3   OH224045   1.463   4.353   7.785  0.8083 -0.2972  0.9491
  829TIP3    H124046   1.472   4.445   7.760 -0.9745  0.1040  1.6649
  829TIP3    H224047   1.462   4.355   7.881 -0.8992 -0.8626  0.9571
  830TIP3   OH224048   0.252   1.163   1.959 -0.2888 -0.1283  0.5210
  830TIP3    H124049   0.237   1.126   1.872 -0.5010 -0.6847  0.7908
  830TIP3    H224050   0.190   1.117   2.016 -1.8612  1.8732  0.5767
  831TIP3   OH224051   2.965   2.225   0.251 -0.0070  0.4956 -0.1168
  831TIP3    H124052   3.038   2.243   0.310  0.1348  0.1237 -0.1801
  831TIP3    H224053   3.003   2.175   0.179 -0.7333 -1.8065  1.0074
  832TIP3   OH224054   3.351   2.946   7.614  0.1719 -0.0240  0.2605
  832TIP3    H124055   3.275   2.951   7.671  0.9787 -0.4904  1.4095
  832TIP3    H224056   3.423   2.982   7.666  1.2827 -2.0360  0.1986
  833TIP3   OH224057   1.569   6.296   2.042  0.0729 -0.2767 -0.1801
  833TIP3    H124058   1.590   6.237   2.114  0.5411  1.2478  1.0046
  833TIP3    H224059   1.493   6.345   2.073  0.0076  0.0827 -0.9010
  834TIP3   OH224060   0.968   3.409   1.575  0.9430 -0.1116  0.1177
  834TIP3    H124061   1.046   3.357   1.558  1.7744  0.8579  0.8409
  834TIP3    H224062   0.918   3.358   1.639  1.3225 -0.4191  0.1709
  835TIP3   OH224063   1.447   4.822   0.454 -0.1777 -0.0465  0.0461
  835TIP3    H124064   1.363   4.805   0.411  0.6569  0.0544 -1.7151
  835TIP3    H224065   1.489   4.736   0.459  1.2482  0.3672 -2.7890
  836TIP3   OH224066   1.582   3.529   7.800 -0.2971  0.3633  0.0042
  836TIP3    H124067   1.499   3.524   7.847 -1.2679 -1.5753 -1.7434
  836TIP3    H224068   1.599   3.439   7.771  2.0842  0.8343 -0.2714
  837TIP3   OH224069   2.704   1.816   6.962 -0.0197  0.6690  0.0686
  837TIP3    H124070   2.761   1.776   6.896  0.4128  0.8025  0.3595
  837TIP3    H224071   2.682   1.744   7.021 -0.3958  0.5526 -0.2139
  838TIP3   OH224072   2.396   6.119   0.772 -0.4423 -0.2882 -0.6845
  838TIP3    H124073   2.488   6.146   0.772 -0.2689 -0.8375  0.3813
  838TIP3    H224074   2.351   6.191   0.727  0.4599  0.1389 -0.9373
  839TIP3   OH224075   0.966   4.096   1.691 -0.0875 -0.2921  0.0301
  839TIP3    H124076   1.038   4.160   1.686  0.7753 -1.3078 -0.8706
  839TIP3    H224077   0.893   4.139   1.646  0.4500  0.1165 -0.4723
  840TIP3   OH224078   2.251   4.336   0.144  0.0135  0.1628 -0.3055
  840TIP3    H124079   2.296   4.362   0.225  1.0472  0.6832 -1.0278
  840TIP3    H224080   2.282   4.246   0.128  0.4835  0.3718 -0.5810
  841TIP3   OH224081   1.539   1.389   8.179 -0.1811 -0.4107  0.5767
  841TIP3    H124082   1.496   1.328   8.118  1.1044 -0.2410 -0.5625
  841TIP3    H224083   1.615   1.340   8.211  0.4266  0.3196  0.2564
  842TIP3   OH224084   4.056   1.585   1.175 -0.7388  0.0416  0.3180
  842TIP3    H124085   4.100   1.600   1.259  0.1698  0.6880 -0.2578
  842TIP3    H224086   4.083   1.497   1.149 -0.1678  0.2519  0.1972
  843TIP3   OH224087   0.400   3.818   0.902  0.1407 -0.0329 -0.0936
  843TIP3    H124088   0.493   3.820   0.926  1.2929 -0.5444 -3.8443
  843TIP3    H224089   0.400   3.839   0.808 -3.5063 -0.6573 -0.3445
  844TIP3   OH224090   2.056   1.599   8.511 -0.1014  0.2034  0.6170
  844TIP3    H124091   2.074   1.519   8.462 -0.9006 -0.5029  1.4539
  844TIP3    H224092   2.083   1.670   8.452 -0.4188 -0.6429 -0.5751
  845TIP3   OH224093   2.369   4.115   1.880  0.0203 -0.3163  0.9628
  845TIP3    H124094   2.462   4.102   1.897  0.4764  1.6321  0.2188
  845TIP3    H224095   2.329   4.121   1.966  0.9209  0.8435  1.3226
  846TIP3   OH224096   6.583   6.239   1.287 -0.2949  0.2396  0.3223
  846TIP3    H124097   6.519   6.296   1.244  1.5092 -0.4311 -3.7109
  846TIP3    H224098   6.530   6.171   1.330 -2.3095  1.8139  0.5007
  847TIP3   OH224099   4.012   3.584   7.658  0.1957 -0.2788  0.4252
  847TIP3    H124100   4.093   3.551   7.697  0.7411 -1.8154 -1.8313
  847TIP3    H224101   4.038   3.619   7.574 -1.2891  0.6555  0.3135
  848TIP3   OH224102   6.191   5.965   6.652 -0.6134 -0.1062 -0.0498
  848TIP3    H124103   6.249   5.898   6.615 -1.6362 -0.5190 -0.9560
  848TIP3    H224104   6.192   6.035   6.586  0.1685  0.6438  0.7267
  849TIP3   OH224105   1.446   4.962   7.498  0.4725 -0.7382  0.2230
  849TIP3    H124106   1.368   4.911   7.475  0.7823 -1.2637  0.3144
  849TIP3    H224107   1.514   4.931   7.438  1.3324 -2.2505  1.8918
  850TIP3   OH224108   2.801   6.761   0.431  0.4019  0.1130  0.1334
  850TIP3    H124109   2.810   6.742   0.338 -0.5205  2.0639 -0.4148
  850TIP3    H224110   2.791   6.675   0.472 -0.7577 -0.7278 -1.7655
  851TIP3   OH224111   1.791   6.524   8.084 -0.1249  0.1915  0.4130
  851TIP3    H124112   1.818   6.452   8.027  0.6088  1.6978 -1.2536
  851TIP3    H224113   1.756   6.591   8.024 -0.3848  1.4032  1.8402
  852TIP3   OH224114   6.841   3.796   7.706 -0.3124 -0.4432  0.2256
  852TIP3    H124115   6.886   3.866   7.659  0.8508  1.1614  3.4179
  852TIP3    H224116   6.853   3.719   7.652  0.1559  1.3837 -2.4530
  853TIP3   OH224117   0.451   0.023   1.530 -0.0718 -0.2860 -0.8430
  853TIP3    H124118   0.472  -0.053   1.476  0.0269 -1.0767  0.2799
  853TIP3    H224119   0.401  -0.012   1.603 -0.7070  0.8480 -0.7117
  854TIP3   OH224120   0.090   0.530   6.386  0.4726 -0.6816  0.6397
  854TIP3    H124121   0.000   0.535   6.418  1.0940  1.1107  2.3434
  854TIP3    H224122   0.093   0.591   6.312 -0.0531 -1.9641 -0.4826
  855TIP3   OH224123   0.922   4.441   1.042  0.0029 -0.5503  0.3557
  855TIP3    H124124   0.878   4.442   0.957 -1.5121  2.2110  1.0626
  855TIP3    H224125   1.006   4.485   1.025 -0.7303  0.9405  0.4330
  856TIP3   OH224126   5.573   3.456   7.527  0.3103 -0.0051  0.6614
  856TIP3    H124127   5.572   3.374   7.477  1.4694  0.1733  0.3160
  856TIP3    H224128   5.505   3.445   7.592 -0.9575 -0.4353 -0.6738
  857TIP3   OH224129   1.117   1.169   7.638  0.0231  0.7309 -0.4599
  857TIP3    H124130   1.077   1.230   7.576 -1.3518  1.2913  0.8774
  857TIP3    H224131   1.150   1.225   7.709  0.1069  0.0309  0.0701
  858TIP3   OH224132   1.971   3.434   0.912  0.1814  0.5454  0.2922
  858TIP3    H124133   1.974   3.401   0.822 -0.7140 -0.4426  0.6067
  858TIP3    H224134   1.890   3.484   0.916 -0.6939 -0.8643  1.0016
  859TIP3   OH224135   6.872   5.664   0.150 -0.4334 -0.4365 -0.1316
  859TIP3    H124136   6.900   5.739   0.098 -3.1676  1.8042  1.3532
  859TIP3    H224137   6.776   5.667   0.146 -0.6545 -2.5662  1.7618
  860TIP3   OH224138   0.036   6.486   0.875 -0.0267  0.7098 -0.0980
  860TIP3    H124139   0.101   6.489   0.804  0.5463 -0.9812  0.3085
  860TIP3    H224140  -0.022   6.560   0.858  0.6166  0.8521 -1.8242
  861TIP3   OH224141   5.968   4.375   1.666 -0.3071 -0.1214  0.0131
  861TIP3    H124142   5.991   4.336   1.582  1.6978 -1.6470  1.1651
  861TIP3    H224143   5.964   4.301   1.727  0.4506  1.1159  1.6747
  862TIP3   OH224144   5.392   4.877   6.238 -0.0904  0.2772  0.6484
  862TIP3    H124145   5.371   4.902   6.148 -3.0003  2.1406  1.7070
  862TIP3    H224146   5.346   4.794   6.251 -0.4926  0.5065  0.6991
  863TIP3   OH224147   1.419   1.160   7.689  0.3695 -0.6692 -0.2838
  863TIP3    H124148   1.469   1.229   7.647  0.9629 -1.7745 -1.4822
  863TIP3    H224149   1.359   1.205   7.748  2.3455  0.7382  0.7486
  864TIP3   OH224150   0.261   1.625   1.553  0.0867  0.0808 -0.3537
  864TIP3    H124151   0.199   1.600   1.621  1.6879  1.6152  1.8126
  864TIP3    H224152   0.215   1.692   1.502 -0.4981  0.2696  0.3984
  865TIP3   OH224153   2.754   2.042   2.589  0.1529  0.1119 -0.4873
  865TIP3    H124154   2.744   1.975   2.657 -0.8313  1.4106  0.7104
  865TIP3    H224155   2.684   2.023   2.526 -0.8418  0.6296  0.4222
  866TIP3   OH224156   5.925   4.442   1.280  0.1126 -0.4785 -0.0539
  866TIP3    H124157   5.922   4.362   1.227 -1.2237 -0.2658 -0.3192
  866TIP3    H224158   5.867   4.425   1.353 -2.0454  1.0477 -1.3042
  867TIP3   OH224159   3.676   4.694   7.524 -0.3484 -0.0002  0.2618
  867TIP3    H124160   3.679   4.601   7.547  1.2336  0.0466  0.3302
  867TIP3    H224161   3.584   4.717   7.533 -0.5462 -1.1799  1.7893
  868TIP3   OH224162   0.260   0.898   8.215 -0.0863 -0.1121 -0.0556
  868TIP3    H124163   0.343   0.939   8.195 -0.5046  0.0452 -1.5643
  868TIP3    H224164   0.279   0.804   8.218  0.2041 -0.0525 -0.0467
  869TIP3   OH224165   0.125   5.391   0.164  0.0653  0.1394 -0.2281
  869TIP3    H124166   0.061   5.457   0.191 -0.1005 -0.4189  0.7886
  869TIP3    H224167   0.173   5.432   0.092 -1.2075  0.6975 -0.7839
  870TIP3   OH224168   1.241   2.710   1.000  0.3844  0.0079  0.4886
  870TIP3    H124169   1.238   2.747   0.912  0.8279  0.0953  0.5089
  870TIP3    H224170   1.184   2.767   1.052  0.5691  0.2908  0.3828
  871TIP3   OH224171   5.234   4.800   0.765  0.0680 -0.0392  0.4316
  871TIP3    H124172   5.322   4.816   0.730 -0.3111  1.0484 -0.0905
  871TIP3    H224173   5.210   4.882   0.809  0.0632 -0.9821  2.2812
  872TIP3   OH224174   2.679   1.361   0.815  0.8564  0.3306 -0.8482
  872TIP3    H124175   2.723   1.287   0.857  0.8231  1.4030  1.1717
  872TIP3    H224176   2.614   1.390   0.878  0.9599  2.1587 -1.5194
  873TIP3   OH224177   3.116   0.435   0.800  0.0558 -0.0447 -0.0010
  873TIP3    H124178   3.057   0.360   0.812  0.5250 -0.6517 -1.3761
  873TIP3    H224179   3.062   0.511   0.820 -0.2753 -0.7417  2.0083
  874TIP3   OH224180   3.513   4.004   1.298  0.4555 -0.0826  0.6012
  874TIP3    H124181   3.577   4.064   1.260 -0.2543 -0.8933 -2.0860
  874TIP3    H224182   3.564   3.927   1.322  0.7290 -0.0909  0.0004
  875TIP3   OH224183   1.443   6.079   1.540 -0.1739 -0.4298  0.2002
  875TIP3    H124184   1.529   6.114   1.517  0.1205  0.1227  1.9568
  875TIP3    H224185   1.459   5.987   1.562 -0.2659 -0.6622 -0.6760
  876TIP3   OH224186   5.932   4.400   8.212  0.3689  0.4836  0.0024
  876TIP3    H124187   5.867   4.382   8.280  0.1289  0.2754 -0.2780
  876TIP3    H224188   5.972   4.314   8.195  0.2095  0.4791 -0.3404
  877TIP3   OH224189   2.822   0.755   6.618 -0.0248 -1.0014 -0.4533
  877TIP3    H124190   2.740   0.805   6.617  0.7336  0.3292  0.6173
  877TIP3    H224191   2.868   0.784   6.539 -0.7346 -2.0724 -1.2913
  878TIP3   OH224192   5.421   6.476   0.306  0.1311  0.2721  0.3565
  878TIP3    H124193   5.458   6.559   0.275 -0.8986  1.3855  1.9810
  878TIP3    H224194   5.373   6.442   0.231  1.2078  0.7239 -0.5757
  879TIP3   OH224195   1.797   1.928   8.467  0.0399  0.5520  0.0459
  879TIP3    H124196   1.758   1.963   8.386 -0.5932  2.1608  1.0087
  879TIP3    H224197   1.794   1.833   8.455  3.1047  0.6738 -3.3026
  880TIP3   OH224198   1.854   6.655   7.547 -0.0369 -0.1729  0.1635
  880TIP3    H124199   1.920   6.708   7.504 -0.1899 -0.8017 -0.8687
  880TIP3    H224200   1.779   6.714   7.559  0.4258  0.3244  0.6484
  881TIP3   OH224201   0.025   4.986   7.222  0.4176  0.3009 -0.6639
  881TIP3    H124202   0.061   5.018   7.305 -0.3988  0.7810 -0.4842
  881TIP3    H224203   0.090   4.924   7.190 -0.3618 -1.7867  1.5335
  882TIP3   OH224204   0.310   1.136   0.628 -0.3753 -0.1738 -0.0626
  882TIP3    H124205   0.317   1.210   0.688  3.0179  0.5654 -1.0831
  882TIP3    H224206   0.351   1.063   0.674  0.9719  0.0334 -0.8516
  883TIP3   OH224207   2.161   4.505   0.839 -0.5248  0.0022  0.1517
  883TIP3    H124208   2.253   4.521   0.861 -0.5176 -0.0273  0.1438
  883TIP3    H224209   2.146   4.557   0.760 -1.3578  2.4170  1.7947
  884TIP3   OH224210   3.866   3.964   7.073 -0.3409  0.1585  0.1862
  884TIP3    H124211   3.927   3.911   7.125  0.7642  1.3493  0.1840
  884TIP3    H224212   3.832   3.905   7.006  0.1561 -0.7562  0.7221
  885TIP3   OH224213   2.233   0.098   1.515 -0.3336 -0.1549  0.2201
  885TIP3    H124214   2.248   0.049   1.595  0.2393  1.8933  1.4440
  885TIP3    H224215   2.172   0.167   1.540 -2.0818 -0.9048 -1.7324
  886TIP3   OH224216   2.618   5.254   8.352  0.1033  0.0434  0.1466
  886TIP3    H124217   2.693   5.205   8.318 -1.2520 -1.2046 -1.2221
  886TIP3    H224218   2.567   5.188   8.400 -2.3381 -0.3342 -2.6527
  887TIP3   OH224219   3.827   1.543   0.501 -0.4519 -0.6574  0.0115
  887TIP3    H124220   3.890   1.568   0.570 -0.1642  0.2318 -0.5595
  887TIP3    H224221   3.741   1.556   0.541 -0.3297  1.5646 -0.3261
  888TIP3   OH224222   2.609   0.127   0.730 -0.1566 -0.6011 -0.2582
  888TIP3    H124223   2.678   0.061   0.741  0.2249 -0.0686  0.7855
  888TIP3    H224224   2.655   0.211   0.740 -0.9594 -0.2367  0.5944
  889TIP3   OH224225   5.334   2.770   7.467 -0.4853  0.1211  0.0298
  889TIP3    H124226   5.312   2.766   7.374 -0.0847 -1.1234 -0.0337
  889TIP3    H224227   5.385   2.850   7.477  0.5187 -0.3520 -1.0726
  890TIP3   OH224228   1.972   2.448   8.345 -0.1912  0.3471  0.4289
  890TIP3    H124229   2.046   2.389   8.334 -1.0802 -0.7873  0.2930
  890TIP3    H224230   1.932   2.420   8.428 -1.0024  0.3230  0.0354
  891TIP3   OH224231   3.041   2.714   1.402  0.2661  0.5676 -0.7098
  891TIP3    H124232   2.951   2.748   1.403  0.1248  0.2088  0.5307
  891TIP3    H224233   3.092   2.782   1.357 -0.6042  0.7997 -1.3782
  892TIP3   OH224234   2.901   2.834   0.539  0.2389 -0.2367 -0.2334
  892TIP3    H124235   2.973   2.849   0.600 -1.6352  0.7816  1.8850
  892TIP3    H224236   2.914   2.745   0.506  1.7339 -0.5273  1.0629
  893TIP3   OH224237   0.676   5.912   1.791  0.5388  0.0828  0.2809
  893TIP3    H124238   0.629   5.991   1.818 -1.4280 -0.4564 -1.3294
  893TIP3    H224239   0.731   5.889   1.867 -0.2984  1.8846  1.4866
  894TIP3   OH224240   4.917   6.525   8.595  0.1010  0.4164 -0.4279
  894TIP3    H124241   4.929   6.611   8.555 -1.0489  1.8021  2.0344
  894TIP3    H224242   4.843   6.535   8.655  0.2548 -2.1564  0.3303
  895TIP3   OH224243   6.345   6.341   6.747 -0.3026  0.5213 -0.0910
  895TIP3    H124244   6.424   6.298   6.714 -1.8493 -2.5202 -0.2122
  895TIP3    H224245   6.332   6.416   6.690  1.2827 -0.1900 -1.4701
  896TIP3   OH224246   0.812   6.273   0.927  0.1240 -0.3436  0.1904
  896TIP3    H124247   0.814   6.351   0.984  0.1994  0.0770 -0.3779
  896TIP3    H224248   0.872   6.212   0.968  0.9449  0.3359  0.0218
  897TIP3   OH224249   2.265   2.784   1.700 -0.6845 -0.2071  0.2472
  897TIP3    H124250   2.315   2.842   1.757 -1.1272  1.6138 -1.1516
  897TIP3    H224251   2.217   2.842   1.641  1.9103 -1.8962 -3.9430
  898TIP3   OH224252   5.303   5.638   6.930  0.1718 -0.1703 -0.2089
  898TIP3    H124253   5.317   5.674   6.842 -1.0340 -0.4142 -0.5242
  898TIP3    H224254   5.371   5.679   6.983  0.8390  0.0972 -1.2204
  899TIP3   OH224255   6.834   3.027   2.469  0.1975 -0.1402 -0.7370
  899TIP3    H124256   6.748   2.986   2.476 -0.6794  1.2813 -2.4513
  899TIP3    H224257   6.817   3.112   2.427  2.2047  0.9888  0.5472
  900TIP3   OH224258   5.781   0.739   1.609 -0.2133 -0.3137 -1.1539
  900TIP3    H124259   5.851   0.709   1.665  0.5296  2.1665 -0.6520
  900TIP3    H224260   5.717   0.779   1.668 -0.0589  1.1257 -1.9103
  901TIP3   OH224261   1.589   6.687   6.649 -0.5572  0.2311 -0.1303
  901TIP3    H124262   1.616   6.746   6.720  0.3134 -1.0137  0.6032
  901TIP3    H224263   1.494   6.699   6.644 -0.4217  1.6567  0.0199
  902TIP3   OH224264   6.401   3.945   2.236 -0.4886  0.2297 -0.1609
  902TIP3    H124265   6.321   3.990   2.262 -0.6886  0.1246 -0.5875
  902TIP3    H224266   6.372   3.856   2.214 -0.2628  0.2099 -0.3762
  903TIP3   OH224267   6.519   5.087   6.990  0.1699  0.1136  0.4814
  903TIP3    H124268   6.600   5.037   6.996 -0.7704 -1.3486  1.4343
  903TIP3    H224269   6.453   5.032   7.032 -1.2905  1.3497 -0.1006
  904TIP3   OH224270   2.237   5.416   7.821  0.0919 -0.6163 -0.0631
  904TIP3    H124271   2.244   5.503   7.780 -0.8940 -0.7064 -0.4547
  904TIP3    H224272   2.177   5.428   7.894 -0.7311 -1.1361 -0.6366
  905TIP3   OH224273   2.238   4.151   8.375  0.3203  0.3507  0.1817
  905TIP3    H124274   2.283   4.070   8.402 -0.3717 -1.4506 -3.4051
  905TIP3    H224275   2.146   4.136   8.397  0.3653  0.6860  0.5958
  906TIP3   OH224276   0.003   0.542   0.249 -0.6870  0.3005 -0.1322
  906TIP3    H124277  -0.001   0.514   0.158 -0.2439  1.0748 -0.3992
  906TIP3    H224278  -0.013   0.637   0.246  3.8167  1.2924  0.0329
  907TIP3   OH224279   4.761   4.022   1.716  0.4173 -0.8908  0.0080
  907TIP3    H124280   4.747   3.963   1.642  1.6949 -0.8611 -0.2841
  907TIP3    H224281   4.764   4.109   1.678 -1.0089 -0.6541  0.3832
  908TIP3   OH224282   4.308   3.563   6.960 -0.9316  0.4064  0.1782
  908TIP3    H124283   4.324   3.655   6.980 -1.1692  0.1770  1.5181
  908TIP3    H224284   4.311   3.519   7.045  2.1845 -1.3134 -0.6511
  909TIP3   OH224285   6.338   0.232   0.953 -0.2338 -0.0672  0.3658
  909TIP3    H124286   6.279   0.239   0.878 -0.8312 -1.0137  0.7153
  909TIP3    H224287   6.346   0.137   0.967  1.1797  0.0498  0.4889
  910TIP3   OH224288   5.338   6.752   1.481 -0.3000 -0.0645 -0.2207
  910TIP3    H124289   5.303   6.798   1.405 -1.0079  1.7736  1.1451
  910TIP3    H224290   5.260   6.722   1.528  0.0863  0.1360  0.5567
  911TIP3   OH224291   6.668   3.612   2.659  0.0502 -0.2836 -0.1873
  911TIP3    H124292   6.630   3.526   2.679 -1.8478  0.3230 -0.9415
  911TIP3    H224293   6.704   3.602   2.571  1.3962 -0.7601  0.3919
  912TIP3   OH224294   3.859   1.255   7.520 -0.5364 -0.1826 -0.3823
  912TIP3    H124295   3.907   1.253   7.603 -0.2225  0.9720 -0.5185
  912TIP3    H224296   3.850   1.348   7.500 -0.2132 -0.4474 -1.8623
  913TIP3   OH224297   2.519   1.033   2.506 -0.4118 -0.5268  0.2763
  913TIP3    H124298   2.447   1.021   2.567  0.2356 -0.6983  1.0182
  913TIP3    H224299   2.518   1.127   2.485  0.4445 -0.1056  1.9513
  914TIP3   OH224300   5.944   4.891   0.847  0.0916  0.7478 -0.2124
  914TIP3    H124301   5.956   4.976   0.804  0.6939  0.3695 -0.8028
  914TIP3    H224302   5.871   4.906   0.908  0.6933  1.9053  0.2684
  915TIP3   OH224303   3.126   6.458   0.171 -0.2614 -0.0208 -0.6595
  915TIP3    H124304   3.183   6.527   0.204  0.5040  0.1780 -2.3028
  915TIP3    H224305   3.073   6.501   0.104 -0.5643 -0.7746 -0.9190
  916TIP3   OH224306   0.580   1.623   7.546  0.6875 -0.1602 -0.3680
  916TIP3    H124307   0.643   1.609   7.476  0.6636  0.3441 -0.4965
  916TIP3    H224308   0.494   1.617   7.503  0.4030 -4.5212  0.3904
  917TIP3   OH224309   4.535   1.003   6.436  0.1537  0.3089 -0.4015
  917TIP3    H124310   4.567   1.052   6.512 -1.9503  1.9469 -0.4857
  917TIP3    H224311   4.510   0.918   6.472  3.0466 -0.5401 -0.0987
  918TIP3   OH224312   0.695   0.116   8.136 -0.1873  0.5489 -0.3098
  918TIP3    H124313   0.662   0.204   8.117  1.1026  1.1069 -0.1174
  918TIP3    H224314   0.660   0.062   8.066 -0.0933  1.4479 -1.0798
  919TIP3   OH224315   3.785   0.530   7.324  0.4234  0.1072 -0.5301
  919TIP3    H124316   3.841   0.574   7.260 -0.3316 -1.5102 -2.4131
  919TIP3    H224317   3.699   0.571   7.312  0.9471  2.0839  1.8431
  920TIP3   OH224318   1.416   6.495   8.424  0.1163  0.3079 -0.6476
  920TIP3    H124319   1.506   6.526   8.424  0.2758  0.2905  3.0245
  920TIP3    H224320   1.415   6.423   8.360  2.8167  0.0103 -0.4751
  921TIP3   OH224321   1.746   1.949   7.847 -0.6105 -0.4366  1.1025
  921TIP3    H124322   1.807   2.016   7.879  0.3323 -1.1336  0.8236
  921TIP3    H224323   1.734   1.970   7.754  0.0734 -0.9220  0.8954
  922TIP3   OH224324   1.815   0.286   2.667  0.5390 -0.5711 -0.3386
  922TIP3    H124325   1.782   0.359   2.614  1.4735 -0.7033 -1.1322
  922TIP3    H224326   1.788   0.208   2.619  1.4657 -0.6904 -0.6858
  923TIP3   OH224327   2.703   2.440   7.659 -0.0359  0.2431 -0.2780
  923TIP3    H124328   2.632   2.384   7.627  1.0403 -1.3608  0.0354
  923TIP3    H224329   2.688   2.446   7.753 -1.5847  2.6422 -0.5882
  924TIP3   OH224330   0.034   5.127   0.946 -0.6214  0.4088 -0.5879
  924TIP3    H124331   0.099   5.160   0.884 -0.8952  1.3211 -0.4086
  924TIP3    H224332   0.071   5.046   0.979  0.9091  1.4157  0.2637
  925TIP3   OH224333   0.336   1.573   0.613 -0.0097  0.1139 -0.3049
  925TIP3    H124334   0.337   1.621   0.695  0.0073 -0.9904  0.3726
  925TIP3    H224335   0.426   1.574   0.582  0.2766 -0.7225  0.4699
  926TIP3   OH224336   3.736   0.799   7.568  0.3599 -0.1772  0.0023
  926TIP3    H124337   3.644   0.796   7.543  0.4293  1.6405 -0.6936
  926TIP3    H224338   3.768   0.880   7.528  2.4012 -1.0518 -0.2537
  927TIP3   OH224339   0.263   2.641   6.918  0.8094  0.1835  0.4727
  927TIP3    H124340   0.197   2.678   6.859  0.0010 -0.6174  0.8596
  927TIP3    H224341   0.223   2.644   7.004  1.1628 -0.5699  0.6712
  928TIP3   OH224342   5.799   1.037   0.133  0.1752  1.0634  0.3477
  928TIP3    H124343   5.763   0.953   0.161  1.1861  0.6995  0.5729
  928TIP3    H224344   5.882   1.016   0.091  0.3592  1.9354  0.2519
  929TIP3   OH224345   5.037   6.809   0.185  1.0297 -0.0827  0.1031
  929TIP3    H124346   5.025   6.900   0.158  0.5469  0.0285  0.6843
  929TIP3    H224347   5.020   6.758   0.105 -0.7556  0.2190  0.2536
  930TIP3   OH224348   3.806   0.398   0.616  0.3244 -0.9507 -0.5688
  930TIP3    H124349   3.874   0.465   0.607 -1.1023  0.3836 -1.9702
  930TIP3    H224350   3.761   0.421   0.697  1.4966 -1.8770  0.4013
  931TIP3   OH224351   6.071   5.752   8.200 -0.1265 -0.0891  0.4638
  931TIP3    H124352   6.040   5.669   8.236  2.5631 -1.0860  0.6880
  931TIP3    H224353   6.056   5.816   8.270 -3.5161  0.0617 -0.1995
  932TIP3   OH224354   4.958   1.935   0.668  0.0106 -0.4276 -0.2525
  932TIP3    H124355   5.038   1.882   0.658 -0.0429 -0.3817 -0.9791
  932TIP3    H224356   4.887   1.872   0.657 -0.0519 -0.2871 -0.6707
  933TIP3   OH224357   5.591   4.608   0.526  0.1508 -0.5918 -0.0518
  933TIP3    H124358   5.570   4.539   0.590  1.2943 -0.9064  0.0005
  933TIP3    H224359   5.619   4.682   0.579  1.0539 -0.8365 -0.1806
  934TIP3   OH224360   5.687   5.848   1.568  0.1421 -0.1722  0.2436
  934TIP3    H124361   5.736   5.868   1.647 -0.2050 -1.1873  0.7387
  934TIP3    H224362   5.723   5.764   1.538 -1.8866 -1.4391  1.1626
  935TIP3   OH224363   5.542   2.442   0.118 -0.3035 -0.5138 -0.4820
  935TIP3    H124364   5.484   2.490   0.059 -0.3945  1.7225  1.3121
  935TIP3    H224365   5.483   2.407   0.186  0.0862 -0.8816 -0.3281
  936TIP3   OH224366   6.701   2.747   0.961  0.2816  0.5368  0.5210
  936TIP3    H124367   6.663   2.720   0.877  1.4390 -1.7545  0.6402
  936TIP3    H224368   6.682   2.673   1.020  1.6243  1.0058  1.5848
  937TIP3   OH224369   2.339   4.088   0.057 -0.3447  0.3558 -0.6192
  937TIP3    H124370   2.358   4.035  -0.021 -1.8178  0.4978 -1.1014
  937TIP3    H224371   2.424   4.098   0.100  0.0287 -2.2473 -0.5794
  938TIP3   OH224372   2.731   0.105   1.330  0.3945 -0.2174  0.6237
  938TIP3    H124373   2.669   0.032   1.329 -0.0826  0.1886  0.6061
  938TIP3    H224374   2.695   0.166   1.394  1.3155 -0.4465  1.3865
  939TIP3   OH224375   3.040   3.762   0.798  0.4621 -0.4504 -0.4852
  939TIP3    H124376   3.000   3.817   0.731  2.3161  0.0968 -1.1918
  939TIP3    H224377   2.985   3.775   0.876  0.7547  2.2941 -0.6553
  940TIP3   OH224378   3.901   4.481   8.363 -1.1677  0.1134 -0.3271
  940TIP3    H124379   3.931   4.404   8.314 -0.5942  0.7189 -0.9597
  940TIP3    H224380   3.823   4.451   8.410 -1.6805 -0.5275 -1.5315
  941TIP3   OH224381   4.999   3.388   0.164  0.7567  0.3443  0.7158
  941TIP3    H124382   4.943   3.342   0.101  1.6670  0.5991 -0.3010
  941TIP3    H224383   5.022   3.322   0.229 -0.7405  0.2412  1.1947
  942TIP3   OH224384   2.489   6.129   2.545  0.0122  0.2517  0.6714
  942TIP3    H124385   2.536   6.202   2.504  2.3505 -0.2552  2.2753
  942TIP3    H224386   2.548   6.054   2.535 -1.2896 -0.8749  1.1560
  943TIP3   OH224387   4.084   4.580   0.055 -0.7696  0.1327  0.2421
  943TIP3    H124388   4.004   4.529   0.043 -0.2940 -0.3095 -1.3044
  943TIP3    H224389   4.091   4.633  -0.025  0.5033  0.1002  0.3057
  944TIP3   OH224390   2.731   1.078   0.892 -0.4384 -0.0251 -0.7469
  944TIP3    H124391   2.702   1.003   0.840 -1.4932  0.1197 -0.3931
  944TIP3    H224392   2.655   1.101   0.946 -0.5637  2.0786 -1.7332
  945TIP3   OH224393   5.322   6.079   0.907  0.8468  0.0815 -0.3616
  945TIP3    H124394   5.259   6.114   0.845 -1.4460  1.5668  2.5735
  945TIP3    H224395   5.376   6.154   0.932  0.3100  0.0423  0.9996
  946TIP3   OH224396   4.427   0.710   1.758 -0.4725 -0.6061  0.2258
  946TIP3    H124397   4.389   0.792   1.790  2.6031  0.8584  0.4493
  946TIP3    H224398   4.426   0.720   1.663  0.6831  0.1210  0.2751
  947TIP3   OH224399   4.860   4.727   1.231 -0.3610 -0.2941 -0.2507
  947TIP3    H124400   4.814   4.665   1.286  0.4158 -0.0389  0.7126
  947TIP3    H224401   4.807   4.807   1.234  0.7607  0.4443  1.9478
  948TIP3   OH224402   3.335   2.648   7.755 -0.4538  0.1694  0.2353
  948TIP3    H124403   3.283   2.588   7.809 -1.8827  1.5961  0.5280
  948TIP3    H224404   3.270   2.693   7.700  0.3418  2.4583  1.0404
  949TIP3   OH224405   1.940   6.542   2.599  0.4086 -0.5787 -0.0124
  949TIP3    H124406   2.025   6.563   2.639 -0.2647 -2.2113  2.4912
  949TIP3    H224407   1.876   6.590   2.651 -0.3421 -0.7691 -0.7393
  950TIP3   OH224408   6.379   3.239   0.352 -0.0518  0.6231 -0.6886
  950TIP3    H124409   6.465   3.218   0.388 -0.0109 -0.2890 -1.2977
  950TIP3    H224410   6.320   3.231   0.426  0.1356 -0.5140 -0.6434
  951TIP3   OH224411   1.617   5.532   0.761 -0.3581  0.3716 -0.5895
  951TIP3    H124412   1.644   5.569   0.845 -0.5743 -0.2689 -0.2286
  951TIP3    H224413   1.691   5.549   0.703 -1.2001  3.0431 -0.9813
  952TIP3   OH224414   2.338   1.302   1.816  0.4570 -0.3870  0.0319
  952TIP3    H124415   2.319   1.315   1.909  0.7273  0.0103  0.0334
  952TIP3    H224416   2.359   1.209   1.808  1.2284 -0.2615  0.5095
  953TIP3   OH224417   6.682   0.825   7.740 -0.0312  0.1392 -0.2910
  953TIP3    H124418   6.697   0.887   7.811 -0.4875  2.4927 -2.1090
  953TIP3    H224419   6.706   0.740   7.776  0.8614  1.3847  2.2667
  954TIP3   OH224420   2.560   5.453   0.218 -0.4337 -0.4693  0.2743
  954TIP3    H124421   2.610   5.518   0.269 -0.6126  0.1835 -0.3623
  954TIP3    H224422   2.469   5.471   0.239 -0.4686 -0.7803  0.3976
  955TIP3   OH224423   1.699   3.694   7.154 -0.0702 -0.0374  0.2100
  955TIP3    H124424   1.658   3.721   7.072  2.1854  1.2560 -0.6057
  955TIP3    H224425   1.649   3.740   7.222  0.0382  1.5851 -0.7354
  956TIP3   OH224426   2.558   2.134   7.765 -0.5230  0.1280  0.2596
  956TIP3    H124427   2.650   2.138   7.790 -0.3052  0.8859 -0.6036
  956TIP3    H224428   2.514   2.092   7.839  0.5709 -0.5999  0.5039
  957TIP3   OH224429   1.354   0.527   1.079 -0.2429  0.3101  0.0205
  957TIP3    H124430   1.340   0.545   0.985 -0.1670 -0.1995 -0.0887
  957TIP3    H224431   1.415   0.595   1.107 -1.4616  1.4396  0.0714
  958TIP3   OH224432   5.899   2.668   1.223  0.4882 -0.1488  0.3958
  958TIP3    H124433   5.836   2.729   1.185  0.8182 -0.1343 -0.1396
  958TIP3    H224434   5.981   2.717   1.227  0.6958 -0.4768  0.1911
  959TIP3   OH224435   5.395   0.463   8.019  0.1318  0.3870 -0.4512
  959TIP3    H124436   5.488   0.470   8.002  0.1687 -0.5094 -0.6735
  959TIP3    H224437   5.385   0.379   8.064 -0.7045 -0.1190 -1.5301
  960TIP3   OH224438   4.955   6.826   1.575 -0.0411  0.2900 -0.6010
  960TIP3    H124439   4.870   6.795   1.607  0.2236  0.1484 -0.0137
  960TIP3    H224440   5.017   6.797   1.642  0.6816 -0.9268 -1.7423
  961TIP3   OH224441   4.305   3.411   7.209  0.6635  0.0128  0.0196
  961TIP3    H124442   4.392   3.371   7.204  0.8839  0.3731  0.8259
  961TIP3    H224443   4.306   3.459   7.291 -0.5880 -0.6602  0.4526
  962TIP3   OH224444   5.312   5.045   1.331 -0.3233 -0.3133 -0.4818
  962TIP3    H124445   5.307   5.026   1.425  1.7678 -0.2714 -0.3090
  962TIP3    H224446   5.224   5.025   1.298 -1.5321  0.9620  1.6959
  963TIP3   OH224447   4.960   2.713   1.190 -0.3354  0.7928 -0.1938
  963TIP3    H124448   4.961   2.625   1.151 -1.5491  0.4602  0.4666
  963TIP3    H224449   5.050   2.726   1.221  0.1857  0.3154 -1.4181
  964TIP3   OH224450   0.713   0.204   0.020  0.3651  0.2689 -0.2369
  964TIP3    H124451   0.802   0.223   0.049  0.9440  1.5532 -2.5408
  964TIP3    H224452   0.705   0.253  -0.062 -1.9390 -1.0717 -0.8757
  965TIP3   OH224453   0.456   6.459   1.465  0.1582 -0.4070  0.4958
  965TIP3    H124454   0.508   6.392   1.510 -1.5167 -3.1158 -1.3108
  965TIP3    H224455   0.377   6.469   1.519 -0.0166 -0.5811  0.2708
  966TIP3   OH224456   6.456   3.080   1.401  0.4310  0.0780  0.1315
  966TIP3    H124457   6.542   3.097   1.440  1.4189 -1.0755 -1.4428
  966TIP3    H224458   6.465   3.105   1.309 -0.4503 -1.4065 -0.4069
  967TIP3   OH224459   6.527   3.733   1.354 -0.0089 -0.1871  0.1594
  967TIP3    H124460   6.448   3.718   1.303  0.7330  1.3392 -1.5424
  967TIP3    H224461   6.588   3.775   1.293  1.7017 -0.2157  1.7369
  968TIP3   OH224462   0.039   3.171   1.728 -0.1746 -0.4766 -0.1961
  968TIP3    H124463   0.007   3.080   1.732  0.7752 -0.8094  0.1109
  968TIP3    H224464   0.108   3.169   1.662 -0.4842  0.1490 -0.5539
  969TIP3   OH224465   1.502   3.971   7.393 -0.2208 -0.3181  0.3349
  969TIP3    H124466   1.448   4.018   7.456 -0.5115  0.7134 -0.6491
  969TIP3    H224467   1.442   3.946   7.324  0.7365  2.2698 -1.5943
  970TIP3   OH224468   3.130   1.263   6.588 -0.4261 -0.0356  0.0272
  970TIP3    H124469   3.112   1.192   6.527 -2.5530 -0.9170  1.5734
  970TIP3    H224470   3.219   1.246   6.619 -0.7695 -1.8656  0.1296
  971TIP3   OH224471   4.619   1.395   0.431  0.2533  0.3595  0.3094
  971TIP3    H124472   4.629   1.329   0.364 -0.8191 -0.5413  0.9990
  971TIP3    H224473   4.677   1.466   0.404  0.6748 -0.4398 -0.9620
  972TIP3   OH224474   5.201   5.667   8.179  0.3111 -0.5515 -0.4249
  972TIP3    H124475   5.132   5.604   8.202  2.6861 -3.0388  0.3727
  972TIP3    H224476   5.221   5.712   8.261 -1.1330  1.0979 -0.9200
  973TIP3   OH224477   0.157   3.416   0.369 -0.3648 -0.0358  0.0006
  973TIP3    H124478   0.108   3.422   0.287  0.7547  0.0378 -0.6818
  973TIP3    H224479   0.099   3.368   0.428 -0.8978 -0.7153 -1.0451
  974TIP3   OH224480   3.508   6.383   0.168 -0.0577 -0.4249  0.0191
  974TIP3    H124481   3.523   6.449   0.100 -1.1884  1.8933  1.8816
  974TIP3    H224482   3.538   6.425   0.249 -1.9126 -1.7365  1.4642
  975TIP3   OH224483   2.384   2.682   2.863  0.4502 -0.4518  0.0147
  975TIP3    H124484   2.391   2.776   2.845 -1.0922 -0.1612  0.7624
  975TIP3    H224485   2.317   2.651   2.802 -0.3692 -0.6693  0.9935
  976TIP3   OH224486   5.447   2.838   6.570 -0.7041  0.2159 -0.0298
  976TIP3    H124487   5.507   2.875   6.635 -0.0308 -1.1047  0.1532
  976TIP3    H224488   5.454   2.743   6.584 -4.4799 -0.0121  1.5221
  977TIP3   OH224489   2.202   2.605   0.803  0.4712  0.3830  0.2574
  977TIP3    H124490   2.137   2.644   0.745 -0.4159  1.7062  2.0193
  977TIP3    H224491   2.164   2.521   0.828  0.2556  0.3760 -0.0854
  978TIP3   OH224492   5.926   0.632   7.725 -0.3093 -0.4856 -0.3210
  978TIP3    H124493   5.870   0.575   7.671  0.4503 -0.9254 -0.6619
  978TIP3    H224494   5.952   0.703   7.667 -1.6122  0.4817  0.2278
  979TIP3   OH224495   1.057   5.437   8.360  0.0604 -0.1041  0.0466
  979TIP3    H124496   1.027   5.474   8.444 -1.3865 -0.2275 -0.3885
  979TIP3    H224497   1.135   5.487   8.339 -0.0184  0.4907  1.0672
  980TIP3   OH224498   5.699   4.719   2.662 -0.2836 -0.2118 -0.0132
  980TIP3    H124499   5.681   4.631   2.695  1.1015  0.0151  1.5060
  980TIP3    H224500   5.633   4.774   2.702  0.6506 -0.1317  1.4802
  981TIP3   OH224501   4.231   5.696   0.892 -0.0662  0.0984  0.3538
  981TIP3    H124502   4.231   5.680   0.987 -0.6601  0.2516  0.3846
  981TIP3    H224503   4.318   5.731   0.874 -0.0330  0.3112  0.8878
  982TIP3   OH224504   4.091   0.209   7.078  0.0171 -0.5954  0.4226
  982TIP3    H124505   4.155   0.213   7.006  0.3361 -0.7593  0.6923
  982TIP3    H224506   4.044   0.292   7.073  0.0027 -0.6261 -0.0095
  983TIP3   OH224507   6.191   4.594   0.584 -0.1121  0.5046 -0.0915
  983TIP3    H124508   6.115   4.631   0.630  0.5223  2.0954 -0.2704
  983TIP3    H224509   6.255   4.577   0.653  0.2146  1.3137 -0.1920
  984TIP3   OH224510   2.067   1.545   0.802  0.0232 -0.6030 -0.0415
  984TIP3    H124511   2.145   1.567   0.750 -0.3541  0.2421 -0.2539
  984TIP3    H224512   2.063   1.613   0.869 -2.3695  1.3574 -2.0015
  985TIP3   OH224513   0.466   5.816   0.327  0.6677  0.7651  0.1096
  985TIP3    H124514   0.422   5.833   0.244  0.6515  1.5901  0.2814
  985TIP3    H224515   0.415   5.863   0.393 -1.0220 -2.1504  1.0834
  986TIP3   OH224516   2.089   2.714   7.675  0.1255 -0.2993  0.6624
  986TIP3    H124517   2.028   2.759   7.734  1.3774  1.1866  0.8852
  986TIP3    H224518   2.175   2.731   7.713  0.7050 -2.6107  0.5271
  987TIP3   OH224519   5.710   5.478   8.539 -0.6769  0.3835 -0.1305
  987TIP3    H124520   5.646   5.494   8.608 -0.0201  1.0370  0.3394
  987TIP3    H224521   5.791   5.456   8.585 -0.8850 -1.8459 -0.7325
  988TIP3   OH224522   6.197   1.952   7.796  0.5160 -0.1577  0.0941
  988TIP3    H124523   6.262   1.915   7.855 -1.1598 -2.1537  0.8207
  988TIP3    H224524   6.186   1.887   7.727  1.0598  1.2841 -1.4220
  989TIP3   OH224525   5.801   5.438   2.140 -0.0143  0.8340 -0.3456
  989TIP3    H124526   5.844   5.362   2.181 -1.2103  0.1645 -0.2624
  989TIP3    H224527   5.709   5.412   2.134 -0.5487  2.4946  0.1476
  990TIP3   OH224528   3.335   3.803   0.860  0.0398 -0.0162  0.7311
  990TIP3    H124529   3.359   3.768   0.946 -0.8559 -4.4129 -0.5707
  990TIP3    H224530   3.241   3.818   0.865 -0.2239 -1.3515  0.2955
  991TIP3   OH224531   3.509   0.219   2.325  0.4545 -0.1856  0.7439
  991TIP3    H124532   3.564   0.296   2.314  0.3168 -0.4611 -4.1586
  991TIP3    H224533   3.422   0.247   2.298  0.5860 -2.0839 -2.0922
  992TIP3   OH224534   5.395   4.726   7.006  0.4212 -0.2860  0.2401
  992TIP3    H124535   5.359   4.664   6.942 -0.8502  0.9103 -0.2609
  992TIP3    H224536   5.349   4.808   6.988  0.9950  0.4268  1.8467
  993TIP3   OH224537   0.873   6.591   7.716  0.2029  0.5474 -0.5109
  993TIP3    H124538   0.859   6.536   7.793  0.7175  0.1009 -0.7339
  993TIP3    H224539   0.818   6.668   7.732 -1.0058 -0.2968 -0.4790
  994TIP3   OH224540   1.858   2.181   1.782  0.6671 -0.2521 -0.5312
  994TIP3    H124541   1.792   2.199   1.849  1.7910 -1.2061  0.8995
  994TIP3    H224542   1.875   2.266   1.743  1.2077  0.6978  1.6095
  995TIP3   OH224543   2.823   4.368   0.383 -0.4559  0.3636  0.2389
  995TIP3    H124544   2.869   4.284   0.391  0.6673  1.0098  0.6271
  995TIP3    H224545   2.771   4.358   0.303  1.9668  0.3387 -1.4501
  996TIP3   OH224546   0.111   3.279   8.388  0.0697  0.2036  0.2612
  996TIP3    H124547   0.044   3.344   8.406 -0.3597 -0.7736  2.5749
  996TIP3    H224548   0.063   3.200   8.363  0.3481 -0.2866  1.2065
  997TIP3   OH224549   4.848   3.576   6.960  0.3395  0.5012  0.0796
  997TIP3    H124550   4.929   3.625   6.976  0.5400 -0.2401  1.5122
  997TIP3    H224551   4.786   3.613   7.022 -0.1668  0.4553 -0.3931
  998TIP3   OH224552   3.111   3.297   8.056 -0.1937  0.1805  0.1770
  998TIP3    H124553   3.164   3.324   7.981 -0.5788 -2.1363 -1.0094
  998TIP3    H224554   3.172   3.297   8.130  0.8307  0.0083 -0.6552
  999TIP3   OH224555   5.470   1.872   1.106  0.2341 -0.4941  0.1534
  999TIP3    H124556   5.527   1.822   1.048  0.4491  0.2395 -0.2904
  999TIP3    H224557   5.456   1.815   1.181  0.4962 -1.1978 -0.3185
 1000TIP3   OH224558   0.020   1.971   0.736  0.6641 -0.1221  0.1086
 1000TIP3    H124559   0.041   2.012   0.820  0.2638 -1.6514  0.9846
 1000TIP3    H224560   0.102   1.930   0.707 -0.0110 -2.7724  1.6314
 1001TIP3   OH224561   4.784   2.967   7.121 -0.2496 -0.1346 -0.3883
 1001TIP3    H124562   4.723   2.953   7.194 -0.2532  1.8328  0.0299
 1001TIP3    H224563   4.833   2.885   7.116  0.8061  0.1424  2.8793
 1002TIP3   OH224564   3.138   0.950   5.999  0.1057 -0.7372  0.6882
 1002TIP3    H124565   3.207   1.012   6.020  1.5878 -2.6227  1.7044
 1002TIP3    H224566   3.074   0.959   6.071  0.0321 -0.0222  0.5341
 1003TIP3   OH224567   3.705   6.524   0.356 -0.4611  0.2220 -0.4962
 1003TIP3    H124568   3.734   6.581   0.427 -2.7863  1.5404 -0.5022
 1003TIP3    H224569   3.728   6.572   0.276  0.5849 -0.4434 -0.6047
 1004TIP3   OH224570   3.870   1.819   0.037 -0.0756  0.4624 -0.8853
 1004TIP3    H124571   3.837   1.822   0.126 -0.1460  0.1914 -0.9026
 1004TIP3    H224572   3.956   1.861   0.042 -0.8250  2.1037 -1.0280
 1005TIP3   OH224573   5.789   5.734   8.454 -0.3000  0.0966 -0.3039
 1005TIP3    H124574   5.789   5.755   8.548  0.6054  0.0394 -0.2861
 1005TIP3    H224575   5.775   5.640   8.451 -0.4403  0.1137 -0.2380
 1006TIP3   OH224576   5.457   3.040   7.494 -0.2022  0.7803  0.2131
 1006TIP3    H124577   5.529   3.015   7.551  0.4209  0.5499 -0.6461
 1006TIP3    H224578   5.495   3.105   7.435 -0.6122  0.4327 -0.4462
 1007TIP3   OH224579   4.984   4.271   1.517 -0.0379  0.1475 -0.3815
 1007TIP3    H124580   5.063   4.247   1.564 -1.1982 -3.6721 -0.1108
 1007TIP3    H224581   5.015   4.294   1.429  1.4951  0.8404  0.2916
 1008TIP3   OH224582   2.550   2.407   7.960  0.5768 -0.1429  0.1949
 1008TIP3    H124583   2.486   2.430   8.028 -0.1304  0.6770 -0.7070
 1008TIP3    H224584   2.517   2.325   7.923  0.8556 -0.4867  0.6937
 1009TIP3   OH224585   2.816   5.875   1.987  0.3845  0.4411 -0.2000
 1009TIP3    H124586   2.832   5.791   2.031 -0.8881  0.3648  0.1477
 1009TIP3    H224587   2.903   5.905   1.960  0.8763 -0.9304 -0.2205
 1010TIP3   OH224588   0.387   5.510   6.964 -0.6307 -0.3471  1.1008
 1010TIP3    H124589   0.478   5.505   6.992 -0.7033 -2.5190  1.0853
 1010TIP3    H224590   0.391   5.540   6.873 -0.0224  0.7243  1.4734
 1011TIP3   OH224591   1.685   2.105   0.527 -0.0766 -0.0282 -0.0009
 1011TIP3    H124592   1.705   2.123   0.619  2.2924  0.6156 -0.5673
 1011TIP3    H224593   1.720   2.181   0.480 -2.1784  0.1611 -1.3861
 1012TIP3   OH224594   1.144   3.533   6.302  0.5937 -0.5328  0.3561
 1012TIP3    H124595   1.177   3.623   6.302  0.5205 -0.5066  0.6509
 1012TIP3    H224596   1.212   3.483   6.345  1.2576 -0.8492 -1.0137
 1013TIP3   OH224597   1.454   4.549   1.128  0.2256  0.4645 -0.0945
 1013TIP3    H124598   1.548   4.550   1.145  0.0868  2.1179  0.8149
 1013TIP3    H224599   1.444   4.496   1.049  1.9186  0.3374 -0.2562
 1014TIP3   OH224600   4.227   1.323   6.172  0.0007 -0.6957 -0.3298
 1014TIP3    H124601   4.304   1.266   6.178  0.1038 -0.6027 -0.7150
 1014TIP3    H224602   4.198   1.334   6.263  0.1402 -1.1408 -0.2285
 1015TIP3   OH224603   1.510   5.000   0.216 -0.0300  0.1203  0.0795
 1015TIP3    H124604   1.549   5.079   0.253  0.4522 -0.6876  1.3697
 1015TIP3    H224605   1.574   4.931   0.233 -0.6474 -0.6488 -0.5916
 1016TIP3   OH224606   5.284   2.647   8.146  0.3559 -0.0792  0.3643
 1016TIP3    H124607   5.227   2.572   8.130  0.7223 -0.8751  2.4202
 1016TIP3    H224608   5.245   2.719   8.096 -0.5558 -1.3962 -0.8646
 1017TIP3   OH224609   4.140   5.976   0.304  0.1312 -0.0820  0.8353
 1017TIP3    H124610   4.087   6.044   0.263 -0.0112  0.1315  1.3554
 1017TIP3    H224611   4.080   5.903   0.316  0.9248 -1.3734 -2.2016
 1018TIP3   OH224612   0.312   0.426   1.048  0.2510  0.5040 -0.3127
 1018TIP3    H124613   0.266   0.509   1.060 -2.9671 -0.9087 -1.7319
 1018TIP3    H224614   0.324   0.393   1.137  0.7942  2.0462  0.2190
 1019TIP3   OH224615   2.936   1.686   6.780 -0.6221  1.0390 -0.3141
 1019TIP3    H124616   2.980   1.605   6.804 -1.9863  0.7940  1.5246
 1019TIP3    H224617   2.990   1.722   6.710  1.0516 -0.5016  0.1046
 1020TIP3   OH224618   2.313   5.651   7.786 -0.1870 -0.3021  0.4223
 1020TIP3    H124619   2.319   5.746   7.784  1.3099 -0.3776 -0.5156
 1020TIP3    H224620   2.339   5.626   7.874  0.7657  0.1005  0.2596
 1021TIP3   OH224621   3.203   2.817   1.605 -0.4138 -0.1816  0.3833
 1021TIP3    H124622   3.144   2.770   1.547 -0.9136 -0.0082  0.7359
 1021TIP3    H224623   3.197   2.769   1.688  2.1708 -1.9227 -0.3326
 1022TIP3   OH224624   4.803   1.056   0.841  0.2773  0.0383 -0.0968
 1022TIP3    H124625   4.864   1.016   0.902 -0.9679 -3.2360 -0.7623
 1022TIP3    H224626   4.843   1.140   0.817  2.1801  0.1229  2.9181
 1023TIP3   OH224627   2.510   3.314   1.499  0.0121 -0.1403 -0.9049
 1023TIP3    H124628   2.444   3.315   1.568 -0.4844 -0.2595 -1.3729
 1023TIP3    H224629   2.484   3.384   1.440 -0.1258 -0.6773 -1.4900
 1024TIP3   OH224630   2.694   6.668   7.368 -0.5145  0.7827 -0.4443
 1024TIP3    H124631   2.629   6.649   7.301 -0.7894  0.1403 -0.0088
 1024TIP3    H224632   2.778   6.649   7.326 -0.7770 -1.9519  0.0859
 1025TIP3   OH224633   4.972   5.473   2.064  0.2355  0.1380  0.4068
 1025TIP3    H124634   5.061   5.500   2.088  0.7337  1.7055 -2.6697
 1025TIP3    H224635   4.924   5.471   2.146  3.1150 -0.9799  2.2355
 1026TIP3   OH224636   0.823   5.433   0.921 -0.5406  0.0396  0.2862
 1026TIP3    H124637   0.730   5.441   0.941 -0.4877 -1.1728  1.0494
 1026TIP3    H224638   0.862   5.394   0.999  0.5108 -0.0526 -0.2651
 1027TIP3   OH224639   4.017   2.512   1.208 -0.6363  0.6417  0.7783
 1027TIP3    H124640   3.934   2.549   1.179 -0.0146  1.2078 -0.3292
 1027TIP3    H224641   3.995   2.423   1.237 -1.6268  0.8022  0.5514
 1028TIP3   OH224642   2.647   0.248   8.522 -0.9329 -0.2691 -0.2066
 1028TIP3    H124643   2.689   0.318   8.571 -0.2047 -1.2409  0.6072
 1028TIP3    H224644   2.719   0.190   8.497 -1.6993 -1.7121  0.7701
 1029TIP3   OH224645   6.299   6.602   6.742 -0.0847 -0.4763  0.4433
 1029TIP3    H124646   6.273   6.694   6.736  1.6319  0.1745  1.9043
 1029TIP3    H224647   6.391   6.606   6.769  0.2685 -2.6327 -0.2992
 1030TIP3   OH224648   3.644   0.817   6.823  0.0585  0.2433 -0.2655
 1030TIP3    H124649   3.569   0.845   6.771 -0.3526 -1.6772 -0.7891
 1030TIP3    H224650   3.685   0.748   6.771  1.2127  0.1104  0.7665
 1031TIP3   OH224651   0.904   3.679   8.407 -0.2516 -0.5107  0.6517
 1031TIP3    H124652   0.868   3.761   8.372  0.5673 -0.9573 -1.4046
 1031TIP3    H224653   0.834   3.615   8.394 -0.3462 -0.4477  0.8521
 1032TIP3   OH224654   4.981   5.582   1.610 -0.1012  0.0204  0.3446
 1032TIP3    H124655   4.973   5.647   1.540  0.8926 -0.3959 -0.1626
 1032TIP3    H224656   4.894   5.542   1.615 -0.3236  0.4149 -0.2800
 1033TIP3   OH224657   3.700   5.412   7.358 -0.1621  0.0937 -0.0767
 1033TIP3    H124658   3.674   5.489   7.408  0.4637  0.4977 -0.3602
 1033TIP3    H224659   3.778   5.439   7.310  0.3377 -0.8554  0.1658
 1034TIP3   OH224660   0.717   5.962   6.428 -0.1357  0.0950 -0.6484
 1034TIP3    H124661   0.755   5.898   6.488 -0.9078  0.1963 -0.0436
 1034TIP3    H224662   0.791   6.017   6.402  0.3968 -0.5833 -0.6039
 1035TIP3   OH224663   2.691   5.107   1.019 -0.5171 -0.1988 -0.6323
 1035TIP3    H124664   2.760   5.117   0.953 -0.6456 -1.2427 -0.9431
 1035TIP3    H224665   2.735   5.120   1.103 -0.4169  1.5156 -0.9166
 1036TIP3   OH224666   3.293   5.338   8.192 -0.0091  0.2740 -0.1205
 1036TIP3    H124667   3.270   5.362   8.102 -0.4799  0.6532  0.0979
 1036TIP3    H224668   3.381   5.374   8.204  0.3682 -0.4428 -0.6786
 1037TIP3   OH224669   4.832   5.840   1.042  0.1452  0.3309 -0.4619
 1037TIP3    H124670   4.795   5.927   1.024  1.0163  1.3728  2.3070
 1037TIP3    H224671   4.921   5.844   1.009  0.7979  1.2219  1.2676
 1038TIP3   OH224672   2.590   5.403   2.646 -0.3132 -0.3206 -0.1805
 1038TIP3    H124673   2.577   5.436   2.557 -1.2151 -1.8402 -0.6469
 1038TIP3    H224674   2.627   5.477   2.694 -1.6034  1.1259 -1.3337
 1039TIP3   OH224675   5.115   2.664   7.163  0.0262 -0.0591 -0.2262
 1039TIP3    H124676   5.090   2.671   7.071  1.1417 -0.9353 -0.6176
 1039TIP3    H224677   5.205   2.698   7.165  0.6811 -1.7138  0.1871
 1040TIP3   OH224678   2.356   6.696   1.549  0.2068 -0.0022  0.2134
 1040TIP3    H124679   2.346   6.704   1.644 -1.8324  2.0008 -0.0586
 1040TIP3    H224680   2.274   6.656   1.520  0.6589 -0.2574 -0.7274
 1041TIP3   OH224681   2.137   5.559   1.661 -0.0682  0.0642  0.0280
 1041TIP3    H124682   2.119   5.531   1.750 -0.3516 -0.1906 -0.1097
 1041TIP3    H224683   2.221   5.517   1.640 -0.0967 -0.0334  0.1062
 1042TIP3   OH224684   4.408   3.994   0.197  0.0762 -0.2608 -0.1933
 1042TIP3    H124685   4.387   4.031   0.111  1.6047 -1.4393 -1.1252
 1042TIP3    H224686   4.360   3.911   0.200 -1.6442  0.7280  1.0018
 1043TIP3   OH224687   2.239   1.773   8.431  0.0183 -0.3009  0.0719
 1043TIP3    H124688   2.309   1.739   8.375  2.4096  2.5912  1.0143
 1043TIP3    H224689   2.254   1.731   8.515 -0.1562 -0.6198 -0.0564
 1044TIP3   OH224690   5.999   6.124   6.341 -0.1946  0.8301 -0.3158
 1044TIP3    H124691   5.979   6.040   6.301  2.3468 -0.5001  0.9282
 1044TIP3    H224692   5.924   6.143   6.398 -0.0463 -1.5728  0.8009
 1045TIP3   OH224693   3.657   5.638   0.515 -0.4648 -0.1189 -0.1928
 1045TIP3    H124694   3.666   5.641   0.610 -0.6487  0.5998 -0.1978
 1045TIP3    H224695   3.736   5.591   0.486 -0.7146 -0.8960  0.3498
 1046TIP3   OH224696   3.961   2.159   0.275 -0.1383  0.0610  0.9812
 1046TIP3    H124697   4.005   2.088   0.323  0.5215 -0.0704  0.2044
 1046TIP3    H224698   3.915   2.209   0.343  0.2951 -0.4620  1.6742
 1047TIP3   OH224699   3.308   1.938   0.099 -0.0529  0.2006 -0.8879
 1047TIP3    H124700   3.239   2.003   0.111 -0.6449 -0.4738 -0.5840
 1047TIP3    H224701   3.280   1.864   0.152  0.9125 -0.0805 -0.7668
 1048TIP3   OH224702   4.685   0.331   8.473 -0.5570 -0.0754  0.3378
 1048TIP3    H124703   4.664   0.397   8.538  0.6093 -0.5843  1.2700
 1048TIP3    H224704   4.732   0.378   8.405 -2.4586  0.6106 -0.5925
 1049TIP3   OH224705   1.213   5.044   0.272  0.0380  0.0216  0.0823
 1049TIP3    H124706   1.307   5.026   0.266 -0.0624 -0.1086 -2.7254
 1049TIP3    H224707   1.178   4.972   0.324  1.2588 -1.0242 -0.4760
 1050TIP3   OH224708   1.526   4.121   8.353  0.6104  0.0694 -0.5588
 1050TIP3    H124709   1.573   4.166   8.282 -2.2878  0.7934 -2.1620
 1050TIP3    H224710   1.528   4.029   8.328 -1.2800  0.4237 -2.2598
 1051TIP3   OH224711   5.955   3.292   7.874 -0.5410 -0.5991 -0.6129
 1051TIP3    H124712   5.914   3.263   7.792  0.4847 -0.3966 -1.2193
 1051TIP3    H224713   5.963   3.387   7.864 -1.1131 -0.4684  0.0690
 1052TIP3   OH224714   3.344   5.728   7.867  0.3245 -0.2737 -0.4653
 1052TIP3    H124715   3.325   5.712   7.959 -0.2103 -2.2117 -0.8591
 1052TIP3    H224716   3.413   5.794   7.868 -0.4408  0.5625  1.2671
 1053TIP3   OH224717   4.210   4.598   1.513 -0.3380 -0.1587 -0.1147
 1053TIP3    H124718   4.121   4.630   1.500 -0.1898  1.1216  1.6884
 1053TIP3    H224719   4.201   4.502   1.514 -1.5496 -0.0687 -0.7566
 1054TIP3   OH224720   1.767   6.741   2.703 -0.1576 -0.2027  0.0125
 1054TIP3    H124721   1.696   6.782   2.653 -1.1371 -0.0570  1.4445
 1054TIP3    H224722   1.771   6.792   2.784  1.7411 -0.1002 -0.1176
 1055TIP3   OH224723   5.093   6.747   1.864  0.1399  0.1729  0.2699
 1055TIP3    H124724   5.168   6.757   1.923  0.2678  1.1529 -0.0467
 1055TIP3    H224725   5.024   6.709   1.919  1.1736 -1.7588  0.3176
 1056TIP3   OH224726   5.940   4.300   2.014 -0.2771 -0.0922 -0.2506
 1056TIP3    H124727   5.883   4.376   2.000  0.4306  0.3461 -0.8615
 1056TIP3    H224728   5.947   4.292   2.109 -0.2701  0.6826 -0.1817
 1057TIP3   OH224729   1.869   1.480   0.345  0.0553 -0.3050  0.2239
 1057TIP3    H124730   1.906   1.550   0.291  1.7856  1.2631  3.1691
 1057TIP3    H224731   1.946   1.431   0.376 -0.8413 -1.0373  1.3675
 1058TIP3   OH224732   1.430   2.180   8.608  0.4531 -0.2911 -0.1373
 1058TIP3    H124733   1.521   2.164   8.630  0.2662 -0.2692  0.6686
 1058TIP3    H224734   1.407   2.108   8.548  1.2327  0.1968 -1.0373
 1059TIP3   OH224735   2.249   4.378   6.185 -0.6699  0.1241  0.7046
 1059TIP3    H124736   2.206   4.420   6.111  1.8574 -1.7046 -2.0628
 1059TIP3    H224737   2.328   4.430   6.200  0.0683 -0.8807  0.4184
 1060TIP3   OH224738   1.022   5.354   7.643  0.5995 -0.2797 -0.0283
 1060TIP3    H124739   1.063   5.282   7.692  0.7975  0.6426  1.1947
 1060TIP3    H224740   0.928   5.340   7.655  0.6452  0.3767  1.3319
 1061TIP3   OH224741   6.664   0.245   2.040 -0.2230  0.7202  0.1432
 1061TIP3    H124742   6.600   0.238   1.969 -1.1786  0.1946  1.0360
 1061TIP3    H224743   6.681   0.154   2.066  0.4714  0.8869  0.2855
 1062TIP3   OH224744   3.648   1.962   0.735 -0.4197  0.1303 -0.4357
 1062TIP3    H124745   3.587   2.034   0.753 -0.4627  0.3479 -1.3708
 1062TIP3    H224746   3.690   1.945   0.819 -1.1905  0.5160  0.0504
 1063TIP3   OH224747   3.436   0.238   7.939 -0.7977  0.1322 -0.1758
 1063TIP3    H124748   3.426   0.262   8.031 -1.6746  1.9828 -0.6850
 1063TIP3    H224749   3.387   0.306   7.892 -0.1128 -0.5914 -2.0212
 1064TIP3   OH224750   4.357   2.286   8.414 -0.3164  0.1400 -0.3891
 1064TIP3    H124751   4.414   2.222   8.456 -2.5774 -1.9219 -0.2032
 1064TIP3    H224752   4.352   2.258   8.323 -0.3471  0.8282 -0.6061
 1065TIP3   OH224753   3.108   5.163   8.229  0.4356  0.6721 -0.0643
 1065TIP3    H124754   3.195   5.203   8.236  0.6105  0.4839 -0.9846
 1065TIP3    H224755   3.124   5.069   8.232  0.4674  0.5862 -1.9280
 1066TIP3   OH224756   5.753   5.208   1.943 -0.6696  0.0402 -0.2812
 1066TIP3    H124757   5.831   5.188   1.995  0.0150 -1.2069 -1.7036
 1066TIP3    H224758   5.686   5.232   2.008 -0.3629 -3.0307  1.3448
 1067TIP3   OH224759   5.920   6.724   8.324  0.5022  0.3615 -0.5409
 1067TIP3    H124760   5.825   6.734   8.331  0.4739 -0.3979  0.4311
 1067TIP3    H224761   5.938   6.639   8.364  1.7655  1.2101  0.7793
 1068TIP3   OH224762   6.063   6.210   1.521 -0.1963  1.1181  0.3179
 1068TIP3    H124763   5.972   6.196   1.495  0.0083  2.3353 -1.2274
 1068TIP3    H224764   6.089   6.129   1.565 -1.3009 -0.2316 -1.3842
 1069TIP3   OH224765   5.491   6.140   7.162 -0.2193 -0.2651  0.1453
 1069TIP3    H124766   5.488   6.052   7.202 -0.5559 -0.2035  0.2596
 1069TIP3    H224767   5.582   6.151   7.136 -0.3823 -1.0812 -0.8311
 1070TIP3   OH224768   4.157   5.909   8.326 -0.0431  0.2051 -0.2276
 1070TIP3    H124769   4.154   5.844   8.255 -0.2525  0.2732 -0.2807
 1070TIP3    H224770   4.220   5.873   8.388 -0.1787 -0.0638 -0.2442
 1071TIP3   OH224771   0.945   5.576   8.601 -0.2446  0.6914 -0.3903
 1071TIP3    H124772   0.851   5.560   8.602 -0.0812 -0.4693  1.2111
 1071TIP3    H224773   0.956   5.656   8.652 -0.3574  0.7180 -0.4076
 1072TIP3   OH224774   6.539   2.932   7.202  0.3773 -0.6202  0.4172
 1072TIP3    H124775   6.632   2.909   7.192  0.0657 -1.8697  0.2389
 1072TIP3    H224776   6.495   2.881   7.134 -0.5400 -0.7019  1.0687
 1073TIP3   OH224777   1.638   2.343   1.942 -0.2285 -0.2504 -0.5212
 1073TIP3    H124778   1.591   2.421   1.912  0.3764 -0.3722 -1.8420
 1073TIP3    H224779   1.714   2.379   1.990  0.0434 -0.0212 -1.1162
 1074TIP3   OH224780   0.697   1.232   7.927  0.0286 -0.1211 -0.3995
 1074TIP3    H124781   0.775   1.186   7.956 -0.7509 -0.7131  0.8325
 1074TIP3    H224782   0.651   1.169   7.871 -0.7482 -0.6743  0.8210
 1075TIP3   OH224783   5.006   1.076   7.240 -0.3021  0.0497 -0.1261
 1075TIP3    H124784   5.061   1.153   7.230 -1.0011  0.5863  0.0873
 1075TIP3    H224785   5.043   1.029   7.315 -0.4983  0.7221  0.3968
 1076TIP3   OH224786   5.372   0.298   2.134 -0.3096  0.3522  0.7124
 1076TIP3    H124787   5.285   0.296   2.172  0.3338  1.9865  2.3914
 1076TIP3    H224788   5.431   0.277   2.206  0.7353 -0.5274 -0.3472
 1077TIP3   OH224789   2.007   4.625   0.253 -0.3892 -0.1045 -0.4748
 1077TIP3    H124790   1.982   4.715   0.274 -0.5930 -0.0409 -0.9664
 1077TIP3    H224791   1.943   4.571   0.299  0.1048 -0.0200  0.3168
 1078TIP3   OH224792   3.976   4.892   8.521  0.4599  0.4586 -0.1673
 1078TIP3    H124793   4.035   4.860   8.453 -1.6322 -2.4261 -0.8650
 1078TIP3    H224794   4.012   4.857   8.603 -0.5540 -1.9856 -0.6765
 1079TIP3   OH224795   3.414   3.856   7.843 -0.2872 -0.2502  0.0247
 1079TIP3    H124796   3.461   3.793   7.897 -2.8595 -1.8554  0.5481
 1079TIP3    H224797   3.364   3.909   7.905  0.0320  0.7975 -0.5729
 1080TIP3   OH224798   5.724   1.472   8.255 -0.5633  0.7560  0.3422
 1080TIP3    H124799   5.791   1.404   8.256 -0.1264  1.1921  0.7243
 1080TIP3    H224800   5.661   1.445   8.322 -1.0928  0.0383 -0.4145
 1081TIP3   OH224801   5.252   4.636   6.187 -0.1837 -0.3314  0.1170
 1081TIP3    H124802   5.176   4.634   6.129 -1.2732  0.2053  1.4853
 1081TIP3    H224803   5.274   4.543   6.201 -0.3065 -0.4795 -0.6131
 1082TIP3   OH224804   0.968   5.181   6.989 -0.0344  0.2545 -0.0475
 1082TIP3    H124805   0.948   5.110   7.050 -3.5551  0.9213 -0.1786
 1082TIP3    H224806   1.033   5.145   6.930  0.3779 -1.8616  1.5710
 1083TIP3   OH224807   0.139   2.387   2.530  0.0672  0.3365  0.6221
 1083TIP3    H124808   0.196   2.385   2.454  1.2382  0.2419  1.4747
 1083TIP3    H224809   0.122   2.480   2.544  1.0362  0.4533  1.0899
 1084TIP3   OH224810   4.873   1.677   0.124 -0.0629 -0.4068 -0.3672
 1084TIP3    H124811   4.803   1.634   0.075 -1.8917  0.1721  1.6051
 1084TIP3    H224812   4.845   1.769   0.129 -0.1236 -0.5049  1.9736
 1085TIP3   OH224813   4.299   4.534   0.677  0.1762  0.2580 -0.2097
 1085TIP3    H124814   4.313   4.440   0.679 -0.8646  0.1015  0.3234
 1085TIP3    H224815   4.314   4.559   0.586 -0.0977 -0.5175 -0.4727
 1086TIP3   OH224816   4.366   2.211   0.875  0.0614  0.2007 -0.0798
 1086TIP3    H124817   4.303   2.146   0.908 -0.6562  0.1627 -1.4363
 1086TIP3    H224818   4.414   2.165   0.807 -1.0326  1.2856 -1.6580
 1087TIP3   OH224819   3.900   6.607   1.681 -0.6207  0.0692 -0.1335
 1087TIP3    H124820   3.921   6.597   1.773  2.4690 -0.6979 -0.7921
 1087TIP3    H224821   3.936   6.693   1.657 -0.7221 -0.0625 -0.7777
 1088TIP3   OH224822   1.233   5.151   7.146 -0.2998 -0.1351  0.1287
 1088TIP3    H124823   1.147   5.142   7.188 -0.0887 -0.9581  0.3888
 1088TIP3    H224824   1.225   5.103   7.064  0.4887 -1.8485  1.0236
 1089TIP3   OH224825   6.193   1.702   0.616  0.0169  0.7443 -0.4189
 1089TIP3    H124826   6.266   1.741   0.568 -0.7453  0.1707 -2.1561
 1089TIP3    H224827   6.134   1.776   0.633 -0.7054  0.6778 -2.3427
 1090TIP3   OH224828   1.229   0.852   7.448  0.5377  0.0823 -0.8934
 1090TIP3    H124829   1.160   0.889   7.503  0.9903 -1.7997  1.0960
 1090TIP3    H224830   1.308   0.899   7.473  0.6203 -0.3133 -0.3865
 1091TIP3   OH224831   3.651   3.252   1.997 -0.0460 -0.2358 -0.0170
 1091TIP3    H124832   3.694   3.213   1.921 -0.0404 -1.0922  0.4103
 1091TIP3    H224833   3.612   3.177   2.043  1.4816  0.0151  1.7993
 1092TIP3   OH224834   6.765   4.951   7.014  0.3433  0.1806 -0.3137
 1092TIP3    H124835   6.815   4.972   7.093  0.4542  1.9281 -0.8221
 1092TIP3    H224836   6.820   4.888   6.967 -0.0253 -1.4315  1.2773
 1093TIP3   OH224837   2.777   6.012   7.337  0.2088  0.3615  0.3543
 1093TIP3    H124838   2.724   6.074   7.287 -1.7801 -0.7181  1.0081
 1093TIP3    H224839   2.834   5.972   7.271 -0.5490  0.7954 -0.5923
 1094TIP3   OH224840   3.805   3.895   8.264  0.0051 -0.2114  0.1652
 1094TIP3    H124841   3.897   3.905   8.291  0.5670  0.6289 -1.8637
 1094TIP3    H224842   3.782   3.806   8.291  1.3766 -0.4100  0.7966
 1095TIP3   OH224843   3.044   0.844   8.013  0.3575 -0.4932  0.1665
 1095TIP3    H124844   3.058   0.856   7.919  0.2480 -0.2042  0.1876
 1095TIP3    H224845   3.131   0.855   8.051  0.5259 -1.2805  0.0351
 1096TIP3   OH224846   4.731   3.958   8.088 -0.0974 -0.0478 -0.3103
 1096TIP3    H124847   4.751   3.901   8.014 -0.1166 -0.6130  0.1122
 1096TIP3    H224848   4.765   4.044   8.062 -0.8030 -0.0541 -1.2909
 1097TIP3   OH224849   2.094   1.590   1.866  0.1907  0.0065  0.0090
 1097TIP3    H124850   2.085   1.672   1.818 -1.7585  0.6910  1.4039
 1097TIP3    H224851   2.179   1.596   1.909  1.4323 -0.0942 -2.2794
 1098TIP3   OH224852   5.770   5.868   7.153  0.3046 -0.3083  0.0812
 1098TIP3    H124853   5.819   5.797   7.194  0.8893  0.4560  0.7464
 1098TIP3    H224854   5.698   5.886   7.213  0.8935  0.4996  0.5708
 1099TIP3   OH224855   1.333   3.164   7.809 -0.1973  0.2985 -0.2246
 1099TIP3    H124856   1.394   3.198   7.743  0.9744 -0.9731  0.1479
 1099TIP3    H224857   1.318   3.238   7.868  0.8073  0.7124 -0.4572
 1100TIP3   OH224858   4.479   6.749   8.356 -0.1995 -0.6589 -0.2124
 1100TIP3    H124859   4.529   6.766   8.275 -0.0278 -0.3594 -0.0434
 1100TIP3    H224860   4.484   6.831   8.405 -0.7155 -0.6855 -0.1144
 1101TIP3   OH224861   1.584   5.019   2.605 -0.0592 -0.2798  0.3881
 1101TIP3    H124862   1.649   5.038   2.537 -0.9245 -0.3767 -0.4892
 1101TIP3    H224863   1.522   5.092   2.600 -0.4788 -0.6157  0.6487
 1102TIP3   OH224864   0.960   2.020   0.204 -0.1122 -0.3103 -0.0752
 1102TIP3    H124865   0.865   2.010   0.210 -0.0171 -2.2483 -1.2531
 1102TIP3    H224866   0.986   1.967   0.129  1.9467 -0.0664  0.4033
 1103TIP3   OH224867   4.525   5.604   0.609 -0.8345  0.2966 -0.6006
 1103TIP3    H124868   4.466   5.643   0.545 -1.6937 -0.6764 -0.4457
 1103TIP3    H224869   4.493   5.514   0.618  0.8000 -0.3161 -0.6365
 1104TIP3   OH224870   4.632   4.499   8.497  0.2315 -0.0325 -0.0964
 1104TIP3    H124871   4.695   4.432   8.526 -1.9279 -1.7103  0.9728
 1104TIP3    H224872   4.628   4.561   8.570  0.4647 -0.0308 -0.0835
 1105TIP3   OH224873   2.131   2.004   6.974  0.2067  0.8521  0.0007
 1105TIP3    H124874   2.078   2.026   6.897 -2.2103 -0.2218  1.2168
 1105TIP3    H224875   2.193   1.938   6.943 -1.6160 -0.5695 -0.8409
 1106TIP3   OH224876   3.656   5.072   0.299 -0.0245  0.6280 -0.1660
 1106TIP3    H124877   3.632   4.980   0.295 -0.3674  0.7376 -0.8164
 1106TIP3    H224878   3.646   5.104   0.209 -0.1576  1.3594  0.0967
 1107TIP3   OH224879   0.016   2.988   0.016 -1.3193  0.1739 -0.4146
 1107TIP3    H124880  -0.051   3.049   0.045 -0.0263  1.5782 -0.2330
 1107TIP3    H224881   0.091   3.043  -0.006 -0.8128 -1.1748 -2.3945
 1108TIP3   OH224882   1.458   1.140   7.172 -0.3726  0.1401  0.4941
 1108TIP3    H124883   1.377   1.156   7.124  0.0987  2.1244  0.2707
 1108TIP3    H224884   1.442   1.059   7.220 -2.4406  0.4082  0.3420
 1109TIP3   OH224885   2.655   2.854   6.945  0.3043 -0.2060 -0.6993
 1109TIP3    H124886   2.702   2.894   7.019  0.5428 -0.7212 -0.5726
 1109TIP3    H224887   2.723   2.832   6.882  0.2035 -0.6739 -0.6480
 1110TIP3   OH224888   5.674   4.858   1.899  0.0090 -0.2598 -0.1953
 1110TIP3    H124889   5.760   4.888   1.927  0.0535 -0.4528 -0.1243
 1110TIP3    H224890   5.632   4.826   1.979  0.0991 -0.7177 -0.3278
 1111TIP3   OH224891   0.001   4.371   8.411 -0.5317 -0.0777  0.3096
 1111TIP3    H124892  -0.001   4.355   8.505  0.7024 -0.5632  0.2713
 1111TIP3    H224893  -0.052   4.450   8.399 -0.5939  0.0623  1.4245
 1112TIP3   OH224894   1.025   0.586   0.954 -0.2245 -0.1275  0.1148
 1112TIP3    H124895   1.115   0.605   0.927 -1.0749  1.8309 -1.6420
 1112TIP3    H224896   1.012   0.494   0.931  1.4527 -0.5844  0.8591
 1113TIP3   OH224897   2.751   3.851   1.796  0.2382 -0.7439 -0.4187
 1113TIP3    H124898   2.692   3.884   1.728  0.2068  0.1047  0.0149
 1113TIP3    H224899   2.695   3.793   1.849 -0.2876  0.2450  0.1354
 1114TIP3   OH224900   3.153   6.435   1.267  0.0249 -0.3057 -0.3641
 1114TIP3    H124901   3.165   6.385   1.187 -2.1494  0.6926 -1.3899
 1114TIP3    H224902   3.063   6.414   1.295  0.1137  0.7590  0.7885
 1115TIP3   OH224903   3.984   3.311   1.901  0.5296 -0.3601  0.0169
 1115TIP3    H124904   4.007   3.392   1.856 -1.3163  1.5578  2.2459
 1115TIP3    H224905   3.902   3.282   1.860  1.8791 -1.9781 -1.7023
 1116TIP3   OH224906   5.303   0.594   6.605  0.1225 -0.2668 -0.1607
 1116TIP3    H124907   5.300   0.538   6.683 -1.6144  1.6958  1.3022
 1116TIP3    H224908   5.334   0.678   6.638 -1.2949  0.8022 -1.4476
 1117TIP3   OH224909   0.112   4.446   0.554 -1.1921 -0.5791 -0.0564
 1117TIP3    H124910   0.107   4.450   0.649  0.5011 -1.1125  0.0891
 1117TIP3    H224911   0.043   4.384   0.529 -0.9732 -1.2295  0.9066
 1118TIP3   OH224912   2.956   4.004   7.473  0.7446  0.5882  0.1790
 1118TIP3    H124913   3.008   3.926   7.490  1.1429  1.1908  1.9387
 1118TIP3    H224914   3.020   4.075   7.467  0.2978  0.9663 -0.2182
 1119TIP3   OH224915   4.915   3.657   0.072  0.0608  0.9764  0.0473
 1119TIP3    H124916   4.959   3.574   0.090 -0.2552  0.9634  0.7952
 1119TIP3    H224917   4.985   3.721   0.070  0.0421  1.1926  2.6959
 1120TIP3   OH224918   5.470   2.540   7.388 -0.3651  0.1758  0.5354
 1120TIP3    H124919   5.389   2.516   7.344 -0.1815 -0.5053  0.5395
 1120TIP3    H224920   5.456   2.629   7.420 -0.2866  0.9461 -1.4213
 1121TIP3   OH224921   1.514   0.660   7.477 -0.3111 -0.3291 -0.3453
 1121TIP3    H124922   1.578   0.647   7.546 -0.3823 -3.0399 -0.6752
 1121TIP3    H224923   1.429   0.653   7.520 -0.5385  3.1034  0.0639
 1122TIP3   OH224924   1.902   0.401   7.588  0.2688  0.8025  0.4679
 1122TIP3    H124925   1.859   0.322   7.621 -1.3578  1.0488 -0.9246
 1122TIP3    H224926   1.832   0.450   7.546  1.1440  3.2462  1.6936
 1123TIP3   OH224927   6.233   3.002   7.623  0.5472  0.1919  0.5237
 1123TIP3    H124928   6.208   3.034   7.710 -1.0223  1.7756 -0.4451
 1123TIP3    H224929   6.293   3.068   7.589  0.8363 -0.2124  0.2394
 1124TIP3   OH224930   5.193   4.349   8.087 -0.4339  0.4031 -0.1005
 1124TIP3    H124931   5.172   4.433   8.128 -0.2743  0.1036  0.6071
 1124TIP3    H224932   5.275   4.365   8.040 -0.6118  0.7469 -0.2967
 1125TIP3   OH224933   4.175   6.369   1.286  0.0282 -0.3663 -0.1845
 1125TIP3    H124934   4.174   6.452   1.333 -1.7566 -0.9486  0.9265
 1125TIP3    H224935   4.252   6.373   1.230  0.5390  1.6041  0.5981
 1126TIP3   OH224936   3.780   0.134   0.701 -0.9739  0.1030  0.2251
 1126TIP3    H124937   3.808   0.224   0.682  0.6252 -0.5312 -0.5944
 1126TIP3    H224938   3.769   0.094   0.615 -0.8756 -0.7204  0.5882
 1127TIP3   OH224939   5.527   0.397   1.592  0.3094 -0.3421  0.7613
 1127TIP3    H124940   5.447   0.354   1.624 -0.3255  0.5491  0.4172
 1127TIP3    H224941   5.551   0.458   1.661  0.1678  0.0342  0.4849
 1128TIP3   OH224942   0.694   6.813   7.759  0.2074  0.0582 -0.4848
 1128TIP3    H124943   0.620   6.767   7.719  0.4286 -0.9930  0.2978
 1128TIP3    H224944   0.681   6.905   7.733 -0.7850 -0.2718 -1.2310
 1129TIP3   OH224945   5.970   3.734   7.997 -0.2026 -0.5465 -0.1355
 1129TIP3    H124946   5.952   3.793   8.071  0.3000  1.2436 -1.3724
 1129TIP3    H224947   5.897   3.672   7.997 -0.9056  0.2339  1.0426
 1130TIP3   OH224948   1.921   0.399   1.362  0.2241 -0.2265 -0.0924
 1130TIP3    H124949   1.843   0.398   1.307 -0.1600  0.4378  0.4208
 1130TIP3    H224950   1.993   0.376   1.303 -0.5209 -2.2100 -0.2961
 1131TIP3   OH224951   6.587   5.705   7.760  0.0572 -0.0036  0.0415
 1131TIP3    H124952   6.660   5.766   7.773  1.5072 -1.3441 -1.4252
 1131TIP3    H224953   6.590   5.684   7.667 -3.2153  1.0612 -0.4165
 1132TIP3   OH224954   0.016   4.282   1.175  0.1810 -0.0886  0.0698
 1132TIP3    H124955   0.039   4.196   1.210  0.6623 -0.5840 -1.3725
 1132TIP3    H224956  -0.051   4.264   1.109  0.1847  0.6637 -0.1515
 1133TIP3   OH224957   3.380   4.763   7.496 -0.0474 -0.3658  0.2017
 1133TIP3    H124958   3.285   4.758   7.507  0.0312 -0.7829  0.7107
 1133TIP3    H224959   3.410   4.813   7.572  0.3248 -1.8144  1.0329
 1134TIP3   OH224960   0.045   3.254   6.709 -0.5681 -0.0236 -0.5261
 1134TIP3    H124961   0.133   3.234   6.743 -0.6924 -1.6258 -1.0316
 1134TIP3    H224962  -0.012   3.251   6.786 -0.0567  2.0936 -0.0235
 1135TIP3   OH224963   0.128   2.359   6.748 -0.5400 -0.5983  0.2461
 1135TIP3    H124964   0.070   2.423   6.791  0.6433 -0.2909  1.4874
 1135TIP3    H224965   0.088   2.274   6.766 -0.0602 -0.4828  2.1007
 1136TIP3   OH224966   4.353   6.113   1.546  0.3923  0.2579  0.2717
 1136TIP3    H124967   4.290   6.132   1.616 -2.0429 -0.6194 -1.5344
 1136TIP3    H224968   4.387   6.026   1.568  0.3643  0.3915  0.8485
 1137TIP3   OH224969   4.055   4.239   8.221  0.5276 -0.0234 -0.3388
 1137TIP3    H124970   4.024   4.152   8.243 -1.0167  0.4422 -0.5517
 1137TIP3    H224971   4.042   4.247   8.127 -1.0125  1.0335 -0.0732
 1138TIP3   OH224972   4.960   3.209   7.482  0.5560  0.8418 -0.2211
 1138TIP3    H124973   4.894   3.257   7.532  2.3666  1.3817  1.8150
 1138TIP3    H224974   4.997   3.147   7.544  2.4876  1.1120 -1.0333
 1139TIP3   OH224975   4.382   1.000   8.616 -0.3319  0.0429  0.1822
 1139TIP3    H124976   4.342   1.074   8.571 -0.5650 -0.6611 -0.8234
 1139TIP3    H224977   4.451   1.038   8.670 -2.6652  1.3856  2.4374
 1140TIP3   OH224978   0.926   4.473   6.774 -0.0414  0.2077 -0.0251
 1140TIP3    H124979   0.884   4.549   6.815 -0.9856 -0.4846  0.3489
 1140TIP3    H224980   0.858   4.406   6.775  0.6563 -0.5229 -0.6987
 1141TIP3   OH224981   4.917   1.487   8.438  0.4530 -0.3096  0.2290
 1141TIP3    H124982   4.862   1.479   8.516 -0.7826 -2.1849 -0.7606
 1141TIP3    H224983   5.003   1.457   8.467  0.0990 -0.6425  0.9753
 1142TIP3   OH224984   5.064   5.563   2.428  0.4142 -0.3148 -0.0267
 1142TIP3    H124985   5.052   5.502   2.501  0.8799  1.3415  1.4948
 1142TIP3    H224986   4.989   5.546   2.370  0.0395 -1.6714  0.8159
 1143TIP3   OH224987   4.017   4.313   7.735  0.2768 -0.7195  0.2682
 1143TIP3    H124988   4.096   4.316   7.680  0.1065 -0.9051  0.0080
 1143TIP3    H224989   3.944   4.314   7.673 -0.0169  1.7764  0.5577
 1144TIP3   OH224990   2.599   3.006   8.390  0.2914 -0.0014  0.2032
 1144TIP3    H124991   2.614   3.073   8.324  1.3242  0.7731  1.1829
 1144TIP3    H224992   2.666   2.940   8.373 -0.3967 -0.5530 -0.4372
 1145TIP3   OH224993   4.189   0.422   0.968  0.1394 -0.1454  0.4192
 1145TIP3    H124994   4.114   0.369   0.993 -1.0706  1.2231 -0.1590
 1145TIP3    H224995   4.230   0.374   0.896 -0.5594 -0.5965  0.3126
 1146TIP3   OH224996   5.578   6.682   0.207  0.8258  0.0918  0.2754
 1146TIP3    H124997   5.573   6.775   0.184 -0.1505  0.0317  0.2185
 1146TIP3    H224998   5.644   6.646   0.148 -0.5172  0.2645 -1.4062
 1147TIP3   OH224999   2.864   3.696   0.288 -0.0910  0.3745  0.5013
 1147TIP3    H125000   2.872   3.698   0.383 -1.0179 -0.7100  0.6198
 1147TIP3    H225001   2.918   3.622   0.260  1.4665  1.6265 -0.0031
 1148TIP3   OH225002   6.516   1.093   7.491  0.1864 -0.0864  0.2055
 1148TIP3    H125003   6.548   1.005   7.471  0.3367 -0.3734  1.6013
 1148TIP3    H225004   6.486   1.127   7.407  2.5982 -0.4244 -0.8672
 1149TIP3   OH225005   6.596   0.461   8.267  0.7308  0.6112 -0.7370
 1149TIP3    H125006   6.584   0.441   8.174  1.0020  2.2628 -1.1490
 1149TIP3    H225007   6.656   0.535   8.268  0.9828  0.4025  0.7808
 1150TIP3   OH225008   3.142   3.724   6.328  0.0157  0.1648 -0.0525
 1150TIP3    H125009   3.170   3.633   6.343  0.2943  0.2606  0.0094
 1150TIP3    H225010   3.220   3.776   6.346 -0.2490  0.4485  0.2992
 1151TIP3   OH225011   5.959   3.219   8.257  0.0232  0.0476  0.0843
 1151TIP3    H125012   5.952   3.198   8.350 -0.2460 -0.1007  0.0296
 1151TIP3    H225013   5.894   3.164   8.214  0.2902 -0.0392 -0.2188
 1152TIP3   OH225014   5.122   4.616   1.148 -0.6858  0.3921  0.2309
 1152TIP3    H125015   5.134   4.591   1.056 -1.3510  1.9948 -0.3155
 1152TIP3    H225016   5.028   4.632   1.157 -0.5811  0.5693  1.1030
 1153TIP3   OH225017   2.002   2.872   7.328  0.4921 -0.1143  0.0775
 1153TIP3    H125018   1.957   2.947   7.288  0.2978 -0.5034 -0.4565
 1153TIP3    H225019   2.061   2.910   7.392  1.2067  0.5721 -0.9602
 1154TIP3   OH225020   0.702   2.876   7.409 -0.4695  0.5163 -0.6249
 1154TIP3    H125021   0.792   2.895   7.436 -0.9196  1.4815  0.3050
 1154TIP3    H225022   0.695   2.913   7.321  0.5997 -1.3571 -1.5688
 1155TIP3   OH225023   6.026   3.988   0.294 -0.0774 -0.2219  0.3387
 1155TIP3    H125024   6.110   4.032   0.284  0.1483 -0.4640  1.0575
 1155TIP3    H225025   6.032   3.945   0.380 -0.6371 -0.8859  0.0520
 1156TIP3   OH225026   3.200   0.936   1.895 -0.4975  0.6255 -0.2348
 1156TIP3    H125027   3.269   0.935   1.962  1.2245  1.3214 -1.9051
 1156TIP3    H225028   3.138   1.002   1.925 -0.7496 -0.3513  1.5510
 1157TIP3   OH225029   1.246   0.260   7.977 -0.4529 -0.3408 -0.0152
 1157TIP3    H125030   1.213   0.334   7.925  1.1987 -0.4168 -1.2694
 1157TIP3    H225031   1.189   0.187   7.954 -1.6978  0.3692  0.7327
 1158TIP3   OH225032   6.197   2.595   8.491  0.0359  0.6356  0.3059
 1158TIP3    H125033   6.154   2.574   8.574 -0.2833 -0.3788 -0.0892
 1158TIP3    H225034   6.160   2.531   8.429 -0.1127  1.6964 -0.7286
 1159TIP3   OH225035   2.609   1.477   1.609  0.1474  0.2914  0.0016
 1159TIP3    H125036   2.593   1.397   1.560  0.6822  0.5317 -0.5838
 1159TIP3    H225037   2.687   1.458   1.661  0.2820  0.4268 -0.1464
 1160TIP3   OH225038   0.104   5.288   7.690  0.1208  0.2970  0.1572
 1160TIP3    H125039   0.083   5.233   7.765 -0.9360  2.6743  1.7149
 1160TIP3    H225040   0.034   5.353   7.687  1.8670  2.2511 -0.8932
 1161TIP3   OH225041   1.875   1.342   7.992  0.4031  0.2060 -0.7549
 1161TIP3    H125042   1.893   1.354   7.898 -0.6756 -1.5711 -1.2149
 1161TIP3    H225043   1.826   1.261   7.997 -0.9067  1.0590  1.2249
 1162TIP3   OH225044   2.535   0.678   1.317  0.2209  0.8372  0.2333
 1162TIP3    H125045   2.468   0.727   1.363 -0.4217 -0.5836  0.8582
 1162TIP3    H225046   2.522   0.700   1.224 -2.1353 -0.5525  0.1577
 1163TIP3   OH225047   5.669   5.498   0.532 -0.4351  0.0420 -0.1808
 1163TIP3    H125048   5.664   5.411   0.492 -3.9785 -0.5611  1.1711
 1163TIP3    H225049   5.689   5.481   0.624 -1.4534  0.5509  0.1610
 1164TIP3   OH225050   5.410   2.065   1.345 -0.0690  0.0182 -0.1836
 1164TIP3    H125051   5.459   2.039   1.268  1.1080 -0.9315  0.8353
 1164TIP3    H225052   5.378   2.153   1.326  1.4702  0.3899 -1.1580
 1165TIP3   OH225053   6.202   0.955   7.220  0.2410 -0.0343  0.0130
 1165TIP3    H125054   6.208   0.926   7.129  2.6635  0.2633  0.0270
 1165TIP3    H225055   6.205   0.875   7.272  1.0522 -0.0929 -0.1184
 1166TIP3   OH225056   2.118   0.022   1.291  1.0684  0.3428 -0.8642
 1166TIP3    H125057   2.156   0.058   1.371  3.2170  0.1844 -1.7399
 1166TIP3    H225058   2.044  -0.031   1.321  1.4994  0.6981  0.9526
 1167TIP3   OH225059   6.196   5.633   0.969  0.1056  0.2827  0.3965
 1167TIP3    H125060   6.234   5.691   0.902  0.2159 -1.5797 -1.2701
 1167TIP3    H225061   6.117   5.598   0.928  0.3585 -1.1666  1.0823
 1168TIP3   OH225062   3.606   1.155   7.262  0.4408 -0.5163  0.1127
 1168TIP3    H125063   3.564   1.200   7.189  2.8015  2.2399  0.2878
 1168TIP3    H225064   3.543   1.161   7.333 -0.8180 -0.9322 -0.9166
 1169TIP3   OH225065   3.787   4.957   7.256  0.1144 -0.0673  0.1312
 1169TIP3    H125066   3.817   5.012   7.184 -1.4643 -1.0641 -1.3647
 1169TIP3    H225067   3.714   5.006   7.294 -2.9327 -1.9627 -2.7470
 1170TIP3   OH225068   5.211   0.091   0.790 -0.3658  0.3556  0.6313
 1170TIP3    H125069   5.167   0.162   0.838 -2.2076  1.4673 -2.4027
 1170TIP3    H225070   5.157   0.078   0.712  2.0310 -1.7934 -0.8218
 1171TIP3   OH225071   0.999   0.779   0.084  0.1251 -0.3170 -0.0127
 1171TIP3    H125072   0.941   0.853   0.101  0.6146  0.5655 -1.9461
 1171TIP3    H225073   1.087   0.813   0.099  0.3171 -0.7827 -0.0466
 1172TIP3   OH225074   5.626   6.705   1.406  0.0706  0.1986  0.3778
 1172TIP3    H125075   5.639   6.610   1.410 -0.2979  0.0385 -1.5450
 1172TIP3    H225076   5.534   6.717   1.428 -0.0147  0.0678  0.0898
 1173TIP3   OH225077   4.070   1.027   1.252 -0.2135 -0.6906 -0.0309
 1173TIP3    H125078   4.117   1.106   1.278  2.1582 -2.6108  2.0589
 1173TIP3    H225079   4.031   1.049   1.167  0.0495  2.7592  0.6167
 1174TIP3   OH225080   4.365   3.815   6.977  0.6906 -0.5434  0.4184
 1174TIP3    H125081   4.288   3.836   6.924  1.6987 -2.0839 -1.8241
 1174TIP3    H225082   4.439   3.828   6.918  2.1044 -0.0119  2.2238
 1175TIP3   OH225083   3.671   6.165   2.362 -0.1552  0.2330  0.2846
 1175TIP3    H125084   3.739   6.225   2.391 -1.6748  1.4987  1.3371
 1175TIP3    H225085   3.719   6.086   2.335  1.6750  0.9227  1.3758
 1176TIP3   OH225086   6.773   3.344   1.244  0.4874  0.1561 -0.0487
 1176TIP3    H125087   6.695   3.313   1.198  0.7921 -1.2589  0.3397
 1176TIP3    H225088   6.739   3.396   1.317 -0.0582  0.3362 -0.4235
 1177TIP3   OH225089   5.340   0.604   0.772  0.0393 -0.3232 -0.3359
 1177TIP3    H125090   5.389   0.654   0.706  1.8976 -2.7594 -0.9235
 1177TIP3    H225091   5.293   0.538   0.722  0.2300 -1.2293  0.6546
 1178TIP3   OH225092   5.395   1.414   0.840 -0.4037  0.0905  0.1556
 1178TIP3    H125093   5.457   1.481   0.810  1.1951 -0.6459  1.6400
 1178TIP3    H225094   5.346   1.457   0.910  0.2060 -0.0933  0.7015
 1179TIP3   OH225095   2.614   6.266   7.265 -0.1308 -0.1283  0.2579
 1179TIP3    H125096   2.536   6.233   7.220  0.2787 -0.8641  0.0676
 1179TIP3    H225097   2.666   6.306   7.195 -0.1051 -0.0889  0.2998
 1180TIP3   OH225098   0.313   1.711   1.918  0.1478 -0.1446  0.0198
 1180TIP3    H125099   0.397   1.757   1.922  0.1115  0.1534 -1.9042
 1180TIP3    H225100   0.327   1.632   1.970  1.3250  0.3340  0.4681
 1181TIP3   OH225101   3.904   6.028   8.235 -0.6418 -0.1032 -0.0355
 1181TIP3    H125102   3.980   5.984   8.275 -0.5370  0.4527  0.3952
 1181TIP3    H225103   3.903   6.114   8.276 -1.6987 -0.2143  0.1833
 1182TIP3   OH225104   0.546   1.360   1.647 -0.5275 -0.8608 -0.2045
 1182TIP3    H125105   0.604   1.430   1.619 -2.8255  0.1495 -2.8702
 1182TIP3    H225106   0.572   1.343   1.738  0.4102  3.1607  0.4872
 1183TIP3   OH225107   0.290   1.168   8.549  0.7387  0.2904  0.4009
 1183TIP3    H125108   0.344   1.114   8.608  2.3869  0.9200 -0.4797
 1183TIP3    H225109   0.228   1.106   8.512  0.8129 -0.4637  1.4751
 1184TIP3   OH225110   3.287   5.141   7.588  0.2861 -0.4952  0.0174
 1184TIP3    H125111   3.333   5.225   7.590  0.4177 -0.5497 -0.7131
 1184TIP3    H225112   3.356   5.076   7.572 -0.0633 -0.5551 -1.3157
 1185TIP3   OH225113   0.292   6.346   1.157  0.1375 -0.0979  0.3743
 1185TIP3    H125114   0.335   6.430   1.141 -0.1756 -0.0503 -0.2039
 1185TIP3    H225115   0.199   6.367   1.163  0.0512 -0.4131  0.1627
 1186TIP3   OH225116   3.486   2.363   7.310 -0.4795 -0.1317  0.5362
 1186TIP3    H125117   3.467   2.360   7.216  0.0355  0.9654  0.3819
 1186TIP3    H225118   3.565   2.416   7.317  0.1730 -1.1813  1.5066
 1187TIP3   OH225119   3.952   6.331   0.580 -0.3421 -0.0329  0.3964
 1187TIP3    H125120   3.882   6.345   0.643 -0.6430  1.5296 -0.2538
 1187TIP3    H225121   3.942   6.401   0.515 -1.2991 -2.6930 -2.6004
 1188TIP3   OH225122   6.540   4.051   0.541 -0.2433  0.2721  0.1182
 1188TIP3    H125123   6.573   4.133   0.505 -0.1882 -0.3499 -1.3524
 1188TIP3    H225124   6.589   4.038   0.622  0.5868  1.1143 -0.2347
 1189TIP3   OH225125   1.863   0.662   8.185  0.1293  0.1046  0.3816
 1189TIP3    H125126   1.942   0.636   8.233  0.7097 -0.6574 -0.9328
 1189TIP3    H225127   1.792   0.653   8.249  1.0896  0.8399  1.6016
 1190TIP3   OH225128   1.057   3.897   7.780 -0.3143 -0.0095 -0.1408
 1190TIP3    H125129   1.107   3.825   7.818 -0.4964  0.0560  0.2238
 1190TIP3    H225130   0.967   3.865   7.777 -0.0676 -0.6610 -2.0722
 1191TIP3   OH225131   2.978   5.611   7.598 -0.5832 -0.1456  0.2400
 1191TIP3    H125132   3.052   5.669   7.614  1.0171 -2.5075  2.2450
 1191TIP3    H225133   2.911   5.638   7.660 -0.8710  1.0740 -0.5714
 1192TIP3   OH225134   0.935   2.091   7.913  0.2121  0.0389 -0.1567
 1192TIP3    H125135   0.964   2.180   7.894  1.3759 -0.6582 -1.9242
 1192TIP3    H225136   0.960   2.076   8.004 -0.6724  1.7294  0.4112
 1193TIP3   OH225137   2.052   2.087   0.426  0.0113 -0.1473  0.8405
 1193TIP3    H125138   2.027   2.151   0.493  1.5801 -0.4532  1.7605
 1193TIP3    H225139   2.003   2.113   0.349  1.8167  3.2299  0.6742
 1194TIP3   OH225140   2.533   0.438   0.471 -0.1604 -0.0615  0.4417
 1194TIP3    H125141   2.603   0.385   0.432  0.4200 -0.7748  2.3573
 1194TIP3    H225142   2.468   0.447   0.401  0.7043 -1.4822 -0.6006
 1195TIP3   OH225143   0.138   6.156   0.993  0.1217  0.5735 -0.7812
 1195TIP3    H125144   0.105   6.153   1.083  0.4411  1.9351 -0.6025
 1195TIP3    H225145   0.211   6.218   0.996  0.2623  0.4847 -1.9501
 1196TIP3   OH225146   0.407   0.018   1.800  0.2442  0.0807  0.5275
 1196TIP3    H125147   0.497   0.044   1.822  1.1316 -0.8006 -1.7640
 1196TIP3    H225148   0.395  -0.067   1.843  0.7969 -0.1724  0.1853
 1197TIP3   OH225149   6.061   6.326   6.654 -0.5228  0.2249  0.5299
 1197TIP3    H125150   6.150   6.292   6.653 -1.5378 -2.7473  0.6790
 1197TIP3    H225151   6.060   6.396   6.589  1.8763  0.3106  0.5245
 1198TIP3   OH225152   5.727   2.026   7.745 -0.2426  0.2487 -0.0051
 1198TIP3    H125153   5.785   2.087   7.791 -0.3770 -0.6329  1.3779
 1198TIP3    H225154   5.699   2.075   7.667 -0.0556  1.8145  0.8648
 1199TIP3   OH225155   5.817   2.389   0.064 -0.0421 -0.8762  0.4569
 1199TIP3    H125156   5.835   2.404   0.157  0.6174 -0.0461  0.2072
 1199TIP3    H225157   5.722   2.382   0.059 -0.2212  0.7292  0.9814
 1200TIP3   OH225158   2.086   5.248   1.467 -0.0747 -0.2387  0.1419
 1200TIP3    H125159   2.166   5.200   1.487  0.6475  1.1462  0.6781
 1200TIP3    H225160   2.050   5.272   1.553 -0.7642 -0.3541 -0.1035
 1201TIP3   OH225161   3.730   5.169   0.892  0.7342 -0.0524  0.6570
 1201TIP3    H125162   3.663   5.111   0.926  0.5698  0.2443  0.8489
 1201TIP3    H225163   3.798   5.111   0.858  0.5965 -0.3545  0.8926
 1202TIP3   OH225164   1.360   0.200   1.071 -0.0086  0.5026  0.7766
 1202TIP3    H125165   1.370   0.293   1.047  0.1997  0.9007  2.3074
 1202TIP3    H225166   1.306   0.202   1.150 -0.9623 -0.7763  0.1861
 1203TIP3   OH225167   4.560   4.425   7.893 -0.0127  0.3976  0.4497
 1203TIP3    H125168   4.638   4.375   7.869  0.6884  1.2461  0.8996
 1203TIP3    H225169   4.571   4.510   7.849 -0.6135  0.5703  0.6219
 1204TIP3   OH225170   3.583   4.334   7.201 -0.1362 -0.5471 -0.0723
 1204TIP3    H125171   3.651   4.306   7.262 -1.4148  0.5847  2.0147
 1204TIP3    H225172   3.622   4.324   7.114  2.3845 -0.6336  0.9883
 1205TIP3   OH225173   5.992   1.262   1.445  0.5427  0.2193  0.3957
 1205TIP3    H125174   5.978   1.168   1.449 -1.1312  0.4648  1.4479
 1205TIP3    H225175   5.907   1.297   1.416  1.4461  1.3478 -1.0476
 1206TIP3   OH225176   1.116   5.891   7.496  0.1999  0.3330  0.3117
 1206TIP3    H125177   1.114   5.863   7.588 -0.3434 -0.2556  0.1309
 1206TIP3    H225178   1.085   5.814   7.448  0.9058  0.4909 -0.4019
 1207TIP3   OH225179   5.995   2.608   2.323  0.0076 -0.0070 -0.4119
 1207TIP3    H125180   5.979   2.702   2.329 -0.0383 -0.0399  0.0340
 1207TIP3    H225181   6.064   2.600   2.257  0.3258  0.3795 -0.1339
 1208TIP3   OH225182   4.809   0.640   7.097  0.0169 -0.4464 -0.5710
 1208TIP3    H125183   4.889   0.690   7.117 -1.1947  1.5245 -0.3160
 1208TIP3    H225184   4.824   0.554   7.137  1.7373  0.0848  0.0365
 1209TIP3   OH225185   6.335   6.524   1.756  0.1327 -0.6350  0.6883
 1209TIP3    H125186   6.269   6.456   1.747  0.9393 -1.2106 -1.6643
 1209TIP3    H225187   6.416   6.477   1.776  0.4407 -0.2621  0.3483
 1210TIP3   OH225188   0.710   6.185   8.077  0.2040 -0.5598 -0.2544
 1210TIP3    H125189   0.670   6.102   8.104  2.2332 -1.0291  1.5820
 1210TIP3    H225190   0.673   6.249   8.138  0.5851 -0.5902  0.0083
 1211TIP3   OH225191   6.773   4.660   0.464 -0.1010  0.7025 -0.1404
 1211TIP3    H125192   6.842   4.626   0.407  0.9266  0.9780  0.9005
 1211TIP3    H225193   6.754   4.747   0.429  0.3290  0.7594 -0.2416
 1212TIP3   OH225194   0.007   5.325   6.549 -0.2110  0.0752  0.3208
 1212TIP3    H125195   0.082   5.382   6.537  0.0217 -0.0672  1.0295
 1212TIP3    H225196  -0.069   5.380   6.531  0.0793  0.0364 -1.0624
 1213TIP3   OH225197   6.474   4.394   8.533 -0.1418 -0.3206  0.2907
 1213TIP3    H125198   6.532   4.359   8.601  0.6762  1.6449  0.6841
 1213TIP3    H225199   6.533   4.437   8.471 -1.1043  1.2983  0.4416
 1214TIP3   OH225200   1.561   4.356   0.954 -0.2276  0.4147  0.4291
 1214TIP3    H125201   1.541   4.281   0.899  1.3667  0.4472 -0.2328
 1214TIP3    H225202   1.553   4.431   0.896 -1.0827  0.7227  0.9097
 1215TIP3   OH225203   2.481   4.121   7.503  0.2254 -0.0449  0.0640
 1215TIP3    H125204   2.466   4.173   7.582 -0.4161  0.7358 -0.5576
 1215TIP3    H225205   2.575   4.129   7.487  0.3618 -0.2134  0.7429
 1216TIP3   OH225206   2.721   1.279   0.180 -0.0305 -0.1865 -0.6218
 1216TIP3    H125207   2.649   1.329   0.219  0.2512  0.4225 -0.8688
 1216TIP3    H225208   2.690   1.189   0.178 -0.5223 -0.0318 -0.1024
 1217TIP3   OH225209   6.235   1.681   1.978 -0.0902  0.2497  0.1035
 1217TIP3    H125210   6.236   1.586   1.972 -0.2485  0.3247 -2.0870
 1217TIP3    H225211   6.151   1.702   2.018  0.9136 -0.5479  2.8104
 1218TIP3   OH225212   6.723   3.128   1.505  0.0511 -0.1672  0.0082
 1218TIP3    H125213   6.749   3.070   1.576  0.3098 -1.8814 -1.4145
 1218TIP3    H225214   6.801   3.180   1.487 -0.8454  2.4421  2.8296
 1219TIP3   OH225215   3.255   0.599   8.115 -0.3765  0.0632  0.1873
 1219TIP3    H125216   3.275   0.661   8.185  1.0421  0.2264 -0.3136
 1219TIP3    H225217   3.160   0.594   8.113 -0.4951  1.5996  0.7872
 1220TIP3   OH225218   5.535   2.771   7.836 -0.0722  0.0667 -0.4086
 1220TIP3    H125219   5.547   2.747   7.928 -1.7527 -0.5116 -0.3035
 1220TIP3    H225220   5.555   2.691   7.787  2.0020  0.6918 -0.6893
 1221TIP3   OH225221   6.195   3.710   8.231 -0.1391 -0.7011 -0.7963
 1221TIP3    H125222   6.130   3.780   8.235  0.3510 -0.2845  0.1771
 1221TIP3    H225223   6.143   3.629   8.228 -0.7083 -0.3253 -1.7958
 1222TIP3   OH225224   4.699   2.110   8.386 -0.4550  0.4649 -0.1672
 1222TIP3    H125225   4.646   2.100   8.465 -0.4451 -0.1371 -0.2384
 1222TIP3    H225226   4.756   2.185   8.405 -1.6643  1.4624 -0.2751
 1223TIP3   OH225227   6.080   0.970   7.623  0.1631 -0.1358  0.4189
 1223TIP3    H125228   6.151   0.912   7.650  1.0941 -0.0648 -1.7278
 1223TIP3    H225229   6.022   0.915   7.572 -0.1922  0.2996  0.3478
 1224TIP3   OH225230   1.480   1.905   7.999 -0.3232 -0.4933 -0.2238
 1224TIP3    H125231   1.555   1.944   7.954 -0.6070  1.8947  1.2181
 1224TIP3    H225232   1.405   1.953   7.965 -0.4451  2.4825  3.5555
 1225TIP3   OH225233   1.430   6.892   0.113  0.2109  0.3292  1.0274
 1225TIP3    H125234   1.401   6.815   0.064 -0.4402  1.3089 -0.1946
 1225TIP3    H225235   1.352   6.946   0.122  0.9402  1.5501  0.4801
 1226TIP3   OH225236   2.518   1.164   0.651  0.1089  0.3318 -0.3165
 1226TIP3    H125237   2.593   1.219   0.673 -0.0405 -0.5473  2.7884
 1226TIP3    H225238   2.547   1.075   0.670 -1.2654 -0.1631 -0.4134
 1227TIP3   OH225239   3.227   3.463   0.478 -0.5500  0.4842  0.4199
 1227TIP3    H125240   3.210   3.503   0.393 -2.6528  2.1522  1.5183
 1227TIP3    H225241   3.312   3.499   0.505  0.6165 -0.8102 -1.2939
 1228TIP3   OH225242   5.110   5.236   6.222  0.4584  0.2181 -0.0437
 1228TIP3    H125243   5.074   5.297   6.287  2.4481 -0.4882  1.8582
 1228TIP3    H225244   5.149   5.292   6.155 -1.3159  0.9680 -0.4956
 1229TIP3   OH225245   4.272   6.882   1.178 -0.1764  0.6281 -0.3602
 1229TIP3    H125246   4.300   6.884   1.270  0.7565  0.6433 -0.6306
 1229TIP3    H225247   4.354   6.882   1.129 -0.5797 -1.6239 -1.1717
 1230TIP3   OH225248   2.516   3.277   7.174 -0.1315 -0.2826 -0.1794
 1230TIP3    H125249   2.498   3.359   7.129 -1.9032 -0.1960  0.6077
 1230TIP3    H225250   2.471   3.211   7.123 -0.5355 -0.4499  0.3799
 1231TIP3   OH225251   1.967   3.093   1.242 -0.3080  0.3503  0.2440
 1231TIP3    H125252   1.949   3.120   1.152 -1.8318  0.2597  0.5026
 1231TIP3    H225253   2.024   3.017   1.233  2.5862  2.4131 -0.5323
 1232TIP3   OH225254   4.044   2.937   8.500  0.3698 -0.5365  0.1001
 1232TIP3    H125255   4.054   2.953   8.406 -0.0680  0.1892  0.1655
 1232TIP3    H225256   3.956   2.901   8.510  0.4956 -0.8167  0.2088
 1233TIP3   OH225257   1.368   3.868   6.514 -0.4217 -0.2199  0.4249
 1233TIP3    H125258   1.307   3.815   6.565 -0.4144  1.1244  1.9226
 1233TIP3    H225259   1.428   3.906   6.580  0.7102  0.1566 -0.7806
 1234TIP3   OH225260   0.719   0.812   2.212  0.0727 -0.2359 -0.4204
 1234TIP3    H125261   0.674   0.791   2.294  1.1396 -0.3911  0.1452
 1234TIP3    H225262   0.649   0.838   2.152 -0.6571  0.8278  0.8276
 1235TIP3   OH225263   0.642   5.951   6.875  0.3539  0.7990  0.4233
 1235TIP3    H125264   0.594   5.982   6.952 -1.3580 -0.3453 -0.1122
 1235TIP3    H225265   0.643   5.856   6.884  0.2174  0.6533 -0.8955
 1236TIP3   OH225266   5.854   3.661   1.501  0.7970 -0.5106 -0.0593
 1236TIP3    H125267   5.935   3.711   1.513 -0.2075  0.6744  2.9020
 1236TIP3    H225268   5.850   3.604   1.577 -0.6455 -1.3141 -0.7085
 1237TIP3   OH225269   0.367   1.927   7.510 -0.6287  0.4152 -0.6424
 1237TIP3    H125270   0.342   1.853   7.455 -0.5571 -0.3241  0.2718
 1237TIP3    H225271   0.285   1.970   7.532 -0.5665  1.4490 -2.2647
 1238TIP3   OH225272   3.994   5.600   0.794  0.9054 -0.0812 -0.1347
 1238TIP3    H125273   4.003   5.600   0.698  0.4070  0.2554 -0.1810
 1238TIP3    H225274   4.082   5.623   0.825  0.7964  0.9602 -0.5421
 1239TIP3   OH225275   0.810   0.494   7.014 -1.0057 -0.1698  0.0885
 1239TIP3    H125276   0.822   0.405   7.046  2.5510  0.4170  0.8131
 1239TIP3    H225277   0.842   0.550   7.085 -0.6982  1.5424 -1.3114
 1240TIP3   OH225278   3.192   6.811   0.405 -0.2218  0.1868  0.5458
 1240TIP3    H125279   3.137   6.836   0.330 -1.9834  1.6582  2.2217
 1240TIP3    H225280   3.142   6.743   0.450  1.6648 -2.0345 -0.4983
 1241TIP3   OH225281   2.071   3.781   1.516 -0.2657  0.5085 -1.0516
 1241TIP3    H125282   2.020   3.833   1.578  0.1035 -0.5208  0.1852
 1241TIP3    H225283   2.007   3.727   1.471 -0.4013  0.0497 -0.3283
 1242TIP3   OH225284   5.858   0.897   1.324 -0.0581 -0.2903 -0.7931
 1242TIP3    H125285   5.877   0.908   1.418  1.9683 -0.1510 -1.1768
 1242TIP3    H225286   5.877   0.805   1.307  1.0129  0.0198 -1.3437
 1243TIP3   OH225287   5.564   5.438   7.616  0.2684  0.1674 -0.7095
 1243TIP3    H125288   5.565   5.486   7.699 -1.2725 -0.0214 -0.5467
 1243TIP3    H225289   5.496   5.482   7.565 -0.7710 -1.4510 -0.7836
 1244TIP3   OH225290   5.519   1.509   8.455  0.4702 -0.1283 -0.3095
 1244TIP3    H125291   5.439   1.516   8.402 -0.1474  1.0953  0.7154
 1244TIP3    H225292   5.488   1.512   8.546  1.6456 -0.0562  0.1116
 1245TIP3   OH225293   4.038   3.366   6.531  0.1178 -0.7716 -0.4760
 1245TIP3    H125294   4.114   3.321   6.494 -1.0182 -2.5672 -0.7438
 1245TIP3    H225295   4.030   3.446   6.479  1.2480 -1.0398 -1.0877
 1246TIP3   OH225296   4.196   2.972   0.115  0.3253  0.4309  0.4275
 1246TIP3    H125297   4.176   2.970   0.022  2.9208  0.4295 -0.2010
 1246TIP3    H225298   4.251   2.895   0.130 -0.4643  0.1415  2.0773
 1247TIP3   OH225299   6.783   2.260   1.748  0.4001 -0.6430 -0.1247
 1247TIP3    H125300   6.697   2.218   1.748 -0.2476  0.5947 -0.9184
 1247TIP3    H225301   6.845   2.188   1.752 -0.6600 -1.6353 -0.6688
 1248TIP3   OH225302   6.423   3.615   0.604  0.4624 -0.5350  0.1562
 1248TIP3    H125303   6.476   3.644   0.678  1.1405  1.9285 -1.1641
 1248TIP3    H225304   6.416   3.693   0.549 -1.1053 -1.9304 -1.7280
 1249TIP3   OH225305   0.650   5.110   7.300  0.2723  0.2867  0.3181
 1249TIP3    H125306   0.735   5.075   7.327 -0.1708  0.0224  1.4244
 1249TIP3    H225307   0.650   5.200   7.333  0.7465  0.8364 -1.0892
 1250TIP3   OH225308   3.317   4.560   1.026 -0.2367  0.9078 -0.0390
 1250TIP3    H125309   3.279   4.604   1.102 -0.9225  0.3576 -0.0545
 1250TIP3    H225310   3.291   4.469   1.036 -0.3918  0.8456 -0.9738
 1251TIP3   OH225311   6.885   0.776   7.960  0.0830  0.2513  0.6462
 1251TIP3    H125312   6.935   0.699   7.987 -0.0621 -0.0749  0.0136
 1251TIP3    H225313   6.951   0.844   7.944  0.2150  0.2440  1.1502
 1252TIP3   OH225314   5.735   4.763   1.578 -0.0233 -0.3091  0.1711
 1252TIP3    H125315   5.744   4.798   1.666  0.2559  1.2533 -0.4514
 1252TIP3    H225316   5.696   4.833   1.527  1.0428 -0.6857 -1.2456
 1253TIP3   OH225317   0.853   3.430   0.583  0.4959 -0.0652  0.0816
 1253TIP3    H125318   0.946   3.406   0.584  0.4218 -0.3619  1.0312
 1253TIP3    H225319   0.816   3.384   0.658 -0.3063  0.5074  0.0470
 1254TIP3   OH225320   6.445   2.196   1.264  0.2210  0.1551  0.2671
 1254TIP3    H125321   6.495   2.203   1.346  2.0111  0.6236 -0.8130
 1254TIP3    H225322   6.355   2.218   1.289  0.6484 -0.0951  2.1750
 1255TIP3   OH225323   1.640   5.105   2.227  0.3133  0.3336  0.5251
 1255TIP3    H125324   1.550   5.086   2.255  0.8969 -2.6805  0.7381
 1255TIP3    H225325   1.693   5.093   2.306  0.9717  1.4858  0.2691
 1256TIP3   OH225326   5.984   1.309   0.338  0.1725 -0.1370  0.1940
 1256TIP3    H125327   5.925   1.268   0.275 -0.0907 -0.9410  0.9493
 1256TIP3    H225328   5.974   1.257   0.418  1.1961  0.2950  0.6169
 1257TIP3   OH225329   6.242   6.897   8.123  0.2074 -0.0811 -0.1203
 1257TIP3    H125330   6.311   6.866   8.065 -1.0390 -1.0462 -1.1616
 1257TIP3    H225331   6.284   6.907   8.208  1.5297 -1.0514 -0.6307
 1258TIP3   OH225332   6.154   4.326   0.079 -0.3382  0.0009 -0.9472
 1258TIP3    H125333   6.086   4.261   0.065  0.5264 -1.4701  1.1394
 1258TIP3    H225334   6.125   4.376   0.155  0.1965  0.3357 -0.9532
 1259TIP3   OH225335   5.526   6.275   0.041  0.5341  0.3292 -0.3265
 1259TIP3    H125336   5.618   6.255   0.027  0.5655 -0.1798  0.5147
 1259TIP3    H225337   5.509   6.247   0.131 -0.6105 -0.2118 -0.6976
 1260TIP3   OH225338   5.590   3.003   0.514 -0.8296 -0.1908  0.0507
 1260TIP3    H125339   5.612   2.911   0.530  2.0904  0.5341  0.8450
 1260TIP3    H225340   5.545   3.031   0.594  2.0539  0.0597  1.7065
 1261TIP3   OH225341   4.114   3.748   7.410  0.1499  0.0299  0.0164
 1261TIP3    H125342   4.116   3.730   7.316  0.5229 -0.4806  0.1182
 1261TIP3    H225343   4.024   3.777   7.427 -0.2806 -1.0533 -0.2919
 1262TIP3   OH225344   1.387   1.613   0.401 -0.2743  0.2372  0.2302
 1262TIP3    H125345   1.356   1.702   0.417  0.1985  0.2646  1.0628
 1262TIP3    H225346   1.360   1.563   0.478  3.0729  0.6298  1.8420
 1263TIP3   OH225347   2.353   5.935   6.985 -0.3678 -0.0146 -0.2700
 1263TIP3    H125348   2.386   6.025   6.996  0.3856 -0.3424  0.2403
 1263TIP3    H225349   2.417   5.893   6.929 -0.7977 -0.1994 -0.6262
 1264TIP3   OH225350   1.629   2.710   6.948 -0.4222 -0.2438 -0.4485
 1264TIP3    H125351   1.603   2.798   6.921 -0.0296 -0.1903 -0.6591
 1264TIP3    H225352   1.713   2.696   6.905  1.1874  0.5752  2.2019
 1265TIP3   OH225353   0.747   1.853   6.767 -0.5424 -0.2977 -0.1639
 1265TIP3    H125354   0.666   1.819   6.729 -0.7059  0.2347 -0.3065
 1265TIP3    H225355   0.816   1.803   6.725 -0.8575 -2.0842  1.3337
 1266TIP3   OH225356   2.502   4.077   2.200 -0.1403 -0.6792 -0.1580
 1266TIP3    H125357   2.545   4.094   2.116  0.6962  0.1210  0.4096
 1266TIP3    H225358   2.557   4.011   2.242 -1.3617 -2.1871 -0.8130
 1267TIP3   OH225359   6.386   0.308   8.386  0.3325 -0.2251  0.2362
 1267TIP3    H125360   6.476   0.333   8.365  0.4361  0.3967  1.3820
 1267TIP3    H225361   6.343   0.390   8.410 -0.9778 -0.2687 -1.6893
 1268TIP3   OH225362   5.597   6.384   6.719 -0.1915 -0.4129 -0.2695
 1268TIP3    H125363   5.582   6.452   6.653 -2.4383 -0.8299 -0.2730
 1268TIP3    H225364   5.609   6.432   6.801 -0.2381  0.0388 -0.5234
 1269TIP3   OH225365   0.864   5.702   0.411 -1.0721  0.2898 -0.3037
 1269TIP3    H125366   0.824   5.767   0.469 -0.5019 -0.1258  0.5657
 1269TIP3    H225367   0.912   5.644   0.469 -0.2884  0.0020 -1.2186
 1270TIP3   OH225368   3.549   0.054   8.395 -0.6637  0.1426  0.0036
 1270TIP3    H125369   3.611   0.088   8.330 -0.2993 -1.2893 -0.4149
 1270TIP3    H225370   3.547   0.121   8.463  0.4991  0.7184 -0.5026
 1271TIP3   OH225371   0.469   4.688   7.641  0.2962  0.2887 -0.0606
 1271TIP3    H125372   0.471   4.709   7.735  1.2048 -0.8372  0.2058
 1271TIP3    H225373   0.417   4.608   7.636 -0.5819  0.8928 -0.6529
 1272TIP3   OH225374   2.564   6.084   2.054 -0.8624  0.1645 -0.6823
 1272TIP3    H125375   2.602   6.056   2.137 -1.0878  0.0370 -0.6197
 1272TIP3    H225376   2.597   6.173   2.040  0.7770 -0.5228 -1.4413
 1273TIP3   OH225377   2.061   5.239   8.360  0.3392  0.3286 -0.2189
 1273TIP3    H125378   2.116   5.266   8.434  0.1553  2.4296 -0.8129
 1273TIP3    H225379   2.109   5.166   8.320  1.7485  0.9030  0.3857
 1274TIP3   OH225380   3.942   5.669   1.095 -0.7710 -0.1825  0.3442
 1274TIP3    H125381   3.859   5.686   1.140 -2.0629  0.8247 -2.2140
 1274TIP3    H225382   3.965   5.752   1.053 -0.5729 -1.4124 -2.1824
 1275TIP3   OH225383   6.529   0.343   1.818 -0.4234 -0.1899 -0.1439
 1275TIP3    H125384   6.557   0.309   1.733 -1.1452 -0.6081 -0.2267
 1275TIP3    H225385   6.570   0.429   1.825 -0.1522 -0.2620 -0.8018
 1276TIP3   OH225386   0.637   5.721   0.866  0.5626 -0.4522 -0.2843
 1276TIP3    H125387   0.611   5.800   0.913  1.9691 -0.4542  0.5631
 1276TIP3    H225388   0.635   5.652   0.933  0.4865 -0.8902 -0.7330
 1277TIP3   OH225389   0.232   5.898   1.633  0.0712  0.3288  0.4991
 1277TIP3    H125390   0.317   5.854   1.633  0.2012  0.5824  0.6831
 1277TIP3    H225391   0.213   5.915   1.541 -0.1905 -0.5250  0.3822
 1278TIP3   OH225392   1.464   1.883   0.327 -0.0243  0.0537  0.0713
 1278TIP3    H125393   1.511   1.849   0.403 -0.2764 -0.1224  0.1494
 1278TIP3    H225394   1.477   1.817   0.259  2.5484  1.4537 -0.9590
 1279TIP3   OH225395   2.217   6.198   1.564  0.2233  0.9602  0.3913
 1279TIP3    H125396   2.230   6.234   1.476  0.3711  0.1219  0.0681
 1279TIP3    H225397   2.301   6.157   1.586 -0.1564  0.2204  0.4780
 1280TIP3   OH225398   6.063   2.803   1.552 -0.0505  0.4654  0.0799
 1280TIP3    H125399   6.031   2.822   1.464 -3.0414 -0.6062  0.8192
 1280TIP3    H225400   6.100   2.715   1.545 -0.3698  0.3438 -0.0682
 1281TIP3   OH225401   2.914   3.374   8.300  0.2338 -0.2383  0.1139
 1281TIP3    H125402   2.892   3.333   8.384  2.0854  0.1561  0.8311
 1281TIP3    H225403   2.901   3.304   8.236  0.6610 -1.1290  0.9677
 1282TIP3   OH225404   4.953   5.671   0.706 -0.7084  0.7532  0.8058
 1282TIP3    H125405   4.946   5.754   0.657 -1.3917 -0.6015 -1.5549
 1282TIP3    H225406   4.959   5.604   0.638  1.3698 -1.0738  2.6485
 1283TIP3   OH225407   4.068   1.569   8.248 -0.3290  0.9766 -0.5352
 1283TIP3    H125408   4.026   1.571   8.162 -1.7333 -0.8729  0.0179
 1283TIP3    H225409   3.996   1.551   8.309  1.0169 -0.7159  0.6661
 1284TIP3   OH225410   3.050   1.835   8.226  0.0036 -0.2004 -0.6594
 1284TIP3    H125411   3.123   1.845   8.165 -0.5151  0.1524 -1.2324
 1284TIP3    H225412   3.089   1.850   8.312  0.8341 -1.1582 -0.8517
 1285TIP3   OH225413   3.269   3.693   8.577 -0.2394  0.2468  0.7205
 1285TIP3    H125414   3.223   3.776   8.565 -0.4617 -0.1956 -2.7795
 1285TIP3    H225415   3.336   3.694   8.508  1.7939 -1.2375  2.5414
 1286TIP3   OH225416   1.281   1.866   1.338  0.3015 -0.0906  0.2892
 1286TIP3    H125417   1.322   1.786   1.305 -0.3609 -0.8889  1.3450
 1286TIP3    H225418   1.282   1.856   1.433  0.0565  1.0881  0.4253
 1287TIP3   OH225419   2.818   6.658   0.198 -0.3838 -0.6554 -0.0408
 1287TIP3    H125420   2.877   6.674   0.124  1.0026 -1.8888  0.7247
 1287TIP3    H225421   2.745   6.609   0.161 -0.0105 -0.7129 -0.7132
 1288TIP3   OH225422   1.594   4.541   6.612 -0.0702  0.0275 -0.4005
 1288TIP3    H125423   1.637   4.598   6.549 -0.0488  0.0751 -0.3434
 1288TIP3    H225424   1.638   4.456   6.602 -0.0121  0.0565 -0.3933
 1289TIP3   OH225425   5.796   3.087   1.210  0.1512 -0.2359 -0.3529
 1289TIP3    H125426   5.711   3.125   1.189 -0.1736  0.1685  1.5036
 1289TIP3    H225427   5.798   3.003   1.164 -0.3138  0.7069 -2.1970
 1290TIP3   OH225428   1.976   0.108   0.569 -0.0968  0.1422 -0.2455
 1290TIP3    H125429   2.009   0.129   0.482 -0.4703  1.6103 -0.0525
 1290TIP3    H225430   1.966   0.013   0.568  0.7929  0.0357 -1.4770
 1291TIP3   OH225431   0.576   3.325   0.358  0.6395 -0.0552 -0.1436
 1291TIP3    H125432   0.568   3.403   0.412 -0.1268  0.1649 -0.5662
 1291TIP3    H225433   0.504   3.331   0.295  0.8766 -0.8423 -0.5068
 1292TIP3   OH225434   0.690   1.344   1.863  0.4590 -0.4681  0.1094
 1292TIP3    H125435   0.755   1.329   1.931 -0.2585 -0.6967  0.7684
 1292TIP3    H225436   0.672   1.438   1.867  0.1225 -0.5493  0.5149
 1293TIP3   OH225437   4.250   5.269   7.135  0.0857  0.2222 -0.3406
 1293TIP3    H125438   4.165   5.312   7.145  0.9524  1.7528  1.0625
 1293TIP3    H225439   4.294   5.318   7.066 -0.2457 -0.7789 -1.3026
 1294TIP3   OH225440   5.178   4.022   6.984 -0.7284  0.7179  0.4814
 1294TIP3    H125441   5.143   4.077   6.913 -0.4370  0.1477 -0.1109
 1294TIP3    H225442   5.189   3.936   6.945  1.4610  0.8913  0.6047
 1295TIP3   OH225443   1.829   2.068   2.115 -0.1757  0.1714 -0.6969
 1295TIP3    H125444   1.818   2.115   2.033  2.8965  1.3302 -0.5579
 1295TIP3    H225445   1.886   2.123   2.168  0.5803 -2.0187  0.9538
 1296TIP3   OH225446   2.931   5.326   1.260 -0.7320 -0.0562  0.3313
 1296TIP3    H125447   3.016   5.287   1.279  0.1124  2.0540  1.1312
 1296TIP3    H225448   2.880   5.310   1.340  0.1009  1.6447  1.2610
 1297TIP3   OH225449   5.846   3.428   7.551 -0.3324  0.4231  0.2856
 1297TIP3    H125450   5.759   3.461   7.527  0.1365 -0.0543 -2.3353
 1297TIP3    H225451   5.831   3.337   7.577 -1.0492  1.3447  3.5240
 1298TIP3   OH225452   2.678   4.344   0.634  0.2819  0.2025  0.2147
 1298TIP3    H125453   2.654   4.436   0.635  1.2694  0.4785 -0.0816
 1298TIP3    H225454   2.706   4.327   0.544  2.7995  0.3797  0.8786
 1299TIP3   OH225455   0.878   3.077   0.337 -0.2997  0.7839  0.0981
 1299TIP3    H125456   0.911   3.026   0.410 -1.3957  0.3682  0.3241
 1299TIP3    H225457   0.875   3.167   0.370  0.4049  0.8062  0.1270
 1300TIP3   OH225458   2.970   3.789   6.544 -0.5467  0.1934 -0.0831
 1300TIP3    H125459   2.992   3.785   6.451  1.0672  1.9749  0.1602
 1300TIP3    H225460   3.053   3.809   6.587 -1.6715  1.7936  1.4759
 1301TIP3   OH225461   1.859   5.605   1.579  0.0072 -0.5615 -0.4541
 1301TIP3    H125462   1.827   5.606   1.669 -0.6225 -4.8764 -0.4222
 1301TIP3    H225463   1.954   5.592   1.588 -0.1056 -1.3911 -0.3477
 1302TIP3   OH225464   4.677   2.812   0.687  0.3483  0.5984 -0.1219
 1302TIP3    H125465   4.716   2.896   0.662 -0.2334  0.6786 -0.7845
 1302TIP3    H225466   4.668   2.765   0.604 -0.7501  0.4911  0.0499
 1303TIP3   OH225467   0.661   0.542   1.006  0.5405  0.2242 -0.2111
 1303TIP3    H125468   0.623   0.524   1.092  0.8141 -0.7485 -0.2833
 1303TIP3    H225469   0.732   0.479   0.997 -0.6350 -0.9731 -1.9032
 1304TIP3   OH225470   5.644   6.142   6.856  0.3390 -0.2278 -0.1773
 1304TIP3    H125471   5.662   6.224   6.810 -0.2338 -0.1069 -0.1925
 1304TIP3    H225472   5.550   6.129   6.845 -0.0684  0.4842  2.0576
 1305TIP3   OH225473   0.537   4.793   2.737  0.5088  0.2108  0.1481
 1305TIP3    H125474   0.577   4.865   2.786 -0.2113 -0.7785  2.3161
 1305TIP3    H225475   0.445   4.817   2.731  0.5939  0.3259 -0.7727
 1306TIP3   OH225476   1.806   4.747   8.577  0.2423 -0.0646 -0.1867
 1306TIP3    H125477   1.773   4.836   8.568  1.2665  0.2234 -1.3606
 1306TIP3    H225478   1.728   4.693   8.590 -0.3951  0.9675  0.3858
 1307TIP3   OH225479   0.270   2.847   6.745  0.6632  0.5771  0.3925
 1307TIP3    H125480   0.208   2.831   6.675 -1.0405  0.8382  1.7641
 1307TIP3    H225481   0.286   2.941   6.743  0.6317  0.5805  0.3290
 1308TIP3   OH225482   3.377   2.503   1.448 -0.1285 -0.1057 -0.1178
 1308TIP3    H125483   3.451   2.548   1.491 -0.5324  0.3212  0.1508
 1308TIP3    H225484   3.354   2.433   1.508 -1.3031  1.0688  0.8737
 1309TIP3   OH225485   0.136   5.505   2.293 -0.0048 -0.2471  0.0606
 1309TIP3    H125486   0.182   5.487   2.374  0.1076 -0.7702 -0.1164
 1309TIP3    H225487   0.105   5.596   2.302 -0.6480 -0.5481  1.0014
 1310TIP3   OH225488   2.406   1.946   2.650  0.0850 -0.9029 -0.0777
 1310TIP3    H125489   2.347   2.013   2.685  0.2087 -1.3004  0.9446
 1310TIP3    H225490   2.410   1.963   2.556 -0.0490  0.3842  0.1412
 1311TIP3   OH225491   0.753   6.263   7.071  0.2832  0.7766 -0.4833
 1311TIP3    H125492   0.787   6.202   7.006 -0.4215 -1.8015  1.3584
 1311TIP3    H225493   0.830   6.295   7.117  0.6052 -1.0722  0.3775
 1312TIP3   OH225494   4.867   0.015   7.680 -1.0631  0.4887  0.6055
 1312TIP3    H125495   4.924   0.045   7.751  2.3334 -1.8503 -0.8330
 1312TIP3    H225496   4.792  -0.025   7.725  0.1108  0.6143  2.8243
 1313TIP3   OH225497   5.339   2.560   1.576  0.2515  0.5139  0.9391
 1313TIP3    H125498   5.259   2.610   1.594  0.8382  1.6895  0.4062
 1313TIP3    H225499   5.317   2.508   1.499  0.1034  1.1152  0.5635
 1314TIP3   OH225500   2.580   4.937   7.916  0.7671  0.1621 -0.0013
 1314TIP3    H125501   2.520   4.927   7.842 -0.3714  2.2772  0.5573
 1314TIP3    H225502   2.537   5.001   7.973  2.8592  0.6042  1.1801
 1315TIP3   OH225503   4.717   6.176   0.114 -0.2601  0.6149  0.2887
 1315TIP3    H125504   4.725   6.081   0.110 -0.8548  0.6023 -1.3083
 1315TIP3    H225505   4.798   6.205   0.157 -0.4763 -0.6361  1.6423
 1316TIP3   OH225506   4.852   6.586   6.962 -0.3669 -0.5578 -0.8395
 1316TIP3    H125507   4.860   6.500   6.921 -2.0015 -2.1584  1.8995
 1316TIP3    H225508   4.767   6.585   7.005  0.0430  2.0159  0.2347
 1317TIP3   OH225509   6.415   0.899   6.437  0.1237 -0.1143  0.1232
 1317TIP3    H125510   6.344   0.836   6.435  0.8218 -0.9971 -3.8572
 1317TIP3    H225511   6.492   0.848   6.461  0.5094 -0.6517 -2.1069
 1318TIP3   OH225512   0.375   4.797   2.319  0.3776  0.1531 -0.3452
 1318TIP3    H125513   0.371   4.817   2.226 -2.6848 -1.0002 -0.5527
 1318TIP3    H225514   0.367   4.882   2.363 -0.3404  0.5112 -1.1498
 1319TIP3   OH225515   6.109   6.254   7.055 -0.5628 -0.2293  0.4972
 1319TIP3    H125516   6.092   6.179   6.998  1.3125  0.1879 -0.6768
 1319TIP3    H225517   6.123   6.215   7.142 -0.5681 -1.1413  0.1042
 1320TIP3   OH225518   6.792   3.425   1.713 -0.0155 -0.5133 -0.7550
 1320TIP3    H125519   6.807   3.474   1.633  0.3017  0.5960 -0.0357
 1320TIP3    H225520   6.842   3.344   1.701  1.8534  0.5793 -0.8005
 1321TIP3   OH225521   2.591   3.941   0.477 -0.4265  0.1815  0.2134
 1321TIP3    H125522   2.567   3.922   0.568  2.5402 -2.9089  0.5581
 1321TIP3    H225523   2.545   3.875   0.426  0.0633  0.1553 -0.1997
 1322TIP3   OH225524   4.881   5.884   2.691 -0.3912 -0.2506  0.1609
 1322TIP3    H125525   4.830   5.833   2.628  0.1183  0.0676 -0.5264
 1322TIP3    H225526   4.972   5.874   2.662 -0.1421 -0.1342  0.8767
 1323TIP3   OH225527   0.827   0.307   7.412 -0.1501 -0.1274  0.3059
 1323TIP3    H125528   0.826   0.264   7.327  0.9691 -2.4042  1.3478
 1323TIP3    H225529   0.920   0.322   7.430 -0.2285 -1.0753  1.7197
 1324TIP3   OH225530   2.184   5.841   1.662 -0.1438  0.1431  0.3272
 1324TIP3    H125531   2.165   5.810   1.574 -1.2677  1.7076 -0.0315
 1324TIP3    H225532   2.212   5.763   1.710 -0.3094 -0.8827 -1.1874
 1325TIP3   OH225533   5.664   0.592   0.682 -0.2263 -0.2111 -0.0296
 1325TIP3    H125534   5.702   0.677   0.658  2.2765 -0.9763  0.9226
 1325TIP3    H225535   5.616   0.565   0.604  0.2356  1.3548 -0.9146
 1326TIP3   OH225536   4.505   6.356   0.180 -0.2097 -0.6650 -0.3815
 1326TIP3    H125537   4.575   6.298   0.150 -1.1878 -1.5871 -0.9744
 1326TIP3    H225538   4.460   6.383   0.100  0.0388  0.6945 -0.0848
 1327TIP3   OH225539   2.147   4.981   6.968 -1.0718 -0.4694 -0.4080
 1327TIP3    H125540   2.128   5.064   6.924 -0.4604  0.0984  0.3634
 1327TIP3    H225541   2.234   4.956   6.936  0.7509  1.4514  2.5208
 1328TIP3   OH225542   6.096   1.771   8.420 -0.3072  0.5474 -0.0796
 1328TIP3    H125543   6.183   1.811   8.408 -0.7407  0.9844 -2.0565
 1328TIP3    H225544   6.037   1.826   8.368 -0.9268 -2.6285 -3.1452
 1329TIP3   OH225545   6.544   5.041   6.369 -0.1498  0.1204 -0.2331
 1329TIP3    H125546   6.625   5.065   6.413 -0.4553  1.4693 -0.3903
 1329TIP3    H225547   6.530   4.949   6.395  1.2329 -0.0338  0.0545
 1330TIP3   OH225548   2.534   0.230   8.056  1.0741 -0.0299  0.4621
 1330TIP3    H125549   2.479   0.229   7.978  1.6063  0.3846  0.0764
 1330TIP3    H225550   2.522   0.143   8.095  1.3644 -0.5040 -0.4782
 1331TIP3   OH225551   4.337   5.389   6.684 -0.3450 -0.3175  0.4183
 1331TIP3    H125552   4.258   5.416   6.639 -0.1528  0.4759  0.5513
 1331TIP3    H225553   4.321   5.409   6.776 -0.5454 -1.4790  0.6519
 1332TIP3   OH225554   2.531   0.988   7.025 -0.1404  0.0536 -0.3724
 1332TIP3    H125555   2.606   0.929   7.034  0.0139 -0.0002 -1.7705
 1332TIP3    H225556   2.506   0.981   6.933 -3.5010 -1.8769  0.5052
 1333TIP3   OH225557   4.521   4.156   1.066  0.2775 -0.1382 -0.1246
 1333TIP3    H125558   4.585   4.224   1.048  0.0463 -0.2671 -1.5414
 1333TIP3    H225559   4.439   4.189   1.029  0.0097 -0.8971 -0.2368
 1334TIP3   OH225560   0.499   1.965   0.470  0.8723  0.0048 -0.2304
 1334TIP3    H125561   0.505   2.057   0.494  0.7816 -0.7024  2.9775
 1334TIP3    H225562   0.589   1.935   0.462  0.9658 -0.0372  0.7922
 1335TIP3   OH225563   5.139   4.771   8.466  0.6746  0.4945  0.3370
 1335TIP3    H125564   5.230   4.800   8.475  1.9094 -3.0666  1.1586
 1335TIP3    H225565   5.106   4.767   8.556  0.4735 -0.2282  0.2427
 1336TIP3   OH225566   2.972   4.804   1.814 -0.0839 -0.2118 -0.2876
 1336TIP3    H125567   3.032   4.744   1.856 -0.2914 -0.3413 -0.1763
 1336TIP3    H225568   2.915   4.836   1.884 -0.2708 -0.2393 -0.4237
 1337TIP3   OH225569   4.890   5.311   0.189 -0.1982  0.1138  0.1795
 1337TIP3    H125570   4.870   5.244   0.123 -0.7403  0.0561  0.3957
 1337TIP3    H225571   4.981   5.293   0.215 -0.1210 -0.1219 -0.2455
 1338TIP3   OH225572   2.928   6.133   1.070  0.7154  0.4248 -0.4057
 1338TIP3    H125573   2.945   6.041   1.050  0.4183 -0.1580  1.7248
 1338TIP3    H225574   3.006   6.162   1.118  0.9316  1.3937 -1.2988
 1339TIP3   OH225575   5.727   6.489   8.189  0.4481  0.9607  0.1958
 1339TIP3    H125576   5.655   6.426   8.179  0.7044  0.6079  0.5495
 1339TIP3    H225577   5.766   6.466   8.273  0.4283  1.7146  0.4105
 1340TIP3   OH225578   5.612   2.792   6.787  0.1446  0.1799  0.4373
 1340TIP3    H125579   5.572   2.725   6.842 -0.4341  1.2894  1.4158
 1340TIP3    H225580   5.663   2.847   6.848  0.7817  0.5134 -0.3654
 1341TIP3   OH225581   5.115   0.940   7.459 -0.6424 -0.1194  0.3662
 1341TIP3    H125582   5.157   0.866   7.416  0.1775 -0.0722  1.0666
 1341TIP3    H225583   5.030   0.907   7.486 -0.7871 -0.4291 -0.4232
 1342TIP3   OH225584   1.197   0.494   7.165 -0.2518  0.5812 -0.6471
 1342TIP3    H125585   1.272   0.452   7.122  0.0261  1.5057 -1.0940
 1342TIP3    H225586   1.172   0.434   7.235  1.0031  0.3158 -0.4075
 1343TIP3   OH225587   6.853   3.339   6.464  0.6959  0.0724  0.0696
 1343TIP3    H125588   6.854   3.310   6.556  0.6067 -0.2306 -0.0237
 1343TIP3    H225589   6.940   3.375   6.450  0.9360 -0.4893  0.0849
 1344TIP3   OH225590   6.698   2.495   7.564 -0.4248 -0.1724 -0.8160
 1344TIP3    H125591   6.688   2.468   7.655 -0.7060 -0.8627 -1.0479
 1344TIP3    H225592   6.738   2.420   7.520 -1.8817 -0.5230 -1.6076
 1345TIP3   OH225593   0.346   1.262   7.929  0.5150  0.0807  0.4331
 1345TIP3    H125594   0.304   1.177   7.920 -1.4729  0.9124  1.3832
 1345TIP3    H225595   0.437   1.242   7.952 -0.0225 -1.7686  1.0881
 1346TIP3   OH225596   2.013   3.637   2.465 -0.1764 -0.2388 -0.1613
 1346TIP3    H125597   2.005   3.731   2.445 -1.4094 -0.3860 -0.4348
 1346TIP3    H225598   2.102   3.615   2.440  0.4870  1.0903  0.8910
 1347TIP3   OH225599   5.715   6.853   0.797 -0.5936  0.2545  0.2445
 1347TIP3    H125600   5.625   6.853   0.763  0.4595 -0.5903 -2.9436
 1347TIP3    H225601   5.726   6.940   0.835 -2.2195  1.0776 -1.0077
 1348TIP3   OH225602   2.050   0.099   7.697 -0.8344  0.0366  0.9395
 1348TIP3    H125603   1.968   0.138   7.667 -0.7735 -0.0987  0.5924
 1348TIP3    H225604   2.029   0.006   7.712 -0.0842 -0.7017 -1.9486
 1349TIP3   OH225605   4.544   0.439   8.069 -0.4003  0.6780  0.3799
 1349TIP3    H125606   4.492   0.418   8.147 -0.3265 -0.2603  0.1923
 1349TIP3    H225607   4.504   0.387   7.999 -0.9405  2.0707 -0.4059
 1350TIP3   OH225608   2.855   0.098   1.086 -0.0650  0.1708 -0.1270
 1350TIP3    H125609   2.885   0.031   1.148 -0.2777  0.3155  0.1330
 1350TIP3    H225610   2.814   0.165   1.140  0.4143  0.6575 -0.3666
 1351TIP3   OH225611   6.264   6.746   1.289 -0.2630  0.0556 -0.0982
 1351TIP3    H125612   6.252   6.760   1.383  1.4526 -1.5648  0.4021
 1351TIP3    H225613   6.202   6.677   1.266 -0.0824 -0.1422  0.0143
 1352TIP3   OH225614   6.770   2.367   0.049 -0.5014  0.3177  0.0415
 1352TIP3    H125615   6.831   2.308   0.092 -1.2813 -0.9629 -0.5364
 1352TIP3    H225616   6.825   2.435   0.011  0.5718 -0.7056 -0.3163
 1353TIP3   OH225617   0.216   1.417   8.547  0.5585 -0.0615 -0.6327
 1353TIP3    H125618   0.120   1.414   8.540  0.4223  1.2744  0.2081
 1353TIP3    H225619   0.242   1.327   8.566 -0.4483 -0.5981 -1.7011
 1354TIP3   OH225620   2.266   5.753   1.408  0.1651 -0.1770 -0.1864
 1354TIP3    H125621   2.216   5.674   1.386  0.6700 -0.0469 -1.9902
 1354TIP3    H225622   2.349   5.720   1.442 -0.1433 -0.4046  0.3556
 1355TIP3   OH225623   0.938   4.281   2.393 -0.3112  0.7170  0.3015
 1355TIP3    H125624   0.917   4.358   2.445 -1.7043 -0.0062  0.8521
 1355TIP3    H225625   0.957   4.213   2.458  0.8786  0.5624 -0.1750
 1356TIP3   OH225626   3.589   3.004   7.752 -0.3109 -0.1952 -0.6299
 1356TIP3    H125627   3.591   2.909   7.768 -1.9105 -0.5192 -2.1209
 1356TIP3    H225628   3.680   3.028   7.738  0.4634 -0.9978  2.3201
 1357TIP3   OH225629   0.500   0.315   6.371 -0.4288  0.5885 -0.4621
 1357TIP3    H125630   0.583   0.278   6.400 -1.1516 -0.8427 -0.1164
 1357TIP3    H225631   0.472   0.370   6.444 -0.3126  0.1857 -0.1085
 1358TIP3   OH225632   3.260   1.886   8.421  0.3067  0.5765  0.2350
 1358TIP3    H125633   3.311   1.806   8.411 -0.2378  0.1221  1.0167
 1358TIP3    H225634   3.256   1.900   8.516 -1.0345  0.5792  0.1954
 1359TIP3   OH225635   5.987   0.993   1.556  0.0863  0.2544 -0.1813
 1359TIP3    H125636   5.963   0.997   1.649  0.1813 -0.1402 -0.1359
 1359TIP3    H225637   6.041   0.914   1.549  0.5969  0.6223 -0.4565
 1360TIP3   OH225638   5.258   2.355   6.983 -0.3043  0.1894  0.0971
 1360TIP3    H125639   5.274   2.278   6.929 -2.9174 -0.6927  0.4718
 1360TIP3    H225640   5.226   2.421   6.922 -0.8007  0.0344  0.1883
 1361TIP3   OH225641   4.247   1.464   7.664 -0.5833 -0.1813  1.0399
 1361TIP3    H125642   4.166   1.459   7.615 -0.8538  0.5669  1.4060
 1361TIP3    H225643   4.307   1.406   7.617 -0.9617  0.1879  0.0877
 1362TIP3   OH225644   0.973   5.361   7.272 -0.1467 -0.2621 -0.0232
 1362TIP3    H125645   0.886   5.335   7.301  0.2058 -0.9889  0.4401
 1362TIP3    H225646   1.014   5.398   7.350  0.6153 -1.7132  0.3155
 1363TIP3   OH225647   5.574   5.896   1.286  0.2573  0.5453 -0.0581
 1363TIP3    H125648   5.530   5.900   1.201  2.1139  1.0908 -1.0483
 1363TIP3    H225649   5.604   5.805   1.293  0.2769  0.5506 -0.0765
 1364TIP3   OH225650   5.068   2.460   1.133 -0.1814 -0.2143 -0.3496
 1364TIP3    H125651   5.063   2.474   1.039 -1.2630 -1.8949 -0.5903
 1364TIP3    H225652   5.162   2.453   1.151 -0.0025 -1.4580 -1.6006
 1365TIP3   OH225653   0.813   6.464   1.416  0.1988 -0.4405 -0.9673
 1365TIP3    H125654   0.888   6.419   1.454  0.2116  1.8928  2.1638
 1365TIP3    H225655   0.736   6.422   1.454  0.1397  0.4550 -0.0487
 1366TIP3   OH225656   3.641   3.766   1.372  0.2199  0.5118  0.1559
 1366TIP3    H125657   3.735   3.754   1.361  1.0232  3.7730  2.0212
 1366TIP3    H225658   3.622   3.733   1.460 -0.2804  0.3912  0.0097
 1367TIP3   OH225659   3.245   3.134   6.400  0.3042  0.3800 -0.1217
 1367TIP3    H125660   3.289   3.060   6.359 -0.5091  0.9848 -2.2252
 1367TIP3    H225661   3.316   3.189   6.433  1.0572  0.2075 -1.3850
 1368TIP3   OH225662   3.845   0.992   7.435  0.0888  0.0754  0.4758
 1368TIP3    H125663   3.838   1.087   7.449 -1.5044 -0.1754  1.6424
 1368TIP3    H225664   3.937   0.978   7.413  0.2288  1.9640 -0.3688
 1369TIP3   OH225665   6.639   0.570   1.662  0.6786  0.1797  0.8184
 1369TIP3    H125666   6.563   0.614   1.701  2.2160  2.4438  1.3802
 1369TIP3    H225667   6.690   0.539   1.737  0.9795 -0.1812  0.4698
 1370TIP3   OH225668   6.398   1.244   0.112  0.0703 -0.2610  0.6879
 1370TIP3    H125669   6.365   1.313   0.055 -0.4295 -1.9952 -1.2482
 1370TIP3    H225670   6.343   1.249   0.190 -0.8044  0.6762  0.0315
 1371TIP3   OH225671   1.305   3.397   6.574 -1.2006  0.0931 -1.0421
 1371TIP3    H125672   1.221   3.373   6.536 -1.5129  0.7085 -0.7514
 1371TIP3    H225673   1.357   3.316   6.570 -2.5226 -0.9211  0.7230
 1372TIP3   OH225674   4.237   6.613   8.322  0.4404  0.1053 -0.0480
 1372TIP3    H125675   4.322   6.657   8.325  2.0285 -2.6464 -0.5704
 1372TIP3    H225676   4.243   6.555   8.245 -1.8811 -0.2594 -0.0298
 1373TIP3   OH225677   3.036   5.086   2.270 -0.1963  0.2917  0.9013
 1373TIP3    H125678   3.103   5.069   2.336  1.8078  1.0051 -0.8395
 1373TIP3    H225679   3.030   5.004   2.221  0.4481  0.6755  0.1758
 1374TIP3   OH225680   5.836   6.070   1.959 -0.0738  0.5025 -0.7707
 1374TIP3    H125681   5.880   6.152   1.939 -0.7186  1.2331  0.6666
 1374TIP3    H225682   5.766   6.064   1.894  0.1203  0.9595 -1.0304
 1375TIP3   OH225683   5.683   4.850   8.269  0.0257  0.7471  0.2186
 1375TIP3    H125684   5.634   4.926   8.301 -0.9283 -0.2011  1.1034
 1375TIP3    H225685   5.688   4.791   8.344 -2.4142 -1.6155 -1.2569
 1376TIP3   OH225686   2.257   4.451   7.217  0.2150  0.3448  0.4557
 1376TIP3    H125687   2.286   4.389   7.284  1.2721  0.4018  0.0694
 1376TIP3    H225688   2.243   4.533   7.265 -0.0715  0.1077  0.7780
 1377TIP3   OH225689   0.559   6.699   1.404 -0.1507 -0.2691 -0.0028
 1377TIP3    H125690   0.523   6.614   1.428  1.3574 -1.2159 -0.9638
 1377TIP3    H225691   0.623   6.680   1.336 -1.1297  1.8466 -1.6449
 1378TIP3   OH225692   3.794   3.948   1.685  0.1789 -0.2784 -0.8538
 1378TIP3    H125693   3.862   3.983   1.627  0.8251  1.5098  0.8857
 1378TIP3    H225694   3.794   3.854   1.666  3.2737 -0.3989 -0.8473
 1379TIP3   OH225695   4.972   2.504   1.428 -0.1458  0.3114 -0.5447
 1379TIP3    H125696   5.057   2.480   1.390  0.6398 -1.5033  2.0750
 1379TIP3    H225697   4.994   2.550   1.509 -1.6218 -0.2758  0.2282
 1380TIP3   OH225698   0.396   4.674   7.370  0.4457 -0.6634 -0.4349
 1380TIP3    H125699   0.407   4.687   7.465 -2.0174  0.3979 -0.2170
 1380TIP3    H225700   0.306   4.702   7.352  1.7865  2.3952 -3.6160
 1381TIP3   OH225701   6.148   5.614   1.477  0.1453  1.0268  0.0108
 1381TIP3    H125702   6.093   5.555   1.426  3.2029 -1.9408 -0.1838
 1381TIP3    H225703   6.195   5.665   1.411  0.2282  1.0320  0.0746
 1382TIP3   OH225704   0.507   6.181   2.078 -0.4993 -0.2006  0.1906
 1382TIP3    H125705   0.428   6.214   2.122 -0.8078  0.1286 -0.5990
 1382TIP3    H225706   0.577   6.192   2.143 -1.1751 -0.9256  1.0692
 1383TIP3   OH225707   1.544   6.382   7.925  0.1273 -0.0355  0.2462
 1383TIP3    H125708   1.538   6.469   7.884  1.0415  0.2200  0.6198
 1383TIP3    H225709   1.638   6.363   7.927 -0.0907 -1.2037 -0.1677
 1384TIP3   OH225710   4.669   4.992   1.866  0.3925 -0.0862  0.4407
 1384TIP3    H125711   4.645   4.989   1.959  0.2264 -1.0771  0.3715
 1384TIP3    H225712   4.756   5.032   1.865  0.1974  0.3675  0.9808
 1385TIP3   OH225713   1.828   6.038   1.251 -0.2303 -0.8192  0.1116
 1385TIP3    H125714   1.750   6.092   1.266 -0.1604 -1.0938  1.5609
 1385TIP3    H225715   1.806   5.952   1.288  1.6820 -0.1707  3.0373
 1386TIP3   OH225716   0.428   5.782   0.050 -0.1158 -0.1852  0.1470
 1386TIP3    H125717   0.412   5.691   0.075 -1.2388 -0.7490 -2.3141
 1386TIP3    H225718   0.510   5.778  -0.001 -0.7120 -0.0218 -0.8444
 1387TIP3   OH225719   3.196   0.439   0.379  0.0068  0.3650 -0.2418
 1387TIP3    H125720   3.257   0.458   0.451 -2.9587  2.6462  1.9162
 1387TIP3    H225721   3.167   0.349   0.395  1.6611 -0.2388 -0.4781
 1388TIP3   OH225722   3.767   4.142   7.283  0.3127  0.0934  0.0375
 1388TIP3    H125723   3.802   4.077   7.344  0.8070 -0.9174 -1.2591
 1388TIP3    H225724   3.748   4.092   7.204  1.4392  1.6406 -1.2840
 1389TIP3   OH225725   4.675   1.611   1.020  0.5289  0.1141  0.2422
 1389TIP3    H125726   4.696   1.658   1.101  0.9079 -0.4402  0.4722
 1389TIP3    H225727   4.750   1.554   1.005  1.3192  1.4975 -1.4821
 1390TIP3   OH225728   0.177   1.177   6.924 -1.1715 -0.0864 -0.2578
 1390TIP3    H125729   0.140   1.102   6.971 -0.3485 -0.5348 -0.3116
 1390TIP3    H225730   0.126   1.182   6.843 -2.5672  0.6632  0.6285
 1391TIP3   OH225731   4.737   4.482   1.372  0.2835 -0.4654 -0.1643
 1391TIP3    H125732   4.644   4.497   1.390  0.4381  2.8835 -1.4128
 1391TIP3    H225733   4.737   4.415   1.303 -1.2318 -0.0871 -0.5662
 1392TIP3   OH225734   1.501   4.772   2.307  0.5750 -0.2015 -0.0370
 1392TIP3    H125735   1.463   4.846   2.354 -1.1621 -1.3161  0.4158
 1392TIP3    H225736   1.513   4.805   2.218 -0.5316  0.5379  0.0538
 1393TIP3   OH225737   3.533   5.205   0.075 -0.1989  0.3838  0.1339
 1393TIP3    H125738   3.543   5.300   0.080 -2.4491  0.6659  0.4362
 1393TIP3    H225739   3.499   5.190  -0.013  0.5013 -0.1956 -0.0413
 1394TIP3   OH225740   2.880   1.596   8.258 -0.1861 -0.0167 -0.1863
 1394TIP3    H125741   2.914   1.685   8.270  1.8043 -0.8886  1.3350
 1394TIP3    H225742   2.851   1.594   8.167 -0.5988  2.2727 -0.1750
 1395TIP3   OH225743   2.373   4.625   7.837 -0.4476  0.9503  0.3776
 1395TIP3    H125744   2.350   4.547   7.887 -1.2156  0.3026 -0.9278
 1395TIP3    H225745   2.467   4.617   7.822 -0.7149 -0.3770 -0.7646
 1396TIP3   OH225746   5.257   4.970   7.067 -0.7411  1.0442 -0.2123
 1396TIP3    H125747   5.256   5.048   7.123  1.3195  0.4961  0.7137
 1396TIP3    H225748   5.165   4.947   7.055 -1.3065  1.8252  2.1085
 1397TIP3   OH225749   2.603   5.483   1.904  0.2235  0.1555  0.4264
 1397TIP3    H125750   2.563   5.398   1.883 -1.8949  1.1470  0.2427
 1397TIP3    H225751   2.691   5.460   1.934  0.3249 -1.9826 -1.2059
 1398TIP3   OH225752   1.234   1.120   6.921 -0.0218  0.1073  0.0658
 1398TIP3    H125753   1.309   1.155   6.872 -1.7363  1.5198 -1.6742
 1398TIP3    H225754   1.172   1.094   6.854 -1.9611  0.9478  1.4498
 1399TIP3   OH225755   0.049   1.347   1.079  0.7067 -0.4780  0.2529
 1399TIP3    H125756  -0.045   1.360   1.065  0.7086  0.4459  0.9642
 1399TIP3    H225757   0.055   1.265   1.127  0.4433 -1.6969 -1.7161
 1400TIP3   OH225758   2.190   0.202   0.729 -0.2641  0.6102  0.1472
 1400TIP3    H125759   2.121   0.176   0.668  2.3350  1.4151 -3.4597
 1400TIP3    H225760   2.253   0.130   0.725  1.1680  1.8319 -0.2295
 1401TIP3   OH225761   4.288   4.272   0.598 -0.2233  0.3908  0.2771
 1401TIP3    H125762   4.279   4.191   0.647 -0.0041 -0.1709 -0.5898
 1401TIP3    H225763   4.323   4.245   0.513  1.5262  1.5729  0.5687
 1402TIP3   OH225764   4.414   5.459   1.757  0.2691 -0.2635 -0.7186
 1402TIP3    H125765   4.481   5.416   1.703  2.2381  0.8052  0.7375
 1402TIP3    H225766   4.378   5.526   1.700  2.0965  0.6449 -0.9034
 1403TIP3   OH225767   5.003   2.072   7.639  0.1952 -0.3773 -0.2901
 1403TIP3    H125768   4.938   2.088   7.571  0.0837  0.2504 -0.0409
 1403TIP3    H225769   4.959   2.097   7.721  0.2783 -1.2545  0.0397
 1404TIP3   OH225770   3.396   2.387   7.691 -0.1523  0.2022 -0.2355
 1404TIP3    H125771   3.436   2.467   7.728 -2.8844  1.2293  0.7135
 1404TIP3    H225772   3.372   2.412   7.602 -2.1787  0.9498  0.4725
 1405TIP3   OH225773   0.698   2.931   2.282 -0.0948 -0.5943 -0.3497
 1405TIP3    H125774   0.712   2.999   2.216 -0.6922  0.1072  0.2301
 1405TIP3    H225775   0.637   2.869   2.241  0.2112 -0.6258 -0.7650
 1406TIP3   OH225776   5.123   0.184   2.181 -0.2028 -0.0521  0.1869
 1406TIP3    H125777   5.075   0.224   2.108  0.4459  1.1127  0.3733
 1406TIP3    H225778   5.066   0.194   2.257  0.2127  1.1424  0.3643
 1407TIP3   OH225779   6.353   5.353   1.496 -0.0886  0.4959  0.0522
 1407TIP3    H125780   6.269   5.320   1.463 -0.6396  1.2153  0.6724
 1407TIP3    H225781   6.405   5.275   1.512 -1.3119 -0.1060  1.3805
 1408TIP3   OH225782   6.662   1.785   0.384  0.4339 -0.8167 -0.0513
 1408TIP3    H125783   6.646   1.837   0.305  0.6016 -0.1125  0.3718
 1408TIP3    H225784   6.694   1.701   0.350  1.2446 -0.2609 -0.7248
 1409TIP3   OH225785   0.292   2.065   7.206  0.0813 -0.6339 -0.1024
 1409TIP3    H125786   0.374   2.065   7.255  1.2537 -0.5815 -1.9607
 1409TIP3    H225787   0.316   2.033   7.119 -0.9766  3.2588 -2.0658
 1410TIP3   OH225788   6.493   2.980   0.643  0.2812 -0.0091 -0.4658
 1410TIP3    H125789   6.496   3.060   0.697 -1.3685  0.5459 -1.1441
 1410TIP3    H225790   6.410   2.985   0.597  0.6988 -1.5418 -1.4610
 1411TIP3   OH225791   3.094   1.648   1.166  0.4877  0.0449  0.0754
 1411TIP3    H125792   3.166   1.673   1.108  1.2983  1.0739  1.4531
 1411TIP3    H225793   3.133   1.647   1.254 -1.1269  0.4149  0.8417
 1412TIP3   OH225794   0.016   5.579   7.978 -0.0029 -0.2990  0.2975
 1412TIP3    H125795   0.014   5.587   7.882  0.3749  1.6842  0.4033
 1412TIP3    H225796   0.064   5.498   7.994  1.2072  0.0722 -1.1988
 1413TIP3   OH225797   1.876   4.644   0.710  0.1966  0.4307  0.0551
 1413TIP3    H125798   1.872   4.727   0.664  2.1229  0.2448 -0.5083
 1413TIP3    H225799   1.883   4.668   0.803 -0.0484  0.8616 -0.0367
 1414TIP3   OH225800   3.197   3.786   1.144 -0.4431 -0.2290 -0.7340
 1414TIP3    H125801   3.180   3.837   1.223  2.3509 -1.6809  0.9713
 1414TIP3    H225802   3.125   3.723   1.141 -0.6869 -0.0521  0.5828
 1415TIP3   OH225803   6.294   1.396   0.971  0.3095 -0.3182 -0.2020
 1415TIP3    H125804   6.286   1.327   1.038  2.2990 -0.4479 -0.0217
 1415TIP3    H225805   6.272   1.352   0.889  0.3344 -0.8444  0.0650
 1416TIP3   OH225806   5.599   5.194   6.094  0.0187  0.1521 -0.4256
 1416TIP3    H125807   5.645   5.206   6.177  2.4226 -0.9537 -1.5033
 1416TIP3    H225808   5.625   5.269   6.041  0.4440 -0.3655 -0.9673
 1417TIP3   OH225809   6.015   3.345   7.345 -0.6703  0.2546 -0.1997
 1417TIP3    H125810   6.101   3.386   7.354 -0.1521 -1.0454  1.0603
 1417TIP3    H225811   5.965   3.376   7.420 -1.3143  0.9357 -0.8804
 1418TIP3   OH225812   1.401   0.606   6.312 -0.6942 -0.1347 -0.7178
 1418TIP3    H125813   1.420   0.662   6.387  0.7105 -2.2431  0.6041
 1418TIP3    H225814   1.338   0.656   6.260  0.4937  2.6545  0.3238
 1419TIP3   OH225815   0.522   2.196   7.318  0.1031  0.4470  0.3069
 1419TIP3    H125816   0.539   2.290   7.303 -1.2185  0.6529 -0.0481
 1419TIP3    H225817   0.544   2.182   7.410 -0.5771  1.3254  0.6138
 1420TIP3   OH225818   2.540   2.323   6.273  0.4333  0.2832 -0.5717
 1420TIP3    H125819   2.488   2.339   6.352  1.5083  1.7978 -0.1214
 1420TIP3    H225820   2.481   2.342   6.201  0.0611  1.0020 -0.0873
 1421TIP3   OH225821   5.569   4.073   1.647 -0.2536  0.1133 -0.0735
 1421TIP3    H125822   5.559   3.983   1.615  0.3918  0.2485 -0.6798
 1421TIP3    H225823   5.518   4.075   1.728  1.3791 -1.3918  1.0760
 1422TIP3   OH225824   6.869   4.523   0.965 -1.0102  0.1198 -0.7351
 1422TIP3    H125825   6.924   4.562   0.897  0.2190  0.8438  0.5925
 1422TIP3    H225826   6.891   4.430   0.963  0.3272  0.3930 -0.2325
 1423TIP3   OH225827   1.293   5.502   1.316 -0.0762  0.2576 -0.5352
 1423TIP3    H125828   1.234   5.567   1.354  0.1967  0.3657 -0.2974
 1423TIP3    H225829   1.235   5.430   1.289 -0.1470 -0.3849  1.2291
 1424TIP3   OH225830   2.405   5.181   6.595 -0.9737 -0.5958  0.5263
 1424TIP3    H125831   2.407   5.220   6.682  1.0383 -1.0181  0.7095
 1424TIP3    H225832   2.496   5.161   6.575 -1.3156  0.0098 -1.9363
 1425TIP3   OH225833   0.926   0.332   7.905  0.3083  0.2144  0.1899
 1425TIP3    H125834   0.874   0.338   7.825  1.1028 -1.1223 -0.4584
 1425TIP3    H225835   0.949   0.240   7.913  0.7295  0.4111  1.6671
 1426TIP3   OH225836   3.133   3.599   0.245  0.2267 -0.4034  0.1865
 1426TIP3    H125837   3.170   3.688   0.246 -0.1010 -0.2397  2.0749
 1426TIP3    H225838   3.086   3.594   0.162  0.3133  1.1613  0.0037
 1427TIP3   OH225839   5.664   0.451   1.132 -0.4418  0.3020 -0.3907
 1427TIP3    H125840   5.739   0.392   1.131 -0.0687  0.7103  0.9278
 1427TIP3    H225841   5.645   0.464   1.225 -1.2874  1.2773 -0.6756
 1428TIP3   OH225842   1.529   2.943   7.735 -0.3386 -0.2819  0.4230
 1428TIP3    H125843   1.536   2.977   7.645  0.1040 -1.8473 -0.1553
 1428TIP3    H225844   1.503   3.020   7.786 -0.4246  0.6955 -0.9997
 1429TIP3   OH225845   1.456   1.241   6.797  0.1706 -0.7690  0.5171
 1429TIP3    H125846   1.547   1.267   6.808 -0.3102  1.1026  0.5151
 1429TIP3    H225847   1.444   1.237   6.702  0.7202 -2.9709  0.5003
 1430TIP3   OH225848   5.695   5.090   7.361 -0.3802  0.1928  0.3619
 1430TIP3    H125849   5.623   5.102   7.423 -0.6476  2.2191 -0.2649
 1430TIP3    H225850   5.730   5.179   7.347  1.0890 -0.5097 -0.7166
 1431TIP3   OH225851   4.894   0.644   0.513  0.0755 -0.3080 -0.4930
 1431TIP3    H125852   4.933   0.730   0.528 -1.8046  0.5462 -0.1723
 1431TIP3    H225853   4.883   0.607   0.601 -1.8290  0.4541 -0.3442
 1432TIP3   OH225854   2.987   3.991   7.788  0.8876 -0.3038 -0.2124
 1432TIP3    H125855   3.001   4.017   7.879  1.3923  1.5440 -0.7788
 1432TIP3    H225856   2.997   4.072   7.738  1.5944 -1.4432 -2.0207
 1433TIP3   OH225857   1.153   3.858   1.189 -0.3077  0.2342  0.1240
 1433TIP3    H125858   1.201   3.833   1.267 -1.0029  0.5400  0.6603
 1433TIP3    H225859   1.084   3.793   1.181  0.9093 -0.9580 -1.3612
 1434TIP3   OH225860   1.678   1.157   8.323  0.9273  0.4023  0.4328
 1434TIP3    H125861   1.732   1.218   8.373  0.1742  0.1885  1.5449
 1434TIP3    H225862   1.660   1.085   8.384  0.4706 -0.1451 -0.3332
 1435TIP3   OH225863   0.597   4.284   6.281  0.0911  0.1963 -0.4061
 1435TIP3    H125864   0.543   4.314   6.208  0.2925 -1.3827 -1.2410
 1435TIP3    H225865   0.669   4.236   6.240 -0.6570 -2.1348  0.8228
 1436TIP3   OH225866   3.079   5.573   0.594 -0.3997 -0.0262 -0.1344
 1436TIP3    H125867   3.010   5.574   0.528 -0.6115  0.4954  0.0923
 1436TIP3    H225868   3.113   5.662   0.596  2.3774 -0.8590 -2.4033
 1437TIP3   OH225869   5.108   4.118   1.840 -0.1419  0.0605 -0.2519
 1437TIP3    H125870   5.029   4.167   1.862 -0.6962 -1.0357  0.3374
 1437TIP3    H225871   5.162   4.179   1.790 -1.8511  0.4965 -1.6643
 1438TIP3   OH225872   4.048   2.364   7.283  0.1275 -0.4472 -0.6357
 1438TIP3    H125873   4.034   2.456   7.258  1.3491 -0.2717 -0.7579
 1438TIP3    H225874   4.084   2.323   7.204  0.6312 -0.7595 -0.2530
 1439TIP3   OH225875   1.437   2.359   1.651  0.5483 -0.4997 -0.5490
 1439TIP3    H125876   1.458   2.437   1.703  0.5289 -0.4658 -0.5925
 1439TIP3    H225877   1.367   2.387   1.593  1.4667 -0.1614 -1.5369
 1440TIP3   OH225878   1.718   2.524   0.770  0.1226  0.7445  0.2528
 1440TIP3    H125879   1.685   2.520   0.860  0.1948  3.2706  0.4732
 1440TIP3    H225880   1.655   2.581   0.724  0.8903  0.7096 -0.8964
 1441TIP3   OH225881   2.778   6.867   7.779  0.1348  0.1014 -0.0776
 1441TIP3    H125882   2.741   6.796   7.727  0.4403  0.0768 -0.2625
 1441TIP3    H225883   2.718   6.877   7.853 -1.1177  1.1069 -1.1735
 1442TIP3   OH225884   3.927   5.805   8.539 -0.0849 -0.3346 -0.5082
 1442TIP3    H125885   3.982   5.875   8.574 -1.7350  0.7246  0.0720
 1442TIP3    H225886   3.868   5.782   8.611 -0.2091 -1.6748 -0.9954
 1443TIP3   OH225887   3.008   1.871   0.945 -0.2481  0.1035 -0.2981
 1443TIP3    H125888   2.921   1.865   0.905 -0.5147  1.7982 -0.0519
 1443TIP3    H225889   3.044   1.783   0.938 -0.7576  0.0422 -3.1503
 1444TIP3   OH225890   4.732   1.425   0.042  0.1458  0.1833  0.1030
 1444TIP3    H125891   4.654   1.406  -0.010 -0.4032  1.3754  0.4574
 1444TIP3    H225892   4.769   1.339   0.061 -0.9733 -0.3996 -0.2426
 1445TIP3   OH225893   6.394   2.372   1.892 -0.6376 -0.6543  0.2041
 1445TIP3    H125894   6.474   2.379   1.945 -1.2058  0.2804  0.9908
 1445TIP3    H225895   6.335   2.318   1.945 -0.0569 -2.5817 -1.0275
 1446TIP3   OH225896   1.070   2.580   7.860 -0.0128 -0.1239 -0.2409
 1446TIP3    H125897   1.010   2.639   7.904 -0.0152 -0.5607  0.3490
 1446TIP3    H225898   1.113   2.634   7.793 -1.1800  0.1446 -0.7864
 1447TIP3   OH225899   2.165   4.799   6.368  0.4671 -0.1795 -0.1130
 1447TIP3    H125900   2.129   4.750   6.295  0.6493 -0.6265  0.0928
 1447TIP3    H225901   2.117   4.769   6.445 -1.4291  2.0132 -0.3213
 1448TIP3   OH225902   1.423   3.966   2.553 -0.1892  0.1407  0.2790
 1448TIP3    H125903   1.371   3.893   2.587  0.0882  0.0947  0.6094
 1448TIP3    H225904   1.378   3.992   2.473 -2.4013  1.9837  1.9996
 1449TIP3   OH225905   3.487   5.525   7.076 -0.0872 -0.1581 -0.1452
 1449TIP3    H125906   3.458   5.488   7.160 -0.3134 -2.7350 -1.2614
 1449TIP3    H225907   3.580   5.543   7.089  0.2365 -1.9351  0.2701
 1450TIP3   OH225908   3.449   2.387   2.691 -0.5693  0.1629 -0.1178
 1450TIP3    H125909   3.360   2.389   2.656 -0.9626 -0.3928  0.8109
 1450TIP3    H225910   3.505   2.379   2.614 -1.2497  1.4459 -0.7879
 1451TIP3   OH225911   1.578   5.011   0.607 -0.2341 -0.0698 -0.3517
 1451TIP3    H125912   1.498   5.054   0.639 -0.1012  1.5133 -1.9721
 1451TIP3    H225913   1.546   4.939   0.552 -0.7869  2.4723 -3.6585
 1452TIP3   OH225914   0.977   5.544   2.275 -0.5748 -0.0783  0.3385
 1452TIP3    H125915   0.943   5.631   2.254 -2.7190 -1.0762 -0.6653
 1452TIP3    H225916   0.911   5.505   2.332 -1.0072 -1.9608 -1.3311
 1453TIP3   OH225917   3.141   1.514   0.529 -0.0916 -0.1352 -0.0045
 1453TIP3    H125918   3.163   1.588   0.472  1.7343  0.2154  1.0789
 1453TIP3    H225919   3.091   1.553   0.600 -0.7749 -0.2644 -0.4126
 1454TIP3   OH225920   1.750   3.462   1.161  0.0777 -0.1770 -0.1578
 1454TIP3    H125921   1.696   3.386   1.185  0.2558  0.1534  1.4083
 1454TIP3    H225922   1.835   3.445   1.202  0.3904  0.4505 -0.5323
 1455TIP3   OH225923   2.310   1.650   0.730 -0.2894 -0.0206 -0.4817
 1455TIP3    H125924   2.338   1.690   0.647 -0.8204  0.2363 -0.5429
 1455TIP3    H225925   2.354   1.702   0.798 -3.3017  2.7890 -0.3822
 1456TIP3   OH225926   6.782   2.671   1.500 -0.1101  0.2925 -0.1867
 1456TIP3    H125927   6.819   2.726   1.431 -0.0333  2.4450  1.4648
 1456TIP3    H225928   6.857   2.623   1.535  0.0131 -0.0568 -0.9007
 1457TIP3   OH225929   6.500   2.683   0.131 -0.0646 -0.1926  0.0353
 1457TIP3    H125930   6.568   2.742   0.162  0.0080 -0.3000  0.0828
 1457TIP3    H225931   6.450   2.734   0.067  0.0199 -0.0933  0.0495
 1458TIP3   OH225932   4.569   6.422   0.430 -0.5710 -0.1548  0.2494
 1458TIP3    H125933   4.660   6.394   0.435 -0.6413 -0.3238  0.6148
 1458TIP3    H225934   4.535   6.380   0.350 -0.4098 -0.3310  0.2730
 1459TIP3   OH225935   1.507   5.454   0.148 -0.0871  0.0527 -0.5835
 1459TIP3    H125936   1.438   5.480   0.209 -1.6763 -0.1410 -2.2115
 1459TIP3    H225937   1.564   5.530   0.143 -1.5401  1.1724 -1.0019
 1460TIP3   OH225938   6.797   0.408   2.230  0.3227 -0.1459  0.6223
 1460TIP3    H125939   6.766   0.499   2.239  1.0499  0.0236  1.6086
 1460TIP3    H225940   6.737   0.369   2.167  1.6920  1.8154 -2.1394
 1461TIP3   OH225941   3.780   3.485   0.312 -0.0170  1.1633  0.0663
 1461TIP3    H125942   3.788   3.525   0.399  1.2579  1.1487 -0.0256
 1461TIP3    H225943   3.708   3.422   0.322 -0.2462  1.5377  0.9578
 1462TIP3   OH225944   1.228   0.219   1.297 -0.0852 -0.1576 -0.0222
 1462TIP3    H125945   1.164   0.158   1.333 -0.0881  0.5194  1.1734
 1462TIP3    H225946   1.177   0.295   1.269 -0.0058 -0.4051 -0.8785
 1463TIP3   OH225947   1.970   6.133   6.643  0.0783  0.3981  0.0732
 1463TIP3    H125948   2.034   6.162   6.578 -0.4513  0.8610 -0.2527
 1463TIP3    H225949   1.972   6.038   6.639  1.4388  0.3816  0.7508
 1464TIP3   OH225950   3.629   2.844   8.218 -0.3998  0.3396  0.1709
 1464TIP3    H125951   3.562   2.787   8.181 -0.5117  0.1776  0.6180
 1464TIP3    H225952   3.694   2.853   8.148 -0.3176 -0.4455  0.1332
 1465TIP3   OH225953   0.120   0.665   0.528 -0.1072 -0.5246  0.5795
 1465TIP3    H125954   0.097   0.747   0.484  0.3354 -0.7829 -0.1448
 1465TIP3    H225955   0.105   0.597   0.463  1.8251 -0.7948  0.3529
 1466TIP3   OH225956   5.537   5.152   7.624 -0.4208 -0.2024 -0.1027
 1466TIP3    H125957   5.569   5.241   7.638 -0.7082  0.1152 -1.3597
 1466TIP3    H225958   5.562   5.105   7.704  0.0551  0.9038  0.4245
 1467TIP3   OH225959   4.663   6.623   2.473 -0.1139 -0.3275 -0.0234
 1467TIP3    H125960   4.673   6.563   2.547 -0.5214 -0.4641 -0.0762
 1467TIP3    H225961   4.743   6.612   2.422  0.4192  0.1623  0.6789
 1468TIP3   OH225962   0.126   5.776   1.117 -0.0186 -0.5783  0.6790
 1468TIP3    H125963   0.098   5.723   1.042 -2.5646  0.9166  0.4998
 1468TIP3    H225964   0.049   5.784   1.172  1.0625  0.6674  2.1062
 1469TIP3   OH225965   2.684   2.800   1.715  0.3960  0.1093  0.3059
 1469TIP3    H125966   2.695   2.819   1.808  1.4475 -0.6394  0.3569
 1469TIP3    H225967   2.606   2.849   1.689  0.0746  0.3058  1.5834
 1470TIP3   OH225968   1.809   2.076   7.052 -0.0874 -0.4205  0.2827
 1470TIP3    H125969   1.863   2.008   7.011 -0.7640 -0.3569 -0.7469
 1470TIP3    H225970   1.726   2.031   7.071 -1.1163  0.4514 -1.8157
 1471TIP3   OH225971   1.588   3.998   0.515  0.2319 -0.0003 -0.1013
 1471TIP3    H125972   1.623   4.082   0.545  1.6430 -0.2759 -0.8941
 1471TIP3    H225973   1.664   3.952   0.480  0.1320 -2.7760  2.8519
 1472TIP3   OH225974   1.540   4.373   8.037  0.1091  0.0651 -0.0830
 1472TIP3    H125975   1.497   4.413   8.113 -1.3206 -0.0207 -0.8075
 1472TIP3    H225976   1.618   4.427   8.022  0.8181 -0.3666  1.8767
 1473TIP3   OH225977   6.343   1.782   7.948  0.2102  0.4534  0.0152
 1473TIP3    H125978   6.277   1.723   7.985  0.3664 -0.8618 -1.6643
 1473TIP3    H225979   6.405   1.797   8.020 -1.6269  1.3684  1.4926
 1474TIP3   OH225980   1.007   5.173   8.399  0.9281  0.1851 -0.0627
 1474TIP3    H125981   1.032   5.262   8.373  0.2177  1.0847  2.1035
 1474TIP3    H225982   1.035   5.166   8.490 -0.1834 -1.3584  0.1979
 1475TIP3   OH225983   5.484   1.734   1.347 -0.0361 -0.2569 -0.0335
 1475TIP3    H125984   5.470   1.653   1.396 -0.9315  0.0603  0.2472
 1475TIP3    H225985   5.571   1.765   1.376  0.4578 -1.2749 -0.3948
 1476TIP3   OH225986   4.397   6.418   6.816 -0.9467 -0.2428 -0.0958
 1476TIP3    H125987   4.325   6.480   6.805  0.6933  1.7444 -0.2538
 1476TIP3    H225988   4.427   6.401   6.727  1.0135  1.8228  0.0820
 1477TIP3   OH225989   2.969   0.594   8.064 -0.1609 -0.2822  0.4374
 1477TIP3    H125990   2.896   0.607   8.125 -1.5407  0.1456 -1.2244
 1477TIP3    H225991   2.993   0.682   8.035  0.6110 -0.4665  0.4948
 1478TIP3   OH225992   0.630   3.635   7.364  0.3770 -0.3536  0.2291
 1478TIP3    H125993   0.680   3.577   7.422  2.0160 -0.8721 -1.6136
 1478TIP3    H225994   0.576   3.687   7.424  2.1408 -0.6997  2.2420
 1479TIP3   OH225995   3.806   4.921   1.375 -0.4399  0.3080  0.2139
 1479TIP3    H125996   3.850   4.896   1.293 -0.6804  1.2588 -0.2204
 1479TIP3    H225997   3.716   4.943   1.348 -0.4042  1.0364  0.6593
 1480TIP3   OH225998   2.343   3.313   8.099  0.9927 -0.2098 -0.1704
 1480TIP3    H125999   2.381   3.315   8.186 -1.2840  0.7982  0.9018
 1480TIP3    H226000   2.392   3.380   8.050 -1.3923  3.7242  2.2041
 1481TIP3   OH226001   5.443   2.895   1.787 -0.1831  0.1345 -0.2042
 1481TIP3    H126002   5.434   2.983   1.751 -0.2552  0.0295 -0.4446
 1481TIP3    H226003   5.357   2.877   1.826  0.4759  1.0097  1.7655
 1482TIP3   OH226004   5.080   2.779   2.088  0.0916  0.3694  0.4060
 1482TIP3    H126005   4.992   2.756   2.059  0.5889 -0.7418 -0.2759
 1482TIP3    H226006   5.071   2.791   2.183 -1.1987  2.3458  0.0902
 1483TIP3   OH226007   2.705   6.631   7.631  0.1567  0.1397 -0.1835
 1483TIP3    H126008   2.701   6.644   7.536  0.7181 -0.3003 -0.2726
 1483TIP3    H226009   2.731   6.540   7.642 -1.3815 -0.2537  0.4073
 1484TIP3   OH226010   3.217   5.514   7.709  0.2126 -0.1546 -0.3708
 1484TIP3    H126011   3.231   5.579   7.778  0.5898 -0.7773  0.1519
 1484TIP3    H226012   3.130   5.533   7.675  0.0559  0.2065  0.2258
 1485TIP3   OH226013   5.594   3.293   7.049 -0.1818  0.1390 -0.2986
 1485TIP3    H126014   5.581   3.246   6.967 -1.2034  0.9868 -0.6534
 1485TIP3    H226015   5.610   3.384   7.022 -0.4483  0.4120  0.4359
 1486TIP3   OH226016   6.744   5.974   8.432 -0.2077 -0.1785  0.2262
 1486TIP3    H126017   6.745   5.932   8.346 -0.3475  0.3692 -0.0468
 1486TIP3    H226018   6.761   6.066   8.414  0.1030 -0.1132  0.8191
 1487TIP3   OH226019   6.267   6.744   0.076 -0.2971  0.0901 -0.0010
 1487TIP3    H126020   6.177   6.710   0.079 -0.5708  0.8485  1.0373
 1487TIP3    H226021   6.321   6.667   0.057 -1.0321 -0.6548  0.8337
 1488TIP3   OH226022   2.812   0.730   7.666  0.4276 -0.6109  0.5813
 1488TIP3    H126023   2.762   0.679   7.729 -0.8132 -0.4564 -0.2372
 1488TIP3    H226024   2.773   0.817   7.669 -0.1462 -0.7846 -0.8842
 1489TIP3   OH226025   6.555   2.875   1.886  0.3302  0.5513 -0.3327
 1489TIP3    H126026   6.543   2.791   1.931 -2.6201  1.4635  0.7823
 1489TIP3    H226027   6.564   2.939   1.957  0.7522  1.4154 -1.1422
 1490TIP3   OH226028   1.569   6.212   1.204 -0.0272 -0.0248 -0.1542
 1490TIP3    H126029   1.601   6.201   1.294  0.9500  0.9497 -0.3712
 1490TIP3    H226030   1.560   6.306   1.193  0.1503 -0.1185 -1.1851
 1491TIP3   OH226031   5.794   3.180   8.498  0.2357  0.0174 -0.1409
 1491TIP3    H126032   5.796   3.120   8.573  0.0865  0.1233 -0.0522
 1491TIP3    H226033   5.718   3.236   8.514  0.0520 -0.1288 -0.5059
 1492TIP3   OH226034   3.197   5.711   7.387  0.0206 -0.2039  0.1207
 1492TIP3    H126035   3.119   5.745   7.343 -0.4056 -1.9272 -0.5237
 1492TIP3    H226036   3.197   5.753   7.473 -1.2360  0.3389 -0.1359
 1493TIP3   OH226037   5.742   1.572   1.457  0.5369 -1.1043 -0.0618
 1493TIP3    H126038   5.706   1.515   1.389 -0.6457  1.8375 -2.1422
 1493TIP3    H226039   5.678   1.568   1.528  0.7551 -2.6945  0.0816
 1494TIP3   OH226040   4.907   6.422   7.222 -0.5239 -0.6848 -0.3063
 1494TIP3    H126041   4.936   6.346   7.272  1.3179  0.2152  0.0868
 1494TIP3    H226042   4.954   6.495   7.260 -0.1033  0.2397 -2.4549
 1495TIP3   OH226043   1.420   1.897   1.557  0.1461  0.2828  0.0637
 1495TIP3    H126044   1.434   1.832   1.626  0.6202  0.6806  0.3530
 1495TIP3    H226045   1.498   1.952   1.560 -0.3356  0.9937 -0.0337
 1496TIP3   OH226046   3.771   3.837   7.931 -0.3094  0.1235 -0.2197
 1496TIP3    H126047   3.858   3.827   7.969 -0.7153  1.2817  1.1245
 1496TIP3    H226048   3.713   3.789   7.991 -0.7531  0.5046 -0.3327
 1497TIP3   OH226049   4.468   0.697   8.044  0.1935  0.4857  0.0770
 1497TIP3    H126050   4.548   0.750   8.037  0.8935 -0.4964  0.3124
 1497TIP3    H226051   4.500   0.607   8.037 -0.8925  0.0780  0.2936
 1498TIP3   OH226052   2.647   4.535   7.043  0.1920 -0.0927 -0.2022
 1498TIP3    H126053   2.671   4.615   6.997 -2.2055 -1.1717 -3.7569
 1498TIP3    H226054   2.729   4.485   7.049  1.2774  1.6322  0.0168
 1499TIP3   OH226055   3.891   6.448   8.031  0.2311  0.1386  0.0446
 1499TIP3    H126056   3.901   6.498   7.949 -1.5235  0.9513  0.2876
 1499TIP3    H226057   3.833   6.376   8.008  0.7419 -0.3635  0.3009
 1500TIP3   OH226058   3.936   1.691   0.705 -0.1048  0.1402  0.4218
 1500TIP3    H126059   4.024   1.709   0.740  0.2273 -0.3175 -0.1562
 1500TIP3    H226060   3.901   1.777   0.683 -0.2545  0.4348  1.6884
 1501TIP3   OH226061   4.370   0.180   7.959  0.2601  0.0476  0.3325
 1501TIP3    H126062   4.286   0.148   7.926  0.8247  0.6074 -1.8068
 1501TIP3    H226063   4.406   0.107   8.008 -0.7884 -0.7561 -0.0637
 1502TIP3   OH226064   1.977   4.568   7.759 -0.1731  0.4378  0.0318
 1502TIP3    H126065   1.909   4.501   7.748 -0.1436  0.8089 -3.5672
 1502TIP3    H226066   1.929   4.648   7.780 -0.3958 -0.1299  1.9158
 1503TIP3   OH226067   1.905   2.809   1.038  0.5834 -0.1636  0.3874
 1503TIP3    H126068   1.976   2.750   1.012  2.9235  2.3211  0.7002
 1503TIP3    H226069   1.858   2.761   1.106  0.4925 -2.7766 -1.3683
 1504TIP3   OH226070   1.884   2.275   8.545 -0.0506  0.4195 -0.0429
 1504TIP3    H126071   1.836   2.231   8.475 -1.8749  0.6023  1.0392
 1504TIP3    H226072   1.917   2.204   8.600 -0.2236  0.3269 -0.0589
 1505TIP3   OH226073   2.386   5.683   1.154 -0.0950  0.2310 -0.3452
 1505TIP3    H126074   2.354   5.725   1.075  0.9415  2.5458  0.3836
 1505TIP3    H226075   2.314   5.625   1.182 -2.2590  2.6014 -0.6365
 1506TIP3   OH226076   0.317   1.835   1.150  0.0673 -0.5954 -0.3496
 1506TIP3    H126077   0.303   1.743   1.124 -0.5394 -0.0627 -2.0362
 1506TIP3    H226078   0.373   1.871   1.081 -2.8809  1.3096 -1.9287
 1507TIP3   OH226079   3.344   6.671   1.452  0.2469  0.5491  0.0269
 1507TIP3    H126080   3.379   6.741   1.398  1.1829 -0.2422 -0.4170
 1507TIP3    H226081   3.266   6.709   1.493  0.5688  1.7412 -0.4299
 1508TIP3   OH226082   2.905   3.858   1.443 -0.1206  0.3927  0.5610
 1508TIP3    H126083   2.866   3.945   1.457 -0.6549  0.2370  0.0571
 1508TIP3    H226084   2.835   3.797   1.464 -0.5264  0.1239 -1.3902
 1509TIP3   OH226085   5.172   3.634   1.028  0.4832  0.1325 -0.1418
 1509TIP3    H126086   5.203   3.721   1.003 -1.9287  0.8025 -1.1844
 1509TIP3    H226087   5.194   3.578   0.954 -0.6264  0.5763 -0.8282
 1510TIP3   OH226088   3.455   0.491   1.069 -0.1645  0.4664 -0.3722
 1510TIP3    H126089   3.370   0.529   1.088  0.3960  1.5371  0.0539
 1510TIP3    H226090   3.518   0.559   1.092  0.7507  0.3166 -2.2305
 1511TIP3   OH226091   4.106   1.098   7.452 -0.4066  0.3867 -0.0305
 1511TIP3    H126092   4.077   1.145   7.531  0.6809  0.4527  0.3471
 1511TIP3    H226093   4.128   1.167   7.390  1.0105  0.3994  0.4580
 1512TIP3   OH226094   3.381   5.539   8.482 -0.7044  0.1798 -0.2232
 1512TIP3    H126095   3.352   5.524   8.392 -0.1614  0.0797 -0.3839
 1512TIP3    H226096   3.463   5.588   8.473 -0.7702  0.3797  0.2230
 1513TIP3   OH226097   5.890   1.260   8.261  0.6677  0.0660 -0.1133
 1513TIP3    H126098   5.957   1.208   8.215  0.1201  1.2624 -2.4415
 1513TIP3    H226099   5.809   1.212   8.246  0.4930  0.4302 -0.3386
 1514TIP3   OH226100   3.048   3.299   6.262 -0.1532  0.4549  0.0113
 1514TIP3    H126101   2.994   3.260   6.330 -0.4778 -0.0772 -0.5346
 1514TIP3    H226102   3.134   3.259   6.273 -0.4286 -0.2909 -0.4126
 1515TIP3   OH226103   5.061   6.014   1.097 -0.1606  0.0112 -0.8641
 1515TIP3    H126104   5.146   6.054   1.116 -0.4262  0.2841 -0.2430
 1515TIP3    H226105   5.077   5.960   1.019  1.2629 -2.0964  0.7524
 1516TIP3   OH226106   5.036   4.189   7.732  0.3084  0.6852 -0.6702
 1516TIP3    H126107   5.058   4.178   7.639 -0.0913  1.0319 -0.8132
 1516TIP3    H226108   4.991   4.274   7.735  0.3967  0.7143 -0.1441
 1517TIP3   OH226109   0.278   1.524   7.628  0.0982 -0.0346  0.4259
 1517TIP3    H126110   0.185   1.540   7.648  0.2384 -0.8387  1.8555
 1517TIP3    H226111   0.324   1.547   7.709  1.3771  1.9773 -0.7711
 1518TIP3   OH226112   0.974   3.202   2.197  0.3538 -0.6516 -1.0503
 1518TIP3    H126113   1.065   3.228   2.182  0.1430 -0.9277 -3.0094
 1518TIP3    H226114   0.975   3.161   2.284  2.6076 -2.9156 -2.0092
 1519TIP3   OH226115   5.528   4.204   7.105 -0.1147 -0.1286  0.2605
 1519TIP3    H126116   5.610   4.160   7.081 -0.2533  0.1631 -0.7989
 1519TIP3    H226117   5.498   4.158   7.184  0.5604 -0.8753  0.0964
 1520TIP3   OH226118   2.799   0.513   8.255  0.8043 -0.5828  0.2551
 1520TIP3    H126119   2.731   0.523   8.321  0.1088  0.7238 -0.6069
 1520TIP3    H226120   2.778   0.430   8.212  0.5794 -0.8727  0.9194
 1521TIP3   OH226121   2.283   2.343   1.774  0.0538 -0.6337 -0.1233
 1521TIP3    H126122   2.343   2.270   1.758 -1.4330 -1.7189 -1.1668
 1521TIP3    H226123   2.218   2.307   1.834 -0.6346 -0.1493 -0.5664
 1522TIP3   OH226124   5.601   0.800   1.903 -0.3591  0.0696 -0.1238
 1522TIP3    H126125   5.578   0.854   1.827  1.9317  0.5347 -0.5646
 1522TIP3    H226126   5.665   0.852   1.952 -0.9839 -0.6818  1.5550
 1523TIP3   OH226127   6.812   1.095   8.259 -0.1371 -0.0489  0.1583
 1523TIP3    H126128   6.829   1.128   8.171 -1.8459  0.2871 -0.0880
 1523TIP3    H226129   6.780   1.171   8.307  1.0065 -0.1696  1.1749
 1524TIP3   OH226130   5.951   2.375   0.310  0.3561  0.0048 -0.0896
 1524TIP3    H126131   6.041   2.380   0.343  0.6178  0.2639 -0.8248
 1524TIP3    H226132   5.932   2.281   0.307  1.2441 -0.1449 -1.5986
 1525TIP3   OH226133   5.255   3.244   1.654  0.5601  0.1584 -0.1144
 1525TIP3    H126134   5.206   3.182   1.600  0.9802 -0.8693  0.6548
 1525TIP3    H226135   5.346   3.218   1.644  0.6034 -0.4200  1.5109
 1526TIP3   OH226136   6.594   2.513   6.879  0.3892  0.6080  0.5610
 1526TIP3    H126137   6.529   2.558   6.824  0.3836  0.9300  0.8306
 1526TIP3    H226138   6.564   2.528   6.969  0.6574  0.4807  0.6718
 1527TIP3   OH226139   0.717   3.352   6.392 -0.5076 -0.0926 -0.2301
 1527TIP3    H126140   0.711   3.287   6.462 -2.3162  0.5229  0.2582
 1527TIP3    H226141   0.627   3.384   6.381  0.0626  1.2270 -1.5009
 1528TIP3   OH226142   0.508   4.578   6.351 -0.4833  0.2658  0.6017
 1528TIP3    H126143   0.457   4.655   6.376  0.9825  1.7852 -0.9090
 1528TIP3    H226144   0.480   4.559   6.261  0.5726  0.2306  0.2751
 1529TIP3   OH226145   2.317   0.233   2.370 -0.1787 -0.2931 -0.0047
 1529TIP3    H126146   2.401   0.274   2.353 -0.8891  1.2000 -0.0293
 1529TIP3    H226147   2.318   0.213   2.464 -0.7017  1.9344  0.5267
 1530TIP3   OH226148   5.150   1.021   7.878 -0.1316  0.5466 -0.8102
 1530TIP3    H126149   5.092   1.097   7.868 -1.0739 -0.2597 -1.6540
 1530TIP3    H226150   5.094   0.953   7.917  0.7379  0.3129  0.0827
 1531TIP3   OH226151   1.311   2.245   1.188 -0.2349  0.0058 -0.0731
 1531TIP3    H126152   1.241   2.208   1.242  1.7586 -0.2009  2.6440
 1531TIP3    H226153   1.290   2.337   1.180 -0.6297  0.0456  1.1402
 1532TIP3   OH226154   0.062   6.368   0.588  0.0287 -0.4236  0.4845
 1532TIP3    H126155   0.089   6.447   0.634 -0.5321  0.3402 -0.4499
 1532TIP3    H226156   0.095   6.380   0.499 -2.5182  0.1671 -0.4911
 1533TIP3   OH226157   2.712   3.137   1.186 -0.7082 -0.2475  0.0519
 1533TIP3    H126158   2.728   3.045   1.162  0.6142 -0.5460  1.8688
 1533TIP3    H226159   2.620   3.139   1.211 -0.1305 -1.8255  2.7525
 1534TIP3   OH226160   1.835   5.728   7.301 -0.8904  0.4506 -0.1377
 1534TIP3    H126161   1.843   5.783   7.379  0.2095 -1.8205  1.4614
 1534TIP3    H226162   1.925   5.720   7.269 -0.7845 -1.5375  0.5424
 1535TIP3   OH226163   3.669   1.481   2.115  0.1257 -0.0564  0.1146
 1535TIP3    H126164   3.727   1.482   2.039 -1.6225 -0.6090 -1.3154
 1535TIP3    H226165   3.652   1.388   2.131  0.2398  0.0686  0.9925
 1536TIP3   OH226166   1.247   4.239   8.417  0.7778  0.2146  0.2374
 1536TIP3    H126167   1.154   4.219   8.430  0.4880  0.4106 -1.3670
 1536TIP3    H226168   1.288   4.154   8.403  0.4361  0.2877 -1.3255
 1537TIP3   OH226169   1.648   6.824   6.901 -0.2270  0.0186  0.2755
 1537TIP3    H126170   1.581   6.834   6.969  0.4319  1.2926  0.7699
 1537TIP3    H226171   1.728   6.858   6.941  0.1990  0.6997 -1.1090
 1538TIP3   OH226172   0.551   4.403   6.880 -0.1995  0.3366  0.1365
 1538TIP3    H126173   0.632   4.450   6.862 -0.7383  0.7255 -1.4128
 1538TIP3    H226174   0.497   4.466   6.928  0.1051  0.3302  0.5017
 1539TIP3   OH226175   0.883   2.785   0.895 -0.1427  0.1174 -0.1960
 1539TIP3    H126176   0.841   2.707   0.931 -1.6845  0.8194 -0.3673
 1539TIP3    H226177   0.811   2.848   0.884  1.0160  1.4819 -0.2728
 1540TIP3   OH226178   6.310   2.435   7.714  0.2238  0.5833 -0.0312
 1540TIP3    H126179   6.271   2.363   7.763  1.3979 -0.2143 -0.2181
 1540TIP3    H226180   6.358   2.486   7.780  3.6410 -1.7086 -0.4750
 1541TIP3   OH226181   6.606   2.082   1.062 -0.8374  0.0390 -0.2946
 1541TIP3    H126182   6.677   2.051   1.118 -1.9664  0.3608  1.3758
 1541TIP3    H226183   6.547   2.128   1.121 -3.0231 -1.1902 -1.3951
 1542TIP3   OH226184   6.156   4.202   1.098 -0.4525  0.2425  0.1640
 1542TIP3    H126185   6.222   4.259   1.138 -0.2883  1.6081 -1.9474
 1542TIP3    H226186   6.132   4.141   1.169  2.4196  0.2171  1.2679
 1543TIP3   OH226187   2.913   4.159   6.819  0.1631 -0.4280 -0.1494
 1543TIP3    H126188   2.836   4.165   6.876 -0.6708 -0.4141 -1.2405
 1543TIP3    H226189   2.982   4.206   6.866 -0.7874  0.4872  0.3589
 1544TIP3   OH226190   2.192   3.775   7.185  0.7003 -0.0926  0.4964
 1544TIP3    H126191   2.114   3.751   7.236  0.7007  1.6800  1.4022
 1544TIP3    H226192   2.260   3.789   7.250  0.8584  1.6370  0.0226
 1545TIP3   OH226193   5.318   5.715   7.303 -0.2307 -0.3437  0.7886
 1545TIP3    H126194   5.287   5.648   7.242 -0.9178  1.3033 -0.7459
 1545TIP3    H226195   5.301   5.798   7.258 -0.3747  0.9266  3.0621
 1546TIP3   OH226196   1.169   3.696   1.417 -0.6494  0.2516  0.3890
 1546TIP3    H126197   1.085   3.688   1.462 -0.9225 -0.0972 -0.1707
 1546TIP3    H226198   1.234   3.673   1.484 -1.1125 -1.4317  0.2955
 1547TIP3   OH226199   1.353   0.931   0.744 -0.3115 -0.1128 -0.1375
 1547TIP3    H126200   1.306   0.874   0.683 -0.1221  0.2468 -0.6268
 1547TIP3    H226201   1.433   0.883   0.765 -1.4234 -1.3108  1.6900
 1548TIP3   OH226202   1.358   0.511   7.847  0.1116 -0.0662  0.5060
 1548TIP3    H126203   1.414   0.571   7.897 -1.9651  0.1362  2.7706
 1548TIP3    H226204   1.348   0.553   7.761  3.4991 -0.2308 -0.1242
 1549TIP3   OH226205   5.262   6.877   2.033 -1.2096 -0.4324 -0.1912
 1549TIP3    H126206   5.264   6.896   2.127 -0.2679  0.1406 -0.3069
 1549TIP3    H226207   5.241   6.961   1.992 -1.1886 -0.5795 -0.5066
 1550TIP3   OH226208   0.895   2.186   7.018 -0.6022  0.4011  0.1124
 1550TIP3    H126209   0.924   2.133   7.092  3.6071  0.8815 -0.9277
 1550TIP3    H226210   0.891   2.276   7.053  0.4850  0.5012  0.0024
 1551TIP3   OH226211   2.426   5.155   1.204  0.1377 -0.3717 -0.6662
 1551TIP3    H126212   2.358   5.211   1.165  1.1311  0.2212 -1.5992
 1551TIP3    H226213   2.436   5.083   1.142 -0.9622 -1.5024  0.4141
 1552TIP3   OH226214   0.286   6.242   1.696 -0.0089 -0.5112 -0.4222
 1552TIP3    H126215   0.277   6.337   1.686 -0.5038 -0.4991  0.0609
 1552TIP3    H226216   0.225   6.205   1.632 -0.3395 -0.4913 -0.1203
 1553TIP3   OH226217   6.481   1.753   6.789 -0.1964  0.0662 -0.3116
 1553TIP3    H126218   6.497   1.848   6.785 -2.3791  0.5446  0.7847
 1553TIP3    H226219   6.424   1.741   6.864  0.7406 -2.2895  0.1184
 1554TIP3   OH226220   5.409   6.296   7.647 -0.5597  0.0149  0.3690
 1554TIP3    H126221   5.480   6.333   7.700 -0.1840 -0.5081  0.2403
 1554TIP3    H226222   5.428   6.325   7.558 -2.0533  2.2223  0.6947
 1555TIP3   OH226223   0.574   6.675   0.650  0.4219 -0.0025 -0.2452
 1555TIP3    H126224   0.659   6.718   0.644  0.1534  0.5519 -0.1626
 1555TIP3    H226225   0.540   6.701   0.736  0.7370 -1.2993  0.2922
 1556TIP3   OH226226   5.470   5.830   8.362 -0.2365 -0.0946  0.1389
 1556TIP3    H126227   5.420   5.860   8.438 -1.1706 -0.3390 -0.3596
 1556TIP3    H226228   5.547   5.886   8.360 -1.3861  1.5303 -0.1145
 1557TIP3   OH226229   0.311   5.869   7.562 -0.3306  0.6093  0.2804
 1557TIP3    H126230   0.317   5.788   7.510  2.3303  1.8967 -1.6169
 1557TIP3    H226231   0.352   5.847   7.645 -0.0146 -0.0916 -0.0494
 1558TIP3   OH226232   6.201   6.029   7.520  0.2651 -0.4681  0.1005
 1558TIP3    H126233   6.164   5.963   7.461 -1.4485  0.7292 -0.2450
 1558TIP3    H226234   6.185   5.995   7.607  0.8403 -1.2357 -0.0821
 1559TIP3   OH226235   1.221   2.891   8.096 -0.0219 -0.1319  0.1752
 1559TIP3    H126236   1.240   2.983   8.111 -1.8055  0.3536 -0.3841
 1559TIP3    H226237   1.162   2.866   8.167 -0.7977 -0.4113 -0.5530
 1560TIP3   OH226238   0.605   0.889   7.633 -0.2840  0.1139  0.7064
 1560TIP3    H126239   0.692   0.858   7.660  0.9262  0.6829 -2.2162
 1560TIP3    H226240   0.616   0.984   7.623 -1.4496  0.2839  0.9305
 1561TIP3   OH226241   5.751   1.968   6.624  0.1200  0.2765  0.3795
 1561TIP3    H126242   5.729   2.035   6.559  1.8065  0.2027 -0.3302
 1561TIP3    H226243   5.693   1.895   6.604 -0.9456  1.0748  0.4269
 1562TIP3   OH226244   0.260   1.947   1.719  0.2925  0.0154 -0.2965
 1562TIP3    H126245   0.327   1.879   1.715  0.7757  0.5210 -3.3722
 1562TIP3    H226246   0.258   1.984   1.631 -1.6319  2.3856  0.6199
 1563TIP3   OH226247   6.649   6.094   2.431 -0.4293  0.3863 -0.4806
 1563TIP3    H126248   6.626   6.029   2.498 -0.6089  0.6117 -0.3234
 1563TIP3    H226249   6.725   6.056   2.386 -1.2698 -0.4928 -1.1858
 1564TIP3   OH226250   6.008   5.910   7.352 -0.4839  0.3238  0.8184
 1564TIP3    H126251   5.965   5.979   7.403 -1.2700 -0.9071  1.8548
 1564TIP3    H226252   5.949   5.835   7.357  1.0017 -0.8957  0.8713
 1565TIP3   OH226253   3.715   4.199   7.586  0.0592 -0.5119  0.2554
 1565TIP3    H126254   3.758   4.120   7.619  0.1146 -1.2207 -1.4312
 1565TIP3    H226255   3.733   4.199   7.493  0.1720  1.5986  0.2473
 1566TIP3   OH226256   4.653   1.188   1.383  0.5670 -0.2648  0.0310
 1566TIP3    H126257   4.746   1.179   1.403  0.7158  0.4783 -0.3042
 1566TIP3    H226258   4.611   1.194   1.469  1.2248  3.0781  0.2500
 1567TIP3   OH226259   2.819   5.133   7.279  0.7430  0.4281 -0.2080
 1567TIP3    H126260   2.806   5.203   7.344  0.8659  1.1856 -0.9732
 1567TIP3    H226261   2.832   5.054   7.331 -0.2644  0.8162  0.6794
 1568TIP3   OH226262   3.095   3.218   1.678 -0.2889 -0.2428 -0.1964
 1568TIP3    H126263   3.150   3.165   1.621  0.9644 -0.9576  1.5834
 1568TIP3    H226264   3.146   3.297   1.696  0.3188 -0.9807  1.5924
 1569TIP3   OH226265   4.981   5.452   1.309  0.1623  0.3071  0.3988
 1569TIP3    H126266   4.976   5.545   1.331  0.4851  0.2193  0.8440
 1569TIP3    H226267   4.929   5.444   1.228  0.8702  1.0333 -0.1473
 1570TIP3   OH226268   6.126   6.091   8.255  0.3304  0.2118 -0.3230
 1570TIP3    H126269   6.067   6.032   8.302  0.1331  1.4466  1.0376
 1570TIP3    H226270   6.199   6.105   8.316  0.3470  1.3968 -0.5896
 1571TIP3   OH226271   3.018   1.217   7.180  0.1788  0.6368 -0.1848
 1571TIP3    H126272   3.019   1.308   7.209  1.0076  1.2177 -1.9023
 1571TIP3    H226273   2.943   1.212   7.120 -1.0758 -0.3570  1.3748
 1572TIP3   OH226274   1.791   5.716   0.623 -0.2475  0.0507  0.0103
 1572TIP3    H126275   1.764   5.807   0.625 -1.4903 -0.2977  0.0954
 1572TIP3    H226276   1.759   5.682   0.539 -1.5953 -0.7977  0.8249
 1573TIP3   OH226277   4.618   5.955   2.749  0.5097 -0.2147 -0.6414
 1573TIP3    H126278   4.620   6.036   2.699  1.5316  0.9822  1.2213
 1573TIP3    H226279   4.708   5.942   2.777 -0.1015 -0.4433  1.4106
 1574TIP3   OH226280   3.843   0.646   8.485 -0.3667 -1.3056 -0.4909
 1574TIP3    H126281   3.918   0.671   8.538  1.1159  0.7221 -3.2560
 1574TIP3    H226282   3.766   0.670   8.537  0.9432 -0.3783  1.0862
 1575TIP3   OH226283   1.965   3.438   2.294 -0.2935  0.6878  0.0766
 1575TIP3    H126284   1.913   3.373   2.340 -0.5972  1.9026  1.5350
 1575TIP3    H226285   1.989   3.502   2.362  2.3537  0.6446 -0.7048
 1576TIP3   OH226286   2.953   0.675   0.836  0.2679  0.5051 -0.2713
 1576TIP3    H126287   2.860   0.656   0.850  0.3825 -1.1237 -1.5198
 1576TIP3    H226288   2.954   0.762   0.796 -0.6847  0.6153 -0.0712
 1577TIP3   OH226289   1.885   4.970   7.411 -0.0699  0.0693 -0.2549
 1577TIP3    H126290   1.923   4.890   7.445 -3.0875 -1.5824 -0.3969
 1577TIP3    H226291   1.910   5.038   7.474  2.1016 -1.0401  0.1557
 1578TIP3   OH226292   1.382   5.777   1.333 -0.5304  0.1157 -0.1504
 1578TIP3    H126293   1.327   5.845   1.294 -0.2448  0.3204 -0.2004
 1578TIP3    H226294   1.344   5.695   1.303 -0.8011  0.2553 -0.1940
 1579TIP3   OH226295   5.306   4.950   0.452 -0.3391  0.1432  0.5038
 1579TIP3    H126296   5.329   5.013   0.520  1.0090  1.1083 -0.7928
 1579TIP3    H226297   5.215   4.971   0.429 -0.1499  1.1226  0.6285
 1580TIP3   OH226298   0.688   4.790   6.815 -0.0492  0.1024 -0.1347
 1580TIP3    H126299   0.723   4.843   6.743 -1.7492 -0.9267 -1.8398
 1580TIP3    H226300   0.677   4.852   6.887  1.2639  1.2845 -0.8974
 1581TIP3   OH226301   1.779   2.363   7.423  0.1133 -0.0955 -0.2664
 1581TIP3    H126302   1.824   2.283   7.451  1.7546  1.5992  2.4936
 1581TIP3    H226303   1.849   2.425   7.405 -1.1204  1.0326 -1.4173
 1582TIP3   OH226304   3.170   4.959   0.247 -0.2218 -0.1930 -0.0786
 1582TIP3    H126305   3.178   4.894   0.317 -0.2669 -1.8015 -1.5187
 1582TIP3    H226306   3.252   4.952   0.198 -0.3647  0.6158 -0.4524
 1583TIP3   OH226307   6.139   6.318   6.198 -0.0950  0.5087 -0.4807
 1583TIP3    H126308   6.080   6.257   6.242  0.9699 -0.4156 -0.2921
 1583TIP3    H226309   6.086   6.397   6.185 -1.0364  0.0975  0.6518
 1584TIP3   OH226310   5.092   0.428   1.609  0.0812 -0.0822 -0.0676
 1584TIP3    H126311   5.094   0.488   1.684 -1.1215 -0.8187  0.5890
 1584TIP3    H226312   5.173   0.378   1.617  0.3718  0.4306  0.2545
 1585TIP3   OH226313   2.662   5.276   2.307  0.6852 -0.1967 -0.2742
 1585TIP3    H126314   2.614   5.199   2.339  0.6517 -0.8340 -1.7794
 1585TIP3    H226315   2.611   5.351   2.338 -0.5296 -0.8319 -0.6711
 1586TIP3   OH226316   2.823   4.102   0.435  0.4455  0.3252 -0.5866
 1586TIP3    H126317   2.867   4.034   0.385 -1.5266  0.6401 -2.9551
 1586TIP3    H226318   2.738   4.064   0.457  0.3512  1.0836  0.4354
 1587TIP3   OH226319   6.740   6.536   0.434 -0.3236 -0.2198  0.3972
 1587TIP3    H126320   6.697   6.537   0.520 -4.5503  0.3771 -1.5213
 1587TIP3    H226321   6.762   6.628   0.417  0.1075 -0.2803  0.5931
 1588TIP3   OH226322   1.829   4.299   1.085  0.2863 -0.2421  0.2230
 1588TIP3    H126323   1.855   4.208   1.097  0.5974 -0.1074  0.5950
 1588TIP3    H226324   1.761   4.296   1.018  1.2067 -0.6114 -0.7139
 1589TIP3   OH226325   0.817   2.390   8.405 -0.4878 -0.1329 -0.4701
 1589TIP3    H126326   0.778   2.465   8.450 -0.7008 -0.5281  0.0079
 1589TIP3    H226327   0.842   2.425   8.319  1.5605  1.0867  0.5577
 1590TIP3   OH226328   6.072   4.651   1.620 -0.1593 -0.1083 -0.2378
 1590TIP3    H126329   6.037   4.689   1.539  0.2365  0.8065  0.0127
 1590TIP3    H226330   6.031   4.564   1.625  0.7060 -0.6751 -2.0327
 1591TIP3   OH226331   5.107   5.824   2.537 -0.1125  0.0390  0.5515
 1591TIP3    H126332   5.068   5.743   2.505 -0.6265  0.1590  0.8637
 1591TIP3    H226333   5.184   5.837   2.482 -1.5967  0.8667 -1.4352
 1592TIP3   OH226334   0.961   2.904   7.483  0.3526  0.1884 -0.5283
 1592TIP3    H126335   1.007   2.910   7.567  0.2489  1.9337 -0.5511
 1592TIP3    H226336   1.023   2.861   7.424  0.6032 -0.6306  0.3121
 1593TIP3   OH226337   4.011   1.805   7.676 -0.1942 -0.0498  0.2472
 1593TIP3    H126338   4.075   1.806   7.605  0.7540 -0.8760  1.0643
 1593TIP3    H226339   4.061   1.781   7.754 -1.2606  0.5632  1.1550
 1594TIP3   OH226340   6.338   4.739   7.801  0.3044 -0.6241  0.2980
 1594TIP3    H126341   6.374   4.738   7.890  1.6270 -2.1630 -0.2133
 1594TIP3    H226342   6.245   4.718   7.812  0.5772 -1.3828  1.2697
 1595TIP3   OH226343   4.090   1.311   8.567  0.0051  0.5459 -0.1015
 1595TIP3    H126344   4.142   1.340   8.643  0.8521  0.4674 -0.6397
 1595TIP3    H226345   4.015   1.371   8.566  0.5217  1.2179  0.1947
 1596TIP3   OH226346   0.192   1.322   7.221 -0.7178 -0.1794 -0.0884
 1596TIP3    H126347   0.105   1.351   7.248 -0.3140  0.2101  0.8464
 1596TIP3    H226348   0.247   1.333   7.299  0.0555 -0.9194 -0.4961
 1597TIP3   OH226349   2.908   5.883   7.793 -0.2615 -0.1334  0.6691
 1597TIP3    H126350   2.900   5.947   7.722 -1.2827 -1.7267 -0.7382
 1597TIP3    H226351   2.956   5.929   7.862 -0.1702  1.8273 -0.6283
 1598TIP3   OH226352   3.677   1.200   1.066 -0.0834  0.2289  0.0212
 1598TIP3    H126353   3.657   1.150   1.145  2.6648 -0.3545  0.4400
 1598TIP3    H226354   3.709   1.135   1.003  0.5303  1.0391 -0.5274
 1599TIP3   OH226355   0.912   1.371   8.125 -0.2099  0.8015 -0.0345
 1599TIP3    H126356   0.982   1.310   8.145 -2.4143 -3.0045 -2.7422
 1599TIP3    H226357   0.948   1.427   8.056  0.7176  0.0959 -0.1475
 1600TIP3   OH226358   0.780   2.735   0.178 -0.2722 -0.0823  0.7848
 1600TIP3    H126359   0.748   2.819   0.213  3.4710  2.0923 -0.4685
 1600TIP3    H226360   0.863   2.720   0.223  1.1476 -0.9286 -1.8940
 1601TIP3   OH226361   3.517   3.395   7.204 -0.4286 -0.1341 -0.0809
 1601TIP3    H126362   3.537   3.455   7.133  1.0993 -0.9917 -0.4186
 1601TIP3    H226363   3.565   3.431   7.280  0.8208 -1.0896 -0.3827
 1602TIP3   OH226364   1.694   5.464   8.507  0.4426  0.3002 -0.0043
 1602TIP3    H126365   1.658   5.530   8.447  0.1678 -0.1468 -0.3364
 1602TIP3    H226366   1.618   5.410   8.531  0.8423 -0.5224 -0.5449
 1603TIP3   OH226367   6.550   6.823   0.277  0.3884  0.4753  0.0542
 1603TIP3    H126368   6.521   6.914   0.285 -3.1371 -0.3689 -1.5569
 1603TIP3    H226369   6.488   6.773   0.329  1.9945 -1.1294  0.5357
 1604TIP3   OH226370   5.691   6.392   1.409  0.0947 -0.2110 -0.9798
 1604TIP3    H126371   5.596   6.385   1.405  0.1537 -1.1460 -0.8652
 1604TIP3    H226372   5.719   6.401   1.317 -0.1884  1.5779 -0.9335
 1605TIP3   OH226373   4.744   2.340   2.047 -0.1452  0.0203 -0.2527
 1605TIP3    H126374   4.767   2.340   1.954  1.0758  0.1679  0.0263
 1605TIP3    H226375   4.794   2.267   2.084  1.1692  1.3033  0.6614
 1606TIP3   OH226376   0.359   5.646   0.910  0.0057 -0.2141  0.3556
 1606TIP3    H126377   0.304   5.586   0.859 -0.0537 -0.3782  0.6109
 1606TIP3    H226378   0.407   5.696   0.844 -0.6934  0.1620  0.1173
 1607TIP3   OH226379   6.615   6.563   1.116 -0.2802  0.0132  0.1751
 1607TIP3    H126380   6.640   6.648   1.080  1.0087 -0.4135  0.0015
 1607TIP3    H226381   6.558   6.585   1.190  0.7197  1.0819  0.6748
 1608TIP3   OH226382   5.142   5.295   0.763  0.3391 -0.5655  0.3286
 1608TIP3    H126383   5.160   5.388   0.771 -2.2822  0.2417 -1.7916
 1608TIP3    H226384   5.093   5.273   0.843  0.5399 -0.0029  0.6093
 1609TIP3   OH226385   3.449   5.858   1.800 -1.0109 -0.0502 -1.0221
 1609TIP3    H126386   3.392   5.884   1.872  1.7451  2.4335  0.5066
 1609TIP3    H226387   3.471   5.766   1.818 -0.4996  0.4630  1.3257
 1610TIP3   OH226388   0.734   0.160   0.751 -0.0336 -0.1171  0.1738
 1610TIP3    H126389   0.745   0.186   0.843 -0.9252  2.9875 -0.4651
 1610TIP3    H226390   0.644   0.185   0.731 -0.5890 -2.8064 -1.0171
 1611TIP3   OH226391   2.634   2.537   1.596  0.2976  0.1832 -0.2123
 1611TIP3    H126392   2.693   2.462   1.597  0.4760  0.3205  0.9001
 1611TIP3    H226393   2.682   2.606   1.643  0.2035  1.0500 -1.3379
 1612TIP3   OH226394   6.138   0.772   1.822 -0.9334  0.0186 -0.3925
 1612TIP3    H126395   6.092   0.826   1.886  1.0988  1.5586 -0.1109
 1612TIP3    H226396   6.137   0.684   1.859 -0.0302  0.8270  1.6798
 1613TIP3   OH226397   0.139   4.130   7.335 -0.3986 -0.0069 -0.0446
 1613TIP3    H126398   0.166   4.220   7.318 -0.5875  0.2671  1.0307
 1613TIP3    H226399   0.061   4.118   7.281 -0.5523  0.5814  0.0354
 1614TIP3   OH226400   2.034   4.913   0.079  0.4668 -0.3716  0.1712
 1614TIP3    H126401   2.044   4.828   0.036  1.2825  0.0486 -0.4808
 1614TIP3    H226402   2.020   4.975   0.008 -0.6026 -0.0066  0.6727
 1615TIP3   OH226403   5.203   4.181   7.209 -0.0842  0.2598 -0.9174
 1615TIP3    H126404   5.193   4.124   7.134  0.2767  1.1721 -1.6769
 1615TIP3    H226405   5.258   4.132   7.270 -1.3541 -0.9680 -0.7096
 1616TIP3   OH226406   5.376   1.537   0.070 -0.3990  0.0245 -0.8467
 1616TIP3    H126407   5.301   1.591   0.044  0.9992  3.0977  0.9254
 1616TIP3    H226408   5.345   1.486   0.144 -1.6189 -1.4117 -2.2685
 1617TIP3   OH226409   3.757   2.070   6.766  0.3528  0.3655 -0.2389
 1617TIP3    H126410   3.662   2.073   6.763  0.3624  1.0267  0.0397
 1617TIP3    H226411   3.784   2.072   6.674  0.0530 -2.6059 -0.5032
 1618TIP3   OH226412   1.598   2.981   1.042  0.2334 -0.1424  0.1149
 1618TIP3    H126413   1.569   3.023   1.122  0.8201  1.5762 -0.5289
 1618TIP3    H226414   1.518   2.970   0.990 -0.0199 -0.4890  0.5681
 1619TIP3   OH226415   3.927   5.559   7.404 -0.2782 -0.1632 -0.1919
 1619TIP3    H126416   3.867   5.613   7.456  1.8905  0.3058  1.9849
 1619TIP3    H226417   3.979   5.622   7.354 -0.7987 -0.5139 -1.2029
 1620TIP3   OH226418   0.833   2.150   1.517  0.0767 -0.1706  0.2569
 1620TIP3    H126419   0.787   2.080   1.563 -0.3333 -0.6698 -0.8694
 1620TIP3    H226420   0.808   2.138   1.425  0.1656  1.3312  0.0203
 1621TIP3   OH226421   1.194   5.728   7.161 -0.2198  0.0405  0.4119
 1621TIP3    H126422   1.251   5.660   7.126 -0.5661 -0.1858  0.2801
 1621TIP3    H226423   1.133   5.747   7.089 -0.0536  0.5731  0.4056
 1622TIP3   OH226424   3.233   1.578   2.331 -0.4350  0.4101  0.2581
 1622TIP3    H126425   3.239   1.610   2.421 -0.0456  0.1160  0.3417
 1622TIP3    H226426   3.252   1.484   2.338 -1.2705  0.2091 -0.0167
 1623TIP3   OH226427   4.792   5.627   1.928 -0.4867 -0.0762 -0.2046
 1623TIP3    H126428   4.865   5.571   1.955 -0.0796  0.9646  0.9766
 1623TIP3    H226429   4.835   5.706   1.895 -1.0692  0.5952  0.6066
 1624TIP3   OH226430   3.130   0.546   8.606  0.1476  0.3285  0.7195
 1624TIP3    H126431   3.091   0.614   8.551  0.5810 -1.3665 -1.8356
 1624TIP3    H226432   3.090   0.465   8.577  1.4737 -0.8201  1.9483
 1625TIP3   OH226433   0.216   2.156   1.960  0.4129 -0.4040 -0.7261
 1625TIP3    H126434   0.309   2.153   1.983  0.4354 -0.0273 -0.7482
 1625TIP3    H226435   0.179   2.077   1.997  0.2705  0.5837  1.3957
 1626TIP3   OH226436   6.417   4.064   0.965 -0.4810  0.3006  0.1428
 1626TIP3    H126437   6.356   4.101   1.029  0.5767  1.8553  0.3112
 1626TIP3    H226438   6.486   4.130   0.957 -0.7915  0.4040 -2.9410
 1627TIP3   OH226439   5.162   3.037   7.222  0.1336  0.1138 -0.0042
 1627TIP3    H126440   5.124   3.086   7.295  0.4197 -0.9017  0.8582
 1627TIP3    H226441   5.114   3.068   7.145  0.0013  1.3908  0.5660
 1628TIP3   OH226442   2.847   1.586   2.479 -0.0076 -0.0672 -0.2484
 1628TIP3    H126443   2.811   1.567   2.393 -1.1336  1.7789 -0.2376
 1628TIP3    H226444   2.771   1.589   2.538  0.1294  3.0161 -0.0606
 1629TIP3   OH226445   6.087   3.902   8.446  0.1853  0.2255 -0.4973
 1629TIP3    H126446   6.038   3.873   8.523  2.3858 -1.0029  0.5435
 1629TIP3    H226447   6.178   3.906   8.476  1.2343 -0.9195 -3.1890
 1630TIP3   OH226448   4.696   6.325   6.895 -0.4303 -0.6554 -0.2857
 1630TIP3    H126449   4.701   6.375   6.814 -4.1417  0.1251 -0.2290
 1630TIP3    H226450   4.635   6.253   6.876  1.0721 -2.3887  0.9920
 1631TIP3   OH226451   5.293   0.730   8.112  0.4829 -0.0418 -0.1858
 1631TIP3    H126452   5.315   0.646   8.071 -0.0341  0.2130 -1.0106
 1631TIP3    H226453   5.227   0.708   8.178  1.7823 -0.5462  1.0221
 1632TIP3   OH226454   1.593   3.136   7.305 -0.3865 -0.0955 -0.0685
 1632TIP3    H126455   1.537   3.081   7.251  0.5657  1.0654 -2.3825
 1632TIP3    H226456   1.595   3.220   7.260  0.2843  1.0262  1.9353
 1633TIP3   OH226457   1.769   0.787   0.769  0.0914  0.7140  0.6182
 1633TIP3    H126458   1.683   0.788   0.727 -0.2625 -1.4539  1.1472
 1633TIP3    H226459   1.831   0.785   0.695 -0.2575  2.3726  0.2368
 1634TIP3   OH226460   0.361   0.403   7.088  0.1679 -0.0084 -0.3662
 1634TIP3    H126461   0.316   0.319   7.075 -0.8487  0.6118 -0.9483
 1634TIP3    H226462   0.297   0.469   7.064  1.6459  0.9162 -2.0742
 1635TIP3   OH226463   1.249   0.325   0.463  0.0585  0.3416  0.0975
 1635TIP3    H126464   1.271   0.250   0.408 -0.7543  0.0676  0.1253
 1635TIP3    H226465   1.214   0.389   0.402 -0.3393  0.2448  0.2214
 1636TIP3   OH226466   4.422   6.152   0.897  0.2646 -0.0975 -0.5343
 1636TIP3    H126467   4.404   6.118   0.809 -0.3608  0.5327 -0.6536
 1636TIP3    H226468   4.366   6.099   0.954 -0.8801  0.8452 -0.7444
 1637TIP3   OH226469   1.521   5.282   8.228  0.2751 -0.8793 -0.7816
 1637TIP3    H126470   1.506   5.241   8.314 -0.6528  1.6559  0.3726
 1637TIP3    H226471   1.436   5.314   8.202  1.0576  0.9121 -1.2462
 1638TIP3   OH226472   6.306   1.462   0.542  0.3331 -0.4208  0.0104
 1638TIP3    H126473   6.305   1.556   0.556  1.2288 -0.5926  1.5319
 1638TIP3    H226474   6.399   1.438   0.546  0.1025 -1.3836 -0.1799
 1639TIP3   OH226475   2.071   4.931   7.924 -0.3461 -0.0069 -0.0700
 1639TIP3    H126476   2.115   5.012   7.896  1.2856 -0.1030  1.9625
 1639TIP3    H226477   2.143   4.871   7.945 -1.5302 -1.8403 -1.0079
 1640TIP3   OH226478   1.132   2.176   7.659  0.1009  0.1836 -0.2033
 1640TIP3    H126479   1.077   2.254   7.661  0.3372  0.3922 -1.4001
 1640TIP3    H226480   1.079   2.110   7.615 -0.8810 -0.9859  2.5447
 1641TIP3   OH226481   6.688   4.898   0.658  0.3393 -0.2364  0.5029
 1641TIP3    H126482   6.734   4.977   0.689  1.1721 -0.2340 -0.6787
 1641TIP3    H226483   6.611   4.893   0.714 -1.0643  2.8071 -0.8919
 1642TIP3   OH226484   5.485   0.318   0.146  0.7382 -0.0727  0.2398
 1642TIP3    H126485   5.514   0.410   0.150 -0.0668  0.1727  0.4523
 1642TIP3    H226486   5.500   0.293   0.054 -0.0205  0.6040 -0.0838
 1643TIP3   OH226487   3.950   2.138   0.780  0.5504 -0.2470 -0.0710
 1643TIP3    H126488   3.968   2.223   0.820  0.6709 -0.8319  1.1608
 1643TIP3    H226489   3.854   2.134   0.775  0.3202 -1.3003  2.8818
 1644TIP3   OH226490   5.339   4.040   7.970 -0.3475  0.4784  0.3480
 1644TIP3    H126491   5.340   4.111   7.907 -0.5687  1.7029  1.6767
 1644TIP3    H226492   5.248   4.033   7.998 -0.0192  1.0426  1.6670
 1645TIP3   OH226493   5.438   5.996   1.584  0.0475  0.3353 -0.1814
 1645TIP3    H126494   5.440   5.944   1.665 -0.5594  0.5680 -0.0057
 1645TIP3    H226495   5.503   5.955   1.527 -0.8014 -0.9665 -0.2573
 1646TIP3   OH226496   1.575   3.344   8.097  0.0403 -0.4969  0.2434
 1646TIP3    H126497   1.650   3.394   8.128 -0.4418 -0.7254  1.8692
 1646TIP3    H226498   1.508   3.411   8.079  0.0119 -0.4165  0.6323
 1647TIP3   OH226499   5.463   3.347   0.225  0.5229 -0.3233  0.5125
 1647TIP3    H126500   5.416   3.267   0.202  0.3787  0.3567 -1.7465
 1647TIP3    H226501   5.555   3.321   0.224  0.4000 -0.9967  2.2561
 1648TIP3   OH226502   2.948   4.732   1.468 -0.9413  0.0500 -0.0409
 1648TIP3    H126503   3.015   4.749   1.535  0.2380 -0.1863 -1.1195
 1648TIP3    H226504   2.866   4.759   1.509 -0.0587  1.4487  0.9180
 1649TIP3   OH226505   1.107   2.084   1.343  0.1773 -0.3156  0.1928
 1649TIP3    H126506   1.182   2.030   1.366 -0.8125 -0.8636  2.4634
 1649TIP3    H226507   1.051   2.026   1.290  1.0252 -0.1192 -0.9367
 1650TIP3   OH226508   3.550   1.284   8.260 -0.0958  0.0058  0.4489
 1650TIP3    H126509   3.461   1.270   8.292 -0.8878 -0.3987 -1.7622
 1650TIP3    H226510   3.606   1.243   8.326 -1.5364 -0.0158  1.7152
 1651TIP3   OH226511   6.619   0.500   1.144 -0.6186  0.4273 -0.1559
 1651TIP3    H126512   6.634   0.406   1.151  1.1811  0.7287  0.5277
 1651TIP3    H226513   6.619   0.517   1.049  3.9808  0.3527 -0.3842
 1652TIP3   OH226514   4.293   4.281   8.335 -0.0645  0.1424  0.0988
 1652TIP3    H126515   4.348   4.242   8.267 -0.3465  2.6209 -1.6369
 1652TIP3    H226516   4.204   4.277   8.300 -0.6153 -0.8932  1.5014
 1653TIP3   OH226517   4.873   3.556   6.667  0.6334 -0.2589 -0.6000
 1653TIP3    H126518   4.835   3.503   6.598 -0.8255  0.8418 -0.6902
 1653TIP3    H226519   4.831   3.526   6.748  1.7310 -0.9844 -0.2745
 1654TIP3   OH226520   6.597   5.662   0.055 -0.2742  0.4820  0.5226
 1654TIP3    H126521   6.507   5.651   0.022  0.3395  0.0710 -1.1285
 1654TIP3    H226522   6.638   5.577   0.042  0.3796  0.6825  1.2076
 1655TIP3   OH226523   0.605   4.896   0.356 -0.0392  0.1354  0.4466
 1655TIP3    H126524   0.519   4.906   0.398 -0.4304  1.1573 -0.5704
 1655TIP3    H226525   0.667   4.927   0.423 -0.7376  2.9203 -0.0641
 1656TIP3   OH226526   6.699   6.008   1.109 -0.1813 -0.7588 -0.0523
 1656TIP3    H126527   6.690   6.094   1.069  0.1253 -0.2075  1.0224
 1656TIP3    H226528   6.710   5.948   1.035  1.8709  0.3938 -0.7791
 1657TIP3   OH226529   2.471   3.702   8.593 -0.0750  0.4492 -0.1372
 1657TIP3    H126530   2.552   3.705   8.644  0.3127 -0.1395 -0.7145
 1657TIP3    H226531   2.462   3.611   8.566 -0.7376  0.5822 -0.3954
 1658TIP3   OH226532   4.604   0.308   0.239 -0.4785 -0.1231 -0.4088
 1658TIP3    H126533   4.656   0.234   0.208 -1.0477 -1.2316  1.1674
 1658TIP3    H226534   4.663   0.357   0.295 -1.0171 -1.3188  1.2886
 1659TIP3   OH226535   0.052   0.067   0.825 -0.7767 -0.2666 -0.2044
 1659TIP3    H126536   0.015   0.125   0.758 -0.4937  0.6116  0.3791
 1659TIP3    H226537   0.146   0.065   0.807 -0.8333 -0.8611 -0.4541
 1660TIP3   OH226538   2.104   1.941   7.913 -0.0114 -0.0402 -0.0515
 1660TIP3    H126539   2.024   1.990   7.932  0.3230  0.5915 -0.2501
 1660TIP3    H226540   2.172   1.988   7.960  0.4583  0.2284 -0.9728
 1661TIP3   OH226541   2.151   5.226   6.496  0.0458 -0.1087  0.0748
 1661TIP3    H126542   2.137   5.321   6.492  0.4454 -0.0688 -0.5170
 1661TIP3    H226543   2.242   5.216   6.522 -0.6276 -0.3620  2.6675
 1662TIP3   OH226544   6.732   5.611   1.599 -0.4692 -0.2191  0.2859
 1662TIP3    H126545   6.663   5.576   1.656  1.4362 -1.0149  2.2397
 1662TIP3    H226546   6.726   5.706   1.609 -0.6856 -0.3230  1.2154
 1663TIP3   OH226547   5.339   3.561   7.739  0.3064 -0.1530  0.5515
 1663TIP3    H126548   5.257   3.588   7.780 -0.0367 -0.3102 -0.0314
 1663TIP3    H226549   5.401   3.630   7.763 -0.1979  0.3932  0.3063
 1664TIP3   OH226550   1.225   0.597   7.612  0.4198 -0.1591  0.0935
 1664TIP3    H126551   1.231   0.684   7.572 -0.3976  0.0751  0.4413
 1664TIP3    H226552   1.139   0.597   7.655  1.5406 -0.1074  2.4696
 1665TIP3   OH226553   2.081   5.755   2.190  0.3539  0.3222 -0.1301
 1665TIP3    H126554   2.028   5.823   2.231 -3.8889 -2.4372 -0.4834
 1665TIP3    H226555   2.070   5.768   2.096 -0.2799 -0.6693 -0.2021
 1666TIP3   OH226556   6.207   5.321   7.164 -0.1224 -0.4057  0.5164
 1666TIP3    H126557   6.285   5.364   7.131  0.0748 -0.0456  1.4246
 1666TIP3    H226558   6.234   5.231   7.183  0.2564 -0.1098  1.4393
 1667TIP3   OH226559   1.939   6.588   8.521 -0.3845 -0.1945  0.1385
 1667TIP3    H126560   1.952   6.540   8.602 -1.0129 -1.7552 -0.6544
 1667TIP3    H226561   1.987   6.671   8.535 -0.9591 -0.1583  2.2827
 1668TIP3   OH226562   2.993   6.473   7.820 -0.2402  0.4859  0.0973
 1668TIP3    H126563   2.908   6.431   7.831 -0.3564  0.8572  0.5979
 1668TIP3    H226564   3.003   6.482   7.725 -1.2637  1.4813  0.0652
 1669TIP3   OH226565   3.724   6.825   7.872  0.0997 -0.8489 -0.0457
 1669TIP3    H126566   3.730   6.757   7.805  0.8104 -1.8596  1.0052
 1669TIP3    H226567   3.681   6.782   7.946 -2.2916  0.7260 -0.3879
 1670TIP3   OH226568   6.343   2.336   7.440 -0.3313  0.6452 -0.2486
 1670TIP3    H126569   6.343   2.346   7.536 -0.3765  0.2785 -0.2089
 1670TIP3    H226570   6.332   2.242   7.426  1.1922  0.4981 -0.5935
 1671TIP3   OH226571   2.022   5.667   0.751 -0.1636  0.1258 -0.3406
 1671TIP3    H126572   1.979   5.707   0.827 -2.1507  0.5465 -1.6184
 1671TIP3    H226573   1.960   5.679   0.680  1.6348 -0.2819 -2.0526
 1672TIP3   OH226574   3.449   2.481   0.935  0.3174  0.2722  0.2307
 1672TIP3    H126575   3.448   2.403   0.990 -1.4343 -0.5994 -0.9676
 1672TIP3    H226576   3.542   2.500   0.923  0.8455 -2.3870 -0.4964
 1673TIP3   OH226577   6.101   2.054   8.049  0.0984  0.3352  0.3591
 1673TIP3    H126578   6.151   2.134   8.031  1.5151 -0.6905 -0.4889
 1673TIP3    H226579   6.114   2.000   7.971  0.1216 -1.1929  1.3760
 1674TIP3   OH226580   3.909   0.729   7.163  0.4997 -0.2500  0.1640
 1674TIP3    H126581   3.979   0.791   7.180  0.2892 -0.3844  1.6253
 1674TIP3    H226582   3.828   0.779   7.173  0.2830 -0.9525  2.5503
 1675TIP3   OH226583   2.768   2.644   8.485 -0.0522 -0.1984  0.2299
 1675TIP3    H126584   2.799   2.718   8.433 -0.0432 -0.6532 -0.4194
 1675TIP3    H226585   2.838   2.580   8.481 -0.4783 -0.6551 -0.0692
 1676TIP3   OH226586   4.249   2.346   6.891 -0.8593 -0.2182  0.1990
 1676TIP3    H126587   4.289   2.424   6.929  1.1322 -1.0064 -0.1535
 1676TIP3    H226588   4.195   2.309   6.962 -1.7635  1.3881  0.3899
 1677TIP3   OH226589   0.855   3.193   1.232 -0.5836  0.0113  0.3918
 1677TIP3    H126590   0.793   3.206   1.304 -1.7997 -0.1150 -0.6010
 1677TIP3    H226591   0.890   3.280   1.214 -0.7448  0.1443  0.7174
 1678TIP3   OH226592   6.350   5.566   7.847  0.1872  0.1578  0.1733
 1678TIP3    H126593   6.332   5.591   7.938 -1.4391  2.0468 -0.5894
 1678TIP3    H226594   6.410   5.633   7.815 -0.0707  0.1016 -0.4443
 1679TIP3   OH226595   6.755   6.147   8.072  0.6255  0.3917 -0.0503
 1679TIP3    H126596   6.794   6.065   8.102  1.4396  1.3417  1.6416
 1679TIP3    H226597   6.785   6.156   7.981  2.0106 -0.3148  0.3150
 1680TIP3   OH226598   5.480   3.992   8.503  0.1660  0.2551  0.4649
 1680TIP3    H126599   5.488   4.074   8.553  0.5343  0.0583  0.7263
 1680TIP3    H226600   5.485   3.923   8.569  2.2963 -0.0796  0.0238
 1681TIP3   OH226601   0.712   1.075   1.792 -0.3619 -0.1554  0.3545
 1681TIP3    H126602   0.678   1.163   1.776 -0.8826 -0.4103  0.0355
 1681TIP3    H226603   0.634   1.022   1.810 -0.0459 -0.5339  0.6230
 1682TIP3   OH226604   0.426   6.428   0.665 -0.4085  0.1842  0.2454
 1682TIP3    H126605   0.476   6.374   0.727  0.1987  0.0280 -0.3638
 1682TIP3    H226606   0.481   6.505   0.652 -0.0737 -0.2142 -0.8059
 1683TIP3   OH226607   1.273   5.366   8.157 -0.7075 -0.4578 -0.3629
 1683TIP3    H126608   1.244   5.445   8.110 -2.1503 -0.3112  0.7136
 1683TIP3    H226609   1.238   5.294   8.105 -0.4262 -0.3700 -0.6828
 1684TIP3   OH226610   2.075   3.330   7.186  0.4342 -0.1552 -0.0565
 1684TIP3    H126611   2.072   3.259   7.122  0.6371  1.3169 -1.7772
 1684TIP3    H226612   2.067   3.410   7.134 -1.8363  1.0865  1.9507
 1685TIP3   OH226613   1.117   1.594   1.089 -0.5940  0.0977  0.0397
 1685TIP3    H126614   1.030   1.585   1.126 -1.4326  0.3070 -1.7847
 1685TIP3    H226615   1.175   1.597   1.166 -2.1261 -0.3829  1.2765
 1686TIP3   OH226616   5.738   5.787   7.632 -0.5266 -0.0702  0.0253
 1686TIP3    H126617   5.762   5.856   7.694 -0.3693  0.1638 -0.2908
 1686TIP3    H226618   5.821   5.743   7.613 -0.7048 -0.6689  0.6059
 1687TIP3   OH226619   2.463   2.028   7.171  0.1012 -0.1048  0.0352
 1687TIP3    H126620   2.390   2.087   7.152 -1.0165 -0.9629  1.4232
 1687TIP3    H226621   2.449   2.002   7.262  1.8578 -0.7315  0.1658
 1688TIP3   OH226622   6.337   1.844   8.378  0.5866 -0.0617 -0.2018
 1688TIP3    H126623   6.351   1.881   8.465 -1.3513 -0.1462  0.1796
 1688TIP3    H226624   6.382   1.905   8.319  0.1736  1.1466  0.6870
 1689TIP3   OH226625   1.783   4.328   7.742  0.4451 -0.3744  0.5010
 1689TIP3    H126626   1.809   4.240   7.713 -0.2866 -0.6248  0.5920
 1689TIP3    H226627   1.688   4.325   7.744  0.3797  0.7546 -0.5139
 1690TIP3   OH226628   6.783   3.835   1.619 -0.1146  0.5144  0.8331
 1690TIP3    H126629   6.734   3.763   1.659 -0.9764 -0.3175 -1.5096
 1690TIP3    H226630   6.719   3.907   1.612  0.7096  1.5484  3.0554
 1691TIP3   OH226631   4.388   4.949   1.143 -0.2486 -0.1109 -0.0586
 1691TIP3    H126632   4.316   4.943   1.206 -0.6200  0.9137 -0.3679
 1691TIP3    H226633   4.361   5.019   1.083  0.1165 -1.0494 -1.3403
 1692TIP3   OH226634   4.217   5.274   0.184 -0.1877  0.0486  0.0236
 1692TIP3    H126635   4.198   5.188   0.223  2.7224 -0.6121  0.1813
 1692TIP3    H226636   4.205   5.261   0.090  1.1662 -0.8655 -0.0524
 1693TIP3   OH226637   2.104   3.175   6.948  0.1393  0.4563 -0.3939
 1693TIP3    H126638   2.067   3.092   6.918  2.5782 -1.1831  0.8071
 1693TIP3    H226639   2.170   3.196   6.882 -0.2120  1.2668 -0.4921
 1694TIP3   OH226640   4.851   3.268   7.228 -0.3754  0.1470 -0.0318
 1694TIP3    H126641   4.883   3.283   7.317  1.2948 -0.7516 -0.4445
 1694TIP3    H226642   4.878   3.179   7.207 -2.1682 -0.2547 -0.8841
 1695TIP3   OH226643   4.226   1.409   2.204 -0.2338  0.6083  0.5228
 1695TIP3    H126644   4.291   1.380   2.140 -1.4294  0.5623 -0.6929
 1695TIP3    H226645   4.264   1.384   2.289  0.6991 -0.6558 -0.2375
 1696TIP3   OH226646   4.912   4.129   0.529  0.0775 -0.6210  0.2826
 1696TIP3    H126647   4.875   4.058   0.581  2.0852 -1.1612  1.0798
 1696TIP3    H226648   4.992   4.092   0.491  0.5798  0.8871 -0.2061
 1697TIP3   OH226649   5.809   0.449   0.419  0.1970 -0.0223  0.2821
 1697TIP3    H126650   5.731   0.505   0.427 -1.3357 -1.8738 -0.7470
 1697TIP3    H226651   5.784   0.368   0.464  1.5922 -0.6077  0.0386
 1698TIP3   OH226652   0.992   1.637   7.097 -0.4958  0.0529 -0.1376
 1698TIP3    H126653   1.036   1.561   7.059 -0.0393 -0.5787  1.5629
 1698TIP3    H226654   1.063   1.696   7.123 -0.7532  0.1609  0.3321
 1699TIP3   OH226655   3.159   3.331   1.240 -0.1439  0.4575 -0.8919
 1699TIP3    H126656   3.251   3.310   1.232  0.1009  1.7325 -1.7915
 1699TIP3    H226657   3.139   3.385   1.163 -1.6438  0.1804 -0.7424
 1700TIP3   OH226658   4.883   6.175   0.638 -0.2949  0.3268 -0.2159
 1700TIP3    H126659   4.815   6.111   0.617 -1.9328  1.1087  2.2022
 1700TIP3    H226660   4.926   6.193   0.555 -0.7217 -2.7824 -1.2529
 1701TIP3   OH226661   3.315   0.618   0.728  0.2084 -0.0572  0.1568
 1701TIP3    H126662   3.259   0.544   0.750  0.8414 -0.1279  1.6003
 1701TIP3    H226663   3.404   0.586   0.741  0.4950  0.9616  0.8282
 1702TIP3   OH226664   2.331   1.288   2.642  0.0575  0.1002 -0.5014
 1702TIP3    H126665   2.417   1.284   2.601  1.0784  0.5726  1.4793
 1702TIP3    H226666   2.332   1.371   2.690 -0.7900 -0.7579  1.0388
 1703TIP3   OH226667   5.251   1.789   0.899 -0.6389  0.1658 -0.1615
 1703TIP3    H126668   5.282   1.710   0.943 -0.9735  0.9198  1.5304
 1703TIP3    H226669   5.164   1.767   0.866 -0.2376 -0.5271 -0.7699
 1704TIP3   OH226670   2.925   0.583   6.925 -0.8410 -0.4209 -0.5444
 1704TIP3    H126671   3.015   0.614   6.937 -0.8953 -0.4145 -0.1438
 1704TIP3    H226672   2.912   0.521   6.997 -1.9797  1.3827  0.8976
 1705TIP3   OH226673   4.793   2.069   6.718 -0.0446 -1.1989  0.5584
 1705TIP3    H126674   4.880   2.102   6.740  0.4942 -1.5524 -0.9104
 1705TIP3    H226675   4.803   2.028   6.632 -1.7385 -0.9383  0.1850
 1706TIP3   OH226676   0.175   1.574   1.119 -0.2555 -0.0196  0.2840
 1706TIP3    H126677   0.103   1.636   1.105  0.4401  0.7364 -0.0361
 1706TIP3    H226678   0.136   1.488   1.106 -1.2117  0.3565  0.5919
 1707TIP3   OH226679   2.585   5.262   1.574 -0.4468  0.5554  0.1763
 1707TIP3    H126680   2.649   5.258   1.645 -0.8486 -0.7180  0.4921
 1707TIP3    H226681   2.638   5.275   1.495  0.3850 -1.7415  0.2647
 1708TIP3   OH226682   3.789   6.701   0.538 -0.5862 -0.6561  0.5605
 1708TIP3    H126683   3.734   6.773   0.507 -0.5949 -1.2661 -0.9277
 1708TIP3    H226684   3.873   6.742   0.558 -1.1199  0.0415  1.4296
 1709TIP3   OH226685   4.182   0.106   8.266  0.5050  0.5232  0.0241
 1709TIP3    H126686   4.206   0.167   8.336  1.0763  0.3209  0.0036
 1709TIP3    H226687   4.247   0.036   8.270 -0.6828 -0.5759  0.6423
 1710TIP3   OH226688   5.814   2.565   7.847  0.5276 -0.7742  0.0626
 1710TIP3    H126689   5.742   2.561   7.784  0.9083  1.1162 -0.5543
 1710TIP3    H226690   5.893   2.571   7.793  0.8179  1.4935  0.6413
 1711TIP3   OH226691   6.885   5.607   6.410  0.3523 -0.2130 -0.6535
 1711TIP3    H126692   6.974   5.575   6.422  0.1459 -0.6935 -0.3828
 1711TIP3    H226693   6.884   5.691   6.455  0.8051  0.0276 -1.0802
 1712TIP3   OH226694   0.510   4.778   0.801 -0.2770 -0.1469 -0.4953
 1712TIP3    H126695   0.434   4.837   0.796  0.6750  1.1924  0.3969
 1712TIP3    H226696   0.522   4.761   0.894 -0.9500 -2.3766 -0.7571
 1713TIP3   OH226697   3.905   0.277   7.306  0.7856 -0.8735  0.1945
 1713TIP3    H126698   3.982   0.270   7.362  1.9766 -0.0244 -1.2552
 1713TIP3    H226699   3.849   0.342   7.348  1.9306  0.1869  0.1222
 1714TIP3   OH226700   2.032   6.809   6.630  0.2973  0.4560 -0.1946
 1714TIP3    H126701   1.975   6.885   6.638 -1.4552 -1.0380  3.1942
 1714TIP3    H226702   2.104   6.826   6.691  0.7148  0.0202 -0.5480
 1715TIP3   OH226703   4.227   2.907   7.961 -0.3652 -0.2418 -0.2422
 1715TIP3    H126704   4.166   2.835   7.974 -0.8930  0.3730  0.8534
 1715TIP3    H226705   4.172   2.982   7.938 -0.0269  0.2592  0.4988
 1716TIP3   OH226706   1.124   3.220   0.579 -0.1748  0.0067  0.5774
 1716TIP3    H126707   1.198   3.172   0.542 -0.5584 -0.1759  0.0336
 1716TIP3    H226708   1.080   3.156   0.635 -0.6424 -0.2651 -0.0884
 1717TIP3   OH226709   0.547   3.156   0.874 -0.0707  0.3943 -0.6528
 1717TIP3    H126710   0.470   3.210   0.892  0.0718  1.2726 -2.4846
 1717TIP3    H226711   0.544   3.140   0.780  0.2746 -2.2544 -0.3076
 1718TIP3   OH226712   2.475   6.339   0.273  0.1797  1.1111 -0.4637
 1718TIP3    H126713   2.464   6.412   0.333  0.7089  0.3329  0.6073
 1718TIP3    H226714   2.398   6.284   0.286  1.1790 -0.0345  0.9347
 1719TIP3   OH226715   0.948   2.383   1.026  0.3886 -0.2844 -0.6182
 1719TIP3    H126716   0.968   2.374   1.119  1.6835 -0.3912 -0.8926
 1719TIP3    H226717   1.033   2.389   0.983 -0.1904 -0.0736 -1.7886
 1720TIP3   OH226718   6.665   3.895   2.111  0.5636  0.2425 -0.0580
 1720TIP3    H126719   6.578   3.933   2.126  0.8047  0.7364  0.0941
 1720TIP3    H226720   6.721   3.970   2.092  0.6867 -0.1717 -1.4982
 1721TIP3   OH226721   1.558   0.833   8.256  0.1039 -0.5454  0.1867
 1721TIP3    H126722   1.590   0.863   8.341  0.8230 -1.1440  0.1338
 1721TIP3    H226723   1.496   0.763   8.278 -1.2823  0.6685  0.2932
 1722TIP3   OH226724   1.400   1.237   0.703  0.3999  0.7979 -0.0622
 1722TIP3    H126725   1.373   1.147   0.724 -0.0675  1.0693  0.5334
 1722TIP3    H226726   1.384   1.286   0.784  1.3737  1.2645 -0.1424
 1723TIP3   OH226727   1.697   5.316   2.023 -0.2867  0.6164 -0.2561
 1723TIP3    H126728   1.670   5.269   2.102 -0.2987  0.7754 -0.1648
 1723TIP3    H226729   1.656   5.402   2.031  2.6601  2.0245  1.4283
 1724TIP3   OH226730   6.248   6.025   1.334 -0.0586  0.7277  0.7244
 1724TIP3    H126731   6.203   6.051   1.253  1.0309  1.4608  0.3320
 1724TIP3    H226732   6.183   6.040   1.403 -0.5598  1.3835  0.1299
 1725TIP3   OH226733   0.011   4.065   8.090 -0.1606 -0.1041  0.0050
 1725TIP3    H126734  -0.060   4.022   8.042 -1.0621  0.7477  0.5251
 1725TIP3    H226735  -0.017   4.061   8.182  1.3461 -1.3680  0.4558
 1726TIP3   OH226736   3.720   4.335   2.405 -0.4133  0.2670  0.7918
 1726TIP3    H126737   3.759   4.369   2.486 -0.4103 -0.4970  1.1230
 1726TIP3    H226738   3.762   4.250   2.392  0.3565  0.8330 -0.6009
 1727TIP3   OH226739   5.766   2.787   7.443  0.0110 -0.4733 -0.2123
 1727TIP3    H126740   5.737   2.822   7.359 -0.8560 -0.5221  0.0537
 1727TIP3    H226741   5.857   2.816   7.451 -0.2984  0.6621 -0.5664
 1728TIP3   OH226742   3.082   1.513   7.794 -0.0445 -0.1025 -0.6105
 1728TIP3    H126743   3.086   1.609   7.798 -2.3340  0.0694 -1.0490
 1728TIP3    H226744   3.173   1.485   7.793  0.7059  2.1480 -1.8817
 1729TIP3   OH226745   2.995   0.686   8.437  0.6401 -0.2347  0.3936
 1729TIP3    H126746   2.966   0.776   8.454  1.8650 -0.0731  1.8992
 1729TIP3    H226747   2.922   0.645   8.392 -0.1144  1.3994  0.0622
 1730TIP3   OH226748   3.595   4.399   2.177 -0.4928  0.8304 -1.0855
 1730TIP3    H126749   3.625   4.384   2.266 -1.4038 -0.4979 -0.9629
 1730TIP3    H226750   3.672   4.432   2.130 -0.3357  2.8124  0.4600
 1731TIP3   OH226751   1.560   4.566   1.527 -0.4644 -0.1509  0.3892
 1731TIP3    H126752   1.533   4.650   1.564  0.0600 -1.3055  3.6504
 1731TIP3    H226753   1.650   4.581   1.498 -0.2180  0.3166  1.3545
 1732TIP3   OH226754   1.776   0.382   0.970  0.1139 -0.7519 -0.8893
 1732TIP3    H126755   1.731   0.372   1.053  0.3950 -3.0028 -0.9590
 1732TIP3    H226756   1.852   0.324   0.976 -0.3443 -1.6558 -3.0391
 1733TIP3   OH226757   5.761   1.657   1.747 -0.7870 -0.4536  0.2739
 1733TIP3    H126758   5.675   1.627   1.720 -1.5183  1.2548  0.5514
 1733TIP3    H226759   5.746   1.746   1.780  1.0585 -0.1630  0.4460
 1734TIP3   OH226760   2.083   0.999   0.132  0.3348  0.4807  0.3674
 1734TIP3    H126761   2.071   0.922   0.188 -1.1708  0.6258  0.2632
 1734TIP3    H226762   2.174   1.025   0.147  0.8767 -1.3211  0.3850
 1735TIP3   OH226763   3.006   3.308   1.970 -0.1841  0.5670 -0.3751
 1735TIP3    H126764   2.996   3.215   1.949 -1.6024  0.1573  1.7328
 1735TIP3    H226765   2.977   3.315   2.061  2.5205  2.6217  0.4556
 1736TIP3   OH226766   2.510   4.979   6.950  0.0968 -0.4520  0.3511
 1736TIP3    H126767   2.488   4.908   6.889  0.3353 -0.4256  0.2319
 1736TIP3    H226768   2.605   4.989   6.941  0.2780 -1.0954  1.4305
 1737TIP3   OH226769   0.424   4.685   7.940 -0.2700 -0.3006 -0.1067
 1737TIP3    H126770   0.336   4.722   7.931 -0.5522 -0.6450  1.0700
 1737TIP3    H226771   0.470   4.747   7.998 -0.1727 -0.8273  0.3872
 1738TIP3   OH226772   5.457   0.322   7.177  0.2434  0.6281 -0.3654
 1738TIP3    H126773   5.470   0.416   7.178  0.5226  0.6455  2.1633
 1738TIP3    H226774   5.503   0.291   7.255 -0.2394 -1.5462 -0.8772
 1739TIP3   OH226775   1.713   6.847   1.463  0.0436  0.4038 -0.3551
 1739TIP3    H126776   1.770   6.907   1.511 -0.1981 -0.7365  1.4425
 1739TIP3    H226777   1.625   6.886   1.472  0.2655  1.2336 -1.6151
 1740TIP3   OH226778   6.755   2.624   8.062  0.5760 -0.1533  0.7850
 1740TIP3    H126779   6.805   2.567   8.004  0.4244  1.1161 -0.6486
 1740TIP3    H226780   6.705   2.681   8.003  0.7019  1.4379  2.1427
 1741TIP3   OH226781   3.946   3.941   0.812 -0.5889  0.5737 -0.0859
 1741TIP3    H126782   3.983   3.854   0.826  1.8227  1.2270 -1.6889
 1741TIP3    H226783   3.894   3.933   0.732  0.3446  0.7283 -0.7359
 1742TIP3   OH226784   5.618   3.207   7.354 -0.1969  0.2696  0.2231
 1742TIP3    H126785   5.701   3.165   7.378 -1.2262 -1.4074  1.0533
 1742TIP3    H226786   5.635   3.247   7.269  1.5394  0.2051  0.5042
 1743TIP3   OH226787   0.425   4.550   7.070 -0.1802  0.3181  0.3816
 1743TIP3    H126788   0.412   4.466   7.113  0.2330 -0.0044 -0.0959
 1743TIP3    H226789   0.494   4.593   7.121 -1.1931  0.8717  1.3107
 1744TIP3   OH226790   4.449   3.323   6.464 -0.3954  0.2110 -0.1334
 1744TIP3    H126791   4.365   3.279   6.482 -1.5295  1.3365 -2.3305
 1744TIP3    H226792   4.454   3.392   6.530 -0.2482 -0.9923  1.1745
 1745TIP3   OH226793   6.018   3.728   6.573 -0.5454 -0.0484 -0.6459
 1745TIP3    H126794   6.108   3.708   6.596  0.1904 -0.7675 -3.7154
 1745TIP3    H226795   6.006   3.820   6.599  1.6367  0.5791 -1.6382
 1746TIP3   OH226796   5.190   6.037   1.440 -0.3314 -0.9524 -0.1786
 1746TIP3    H126797   5.273   5.993   1.461  0.3348 -0.2610 -1.2795
 1746TIP3    H226798   5.214   6.104   1.376 -1.6776 -0.4219 -0.1549
 1747TIP3   OH226799   6.683   2.512   1.853  0.2055 -0.6743 -0.4977
 1747TIP3    H126800   6.733   2.431   1.842  1.1814 -0.4712  1.8277
 1747TIP3    H226801   6.639   2.502   1.937 -1.9061  0.1180 -1.4444
 1748TIP3   OH226802   2.169   2.852   2.444 -0.0876 -0.0662  0.1102
 1748TIP3    H126803   2.176   2.947   2.457 -0.7045  0.2451 -1.5276
 1748TIP3    H226804   2.118   2.843   2.363 -0.1681 -1.8058  0.3185
 1749TIP3   OH226805   0.155   0.203   0.596 -0.2941  0.0634  0.0886
 1749TIP3    H126806   0.188   0.273   0.652 -1.7949  0.7443  0.1538
 1749TIP3    H226807   0.109   0.247   0.525 -1.2247 -0.8413  0.0970
 1750TIP3   OH226808   2.130   2.858   2.030 -0.1313 -0.9245 -0.2143
 1750TIP3    H126809   2.073   2.905   1.969  0.1973 -2.3125 -1.6910
 1750TIP3    H226810   2.211   2.909   2.032 -1.2556  0.9448  1.7296
 1751TIP3   OH226811   3.642   6.328   8.361  0.4878 -0.5176  0.9278
 1751TIP3    H126812   3.721   6.356   8.316  0.3983 -2.3736 -0.5188
 1751TIP3    H226813   3.673   6.293   8.445  1.3582 -1.8881  0.0901
 1752TIP3   OH226814   4.802   2.167   7.844  0.0848  0.4315  0.1518
 1752TIP3    H126815   4.724   2.222   7.839 -0.2749  0.2228  2.5232
 1752TIP3    H226816   4.770   2.079   7.863  0.8574  0.3115  1.0012
 1753TIP3   OH226817   4.823   5.332   0.620  0.0262 -0.1193  0.1825
 1753TIP3    H126818   4.734   5.363   0.639  0.9764  2.5249  0.8033
 1753TIP3    H226819   4.856   5.302   0.704 -0.2002 -0.9401 -0.0146
 1754TIP3   OH226820   2.217   5.350   7.418 -0.2103 -0.1339  0.0632
 1754TIP3    H126821   2.131   5.386   7.439  0.6037  1.9256  0.1064
 1754TIP3    H226822   2.210   5.322   7.327 -0.6694  0.8856 -0.2298
 1755TIP3   OH226823   4.571   5.276   7.602 -0.3300  0.2118  0.1021
 1755TIP3    H126824   4.595   5.194   7.645  2.7421  1.1402  0.3353
 1755TIP3    H226825   4.610   5.269   7.515 -0.6397  1.1606 -0.1194
 1756TIP3   OH226826   5.343   4.589   7.538  0.5730  0.1214  0.2982
 1756TIP3    H126827   5.347   4.553   7.449 -0.3621 -0.3954  0.4571
 1756TIP3    H226828   5.424   4.557   7.579  0.7992 -0.0047 -0.2210
 1757TIP3   OH226829   2.581   2.533   1.229  0.2813  0.0916  0.7255
 1757TIP3    H126830   2.606   2.621   1.200  3.7332 -1.6143 -2.1725
 1757TIP3    H226831   2.517   2.504   1.165  2.8173 -1.1615 -1.4040
 1758TIP3   OH226832   6.441   3.425   7.792 -0.8031 -0.4464  0.3671
 1758TIP3    H126833   6.503   3.419   7.720  0.6064  2.5815  1.1485
 1758TIP3    H226834   6.481   3.373   7.862 -0.1310 -0.1293  0.2255
 1759TIP3   OH226835   6.817   0.950   0.070  0.5608 -0.7840 -0.0659
 1759TIP3    H126836   6.752   0.881   0.082 -0.6618  0.3785  0.1350
 1759TIP3    H226837   6.897   0.903   0.046 -0.2573 -2.2588 -0.0110
 1760TIP3   OH226838   3.043   4.859   2.136  0.1505 -0.4051  0.3122
 1760TIP3    H126839   3.055   4.785   2.195  5.0888 -0.2027  0.0326
 1760TIP3    H226840   3.095   4.837   2.058  1.7591  3.1223  0.1554
 1761TIP3   OH226841   6.399   3.383   1.542 -0.0087  0.2836 -0.0764
 1761TIP3    H126842   6.374   3.356   1.454 -0.4004 -0.6703  0.3171
 1761TIP3    H226843   6.359   3.470   1.554 -1.8537 -0.5346 -0.0259
 1762TIP3   OH226844   3.005   4.075   8.053  0.3690  0.1491  0.2698
 1762TIP3    H126845   2.931   4.122   8.014  0.7932  1.3229  0.8240
 1762TIP3    H226846   2.987   4.077   8.147  0.1322 -1.2947  0.2699
 1763TIP3   OH226847   2.151   5.452   1.293 -0.1075  0.8197 -0.1319
 1763TIP3    H126848   2.130   5.374   1.346 -0.1311  0.0754 -1.2159
 1763TIP3    H226849   2.066   5.493   1.276 -0.2601  0.2256 -0.8437
 1764TIP3   OH226850   5.150   3.690   8.463 -0.2567  0.0180 -0.1328
 1764TIP3    H126851   5.157   3.595   8.468  1.1985  0.1449  0.6540
 1764TIP3    H226852   5.061   3.706   8.432 -0.8059 -1.5753  0.5385
 1765TIP3   OH226853   5.100   3.102   0.637  0.3650 -0.4164  0.0408
 1765TIP3    H126854   5.024   3.076   0.690  0.4370  0.6770  0.7012
 1765TIP3    H226855   5.161   3.029   0.647 -1.0472 -1.8870 -1.4949
 1766TIP3   OH226856   6.524   2.136   1.738 -0.1388 -0.1966 -0.5101
 1766TIP3    H126857   6.437   2.138   1.698  0.1769  1.7773 -1.1963
 1766TIP3    H226858   6.508   2.153   1.831 -0.5269 -0.4044 -0.5386
 1767TIP3   OH226859   4.220   2.421   0.175 -0.4079  0.6637 -0.4134
 1767TIP3    H126860   4.250   2.419   0.084 -0.5835  1.1169 -0.4850
 1767TIP3    H226861   4.126   2.435   0.169 -0.2722  1.7924 -0.1498
 1768TIP3   OH226862   5.519   6.041   7.566 -0.0247  0.4227 -1.2123
 1768TIP3    H126863   5.495   5.957   7.606  0.6462  1.0194  0.4973
 1768TIP3    H226864   5.463   6.105   7.610  1.7990  1.2948 -0.0749
 1769TIP3   OH226865   4.639   5.282   7.330  0.2246 -0.3512 -0.3093
 1769TIP3    H126866   4.704   5.323   7.273 -0.8169  1.9391  0.0708
 1769TIP3    H226867   4.586   5.228   7.270  1.0682 -0.4462 -0.9833
 1770TIP3   OH226868   5.807   6.599   7.942 -0.0775 -0.0325  0.5135
 1770TIP3    H126869   5.760   6.532   7.991  1.4256 -0.6674  1.1313
 1770TIP3    H226870   5.853   6.650   8.008  0.5196  0.2439 -0.1015
 1771TIP3   OH226871   1.326   5.101   8.488 -0.3994 -0.0176 -0.2683
 1771TIP3    H126872   1.339   5.017   8.533 -0.8951  0.8415  1.5684
 1771TIP3    H226873   1.234   5.121   8.501 -0.2667  0.8634 -0.6094
 1772TIP3   OH226874   6.129   4.077   7.861 -1.0090 -0.2404  0.4284
 1772TIP3    H126875   6.096   4.152   7.812 -2.5740 -1.1574 -0.0107
 1772TIP3    H226876   6.138   4.007   7.796 -1.0507 -0.8632  1.0757
 1773TIP3   OH226877   2.091   6.698   1.985 -0.0576 -0.5401  0.5075
 1773TIP3    H126878   2.051   6.770   2.034 -0.9630  0.5023 -1.6118
 1773TIP3    H226879   2.017   6.645   1.956  0.5001 -1.4780  0.7618
 1774TIP3   OH226880   3.709   6.228   7.885  0.2339  0.2108  0.3809
 1774TIP3    H126881   3.736   6.212   7.795  0.7392  0.8024  0.4179
 1774TIP3    H226882   3.660   6.150   7.910 -1.9809  0.9987 -1.1822
 1775TIP3   OH226883   4.232   0.422   7.966  0.4697  0.3882 -0.1396
 1775TIP3    H126884   4.263   0.331   7.960 -0.4370  0.0209  0.4142
 1775TIP3    H226885   4.289   0.471   7.907  1.4753 -0.4071  0.1442
 1776TIP3   OH226886   1.400   1.764   8.405  0.3754  0.0342 -0.3046
 1776TIP3    H126887   1.453   1.719   8.339 -1.3214 -1.1091 -0.9539
 1776TIP3    H226888   1.409   1.856   8.383  1.7937 -0.1545 -0.6179
 1777TIP3   OH226889   4.564   3.428   2.493  0.3076  0.4195  0.1413
 1777TIP3    H126890   4.490   3.482   2.520 -0.2901  0.4403 -1.4650
 1777TIP3    H226891   4.568   3.358   2.559 -1.5467  0.0488 -0.0974
 1778TIP3   OH226892   6.407   2.727   8.368  0.0825 -0.0419 -0.8347
 1778TIP3    H126893   6.339   2.692   8.427 -0.1978  0.5831 -0.7771
 1778TIP3    H226894   6.373   2.812   8.341  0.6088  0.0454 -1.2300
 1779TIP3   OH226895   3.695   6.327   1.500  0.1855  0.0989  0.1426
 1779TIP3    H126896   3.629   6.396   1.489  0.1620  0.0054 -0.2894
 1779TIP3    H226897   3.767   6.352   1.443 -0.5947 -1.1960 -1.4984
 1780TIP3   OH226898   4.097   6.060   7.368 -0.0677 -0.1928 -0.2559
 1780TIP3    H126899   4.133   6.101   7.447 -1.5638 -0.8415  0.8187
 1780TIP3    H226900   4.172   6.016   7.327  0.3879 -1.7727  2.0663
 1781TIP3   OH226901   6.601   0.815   0.180  0.0101 -0.7204  0.0638
 1781TIP3    H126902   6.535   0.885   0.180  0.2429 -0.4907 -0.8339
 1781TIP3    H226903   6.554   0.737   0.151 -0.2954 -0.9966  1.2558
 1782TIP3   OH226904   1.322   0.664   0.436 -0.1100 -0.0014  0.1273
 1782TIP3    H126905   1.263   0.598   0.399  1.2795 -0.6702 -0.9668
 1782TIP3    H226906   1.263   0.726   0.480 -1.4564 -1.9298  1.1893
 1783TIP3   OH226907   1.464   0.336   0.652 -0.4720  0.6054  0.2113
 1783TIP3    H126908   1.391   0.341   0.590 -3.1619 -1.0848  2.9075
 1783TIP3    H226909   1.520   0.266   0.618 -2.0218 -0.4688 -0.2543
 1784TIP3   OH226910   0.731   0.677   8.445  0.3255 -0.9485  0.1632
 1784TIP3    H126911   0.676   0.620   8.500  0.3344 -0.1989  0.9645
 1784TIP3    H226912   0.711   0.766   8.475  0.7904 -0.5629 -0.6402
 1785TIP3   OH226913   0.008   3.454   7.064  0.3703  0.0417 -0.1426
 1785TIP3    H126914   0.079   3.512   7.091 -0.7164  1.7008 -0.6881
 1785TIP3    H226915   0.047   3.367   7.061  3.0461  1.1907 -2.7801
 1786TIP3   OH226916   4.276   5.297   7.440  0.0627 -0.1494  0.1081
 1786TIP3    H126917   4.301   5.324   7.351  0.6838  0.6225  0.5142
 1786TIP3    H226918   4.333   5.347   7.498 -0.6270 -0.3369  0.9680
 1787TIP3   OH226919   4.407   4.155   7.409  0.1406 -0.3033  0.7062
 1787TIP3    H126920   4.353   4.190   7.338  0.7787 -0.7731 -0.0259
 1787TIP3    H226921   4.468   4.227   7.429 -1.3827  0.6192  2.2475
 1788TIP3   OH226922   4.613   3.246   8.368 -0.3116 -0.0954 -0.9122
 1788TIP3    H126923   4.573   3.327   8.400  0.8869  0.4646 -0.7642
 1788TIP3    H226924   4.634   3.264   8.276  1.0919  0.2477 -0.5554
 1789TIP3   OH226925   3.941   0.667   1.181  0.7515  0.1233  0.0229
 1789TIP3    H126926   4.011   0.658   1.245  1.8897 -0.0207 -1.1899
 1789TIP3    H226927   3.880   0.730   1.220  1.4387  0.0803  1.2008
 1790TIP3   OH226928   4.987   1.763   7.128  0.3952  0.4114 -0.1895
 1790TIP3    H126929   4.950   1.827   7.066  0.7509  1.2584  0.4573
 1790TIP3    H226930   5.026   1.696   7.072  1.0248  1.3410 -0.8929
 1791TIP3   OH226931   3.559   6.859   6.767 -0.0356  0.0758 -0.1088
 1791TIP3    H126932   3.644   6.897   6.743 -0.5030  0.9185 -0.4649
 1791TIP3    H226933   3.582   6.781   6.818  0.9495  0.7755  0.5600
 1792TIP3   OH226934   5.024   6.663   7.341 -0.6767 -0.0477  0.2662
 1792TIP3    H126935   4.965   6.739   7.346  1.3985  1.8656 -1.9142
 1792TIP3    H226936   5.059   6.654   7.430 -0.6817  1.8411  0.4931
 1793TIP3   OH226937   3.879   4.410   2.061 -0.5860  0.5007  0.4461
 1793TIP3    H126938   3.912   4.499   2.078  1.2181  0.0293 -0.3875
 1793TIP3    H226939   3.924   4.356   2.126  0.8053 -0.2444 -1.0795
 1794TIP3   OH226940   1.284   0.373   6.409  0.3131 -0.4551  0.5504
 1794TIP3    H126941   1.360   0.319   6.387 -2.3194 -2.9011 -4.1906
 1794TIP3    H226942   1.290   0.447   6.349 -0.6240 -0.2785  0.6616
 1795TIP3   OH226943   0.728   3.896   8.324  0.8593 -0.3209 -0.5389
 1795TIP3    H126944   0.773   3.959   8.268 -0.3014  0.2820 -0.8364
 1795TIP3    H226945   0.636   3.900   8.295 -0.0101  0.8368  2.1166
 1796TIP3   OH226946   3.461   1.101   1.306 -0.0376 -0.1160  0.0779
 1796TIP3    H126947   3.385   1.048   1.283  1.3043 -1.9033 -0.4389
 1796TIP3    H226948   3.438   1.189   1.277 -1.2459 -0.9414 -1.6580
 1797TIP3   OH226949   1.862   2.175   1.175 -0.4047  0.4842 -0.1684
 1797TIP3    H126950   1.775   2.138   1.161  0.2634 -0.9130 -0.8065
 1797TIP3    H226951   1.913   2.146   1.099  0.4648  1.7922 -0.1172
 1798TIP3   OH226952   6.820   3.587   0.883  0.3000  0.1287  0.7074
 1798TIP3    H126953   6.845   3.562   0.795  0.2616 -0.3585  0.8321
 1798TIP3    H226954   6.895   3.638   0.916 -0.0972  1.1573  0.0505
 1799TIP3   OH226955   2.845   1.238   8.558  0.3177  0.3254  0.0881
 1799TIP3    H126956   2.783   1.248   8.630 -1.3002 -0.8864 -1.0783
 1799TIP3    H226957   2.912   1.179   8.592 -0.4304 -0.2362  0.6205
 1800TIP3   OH226958   5.699   3.119   7.969  0.1039  0.6176 -0.2305
 1800TIP3    H126959   5.720   3.111   8.062 -1.3464  0.6730  0.1222
 1800TIP3    H226960   5.734   3.040   7.930  0.8146  0.6364  0.3417
 1801TIP3   OH226961   5.024   0.295   0.369  0.5049 -0.4505  0.2282
 1801TIP3    H126962   4.932   0.319   0.358  0.1699 -1.0665  1.4864
 1801TIP3    H226963   5.054   0.277   0.281 -0.4856  0.1007 -0.2469
 1802TIP3   OH226964   5.121   6.328   0.094  0.1094 -0.4709 -0.2609
 1802TIP3    H126965   5.095   6.309   0.184 -0.4507 -0.4791 -0.4187
 1802TIP3    H226966   5.041   6.362   0.053 -0.4291 -2.9497 -1.4783
 1803TIP3   OH226967   2.610   2.139   1.635  0.7899 -0.8626  0.0054
 1803TIP3    H126968   2.657   2.059   1.656  1.4134 -0.5423 -0.1528
 1803TIP3    H226969   2.678   2.206   1.630  0.1418 -0.0609  1.4505
 1804TIP3   OH226970   1.706   2.112   0.838 -0.5160  0.1333  0.1942
 1804TIP3    H126971   1.717   2.021   0.865 -0.0360  0.9666  3.1178
 1804TIP3    H226972   1.614   2.131   0.857  0.1093  1.0737  2.6997
 1805TIP3   OH226973   0.476   3.918   6.698  0.0572  0.2131  0.3180
 1805TIP3    H126974   0.421   3.969   6.757  0.1993 -0.2212  0.8375
 1805TIP3    H226975   0.558   3.967   6.692 -0.2549  0.6858 -0.1861
 1806TIP3   OH226976   2.269   5.652   1.938 -0.4997 -0.0202  0.1677
 1806TIP3    H126977   2.342   5.657   2.000  1.3775 -0.9277 -1.8224
 1806TIP3    H226978   2.258   5.559   1.922 -1.2522  0.1758 -0.5172
 1807TIP3   OH226979   5.291   4.876   1.984 -0.1804  0.2110 -0.6832
 1807TIP3    H126980   5.275   4.816   2.057 -1.1183  1.3199  0.0554
 1807TIP3    H226981   5.217   4.861   1.925  0.2283 -0.2089 -1.0990
 1808TIP3   OH226982   3.292   0.737   7.469  0.0208  0.4036  0.4365
 1808TIP3    H126983   3.220   0.685   7.503 -1.8895  0.7848 -2.6752
 1808TIP3    H226984   3.301   0.810   7.531  0.2196 -1.5019  2.7776
 1809TIP3   OH226985   6.076   5.007   0.146  0.4996  0.3037 -0.4758
 1809TIP3    H126986   6.002   4.951   0.169  2.2441 -1.9679 -0.0337
 1809TIP3    H226987   6.084   4.997   0.051  0.3901  0.3705 -0.4929
 1810TIP3   OH226988   4.664   4.411   1.103 -0.3219 -0.3223  0.0080
 1810TIP3    H126989   4.749   4.389   1.064  0.0065 -1.7669  1.4237
 1810TIP3    H226990   4.657   4.506   1.092  0.8115 -0.3559 -1.3883
 1811TIP3   OH226991   2.982   6.632   8.597  0.1677 -0.1477 -0.0537
 1811TIP3    H126992   3.008   6.595   8.513  0.9644  1.5968 -0.6209
 1811TIP3    H226993   3.032   6.713   8.605 -0.9210  0.4392  1.4727
 1812TIP3   OH226994   5.757   3.494   1.723  0.2904  0.1101  0.4578
 1812TIP3    H126995   5.814   3.540   1.785 -1.1895 -1.1648  2.9184
 1812TIP3    H226996   5.787   3.403   1.726 -0.8521 -0.2841  0.6304
 1813TIP3   OH226997   0.719   1.875   0.154  0.1593  0.2783  0.3089
 1813TIP3    H126998   0.664   1.915   0.087  1.3295 -0.1645 -0.9594
 1813TIP3    H226999   0.660   1.819   0.204 -0.9121  1.3113  0.2590
 1814TIP3   OH227000   1.971   0.881   7.008  0.0672 -0.0550  0.2497
 1814TIP3    H127001   2.044   0.923   6.964 -0.1446  0.6418  0.5426
 1814TIP3    H227002   1.950   0.805   6.954  0.1179  0.5149 -0.5802
 1815TIP3   OH227003   2.446   3.458   6.594 -0.0726  0.2067 -0.3277
 1815TIP3    H127004   2.479   3.543   6.565 -0.4639  0.2531 -0.6458
 1815TIP3    H227005   2.400   3.423   6.518 -2.2571  0.8937  0.5688
 1816TIP3   OH227006   2.105   4.189   0.617  0.5082  0.1691  0.2441
 1816TIP3    H127007   2.184   4.218   0.663 -0.2799 -0.2650  1.9603
 1816TIP3    H227008   2.089   4.101   0.652 -0.7938  0.2940 -0.0133
 1817TIP3   OH227009   1.625   1.786   6.357 -0.2837  0.3265  0.1264
 1817TIP3    H127010   1.600   1.875   6.379  1.5039  0.7067  0.8276
 1817TIP3    H227011   1.542   1.739   6.345 -1.2428  1.9710  0.1381
 1818TIP3   OH227012   4.199   1.648   0.078 -0.5349  0.3991 -0.2041
 1818TIP3    H127013   4.245   1.724   0.113 -1.1903  0.3994  0.6970
 1818TIP3    H227014   4.115   1.648   0.124 -0.9267 -0.3201 -0.8987
 1819TIP3   OH227015   2.379   5.972   1.858 -0.1284  0.2769  0.0147
 1819TIP3    H127016   2.427   6.039   1.809 -0.6836 -0.0203 -0.9673
 1819TIP3    H227017   2.306   5.948   1.801  0.1005 -1.2269  0.3144
 1820TIP3   OH227018   1.784   5.545   1.822 -0.3926  0.2527  0.5684
 1820TIP3    H127019   1.864   5.501   1.850  0.0664 -0.0065 -1.0183
 1820TIP3    H227020   1.714   5.494   1.861  0.1840 -0.5070  0.6412
 1821TIP3   OH227021   0.932   3.841   0.743  0.2498 -0.0996 -0.4651
 1821TIP3    H127022   0.946   3.761   0.793  1.0731 -0.1455 -0.7406
 1821TIP3    H227023   1.000   3.839   0.676 -1.3684 -0.4655 -2.1678
 1822TIP3   OH227024   0.179   0.699   1.627 -0.5038  0.3509  0.0279
 1822TIP3    H127025   0.213   0.623   1.673 -2.2992  0.6847  2.0653
 1822TIP3    H227026   0.116   0.664   1.564 -0.0525  0.0651 -0.2698
 1823TIP3   OH227027   5.751   1.912   2.437  0.0765  0.0545  0.2796
 1823TIP3    H127028   5.820   1.940   2.498 -0.7896 -0.2673  1.4576
 1823TIP3    H227029   5.789   1.837   2.392  0.9098  0.5831  0.0590
 1824TIP3   OH227030   1.057   1.126   0.038 -0.0936  0.0166 -0.1667
 1824TIP3    H127031   1.092   1.186   0.104  0.1306 -0.4719  0.1642
 1824TIP3    H227032   0.962   1.143   0.040 -0.1307 -0.2126  0.5154
 1825TIP3   OH227033   1.091   0.746   1.184 -0.3215  0.0290  0.4664
 1825TIP3    H127034   1.036   0.733   1.107  0.3350 -1.8915  0.2828
 1825TIP3    H227035   1.099   0.841   1.191 -0.5255  0.2677 -1.7411
 1826TIP3   OH227036   4.601   4.997   8.316 -0.4552 -0.4838  0.0648
 1826TIP3    H127037   4.642   5.071   8.361 -1.5567  0.0256  0.2834
 1826TIP3    H227038   4.584   4.933   8.386 -0.3678 -0.5351  0.0381
 1827TIP3   OH227039   4.042   3.428   7.112 -0.2840  0.4802  0.3712
 1827TIP3    H127040   4.104   3.408   7.182  0.6718 -2.4695 -1.1587
 1827TIP3    H227041   3.968   3.470   7.157  0.5149 -0.7497  3.0533
 1828TIP3   OH227042   3.790   1.038   1.472 -0.1418 -0.0139  0.3811
 1828TIP3    H127043   3.806   1.131   1.457  2.0064 -0.2390  0.9557
 1828TIP3    H227044   3.715   1.036   1.532 -0.6874  1.2940 -0.2207
 1829TIP3   OH227045   4.088   0.386   1.902  0.4504 -0.1949  0.6042
 1829TIP3    H127046   4.111   0.306   1.948 -0.0124 -1.5760 -1.4056
 1829TIP3    H227047   4.171   0.418   1.866  0.7473  0.6672  1.9749
 1830TIP3   OH227048   1.655   4.724   0.230  0.4619 -0.0583  0.2021
 1830TIP3    H127049   1.664   4.651   0.169 -2.2313  0.3668 -0.8243
 1830TIP3    H227050   1.604   4.688   0.303 -0.5444  0.6526 -0.1274
 1831TIP3   OH227051   4.159   4.672   2.827 -0.1047  0.0966  0.0077
 1831TIP3    H127052   4.154   4.765   2.805 -1.2365  0.1955  0.6096
 1831TIP3    H227053   4.252   4.650   2.818  0.1752  1.2804 -0.1363
 1832TIP3   OH227054   3.587   1.909   7.610 -0.0780  0.3000 -0.1597
 1832TIP3    H127055   3.647   1.896   7.537 -0.2906  0.0677 -0.2941
 1832TIP3    H227056   3.592   2.003   7.628  0.7754  0.1903  0.2232
 1833TIP3   OH227057   0.529   1.680   6.695  0.1311 -0.2751 -0.2219
 1833TIP3    H127058   0.460   1.688   6.630 -0.3269 -0.3069  0.2484
 1833TIP3    H227059   0.487   1.637   6.769  1.2565 -2.4586 -0.7923
 1834TIP3   OH227060   0.488   1.961   0.784  0.5022  0.3274  0.0534
 1834TIP3    H127061   0.438   2.039   0.759  1.3493  0.9650  0.2769
 1834TIP3    H227062   0.484   1.904   0.708 -0.7988  0.2306  0.1710
 1835TIP3   OH227063   3.200   3.474   6.391  0.3319  0.0565 -0.0578
 1835TIP3    H127064   3.265   3.425   6.440 -0.7566 -1.0822  0.2988
 1835TIP3    H227065   3.160   3.410   6.332 -0.7646  0.6178  0.0460
 1836TIP3   OH227066   5.114   4.696   0.474 -0.0937 -0.1419 -0.3140
 1836TIP3    H127067   5.134   4.628   0.539 -1.0290 -1.2609 -1.1477
 1836TIP3    H227068   5.188   4.757   0.479  2.1655 -2.5895 -1.3600
 1837TIP3   OH227069   1.838   1.652   2.056  0.3345  0.3470  0.1381
 1837TIP3    H127070   1.803   1.669   1.969  0.1959  1.2698  0.3659
 1837TIP3    H227071   1.932   1.670   2.048  0.5891 -1.0407 -0.1912
 1838TIP3   OH227072   6.751   1.751   8.320  0.4042  0.4801  0.1965
 1838TIP3    H127073   6.826   1.693   8.332 -1.7908 -2.3637  1.1934
 1838TIP3    H227074   6.739   1.756   8.225  1.8233  1.0414  0.0194
 1839TIP3   OH227075   0.660   3.833   2.158  0.0567 -0.0008 -0.4100
 1839TIP3    H127076   0.645   3.846   2.064  1.0343 -1.0677 -0.7313
 1839TIP3    H227077   0.734   3.889   2.179  0.5073 -0.5521 -0.5116
 1840TIP3   OH227078   6.170   1.210   7.407 -0.1093  0.2386  0.1855
 1840TIP3    H127079   6.131   1.174   7.328  0.5862 -1.2636  0.4891
 1840TIP3    H227080   6.162   1.140   7.472 -0.5140  1.3649  1.4247
 1841TIP3   OH227081   6.238   4.407   0.823  0.0532  0.7209  0.3219
 1841TIP3    H127082   6.202   4.319   0.810 -0.1821  0.3356  2.9910
 1841TIP3    H227083   6.160   4.464   0.826 -0.0788  0.5112  1.7494
 1842TIP3   OH227084   6.717   4.094   7.735 -0.0471  0.1272  0.2653
 1842TIP3    H127085   6.759   4.165   7.784  2.2212 -1.1958  0.3481
 1842TIP3    H227086   6.696   4.134   7.650  1.1876  0.9175  0.2999
 1843TIP3   OH227087   0.861   2.423   0.656 -0.4054 -0.0387  0.3078
 1843TIP3    H127088   0.801   2.433   0.730 -1.0460  0.4691 -0.2746
 1843TIP3    H227089   0.927   2.361   0.687 -2.2571 -2.1149  0.3520
 1844TIP3   OH227090   2.950   0.074   6.895 -0.2295  0.4613 -0.1151
 1844TIP3    H127091   2.897  -0.006   6.891 -0.3320  0.4227  1.4748
 1844TIP3    H227092   3.036   0.048   6.860 -0.8755  0.2434 -1.6574
 1845TIP3   OH227093   3.885   2.844   7.645 -0.4740 -0.1915  0.3184
 1845TIP3    H127094   3.875   2.934   7.676  0.0702  0.1097 -0.3648
 1845TIP3    H227095   3.934   2.852   7.564 -1.0565 -1.0573 -0.1270
 1846TIP3   OH227096   2.636   4.617   7.937 -0.8788 -0.9240 -0.4546
 1846TIP3    H127097   2.615   4.709   7.923 -1.8483 -0.7959  1.4606
 1846TIP3    H227098   2.730   4.616   7.955 -0.7211 -0.4227 -1.2139
 1847TIP3   OH227099   6.743   6.697   8.067 -0.4325 -0.1033 -0.1197
 1847TIP3    H127100   6.772   6.788   8.068  0.6040 -0.3842 -1.8115
 1847TIP3    H227101   6.671   6.695   8.004  0.2722 -0.6454 -0.9242
 1848TIP3   OH227102   2.854   2.661   8.137 -0.2384  0.1222  0.5310
 1848TIP3    H127103   2.877   2.599   8.068 -2.0467  0.9901 -0.9346
 1848TIP3    H227104   2.768   2.695   8.111  0.3200  2.6435  1.6692
 1849TIP3   OH227105   1.220   5.866   1.566 -0.4858  0.1886  0.2467
 1849TIP3    H127106   1.279   5.839   1.495 -0.1164 -0.7792  0.8928
 1849TIP3    H227107   1.252   5.817   1.642 -0.5860  1.5456  1.1927
 1850TIP3   OH227108   1.812   2.682   1.402 -0.1660 -0.7768  0.4432
 1850TIP3    H127109   1.825   2.673   1.496  1.5509  1.7618  0.5384
 1850TIP3    H227110   1.782   2.772   1.390  2.4884 -0.0501 -1.6064
 1851TIP3   OH227111   1.729   4.658   1.121 -0.5344  0.2617  0.4514
 1851TIP3    H127112   1.694   4.746   1.107 -1.6160 -0.3850 -1.3112
 1851TIP3    H227113   1.791   4.646   1.049  0.2435 -0.1278  1.1705
 1852TIP3   OH227114   0.452   3.422   7.638 -0.2331 -0.3368  0.5065
 1852TIP3    H127115   0.458   3.327   7.637  1.5398 -0.2663  0.9437
 1852TIP3    H227116   0.471   3.448   7.548 -0.7911 -0.3742  0.3698
 1853TIP3   OH227117   0.560   6.012   7.160  0.1021 -0.3269  0.6925
 1853TIP3    H127118   0.519   6.024   7.246 -0.6321 -0.4661  0.3712
 1853TIP3    H227119   0.654   6.022   7.176 -0.1147  0.9466  1.2979
 1854TIP3   OH227120   1.709   1.270   0.444 -0.1247  0.1392  0.5266
 1854TIP3    H127121   1.636   1.330   0.427 -1.3119 -1.2905  0.3805
 1854TIP3    H227122   1.784   1.310   0.400 -1.0508  1.1485 -0.1789
 1855TIP3   OH227123   4.714   5.452   8.010  0.3579  0.5990 -0.0413
 1855TIP3    H127124   4.703   5.541   8.041 -0.8013  0.5797 -0.3624
 1855TIP3    H227125   4.734   5.460   7.917 -1.2263  0.4939 -0.4139
 1856TIP3   OH227126   5.101   1.944   7.893  0.5846  0.3692 -0.1416
 1856TIP3    H127127   5.103   2.004   7.967  1.0437 -0.5110  0.5806
 1856TIP3    H227128   5.032   1.881   7.915  0.2971  0.4670 -0.7562
 1857TIP3   OH227129   6.758   3.210   0.106  0.4050 -0.7560 -0.4825
 1857TIP3    H127130   6.731   3.220   0.198 -0.6860 -1.2435 -0.7281
 1857TIP3    H227131   6.739   3.294   0.066  0.5033 -0.6695 -0.3473
 1858TIP3   OH227132   2.776   4.168   2.401 -0.4116  0.2392  0.2349
 1858TIP3    H127133   2.861   4.134   2.429  0.4515  1.6166 -0.5726
 1858TIP3    H227134   2.740   4.099   2.345  1.1865  0.4617 -1.1692
 1859TIP3   OH227135   4.858   4.404   0.591  0.0471 -0.2736  0.0025
 1859TIP3    H127136   4.855   4.309   0.581  2.4178 -0.4584  0.5320
 1859TIP3    H227137   4.943   4.422   0.631 -0.0632  2.1388 -0.6713
 1860TIP3   OH227138   0.353   3.669   8.105 -0.7706 -0.6601 -0.1699
 1860TIP3    H127139   0.397   3.596   8.063 -1.8754 -1.5656  0.1972
 1860TIP3    H227140   0.308   3.714   8.034  1.8537  1.1772 -0.8078
 1861TIP3   OH227141   4.167   2.868   1.437  0.2393  0.6645 -0.0225
 1861TIP3    H127142   4.087   2.816   1.438  0.6106  0.0810  1.4811
 1861TIP3    H227143   4.236   2.806   1.461  0.7608  1.7308  1.3178
 1862TIP3   OH227144   4.708   0.635   6.464 -0.4960  0.5143  0.2799
 1862TIP3    H127145   4.652   0.693   6.412  0.1064  1.4431  0.6387
 1862TIP3    H227146   4.763   0.591   6.400 -1.1670  0.1050 -0.0214
 1863TIP3   OH227147   3.765   6.049   0.200 -0.0898  0.4845  0.1178
 1863TIP3    H127148   3.816   6.068   0.279  0.2929  2.7265 -0.6023
 1863TIP3    H227149   3.674   6.052   0.229  0.0343  1.5981  0.4646
 1864TIP3   OH227150   0.154   1.809   1.382  0.5357 -0.1790  0.4036
 1864TIP3    H127151   0.140   1.902   1.400  0.1527 -0.2268  0.3521
 1864TIP3    H227152   0.244   1.804   1.350  1.4253 -0.1328  2.7061
 1865TIP3   OH227153   2.342   6.625   1.829  0.1166 -0.3131 -0.8812
 1865TIP3    H127154   2.383   6.642   1.914 -0.9990 -0.9912 -0.1780
 1865TIP3    H227155   2.267   6.685   1.826  0.2981 -0.1127 -1.5019
 1866TIP3   OH227156   1.631   4.366   6.923 -0.2977 -0.3470 -0.2394
 1866TIP3    H127157   1.584   4.446   6.899  0.0227  0.7793  2.4951
 1866TIP3    H227158   1.672   4.337   6.842 -2.2304  0.9835 -1.8034
 1867TIP3   OH227159   4.008   5.863   1.648 -0.0735 -0.3736 -0.2021
 1867TIP3    H127160   3.998   5.901   1.560  0.3509 -1.8588 -0.9243
 1867TIP3    H227161   4.079   5.914   1.687 -0.8416  0.8714 -0.3741
 1868TIP3   OH227162   6.576   1.411   0.375 -0.0554 -0.5487  0.1286
 1868TIP3    H127163   6.619   1.394   0.459  0.2359  0.5185  0.1996
 1868TIP3    H227164   6.597   1.334   0.322  2.9145  0.4227 -0.2401
 1869TIP3   OH227165   6.167   3.223   0.545  0.5496 -0.2422  0.2713
 1869TIP3    H127166   6.081   3.208   0.585  1.0125 -0.8978  1.0622
 1869TIP3    H227167   6.204   3.297   0.593  0.3870  0.0975 -0.1294
 1870TIP3   OH227168   1.274   2.284   6.695  0.4934  0.4168 -0.3491
 1870TIP3    H127169   1.204   2.256   6.637  0.4584  0.9518 -0.5725
 1870TIP3    H227170   1.344   2.311   6.636  1.5396 -1.6281 -0.1412
 1871TIP3   OH227171   1.271   6.436   1.486  0.0551 -0.8843 -0.6389
 1871TIP3    H127172   1.286   6.506   1.424  0.8896  1.6977  2.2540
 1871TIP3    H227173   1.355   6.391   1.494  0.8955  0.8285  0.8475
 1872TIP3   OH227174   2.591   5.539   7.378  0.1038 -0.5291  0.3627
 1872TIP3    H127175   2.501   5.537   7.412 -0.3587 -0.3333 -0.7755
 1872TIP3    H227176   2.601   5.627   7.342  0.1085 -1.1060 -1.1023
 1873TIP3   OH227177   3.094   2.846   0.156 -0.3039  0.1417 -0.0858
 1873TIP3    H127178   3.145   2.827   0.235 -0.9450 -3.0382 -0.3320
 1873TIP3    H227179   3.009   2.874   0.189 -0.4298 -0.7595  0.3873
 1874TIP3   OH227180   2.116   0.590   7.655 -0.4836 -0.7173  0.3164
 1874TIP3    H127181   2.162   0.511   7.629 -0.4997 -0.4414 -0.5768
 1874TIP3    H227182   2.040   0.559   7.704  0.5507 -1.1797  1.6795
 1875TIP3   OH227183   6.376   5.929   8.324  0.3422  0.0778 -0.3542
 1875TIP3    H127184   6.414   5.998   8.269  0.6279 -0.0437 -0.3107
 1875TIP3    H227185   6.345   5.974   8.402  0.1690  0.2147 -0.5005
 1876TIP3   OH227186   3.591   6.578   7.115 -0.1044  0.1790  0.3388
 1876TIP3    H127187   3.540   6.659   7.106 -1.6584 -0.8769 -1.1401
 1876TIP3    H227188   3.655   6.582   7.044  0.2212  0.3850  0.6445
 1877TIP3   OH227189   2.490   6.547   0.473  0.1950  0.1255 -0.4311
 1877TIP3    H127190   2.582   6.519   0.479  0.2385  0.2178 -0.6820
 1877TIP3    H227191   2.494   6.643   0.479  0.3272  0.3256 -2.8531
 1878TIP3   OH227192   1.990   4.280   2.220  0.7112  0.0428 -0.0321
 1878TIP3    H127193   2.058   4.343   2.197  0.7838 -0.0370 -0.0321
 1878TIP3    H227194   1.910   4.333   2.225  0.4206 -0.1596 -1.8950
 1879TIP3   OH227195   6.610   3.642   1.783  0.3063 -0.3890 -0.3806
 1879TIP3    H127196   6.578   3.641   1.873 -1.2149  0.0780 -0.8872
 1879TIP3    H227197   6.664   3.563   1.776 -0.3308 -0.9414  0.6749
 1880TIP3   OH227198   4.316   4.358   0.966  0.1124  0.2439  0.3925
 1880TIP3    H127199   4.295   4.441   0.923  0.7753  1.2435  1.9098
 1880TIP3    H227200   4.237   4.305   0.955  0.4971  0.1327 -2.6340
 1881TIP3   OH227201   6.666   0.879   8.289  0.0131  0.1066  0.0297
 1881TIP3    H127202   6.735   0.935   8.255 -0.1147 -0.5256 -1.3185
 1881TIP3    H227203   6.614   0.936   8.345  1.7585  0.5332  1.3106
 1882TIP3   OH227204   5.753   2.147   8.315 -0.1089  0.7669 -0.3740
 1882TIP3    H127205   5.678   2.147   8.375 -0.4468  0.2908 -0.7945
 1882TIP3    H227206   5.724   2.200   8.240 -0.2407  0.0988 -0.8013
 1883TIP3   OH227207   2.653   6.117   8.182 -0.3958 -0.1786  0.2907
 1883TIP3    H127208   2.722   6.150   8.125 -0.0831 -1.3655 -0.0568
 1883TIP3    H227209   2.699   6.055   8.240 -0.5999  1.3696  2.2013
 1884TIP3   OH227210   3.941   5.721   8.271 -0.1506 -0.0599  0.2581
 1884TIP3    H127211   3.983   5.765   8.345  0.9465 -0.0315 -0.3624
 1884TIP3    H227212   3.855   5.763   8.263  0.1523  0.6822  0.8258
 1885TIP3   OH227213   4.867   3.311   6.292 -0.0040 -0.2591 -0.1736
 1885TIP3    H127214   4.911   3.234   6.255 -0.6319  0.3852 -2.4445
 1885TIP3    H227215   4.894   3.383   6.236  0.7956  1.2986  2.0973
 1886TIP3   OH227216   4.022   3.175   0.650 -0.5453  0.0388  0.0498
 1886TIP3    H127217   4.010   3.090   0.607  0.5914 -0.3802  0.5375
 1886TIP3    H227218   4.021   3.155   0.743 -1.5117  0.7481  0.2112
 1887TIP3   OH227219   1.956   3.557   0.432 -0.2240  0.2382  0.8073
 1887TIP3    H127220   2.013   3.610   0.488 -0.2043  2.1573 -0.8987
 1887TIP3    H227221   1.995   3.565   0.344 -0.8753 -1.7393  0.2927
 1888TIP3   OH227222   5.085   4.618   0.889 -0.2453 -0.3414  0.0403
 1888TIP3    H127223   5.146   4.689   0.867  0.0868  0.2002  2.4779
 1888TIP3    H227224   5.040   4.599   0.806  3.0797 -0.6799 -1.8356
 1889TIP3   OH227225   1.527   6.648   1.685  0.1911  0.8975 -0.2796
 1889TIP3    H127226   1.536   6.634   1.780  2.2522  1.2133 -0.3791
 1889TIP3    H227227   1.522   6.743   1.676  1.0499  0.9237 -0.5421
 1890TIP3   OH227228   4.587   4.908   1.339  0.4412  0.0327 -0.3961
 1890TIP3    H127229   4.559   4.867   1.421  1.9288  0.8823  0.5903
 1890TIP3    H227230   4.505   4.933   1.296 -0.4336 -2.1159 -0.1140
 1891TIP3   OH227231   5.969   1.492   7.398 -0.2828  0.0091  0.1765
 1891TIP3    H127232   6.054   1.481   7.354  0.2542 -1.2899  1.4376
 1891TIP3    H227233   5.906   1.454   7.337  0.0011  1.1468 -0.8539
 1892TIP3   OH227234   2.415   4.552   2.121 -0.4701 -0.3171  0.3378
 1892TIP3    H127235   2.476   4.494   2.166 -0.9698 -0.9147  0.2591
 1892TIP3    H227236   2.335   4.549   2.175  0.5321  2.9470  2.2656
 1893TIP3   OH227237   0.240   1.902   0.570 -0.2000 -0.0449 -0.5275
 1893TIP3    H127238   0.321   1.914   0.519  0.5763 -4.0277 -0.5338
 1893TIP3    H227239   0.200   1.824   0.533 -2.2197 -0.2232  1.8158
 1894TIP3   OH227240   2.078   2.904   1.517 -0.1651  0.4564 -0.0541
 1894TIP3    H127241   2.094   2.869   1.429 -2.4308  2.2767 -1.3182
 1894TIP3    H227242   1.986   2.886   1.534  0.3767 -0.4530  2.3086
 1895TIP3   OH227243   3.465   1.858   0.414 -0.0468 -0.3352 -0.1091
 1895TIP3    H127244   3.387   1.804   0.400 -1.2890  1.1367  0.8239
 1895TIP3    H227245   3.445   1.941   0.372  1.0742  0.0338  0.0531
 1896TIP3   OH227246   4.416   3.122   2.030 -0.2117  0.3309  0.0915
 1896TIP3    H127247   4.441   3.042   2.076  1.5008 -0.5100 -2.1444
 1896TIP3    H227248   4.370   3.093   1.952 -2.6976  1.7179  0.9226
 1897TIP3   OH227249   3.688   3.068   0.010  0.1522 -1.1072  0.0049
 1897TIP3    H127250   3.764   3.011   0.006 -0.5706 -2.0697 -0.3817
 1897TIP3    H227251   3.628   3.024   0.070 -0.0659 -0.3064  0.3921
 1898TIP3   OH227252   2.292   3.884   1.459 -0.0360  0.2431 -0.1313
 1898TIP3    H127253   2.209   3.848   1.490  1.3749 -1.0158  2.4915
 1898TIP3    H227254   2.285   3.978   1.478 -0.9435  0.1928 -0.1626
 1899TIP3   OH227255   6.258   4.275   7.238 -0.4313 -0.0996 -0.4304
 1899TIP3    H127256   6.329   4.229   7.193 -1.5327 -1.4272 -0.8713
 1899TIP3    H227257   6.276   4.263   7.331  0.0425 -0.2271 -0.5372
 1900TIP3   OH227258   2.542   5.959   0.191 -0.1867  0.1769 -0.5259
 1900TIP3    H127259   2.545   5.907   0.111  0.2136  0.1725 -0.5098
 1900TIP3    H227260   2.633   5.979   0.210 -0.3510  1.0745 -0.6473
 1901TIP3   OH227261   2.537   1.825   0.199 -0.9306  0.0273  0.5712
 1901TIP3    H127262   2.543   1.734   0.174  0.2599  0.3257 -0.2689
 1901TIP3    H227263   2.613   1.840   0.256 -0.2470  0.8544 -0.5213
 1902TIP3   OH227264   4.100   3.499   0.238  0.4914  0.0766 -0.1027
 1902TIP3    H127265   4.007   3.518   0.226  0.2610 -0.6194  0.5292
 1902TIP3    H227266   4.102   3.418   0.288  1.4299  0.8772  1.2351
 1903TIP3   OH227267   6.346   5.303   8.463  0.3148  0.5508 -0.1542
 1903TIP3    H127268   6.386   5.313   8.549  0.9986 -0.1831 -0.3721
 1903TIP3    H227269   6.420   5.301   8.402 -0.1644  1.2610 -0.7920
 1904TIP3   OH227270   3.354   1.774   8.108  0.2124 -0.1529  0.2262
 1904TIP3    H127271   3.418   1.784   8.038  0.9411  0.8674  1.0122
 1904TIP3    H227272   3.375   1.689   8.148  0.5766 -0.1813 -0.0225
 1905TIP3   OH227273   4.729   0.850   0.680  0.1499  0.2178 -0.0138
 1905TIP3    H127274   4.757   0.929   0.726  1.9493 -0.5505  0.3302
 1905TIP3    H227275   4.766   0.778   0.731 -1.0521 -0.8285 -0.5734
 1906TIP3   OH227276   4.656   4.328   6.800 -0.1886 -0.3968 -0.1994
 1906TIP3    H127277   4.603   4.368   6.732 -0.2344 -0.7619 -0.3817
 1906TIP3    H227278   4.674   4.240   6.767  0.6813 -0.2158 -0.2173
 1907TIP3   OH227279   0.156   5.040   7.449 -0.2702 -0.1843  0.3006
 1907TIP3    H127280   0.246   5.039   7.480 -0.6334 -2.1590  1.4711
 1907TIP3    H227281   0.102   5.034   7.528 -1.6793  4.0443 -0.0467
 1908TIP3   OH227282   2.410   0.025   7.111 -0.2474  0.3724 -0.1102
 1908TIP3    H127283   2.413   0.020   7.016  0.1185  0.2824 -0.0969
 1908TIP3    H227284   2.399  -0.066   7.140 -1.8725  0.5371 -0.1011
 1909TIP3   OH227285   5.231   5.534   2.211 -0.5089 -0.1540  0.4169
 1909TIP3    H127286   5.175   5.526   2.289 -2.9220 -1.4135 -1.3194
 1909TIP3    H227287   5.268   5.447   2.199 -0.1794  0.0234  0.1463
 1910TIP3   OH227288   5.210   5.951   7.184 -0.3303  0.1807 -0.2158
 1910TIP3    H127289   5.203   5.954   7.089  0.9318 -0.8564 -0.3758
 1910TIP3    H227290   5.192   6.040   7.212 -0.1159  0.6464 -1.4834
 1911TIP3   OH227291   1.487   0.716   7.951  0.1461 -0.0434  0.3123
 1911TIP3    H127292   1.497   0.698   8.045  2.4216 -2.3147 -0.2630
 1911TIP3    H227293   1.565   0.766   7.927 -0.2521  0.2338 -0.4468
 1912TIP3   OH227294   2.404   1.136   7.933 -0.4335 -0.3287 -0.0999
 1912TIP3    H127295   2.451   1.113   7.853 -0.0653 -0.6757  0.2108
 1912TIP3    H227296   2.471   1.137   8.002 -0.8209 -0.5101  0.2884
 1913TIP3   OH227297   3.035   5.995   0.387 -0.8032  0.8269 -0.1959
 1913TIP3    H127298   3.057   6.012   0.295 -0.4288  1.9048  0.0696
 1913TIP3    H227299   3.051   6.079   0.431 -2.1732  0.6750  0.6428
 1914TIP3   OH227300   1.197   0.328   2.031 -0.0319  0.4121 -0.2672
 1914TIP3    H127301   1.244   0.254   2.070  0.6969  1.0854  0.1745
 1914TIP3    H227302   1.119   0.337   2.085 -1.5913 -1.7477 -1.9978
 1915TIP3   OH227303   0.268   2.441   0.487  0.0816  0.2652 -0.3649
 1915TIP3    H127304   0.285   2.429   0.581  0.5024  2.5124 -0.0798
 1915TIP3    H227305   0.232   2.358   0.458 -1.5815  0.0111  2.1399
 1916TIP3   OH227306   1.462   2.292   7.180 -0.1515  0.1882 -0.0661
 1916TIP3    H127307   1.374   2.272   7.149 -1.0218 -0.2053  2.4373
 1916TIP3    H227308   1.452   2.309   7.273  2.3384  0.8332  0.1681
 1917TIP3   OH227309   0.282   2.280   1.702  0.6809 -0.2893  0.4718
 1917TIP3    H127310   0.309   2.334   1.776  0.1181 -0.8662  1.1226
 1917TIP3    H227311   0.260   2.196   1.742  1.1044 -0.8539 -0.4615
 1918TIP3   OH227312   3.651   3.322   8.364  0.5268  0.3280  0.3668
 1918TIP3    H127313   3.738   3.290   8.386  0.4597  0.4624  0.8357
 1918TIP3    H227314   3.609   3.249   8.319  1.2507  0.6213 -0.8158
 1919TIP3   OH227315   5.609   6.213   0.590  0.1056 -0.9670 -0.1833
 1919TIP3    H127316   5.584   6.283   0.651  2.8120 -0.2764  0.2661
 1919TIP3    H227317   5.640   6.260   0.512 -1.2380 -1.7901 -1.2531
 1920TIP3   OH227318   5.247   1.104   0.077  0.0864 -0.5826  0.6956
 1920TIP3    H127319   5.334   1.131   0.048 -1.3377  1.2047 -2.4542
 1920TIP3    H227320   5.227   1.027   0.024 -0.0763 -1.3545  1.8396
 1921TIP3   OH227321   3.510   2.951   7.116  0.6009  0.4518  0.3609
 1921TIP3    H127322   3.488   2.861   7.095  0.9309  0.2810  0.7284
 1921TIP3    H227323   3.492   3.000   7.036 -2.4868  0.6030  1.0244
 1922TIP3   OH227324   2.709   6.715   6.565 -0.4876  0.2060  0.4882
 1922TIP3    H127325   2.629   6.695   6.516 -0.5308 -0.6255  0.8823
 1922TIP3    H227326   2.682   6.711   6.657  0.6994 -3.6104  0.8390
 1923TIP3   OH227327   5.366   2.191   8.064  0.2239 -0.1771  0.8534
 1923TIP3    H127328   5.399   2.105   8.089 -0.3644 -0.4906  0.5879
 1923TIP3    H227329   5.375   2.244   8.143  0.9206 -0.3812  0.9148
 1924TIP3   OH227330   6.325   6.391   7.016  0.1078  0.3713 -0.2256
 1924TIP3    H127331   6.311   6.406   6.922 -1.9043  0.9926  0.1230
 1924TIP3    H227332   6.247   6.342   7.044  0.1538  1.1378  1.3416
 1925TIP3   OH227333   2.077   5.509   6.735 -0.3612  0.0287  0.4667
 1925TIP3    H127334   1.982   5.499   6.728 -0.9464  4.0333  0.2135
 1925TIP3    H227335   2.104   5.540   6.648  1.0408 -0.1317  0.8163
 1926TIP3   OH227336   3.487   4.171   7.853 -0.0554 -0.5807 -0.1686
 1926TIP3    H127337   3.529   4.161   7.938 -0.8354  0.1045  0.3123
 1926TIP3    H227338   3.560   4.182   7.791  0.4804  0.9801  0.6966
 1927TIP3   OH227339   4.209   2.283   1.248 -0.3213 -0.4424 -0.1796
 1927TIP3    H127340   4.131   2.240   1.214  1.1727 -2.4109 -1.3596
 1927TIP3    H227341   4.234   2.346   1.181 -1.1888  0.6251  0.4722
 1928TIP3   OH227342   3.754   1.193   8.416 -0.2457  0.2544 -0.4325
 1928TIP3    H127343   3.744   1.098   8.416  1.1703  0.0360  1.3026
 1928TIP3    H227344   3.845   1.207   8.387 -0.3618  1.0687 -0.4280
 1929TIP3   OH227345   5.591   5.880   7.944 -0.3556 -0.4270 -0.1264
 1929TIP3    H127346   5.630   5.968   7.941 -0.9030 -0.2026 -1.0000
 1929TIP3    H227347   5.517   5.889   8.004  0.7403 -0.7959  1.3483
 1930TIP3   OH227348   6.428   1.335   1.709  0.0756 -0.0755 -0.5559
 1930TIP3    H127349   6.390   1.423   1.709  0.3015  0.0481  0.6611
 1930TIP3    H227350   6.384   1.290   1.638 -1.5525  0.4063  0.0861
 1931TIP3   OH227351   1.967   2.264   7.165  0.3774  0.7413 -0.3561
 1931TIP3    H127352   1.912   2.187   7.150  2.9542 -1.0232 -1.7045
 1931TIP3    H227353   1.968   2.309   7.080  0.3186  1.2325 -0.0965
 1932TIP3   OH227354   5.587   0.872   1.347 -0.4914 -0.9494  0.9040
 1932TIP3    H127355   5.675   0.907   1.359 -0.5929  0.8119 -2.3393
 1932TIP3    H227356   5.599   0.794   1.292 -0.9733  1.2002 -2.5637
 1933TIP3   OH227357   0.442   3.089   8.205 -0.0619  0.2405 -0.5649
 1933TIP3    H127358   0.508   3.020   8.215 -0.7759 -0.4759 -0.7596
 1933TIP3    H227359   0.456   3.122   8.117 -0.5250 -0.5142 -0.9312
 1934TIP3   OH227360   4.145   6.289   7.802 -0.3273  0.2009  0.1403
 1934TIP3    H127361   4.181   6.304   7.715  1.3122  1.7054  1.0223
 1934TIP3    H227362   4.077   6.356   7.812  0.0388  0.5582  0.2901
 1935TIP3   OH227363   5.964   3.807   7.276 -0.0924 -0.2269  0.2242
 1935TIP3    H127364   5.961   3.788   7.370  0.6362 -1.1727  0.0707
 1935TIP3    H227365   6.009   3.732   7.238 -1.7463 -0.6091 -1.0871
 1936TIP3   OH227366   5.315   5.494   7.478 -0.0778 -0.2588 -0.4578
 1936TIP3    H127367   5.253   5.509   7.550  2.1983  1.5313  1.2976
 1936TIP3    H227368   5.309   5.574   7.426 -0.1170 -0.5943 -0.9650
 1937TIP3   OH227369   3.316   5.891   1.562 -0.1410  0.3022 -0.3663
 1937TIP3    H127370   3.390   5.867   1.618  0.0421 -0.4191 -0.8919
 1937TIP3    H227371   3.347   5.967   1.513  0.0275  0.3778 -0.1429
 1938TIP3   OH227372   3.772   4.459   0.862  0.2820 -0.3165  0.3824
 1938TIP3    H127373   3.740   4.408   0.788 -0.9050  0.4269  0.3545
 1938TIP3    H227374   3.802   4.542   0.824 -1.4053  0.5427  0.8038
 1939TIP3   OH227375   2.304   1.523   0.361  0.1709 -0.1231  0.0906
 1939TIP3    H127376   2.216   1.492   0.385  0.6915 -0.2973  1.8524
 1939TIP3    H227377   2.350   1.443   0.334  0.7364 -0.5869  2.2396
 1940TIP3   OH227378   1.884   0.271   7.283  0.4835  0.3419 -0.3401
 1940TIP3    H127379   1.959   0.330   7.286  1.6157 -1.0455 -0.5184
 1940TIP3    H227380   1.914   0.191   7.327 -0.5594 -0.5860 -1.2423
 1941TIP3   OH227381   3.990   3.545   8.483  0.4756  0.5946  0.5220
 1941TIP3    H127382   3.914   3.568   8.537 -0.1856 -1.9969  0.8664
 1941TIP3    H227383   4.063   3.540   8.545  0.2221 -0.0218  0.7841
 1942TIP3   OH227384   2.677   3.843   8.295  0.0944 -0.5785 -0.3378
 1942TIP3    H127385   2.737   3.854   8.368 -0.0734 -0.6530 -0.1885
 1942TIP3    H227386   2.727   3.871   8.218  0.8347 -2.0878 -0.4381
 1943TIP3   OH227387   3.152   0.535   1.397 -0.2462 -0.0212 -0.0615
 1943TIP3    H127388   3.152   0.558   1.304 -1.7940 -1.2270 -0.3965
 1943TIP3    H227389   3.065   0.560   1.428  0.2832  0.4535  1.1192
 1944TIP3   OH227390   5.509   3.723   0.520  0.4840 -0.0857 -0.1680
 1944TIP3    H127391   5.592   3.768   0.533  0.8900 -0.3562 -1.6890
 1944TIP3    H227392   5.531   3.630   0.528  0.3916 -0.1699 -0.8597
 1945TIP3   OH227393   3.005   0.292   1.460  0.2001  0.1776 -0.4502
 1945TIP3    H127394   2.973   0.244   1.537 -0.1525  0.9060 -0.1336
 1945TIP3    H227395   2.937   0.357   1.443  1.2791  1.4412 -0.0497
 1946TIP3   OH227396   2.774   0.852   8.021 -0.4970 -0.4855 -0.1060
 1946TIP3    H127397   2.869   0.862   8.022 -0.6871  1.8866  1.3060
 1946TIP3    H227398   2.747   0.869   8.112 -2.4923  2.3425 -1.0895
 1947TIP3   OH227399   5.803   0.870   0.942  0.1798 -0.3584  0.1055
 1947TIP3    H127400   5.840   0.783   0.953  0.4788  0.0601  3.6685
 1947TIP3    H227401   5.709   0.855   0.933  0.0141 -1.0995  2.3929
 1948TIP3   OH227402   2.005   3.932   7.538 -0.0184 -0.1036 -0.1983
 1948TIP3    H127403   1.922   3.969   7.507 -1.2767 -2.1034  0.5734
 1948TIP3    H227404   2.072   3.976   7.486 -1.5930  1.1171 -1.3058
 1949TIP3   OH227405   1.921   6.444   7.098 -0.3290 -0.1094  0.1765
 1949TIP3    H127406   2.007   6.420   7.064  0.1084  1.7690 -0.1761
 1949TIP3    H227407   1.901   6.528   7.055 -1.1994  0.7473  2.1497
 1950TIP3   OH227408   0.732   2.608   8.541 -0.4254  0.0312 -0.3523
 1950TIP3    H127409   0.661   2.645   8.593 -0.3339 -0.2091 -0.0526
 1950TIP3    H227410   0.805   2.669   8.552 -0.6600  0.4057 -0.8564
 1951TIP3   OH227411   1.933   6.124   1.577  0.7477 -0.2165  0.6104
 1951TIP3    H127412   1.949   6.045   1.525  0.6267 -0.0724  0.3512
 1951TIP3    H227413   2.020   6.163   1.588  0.6482  0.3770 -0.4924
 1952TIP3   OH227414   4.205   2.056   1.022  0.2370  0.1500  0.2025
 1952TIP3    H127415   4.234   1.967   1.041  1.0366  0.0951 -1.1198
 1952TIP3    H227416   4.160   2.084   1.101 -0.5510 -1.6317  0.4357
 1953TIP3   OH227417   0.066   4.168   0.793  0.2621  0.4528 -0.2652
 1953TIP3    H127418  -0.029   4.159   0.792 -0.0045  2.4766  0.6596
 1953TIP3    H227419   0.095   4.117   0.869 -0.0303 -0.4382 -0.7443
 1954TIP3   OH227420   1.620   0.030   1.828 -0.0520 -0.3625 -0.1420
 1954TIP3    H127421   1.704  -0.007   1.854 -0.7441 -0.7774  1.6291
 1954TIP3    H227422   1.563   0.019   1.905 -1.4410  0.8058 -0.9390
 1955TIP3   OH227423   5.172   2.410   7.657 -0.3249 -0.0292 -0.0434
 1955TIP3    H127424   5.172   2.475   7.586 -2.2663  0.2785  0.1660
 1955TIP3    H227425   5.177   2.461   7.737  4.3362 -0.4565  0.1883
 1956TIP3   OH227426   1.911   1.375   1.356 -0.1225 -0.4776  0.3607
 1956TIP3    H127427   1.858   1.414   1.426 -0.7583  0.6858 -0.7246
 1956TIP3    H227428   1.902   1.280   1.369 -0.1224 -0.2820  1.9133
 1957TIP3   OH227429   2.513   6.872   8.598  0.1702 -0.1271  0.1072
 1957TIP3    H127430   2.529   6.831   8.513  2.2621  1.6190 -0.4174
 1957TIP3    H227431   2.529   6.965   8.584  0.8975  0.1747  2.4946
 1958TIP3   OH227432   3.229   1.113   0.399 -0.2134 -0.1798 -0.1972
 1958TIP3    H127433   3.232   1.120   0.495 -0.8088 -0.4247 -0.1610
 1958TIP3    H227434   3.148   1.066   0.381 -1.2852  1.8893 -0.9555
 1959TIP3   OH227435   6.693   0.101   7.662  0.0153  0.3251 -0.3186
 1959TIP3    H127436   6.694   0.005   7.667 -1.8488  0.3382  1.5900
 1959TIP3    H227437   6.679   0.120   7.569  1.3471 -1.1974 -0.8730
 1960TIP3   OH227438   6.661   5.679   7.501 -0.0547 -0.0849  0.4873
 1960TIP3    H127439   6.751   5.704   7.478 -0.7835  1.2557 -1.1077
 1960TIP3    H227440   6.622   5.651   7.419 -1.8728  1.9324  0.5676
 1961TIP3   OH227441   6.668   3.432   8.077 -0.7280  0.1007  0.5724
 1961TIP3    H127442   6.755   3.465   8.057 -1.1840  0.8480 -0.2949
 1961TIP3    H227443   6.654   3.452   8.169  0.2169 -0.5132  0.8556
 1962TIP3   OH227444   2.415   1.274   0.244  0.1569  0.5477 -0.6975
 1962TIP3    H127445   2.369   1.248   0.163 -0.5727  1.4199 -0.5803
 1962TIP3    H227446   2.403   1.200   0.303  0.2167  0.1310 -1.2028
 1963TIP3   OH227447   2.504   4.425   1.166  0.0189 -0.2672 -0.2536
 1963TIP3    H127448   2.582   4.439   1.112  0.0440 -1.2797 -0.4996
 1963TIP3    H227449   2.442   4.381   1.107 -1.1563  1.4649 -0.3886
 1964TIP3   OH227450   5.069   2.892   0.119  0.3562 -0.8011  0.7076
 1964TIP3    H127451   4.976   2.867   0.119  0.2335 -0.3936 -0.1281
 1964TIP3    H227452   5.112   2.825   0.172 -0.0512 -2.4572 -0.9308
 1965TIP3   OH227453   3.409   1.079   6.303  0.1106  0.1424  0.8532
 1965TIP3    H127454   3.372   1.113   6.221  0.3600 -0.1119  0.6342
 1965TIP3    H227455   3.342   1.018   6.335  1.1699 -1.9091 -0.5977
 1966TIP3   OH227456   6.302   1.146   1.527 -0.2059 -0.0845  0.1213
 1966TIP3    H127457   6.285   1.127   1.619 -2.2559  0.8441 -0.0118
 1966TIP3    H227458   6.249   1.082   1.479 -1.2224  1.0570 -0.3550
 1967TIP3   OH227459   5.241   0.446   7.605  0.2014  0.1522 -0.2530
 1967TIP3    H127460   5.333   0.421   7.599 -0.0420 -0.4774 -2.3446
 1967TIP3    H227461   5.193   0.366   7.583 -0.8298  0.6470  0.1354
 1968TIP3   OH227462   1.958   3.829   7.962 -0.5460 -0.4201 -0.0228
 1968TIP3    H127463   1.923   3.865   8.043 -2.6377  1.5945 -1.6539
 1968TIP3    H227464   1.881   3.816   7.906  0.9118  0.0077 -2.3012
 1969TIP3   OH227465   6.395   2.849   6.978  0.1985 -0.1680 -0.3534
 1969TIP3    H127466   6.451   2.864   6.902 -0.9777  2.4203 -0.8213
 1969TIP3    H227467   6.311   2.889   6.953  0.1157  1.8382  2.7005
 1970TIP3   OH227468   0.854   4.038   7.244 -0.5495 -0.6297 -0.4447
 1970TIP3    H127469   0.763   4.066   7.247 -0.9524 -1.9401  0.3169
 1970TIP3    H227470   0.882   4.036   7.336 -0.4946 -2.4663 -0.4600
 1971TIP3   OH227471   6.176   2.161   7.608 -0.5981 -0.0990  0.8613
 1971TIP3    H127472   6.187   2.106   7.685 -0.3486 -0.3762  0.6310
 1971TIP3    H227473   6.083   2.184   7.608 -0.6072 -0.1349  1.2153
 1972TIP3   OH227474   1.721   4.219   0.136 -0.2024  0.2290  0.2648
 1972TIP3    H127475   1.787   4.260   0.192  0.1186 -0.2626  0.2435
 1972TIP3    H227476   1.761   4.216   0.049 -0.0246 -0.5909  0.3686
 1973TIP3   OH227477   1.439   4.134   6.406 -0.0647  0.0768  0.2405
 1973TIP3    H127478   1.379   4.070   6.445  0.2957 -0.8647 -0.6796
 1973TIP3    H227479   1.405   4.219   6.432 -1.2526 -0.4626  0.5040
 1974TIP3   OH227480   1.815   0.946   7.540  0.3557 -0.3333 -1.1209
 1974TIP3    H127481   1.808   0.878   7.474  0.9590 -1.8425  0.3040
 1974TIP3    H227482   1.781   0.906   7.620  2.1046  0.5038  0.1052
 1975TIP3   OH227483   2.727   6.146   0.211  0.1508 -0.1148 -0.5297
 1975TIP3    H127484   2.764   6.202   0.143 -0.0522 -0.9911 -1.3845
 1975TIP3    H227485   2.634   6.139   0.188  0.0608 -0.3305 -0.1034
 1976TIP3   OH227486   5.068   0.887   0.460  1.0628  0.0270  0.7341
 1976TIP3    H127487   5.122   0.929   0.394  0.1743 -1.2383 -0.8924
 1976TIP3    H227488   5.127   0.827   0.506  1.8535  1.4620  1.6385
 1977TIP3   OH227489   2.066   3.099   8.337 -0.0954  0.4664 -0.2227
 1977TIP3    H127490   2.028   3.186   8.340 -0.0121  0.5640 -1.4833
 1977TIP3    H227491   2.037   3.062   8.253  1.5733  0.1056 -0.6943
 1978TIP3   OH227492   1.171   3.662   0.866 -0.1202  0.0865 -0.1231
 1978TIP3    H127493   1.187   3.584   0.812 -1.1107  0.7752 -1.4748
 1978TIP3    H227494   1.254   3.677   0.912  0.3618 -1.2369 -0.5116
 1979TIP3   OH227495   3.154   4.213   2.717  0.2706 -0.3744  0.1352
 1979TIP3    H127496   3.235   4.210   2.667 -0.5785  0.1072 -1.3336
 1979TIP3    H227497   3.129   4.305   2.717 -1.1106 -0.7253 -0.8529
 1980TIP3   OH227498   5.034   1.561   6.285 -0.6326 -1.1181 -0.2721
 1980TIP3    H127499   4.992   1.508   6.352  0.5405 -0.5927  0.9106
 1980TIP3    H227500   4.977   1.551   6.208 -1.5245 -2.4330  0.5130
 1981TIP3   OH227501   3.420   6.047   7.344 -0.1805  0.3814 -0.5882
 1981TIP3    H127502   3.448   5.957   7.328 -0.5513 -0.1793  1.6224
 1981TIP3    H227503   3.346   6.040   7.404  0.7358  2.1791  0.8750
 1982TIP3   OH227504   1.579   3.091   1.290 -0.4096  0.0879 -0.5098
 1982TIP3    H127505   1.511   3.050   1.344 -1.0651  1.6668 -0.0879
 1982TIP3    H227506   1.550   3.181   1.279 -0.0331 -0.0343 -3.1078
 1983TIP3   OH227507   5.409   3.395   8.077 -0.2369 -0.0198  0.6260
 1983TIP3    H127508   5.330   3.367   8.124  0.3315 -0.7775  1.1591
 1983TIP3    H227509   5.474   3.406   8.146 -0.3720  2.5328  0.4390
 1984TIP3   OH227510   4.785   6.070   7.964 -0.1572 -0.1669  0.0613
 1984TIP3    H127511   4.795   6.143   8.024  0.6584  0.1725 -0.4703
 1984TIP3    H227512   4.774   6.111   7.878  2.2497 -0.6452 -0.5414
 1985TIP3   OH227513   1.976   1.088   1.408 -0.7793  0.0479 -0.1096
 1985TIP3    H127514   1.956   1.059   1.319  0.2255 -0.8712 -0.0628
 1985TIP3    H227515   1.915   1.039   1.463 -1.9946  1.2546 -0.3192
 1986TIP3   OH227516   3.293   1.233   7.619  0.0665 -0.5172  0.3804
 1986TIP3    H127517   3.378   1.254   7.581 -0.8256  2.4519 -0.2740
 1986TIP3    H227518   3.300   1.261   7.710 -0.0666 -0.5998  0.4162
 1987TIP3   OH227519   1.693   1.980   1.708 -0.6295  0.1007 -0.0948
 1987TIP3    H127520   1.695   1.986   1.613 -0.7219  1.7971 -0.0221
 1987TIP3    H227521   1.767   2.033   1.738  0.0787 -1.3099  0.7786
 1988TIP3   OH227522   0.131   1.767   7.214 -0.5268  0.2121 -0.0887
 1988TIP3    H127523   0.070   1.785   7.143  0.0440  0.4073 -0.5385
 1988TIP3    H227524   0.075   1.751   7.290 -1.1202  1.5273 -0.2191
 1989TIP3   OH227525   2.633   4.354   7.640 -0.3911 -0.5087 -0.0129
 1989TIP3    H127526   2.607   4.331   7.729  0.3432 -0.9282  0.0993
 1989TIP3    H227527   2.682   4.278   7.608  2.3277  0.9144  0.4689
 1990TIP3   OH227528   0.748   3.239   0.045  0.6470  0.1563  0.3618
 1990TIP3    H127529   0.800   3.242   0.125  0.0836 -0.2393  0.7577
 1990TIP3    H227530   0.689   3.314   0.051  1.0808  0.5300 -0.0225
 1991TIP3   OH227531   3.054   0.637   0.250 -0.0501  0.2754 -0.5727
 1991TIP3    H127532   3.115   0.675   0.187  1.7579  2.1808  2.0783
 1991TIP3    H227533   3.102   0.564   0.289  0.0068  0.8338  0.4568
 1992TIP3   OH227534   1.336   5.635   1.686 -0.2215 -0.4393 -0.3753
 1992TIP3    H127535   1.261   5.576   1.692 -0.2958 -0.3312 -0.2262
 1992TIP3    H227536   1.381   5.626   1.771 -0.7275  0.3700 -0.0116
 1993TIP3   OH227537   3.493   0.405   0.207  0.2580 -0.3895 -0.0767
 1993TIP3    H127538   3.540   0.486   0.225  1.8532 -1.2880 -0.0600
 1993TIP3    H227539   3.469   0.371   0.293  0.4469 -0.4288 -0.0396
 1994TIP3   OH227540   3.982   0.941   7.824 -0.0688  0.1960 -0.4630
 1994TIP3    H127541   3.998   0.922   7.917 -3.2483 -1.0143 -0.0278
 1994TIP3    H227542   4.022   0.867   7.777  0.4915  0.1740  0.0394
 1995TIP3   OH227543   6.038   4.482   0.251  0.0239  0.0907  0.4146
 1995TIP3    H127544   5.989   4.482   0.333 -0.7668  0.4859 -0.0420
 1995TIP3    H227545   6.103   4.552   0.262 -0.2758  0.3455  0.5981
 1996TIP3   OH227546   6.079   4.802   7.085 -0.2179  0.0501 -0.1656
 1996TIP3    H127547   6.099   4.734   7.148 -0.1152 -0.1963 -0.4635
 1996TIP3    H227548   6.067   4.756   7.002 -0.4951  0.3536 -0.3003
 1997TIP3   OH227549   4.084   4.796   7.877 -0.1670  0.0741 -0.2877
 1997TIP3    H127550   4.142   4.755   7.812  0.0631 -0.6903  0.3851
 1997TIP3    H227551   4.011   4.735   7.887 -0.2147  0.1966  0.1510
 1998TIP3   OH227552   6.071   0.922   8.002  0.1152 -0.3143 -0.6933
 1998TIP3    H127553   6.071   1.009   8.040  2.7566 -1.2854  1.9705
 1998TIP3    H227554   5.996   0.921   7.942 -0.6954  3.3308  0.0343
 1999TIP3   OH227555   3.289   2.603   2.400 -0.3531 -0.6222 -0.3367
 1999TIP3    H127556   3.222   2.618   2.333  0.3703 -0.1220 -0.9554
 1999TIP3    H227557   3.253   2.532   2.454 -1.4025 -0.3245 -0.6247
 2000TIP3   OH227558   1.053   4.715   7.091 -0.0411  0.1357  0.0265
 2000TIP3    H127559   1.100   4.707   7.009 -0.4692  0.5078 -0.2615
 2000TIP3    H227560   0.965   4.681   7.072  0.6727 -2.6544  1.1238
 2001TIP3   OH227561   1.682   5.626   0.373 -0.2001 -0.3221  0.1085
 2001TIP3    H127562   1.590   5.600   0.380 -0.1440 -0.1440  1.9061
 2001TIP3    H227563   1.686   5.676   0.291 -1.7107 -0.2645  0.0304
 2002TIP3   OH227564   3.508   4.098   6.812 -0.2739  0.5401 -0.5867
 2002TIP3    H127565   3.494   4.026   6.750 -0.2904  0.9571 -1.0811
 2002TIP3    H227566   3.420   4.127   6.836 -0.2880 -0.3338  0.5045
 2003TIP3   OH227567   4.220   4.315   1.461  0.7154  0.1534  0.2041
 2003TIP3    H127568   4.283   4.306   1.389  0.8601 -1.5050  0.5058
 2003TIP3    H227569   4.135   4.321   1.418  0.9024  0.4345 -0.1365
 2004TIP3   OH227570   2.680   0.410   0.725  0.1215 -0.4589 -0.4270
 2004TIP3    H127571   2.632   0.432   0.646 -0.9256 -2.6020 -0.4645
 2004TIP3    H227572   2.771   0.430   0.704 -0.2568 -0.1318 -1.8504
 2005TIP3   OH227573   4.875   3.243   8.569 -0.6327  1.0068 -0.1918
 2005TIP3    H127574   4.803   3.190   8.605 -1.6379  2.4243 -0.0063
 2005TIP3    H227575   4.836   3.287   8.494  0.6522  0.2767 -1.3300
 2006TIP3   OH227576   0.555   5.359   8.163  0.0275  0.3389 -0.1984
 2006TIP3    H127577   0.603   5.312   8.232  1.8251  0.1895 -1.4750
 2006TIP3    H227578   0.623   5.400   8.111 -1.1063 -0.9600 -2.9075
 2007TIP3   OH227579   5.935   5.319   0.869  0.0445 -0.4422 -0.1107
 2007TIP3    H127580   5.947   5.402   0.824 -0.4129  0.0867  0.7201
 2007TIP3    H227581   5.952   5.339   0.961 -0.1672 -1.2486  0.1125
 2008TIP3   OH227582   3.423   2.902   1.074  0.3375  0.3975 -0.0303
 2008TIP3    H127583   3.387   2.854   1.149  0.1224 -1.0513 -1.0309
 2008TIP3    H227584   3.495   2.953   1.112 -1.5978  2.0094  1.6783
 2009TIP3   OH227585   5.483   6.874   5.946 -0.2339 -0.2316  0.1410
 2009TIP3    H127586   5.484   6.880   6.042 -0.4355  0.2621  0.1139
 2009TIP3    H227587   5.570   6.842   5.923  0.6221  1.7999  0.3602
 2010TIP3   OH227588   3.532   3.749   7.274  0.0628  0.0200 -0.2083
 2010TIP3    H127589   3.562   3.700   7.197 -1.4808 -0.3809 -0.5769
 2010TIP3    H227590   3.510   3.836   7.240 -0.5082 -0.1214 -0.2117
 2011TIP3   OH227591   0.998   2.533   6.194  0.6007  0.1358  0.0666
 2011TIP3    H127592   1.014   2.459   6.252 -1.0763 -0.8191 -0.6456
 2011TIP3    H227593   0.968   2.494   6.112 -2.7485  1.5776  0.4349
 2012TIP3   OH227594   1.727   5.043   6.481 -0.6479  0.0491 -0.0139
 2012TIP3    H127595   1.669   5.092   6.423 -1.2130 -0.2709  0.2714
 2012TIP3    H227596   1.812   5.086   6.471 -1.0132  0.7624 -0.1595
 2013TIP3   OH227597   6.183   3.823   6.878  0.2405  0.3960 -0.4037
 2013TIP3    H127598   6.222   3.772   6.807  0.4678  1.4776 -1.0704
 2013TIP3    H227599   6.149   3.901   6.835 -1.5250  0.0894  0.3576
 2014TIP3   OH227600   6.489   5.412   1.257 -0.4278 -0.0675 -0.2709
 2014TIP3    H127601   6.425   5.422   1.328 -0.1118  0.9372 -0.1066
 2014TIP3    H227602   6.478   5.322   1.227 -0.9472 -0.3406  0.6896
 2015TIP3   OH227603   4.036   0.448   0.222 -0.0908 -0.2214 -0.1653
 2015TIP3    H127604   4.079   0.455   0.137  0.7308  0.2928  0.2815
 2015TIP3    H227605   3.983   0.528   0.229 -0.9189 -0.7170 -0.5907
 2016TIP3   OH227606   5.982   1.521   0.729 -0.0357 -0.1449 -0.2269
 2016TIP3    H127607   6.010   1.533   0.820 -2.3069  0.9519  0.4117
 2016TIP3    H227608   6.051   1.563   0.677 -0.6577  3.0431  1.2679
 2017TIP3   OH227609   3.440   0.916   0.267  0.5761  0.0791  0.2426
 2017TIP3    H127610   3.445   0.975   0.342 -0.0740  0.4387  0.0082
 2017TIP3    H227611   3.474   0.966   0.194  0.0124  0.1793  0.0409
 2018TIP3   OH227612   2.762   0.492   7.852  0.2675  0.2148  0.3684
 2018TIP3    H127613   2.807   0.543   7.920 -0.6563 -2.2172  2.9892
 2018TIP3    H227614   2.813   0.412   7.845 -0.1891  0.0432 -1.1960
 2019TIP3   OH227615   0.515   6.082   7.418  0.4100  0.0671 -0.2180
 2019TIP3    H127616   0.420   6.085   7.427  0.4010 -1.6711  0.6690
 2019TIP3    H227617   0.547   6.143   7.485 -0.0776  0.6899 -0.5478
 2020TIP3   OH227618   3.913   5.987   6.989  0.1897  0.1554  0.4295
 2020TIP3    H127619   3.935   5.997   6.897  1.6992  1.6774  0.8934
 2020TIP3    H227620   3.843   6.051   7.004 -2.4636 -2.3473 -0.2921
 2021TIP3   OH227621   5.219   5.941   0.444  0.0620 -0.4977 -0.2684
 2021TIP3    H127622   5.187   6.020   0.401  1.7059  0.8203  0.7740
 2021TIP3    H227623   5.196   5.953   0.536  2.9340  0.3236  0.4585
 2022TIP3   OH227624   5.450   3.617   1.245  0.2782 -0.4010 -0.4738
 2022TIP3    H127625   5.534   3.661   1.257  0.3939 -0.5734 -0.6354
 2022TIP3    H227626   5.390   3.661   1.305  0.0599  0.8626 -1.5863
 2023TIP3   OH227627   4.755   6.064   8.410  0.3243  0.4661  0.2993
 2023TIP3    H127628   4.736   6.151   8.445  0.7200  0.4748  0.5052
 2023TIP3    H227629   4.768   6.078   8.317  1.8730  0.8880  0.5487
 2024TIP3   OH227630   1.909   2.253   2.531 -0.3763  0.0389 -0.3026
 2024TIP3    H127631   1.825   2.215   2.505 -0.2435 -0.6302  0.2077
 2024TIP3    H227632   1.971   2.179   2.525  0.1730  0.5190 -0.6685
 2025TIP3   OH227633   4.957   3.397   1.569 -0.4623  0.2163 -0.5301
 2025TIP3    H127634   4.887   3.404   1.634  0.7165 -0.7694  0.8808
 2025TIP3    H227635   4.977   3.304   1.565  0.1345  0.3708 -1.6523
 2026TIP3   OH227636   3.700   3.166   7.233 -0.3830 -0.8302 -0.1533
 2026TIP3    H127637   3.632   3.216   7.189 -1.2799 -0.0146  2.0215
 2026TIP3    H227638   3.653   3.097   7.279  0.5423 -1.7846 -0.5812
 2027TIP3   OH227639   6.758   3.057   6.869 -0.4140 -0.8226 -0.4049
 2027TIP3    H127640   6.842   3.031   6.906  0.2952  0.3091 -1.1470
 2027TIP3    H227641   6.770   3.049   6.774 -1.1338 -0.6057 -0.5267
 2028TIP3   OH227642   3.419   3.418   8.472  0.2568  0.1317  0.4041
 2028TIP3    H127643   3.501   3.385   8.435 -0.0915 -1.3742  0.8882
 2028TIP3    H227644   3.353   3.391   8.408 -0.0378 -0.1070  0.8062
 2029TIP3   OH227645   2.184   4.744   8.217 -0.6025 -0.2250  0.0017
 2029TIP3    H127646   2.192   4.649   8.216  0.2736 -0.1909  1.8041
 2029TIP3    H227647   2.101   4.760   8.263  0.5029 -0.1088  2.0603
 2030TIP3   OH227648   1.089   6.220   8.237 -0.1703 -0.3925  0.2527
 2030TIP3    H127649   1.133   6.304   8.222  0.0951 -0.5185  0.3116
 2030TIP3    H227650   1.094   6.176   8.152  0.1245 -0.5489  0.3518
 2031TIP3   OH227651   0.146   5.572   1.731  0.2959 -0.0852  0.4385
 2031TIP3    H127652   0.074   5.606   1.785 -0.9351  0.6984 -1.5603
 2031TIP3    H227653   0.216   5.637   1.741  0.1959 -0.1124  1.3188
 2032TIP3   OH227654   1.592   6.257   0.788  0.0575 -0.1930  0.5608
 2032TIP3    H127655   1.561   6.200   0.858  0.1403 -1.8034 -0.6629
 2032TIP3    H227656   1.513   6.300   0.754 -0.1901 -0.6196  0.5975
 2033TIP3   OH227657   0.984   0.547   7.735 -0.0949  0.5258  1.0025
 2033TIP3    H127658   0.889   0.542   7.730 -0.0772  0.8151  0.3663
 2033TIP3    H227659   1.010   0.465   7.778 -0.5041 -0.4402 -0.5153
 2034TIP3   OH227660   1.232   1.671   1.840 -0.5579  0.2877 -0.0818
 2034TIP3    H127661   1.304   1.734   1.849 -1.1497  0.7410  1.8403
 2034TIP3    H227662   1.245   1.609   1.912  0.2508 -2.1503 -2.1331
 2035TIP3   OH227663   4.114   2.137   7.535  0.0148  0.4392  0.2341
 2035TIP3    H127664   4.031   2.132   7.488  0.5830 -0.7102 -0.6861
 2035TIP3    H227665   4.113   2.062   7.595 -0.0563  1.0368  0.9997
 2036TIP3   OH227666   3.528   1.793   1.540  0.4851  0.1969 -0.3807
 2036TIP3    H127667   3.527   1.701   1.514  0.1203  0.7000 -2.2668
 2036TIP3    H227668   3.490   1.793   1.628  2.1331 -1.6358  0.4173
 2037TIP3   OH227669   5.157   4.169   8.476  0.4747  0.2814  0.0648
 2037TIP3    H127670   5.203   4.106   8.420  1.0924 -0.4542  1.3407
 2037TIP3    H227671   5.147   4.123   8.560  2.5407  2.4964  1.6349
 2038TIP3   OH227672   6.033   3.637   7.045  0.3098  0.1703  0.2511
 2038TIP3    H127673   6.063   3.547   7.034  3.0446  0.7118  2.1652
 2038TIP3    H227674   6.110   3.691   7.023 -0.6137  1.9157  1.0746
 2039TIP3   OH227675   4.182   4.127   7.600 -0.3400 -0.0038  0.1646
 2039TIP3    H127676   4.164   4.104   7.691 -0.6768 -2.3335 -0.4333
 2039TIP3    H227677   4.277   4.114   7.590 -0.1067  1.3256  0.4233
 2040TIP3   OH227678   6.491   1.711   7.737 -0.0804  0.1644  0.4213
 2040TIP3    H127679   6.559   1.779   7.737 -0.9609  1.1689 -2.1803
 2040TIP3    H227680   6.425   1.743   7.797 -0.0562  1.1820 -0.0755
 2041TIP3   OH227681   4.751   2.213   6.378 -0.1826  0.0743 -0.7966
 2041TIP3    H127682   4.726   2.289   6.325  0.1904  1.9984  1.5623
 2041TIP3    H227683   4.671   2.188   6.424  0.3413  1.1176  0.7705
 2042TIP3   OH227684   2.758   1.233   7.058 -0.8953  0.0728  0.3792
 2042TIP3    H127685   2.779   1.198   6.971 -0.5086 -0.6985  0.7719
 2042TIP3    H227686   2.667   1.260   7.052 -0.2034  2.4140 -1.0326
 2043TIP3   OH227687   4.616   3.692   0.709  0.0629 -0.1328  0.6484
 2043TIP3    H127688   4.603   3.615   0.765  1.2697 -0.6445  0.2618
 2043TIP3    H227689   4.587   3.664   0.622 -0.0899  0.0555  0.6382
 2044TIP3   OH227690   1.531   6.040   8.071  0.2740  0.0361 -0.2122
 2044TIP3    H127691   1.589   5.992   8.012 -0.0810 -0.4058 -0.2010
 2044TIP3    H227692   1.588   6.065   8.144  1.1915  2.1924 -1.5406
 2045TIP3   OH227693   3.448   3.278   2.294 -0.5687 -0.2401 -0.7630
 2045TIP3    H127694   3.443   3.259   2.388  0.3185 -1.9987 -1.0405
 2045TIP3    H227695   3.541   3.271   2.273 -0.6547  0.9071 -1.6553
 2046TIP3   OH227696   3.136   0.205   7.828 -0.2974 -0.6510  0.2202
 2046TIP3    H127697   3.060   0.188   7.772 -2.3812  1.2206  2.2445
 2046TIP3    H227698   3.171   0.288   7.797  1.1199 -1.6006 -0.8291
 2047TIP3   OH227699   3.105   1.315   0.010  0.3444 -0.2188 -0.1851
 2047TIP3    H127700   3.078   1.399  -0.027  0.1423  0.4540  1.3727
 2047TIP3    H227701   3.121   1.335   0.103 -0.0768 -1.9848  0.2946
 2048TIP3   OH227702   6.376   3.522   0.328  0.6289 -0.2744 -0.5085
 2048TIP3    H127703   6.378   3.428   0.310 -1.0858 -0.4392 -0.0174
 2048TIP3    H227704   6.351   3.528   0.420 -1.9259  0.6461 -1.1717
 2049TIP3   OH227705   0.137   0.751   0.004 -0.3233 -0.0923 -0.0326
 2049TIP3    H127706   0.137   0.656  -0.004 -1.7674 -0.2328  1.1648
 2049TIP3    H227707   0.142   0.783  -0.086 -0.2628 -1.2841 -0.4757
 2050TIP3   OH227708   6.053   5.105   7.613 -0.3469  0.4979 -1.0459
 2050TIP3    H127709   6.052   5.049   7.536 -0.2762 -2.1506  0.7455
 2050TIP3    H227710   6.146   5.125   7.627 -0.2234 -0.1271 -0.9324
 2051TIP3   OH227711   1.906   0.979   1.181 -0.3018 -0.1467 -0.1165
 2051TIP3    H127712   1.830   0.955   1.128 -0.4692 -1.2444  0.5709
 2051TIP3    H227713   1.977   0.924   1.146  0.0470  0.4777 -0.4014
 2052TIP3   OH227714   5.347   5.890   8.107  0.1610  0.6688 -0.2133
 2052TIP3    H127715   5.287   5.816   8.098  0.9331  0.0596 -0.4642
 2052TIP3    H227716   5.388   5.877   8.192 -0.0502  1.0795 -0.0467
 2053TIP3   OH227717   2.160   6.237   6.440 -0.1273 -0.1604  0.0550
 2053TIP3    H127718   2.099   6.203   6.374 -0.8830  0.0748  0.6161
 2053TIP3    H227719   2.165   6.331   6.421 -2.4843  0.4446  1.9445
 2054TIP3   OH227720   0.961   5.563   0.716 -0.3330 -0.5740 -0.2188
 2054TIP3    H127721   0.899   5.524   0.777 -2.0489 -1.3912 -2.3488
 2054TIP3    H227722   1.000   5.488   0.670  3.5881 -0.2528  2.0676
 2055TIP3   OH227723   3.877   4.212   0.024  0.1409  0.3289  0.4288
 2055TIP3    H127724   3.825   4.149   0.073  0.2417  0.6165  0.9177
 2055TIP3    H227725   3.957   4.165   0.001  0.4976  0.4669  1.3502
 2056TIP3   OH227726   4.649   2.440   2.282 -0.3138 -0.0421 -0.5824
 2056TIP3    H127727   4.703   2.405   2.211  1.0659  1.1230 -0.1486
 2056TIP3    H227728   4.615   2.523   2.249 -0.1897  0.1980 -0.1204
 2057TIP3   OH227729   2.236   5.918   8.014  0.5339  0.5936 -0.4947
 2057TIP3    H127730   2.262   5.834   8.051 -1.4171  0.9785  1.9934
 2057TIP3    H227731   2.312   5.975   8.025  1.1148 -0.2336 -0.1742
 2058TIP3   OH227732   5.771   6.206   0.023 -0.4560 -1.6432  0.1139
 2058TIP3    H127733   5.843   6.189   0.083  0.2340 -0.8921 -0.4953
 2058TIP3    H227734   5.751   6.120  -0.014  0.3602 -1.8003  0.0242
 2059TIP3   OH227735   4.174   3.419   0.663 -0.3296  0.3418  0.4246
 2059TIP3    H127736   4.196   3.402   0.755 -0.8266  0.3080  0.5420
 2059TIP3    H227737   4.116   3.347   0.638  1.3728 -0.7455 -0.5247
 2060TIP3   OH227738   2.174   3.188   0.635 -0.3748  0.2271 -0.0517
 2060TIP3    H127739   2.246   3.195   0.698  0.2247  0.4484 -0.7512
 2060TIP3    H227740   2.144   3.278   0.622  0.3819  0.3462 -1.0741
 2061TIP3   OH227741   0.046   5.856   8.593  0.1290  0.4504 -0.4362
 2061TIP3    H127742   0.136   5.887   8.586 -0.5454  2.8656  0.4515
 2061TIP3    H227743  -0.003   5.910   8.532 -0.9119 -0.0308 -0.0494
 2062TIP3   OH227744   5.723   3.627   7.829 -0.7929 -0.9000 -0.3176
 2062TIP3    H127745   5.779   3.645   7.753  0.0075 -2.1122 -0.0518
 2062TIP3    H227746   5.699   3.535   7.819 -1.6345 -0.7494  0.2920
 2063TIP3   OH227747   3.075   5.977   1.683  0.2331  0.4800 -0.1149
 2063TIP3    H127748   3.029   5.921   1.745  0.3418 -0.2194 -0.6503
 2063TIP3    H227749   3.161   5.935   1.673  0.0964  0.3930 -0.9847
 2064TIP3   OH227750   2.600   5.589   8.548 -0.1141 -0.0352 -0.4810
 2064TIP3    H127751   2.602   5.560   8.639  1.6828 -1.0972 -0.8309
 2064TIP3    H227752   2.506   5.600   8.529 -0.5082  0.7948  1.6396
 2065TIP3   OH227753   1.899   5.245   1.671  0.7391 -0.8014 -0.4796
 2065TIP3    H127754   1.853   5.188   1.732  0.9497 -0.1920  0.2768
 2065TIP3    H227755   1.831   5.281   1.614  0.2985 -0.0987  0.4712
 2066TIP3   OH227756   1.114   2.710   7.374  0.1588 -0.3012  0.6548
 2066TIP3    H127757   1.149   2.707   7.285 -1.7758  1.5766 -0.2627
 2066TIP3    H227758   1.077   2.623   7.388 -1.2777 -0.0511 -1.2056
 2067TIP3   OH227759   6.821   1.803   1.910 -0.3397  0.0077  0.5496
 2067TIP3    H127760   6.836   1.880   1.855 -1.2748  0.1280  0.4462
 2067TIP3    H227761   6.730   1.811   1.939 -0.1470 -0.5375  1.3652
 2068TIP3   OH227762   1.715   6.062   7.589  0.1086 -0.3960  0.0977
 2068TIP3    H127763   1.792   6.112   7.615  1.2187 -0.8832 -2.0439
 2068TIP3    H227764   1.641   6.116   7.615  1.0892 -0.2836  2.9874
 2069TIP3   OH227765   2.870   1.793   1.231  0.0635  0.2638  0.3047
 2069TIP3    H127766   2.954   1.748   1.230 -0.1828 -0.2954  1.8393
 2069TIP3    H227767   2.813   1.739   1.176  0.4434  0.0857  0.0848
 2070TIP3   OH227768   2.724   2.460   0.828  0.2294  0.2481 -0.4873
 2070TIP3    H127769   2.817   2.478   0.841  0.2928 -1.4048  2.0930
 2070TIP3    H227770   2.681   2.544   0.843  1.1791  0.6230  0.2158
 2071TIP3   OH227771   4.436   5.883   1.627  0.2991  1.0369  0.0402
 2071TIP3    H127772   4.434   5.883   1.723  1.2281  1.2716  0.0675
 2071TIP3    H227773   4.525   5.857   1.605 -0.2501 -0.2955 -0.7855
 2072TIP3   OH227774   2.093   2.634   1.882 -0.2426 -0.8254 -0.1241
 2072TIP3    H127775   2.134   2.655   1.798  0.3310 -0.4346  0.2543
 2072TIP3    H227776   2.128   2.698   1.943 -1.6594 -0.2654  0.1411
 2073TIP3   OH227777   2.272   6.008   8.407  0.2795  0.2739  0.6687
 2073TIP3    H127778   2.287   6.097   8.377  0.5964 -0.1492 -0.4698
 2073TIP3    H227779   2.193   5.980   8.362 -0.8393  0.5560  2.3572
 2074TIP3   OH227780   0.170   1.656   8.342 -0.2468 -0.0788  0.3355
 2074TIP3    H127781   0.176   1.564   8.366 -0.8007 -0.3932 -0.7113
 2074TIP3    H227782   0.191   1.659   8.249  1.6584  1.0963  0.7298
 2075TIP3   OH227783   6.831   0.500   8.052 -0.5560 -0.0688  0.1372
 2075TIP3    H127784   6.816   0.548   8.133  0.8555  0.7607 -0.0557
 2075TIP3    H227785   6.826   0.408   8.078 -0.3342  0.1846  1.1308
 2076TIP3   OH227786   4.359   4.729   0.859 -0.2467  0.1066  0.8277
 2076TIP3    H127787   4.319   4.673   0.792  0.2687 -1.5933  1.8852
 2076TIP3    H227788   4.313   4.812   0.850 -3.3204 -1.3859  1.2479
 2077TIP3   OH227789   6.448   4.538   6.239 -0.6985 -0.6277 -0.5860
 2077TIP3    H127790   6.424   4.617   6.191 -3.0724  0.2235  1.7650
 2077TIP3    H227791   6.365   4.492   6.253 -0.3033 -0.5720  2.9376
 2078TIP3   OH227792   4.043   6.817   0.567  0.1601 -1.1066  0.1234
 2078TIP3    H127793   4.120   6.853   0.611  0.8206 -0.5331 -1.4084
 2078TIP3    H227794   4.027   6.878   0.494 -0.2481 -2.5403 -1.0267
 2079TIP3   OH227795   4.399   1.930   8.092 -0.3617 -0.4526 -0.1445
 2079TIP3    H127796   4.444   1.910   8.010  1.5484  0.7861  0.5466
 2079TIP3    H227797   4.447   1.880   8.158 -0.4247  0.3519  0.5263
 2080TIP3   OH227798   6.290   5.777   0.200 -0.2018  0.2903 -0.1443
 2080TIP3    H127799   6.342   5.795   0.279  1.3046 -1.8600 -0.5697
 2080TIP3    H227800   6.210   5.736   0.232 -1.6122  3.2567  0.4888
 2081TIP3   OH227801   2.274   1.176   7.419  0.6485 -0.1862 -0.1940
 2081TIP3    H127802   2.241   1.226   7.345 -0.0705 -0.3454  0.0193
 2081TIP3    H227803   2.362   1.149   7.392  1.2440  1.5813 -0.1152
 2082TIP3   OH227804   3.383   5.735   2.165  0.0019 -0.0683  0.0367
 2082TIP3    H127805   3.458   5.697   2.212 -1.1811  0.6908  2.7919
 2082TIP3    H227806   3.412   5.823   2.141  1.3614 -1.1825 -2.7468
 2083TIP3   OH227807   2.395   2.315   6.541  0.5455 -0.3286 -0.0169
 2083TIP3    H127808   2.310   2.305   6.584 -0.2716 -0.1641 -1.5360
 2083TIP3    H227809   2.415   2.408   6.549 -0.0641 -0.1170 -0.7769
 2084TIP3   OH227810   6.638   2.370   7.793 -0.2004  0.3745 -0.5869
 2084TIP3    H127811   6.581   2.439   7.827 -0.6982 -0.7837  1.0291
 2084TIP3    H227812   6.585   2.290   7.799  1.1200 -0.5074 -0.3118
 2085TIP3   OH227813   4.092   4.904   8.227  0.1282 -0.4320 -0.5513
 2085TIP3    H127814   4.184   4.916   8.205  0.1457 -2.2376 -1.6388
 2085TIP3    H227815   4.057   4.993   8.232  1.7110  0.2507 -1.0601
 2086TIP3   OH227816   5.814   6.132   1.193  0.4695  0.0288 -0.2570
 2086TIP3    H127817   5.779   6.125   1.282 -0.8167 -1.6851 -0.8449
 2086TIP3    H227818   5.909   6.140   1.205  0.2763  0.3818  1.2635
 2087TIP3   OH227819   0.629   5.225   1.268 -0.1119 -0.1524 -0.2474
 2087TIP3    H127820   0.579   5.176   1.202 -1.2042  0.6363 -0.0323
 2087TIP3    H227821   0.593   5.195   1.351  0.0147  0.1760 -0.0754
 2088TIP3   OH227822   2.143   0.530   1.537 -0.1311 -0.2416  0.3122
 2088TIP3    H127823   2.223   0.543   1.487  0.8449  0.3888  1.9610
 2088TIP3    H227824   2.078   0.503   1.472  1.7237 -2.0987 -0.8961
 2089TIP3   OH227825   5.891   0.562   6.847  0.5624  0.0491 -0.0478
 2089TIP3    H127826   5.918   0.477   6.812 -0.5877 -0.3303 -0.0551
 2089TIP3    H227827   5.943   0.626   6.798  1.7261 -0.6612  0.2381
 2090TIP3   OH227828   5.964   1.008   1.830 -0.4174 -0.5222 -0.1030
 2090TIP3    H127829   6.015   1.082   1.864  0.6926 -1.8159  1.1953
 2090TIP3    H227830   5.909   0.981   1.903  0.0066 -1.6543 -0.1837
 2091TIP3   OH227831   5.845   1.032   7.380  0.3996 -0.3424  0.0770
 2091TIP3    H127832   5.867   0.948   7.340 -1.1303 -0.3564 -0.8167
 2091TIP3    H227833   5.807   1.084   7.309  0.3465  0.7211  0.8563
 2092TIP3   OH227834   6.710   1.297   7.585 -0.0334  0.3685  0.6079
 2092TIP3    H127835   6.638   1.238   7.561  0.3908 -0.2660  0.8506
 2092TIP3    H227836   6.683   1.383   7.554 -0.5474 -0.0061  0.0060
 2093TIP3   OH227837   4.752   0.037   0.873  0.6413 -0.1153  0.0919
 2093TIP3    H127838   4.838   0.018   0.834  0.8564  0.7058  0.1368
 2093TIP3    H227839   4.755  -0.006   0.959  0.4464 -1.3060 -0.4840
 2094TIP3   OH227840   3.358   3.582   7.444  0.4794 -0.0661 -0.1746
 2094TIP3    H127841   3.443   3.601   7.404 -0.0853  0.2771 -1.2622
 2094TIP3    H227842   3.306   3.661   7.428  0.1441 -0.0252  1.0392
 2095TIP3   OH227843   5.701   3.877   0.800 -0.4782  0.6250  0.2412
 2095TIP3    H127844   5.764   3.924   0.854 -1.2292  1.6933  0.2214
 2095TIP3    H227845   5.628   3.857   0.859 -0.6099  0.3885  0.0000
 2096TIP3   OH227846   3.490   3.787   0.228  0.0103 -0.4076 -0.4747
 2096TIP3    H127847   3.520   3.718   0.168  0.4168 -0.5055 -0.1618
 2096TIP3    H227848   3.570   3.827   0.260 -0.1870 -0.6772  0.3832
 2097TIP3   OH227849   0.107   4.545   1.613 -0.2854 -0.3627 -0.2262
 2097TIP3    H127850   0.067   4.508   1.691  0.0178 -0.0274  0.0924
 2097TIP3    H227851   0.075   4.490   1.541 -1.9250  0.3717 -0.0874
 2098TIP3   OH227852   0.011   5.383   1.027  0.0224 -0.4440  0.3222
 2098TIP3    H127853   0.025   5.301   0.980 -2.0789 -0.9623  0.5102
 2098TIP3    H227854  -0.010   5.356   1.117  0.0492  0.3269  0.5666
 2099TIP3   OH227855   0.195   0.629   2.101 -0.0122  0.3356  0.8474
 2099TIP3    H127856   0.260   0.641   2.170  0.0696  0.5977  0.7274
 2099TIP3    H227857   0.122   0.684   2.126 -0.7907 -1.0529  1.7188
 2100TIP3   OH227858   0.393   4.016   1.379  0.1554  0.1098 -0.1714
 2100TIP3    H127859   0.321   4.055   1.330  0.3806 -2.0860 -2.4348
 2100TIP3    H227860   0.470   4.026   1.322  0.9488 -0.5037  0.7517
 2101TIP3   OH227861   5.565   4.119   7.632 -0.2236 -0.7564 -0.4234
 2101TIP3    H127862   5.607   4.118   7.546 -0.3608 -2.0453 -0.4868
 2101TIP3    H227863   5.624   4.071   7.689 -0.4520 -0.4791  0.0590
 2102TIP3   OH227864   3.096   2.759   0.744  0.2502  0.3322  0.6737
 2102TIP3    H127865   3.180   2.713   0.743 -0.0275 -0.2356 -1.4856
 2102TIP3    H227866   3.035   2.699   0.787  0.9083  0.7807  2.3292
 2103TIP3   OH227867   2.735   3.882   6.998  0.1417  0.2393  0.4206
 2103TIP3    H127868   2.693   3.838   6.923 -0.9592  1.5873  0.2106
 2103TIP3    H227869   2.828   3.863   6.987 -0.1049 -0.4550 -0.7126
 2104TIP3   OH227870   2.388   0.347   0.239 -0.1626  0.0217 -0.0154
 2104TIP3    H127871   2.382   0.252   0.244 -0.8149  0.0349 -0.3186
 2104TIP3    H227872   2.368   0.367   0.147 -4.1985  0.6651  0.7953
 2105TIP3   OH227873   1.837   5.788   8.272  0.6364 -0.3159  0.0622
 2105TIP3    H127874   1.750   5.751   8.261  0.1685 -0.3764  3.0012
 2105TIP3    H227875   1.895   5.712   8.283  0.6910 -0.2603  0.1704
 2106TIP3   OH227876   3.256   1.168   7.339 -0.1377 -0.0479 -0.2530
 2106TIP3    H127877   3.181   1.144   7.284  1.1700 -1.9732 -1.3106
 2106TIP3    H227878   3.227   1.154   7.429 -1.1221 -0.4646 -0.6296
 2107TIP3   OH227879   3.107   2.680   1.818 -0.4687  0.1075  0.4561
 2107TIP3    H127880   3.180   2.724   1.862  1.3848 -0.8758 -1.4222
 2107TIP3    H227881   3.118   2.588   1.842  1.1613 -0.6193 -2.5436
 2108TIP3   OH227882   1.611   3.890   8.220 -0.1515 -0.1065  0.6931
 2108TIP3    H127883   1.587   3.882   8.127  2.4930  1.5966 -0.2708
 2108TIP3    H227884   1.597   3.803   8.256 -0.7055 -0.9850 -1.4518
 2109TIP3   OH227885   0.887   6.586   8.497 -0.2473  0.4967  0.1882
 2109TIP3    H127886   0.800   6.564   8.531  0.0425 -1.0234  0.0056
 2109TIP3    H227887   0.947   6.566   8.569  0.3221 -2.2989 -0.9538
 2110TIP3   OH227888   0.996   2.626   1.868 -0.0057 -1.0482  0.7620
 2110TIP3    H127889   0.987   2.585   1.782 -0.8553 -0.9631  0.8057
 2110TIP3    H227890   0.913   2.608   1.912 -0.2023  0.2768  0.9726
 2111TIP3   OH227891   2.338   4.866   0.127 -0.4872  0.4144  0.2448
 2111TIP3    H127892   2.410   4.924   0.153 -0.4568  0.4108  0.1705
 2111TIP3    H227893   2.261   4.924   0.122 -0.3028  0.6038 -0.5820
 2112TIP3   OH227894   0.926   1.520   1.510  0.3040  0.1106  0.7613
 2112TIP3    H127895   0.881   1.535   1.594 -0.6044 -0.4483  0.3939
 2112TIP3    H227896   0.867   1.558   1.445  0.8338  0.2145  0.3384
 2113TIP3   OH227897   2.733   5.604   8.230 -0.2257  0.5772  0.1108
 2113TIP3    H127898   2.807   5.546   8.212 -0.4026  0.7386 -1.2189
 2113TIP3    H227899   2.675   5.553   8.287 -0.5500 -0.7055 -1.3219
 2114TIP3   OH227900   0.447   2.588   7.180 -0.0736  0.0138 -0.1190
 2114TIP3    H127901   0.405   2.521   7.126  0.7036  0.8824 -1.8928
 2114TIP3    H227902   0.536   2.556   7.193  0.6458  1.1323 -1.9086
 2115TIP3   OH227903   2.152   0.954   0.760  0.2807  0.5663 -0.2530
 2115TIP3    H127904   2.218   0.908   0.707  0.3956  0.8182 -0.3312
 2115TIP3    H227905   2.069   0.929   0.721  0.3466  0.4854 -0.3438
 2116TIP3   OH227906   6.435   6.112   0.824  0.2747 -0.0362 -0.6814
 2116TIP3    H127907   6.391   6.065   0.895 -0.3840 -0.1238 -1.1408
 2116TIP3    H227908   6.527   6.085   0.830  0.2570  0.0811  0.2320
 2117TIP3   OH227909   1.511   5.601   6.506 -0.0062  0.8849  0.0464
 2117TIP3    H127910   1.470   5.681   6.472  0.5924  0.9687 -0.5032
 2117TIP3    H227911   1.442   5.558   6.556 -0.7380  1.0690 -0.7891
 2118TIP3   OH227912   3.973   3.583   6.885 -0.1285  0.0953 -0.5669
 2118TIP3    H127913   4.006   3.535   6.961  0.6151 -0.9158 -1.5024
 2118TIP3    H227914   4.039   3.650   6.869  0.2013 -0.3040 -0.8950
 2119TIP3   OH227915   0.380   1.606   8.181 -0.4485 -0.1521 -0.4520
 2119TIP3    H127916   0.406   1.688   8.223  0.9443 -0.7424 -0.1310
 2119TIP3    H227917   0.441   1.596   8.108  1.3830 -2.3641  1.2445
 2120TIP3   OH227918   1.402   5.703   6.851 -0.3033  0.0666  0.4932
 2120TIP3    H127919   1.390   5.626   6.906 -1.1401 -2.1598 -2.5362
 2120TIP3    H227920   1.342   5.690   6.778  2.3535  1.5414 -2.2068
 2121TIP3   OH227921   0.780   2.916   1.848 -0.1754  0.3282  0.4715
 2121TIP3    H127922   0.741   2.995   1.887  1.9887  0.9924  1.4569
 2121TIP3    H227923   0.759   2.846   1.909 -0.5849  0.4940  0.5258
 2122TIP3   OH227924   1.438   5.845   6.409  0.4287 -0.4362  0.1899
 2122TIP3    H127925   1.475   5.921   6.453  0.3294 -0.1644 -0.1962
 2122TIP3    H227926   1.401   5.879   6.328 -0.6228 -0.7147  0.5326
 2123TIP3   OH227927   1.776   6.801   2.028  0.5381  0.3680  0.2691
 2123TIP3    H127928   1.831   6.834   2.099  1.2089 -1.0196  0.4419
 2123TIP3    H227929   1.691   6.843   2.041  0.8656  0.7026  1.4426
 2124TIP3   OH227930   4.727   4.727   8.351  0.0330  0.5994 -0.3002
 2124TIP3    H127931   4.704   4.712   8.259 -0.9987  0.4336 -0.0237
 2124TIP3    H227932   4.709   4.643   8.394  0.3170  0.7387  0.0954
 2125TIP3   OH227933   6.284   4.327   1.634 -0.2471  0.2395  0.1269
 2125TIP3    H127934   6.239   4.325   1.719 -1.7520  1.4478 -0.5923
 2125TIP3    H227935   6.344   4.402   1.641 -0.5653  0.5052  0.0442
 2126TIP3   OH227936   6.104   1.144   8.148  0.5857 -0.3968 -0.0764
 2126TIP3    H127937   6.188   1.101   8.163  0.5760 -2.0478 -3.7332
 2126TIP3    H227938   6.125   1.218   8.091 -0.2228  0.4921  0.7507
 2127TIP3   OH227939   3.586   6.192   2.082  0.2661  0.5229 -0.0292
 2127TIP3    H127940   3.681   6.202   2.072  0.3662  0.8842  1.1441
 2127TIP3    H227941   3.573   6.183   2.176 -0.8050 -0.2796 -0.2435
 2128TIP3   OH227942   3.737   5.078   1.738 -0.3782 -0.5275 -0.3070
 2128TIP3    H127943   3.652   5.100   1.776  0.5470  1.5174  0.7366
 2128TIP3    H227944   3.753   5.148   1.674  0.0001 -1.5798 -1.4116
 2129TIP3   OH227945   1.741   1.436   7.378 -0.3697 -0.1422  0.4767
 2129TIP3    H127946   1.676   1.446   7.447 -0.9159 -2.4667  0.3811
 2129TIP3    H227947   1.802   1.370   7.412  2.7250  2.7324  1.0657
 2130TIP3   OH227948   1.018   6.323   1.551  0.2761  0.0308  0.6195
 2130TIP3    H127949   1.047   6.244   1.507 -0.3973 -0.9549  1.8658
 2130TIP3    H227950   1.083   6.389   1.528  0.1799 -0.5456 -1.4316
 2131TIP3   OH227951   4.573   5.248   8.484  0.1071  0.0110 -0.2868
 2131TIP3    H127952   4.502   5.306   8.513  0.5405  0.0164  0.8076
 2131TIP3    H227953   4.629   5.304   8.431 -0.3135  0.1974 -0.5395
 2132TIP3   OH227954   5.904   6.548   1.460 -0.3756  0.6041  0.6131
 2132TIP3    H127955   5.840   6.479   1.478 -1.2056  1.2338  0.1429
 2132TIP3    H227956   5.919   6.589   1.545 -0.6391  0.4875  0.7175
 2133TIP3   OH227957   2.914   1.119   7.976 -0.2860 -0.2530  0.1002
 2133TIP3    H127958   2.908   1.033   7.933  0.5086 -0.2727  0.0088
 2133TIP3    H227959   2.823   1.146   7.988 -0.5696  0.1797 -2.4422
 2134TIP3   OH227960   4.758   1.669   6.463  0.4044 -0.0965  0.8673
 2134TIP3    H127961   4.825   1.719   6.416 -0.0966 -0.0591  0.1805
 2134TIP3    H227962   4.804   1.592   6.495  0.7936 -0.0337  0.4648
 2135TIP3   OH227963   2.724   4.806   0.890 -0.2584 -0.0796 -0.0510
 2135TIP3    H127964   2.795   4.865   0.865 -0.5046  0.1824 -0.1455
 2135TIP3    H227965   2.709   4.826   0.983 -0.0739 -0.2790  0.0222
 2136TIP3   OH227966   2.199   0.146   0.301  0.4853  0.0534 -0.5923
 2136TIP3    H127967   2.110   0.117   0.283  0.5701  0.7394 -2.3549
 2136TIP3    H227968   2.253   0.069   0.284  0.2939 -0.1594 -0.2412
 2137TIP3   OH227969   6.539   2.646   1.665  1.0925  0.0095 -0.2670
 2137TIP3    H127970   6.582   2.616   1.745 -1.3593 -1.6944  0.4867
 2137TIP3    H227971   6.611   2.685   1.614  2.8683  0.5046  2.3832
 2138TIP3   OH227972   3.591   3.564   7.701 -0.6445  0.5495 -0.0298
 2138TIP3    H127973   3.616   3.656   7.689  0.0990  0.4039  0.4102
 2138TIP3    H227974   3.500   3.569   7.730 -0.3248  1.2014  0.9299
 2139TIP3   OH227975   5.467   2.223   1.700  0.5209  0.2569 -0.0820
 2139TIP3    H127976   5.505   2.138   1.721 -0.7624 -0.9753 -2.3391
 2139TIP3    H227977   5.536   2.269   1.653  0.6002 -0.3452 -0.5688
 2140TIP3   OH227978   1.477   4.816   1.620  0.5478 -0.2102  0.8689
 2140TIP3    H127979   1.413   4.841   1.553 -1.5357 -1.2843  2.3640
 2140TIP3    H227980   1.551   4.875   1.605 -1.0965  1.6622 -0.4381
 2141TIP3   OH227981   3.846   1.084   0.722  0.5400  0.0139  0.2693
 2141TIP3    H127982   3.833   1.016   0.655  0.6590  1.2742 -1.0913
 2141TIP3    H227983   3.769   1.139   0.714 -0.0495 -0.4935  2.0674
 2142TIP3   OH227984   6.030   6.523   1.959 -0.3459 -0.0973  0.4163
 2142TIP3    H127985   6.076   6.445   1.991 -0.4103  0.1237  1.0692
 2142TIP3    H227986   6.057   6.592   2.020 -2.4220 -0.1943  1.5364
 2143TIP3   OH227987   5.309   4.284   0.827 -0.0684 -0.0311  0.0442
 2143TIP3    H127988   5.351   4.265   0.910  0.0160  0.3395  0.0870
 2143TIP3    H227989   5.334   4.211   0.770  1.8397  0.8868 -0.3704
 2144TIP3   OH227990   3.188   0.281   0.125  0.2533  0.8205 -0.0784
 2144TIP3    H127991   3.245   0.213   0.162 -1.1473 -0.1798  0.3173
 2144TIP3    H227992   3.227   0.363   0.155  2.4321  0.2847 -1.1897
 2145TIP3   OH227993   2.493   4.794   6.750  0.2107  0.2630  0.2388
 2145TIP3    H127994   2.526   4.708   6.724  1.8345  0.9428 -0.0318
 2145TIP3    H227995   2.475   4.839   6.667  2.0999  1.1919  0.2998
 2146TIP3   OH227996   1.711   2.386   2.289 -0.0658 -0.0245 -0.2700
 2146TIP3    H127997   1.672   2.461   2.242  0.7264  0.5437 -0.0474
 2146TIP3    H227998   1.678   2.394   2.378  0.5545  0.4721 -0.0751
 2147TIP3   OH227999   6.608   0.491   7.426  0.4020  0.4503  0.3842
 2147TIP3    H128000   6.598   0.558   7.359 -2.1446  0.8681  1.0891
 2147TIP3    H228001   6.572   0.531   7.505 -0.2474 -1.4014  1.0733
 2148TIP3   OH228002   0.601   3.604   0.507 -0.0045  0.4077  0.4260
 2148TIP3    H128003   0.685   3.569   0.536  0.5222  2.4345  1.6175
 2148TIP3    H228004   0.624   3.678   0.450 -0.8871  1.8272  1.8122
 2149TIP3   OH228005   3.059   5.294   1.699  0.0240  0.6184  0.5621
 2149TIP3    H128006   3.037   5.295   1.792  1.3877  1.1843  0.9090
 2149TIP3    H228007   3.135   5.353   1.692 -0.6896  1.4023 -1.0745
 2150TIP3   OH228008   1.746   4.004   7.536 -0.2395 -0.0143 -0.0877
 2150TIP3    H128009   1.666   3.984   7.488 -0.4856 -1.2852  0.7946
 2150TIP3    H228010   1.732   3.967   7.623  0.4737  1.6129  0.7613
 2151TIP3   OH228011   3.780   1.912   7.822 -0.3987  0.2880 -0.1376
 2151TIP3    H128012   3.692   1.887   7.795 -1.2254 -0.9337  3.1889
 2151TIP3    H228013   3.838   1.871   7.758 -2.1375 -2.1473 -0.2775
 2152TIP3   OH228014   5.576   4.408   7.688 -0.2694 -0.6337 -0.6548
 2152TIP3    H128015   5.521   4.415   7.766 -1.3020  0.8421 -1.4771
 2152TIP3    H228016   5.554   4.322   7.651  0.6038 -1.5786  0.9008
 2153TIP3   OH228017   1.371   5.835   1.011  0.1989 -0.2462  0.5439
 2153TIP3    H128018   1.308   5.846   1.082 -0.4495 -0.5834  0.0315
 2153TIP3    H228019   1.407   5.922   0.997 -1.8010  0.4704 -0.6537
 2154TIP3   OH228020   1.950   6.180   7.666 -0.3338 -0.2923 -0.4009
 2154TIP3    H128021   2.016   6.139   7.722 -0.4963  2.9734  2.5704
 2154TIP3    H228022   1.988   6.265   7.643 -2.6295  0.8126 -0.3508
 2155TIP3   OH228023   2.718   3.629   0.799 -0.2345 -0.0046  0.5742
 2155TIP3    H128024   2.681   3.611   0.712  1.6457 -1.2492 -0.0323
 2155TIP3    H228025   2.760   3.547   0.824 -1.1999  0.1381  2.9594
 2156TIP3   OH228026   3.161   0.271   1.215  0.6101 -0.0016  0.4062
 2156TIP3    H128027   3.135   0.256   1.306  1.5066  1.4175  0.9345
 2156TIP3    H228028   3.100   0.339   1.185  1.7226  1.1484  0.6857
 2157TIP3   OH228029   5.755   4.844   6.546  0.2393 -0.1282  0.2693
 2157TIP3    H128030   5.694   4.874   6.479  1.7276 -0.9742 -1.5570
 2157TIP3    H228031   5.839   4.837   6.501  1.5670  0.3075  2.5099
 2158TIP3   OH228032   5.313   0.768   6.922  0.0240  0.0810  0.2238
 2158TIP3    H128033   5.317   0.678   6.890 -1.4200 -0.2521  0.8706
 2158TIP3    H228034   5.323   0.822   6.844 -0.4385 -0.6575 -0.3624
 2159TIP3   OH228035   2.657   0.210   0.392 -0.4050 -0.1487 -0.4724
 2159TIP3    H128036   2.608   0.181   0.469  1.0470 -0.1527  0.4815
 2159TIP3    H228037   2.649   0.138   0.329 -1.1316 -0.3878 -0.1162
 2160TIP3   OH228038   5.620   6.012   0.784  0.8343  0.6198  0.5256
 2160TIP3    H128039   5.648   6.069   0.713 -1.0025  0.8733 -0.0703
 2160TIP3    H228040   5.540   6.053   0.817  0.9321 -0.2087  1.8725
 2161TIP3   OH228041   0.391   4.851   6.382 -0.2406  0.5661 -0.5384
 2161TIP3    H128042   0.437   4.925   6.421  0.0336  0.8646 -1.4117
 2161TIP3    H228043   0.359   4.801   6.457  1.9122  0.0840  0.1200
 2162TIP3   OH228044   0.481   2.534   7.473  0.6210  0.2721  0.6125
 2162TIP3    H128045   0.433   2.538   7.390 -0.5833 -1.9228  1.1096
 2162TIP3    H228046   0.573   2.547   7.449  0.0936  1.7200 -0.7547
 2163TIP3   OH228047   6.280   1.658   2.427  0.3353 -0.1959 -0.1755
 2163TIP3    H128048   6.253   1.614   2.508  2.0562  0.2412  0.6827
 2163TIP3    H228049   6.252   1.748   2.439 -0.3264 -0.3474 -0.5339
 2164TIP3   OH228050   1.103   5.370   0.604  0.3589 -0.8323 -0.0450
 2164TIP3    H128051   1.133   5.349   0.516 -2.2502 -2.4294 -0.6536
 2164TIP3    H228052   1.153   5.312   0.661  0.6186 -1.2437 -0.6765
 2165TIP3   OH228053   2.839   5.597   1.363  0.5004 -0.0504  0.4911
 2165TIP3    H128054   2.746   5.598   1.339  0.8121  1.0767 -0.8373
 2165TIP3    H228055   2.839   5.578   1.457 -1.1643  1.1994  0.8106
 2166TIP3   OH228056   5.836   1.496   0.121  0.4586  0.0968 -0.3582
 2166TIP3    H128057   5.926   1.474   0.145  1.0129  3.3974  1.0699
 2166TIP3    H228058   5.845   1.543   0.037 -0.0505 -0.2958 -0.6380
 2167TIP3   OH228059   1.489   3.525   1.453  0.0478 -0.9217  0.5144
 2167TIP3    H128060   1.515   3.575   1.375 -2.9011  0.8440  0.4886
 2167TIP3    H228061   1.503   3.586   1.526  0.1364 -1.5173  0.9972
 2168TIP3   OH228062   6.031   0.953   0.006  0.3850 -0.1150  0.2560
 2168TIP3    H128063   6.102   0.983   0.063  1.3876  2.6151 -2.1362
 2168TIP3    H228064   6.076   0.919  -0.072 -0.8014  2.0257 -1.4781
 2169TIP3   OH228065   0.116   1.912   0.211 -0.0598  0.3717  0.4292
 2169TIP3    H128066   0.078   1.866   0.286 -0.3642 -0.7631 -0.3994
 2169TIP3    H228067   0.141   1.843   0.150  1.4432  1.2024  0.0555
 2170TIP3   OH228068   3.520   5.241   7.038 -0.4030 -0.6539 -0.1156
 2170TIP3    H128069   3.438   5.242   6.988 -0.4116  0.2119 -0.0904
 2170TIP3    H228070   3.549   5.332   7.039 -0.6108 -0.5658  1.8056
 2171TIP3   OH228071   6.273   6.155   6.491 -0.5830  0.2248  0.5723
 2171TIP3    H128072   6.363   6.181   6.513  0.0212 -0.5422 -0.8128
 2171TIP3    H228073   6.259   6.192   6.404 -2.1988  1.6488  1.3934
 2172TIP3   OH228074   2.508   1.578   0.078  0.1009 -0.3609  0.3655
 2172TIP3    H128075   2.438   1.525   0.116  0.2487  0.5552  2.0076
 2172TIP3    H228076   2.543   1.524   0.007 -0.9708 -1.6521  0.7739
 2173TIP3   OH228077   0.296   4.154   2.221  0.2895 -0.1983 -0.2034
 2173TIP3    H128078   0.311   4.133   2.314  1.6716 -1.2284 -0.6314
 2173TIP3    H228079   0.225   4.218   2.223 -0.1030 -0.6106  1.5398
 2174TIP3   OH228080   4.226   5.327   0.680  0.2740  1.0295 -0.4059
 2174TIP3    H128081   4.135   5.307   0.701 -0.1435  0.2956 -2.5971
 2174TIP3    H228082   4.263   5.361   0.761 -1.4719 -0.2872  1.0167
 2175TIP3   OH228083   2.661   5.874   2.238 -0.7332  0.0863  0.2338
 2175TIP3    H128084   2.735   5.885   2.298 -1.9060  0.6494  1.6396
 2175TIP3    H228085   2.602   5.815   2.284 -1.8591  0.8813 -0.1629
 2176TIP3   OH228086   6.259   0.625   0.804  0.2650  0.2823  0.5208
 2176TIP3    H128087   6.293   0.612   0.893  0.0342  1.0871  0.7349
 2176TIP3    H228088   6.164   0.614   0.813  0.4225 -2.1717 -0.1167
 2177TIP3   OH228089   1.163   6.485   0.359 -0.3399 -0.1771  0.1111
 2177TIP3    H128090   1.188   6.567   0.401  0.8306  0.6884 -2.1186
 2177TIP3    H228091   1.240   6.429   0.369 -0.7065 -0.5902  0.6254
 2178TIP3   OH228092   5.965   1.285   1.022  0.6085 -0.0464  0.1617
 2178TIP3    H128093   6.020   1.227   0.969  2.6285  0.8112  1.2103
 2178TIP3    H228094   5.969   1.247   1.110  2.5800  1.9674  1.0349
 2179TIP3   OH228095   5.173   5.576   0.064 -0.1291 -0.2789 -0.6419
 2179TIP3    H128096   5.196   5.631   0.139 -0.8425 -0.5577 -0.2101
 2179TIP3    H228097   5.177   5.487   0.097 -0.8160 -0.3831 -0.8298
 2180TIP3   OH228098   5.853   2.247   7.829 -0.2238  0.5556 -0.3479
 2180TIP3    H128099   5.902   2.239   7.911  0.9262  2.4093 -0.8054
 2180TIP3    H228100   5.802   2.327   7.838 -2.9117 -1.0724 -0.0840
 2181TIP3   OH228101   6.133   0.259   8.554  0.2859 -0.4244  0.4281
 2181TIP3    H128102   6.100   0.196   8.490  0.1226  0.3758 -0.2924
 2181TIP3    H228103   6.152   0.337   8.503 -0.9245  0.6356  1.5049
 2182TIP3   OH228104   6.611   4.703   7.683 -0.2542 -0.3004 -0.3981
 2182TIP3    H128105   6.600   4.728   7.592 -1.9306 -0.9069 -0.4012
 2182TIP3    H228106   6.522   4.704   7.719  0.3853 -0.0018  1.2478
 2183TIP3   OH228107   3.355   6.619   0.749  0.0307 -0.0463  0.6243
 2183TIP3    H128108   3.433   6.599   0.802  2.3722  0.6469 -2.3159
 2183TIP3    H228109   3.322   6.701   0.785  2.7079  1.4487 -0.0342
 2184TIP3   OH228110   4.968   2.942   7.885  0.5467 -0.0687 -0.5778
 2184TIP3    H128111   4.999   2.852   7.881 -1.2138 -0.7617  0.1307
 2184TIP3    H228112   5.047   2.994   7.896  1.5299 -1.6049 -0.0158
 2185TIP3   OH228113   0.606   3.476   2.398 -0.2459 -0.2147 -0.2119
 2185TIP3    H128114   0.525   3.526   2.402  0.3211  0.8407 -1.1924
 2185TIP3    H228115   0.662   3.515   2.465  0.0104  0.1414 -0.6246
 2186TIP3   OH228116   3.111   3.168   0.533  0.6981  0.2120  0.4152
 2186TIP3    H128117   3.197   3.196   0.502  0.2048  0.3186 -0.9510
 2186TIP3    H228118   3.051   3.195   0.463 -0.4399  0.1081  1.3289
 2187TIP3   OH228119   2.042   4.324   7.490  0.0935 -0.0238 -0.5428
 2187TIP3    H128120   2.091   4.370   7.558  1.1784  0.8963 -1.8813
 2187TIP3    H228121   2.082   4.238   7.485  0.5828  0.2011 -0.5823
 2188TIP3   OH228122   5.858   4.140   1.539  0.1630  0.5105  0.4111
 2188TIP3    H128123   5.826   4.228   1.518  0.0121  0.1043 -1.1845
 2188TIP3    H228124   5.789   4.102   1.593 -2.0327 -0.2149 -2.6680
 2189TIP3   OH228125   3.138   6.792   1.577 -0.0596 -0.3396 -0.5504
 2189TIP3    H128126   3.060   6.796   1.632  0.0470 -1.3508 -0.3225
 2189TIP3    H228127   3.189   6.869   1.603  0.3499 -1.1990  1.3069
 2190TIP3   OH228128   6.447   5.473   1.972  0.0754 -0.8841  0.2212
 2190TIP3    H128129   6.482   5.456   2.060  1.0148 -0.8241 -0.1287
 2190TIP3    H228130   6.364   5.518   1.988  1.0756  0.7490  1.0785
 2191TIP3   OH228131   2.371   0.787   1.488  0.2751 -0.1380 -0.2022
 2191TIP3    H128132   2.345   0.722   1.553  0.9048 -1.0302 -0.8286
 2191TIP3    H228133   2.439   0.839   1.531  1.0478 -1.0432 -0.3025
 2192TIP3   OH228134   2.710   1.534   6.718  0.2675 -0.0675  0.5761
 2192TIP3    H128135   2.746   1.447   6.700  0.5509  0.0814  0.4199
 2192TIP3    H228136   2.786   1.587   6.743  0.5997  0.9224 -2.1358
 2193TIP3   OH228137   5.127   4.459   8.477  0.2821  0.1909  0.0482
 2193TIP3    H128138   5.154   4.368   8.492 -0.1057  0.0654 -0.0196
 2193TIP3    H228139   5.063   4.454   8.406 -0.3928  0.4186  0.6272
 2194TIP3   OH228140   3.062   0.001   0.144  0.5498 -0.1898  0.1393
 2194TIP3    H128141   3.140   0.038   0.102  0.7594  0.5988  1.1916
 2194TIP3    H228142   2.990   0.056   0.113  0.7910  0.8076  1.2883
 2195TIP3   OH228143   0.544   5.714   8.223  0.3198  0.0370  0.9061
 2195TIP3    H128144   0.453   5.694   8.247 -0.6279  0.9834 -1.5625
 2195TIP3    H228145   0.587   5.628   8.221 -0.4929 -0.4309  2.1401
 2196TIP3   OH228146   1.369   6.631   8.027 -0.1119  0.1189  0.2914
 2196TIP3    H128147   1.386   6.623   7.933 -0.1904  1.0927  0.1910
 2196TIP3    H228148   1.442   6.683   8.060  0.7635 -1.5221  1.0583
 2197TIP3   OH228149   0.869   0.806   7.450  0.1736 -0.1757  0.5020
 2197TIP3    H128150   0.921   0.850   7.517 -0.9916 -0.7708  1.8574
 2197TIP3    H228151   0.901   0.716   7.450  1.9556  0.3630 -1.6522
 2198TIP3   OH228152   4.028   3.577   1.783  0.0826 -0.0979 -0.1530
 2198TIP3    H128153   4.008   3.577   1.689 -0.3691  1.1143 -0.0666
 2198TIP3    H228154   4.116   3.615   1.789  0.0240  0.0240 -0.0671
 2199TIP3   OH228155   4.725   5.704   2.541 -0.0929 -0.3438 -0.0867
 2199TIP3    H128156   4.754   5.621   2.501 -0.4224  0.1550 -1.4375
 2199TIP3    H228157   4.642   5.723   2.496  0.6927  1.4539 -0.8722
 2200TIP3   OH228158   3.426   0.962   8.025 -0.2149  0.0377  0.1407
 2200TIP3    H128159   3.474   0.985   7.945 -0.4813  0.4262  0.0903
 2200TIP3    H228160   3.379   1.042   8.049 -2.0233 -0.7221 -0.6492
 2201TIP3   OH228161   0.245   5.973   6.880 -0.2241  0.0583  0.0638
 2201TIP3    H128162   0.183   5.919   6.831  0.8134 -1.6459  0.5237
 2201TIP3    H228163   0.268   5.918   6.956 -0.3641  1.8414  1.4688
 2202TIP3   OH228164   1.902   3.746   8.460 -0.0614 -0.4057 -0.1556
 2202TIP3    H128165   1.889   3.811   8.529 -0.1857 -0.4546 -0.1322
 2202TIP3    H228166   1.991   3.714   8.473 -0.3072 -0.8853  0.3814
 2203TIP3   OH228167   4.543   4.110   7.696  0.0867  0.0197  0.3445
 2203TIP3    H128168   4.515   4.019   7.684 -2.5207  0.8389 -0.6963
 2203TIP3    H228169   4.600   4.128   7.622 -2.9416  0.3617 -2.1312
 2204TIP3   OH228170   4.325   4.662   7.354  0.2369  0.5791 -0.0504
 2204TIP3    H128171   4.390   4.613   7.304 -1.4565 -0.9097 -0.9239
 2204TIP3    H228172   4.376   4.720   7.410  2.6499 -3.8270  2.9504
 2205TIP3   OH228173   2.995   4.009   1.794  0.6331 -0.0568  0.3172
 2205TIP3    H128174   2.965   4.083   1.846 -1.1200 -0.3904 -0.1698
 2205TIP3    H228175   2.916   3.958   1.775  1.7649 -2.0135  0.5483
 2206TIP3   OH228176   1.444   1.196   8.001 -0.1848 -0.7419 -0.3230
 2206TIP3    H128177   1.412   1.238   7.921 -1.8353  0.6839  1.0089
 2206TIP3    H228178   1.375   1.135   8.026 -0.5531  0.1466  0.9478
 2207TIP3   OH228179   5.953   2.808   0.794  0.4427  0.1115  0.5195
 2207TIP3    H128180   5.949   2.811   0.698 -2.4084  2.5067  0.5552
 2207TIP3    H228181   5.890   2.741   0.819  2.1415 -1.4646  0.8006
 2208TIP3   OH228182   3.594   5.022   1.166  0.1811 -0.7050 -0.4318
 2208TIP3    H128183   3.554   4.943   1.130  0.7406 -0.8010 -0.8457
 2208TIP3    H228184   3.519   5.076   1.192 -0.2119 -1.1685 -0.5687
 2209TIP3   OH228185   5.468   4.182   6.820 -0.0546 -0.4090  0.5663
 2209TIP3    H128186   5.443   4.161   6.909  0.0613  0.4256  0.8112
 2209TIP3    H228187   5.415   4.258   6.797 -0.0449 -0.5801 -0.0554
 2210TIP3   OH228188   2.000   4.842   6.642  1.0440 -0.3737  0.3503
 2210TIP3    H128189   1.998   4.762   6.589  0.6208  0.7570 -1.4569
 2210TIP3    H228190   2.091   4.871   6.638  1.5648 -1.5894  2.3917
 2211TIP3   OH228191   3.212   3.065   1.501 -0.3093  0.3505 -0.3538
 2211TIP3    H128192   3.208   2.978   1.541 -1.0034  1.4418  2.1240
 2211TIP3    H228193   3.149   3.061   1.429 -1.1396 -0.8938  0.4014
 2212TIP3   OH228194   3.377   4.942   0.584  0.1934 -0.0608  0.4114
 2212TIP3    H128195   3.391   5.034   0.603 -1.2272  0.0176  1.2669
 2212TIP3    H228196   3.440   4.896   0.640  0.6264  0.3687  0.2822
 2213TIP3   OH228197   4.741   3.320   7.624 -0.0392 -0.2294 -0.5230
 2213TIP3    H128198   4.655   3.277   7.625  0.0389 -0.7918  3.7333
 2213TIP3    H228199   4.722   3.411   7.645  0.2932 -0.7366  2.5836
 2214TIP3   OH228200   0.014   5.785   0.393 -0.4621  0.1977  0.2710
 2214TIP3    H128201   0.066   5.857   0.358  0.8736 -0.9822 -0.2606
 2214TIP3    H228202   0.010   5.721   0.321 -2.9311  0.3488  0.1727
 2215TIP3   OH228203   3.117   4.852   8.189 -0.3599  0.0275  0.2032
 2215TIP3    H128204   3.044   4.818   8.136  0.7707 -1.2651 -0.6112
 2215TIP3    H228205   3.089   4.840   8.279 -1.5250  0.3879 -0.0985
 2216TIP3   OH228206   3.286   0.272   8.426  0.7043  0.1591  0.2984
 2216TIP3    H128207   3.370   0.257   8.471  0.8754  1.1584  0.3305
 2216TIP3    H228208   3.222   0.223   8.478  0.9913  0.8116  1.3043
 2217TIP3   OH228209   5.218   0.823   6.280  0.4429  0.0787 -0.1902
 2217TIP3    H128210   5.154   0.754   6.300  2.5238 -1.6160  1.1990
 2217TIP3    H228211   5.193   0.896   6.337 -0.8485 -0.1248 -0.4674
 2218TIP3   OH228212   4.878   4.226   1.951 -0.1612 -0.3888 -0.6302
 2218TIP3    H128213   4.873   4.188   2.039  3.3420 -0.4960 -0.3327
 2218TIP3    H228214   4.810   4.294   1.950 -0.4278 -0.5041  2.0908
 2219TIP3   OH228215   4.609   1.976   7.330 -0.1200 -0.3812  0.6801
 2219TIP3    H128216   4.552   2.050   7.310  0.8921 -0.0097 -1.0543
 2219TIP3    H228217   4.556   1.899   7.307 -0.0312 -0.0468 -0.7783
 2220TIP3   OH228218   2.385   2.473   8.178  0.4778 -0.2864 -0.0503
 2220TIP3    H128219   2.395   2.450   8.271 -0.6902 -1.2346 -0.1380
 2220TIP3    H228220   2.376   2.568   8.178 -1.3654 -0.4073  1.0283
 2221TIP3   OH228221   5.521   4.444   1.841 -0.3200 -0.2635 -0.1674
 2221TIP3    H128222   5.604   4.457   1.796  0.2949 -2.2452  0.3108
 2221TIP3    H228223   5.463   4.512   1.806  1.1856  0.4861 -1.2664
 2222TIP3   OH228224   0.405   6.558   2.656  0.0073  0.1018 -0.0264
 2222TIP3    H128225   0.429   6.472   2.623 -1.2884 -0.6324  0.8612
 2222TIP3    H228226   0.313   6.569   2.631  0.1329  1.2042 -0.0675
 2223TIP3   OH228227   4.431   2.125   1.329  0.1126 -0.2261 -0.0087
 2223TIP3    H128228   4.374   2.201   1.326 -0.4672 -0.5822  1.2927
 2223TIP3    H228229   4.420   2.083   1.244 -2.2318 -0.7484  0.4942
 2224TIP3   OH228230   6.570   3.637   2.043  0.0330  0.8747 -0.3052
 2224TIP3    H128231   6.599   3.576   2.110  2.3433  0.2561 -1.7202
 2224TIP3    H228232   6.607   3.721   2.070  1.9660  0.4027 -1.2819
 2225TIP3   OH228233   0.298   2.598   8.261 -0.0670  0.1702 -0.4276
 2225TIP3    H128234   0.374   2.653   8.242  1.5952 -1.8154  0.1745
 2225TIP3    H228235   0.279   2.554   8.178  0.2247 -0.2508 -0.2730
 2226TIP3   OH228236   0.671   4.207   0.872  0.4252 -0.1347 -0.5690
 2226TIP3    H128237   0.744   4.160   0.913  0.6016  0.0808 -0.6327
 2226TIP3    H228238   0.710   4.248   0.794 -0.0993 -1.2551 -1.4438
 2227TIP3   OH228239   0.505   1.877   6.928  0.1854  0.1930  0.0053
 2227TIP3    H128240   0.517   1.854   6.836 -1.2315  1.3515 -0.5125
 2227TIP3    H228241   0.413   1.904   6.934 -0.2787 -1.5690  2.1417
 2228TIP3   OH228242   1.848   4.312   7.095 -0.2252 -0.6597  0.6152
 2228TIP3    H128243   1.829   4.268   7.178 -1.4253 -0.9322  0.2034
 2228TIP3    H228244   1.764   4.347   7.066 -0.2693 -2.4050 -1.5442
 2229TIP3   OH228245   5.196   2.016   7.442  0.1103  0.6324  0.1808
 2229TIP3    H128246   5.103   2.035   7.436 -0.1540  0.1163  2.0507
 2229TIP3    H228247   5.207   1.934   7.393 -0.4295  0.6668 -0.0038
 2230TIP3   OH228248   3.312   4.482   0.433 -0.6052 -0.1674  0.2656
 2230TIP3    H128249   3.291   4.462   0.524  0.3320  1.5979  0.9069
 2230TIP3    H228250   3.400   4.447   0.420 -1.0400 -1.1188 -0.2289
 2231TIP3   OH228251   5.068   2.655   7.522  0.1793 -0.2182 -0.1213
 2231TIP3    H128252   5.003   2.647   7.453  0.9926 -2.0176 -0.7369
 2231TIP3    H228253   5.137   2.710   7.485 -0.5825  1.0283  0.2492
 2232TIP3   OH228254   1.832   5.445   6.691  0.0313 -0.1725  0.0273
 2232TIP3    H128255   1.792   5.413   6.610  0.6248 -1.1826  0.1211
 2232TIP3    H228256   1.797   5.534   6.701  1.7955  0.9497 -2.6342
 2233TIP3   OH228257   0.496   6.648   7.626  0.1708 -0.1924  0.2143
 2233TIP3    H128258   0.422   6.673   7.571  0.3771 -0.0775 -0.0168
 2233TIP3    H228259   0.555   6.601   7.566  0.2470 -0.3489  0.4134
 2234TIP3   OH228260   6.811   1.262   2.383 -0.0687 -0.2922  0.3995
 2234TIP3    H128261   6.811   1.342   2.435 -0.5237 -0.9667  1.4659
 2234TIP3    H228262   6.879   1.207   2.423  0.7764 -0.1623 -0.7932
 2235TIP3   OH228263   2.860   3.542   7.484  0.1475 -0.0407 -0.4630
 2235TIP3    H128264   2.861   3.589   7.401  1.4100  0.7726 -0.0260
 2235TIP3    H228265   2.864   3.611   7.551 -2.2949 -0.6040  0.3452
 2236TIP3   OH228266   1.268   2.948   0.836 -0.1811 -0.0041 -0.1255
 2236TIP3    H128267   1.178   2.952   0.805 -0.1238  0.5821 -0.2379
 2236TIP3    H228268   1.279   3.027   0.889 -0.0257 -0.5701  0.7098
 2237TIP3   OH228269   5.060   0.090   0.572 -0.2287  0.1581 -0.5929
 2237TIP3    H128270   5.079   0.165   0.517 -0.5572 -0.4010 -1.5025
 2237TIP3    H228271   5.040   0.019   0.510  0.6423 -0.8305  0.2214
 2238TIP3   OH228272   5.748   6.331   0.346  0.5389 -0.6218 -0.0809
 2238TIP3    H128273   5.748   6.336   0.250  0.6451 -1.9450 -0.1789
 2238TIP3    H228274   5.840   6.341   0.370  0.4053  0.6199 -0.0369
 2239TIP3   OH228275   2.305   6.793   0.288  0.0240 -0.3952  0.0446
 2239TIP3    H128276   2.389   6.808   0.332 -0.0261  2.2418 -0.5859
 2239TIP3    H228277   2.327   6.745   0.208  0.3299 -3.5864  1.8886
 2240TIP3   OH228278   6.476   0.255   2.239  0.2096  0.0799  0.1547
 2240TIP3    H128279   6.407   0.308   2.199  0.8787  1.5758  0.8956
 2240TIP3    H228280   6.552   0.268   2.182 -0.2777 -2.2095 -1.1155
 2241TIP3   OH228281   0.125   6.458   6.759 -0.2451 -0.1707  0.3187
 2241TIP3    H128282   0.162   6.539   6.796 -0.4622  0.2461 -0.3572
 2241TIP3    H228283   0.194   6.392   6.772  1.3026  0.8438 -1.9642
 2242TIP3   OH228284   2.627   4.638   2.432 -0.7452  0.0257  0.0032
 2242TIP3    H128285   2.574   4.667   2.506 -0.1382  0.4765  0.2671
 2242TIP3    H228286   2.598   4.548   2.415 -0.5955 -0.2345  1.0661
 2243TIP3   OH228287   0.838   4.714   7.907  0.1651  0.5615 -0.5852
 2243TIP3    H128288   0.867   4.698   7.997  1.7444  0.9861 -0.9839
 2243TIP3    H228289   0.826   4.809   7.903  0.1697  0.5516 -0.8413
 2244TIP3   OH228290   0.489   3.849   7.492  0.3981  0.0242 -0.7082
 2244TIP3    H128291   0.446   3.927   7.456  1.6651 -0.4388 -3.3983
 2244TIP3    H228292   0.579   3.877   7.510  0.4937 -0.4832 -0.3664
 2245TIP3   OH228293   1.368   0.473   8.164  0.0812 -0.6683 -0.0473
 2245TIP3    H128294   1.410   0.388   8.181  0.6089 -0.1794  1.1883
 2245TIP3    H228295   1.306   0.455   8.092  2.0656 -1.5061 -1.6554
 2246TIP3   OH228296   6.478   0.291   0.678  0.0372  0.3020  0.6252
 2246TIP3    H128297   6.475   0.255   0.767  1.3352  0.2544  0.6690
 2246TIP3    H228298   6.412   0.360   0.678  1.2377  1.5412  2.1962
 2247TIP3   OH228299   0.762   5.303   1.753 -0.0137  0.3417  0.2688
 2247TIP3    H128300   0.670   5.281   1.770  0.0801 -0.5495 -0.2700
 2247TIP3    H228301   0.779   5.266   1.666  0.4121  1.9081 -0.3479
 2248TIP3   OH228302   0.896   5.777   0.152  0.3487 -0.1672  0.3248
 2248TIP3    H128303   0.830   5.833   0.110  2.6975  2.3112 -0.3793
 2248TIP3    H228304   0.869   5.772   0.243 -1.8077 -0.8826 -0.2926
 2249TIP3   OH228305   3.073   5.432   1.948 -0.1481 -0.0765 -0.8835
 2249TIP3    H128306   3.044   5.429   2.040 -1.1463 -0.4507 -1.1944
 2249TIP3    H228307   3.159   5.474   1.951  0.3875 -1.1743  0.3654
 2250TIP3   OH228308   6.085   6.408   8.105  0.1680  0.8098 -0.7127
 2250TIP3    H128309   6.065   6.318   8.133 -1.3357  1.5840  0.8924
 2250TIP3    H228310   6.051   6.412   8.015  2.6384 -0.9377 -1.8377
 2251TIP3   OH228311   4.096   0.960   8.364  0.0403  0.0491  0.6040
 2251TIP3    H128312   4.138   0.883   8.326 -1.7996 -1.2232  1.0329
 2251TIP3    H228313   4.068   0.933   8.451 -0.7916  1.1344  0.7042
 2252TIP3   OH228314   2.819   4.664   7.355  0.4133 -0.3687  0.1630
 2252TIP3    H128315   2.730   4.632   7.341  0.2062  0.3511 -0.2337
 2252TIP3    H228316   2.807   4.755   7.384  0.9867 -0.5475  1.0274
 2253TIP3   OH228317   6.491   0.523   1.428 -0.3392 -0.6671 -0.1588
 2253TIP3    H128318   6.528   0.489   1.509 -1.0104 -1.8850 -0.3301
 2253TIP3    H228319   6.550   0.492   1.360 -1.5062 -2.4720 -0.4161
 2254TIP3   OH228320   1.583   1.044   1.211  0.2765  1.0411  0.1668
 2254TIP3    H128321   1.598   0.990   1.133  0.3425  1.5771 -0.2021
 2254TIP3    H228322   1.624   0.996   1.282 -1.2282 -0.2879  0.1837
 2255TIP3   OH228323   2.420   6.467   2.294 -0.2473  0.3130 -0.3745
 2255TIP3    H128324   2.471   6.405   2.346  2.9549  1.5577 -1.7758
 2255TIP3    H228325   2.417   6.546   2.347 -3.5520 -0.5570  1.0125
 2256TIP3   OH228326   6.535   2.200   8.616  0.7904 -0.4374 -0.1128
 2256TIP3    H128327   6.502   2.240   8.536  1.9661 -1.2272 -1.0355
 2256TIP3    H228328   6.620   2.243   8.631  1.1707 -1.2036 -0.0275
 2257TIP3   OH228329   0.213   2.209   1.093 -0.0171  0.0986 -0.2774
 2257TIP3    H128330   0.156   2.137   1.065 -0.3636  0.3766 -0.2833
 2257TIP3    H228331   0.171   2.244   1.172 -0.3576  0.9107 -0.8101
 2258TIP3   OH228332   4.446   4.943   0.455  0.4962  0.1727  1.0082
 2258TIP3    H128333   4.367   4.994   0.437 -0.2168 -0.9570  0.8459
 2258TIP3    H228334   4.502   4.956   0.378  0.3968  0.8230  1.0416
 2259TIP3   OH228335   5.987   2.750   8.420  0.2889 -0.0252 -0.0679
 2259TIP3    H128336   6.070   2.718   8.455  0.0832 -1.1208 -0.5543
 2259TIP3    H228337   5.942   2.786   8.496  1.5661  1.4096  0.0521
 2260TIP3   OH228338   1.352   5.484   6.684  0.1129  0.1770 -0.1336
 2260TIP3    H128339   1.257   5.493   6.692  0.0762  0.5740 -0.9105
 2260TIP3    H228340   1.373   5.402   6.728 -0.6898 -0.3042 -0.6385
 2261TIP3   OH228341   0.105   2.395   1.309 -0.0192  0.3359  0.3472
 2261TIP3    H128342   0.180   2.454   1.319 -0.4066  0.8332  0.3678
 2261TIP3    H228343   0.071   2.385   1.397 -0.3314  0.5895  0.2581
 2262TIP3   OH228344   2.349   5.655   8.527  0.3628  0.1290 -0.2674
 2262TIP3    H128345   2.273   5.696   8.485 -0.5273 -2.7690 -1.7867
 2262TIP3    H228346   2.324   5.649   8.620 -0.2197  1.3353 -0.3293
 2263TIP3   OH228347   0.837   6.166   1.274 -0.1291 -0.3092 -0.1980
 2263TIP3    H128348   0.742   6.173   1.262 -0.1674  0.0691  0.3003
 2263TIP3    H228349   0.847   6.108   1.349  0.0497 -0.7042 -0.5210
 2264TIP3   OH228350   1.304   5.789   0.006 -0.0352  0.0477 -0.0665
 2264TIP3    H128351   1.275   5.763   0.093 -0.8338  0.0474 -0.3275
 2264TIP3    H228352   1.276   5.880  -0.003 -1.2548 -0.3811 -0.8618
 2265TIP3   OH228353   2.260   4.140   1.560  0.3790 -0.0660  0.2476
 2265TIP3    H128354   2.279   4.139   1.654  0.3103 -1.7884  0.2772
 2265TIP3    H228355   2.311   4.213   1.526  0.5968  0.4425  1.5857
 2266TIP3   OH228356   0.057   4.790   6.849  0.4567  0.1647  0.0488
 2266TIP3    H128357   0.059   4.793   6.754  0.8370 -0.9794  0.0114
 2266TIP3    H228358   0.085   4.701   6.872 -0.4430  0.1436  1.2011
 2267TIP3   OH228359   6.301   0.696   7.652  0.3380 -0.4753  0.5461
 2267TIP3    H128360   6.256   0.734   7.727  2.9585  1.3723  1.3058
 2267TIP3    H228361   6.363   0.634   7.689  0.3040 -0.9977 -0.2410
 2268TIP3   OH228362   3.567   1.084   0.476  0.5244 -0.3621 -0.2433
 2268TIP3    H128363   3.481   1.118   0.500 -0.3722 -1.7111 -1.3412
 2268TIP3    H228364   3.600   1.043   0.556  0.0523 -0.0237  0.1327
 2269TIP3   OH228365   5.488   5.556   0.042 -0.4190  0.0912 -0.1634
 2269TIP3    H128366   5.437   5.489   0.087 -2.0040  1.8939  0.8716
 2269TIP3    H228367   5.478   5.635   0.096  0.5145  1.4451 -1.8551
 2270TIP3   OH228368   1.147   4.407   0.181  0.0646  0.1755 -0.2201
 2270TIP3    H128369   1.068   4.458   0.198 -0.6564 -1.0240  0.1972
 2270TIP3    H228370   1.117   4.334   0.127  0.8831 -0.2990 -0.0503
 2271TIP3   OH228371   1.819   4.511   7.419  0.2102  0.1030  0.0572
 2271TIP3    H128372   1.898   4.456   7.423  0.0250 -0.1437  0.2986
 2271TIP3    H228373   1.749   4.451   7.396  0.2402  0.4767 -1.0593
 2272TIP3   OH228374   4.608   5.338   1.574 -0.3900 -0.0844 -0.2441
 2272TIP3    H128375   4.595   5.422   1.530 -0.9796 -0.3666 -0.6212
 2272TIP3    H228376   4.680   5.297   1.526  1.7304  1.2804  1.5529
 2273TIP3   OH228377   0.714   0.611   7.796  0.1487  0.0330  0.3528
 2273TIP3    H128378   0.702   0.521   7.766  1.1259 -0.0580  0.1801
 2273TIP3    H228379   0.635   0.631   7.846  0.5533 -1.4541  1.6891
 2274TIP3   OH228380   0.561   0.600   1.263  0.4502 -0.2703 -0.1005
 2274TIP3    H128381   0.469   0.603   1.288 -0.1047 -1.9426 -1.6916
 2274TIP3    H228382   0.580   0.687   1.229 -0.7237 -0.1040 -0.3642
 2275TIP3   OH228383   6.037   0.042   8.409  0.2281 -0.1453 -0.1304
 2275TIP3    H128384   6.012  -0.049   8.393 -1.2782  0.3239 -0.5699
 2275TIP3    H228385   6.131   0.038   8.426  0.2883 -1.7165 -0.6814
 2276TIP3   OH228386   6.386   1.697   0.906  0.7063  0.1010 -0.2580
 2276TIP3    H128387   6.384   1.688   0.811  3.0932 -1.6938 -0.2129
 2276TIP3    H228388   6.342   1.618   0.939  0.2880  0.4975  0.1634
 2277TIP3   OH228389   1.083   4.762   0.921  0.1360 -0.1602 -0.4052
 2277TIP3    H128390   1.124   4.805   0.846 -0.8664  0.9626 -0.3424
 2277TIP3    H228391   1.139   4.687   0.939  2.0909  1.2092 -0.3962
 2278TIP3   OH228392   0.632   3.272   6.903  0.5454 -0.5393 -0.2890
 2278TIP3    H128393   0.592   3.211   6.965 -0.9158 -0.9385 -1.5623
 2278TIP3    H228394   0.617   3.232   6.817  2.0400  0.2560 -0.9570
 2279TIP3   OH228395   3.452   5.189   0.649  0.2110  0.3501 -0.2407
 2279TIP3    H128396   3.403   5.250   0.594  2.3444  2.3486 -0.0602
 2279TIP3    H228397   3.428   5.212   0.738  1.0511  0.9870 -0.1700
 2280TIP3   OH228398   0.536   3.647   6.808  0.0642 -0.4068  0.3011
 2280TIP3    H128399   0.572   3.646   6.720 -0.5826 -0.4641  0.0369
 2280TIP3    H228400   0.597   3.701   6.858  0.1421  0.0672 -0.3007
 2281TIP3   OH228401   5.570   6.750   7.766  0.1467  0.2280  0.5247
 2281TIP3    H128402   5.584   6.829   7.819  1.5058 -0.4584  1.2648
 2281TIP3    H228403   5.651   6.741   7.716 -0.9334  0.5917 -1.3671
 2282TIP3   OH228404   3.150   2.110   7.108 -0.0724  0.3946  0.4981
 2282TIP3    H128405   3.211   2.152   7.047  0.3675  1.2587  1.5078
 2282TIP3    H228406   3.101   2.048   7.053  0.2143  1.2267 -0.7522
 2283TIP3   OH228407   1.295   1.564   7.706 -0.5183 -0.2970 -0.7078
 2283TIP3    H128408   1.260   1.613   7.632 -0.0459 -0.8003 -1.2769
 2283TIP3    H228409   1.258   1.607   7.783 -1.1048  0.1658 -1.2355
 2284TIP3   OH228410   1.338   3.174   0.971 -0.1528 -1.0080  0.0719
 2284TIP3    H128411   1.416   3.224   0.947 -0.4039 -0.9841 -0.7131
 2284TIP3    H228412   1.304   3.218   1.050 -0.5965  0.3187 -0.8252
 2285TIP3   OH228413   2.371   3.252   1.778  0.3637  0.8315 -0.4527
 2285TIP3    H128414   2.307   3.229   1.845  0.0284  0.6828 -0.8168
 2285TIP3    H228415   2.435   3.306   1.823 -0.5880  1.8713 -0.3124
 2286TIP3   OH228416   0.523   6.702   0.980 -0.7224 -0.2587  0.4832
 2286TIP3    H128417   0.496   6.671   1.066 -1.1621 -1.4983 -0.0764
 2286TIP3    H228418   0.613   6.673   0.971 -1.0105 -1.0722  0.1168
 2287TIP3   OH228419   3.773   6.183   7.628 -0.1494 -0.1439 -0.4622
 2287TIP3    H128420   3.734   6.239   7.560  0.8392  2.5445  1.0432
 2287TIP3    H228421   3.865   6.178   7.605 -0.4499 -2.6539 -1.4615
 2288TIP3   OH228422   5.776   1.162   6.647 -0.3250  0.4038  0.3694
 2288TIP3    H128423   5.804   1.186   6.559 -1.0719  1.9500  0.5037
 2288TIP3    H228424   5.851   1.182   6.702 -0.1926  0.3856  0.1947
 2289TIP3   OH228425   3.564   0.465   0.762  0.3896 -0.6058  0.2234
 2289TIP3    H128426   3.643   0.499   0.804  0.7436 -2.0732  0.8111
 2289TIP3    H228427   3.523   0.410   0.829  0.1550 -1.7893 -0.8501
 2290TIP3   OH228428   4.296   6.409   7.613  0.1447 -0.0632  0.0757
 2290TIP3    H128429   4.380   6.411   7.659  0.0321 -0.8260  0.3284
 2290TIP3    H228430   4.316   6.441   7.525  0.8702 -1.0233 -0.1253
 2291TIP3   OH228431   3.459   3.701   1.140 -0.3275  0.3975  0.2289
 2291TIP3    H128432   3.380   3.738   1.180 -0.6089  1.4255 -1.2272
 2291TIP3    H228433   3.531   3.750   1.180 -0.6354  1.7737 -0.8484
 2292TIP3   OH228434   5.508   4.283   8.440  0.5462 -0.0764 -0.5249
 2292TIP3    H128435   5.432   4.239   8.401  0.5759  0.7178 -1.5194
 2292TIP3    H228436   5.492   4.277   8.534 -0.6587 -0.1045 -0.7062
 2293TIP3   OH228437   5.097   5.598   7.674 -0.2605 -0.2704  0.0116
 2293TIP3    H128438   5.014   5.590   7.627 -0.1174 -2.0017 -0.0125
 2293TIP3    H228439   5.075   5.649   7.752 -1.3874 -0.8346  0.0907
 2294TIP3   OH228440   2.391   1.757   0.957  0.3314  0.0712 -0.8900
 2294TIP3    H128441   2.382   1.840   1.004  1.8933 -0.3939  0.3013
 2294TIP3    H228442   2.328   1.699   0.999  0.9901 -0.0421 -0.0356
 2295TIP3   OH228443   0.328   3.115   7.174  0.0270  0.0143  0.1227
 2295TIP3    H128444   0.320   3.019   7.174  2.9047 -0.3198 -0.5377
 2295TIP3    H228445   0.315   3.140   7.266 -0.2585 -1.0420  0.3874
 2296TIP3   OH228446   4.200   4.677   1.122  0.8743 -0.3899  0.3022
 2296TIP3    H128447   4.274   4.647   1.070 -0.0336 -2.5963  0.1646
 2296TIP3    H228448   4.239   4.729   1.193  2.2739  0.9231 -1.3477
 2297TIP3   OH228449   5.577   5.279   1.225 -0.3922 -0.9640  0.1162
 2297TIP3    H128450   5.529   5.233   1.157  1.1033  0.0184 -1.7022
 2297TIP3    H228451   5.667   5.250   1.215  0.2957  1.0547 -0.0174
 2298TIP3   OH228452   3.245   3.338   7.814 -0.5094 -0.3005 -0.4782
 2298TIP3    H128453   3.219   3.318   7.724  0.4687  1.9084 -1.3535
 2298TIP3    H228454   3.276   3.429   7.809  0.3821 -0.4117  1.9282
 2299TIP3   OH228455   4.108   2.204   0.562 -0.2719 -0.5685 -0.3490
 2299TIP3    H128456   4.048   2.276   0.542 -0.0209 -0.5141 -0.9087
 2299TIP3    H228457   4.086   2.180   0.652  0.5235  1.0940  0.3416
 2300TIP3   OH228458   4.733   2.150   1.289 -0.5841  0.5771  0.0439
 2300TIP3    H128459   4.776   2.086   1.346  0.0942  3.2813  2.8850
 2300TIP3    H228460   4.647   2.112   1.269  0.3870 -1.8460  0.2242
 2301TIP3   OH228461   3.999   6.821   6.520 -0.4879 -0.9166  0.0509
 2301TIP3    H128462   3.977   6.811   6.427 -1.4877 -0.5634  0.2410
 2301TIP3    H228463   4.088   6.786   6.527 -0.1532 -0.3690 -1.1615
 2302TIP3   OH228464   5.095   4.011   6.534  0.3451 -0.2518 -0.1119
 2302TIP3    H128465   5.028   4.078   6.521  0.8612  0.5446  1.1329
 2302TIP3    H228466   5.048   3.928   6.522 -0.0783  0.2822 -2.7160
 2303TIP3   OH228467   5.136   6.120   0.705  0.2692  0.3850  0.0101
 2303TIP3    H128468   5.139   6.176   0.627  0.8124  2.0839  1.1958
 2303TIP3    H228469   5.044   6.118   0.729 -0.5466 -3.0051 -2.5367
 2304TIP3   OH228470   0.385   4.511   0.657 -0.2771 -0.6457  0.2754
 2304TIP3    H128471   0.414   4.599   0.680 -0.6521 -1.0545  2.5777
 2304TIP3    H228472   0.387   4.509   0.561 -2.2132  2.5389  0.0157
 2305TIP3   OH228473   3.598   4.848   8.247  0.6836  0.0921 -0.3956
 2305TIP3    H128474   3.674   4.861   8.190  0.8562  0.5446 -0.0658
 2305TIP3    H228475   3.633   4.802   8.324  0.5869  0.1290 -0.3289
 2306TIP3   OH228476   2.246   2.955   0.488  0.2254 -0.3396 -1.0697
 2306TIP3    H128477   2.181   2.887   0.504  1.6249 -1.1488  1.6466
 2306TIP3    H228478   2.208   3.034   0.526  0.5603 -0.6867  0.0085
 2307TIP3   OH228479   5.045   6.733   7.076  0.0365  0.4234 -0.0223
 2307TIP3    H128480   5.040   6.700   7.166  1.5720 -0.3841 -0.2107
 2307TIP3    H228481   4.976   6.685   7.030 -0.8521  0.9337  0.7167
 2308TIP3   OH228482   0.109   3.714   6.178 -0.3459 -0.8729 -0.1445
 2308TIP3    H128483   0.177   3.656   6.212 -0.5675 -2.2497 -1.9166
 2308TIP3    H228484   0.030   3.688   6.225  0.1860  0.4882  1.6573
 2309TIP3   OH228485   3.405   4.877   2.005 -0.0637 -0.1085  0.4505
 2309TIP3    H128486   3.395   4.783   1.990 -1.3794 -0.1652  1.4498
 2309TIP3    H228487   3.380   4.889   2.097 -3.7873  1.6783 -0.5917
 2310TIP3   OH228488   2.078   0.269   1.677  0.1232  0.2646  0.3461
 2310TIP3    H128489   2.106   0.357   1.651 -0.8370  0.5042  0.0691
 2310TIP3    H228490   2.089   0.268   1.773  0.3742  0.5940  0.3231
 2311TIP3   OH228491   1.838   4.361   1.349 -0.2045  0.3804 -0.3140
 2311TIP3    H128492   1.931   4.379   1.364 -0.0664 -0.1217 -0.5621
 2311TIP3    H228493   1.824   4.383   1.257 -0.8893  2.7739  0.2948
 2312TIP3   OH228494   4.889   4.822   2.311  0.0126  0.5725  0.3314
 2312TIP3    H128495   4.831   4.873   2.368  0.9230  1.2392  0.6895
 2312TIP3    H228496   4.857   4.732   2.319 -1.8168  1.1114 -0.5602
 2313TIP3   OH228497   4.419   5.798   2.623  0.2508 -0.2501  0.7269
 2313TIP3    H128498   4.439   5.875   2.676  1.3316 -1.0396  1.5206
 2313TIP3    H228499   4.459   5.725   2.671  1.2389 -1.0071 -1.1590
 2314TIP3   OH228500   2.012   1.754   0.992 -0.1597 -0.1708  0.1097
 2314TIP3    H128501   2.046   1.810   1.061  0.0269  1.0968 -0.9613
 2314TIP3    H228502   1.940   1.804   0.954 -0.2827 -0.8553 -0.5927
 2315TIP3   OH228503   1.555   0.503   0.853 -0.3856  0.3237  0.0538
 2315TIP3    H128504   1.636   0.462   0.884 -1.9117 -1.0462  2.5773
 2315TIP3    H228505   1.522   0.443   0.786 -0.5375 -0.4669  0.8152
 2316TIP3   OH228506   1.204   3.954   8.496  0.3032  0.1315  0.0721
 2316TIP3    H128507   1.145   3.882   8.515  3.3164 -2.6513 -0.2251
 2316TIP3    H228508   1.281   3.937   8.550  2.8641  0.6014 -3.1149
 2317TIP3   OH228509   5.061   0.195   0.111 -0.2896 -0.3673  0.3105
 2317TIP3    H128510   4.971   0.196   0.078 -0.0053  0.0821 -0.4766
 2317TIP3    H228511   5.103   0.271   0.071  0.9287 -1.5373 -0.7571
 2318TIP3   OH228512   2.086   6.548   7.959  0.7686 -0.2094 -0.8751
 2318TIP3    H128513   2.179   6.563   7.942  0.8756 -1.3168 -1.3311
 2318TIP3    H228514   2.081   6.458   7.991  0.0893  0.4868  1.1837
 2319TIP3   OH228515   1.917   6.856   2.504  0.4931  0.1853  0.5546
 2319TIP3    H128516   1.855   6.920   2.470  1.7257  1.4617  0.6139
 2319TIP3    H228517   1.865   6.798   2.560 -0.9383  0.1349 -0.7824
 2320TIP3   OH228518   0.902   4.592   0.335  0.3400 -0.0304 -0.4157
 2320TIP3    H128519   0.877   4.625   0.421 -1.4020 -1.2412 -0.3975
 2320TIP3    H228520   0.845   4.516   0.321  0.8303 -0.0824 -2.4780
 2321TIP3   OH228521   3.878   6.078   0.510 -0.0399 -0.5625  0.2478
 2321TIP3    H128522   3.925   6.141   0.564  1.4092  1.2404 -2.8880
 2321TIP3    H228523   3.787   6.089   0.535  0.6040 -0.4949  2.8954
 2322TIP3   OH228524   4.795   6.849   7.401 -0.5240 -0.5413  0.3850
 2322TIP3    H128525   4.822   6.859   7.492 -0.0606  1.7714  0.0462
 2322TIP3    H228526   4.702   6.873   7.400 -0.7283 -1.2806  0.3264
 2323TIP3   OH228527   2.888   1.987   7.540  0.0457 -0.1037 -0.0117
 2323TIP3    H128528   2.952   1.946   7.482  0.4446  0.3204  0.1264
 2323TIP3    H228529   2.807   1.989   7.488  0.8854  2.1493 -1.3791
 2324TIP3   OH228530   3.757   3.141   1.466 -0.1845  0.2417 -0.0276
 2324TIP3    H128531   3.673   3.096   1.463 -0.6695  1.1461 -1.1564
 2324TIP3    H228532   3.821   3.074   1.442 -0.6576 -0.3132  0.2464
 2325TIP3   OH228533   5.184   1.485   7.062 -0.1118 -0.4173  0.2324
 2325TIP3    H128534   5.191   1.578   7.085 -0.3255 -0.5792  0.9856
 2325TIP3    H228535   5.271   1.462   7.030  0.6767 -0.5265  2.2979
 2326TIP3   OH228536   2.752   3.657   1.551  0.5597 -0.2898  0.3780
 2326TIP3    H128537   2.828   3.640   1.607  1.0767  1.7346  0.3736
 2326TIP3    H228538   2.679   3.619   1.598  1.3478 -0.8276  1.2058
 2327TIP3   OH228539   0.124   2.741   1.025 -0.3020  0.2069  0.3694
 2327TIP3    H128540   0.062   2.668   1.034 -0.8437  0.5045 -0.7320
 2327TIP3    H228541   0.080   2.802   0.965  0.5626  0.9755  0.5065
 2328TIP3   OH228542   2.835   4.297   7.938 -0.0619  0.7927 -0.7233
 2328TIP3    H128543   2.832   4.389   7.966  3.4904  0.4232  1.4700
 2328TIP3    H228544   2.893   4.298   7.862  0.0716  0.3617 -0.6290
 2329TIP3   OH228545   4.127   5.452   1.396  0.6341 -0.0210  0.0272
 2329TIP3    H128546   4.156   5.362   1.406  1.2049  0.2815  1.4279
 2329TIP3    H228547   4.062   5.450   1.326 -1.6255 -2.0372  1.9970
 2330TIP3   OH228548   4.258   5.976   1.038  0.0376  0.2940  0.4281
 2330TIP3    H128549   4.248   6.039   1.109  0.3365  1.1987 -0.3042
 2330TIP3    H228550   4.170   5.945   1.021 -0.1191  0.5350  0.7859
 2331TIP3   OH228551   0.031   0.413   7.686 -0.2429  0.4433  0.1768
 2331TIP3    H128552   0.000   0.367   7.607  0.4324 -0.0036  0.1586
 2331TIP3    H228553   0.082   0.486   7.652  2.8491 -1.5738  0.0693
 2332TIP3   OH228554   5.359   3.917   6.277 -0.3473  0.2020  0.3770
 2332TIP3    H128555   5.448   3.883   6.280 -0.2187  0.5225  0.2522
 2332TIP3    H228556   5.322   3.897   6.363 -0.0342  0.3933  0.5565
 2333TIP3   OH228557   0.163   3.953   7.065 -0.5910 -0.3232 -0.2982
 2333TIP3    H128558   0.088   4.002   7.096 -0.7218 -1.0894  0.6454
 2333TIP3    H228559   0.158   3.869   7.111  0.2439 -0.7965 -1.0230
 2334TIP3   OH228560   5.569   1.196   7.506  0.7316  0.0317 -0.6480
 2334TIP3    H128561   5.565   1.186   7.601  0.7949  0.2315 -0.6235
 2334TIP3    H228562   5.595   1.110   7.473 -1.3898 -0.6693 -0.6421
 2335TIP3   OH228563   6.301   5.751   7.509  0.1218  0.0664 -0.7002
 2335TIP3    H128564   6.273   5.735   7.419 -1.5457  0.4620 -0.2775
 2335TIP3    H228565   6.357   5.676   7.530 -1.9971 -1.7210 -1.0420
 2336TIP3   OH228566   2.455   4.961   8.170 -0.0086  0.3647 -0.1551
 2336TIP3    H128567   2.500   4.959   8.255  0.1428  0.4458 -0.2327
 2336TIP3    H228568   2.496   4.891   8.119  1.4575  1.7090 -0.9397
 2337TIP3   OH228569   0.464   3.486   2.076 -0.2519  0.0053 -0.8962
 2337TIP3    H128570   0.423   3.401   2.063 -3.6968  1.5045 -0.9069
 2337TIP3    H228571   0.441   3.510   2.166 -1.3260  1.8116 -1.5896
 2338TIP3   OH228572   4.930   1.502   0.974  0.1186  0.4761  0.6071
 2338TIP3    H128573   5.006   1.444   0.974 -0.2929 -0.0878  1.5513
 2338TIP3    H228574   4.962   1.583   1.014  0.1670  0.1484  1.2484
 2339TIP3   OH228575   6.743   4.752   7.415 -0.2138  0.4230 -0.0216
 2339TIP3    H128576   6.740   4.767   7.320 -1.1833 -1.4137 -0.3337
 2339TIP3    H228577   6.729   4.838   7.453  1.4457  1.4088 -1.5180
 2340TIP3   OH228578   6.733   1.342   7.095  0.2232 -0.2155 -0.2266
 2340TIP3    H128579   6.716   1.252   7.124 -0.1908 -0.0760 -0.0273
 2340TIP3    H228580   6.749   1.391   7.176  1.9786 -0.4047 -0.4159
 2341TIP3   OH228581   0.055   3.726   1.421 -0.2468 -0.3205  0.2300
 2341TIP3    H128582  -0.029   3.753   1.458 -0.0057  0.9428 -0.0893
 2341TIP3    H228583   0.081   3.650   1.473 -1.1813 -0.2061  0.8902
 2342TIP3   OH228584   5.368   2.206   1.027 -0.3311 -0.3642  0.1337
 2342TIP3    H128585   5.354   2.257   0.947 -0.6757 -0.8832 -0.1362
 2342TIP3    H228586   5.357   2.270   1.097 -1.4313 -0.1934 -0.1770
 2343TIP3   OH228587   2.780   4.937   2.397  0.2990 -0.5735 -0.3920
 2343TIP3    H128588   2.730   4.914   2.475 -0.4615 -0.4167 -0.8319
 2343TIP3    H228589   2.861   4.976   2.432 -1.5545  2.9980  0.4082
 2344TIP3   OH228590   0.107   2.908   1.258 -0.4032 -0.2382  0.2361
 2344TIP3    H128591   0.028   2.923   1.206  0.7806  0.8010 -1.3715
 2344TIP3    H228592   0.165   2.860   1.200  0.9265  0.8574  0.6100
 2345TIP3   OH228593   1.992   6.283   1.159  0.5389 -0.0603 -0.1852
 2345TIP3    H128594   1.980   6.190   1.179 -2.0708 -0.1367 -1.5924
 2345TIP3    H228595   2.032   6.284   1.072  0.3133  0.1074 -0.2893
 2346TIP3   OH228596   6.142   0.338   0.478 -0.5001  0.5097 -0.5479
 2346TIP3    H128597   6.116   0.430   0.476 -2.1891  0.0828 -0.2441
 2346TIP3    H228598   6.122   0.305   0.391  0.4973  0.5235 -0.7859
 2347TIP3   OH228599   1.223   4.689   8.299  0.1488  0.0289 -0.6431
 2347TIP3    H128600   1.181   4.702   8.215 -0.0156  0.3383 -0.5144
 2347TIP3    H228601   1.184   4.755   8.356  1.3497  0.8164 -0.7119
 2348TIP3   OH228602   5.156   6.592   1.601 -0.6375 -0.0488 -0.2227
 2348TIP3    H128603   5.131   6.614   1.690  0.6432  0.5044  0.0253
 2348TIP3    H228604   5.238   6.542   1.610  0.6474  1.7550 -1.1262
 2349TIP3   OH228605   1.067   1.820   0.912 -0.1327 -0.3046  0.1889
 2349TIP3    H128606   1.134   1.768   0.957 -0.5834 -0.0116  1.2107
 2349TIP3    H228607   1.117   1.872   0.848  0.6697  0.1018  1.1087
 2350TIP3   OH228608   0.150   4.477   7.873 -0.2305 -0.5246 -0.4474
 2350TIP3    H128609   0.138   4.572   7.880 -1.2125 -0.7466  1.7954
 2350TIP3    H228610   0.212   4.466   7.801  2.2693  2.0272  1.0839
 2351TIP3   OH228611   0.448   4.339   2.433  0.2187  0.4308 -0.5313
 2351TIP3    H128612   0.371   4.376   2.477 -0.6363 -1.1797 -0.6205
 2351TIP3    H228613   0.421   4.329   2.342  0.0221 -1.4169 -0.2973
 2352TIP3   OH228614   1.163   6.358   7.379 -0.2704 -0.3513 -0.2210
 2352TIP3    H128615   1.164   6.266   7.404 -0.3894 -0.9599 -2.2710
 2352TIP3    H228616   1.120   6.359   7.294  0.3367  1.5137 -0.5514
 2353TIP3   OH228617   3.195   0.880   0.134  0.5094 -0.6106  0.0993
 2353TIP3    H128618   3.290   0.878   0.150  0.4757  0.7415  0.6371
 2353TIP3    H228619   3.159   0.922   0.212 -0.2821  0.9870 -1.0832
 2354TIP3   OH228620   6.133   2.924   6.856 -0.3647 -0.1758 -0.6000
 2354TIP3    H128621   6.052   2.898   6.902 -0.5064  0.6394 -0.3744
 2354TIP3    H228622   6.108   2.927   6.764 -0.2540 -1.1596 -0.6783
 2355TIP3   OH228623   2.332   4.249   1.057  0.0519 -0.1282 -0.0234
 2355TIP3    H128624   2.348   4.259   0.963 -1.1367  0.4466 -0.1753
 2355TIP3    H228625   2.336   4.155   1.072 -2.6622 -0.5143 -1.2246
 2356TIP3   OH228626   0.896   6.507   2.182  0.3452  0.0099 -0.3908
 2356TIP3    H128627   0.881   6.497   2.276  0.7431 -2.7048 -0.5452
 2356TIP3    H228628   0.991   6.512   2.173  0.2786  1.5282 -0.6094
 2357TIP3   OH228629   0.371   0.753   7.763  0.1092 -0.2489  0.2551
 2357TIP3    H128630   0.322   0.685   7.718 -1.9077  1.3435 -0.1323
 2357TIP3    H228631   0.440   0.778   7.701 -0.5072 -0.4390 -0.5287
 2358TIP3   OH228632   2.337   1.146   0.019  0.0507  0.1453  0.5537
 2358TIP3    H128633   2.391   1.216  -0.018  0.0405  0.0128  0.2862
 2358TIP3    H228634   2.273   1.125  -0.050  0.6956 -0.8325  0.2318
 2359TIP3   OH228635   4.691   1.522   7.493 -0.3231  0.1315 -0.0857
 2359TIP3    H128636   4.740   1.580   7.435  0.0458 -0.2697 -0.1820
 2359TIP3    H228637   4.692   1.437   7.448  0.3354 -0.2951  0.6962
 2360TIP3   OH228638   2.543   1.306   2.457  0.1670  0.6019 -0.2123
 2360TIP3    H128639   2.575   1.396   2.467 -1.8202  1.6148 -2.0910
 2360TIP3    H228640   2.581   1.278   2.374 -0.3821  0.2618 -0.3501
 2361TIP3   OH228641   3.805   3.736   1.935 -0.3449 -0.3401  0.1815
 2361TIP3    H128642   3.873   3.756   1.999  0.9756 -0.2853 -1.1810
 2361TIP3    H228643   3.850   3.689   1.866 -2.1845 -2.5504  0.3624
 2362TIP3   OH228644   3.168   2.298   1.060  0.2570  0.8738 -0.7862
 2362TIP3    H128645   3.128   2.249   1.133  1.8673  0.2313 -0.2940
 2362TIP3    H228646   3.156   2.240   0.984  0.7621  0.4060 -0.5193
 2363TIP3   OH228647   2.765   1.139   7.350  0.3910 -0.1836  0.2458
 2363TIP3    H128648   2.748   1.211   7.411 -1.0162 -0.6143  0.3764
 2363TIP3    H228649   2.768   1.182   7.264  0.9243  0.2121  0.4525
 2364TIP3   OH228650   3.662   1.120   0.237 -0.4831 -0.3272  0.6276
 2364TIP3    H128651   3.627   1.199   0.197  0.8301 -0.1781 -0.2908
 2364TIP3    H228652   3.616   1.112   0.320  0.5127  2.3135  1.5084
 2365TIP3   OH228653   3.234   1.808   6.877 -0.2776 -0.1011 -0.1040
 2365TIP3    H128654   3.235   1.736   6.813  2.0124 -1.1995  1.0702
 2365TIP3    H228655   3.304   1.866   6.849 -0.4464  0.3594  0.4073
 2366TIP3   OH228656   6.210   5.968   0.009 -0.8614 -0.5314 -0.2515
 2366TIP3    H128657   6.254   6.053   0.004 -0.5676 -0.7431 -1.4042
 2366TIP3    H228658   6.245   5.928   0.089 -1.7006  0.7974  0.8174
 2367TIP3   OH228659   3.001   2.506   0.873  0.6381 -0.3891  0.0451
 2367TIP3    H128660   2.987   2.493   0.967  1.2402 -0.2484  0.1545
 2367TIP3    H228661   3.011   2.418   0.838 -0.3253 -0.4889 -0.0101
 2368TIP3   OH228662   3.794   5.263   7.698 -0.4117  0.1463  0.1755
 2368TIP3    H128663   3.872   5.273   7.643 -0.2908  1.9727  0.5874
 2368TIP3    H228664   3.827   5.225   7.779 -0.2235 -0.5250 -0.2083
 2369TIP3   OH228665   1.002   1.270   0.884  0.1715  0.3320 -0.3765
 2369TIP3    H128666   0.980   1.222   0.964  1.6264 -1.2381 -0.8920
 2369TIP3    H228667   0.968   1.216   0.813 -1.4838  1.9168 -0.8857
 2370TIP3   OH228668   3.963   4.510   1.202 -0.0451 -0.1218  0.2964
 2370TIP3    H128669   3.946   4.575   1.270  0.2741  2.5591 -1.9832
 2370TIP3    H228670   4.042   4.541   1.158 -1.4066 -0.4524 -2.6142
 2371TIP3   OH228671   4.705   3.222   2.071  0.0479 -0.1731 -0.2425
 2371TIP3    H128672   4.673   3.244   1.984 -2.4376 -0.3500  0.5628
 2371TIP3    H228673   4.629   3.188   2.118  1.4775 -0.8443  1.7763
 2372TIP3   OH228674   3.524   2.199   6.655  0.0292 -0.0518  0.2689
 2372TIP3    H128675   3.592   2.213   6.588 -1.1273 -0.0192 -0.9273
 2372TIP3    H228676   3.460   2.268   6.638 -0.1858  0.0747  1.5563
 2373TIP3   OH228677   4.137   1.880   8.172  0.0162  0.1854 -0.1165
 2373TIP3    H128678   4.206   1.932   8.130 -0.4189 -0.5147 -1.8081
 2373TIP3    H228679   4.181   1.835   8.244  1.4107 -0.4730 -1.3268
 2374TIP3   OH228680   4.124   6.099   7.993  0.5547 -0.1756  0.0038
 2374TIP3    H128681   4.124   6.177   7.937 -1.2360  0.2132  0.5057
 2374TIP3    H228682   4.044   6.052   7.970  1.4267 -1.7108 -0.0371
 2375TIP3   OH228683   3.102   0.864   1.495 -0.0261  0.2604  0.0604
 2375TIP3    H128684   3.069   0.855   1.406  0.3213  0.2200 -0.0626
 2375TIP3    H228685   3.142   0.951   1.497 -2.3608  1.4314  0.9217
 2376TIP3   OH228686   4.462   5.799   0.807 -0.0134 -0.1860  0.4099
 2376TIP3    H128687   4.533   5.847   0.850  0.1682 -0.0668 -0.0136
 2376TIP3    H228688   4.506   5.726   0.763 -0.4269 -1.5571  2.1511
 2377TIP3   OH228689   4.253   3.506   0.020 -0.0336  0.4572 -0.0078
 2377TIP3    H128690   4.280   3.415   0.033 -2.0171 -0.5038 -1.9303
 2377TIP3    H228691   4.205   3.529   0.099 -1.5712 -1.0514 -0.4461
 2378TIP3   OH228692   5.373   1.011   8.049  0.2452  0.4912 -0.7201
 2378TIP3    H128693   5.316   1.018   7.973 -1.1654  1.4620  0.3769
 2378TIP3    H228694   5.327   0.950   8.108  1.2127 -0.0835 -0.5309
 2379TIP3   OH228695   5.409   5.738   1.870 -0.4780 -0.0556 -0.0920
 2379TIP3    H128696   5.436   5.799   1.939  0.9663  0.7692 -1.3306
 2379TIP3    H228697   5.313   5.745   1.869 -0.4039  1.5195  0.4050
 2380TIP3   OH228698   5.262   2.902   8.045  0.2957 -0.0417 -0.3934
 2380TIP3    H128699   5.247   2.949   8.127  2.8479 -3.1846  2.1700
 2380TIP3    H228700   5.297   2.967   7.985  1.7214  1.7873  2.2350
 2381TIP3   OH228701   6.679   0.642   0.876 -0.1839 -0.2257  0.0404
 2381TIP3    H128702   6.768   0.624   0.907  0.1844  0.6197 -0.5218
 2381TIP3    H228703   6.678   0.612   0.786  0.0645  1.3438 -0.5135
 2382TIP3   OH228704   0.733   2.292   0.907  0.4159  0.5215 -0.6096
 2382TIP3    H128705   0.800   2.319   0.969 -0.2817  1.6351 -0.3270
 2382TIP3    H228706   0.751   2.199   0.891  1.1710  0.4629  0.5203
 2383TIP3   OH228707   0.647   3.515   8.405 -0.3945 -0.0761 -0.3815
 2383TIP3    H128708   0.647   3.521   8.500 -0.2301 -2.0129 -0.2214
 2383TIP3    H228709   0.556   3.529   8.379 -0.5552 -0.2020  0.1146
 2384TIP3   OH228710   1.325   1.516   8.016 -0.3015 -0.5958 -0.0573
 2384TIP3    H128711   1.400   1.555   7.972 -1.4549 -0.8094 -2.3779
 2384TIP3    H228712   1.363   1.457   8.081  1.4934  0.5504 -0.0182
 2385TIP3   OH228713   5.965   1.809   0.907  0.3118  0.6506  0.0080
 2385TIP3    H128714   5.954   1.813   0.812  1.6264  0.7913 -0.1620
 2385TIP3    H228715   5.963   1.716   0.929 -1.5815  0.6728  0.0796
 2386TIP3   OH228716   0.071   0.296   8.382 -0.3618 -0.2748 -0.1606
 2386TIP3    H128717   0.047   0.309   8.290  0.9698  0.0519 -0.4774
 2386TIP3    H228718   0.057   0.203   8.397 -0.8122 -0.2898 -0.6232
 2387TIP3   OH228719   3.410   5.212   6.410  0.4975  0.1229  0.0725
 2387TIP3    H128720   3.346   5.178   6.347  0.4062 -0.9136  0.6869
 2387TIP3    H228721   3.494   5.178   6.379  0.6622  0.9269 -0.3637
 2388TIP3   OH228722   0.319   6.137   0.120  0.3113  0.1323 -0.2493
 2388TIP3    H128723   0.336   6.213   0.176  1.0617 -0.2631  0.0756
 2388TIP3    H228724   0.375   6.149   0.044  0.6700 -0.2523 -0.0493
 2389TIP3   OH228725   1.101   3.382   7.708  0.1151 -0.0507 -0.2869
 2389TIP3    H128726   1.180   3.399   7.759  1.0751 -1.1499 -1.3419
 2389TIP3    H228727   1.087   3.288   7.716 -1.1437  0.1261 -0.0859
 2390TIP3   OH228728   2.909   1.698   1.792 -0.4736 -0.0597  0.1922
 2390TIP3    H128729   2.859   1.626   1.831 -0.0676 -1.3518 -1.5639
 2390TIP3    H228730   2.976   1.719   1.857 -0.1288 -1.7899  0.4384
 2391TIP3   OH228731   3.258   2.336   0.349 -0.2645  0.1217  0.2813
 2391TIP3    H128732   3.246   2.298   0.262  0.6864  0.4271  0.0034
 2391TIP3    H228733   3.337   2.390   0.341 -0.5034  0.6222  1.1772
 2392TIP3   OH228734   0.632   6.682   2.541 -0.3784  0.1654  0.1962
 2392TIP3    H128735   0.623   6.777   2.547  1.8831  0.3534  1.8797
 2392TIP3    H228736   0.548   6.648   2.571 -1.8133  1.5517 -1.9311
 2393TIP3   OH228737   6.653   2.089   6.995 -0.6476 -0.1436  0.3269
 2393TIP3    H128738   6.667   2.146   7.071  1.3266  1.2458 -0.9882
 2393TIP3    H228739   6.558   2.090   6.983 -1.0930 -0.8219  3.0201
 2394TIP3   OH228740   5.228   0.805   1.124 -0.5210  0.3155  0.3240
 2394TIP3    H128741   5.302   0.745   1.123 -0.1326  0.7335 -2.1080
 2394TIP3    H228742   5.247   0.866   1.194  1.0563 -0.0411  0.2316
 2395TIP3   OH228743   3.805   6.521   7.309  0.0595  0.1374  0.1886
 2395TIP3    H128744   3.816   6.426   7.307 -0.1193  0.1344 -1.1221
 2395TIP3    H228745   3.734   6.539   7.248 -0.3993  1.0614  0.9601
 2396TIP3   OH228746   6.596   3.321   6.341  0.0971  0.3932  0.1136
 2396TIP3    H128747   6.620   3.378   6.267 -0.5350 -2.8415 -2.8629
 2396TIP3    H228748   6.677   3.312   6.391  1.0712  1.3028 -1.2113
 2397TIP3   OH228749   4.875   3.820   8.263 -0.4780  0.0775 -0.1265
 2397TIP3    H128750   4.822   3.881   8.212 -0.9592  0.6025  0.9805
 2397TIP3    H228751   4.956   3.812   8.213 -0.9935  0.4435 -1.0561
 2398TIP3   OH228752   6.241   3.759   7.427 -0.4202  0.0434 -0.3664
 2398TIP3    H128753   6.253   3.708   7.347  0.7546  0.5207 -0.5208
 2398TIP3    H228754   6.220   3.693   7.494  2.1977 -0.8777 -0.3173
 2399TIP3   OH228755   6.405   3.990   6.679 -0.1618  0.3448  0.1584
 2399TIP3    H128756   6.322   4.034   6.698 -0.2859  0.2456 -0.1552
 2399TIP3    H228757   6.383   3.897   6.678  0.4112  0.1267  2.4868
 2400TIP3   OH228758   6.641   1.006   7.938 -0.2126 -0.1215  0.4845
 2400TIP3    H128759   6.595   1.086   7.964  0.7295 -0.0764  2.1739
 2400TIP3    H228760   6.590   0.935   7.979 -1.1019 -0.4358 -1.0887
 2401TIP3   OH228761   1.168   4.506   0.486 -0.7088  0.0479 -0.1771
 2401TIP3    H128762   1.225   4.530   0.559 -0.1499  0.1066 -0.6246
 2401TIP3    H228763   1.195   4.563   0.414 -1.1290 -0.1366 -0.4859
 2402TIP3   OH228764   5.849   0.221   1.124  0.1533 -0.5184  0.2071
 2402TIP3    H128765   5.795   0.196   1.199 -0.0599  1.2204  0.6726
 2402TIP3    H228766   5.922   0.159   1.126  0.6447  0.0371  2.4369
 2403TIP3   OH228767   3.389   3.448   2.066  0.4127  0.5303 -0.4968
 2403TIP3    H128768   3.334   3.520   2.096 -1.1248 -0.3128 -1.1179
 2403TIP3    H228769   3.391   3.386   2.139  0.0801  0.3271 -0.6552
 2404TIP3   OH228770   4.606   4.049   0.385 -0.2632 -0.4687  0.1619
 2404TIP3    H128771   4.545   4.010   0.323 -1.5303 -0.2963  1.2499
 2404TIP3    H228772   4.691   4.045   0.341 -0.7915 -2.0665 -0.8028
 2405TIP3   OH228773   5.116   6.259   1.857 -0.3646  0.3787 -0.2097
 2405TIP3    H128774   5.152   6.170   1.859  1.5261  1.0250 -1.8383
 2405TIP3    H228775   5.189   6.315   1.883 -1.2661  1.5498 -0.1049
 2406TIP3   OH228776   6.629   0.089   0.917 -0.1573  0.1122 -0.3249
 2406TIP3    H128777   6.651   0.110   0.826 -0.1731 -0.9725 -0.5922
 2406TIP3    H228778   6.553   0.033   0.911 -0.4556  0.4289  0.3982
 2407TIP3   OH228779   4.022   3.391   1.533 -0.1801  0.1697 -0.1768
 2407TIP3    H128780   4.027   3.296   1.543 -0.1056  0.0912 -0.9154
 2407TIP3    H228781   3.950   3.406   1.472 -0.9061  0.6584  0.7694
 2408TIP3   OH228782   2.319   6.341   8.574 -0.3709 -0.0501  0.3293
 2408TIP3    H128783   2.405   6.337   8.533  0.0148  1.3666  0.9184
 2408TIP3    H228784   2.313   6.261   8.627 -0.1360 -0.9944 -1.0286
 2409TIP3   OH228785   2.248   6.008   6.625  0.6521  0.2015 -0.3016
 2409TIP3    H128786   2.219   5.917   6.628  0.4871  0.2248 -1.0889
 2409TIP3    H228787   2.343   6.003   6.632  0.6099  0.0037  0.1931
 2410TIP3   OH228788   4.911   3.815   1.370 -0.0061 -0.2715 -0.0531
 2410TIP3    H128789   4.818   3.837   1.374  0.1663  0.5084 -0.2716
 2410TIP3    H228790   4.916   3.745   1.305 -0.3491  0.2043 -0.6001
 2411TIP3   OH228791   2.799   4.630   2.195 -0.4196  0.1621  0.2303
 2411TIP3    H128792   2.754   4.658   2.274  1.7990 -0.0428  1.6562
 2411TIP3    H228793   2.892   4.645   2.214  0.3713 -2.1481 -1.4004
 2412TIP3   OH228794   1.236   4.729   1.219  0.4081  0.2694  0.0140
 2412TIP3    H128795   1.178   4.682   1.279  3.3611 -1.5966  1.6280
 2412TIP3    H228796   1.266   4.662   1.158  2.6953  0.5347  0.7499
 2413TIP3   OH228797   6.788   6.875   7.017 -0.0559  0.1057 -0.2383
 2413TIP3    H128798   6.849   6.860   6.944 -0.1068 -0.8901 -0.0787
 2413TIP3    H228799   6.844   6.891   7.093  0.0026  1.5440 -0.5459
 2414TIP3   OH228800   4.265   4.198   2.039  0.1118 -0.2037 -0.1614
 2414TIP3    H128801   4.283   4.119   1.988  1.7390  0.3358 -0.4721
 2414TIP3    H228802   4.214   4.254   1.981 -1.2164 -1.0824  0.1270
 2415TIP3   OH228803   4.336   6.431   8.559  0.1472  0.4571  0.4056
 2415TIP3    H128804   4.292   6.429   8.644 -0.6909  0.2369 -0.0191
 2415TIP3    H228805   4.276   6.481   8.503  1.4812  2.1078  0.3585
 2416TIP3   OH228806   4.525   1.868   1.461  0.9854  0.1945  0.8006
 2416TIP3    H128807   4.483   1.790   1.424  0.7444  1.0972 -0.9485
 2416TIP3    H228808   4.475   1.942   1.425  1.6332  1.1840  1.8495
 2417TIP3   OH228809   1.950   0.897   8.055  0.6122  0.3216 -0.4162
 2417TIP3    H128810   1.920   0.829   8.115  0.5313  1.3331  0.7435
 2417TIP3    H228811   1.994   0.960   8.112  1.0265  1.0369 -1.5112
 2418TIP3   OH228812   3.017   4.088   7.129  0.1769  0.6375  0.4806
 2418TIP3    H128813   3.064   4.162   7.090  1.8938 -0.9433 -0.5957
 2418TIP3    H228814   3.032   4.015   7.069 -0.1082 -0.9984  2.3023
 2419TIP3   OH228815   5.784   5.745   1.948 -0.0455 -0.4789 -0.1444
 2419TIP3    H128816   5.845   5.812   1.978 -0.3776  0.1392 -0.8388
 2419TIP3    H228817   5.707   5.756   2.004  0.2523 -0.8986  0.3609
 2420TIP3   OH228818   3.925   1.819   1.119  0.4066  0.1130  0.4767
 2420TIP3    H128819   3.980   1.742   1.135  1.1762  0.5832  0.1447
 2420TIP3    H228820   3.877   1.831   1.201  0.0645 -0.8770  0.4441
 2421TIP3   OH228821   0.764   1.114   0.960 -0.1897 -0.1102  0.3927
 2421TIP3    H128822   0.739   1.026   0.931 -1.7324 -0.4050  2.4303
 2421TIP3    H228823   0.715   1.173   0.903 -0.8136 -0.6173  0.3899
 2422TIP3   OH228824   6.024   4.433   7.580  0.0709  0.0702 -0.1412
 2422TIP3    H128825   6.021   4.381   7.499 -0.1233  2.8269 -2.0415
 2422TIP3    H228826   5.972   4.383   7.642 -1.3200 -1.3175 -2.2800
 2423TIP3   OH228827   1.560   1.377   8.599 -0.0111  0.5016 -0.4033
 2423TIP3    H128828   1.593   1.429   8.525  0.8684  0.6486  0.0787
 2423TIP3    H228829   1.513   1.305   8.558  2.7451 -0.9480 -1.2250
 2424TIP3   OH228830   1.261   4.093   2.307 -0.2673 -0.0509 -0.2170
 2424TIP3    H128831   1.318   4.096   2.230 -0.9047  0.8284 -0.6743
 2424TIP3    H228832   1.202   4.020   2.289  0.1776 -0.4324 -0.1324
 2425TIP3   OH228833   1.438   2.549   7.684 -0.0258  0.2759 -0.2755
 2425TIP3    H128834   1.361   2.602   7.706 -0.9087 -0.9103 -0.4317
 2425TIP3    H228835   1.427   2.528   7.592  1.4255  1.5773 -0.7867
 2426TIP3   OH228836   6.416   1.047   7.732 -0.0668 -0.4002  0.2047
 2426TIP3    H128837   6.455   1.062   7.646  0.3473  1.8506  0.7338
 2426TIP3    H228838   6.488   1.012   7.785 -0.0482 -0.7805 -0.0632
 2427TIP3   OH228839   0.704   0.009   1.940  0.0023  0.2029  0.3834
 2427TIP3    H128840   0.744  -0.048   1.875 -0.0167  3.7709 -3.1409
 2427TIP3    H228841   0.775   0.067   1.968 -0.9077  1.4771  0.1575
 2428TIP3   OH228842   5.069   5.148   0.555  0.1300  0.7684  0.2265
 2428TIP3    H128843   5.097   5.188   0.637 -1.0022 -0.3559  1.2094
 2428TIP3    H228844   4.981   5.184   0.540  0.3549  1.0166 -0.5414
 2429TIP3   OH228845   2.012   4.290   7.921  0.2734  0.2002  0.4748
 2429TIP3    H128846   1.942   4.317   7.862  0.4672  1.5743  0.8547
 2429TIP3    H228847   1.969   4.232   7.984 -0.7619  1.8444  1.3254
 2430TIP3   OH228848   2.772   2.771   0.212  0.0005  0.2780 -0.2563
 2430TIP3    H128849   2.704   2.777   0.144 -1.0786  0.7274  0.8231
 2430TIP3    H228850   2.743   2.698   0.267  0.7809  0.0199 -0.1791
 2431TIP3   OH228851   4.990   4.687   8.252 -0.2952  0.8373 -0.2980
 2431TIP3    H128852   5.044   4.697   8.331 -0.6050 -0.8783  0.1694
 2431TIP3    H228853   4.901   4.709   8.281 -0.1449  1.9508 -0.6351
 2432TIP3   OH228854   0.108   5.863   7.262  0.0580  0.3960 -0.4470
 2432TIP3    H128855   0.193   5.833   7.231  0.3529 -0.0343  0.7519
 2432TIP3    H228856   0.051   5.787   7.255  0.2573  0.1448  0.5290
 2433TIP3   OH228857   1.452   3.857   0.327  0.8313 -0.1093  0.2826
 2433TIP3    H128858   1.517   3.913   0.370 -0.1964 -0.1727  2.0027
 2433TIP3    H228859   1.489   3.769   0.334  0.8387 -0.0732  0.7569
 2434TIP3   OH228860   0.172   1.613   0.118 -0.2174 -0.1135 -0.1064
 2434TIP3    H128861   0.076   1.616   0.120 -0.2386  0.2338  3.1330
 2434TIP3    H228862   0.192   1.544   0.054 -2.6125 -0.5000 -0.5402
 2435TIP3   OH228863   5.509   0.130   7.909  0.2287 -0.1550  0.1813
 2435TIP3    H128864   5.567   0.139   7.985 -1.7028 -0.1327  1.7330
 2435TIP3    H228865   5.421   0.137   7.945 -0.8229  3.0458 -2.4645
 2436TIP3   OH228866   3.535   2.479   0.149 -0.0436 -0.0756  0.1134
 2436TIP3    H128867   3.624   2.509   0.132 -0.1566 -0.1506 -0.6342
 2436TIP3    H228868   3.528   2.395   0.105 -0.3828 -0.2306  0.4512
 2437TIP3   OH228869   2.385   3.587   1.495 -0.0845  0.7117  0.0282
 2437TIP3    H128870   2.411   3.579   1.587  2.4446  0.0316 -0.6453
 2437TIP3    H228871   2.369   3.681   1.483 -0.7604  0.7610  1.2293
 2438TIP3   OH228872   6.832   4.099   7.171 -0.7384  0.4615 -0.3289
 2438TIP3    H128873   6.823   4.135   7.082 -2.0338  0.2436 -0.3143
 2438TIP3    H228874   6.783   4.017   7.168  0.2737 -0.1723  0.2573
 2439TIP3   OH228875   5.217   2.261   1.562 -0.0324  0.0150 -0.2637
 2439TIP3    H128876   5.304   2.245   1.597 -0.8511 -1.6837  1.1899
 2439TIP3    H228877   5.231   2.314   1.484  2.3144 -0.5685 -0.3002
 2440TIP3   OH228878   5.125   3.407   8.491  0.4527  0.1459  0.2339
 2440TIP3    H128879   5.156   3.333   8.542  1.1918  1.4374  1.7338
 2440TIP3    H228880   5.036   3.383   8.466 -0.4484 -0.0557  3.2436
 2441TIP3   OH228881   3.691   1.456   7.374  0.0849 -0.3322 -0.0668
 2441TIP3    H128882   3.601   1.423   7.374  0.1786 -0.6392 -1.5846
 2441TIP3    H228883   3.685   1.539   7.328  0.8556 -1.2389 -1.8781
 2442TIP3   OH228884   4.905   3.401   8.312 -0.3774 -0.0257 -0.8922
 2442TIP3    H128885   4.896   3.336   8.243  0.7397  0.7518 -1.7980
 2442TIP3    H228886   4.853   3.475   8.281 -1.8530 -0.5371  0.2500
 2443TIP3   OH228887   2.600   4.933   7.352  0.3873  0.0300  0.0346
 2443TIP3    H128888   2.612   4.842   7.324  0.9505 -0.2293  1.0791
 2443TIP3    H228889   2.532   4.967   7.293  0.8229 -0.7835 -0.9645
 2444TIP3   OH228890   2.778   4.836   1.998 -0.6901  0.4782  0.4125
 2444TIP3    H128891   2.725   4.889   2.057 -2.1559 -1.1287  0.6088
 2444TIP3    H228892   2.795   4.755   2.047 -0.9991 -0.4357 -0.9259
 2445TIP3   OH228893   1.636   1.448   2.126  0.4583 -0.1372 -0.0832
 2445TIP3    H128894   1.560   1.499   2.095  0.4946 -0.5707 -0.9190
 2445TIP3    H228895   1.712   1.502   2.104  0.4006  0.4247  1.0041
 2446TIP3   OH228896   0.025   4.336   7.551 -0.1945  0.2985  0.2476
 2446TIP3    H128897   0.015   4.305   7.641  0.2076 -0.1548  0.1399
 2446TIP3    H228898  -0.015   4.268   7.497  1.7662 -0.6700 -0.0662
 2447TIP3   OH228899   1.767   0.845   7.849  0.2433  0.5587 -0.3820
 2447TIP3    H128900   1.733   0.919   7.900  0.6001  0.6530 -0.2756
 2447TIP3    H228901   1.862   0.847   7.865  0.2195 -0.0957 -0.1468
 2448TIP3   OH228902   5.877   5.642   7.304 -0.0487 -0.7612 -0.4680
 2448TIP3    H128903   5.937   5.588   7.254 -1.6453 -1.7198 -1.4303
 2448TIP3    H228904   5.796   5.590   7.310 -0.9286  0.6233  0.4387
 2449TIP3   OH228905   4.464   5.509   0.178 -0.1183 -0.1778 -0.1211
 2449TIP3    H128906   4.405   5.511   0.253  1.2313  0.7918  0.9661
 2449TIP3    H228907   4.504   5.595   0.176 -1.9342  0.7841 -3.5505
 2450TIP3   OH228908   1.149   0.261   7.302  0.4276  0.0322  0.7956
 2450TIP3    H128909   1.203   0.185   7.278 -0.2402 -0.9061  2.1775
 2450TIP3    H228910   1.140   0.256   7.397 -3.1102 -0.5969  0.5555
 2451TIP3   OH228911   5.940   6.889   0.162  0.4103 -0.1949 -0.1313
 2451TIP3    H128912   6.020   6.889   0.215  0.7485  0.4721 -0.6272
 2451TIP3    H228913   5.947   6.810   0.109  0.1835 -0.7446  0.6320
 2452TIP3   OH228914   3.430   5.881   0.411 -0.3393  0.3511 -0.0747
 2452TIP3    H128915   3.433   5.953   0.348 -0.3845  0.1294 -0.3362
 2452TIP3    H228916   3.439   5.802   0.356 -1.7753  0.0846  0.0530
 2453TIP3   OH228917   0.829   2.029   0.954 -0.4032 -0.7331  0.8731
 2453TIP3    H128918   0.924   2.034   0.945 -0.4352  0.7474  1.1380
 2453TIP3    H228919   0.810   1.936   0.959  0.9603 -1.0797  0.0559
 2454TIP3   OH228920   0.292   3.894   2.538 -0.3138  0.2344  0.2848
 2454TIP3    H128921   0.353   3.869   2.468 -1.2032  0.9149 -0.7773
 2454TIP3    H228922   0.248   3.812   2.562  0.2793 -0.0765  0.3385
 2455TIP3   OH228923   1.045   2.061   7.239 -0.0735  0.0443  0.3860
 2455TIP3    H128924   0.983   2.058   7.312 -0.1969 -0.0519  0.2771
 2455TIP3    H228925   1.126   2.026   7.275  0.2105  1.1195  0.8173
 2456TIP3   OH228926   5.741   4.382   1.441 -1.0226 -0.1671  0.0072
 2456TIP3    H128927   5.674   4.323   1.406 -0.2429 -0.9036 -0.2844
 2456TIP3    H228928   5.701   4.420   1.520 -2.0653  0.0118 -0.5897
 2457TIP3   OH228929   1.032   0.634   2.467  0.4632 -0.2432  0.4180
 2457TIP3    H128930   1.024   0.679   2.551 -0.3384  0.3802  0.0262
 2457TIP3    H228931   0.982   0.553   2.478  0.6150 -0.3078  0.6364
 2458TIP3   OH228932   4.719   0.865   7.212  0.6046 -0.5636 -0.1111
 2458TIP3    H128933   4.762   0.786   7.179  2.8229 -0.4169  2.1159
 2458TIP3    H228934   4.663   0.834   7.283  0.7211 -0.2238  0.1282
 2459TIP3   OH228935   1.548   0.601   1.579 -0.0960 -0.5316  0.0311
 2459TIP3    H128936   1.475   0.620   1.638 -1.2566 -2.6195 -0.6139
 2459TIP3    H228937   1.541   0.666   1.509 -2.0415 -1.3531 -0.5869
 2460TIP3   OH228938   3.174   3.950   6.894 -0.5342  0.0809 -0.1999
 2460TIP3    H128939   3.221   4.033   6.888 -0.3408 -0.0985 -1.4338
 2460TIP3    H228940   3.179   3.913   6.806 -0.7459 -1.1792  0.2982
 2461TIP3   OH228941   1.290   0.895   2.107 -0.1264  0.2880 -0.1551
 2461TIP3    H128942   1.306   0.800   2.103  0.3197  0.3782 -0.6875
 2461TIP3    H228943   1.236   0.907   2.185  0.3156 -0.3343  0.2513
 2462TIP3   OH228944   4.624   3.973   7.130 -0.4079  0.2394 -0.1752
 2462TIP3    H128945   4.707   4.019   7.136  0.8938 -2.0214  0.3987
 2462TIP3    H228946   4.581   4.012   7.053  1.6284  0.7973 -1.1105
 2463TIP3   OH228947   2.582   3.454   0.175 -0.1834  0.1282 -0.2105
 2463TIP3    H128948   2.677   3.464   0.165 -0.0569 -1.3313 -0.6877
 2463TIP3    H228949   2.553   3.413   0.094 -1.0213 -0.5920  0.4304
 2464TIP3   OH228950   0.544   2.012   6.621  0.1057  0.5384  0.3972
 2464TIP3    H128951   0.482   2.065   6.571  0.0685  0.9649  0.8895
 2464TIP3    H228952   0.577   2.071   6.689 -1.2064 -0.5423  2.0418
 2465TIP3   OH228953   4.194   5.814   0.617  0.4011 -0.1660  0.2307
 2465TIP3    H128954   4.251   5.805   0.541  0.2172 -0.8573  0.1691
 2465TIP3    H228955   4.235   5.761   0.685 -1.1194 -2.2488 -0.3792
 2466TIP3   OH228956   3.169   0.726   1.712  0.0866 -0.8358 -0.4241
 2466TIP3    H128957   3.206   0.786   1.777 -1.2506 -1.5555  1.0805
 2466TIP3    H228958   3.140   0.783   1.641  1.6730 -0.0382 -0.4737
 2467TIP3   OH228959   0.956   5.656   7.563 -0.0144  0.4619 -0.4943
 2467TIP3    H128960   1.006   5.575   7.569  0.2998  0.6453 -0.6485
 2467TIP3    H228961   0.867   5.627   7.540 -0.5412 -0.0384  1.9276
 2468TIP3   OH228962   1.482   2.548   8.174  0.7955  0.0074 -0.0900
 2468TIP3    H128963   1.399   2.557   8.221  0.6150  0.2364 -0.4448
 2468TIP3    H228964   1.548   2.535   8.242  0.4777 -0.0945  0.1990
 2469TIP3   OH228965   0.298   3.175   6.794  0.3373 -0.6616 -0.0035
 2469TIP3    H128966   0.380   3.216   6.768  1.1947 -1.3082  1.5683
 2469TIP3    H228967   0.279   3.212   6.880 -0.6447 -1.0670 -0.0354
 2470TIP3   OH228968   5.423   4.421   1.133  0.7368  0.4705 -0.2092
 2470TIP3    H128969   5.493   4.484   1.117  0.2081  0.9065 -0.9011
 2470TIP3    H228970   5.361   4.436   1.061 -0.2735  0.4057  0.6156
 2471TIP3   OH228971   2.874   6.610   1.513  0.1176  0.4675  0.1766
 2471TIP3    H128972   2.892   6.559   1.434 -0.6736 -2.2329  1.6186
 2471TIP3    H228973   2.792   6.655   1.494 -0.5317 -0.8555 -0.2792
 2472TIP3   OH228974   5.904   0.616   1.033  0.3858  0.3887  0.4748
 2472TIP3    H128975   5.945   0.539   0.995  3.0507 -0.0303  3.7393
 2472TIP3    H228976   5.815   0.588   1.056  1.4912 -2.0314  2.1462
 2473TIP3   OH228977   4.323   4.785   0.007  0.1275 -0.1368 -0.1621
 2473TIP3    H128978   4.314   4.744  -0.079 -1.3702 -1.4088  0.5401
 2473TIP3    H228979   4.389   4.854  -0.006  0.8365 -1.0769 -2.0170
 2474TIP3   OH228980   3.559   5.921   7.103  0.0403 -0.0745 -0.4729
 2474TIP3    H128981   3.634   5.946   7.158  1.4604  0.1987 -2.4071
 2474TIP3    H228982   3.506   5.865   7.159  0.5682  1.4304  1.6623
 2475TIP3   OH228983   1.456   3.566   6.737 -0.1495 -0.3054  0.1623
 2475TIP3    H128984   1.422   3.499   6.677 -0.2216 -0.3996  0.3088
 2475TIP3    H228985   1.384   3.629   6.745 -1.0234 -1.4721  1.9669
 2476TIP3   OH228986   0.273   2.314   8.064 -0.0904  0.0400 -1.0349
 2476TIP3    H128987   0.336   2.319   7.991 -0.3703  0.9171 -1.2268
 2476TIP3    H228988   0.327   2.311   8.142  0.2074 -0.3785 -1.2528
 2477TIP3   OH228989   4.340   4.108   7.102 -0.5835  0.5638  0.3440
 2477TIP3    H128990   4.272   4.095   7.168 -1.0159 -0.5530 -0.2985
 2477TIP3    H228991   4.362   4.020   7.072 -2.0589  1.0783 -2.6410
 2478TIP3   OH228992   3.480   6.522   7.477 -0.2986 -0.1584 -0.3146
 2478TIP3    H128993   3.538   6.573   7.534 -0.3802  1.6622 -1.7703
 2478TIP3    H228994   3.396   6.567   7.480 -0.0551  0.5905 -2.5538
 2479TIP3   OH228995   1.474   4.137   7.001 -0.0683 -0.1181 -0.1064
 2479TIP3    H128996   1.415   4.188   7.057 -0.5026 -0.7601  0.0307
 2479TIP3    H228997   1.530   4.202   6.960 -1.6627  0.6245 -1.1916
 2480TIP3   OH228998   4.967   4.619   0.038 -0.0581  0.1586 -0.2321
 2480TIP3    H128999   4.959   4.554  -0.031 -2.3983 -0.3869  0.4485
 2480TIP3    H229000   5.057   4.610   0.070  0.0278 -1.9521 -0.9266
 2481TIP3   OH229001   2.286   3.231   8.457 -0.3199  0.5669  0.3871
 2481TIP3    H129002   2.222   3.300   8.474  0.9877  1.4906  1.8537
 2481TIP3    H229003   2.255   3.189   8.377 -0.9823  3.0940 -0.7981
 2482TIP3   OH229004   4.036   3.316   7.844 -0.0633  0.3300  0.1946
 2482TIP3    H129005   3.956   3.356   7.810 -0.1125  0.9404  0.9870
 2482TIP3    H229006   4.069   3.379   7.908  1.3457  0.3310 -0.4928
 2483TIP3   OH229007   1.719   5.910   7.896 -0.3483  0.2679 -0.3050
 2483TIP3    H129008   1.681   5.909   7.808 -0.0601 -2.3805 -0.4963
 2483TIP3    H229009   1.813   5.917   7.881 -0.0983 -2.2937 -0.4361
 2484TIP3   OH229010   6.581   0.543   0.399 -0.5742  0.3676  0.0831
 2484TIP3    H129011   6.501   0.542   0.452  0.5751  0.7330  1.8963
 2484TIP3    H229012   6.556   0.589   0.319 -1.9329  1.3803  1.0466
 2485TIP3   OH229013   0.456   5.375   7.306 -0.0151  0.1394  0.0909
 2485TIP3    H129014   0.393   5.348   7.239  1.5692 -0.2283 -1.3178
 2485TIP3    H229015   0.410   5.363   7.389 -1.7997 -0.0530 -0.8945
 2486TIP3   OH229016   1.669   2.653   7.948 -0.2121 -0.1270 -1.2415
 2486TIP3    H129017   1.627   2.720   7.894 -2.3987 -0.0463  0.4190
 2486TIP3    H229018   1.597   2.616   8.000  1.7003 -0.3407  1.4466
 2487TIP3   OH229019   3.175   2.708   0.379  0.9382 -0.0173 -0.4372
 2487TIP3    H129020   3.232   2.704   0.457  2.1130  0.4809 -1.2357
 2487TIP3    H229021   3.092   2.672   0.409  1.1375  0.7879  1.2440
 2488TIP3   OH229022   4.387   4.496   6.810  0.1109  0.3011 -0.4343
 2488TIP3    H129023   4.422   4.493   6.721  3.4245 -0.1106  0.7157
 2488TIP3    H229024   4.444   4.559   6.856 -0.4177 -0.7109  1.7670
 2489TIP3   OH229025   4.131   3.943   0.506  0.2176  0.3877  0.6491
 2489TIP3    H129026   4.165   3.983   0.587 -1.6791  0.8024  1.3019
 2489TIP3    H229027   4.111   3.853   0.530  2.4769 -0.3977 -0.2346
 2490TIP3   OH229028   6.491   0.577   0.149 -0.2119 -0.1356  0.3214
 2490TIP3    H129029   6.532   0.496   0.118 -1.5161 -1.1911  1.2099
 2490TIP3    H229030   6.401   0.572   0.115 -0.5755  0.4866  1.1647
 2491TIP3   OH229031   3.270   3.331   7.524 -0.0824  0.1858 -0.8382
 2491TIP3    H129032   3.291   3.269   7.454 -0.6254 -0.0480 -0.7967
 2491TIP3    H229033   3.285   3.417   7.485  1.6681  0.0273 -0.5862
 2492TIP3   OH229034   4.132   0.133   2.014  0.1827 -0.5546  0.1933
 2492TIP3    H129035   4.126   0.118   2.108 -0.9515  1.4717  0.5100
 2492TIP3    H229036   4.226   0.129   1.994  0.3562 -2.1183  1.1625
 2493TIP3   OH229037   1.699   5.944   0.911 -0.5703 -0.2561  0.6278
 2493TIP3    H129038   1.713   5.959   0.817 -0.3332 -0.5144  0.6196
 2493TIP3    H229039   1.612   5.980   0.928  0.1174  1.5125  0.6920
 2494TIP3   OH229040   2.013   5.922   7.834  0.2225  0.3017  0.0437
 2494TIP3    H129041   2.090   5.941   7.887 -0.1353  0.3851  0.5481
 2494TIP3    H229042   2.022   5.830   7.809  0.0487  0.0640  0.8410
 2495TIP3   OH229043   2.357   5.350   0.704  0.2277 -0.2939 -0.5629
 2495TIP3    H129044   2.427   5.293   0.736  0.0694  0.1453  0.6130
 2495TIP3    H229045   2.402   5.426   0.667  0.3945 -0.4671 -0.7183
 2496TIP3   OH229046   5.648   5.542   7.876 -0.8817 -0.0775 -0.0636
 2496TIP3    H129047   5.658   5.625   7.923  1.1980 -1.3197  1.8914
 2496TIP3    H229048   5.587   5.492   7.929  0.3701 -0.9542  0.6093
 2497TIP3   OH229049   1.622   0.925   8.502 -0.0383 -0.1788 -0.1240
 2497TIP3    H129050   1.693   0.907   8.564  0.4634 -1.0973 -0.9412
 2497TIP3    H229051   1.564   0.985   8.549  0.0431 -1.2568  1.4338
 2498TIP3   OH229052   0.617   5.690   8.493  0.0783 -0.2984 -0.2406
 2498TIP3    H129053   0.627   5.660   8.403 -1.7332 -0.3835 -0.4663
 2498TIP3    H229054   0.697   5.739   8.512  0.9744 -1.2148 -1.4999
 2499TIP3   OH229055   4.509   1.316   0.670 -0.5856  0.0127  0.2161
 2499TIP3    H129056   4.527   1.385   0.734 -0.0456 -1.3366  1.6098
 2499TIP3    H229057   4.557   1.342   0.591  1.6400  0.0713  1.4952
 2500TIP3   OH229058   0.996   6.258   7.187  0.1153  0.3046 -0.4535
 2500TIP3    H129059   1.058   6.192   7.157 -0.1152 -0.0570 -0.1372
 2500TIP3    H229060   0.950   6.217   7.260 -1.6598 -0.0273 -1.6970
 2501TIP3   OH229061   3.814   6.848   8.533  0.0802  0.1028  0.2130
 2501TIP3    H129062   3.802   6.936   8.569  2.2001  0.3118  0.4952
 2501TIP3    H229063   3.855   6.862   8.448 -0.4897 -0.5952 -0.1892
 2502TIP3   OH229064   2.485   4.318   6.984 -0.2648 -0.6201 -0.4465
 2502TIP3    H129065   2.507   4.410   6.998 -1.9212 -0.2022 -0.4201
 2502TIP3    H229066   2.570   4.274   6.982  0.4957  0.5648  1.8426
 2503TIP3   OH229067   5.330   3.883   0.341 -0.1071 -0.1026 -0.5538
 2503TIP3    H129068   5.417   3.912   0.312 -0.6513  1.0423 -1.1068
 2503TIP3    H229069   5.348   3.818   0.409  1.1779  0.5477 -0.2327
 2504TIP3   OH229070   6.536   6.355   7.166 -0.0605 -0.2842 -0.1618
 2504TIP3    H129071   6.472   6.356   7.095 -0.1393  0.1046 -0.0887
 2504TIP3    H229072   6.530   6.442   7.205  0.7885 -0.0985 -0.4061
 2505TIP3   OH229073   6.153   1.330   7.957 -0.2624  0.0998 -0.2441
 2505TIP3    H129074   6.185   1.288   7.877 -2.4396 -1.4831 -0.3669
 2505TIP3    H229075   6.105   1.407   7.925  4.0835  3.3275 -0.0025
 2506TIP3   OH229076   4.795   3.556   0.961  0.3011  0.5216  0.1649
 2506TIP3    H129077   4.863   3.520   0.903 -1.5848  1.6503 -3.0313
 2506TIP3    H229078   4.831   3.640   0.990  0.3668  1.0857 -1.4527
 2507TIP3   OH229079   0.514   1.347   1.127 -0.5601  0.7043 -0.1954
 2507TIP3    H129080   0.594   1.338   1.179 -1.7617 -1.8826  1.4267
 2507TIP3    H229081   0.456   1.399   1.183 -1.1668 -0.3717  0.1975
 2508TIP3   OH229082   4.774   5.731   7.504  0.6549  0.0057 -0.5749
 2508TIP3    H129083   4.819   5.749   7.422 -0.7579  1.9467 -0.9808
 2508TIP3    H229084   4.797   5.804   7.561  0.8909 -0.8475  0.4585
 2509TIP3   OH229085   5.089   5.840   0.881 -0.1841  0.1041  0.0917
 2509TIP3    H129086   5.078   5.759   0.832 -0.2007 -1.1366  2.0092
 2509TIP3    H229087   5.175   5.873   0.855 -0.0150 -0.7315 -0.4364
 2510TIP3   OH229088   4.657   6.818   8.606  0.1368 -0.1922  0.3171
 2510TIP3    H129089   4.579   6.810   8.662  0.1782  0.3435  0.4486
 2510TIP3    H229090   4.708   6.739   8.627 -0.6251 -0.8377 -0.1742
 2511TIP3   OH229091   2.911   5.359   7.448 -0.6478 -0.1691 -0.1800
 2511TIP3    H129092   2.974   5.367   7.377  1.6118  1.2066  1.8148
 2511TIP3    H229093   2.912   5.444   7.491  0.2783 -1.6493  3.1210
 2512TIP3   OH229094   2.784   5.053   7.002 -0.4945  0.0539  0.4155
 2512TIP3    H129095   2.832   5.118   6.950  1.3637 -0.4763  1.3757
 2512TIP3    H229096   2.795   5.083   7.092 -0.4632 -1.0645  0.7903
 2513TIP3   OH229097   6.656   0.061   1.388  0.0787 -0.0703 -0.5944
 2513TIP3    H129098   6.745   0.023   1.387  0.4954  0.8756 -0.4593
 2513TIP3    H229099   6.613   0.019   1.463 -0.0096 -1.4469 -1.3815
 2514TIP3   OH229100   5.691   6.150   7.974  0.3720 -0.1514 -0.8363
 2514TIP3    H129101   5.627   6.214   8.007  0.1048  0.0252 -1.6546
 2514TIP3    H229102   5.772   6.170   8.021  0.8172  2.0492 -2.3718
 2515TIP3   OH229103   1.350   3.489   0.054  0.1037  0.1574 -0.1651
 2515TIP3    H129104   1.322   3.401   0.079  1.3234 -1.0595 -2.6947
 2515TIP3    H229105   1.270   3.532   0.023 -0.0693 -1.0789 -1.5260
 2516TIP3   OH229106   6.248   2.998   8.257 -0.1974  0.3077  0.7226
 2516TIP3    H129107   6.219   3.089   8.263  0.2900  0.4227  1.5760
 2516TIP3    H229108   6.185   2.956   8.199 -1.1173  0.9159  1.2619
 2517TIP3   OH229109   6.098   3.781   1.619  0.0564 -0.4084  0.7675
 2517TIP3    H129110   6.161   3.846   1.653  0.9071  0.5180 -2.2589
 2517TIP3    H229111   6.153   3.717   1.573 -1.0886  0.1123 -1.4616
 2518TIP3   OH229112   3.117   4.854   7.585  0.7909  0.1545  0.4118
 2518TIP3    H129113   3.124   4.830   7.677  1.0565  0.9960  0.6168
 2518TIP3    H229114   3.091   4.946   7.585  0.7614  0.1565 -0.3493
 2519TIP3   OH229115   0.782   0.469   1.496 -0.0777  0.0274  0.9117
 2519TIP3    H129116   0.713   0.415   1.536 -0.7459  0.1570 -0.0301
 2519TIP3    H229117   0.741   0.507   1.418  0.8223  0.7556  0.7714
 2520TIP3   OH229118   0.390   1.371   6.819 -0.4732 -0.3060  0.5862
 2520TIP3    H129119   0.308   1.401   6.779 -0.8830 -1.2143  0.7138
 2520TIP3    H229120   0.403   1.283   6.784  0.0339 -0.4724  1.1778
 2521TIP3   OH229121   4.959   1.382   1.431  0.2842  0.0914  0.2052
 2521TIP3    H129122   4.908   1.315   1.476  0.7830 -0.3744  0.0841
 2521TIP3    H229123   4.950   1.460   1.487  1.4809 -0.6629  1.5425
 2522TIP3   OH229124   4.002   3.070   7.925  0.0159  0.2609  0.3664
 2522TIP3    H129125   4.037   3.159   7.931  0.7340  0.0383 -0.3002
 2522TIP3    H229126   3.953   3.069   7.842 -0.1200  0.0818  0.4478
 2523TIP3   OH229127   5.172   5.986   1.912  0.3206  0.1491  0.0982
 2523TIP3    H129128   5.176   5.914   1.848 -0.1357  0.8338 -0.7237
 2523TIP3    H229129   5.149   5.943   1.994  0.7063 -0.7279 -0.2328
 2524TIP3   OH229130   6.600   5.036   0.321  0.1484  0.1076  1.2293
 2524TIP3    H129131   6.522   4.997   0.281 -0.5489  0.3441  2.3019
 2524TIP3    H229132   6.569   5.071   0.405  1.2828  0.7652  1.4009
 2525TIP3   OH229133   0.278   0.024   7.536  0.1452  0.6383 -0.2521
 2525TIP3    H129134   0.274   0.027   7.631  2.6457 -0.3296 -0.0387
 2525TIP3    H229135   0.278  -0.069   7.514  0.4401  0.8299 -1.1255
 2526TIP3   OH229136   4.344   4.236   0.331 -0.2125 -0.1814 -0.5036
 2526TIP3    H129137   4.266   4.257   0.281 -1.1282 -2.2078 -0.0081
 2526TIP3    H229138   4.360   4.143   0.314  2.3106  0.2449 -0.8488
 2527TIP3   OH229139   1.173   2.938   7.824 -0.5517 -0.2763  0.5681
 2527TIP3    H129140   1.224   3.019   7.822  0.9899 -1.2031  0.4752
 2527TIP3    H229141   1.183   2.906   7.914  1.7859 -2.0839 -0.2443
 2528TIP3   OH229142   1.549   1.411   0.253 -0.3738 -0.3401  0.0868
 2528TIP3    H129143   1.528   1.414   0.160  1.4763 -0.7018 -0.3645
 2528TIP3    H229144   1.496   1.482   0.291  0.5439  1.3225 -1.5959
 2529TIP3   OH229145   4.503   1.894   6.625 -0.0090  0.1280  0.1748
 2529TIP3    H129146   4.578   1.844   6.592 -0.4414 -0.9452  0.7808
 2529TIP3    H229147   4.429   1.834   6.618 -0.4987  0.6073  1.1066
 2530TIP3   OH229148   2.599   1.595   2.579  0.6914  0.1167 -0.1124
 2530TIP3    H129149   2.587   1.643   2.497 -2.9239 -0.3707 -0.0474
 2530TIP3    H229150   2.524   1.621   2.632  1.6215 -1.4392  2.1050
 2531TIP3   OH229151   1.033   2.232   0.739 -0.1622 -0.5180  0.0352
 2531TIP3    H129152   1.061   2.191   0.658 -0.3225 -0.1718 -0.1981
 2531TIP3    H229153   1.113   2.245   0.789  0.0866  0.4127 -0.5994
 2532TIP3   OH229154   3.671   0.471   7.841  0.0498  0.2105 -0.6014
 2532TIP3    H129155   3.730   0.398   7.822 -1.0789 -0.8150 -0.2539
 2532TIP3    H229156   3.620   0.482   7.760 -0.8286 -0.4122 -0.1524
 2533TIP3   OH229157   3.680   5.767   6.823  0.0820 -0.1489 -0.4334
 2533TIP3    H129158   3.725   5.741   6.904 -0.9841  0.8389  0.4978
 2533TIP3    H229159   3.726   5.718   6.755  1.5524 -0.3753  0.6539
 2534TIP3   OH229160   2.712   4.266   7.273  0.0981  0.2849  0.7425
 2534TIP3    H129161   2.766   4.320   7.215 -0.2031  0.1197  0.3028
 2534TIP3    H229162   2.751   4.278   7.360  0.9000  0.1054  0.4238
 2535TIP3   OH229163   6.549   4.333   1.327 -0.2168 -0.1175  0.3106
 2535TIP3    H129164   6.510   4.295   1.405 -1.0683  1.5753  0.7571
 2535TIP3    H229165   6.476   4.376   1.282  0.8530  2.0761  0.5276
 2536TIP3   OH229166   5.739   0.549   8.251 -0.0404 -0.0463 -0.3558
 2536TIP3    H129167   5.740   0.636   8.292  0.0960  0.3679 -1.2265
 2536TIP3    H229168   5.823   0.510   8.276  0.9387  0.9820 -1.8452
 2537TIP3   OH229169   6.189   1.222   7.716 -0.1544 -0.3115  0.4610
 2537TIP3    H129170   6.123   1.163   7.680  1.5339 -0.8359 -2.0963
 2537TIP3    H229171   6.270   1.171   7.716  1.0733  1.4960 -0.4793
 2538TIP3   OH229172   0.474   3.910   8.218 -0.2580 -0.7331 -0.6606
 2538TIP3    H129173   0.422   3.830   8.215 -1.2451 -0.1085 -0.6390
 2538TIP3    H229174   0.426   3.972   8.163 -0.2056  0.2351  0.3439
 2539TIP3   OH229175   3.012   3.527   1.063  0.3198 -0.5802  0.3303
 2539TIP3    H129176   3.038   3.523   0.971 -1.8525 -0.6080 -0.3439
 2539TIP3    H229177   2.977   3.440   1.082 -1.0144 -0.0073  0.5855
 2540TIP3   OH229178   5.908   1.089   0.815 -0.0699 -0.1006 -0.7378
 2540TIP3    H129179   5.995   1.051   0.801 -0.4004 -1.3229  0.2984
 2540TIP3    H229180   5.861   1.023   0.866 -1.7841  0.3249 -1.6819
 2541TIP3   OH229181   1.232   3.741   7.520  0.0740  0.2995 -0.2731
 2541TIP3    H129182   1.176   3.669   7.492 -1.3053  1.7812 -1.5644
 2541TIP3    H229183   1.255   3.720   7.610 -0.4049 -1.6422 -0.5555
 2542TIP3   OH229184   2.627   2.671   7.980 -0.4055 -0.0206 -0.5620
 2542TIP3    H129185   2.645   2.699   7.890 -1.8563 -0.1934 -0.9395
 2542TIP3    H229186   2.617   2.576   7.974  1.0914 -0.2478  0.0972
 2543TIP3   OH229187   6.276   3.476   6.941  0.2243  0.1070 -0.2182
 2543TIP3    H129188   6.288   3.382   6.952  2.3389  0.3374 -0.0944
 2543TIP3    H229189   6.298   3.492   6.849  0.3515  0.5502 -0.1108
 2544TIP3   OH229190   4.362   3.450   6.695  0.0493  0.0923 -0.1095
 2544TIP3    H129191   4.398   3.381   6.751 -0.1864 -0.5685 -0.7602
 2544TIP3    H229192   4.299   3.495   6.751 -0.7548 -1.0550 -0.0588
 2545TIP3   OH229193   2.841   6.229   1.891  0.5233  0.2617  0.4299
 2545TIP3    H129194   2.849   6.253   1.798  3.5478 -1.6233  0.0653
 2545TIP3    H229195   2.919   6.178   1.909 -1.4007 -1.9645  3.2965
 2546TIP3   OH229196   0.352   4.064   6.913 -0.1057 -0.1071 -0.2155
 2546TIP3    H129197   0.289   4.015   6.965 -1.4807  0.3434 -1.4159
 2546TIP3    H229198   0.393   4.123   6.976 -1.3091  0.0079  0.4932
 2547TIP3   OH229199   6.851   1.237   0.774  0.7285  0.0876  0.4728
 2547TIP3    H129200   6.916   1.297   0.737  0.2809 -0.9722 -2.3016
 2547TIP3    H229201   6.890   1.150   0.762 -1.6709 -0.7293 -2.7665
 2548TIP3   OH229202   1.374   3.518   8.289  0.3348  0.0351 -0.1323
 2548TIP3    H129203   1.295   3.514   8.342  1.1474 -0.4285  1.0874
 2548TIP3    H229204   1.345   3.495   8.201 -0.9300  0.1660  0.2339
 2549TIP3   OH229205   3.346   6.116   0.646 -0.4858 -0.5084  0.0562
 2549TIP3    H129206   3.372   6.170   0.721  0.1404 -1.5549  0.6185
 2549TIP3    H229207   3.387   6.031   0.662  1.0451 -0.3336 -2.2549
 2550TIP3   OH229208   3.066   5.194   0.345  0.0398 -0.3656  0.7045
 2550TIP3    H129209   3.084   5.103   0.322  1.0546  0.1487 -0.7152
 2550TIP3    H229210   3.016   5.189   0.426 -0.0920 -2.1861  0.5559
 2551TIP3   OH229211   5.048   5.634   7.065 -0.4588  0.7201  0.0242
 2551TIP3    H129212   5.103   5.671   6.995  1.7111 -0.4347  1.0159
 2551TIP3    H229213   4.980   5.699   7.078  0.6619  2.2628 -1.2939
 2552TIP3   OH229214   4.141   0.075   7.884  0.1571  0.2425  0.3788
 2552TIP3    H129215   4.071   0.124   7.928  1.1830  1.2858  0.8934
 2552TIP3    H229216   4.113   0.071   7.792  0.1837  2.0848  0.2486
 2553TIP3   OH229217   4.596   6.500   8.464  0.3215 -0.1095  0.1030
 2553TIP3    H129218   4.579   6.593   8.447 -1.4975 -1.0128 -4.4365
 2553TIP3    H229219   4.513   6.468   8.500  0.7532 -0.1279  1.1029
 2554TIP3   OH229220   6.548   4.196   7.082 -0.0659 -0.4076  0.3921
 2554TIP3    H129221   6.504   4.115   7.058 -1.7519  0.6542 -0.2614
 2554TIP3    H229222   6.619   4.205   7.019  0.3730 -1.5366  0.7001
 2555TIP3   OH229223   0.069   6.132   0.751  0.2748 -0.2230  0.2163
 2555TIP3    H129224   0.053   6.217   0.711 -0.2535 -0.8245 -0.8888
 2555TIP3    H229225   0.090   6.152   0.842 -0.4061  1.0431  0.1137
 2556TIP3   OH229226   2.410   0.632   1.769 -0.1860  0.6949 -0.5611
 2556TIP3    H129227   2.419   0.579   1.849 -1.4915  0.9587 -0.2146
 2556TIP3    H229228   2.391   0.569   1.700  0.2445  0.5313 -0.5322
 2557TIP3   OH229229   6.725   6.704   7.725  0.0109 -0.2586  0.3338
 2557TIP3    H129230   6.801   6.653   7.753  0.4063  0.2342  0.1698
 2557TIP3    H229231   6.669   6.708   7.802  2.2423  3.2580  2.0161
 2558TIP3   OH229232   0.253   0.248   1.944  0.0619 -0.3923  0.0764
 2558TIP3    H129233   0.324   0.218   2.001  0.4803 -0.6193 -0.5528
 2558TIP3    H229234   0.269   0.205   1.860 -0.3895  0.1441 -0.3000
 2559TIP3   OH229235   2.818   1.586   7.994 -0.3953  0.2932 -0.2615
 2559TIP3    H129236   2.886   1.616   7.933  0.1294  0.4478  0.3824
 2559TIP3    H229237   2.784   1.506   7.955  1.8105 -1.1334  0.5522
 2560TIP3   OH229238   0.195   4.456   0.086 -0.0317  0.4210 -0.2075
 2560TIP3    H129239   0.203   4.361   0.074  0.3067  0.3531  0.5411
 2560TIP3    H229240   0.253   4.493   0.019  1.8781  0.0389  1.1632
 2561TIP3   OH229241   0.554   6.439   2.363  0.2922  0.4448 -0.8509
 2561TIP3    H129242   0.498   6.392   2.425  0.3034 -0.0419 -1.2090
 2561TIP3    H229243   0.614   6.489   2.418 -0.9331  1.5314 -0.4348
 2562TIP3   OH229244   0.426   1.489   7.150 -0.0534  0.3421  0.0620
 2562TIP3    H129245   0.413   1.479   7.244  0.6169 -0.0337  0.1216
 2562TIP3    H229246   0.478   1.569   7.141  2.1074 -0.9463  0.2268
 2563TIP3   OH229247   1.346   2.255   6.274  0.0904 -0.1751 -0.4584
 2563TIP3    H129248   1.280   2.324   6.268  0.9922  0.5618 -2.4476
 2563TIP3    H229249   1.310   2.183   6.221 -1.1131 -1.5714  2.0508
 2564TIP3   OH229250   1.621   0.604   2.085 -0.3690 -0.0338  0.1365
 2564TIP3    H129251   1.682   0.676   2.101 -0.0574 -0.0005 -1.0644
 2564TIP3    H229252   1.670   0.525   2.108 -0.6211  0.1189  1.2069
 2565TIP3   OH229253   1.685   0.328   2.099 -0.3427 -0.0191 -0.6900
 2565TIP3    H129254   1.649   0.338   2.011 -0.3893 -1.8695 -0.9307
 2565TIP3    H229255   1.629   0.261   2.141  0.5000 -0.1643  0.2510
 2566TIP3   OH229256   6.356   3.291   8.271  0.0572  0.1557  0.7548
 2566TIP3    H129257   6.451   3.284   8.265 -0.1191 -2.2548 -0.3691
 2566TIP3    H229258   6.327   3.308   8.181 -0.5743  1.6449  1.2032
 2567TIP3   OH229259   2.246   2.214   7.484 -0.2147  0.7258  0.6137
 2567TIP3    H129260   2.164   2.170   7.463 -0.0662  0.6255  0.2188
 2567TIP3    H229261   2.226   2.268   7.560 -0.1867 -0.6911  1.6836
 2568TIP3   OH229262   6.066   2.911   8.070 -0.0090  0.1314 -0.3780
 2568TIP3    H129263   6.086   2.869   7.986 -0.9465  0.0849 -0.5897
 2568TIP3    H229264   5.971   2.927   8.066 -0.0982 -0.0906  0.7737
 2569TIP3   OH229265   4.594   3.396   1.314  0.5917  0.0691  0.1020
 2569TIP3    H129266   4.600   3.416   1.221 -2.2768 -0.2562 -0.2528
 2569TIP3    H229267   4.624   3.476   1.358  0.7839  0.6883 -1.1230
 2570TIP3   OH229268   0.307   3.835   0.623  0.4220 -0.1346 -0.1455
 2570TIP3    H129269   0.353   3.904   0.575 -0.3768 -0.2705 -1.1605
 2570TIP3    H229270   0.312   3.758   0.565  0.0375 -0.5073  0.3079
 2571TIP3   OH229271   1.190   5.934   6.920  0.1457 -0.1826 -0.1677
 2571TIP3    H129272   1.213   5.851   6.878 -3.3455 -0.6105 -1.5350
 2571TIP3    H229273   1.197   6.000   6.851 -0.9276 -0.0630 -0.1827
 2572TIP3   OH229274   5.966   5.460   0.066 -0.0899 -0.0200 -0.0231
 2572TIP3    H129275   6.007   5.393   0.120 -0.3350  0.2138  0.4541
 2572TIP3    H229276   5.919   5.516   0.127  0.6097  0.9533 -0.3480
 2573TIP3   OH229277   2.380   5.799   0.389  0.6848 -0.9825  0.7760
 2573TIP3    H129278   2.345   5.738   0.325  0.4392  0.3262 -0.3803
 2573TIP3    H229279   2.464   5.827   0.354 -0.1646  0.9755  0.1487
 2574TIP3   OH229280   1.452   5.577   7.520  0.2970 -0.4574 -0.1191
 2574TIP3    H129281   1.532   5.597   7.569 -0.2591 -1.1066  1.0962
 2574TIP3    H229282   1.471   5.605   7.430  2.1551 -1.2713 -0.0237
 2575TIP3   OH229283   2.083   1.420   0.493  0.5683 -0.1621  0.2381
 2575TIP3    H129284   2.086   1.330   0.527 -0.2035  0.4257  1.9698
 2575TIP3    H229285   2.039   1.470   0.561  1.4914  1.6663 -0.4379
 2576TIP3   OH229286   0.460   6.648   7.215 -0.7257 -0.1298  0.1344
 2576TIP3    H129287   0.491   6.738   7.223 -0.3573 -0.1864 -0.5934
 2576TIP3    H229288   0.497   6.617   7.132 -3.3418  0.0437 -1.2018
 2577TIP3   OH229289   5.916   5.854   0.057 -0.1600 -0.7653 -0.1633
 2577TIP3    H129290   5.972   5.819   0.127  0.6839 -1.0660 -0.9554
 2577TIP3    H229291   5.848   5.903   0.102 -1.0203 -2.8890  0.9914
 2578TIP3   OH229292   5.251   5.426   1.276  0.2523  0.1452  0.2453
 2578TIP3    H129293   5.157   5.407   1.283  0.0561  1.0700  0.2571
 2578TIP3    H229294   5.288   5.393   1.358  0.3317 -2.2839 -0.6882
 2579TIP3   OH229295   2.960   0.943   0.661  0.7899  0.4307  0.3866
 2579TIP3    H129296   2.899   0.982   0.597  1.3954 -0.4105 -0.7482
 2579TIP3    H229297   3.018   1.015   0.685 -0.6029  1.2356  1.4584
 2580TIP3   OH229298   2.430   1.026   0.954 -0.5444 -0.3284 -0.7815
 2580TIP3    H129299   2.401   1.053   0.866 -2.4921 -2.0122 -0.7368
 2580TIP3    H229300   2.366   1.066   1.013 -0.0283 -0.2976 -0.2386
 2581TIP3   OH229301   0.384   6.596   8.458  0.2464 -0.3575 -0.0548
 2581TIP3    H129302   0.382   6.648   8.539  1.9938 -1.6158  0.8705
 2581TIP3    H229303   0.452   6.639   8.405  0.6079 -0.7814  0.0616
 2582TIP3   OH229304   0.597   5.834   7.474 -0.2810  0.1591 -0.2194
 2582TIP3    H129305   0.562   5.906   7.421 -0.2207  0.3257 -0.0338
 2582TIP3    H229306   0.620   5.875   7.557  0.0963 -0.0062 -0.2438
 2583TIP3   OH229307   3.193   2.369   2.538  0.8712 -0.1652  0.9642
 2583TIP3    H129308   3.104   2.343   2.562 -0.1428  0.8030 -1.3974
 2583TIP3    H229309   3.221   2.302   2.475  0.4393  1.2756 -0.8520
 2584TIP3   OH229310   6.189   3.133   1.495  1.1676 -0.5242 -0.1092
 2584TIP3    H129311   6.199   3.074   1.569  0.9527 -1.3673 -0.7439
 2584TIP3    H229312   6.275   3.135   1.454  0.8626 -1.3795 -0.8093
 2585TIP3   OH229313   2.801   5.867   0.489  0.0362  0.0005  0.3040
 2585TIP3    H129314   2.887   5.906   0.473 -0.3972  1.4242  1.2884
 2585TIP3    H229315   2.775   5.900   0.575 -2.2633  1.0752 -0.7258
 2586TIP3   OH229316   2.835   1.293   6.621  0.0066 -0.2876 -0.2136
 2586TIP3    H129317   2.790   1.222   6.668 -1.8462 -0.0655 -1.5259
 2586TIP3    H229318   2.925   1.263   6.613 -0.2511 -1.5320  1.1184
 2587TIP3   OH229319   4.968   5.082   7.480  0.5837  0.2983  0.0152
 2587TIP3    H129320   4.999   5.147   7.543  3.0113  0.6128 -1.3402
 2587TIP3    H229321   5.018   5.101   7.400 -2.4082 -0.0167 -2.0738
 2588TIP3   OH229322   6.164   0.178   7.603 -0.4225  0.4324  0.7232
 2588TIP3    H129323   6.222   0.225   7.543  0.8891 -1.4964  0.3769
 2588TIP3    H229324   6.079   0.180   7.559 -0.4253  2.3885  0.7212
 2589TIP3   OH229325   6.533   2.777   6.736 -0.3512 -0.3661 -0.0268
 2589TIP3    H129326   6.489   2.751   6.655 -0.6539  1.9583 -0.6927
 2589TIP3    H229327   6.626   2.779   6.713 -0.6201  3.8641 -1.6326
 2590TIP3   OH229328   0.014   5.177   1.239  0.3628  0.2786  0.4265
 2590TIP3    H129329   0.029   5.136   1.153  0.0179 -0.0762  0.5347
 2590TIP3    H229330   0.098   5.219   1.259  0.2457  0.9147 -0.3758
 2591TIP3   OH229331   1.353   4.412   8.245 -0.2805 -1.1080 -0.4215
 2591TIP3    H129332   1.324   4.501   8.265  0.5537 -0.7892 -0.5898
 2591TIP3    H229333   1.314   4.358   8.314 -1.2712 -0.7091 -0.6462
 2592TIP3   OH229334   2.773   6.091   2.481  0.0643  0.2219  0.6327
 2592TIP3    H129335   2.759   5.998   2.469 -0.2597  0.3412  0.0655
 2592TIP3    H229336   2.868   6.101   2.483  0.1432  0.0739 -0.9508
 2593TIP3   OH229337   4.591   1.191   7.376  0.2395  0.2918  0.0446
 2593TIP3    H129338   4.658   1.199   7.308  1.5493 -0.7876  1.1506
 2593TIP3    H229339   4.539   1.115   7.349 -0.5260  1.1029 -0.7931
 2594TIP3   OH229340   6.324   6.516   1.048  0.5275  0.2464  0.0247
 2594TIP3    H129341   6.412   6.530   1.084  0.2477  0.3197  0.6895
 2594TIP3    H229342   6.336   6.520   0.953  0.9175  2.2134  0.1224
 2595TIP3   OH229343   3.016   1.691   2.682  0.2690 -0.0565 -0.0727
 2595TIP3    H129344   2.959   1.658   2.613 -1.0339  0.1045  0.8849
 2595TIP3    H229345   3.022   1.785   2.667 -2.7383  0.5754  1.8339
 2596TIP3   OH229346   0.101   2.305   2.159 -1.1871 -0.0653  0.1126
 2596TIP3    H129347   0.170   2.354   2.203 -1.7064  0.8132 -0.0226
 2596TIP3    H229348   0.129   2.300   2.067 -1.5336  0.7385 -0.0456
 2597TIP3   OH229349   5.099   1.107   6.989  0.1465 -0.4643  0.2385
 2597TIP3    H129350   5.093   1.071   7.078 -1.5582 -0.2876  0.2396
 2597TIP3    H229351   5.016   1.155   6.978  0.1532 -0.8257 -1.5962
 2598TIP3   OH229352   2.620   3.522   7.712 -0.1829 -0.2680 -0.5658
 2598TIP3    H129353   2.615   3.595   7.650  0.9528  0.7483  0.4735
 2598TIP3    H229354   2.634   3.445   7.657  2.4068  0.7918 -1.5617
 2599TIP3   OH229355   0.349   5.165   8.106 -0.0720  0.1705 -0.8564
 2599TIP3    H129356   0.272   5.219   8.089  0.6536  1.4458 -0.2568
 2599TIP3    H229357   0.405   5.220   8.162  1.2356 -0.7378 -1.2220
 2600TIP3   OH229358   0.089   6.872   6.825  0.5336  0.3044  0.0980
 2600TIP3    H129359   0.117   6.783   6.846 -1.2994 -0.2936  0.1094
 2600TIP3    H229360   0.149   6.899   6.755  1.2872 -0.8196  0.2762
 2601TIP3   OH229361   1.672   1.427   0.679  0.7933 -0.1679  0.4881
 2601TIP3    H129362   1.629   1.392   0.757 -0.3011 -1.2065 -0.5302
 2601TIP3    H229363   1.646   1.368   0.608  2.3810  0.2965 -0.5411
 2602TIP3   OH229364   0.122   4.863   8.148 -0.2755 -0.3972 -0.1680
 2602TIP3    H129365   0.166   4.943   8.179  1.7938 -1.5973  0.2000
 2602TIP3    H229366   0.041   4.859   8.198 -0.1644  1.1907  0.1890
 2603TIP3   OH229367   6.443   6.025   1.735 -0.3104 -0.1847  0.2881
 2603TIP3    H129368   6.428   5.932   1.753 -0.6274 -0.1826  0.0529
 2603TIP3    H229369   6.484   6.059   1.814  2.8875 -1.2308 -0.7781
 2604TIP3   OH229370   3.017   1.491   7.276 -0.0222  0.2275  0.3029
 2604TIP3    H129371   3.047   1.489   7.366  0.7448  3.8981  0.2946
 2604TIP3    H229372   2.957   1.565   7.272  0.7149  0.8219 -2.3546
 2605TIP3   OH229373   2.305   0.009   7.590 -1.0279 -0.4117 -0.9017
 2605TIP3    H129374   2.262   0.069   7.650  1.1591 -0.5603  0.9565
 2605TIP3    H229375   2.346  -0.057   7.647  1.5382 -0.3007 -2.4465
 2606TIP3   OH229376   1.025   5.981   1.029  0.5738 -0.2779  0.4983
 2606TIP3    H129377   1.047   5.921   0.958 -0.7942  0.3722 -0.5419
 2606TIP3    H229378   0.929   5.990   1.023  0.5336  0.4817  1.8715
 2607TIP3   OH229379   0.929   6.288   0.660 -0.0162 -0.0919 -0.3241
 2607TIP3    H129380   0.889   6.251   0.581  0.3155 -1.0990 -0.0227
 2607TIP3    H229381   0.859   6.289   0.725  0.3330 -1.5723  0.1100
 2608TIP3   OH229382   5.480   0.197   2.348  0.0682  0.3954  0.3077
 2608TIP3    H129383   5.471   0.102   2.362 -3.2812  0.4990 -0.3883
 2608TIP3    H229384   5.570   0.216   2.375  0.5985 -2.8221  1.2966
 2609TIP3   OH229385   6.897   3.337   7.467 -0.1516 -0.1149  0.5697
 2609TIP3    H129386   6.867   3.277   7.535  1.0757 -1.2507  0.1668
 2609TIP3    H229387   6.858   3.304   7.386  0.1753 -0.1095  0.4066
 2610TIP3   OH229388   3.988   1.163   0.330 -0.2266  0.2289  0.1229
 2610TIP3    H129389   4.024   1.243   0.293 -2.3658  1.0270 -0.4080
 2610TIP3    H229390   4.015   1.164   0.422  0.0482  1.4076  0.0426
 2611TIP3   OH229391   4.558   2.678   0.199 -0.4639  0.0218 -0.3616
 2611TIP3    H129392   4.555   2.597   0.148 -1.1147 -1.1148  1.3878
 2611TIP3    H229393   4.650   2.691   0.219 -0.3946 -0.5425 -0.2908
 2612TIP3   OH229394   0.446   0.886   2.044  0.3737  0.0829  0.0609
 2612TIP3    H129395   0.393   0.839   2.108 -0.3734 -0.8258 -1.1585
 2612TIP3    H229396   0.405   0.866   1.960  1.2596  1.3049 -0.7037
 2613TIP3   OH229397   1.053   3.686   0.366 -0.5287  0.2436  0.0359
 2613TIP3    H129398   1.124   3.632   0.399 -2.0222 -1.5073  0.5735
 2613TIP3    H229399   1.066   3.772   0.406  1.3081 -0.0011  0.0175
 2614TIP3   OH229400   3.501   1.772   7.840 -0.3675 -0.0425  0.1967
 2614TIP3    H129401   3.521   1.803   7.752  1.2318 -1.6274 -0.0466
 2614TIP3    H229402   3.417   1.726   7.831  0.1514 -0.8463 -0.6985
 2615TIP3   OH229403   0.466   0.490   6.562 -0.0380  0.2116 -0.2236
 2615TIP3    H129404   0.389   0.546   6.572 -0.8472 -0.9305  0.1083
 2615TIP3    H229405   0.476   0.448   6.648  0.5045 -0.2117 -0.4927
 2616TIP3   OH229406   4.100   3.337   7.426 -0.4269  0.1974  0.3968
 2616TIP3    H129407   4.142   3.260   7.387 -0.9004  0.2422 -0.2149
 2616TIP3    H229408   4.099   3.318   7.520 -0.5448 -0.5518  0.2556
 2617TIP3   OH229409   2.928   4.911   7.380  0.0994  0.2143  0.4217
 2617TIP3    H129410   2.953   4.876   7.465 -0.9537 -0.8351  0.3374
 2617TIP3    H229411   2.963   4.848   7.317 -1.4475 -0.5121  0.2402
 2618TIP3   OH229412   5.819   0.840   8.449 -0.0707  0.3041  0.3061
 2618TIP3    H129413   5.891   0.866   8.507 -0.1700 -1.8394  1.4878
 2618TIP3    H229414   5.862   0.822   8.365  0.4050  1.2444  0.3301
 2619TIP3   OH229415   4.917   2.033   7.239 -0.2362  0.4603  0.3606
 2619TIP3    H129416   4.826   2.025   7.210 -0.2938 -0.1762  0.6867
 2619TIP3    H229417   4.965   1.970   7.186 -0.1322  0.1867  0.7739
 2620TIP3   OH229418   4.353   5.732   0.416 -0.2918  0.4134 -0.1264
 2620TIP3    H129419   4.407   5.790   0.362  2.4873 -3.3291 -1.7716
 2620TIP3    H229420   4.276   5.713   0.363  0.2286  0.3007 -0.8495
 2621TIP3   OH229421   2.506   4.975   1.742  0.3987 -0.6213 -0.0823
 2621TIP3    H129422   2.503   5.029   1.663  0.2394  0.4796  0.6616
 2621TIP3    H229423   2.435   4.912   1.730 -0.9710  0.8478  0.0971
 2622TIP3   OH229424   2.502   1.070   7.289  0.0011 -0.5425  0.2601
 2622TIP3    H129425   2.521   1.054   7.197 -1.4397  0.0995 -0.1876
 2622TIP3    H229426   2.583   1.048   7.335 -0.3637 -4.7512 -0.6902
 2623TIP3   OH229427   2.428   2.808   0.325 -0.3825 -0.0925  0.5286
 2623TIP3    H129428   2.350   2.815   0.381 -0.3296  0.1692  0.5710
 2623TIP3    H229429   2.499   2.784   0.386 -0.6923 -1.7543  0.2872
 2624TIP3   OH229430   5.376   5.871   8.612  0.0320  0.4559  0.6945
 2624TIP3    H129431   5.370   5.816   8.691 -1.2098  1.2411  1.1722
 2624TIP3    H229432   5.319   5.946   8.631 -1.5005 -0.0670 -1.5329
 2625TIP3   OH229433   0.895   0.751   7.963  1.0095 -0.4513 -0.1491
 2625TIP3    H129434   0.952   0.680   7.935 -0.8500 -2.0034 -0.2067
 2625TIP3    H229435   0.814   0.738   7.914  0.9860  2.4464 -1.0582
 2626TIP3   OH229436   2.816   1.285   1.602 -0.6071  0.1104  0.2983
 2626TIP3    H129437   2.895   1.276   1.656  0.3098  2.2796 -0.5892
 2626TIP3    H229438   2.763   1.209   1.626  1.6998 -1.4084  0.9628
 2627TIP3   OH229439   2.605   0.968   7.844 -0.1159 -0.2867 -0.1307
 2627TIP3    H129440   2.584   0.875   7.849 -2.3034  0.2228  1.3256
 2627TIP3    H229441   2.629   0.992   7.933 -0.7508  0.7752 -0.2250
 2628TIP3   OH229442   4.604   0.835   1.522 -0.0581 -1.0151  0.0854
 2628TIP3    H129443   4.682   0.811   1.471 -0.5648 -1.2962 -0.5731
 2628TIP3    H229444   4.637   0.893   1.590  0.6324 -0.6000 -0.5908
 2629TIP3   OH229445   2.445   2.161   1.188 -0.4271  0.9284 -0.2936
 2629TIP3    H129446   2.378   2.119   1.133  0.4197  0.1932 -0.7867
 2629TIP3    H229447   2.484   2.228   1.132 -0.2715  0.8798 -0.2432
 2630TIP3   OH229448   3.045   4.550   8.532 -0.0283  0.0059  0.2686
 2630TIP3    H129449   3.117   4.490   8.552 -0.3387 -0.1123  1.1009
 2630TIP3    H229450   3.002   4.511   8.456  1.7299  0.9317 -1.2992
 2631TIP3   OH229451   6.381   4.860   7.070 -0.3918 -0.1510  0.0121
 2631TIP3    H129452   6.445   4.811   7.020 -0.3366  0.0692 -0.1309
 2631TIP3    H229453   6.353   4.799   7.139 -0.3285 -0.3844 -0.1688
 2632TIP3   OH229454   5.589   5.361   0.942 -0.1594 -0.3422 -0.2288
 2632TIP3    H129455   5.513   5.414   0.918 -1.0261 -0.2073  2.4181
 2632TIP3    H229456   5.654   5.425   0.971  0.0265 -0.5754 -0.1298
 2633TIP3   OH229457   6.443   2.439   1.513  0.0248  0.1689 -0.3941
 2633TIP3    H129458   6.453   2.516   1.569 -0.7679 -0.2059  0.2806
 2633TIP3    H229459   6.416   2.475   1.428 -1.2615  0.5944  0.1749
 2634TIP3   OH229460   1.957   4.809   8.325  0.2360  0.4060  0.2719
 2634TIP3    H129461   1.920   4.729   8.362  1.0354 -0.2946 -0.3932
 2634TIP3    H229462   1.909   4.879   8.367 -2.6105 -0.4367 -1.3171
 2635TIP3   OH229463   0.830   1.849   7.837  0.3109 -0.1681 -0.0814
 2635TIP3    H129464   0.863   1.799   7.763  0.5029 -0.0909 -0.0487
 2635TIP3    H229465   0.884   1.928   7.839 -1.7902  1.4297 -1.8487
 2636TIP3   OH229466   2.438   0.943   1.721 -0.0263 -0.3191  0.1592
 2636TIP3    H129467   2.384   0.972   1.795  1.7895 -0.1341  1.4839
 2636TIP3    H229468   2.453   0.850   1.736  0.8834 -0.1469  0.4182
 2637TIP3   OH229469   5.724   0.851   7.033  0.1634 -0.2627  0.0541
 2637TIP3    H129470   5.798   0.906   7.009 -0.2101  0.4371  0.4860
 2637TIP3    H229471   5.693   0.816   6.950  0.1852  0.4628 -0.2689
 2638TIP3   OH229472   5.096   3.752   2.599  0.1113  0.3034 -0.3135
 2638TIP3    H129473   5.006   3.749   2.632  0.6865  3.1943  1.9646
 2638TIP3    H229474   5.127   3.663   2.608 -1.5761 -0.1693  1.9526
 2639TIP3   OH229475   0.368   1.687   7.364  0.0609 -0.3304  0.2688
 2639TIP3    H129476   0.292   1.668   7.309 -0.6186  0.2433  0.9874
 2639TIP3    H229477   0.433   1.724   7.304 -0.2840 -0.6681 -0.3198
 2640TIP3   OH229478   5.170   2.876   2.425 -0.2594  0.3530  0.5479
 2640TIP3    H129479   5.090   2.827   2.409  0.1370  0.2427 -1.3620
 2640TIP3    H229480   5.167   2.948   2.363  0.3248  1.3555  1.6348
 2641TIP3   OH229481   2.552   0.107   2.487  0.2279  0.5474 -0.2543
 2641TIP3    H129482   2.476   0.130   2.539  0.2347  2.4728 -1.0082
 2641TIP3    H229483   2.564   0.182   2.427  0.6405 -1.2119 -2.5113
 2642TIP3   OH229484   3.730   0.387   1.507 -0.3132  0.1074 -0.4412
 2642TIP3    H129485   3.790   0.345   1.568 -0.3248 -0.1879 -0.6321
 2642TIP3    H229486   3.775   0.386   1.423  0.1947  1.5655 -0.2145
 2643TIP3   OH229487   1.454   3.349   1.250 -0.0114 -0.2933  0.2019
 2643TIP3    H129488   1.468   3.373   1.341 -0.3026  0.5303  0.0424
 2643TIP3    H229489   1.380   3.403   1.222 -0.9898 -1.7078 -0.0650
 2644TIP3   OH229490   0.825   4.479   0.767  0.3499  0.4183 -0.0410
 2644TIP3    H129491   0.770   4.534   0.712  0.6406  0.8294  0.0794
 2644TIP3    H229492   0.884   4.435   0.706 -0.8291 -0.8825 -0.2970
 2645TIP3   OH229493   4.854   1.163   7.877  0.3406  0.1035 -0.0583
 2645TIP3    H129494   4.780   1.155   7.816  0.3392  0.2642 -0.0801
 2645TIP3    H229495   4.905   1.236   7.842  0.3791  0.1478  0.0904
 2646TIP3   OH229496   0.983   4.456   1.972 -0.0618 -0.1150  0.6365
 2646TIP3    H129497   1.066   4.450   2.018 -0.5756 -0.8577  1.5036
 2646TIP3    H229498   0.917   4.462   2.041 -0.8093 -0.7203  0.0040
 2647TIP3   OH229499   1.382   0.052   0.856 -0.1476 -0.4186  0.1888
 2647TIP3    H129500   1.378   0.095   0.942 -1.2617 -1.5296  0.7188
 2647TIP3    H229501   1.458   0.091   0.814  0.2397  0.3825  1.5578
 2648TIP3   OH229502   4.462   6.712   0.150  0.1904 -0.3040 -0.0293
 2648TIP3    H129503   4.392   6.691   0.089  0.4600 -0.8279 -0.1654
 2648TIP3    H229504   4.427   6.691   0.237  0.0938 -0.3384 -0.0774
 2649TIP3   OH229505   4.444   1.342   7.142 -0.1176  0.3061 -0.4937
 2649TIP3    H129506   4.405   1.284   7.076  0.4260 -0.1277 -0.4368
 2649TIP3    H229507   4.525   1.299   7.167 -1.5191 -0.9126  2.4325
 2650TIP3   OH229508   3.840   3.290   1.050 -0.6416  0.0562 -0.4116
 2650TIP3    H129509   3.796   3.311   0.968 -0.0530  0.9897 -0.5016
 2650TIP3    H229510   3.924   3.252   1.023  0.4465  2.1990 -0.3152
 2651TIP3   OH229511   5.685   3.266   0.524  0.1096 -0.2510 -0.7903
 2651TIP3    H129512   5.659   3.186   0.480  1.9832 -0.9372 -0.7560
 2651TIP3    H229513   5.706   3.239   0.613 -1.1791  0.6573 -0.1908
 2652TIP3   OH229514   5.148   6.207   7.543  0.3934 -0.0909  0.0530
 2652TIP3    H129515   5.227   6.245   7.580 -0.4193  2.6105 -0.7227
 2652TIP3    H229516   5.115   6.148   7.612  1.7171  0.6806  1.4009
 2653TIP3   OH229517   5.795   2.450   0.526  0.7652  0.5991  0.7101
 2653TIP3    H129518   5.811   2.394   0.451  1.0769 -1.1616  2.0332
 2653TIP3    H229519   5.880   2.460   0.568  0.5255  1.2197  1.0712
 2654TIP3   OH229520   6.770   5.244   6.906 -0.1526  0.8845 -0.3349
 2654TIP3    H129521   6.690   5.249   6.853  0.2606  0.7031 -0.9864
 2654TIP3    H229522   6.762   5.161   6.953 -2.1896  2.5692  2.6620
 2655TIP3   OH229523   6.416   0.829   0.471  0.2844  0.0862 -0.4778
 2655TIP3    H129524   6.331   0.797   0.439 -0.9207  1.6394  0.9540
 2655TIP3    H229525   6.467   0.749   0.488 -1.8635 -1.0719  1.1029
 2656TIP3   OH229526   4.533   1.938   1.161 -0.3511  0.3841  0.7897
 2656TIP3    H129527   4.458   1.886   1.132  0.8741 -0.6124 -0.7215
 2656TIP3    H229528   4.580   1.880   1.221  1.2002 -0.4688 -1.1556
 2657TIP3   OH229529   0.992   6.874   7.684 -0.5009 -0.0070  0.6836
 2657TIP3    H129530   0.900   6.845   7.688 -1.2135  0.9919 -3.7389
 2657TIP3    H229531   1.033   6.815   7.620  1.3210  1.0313  0.8386
 2658TIP3   OH229532   0.397   6.373   0.300  0.2970 -0.0655 -0.2367
 2658TIP3    H129533   0.486   6.336   0.303  0.3719 -0.4106 -3.1714
 2658TIP3    H229534   0.411   6.467   0.287  0.3307 -0.2626 -1.8896
 2659TIP3   OH229535   4.159   1.455   6.517  0.3466 -0.2987 -0.3979
 2659TIP3    H129536   4.083   1.509   6.496 -1.0267 -1.5259  1.1388
 2659TIP3    H229537   4.212   1.510   6.576  1.4883  1.1114 -2.5999
 2660TIP3   OH229538   2.725   4.763   8.225  0.0954 -0.1593  0.1247
 2660TIP3    H129539   2.638   4.725   8.231 -0.2281  0.7369  1.3904
 2660TIP3    H229540   2.771   4.707   8.163 -1.4224 -0.5430 -0.7028
 2661TIP3   OH229541   2.673   1.075   1.692  0.3767  0.7312  0.4916
 2661TIP3    H129542   2.594   1.025   1.673  0.1168  1.3224  0.0129
 2661TIP3    H229543   2.664   1.099   1.785 -0.7658  2.1286  0.0532
 2662TIP3   OH229544   5.752   2.522   7.350 -0.2113 -0.1636  0.4335
 2662TIP3    H129545   5.663   2.512   7.316 -1.0154 -0.0879  2.3922
 2662TIP3    H229546   5.749   2.602   7.402  1.4869  0.7843 -0.8244
 2663TIP3   OH229547   1.184   6.051   7.166  0.0052  0.1280 -0.1149
 2663TIP3    H129548   1.191   5.994   7.244 -1.8344 -1.3631 -0.9704
 2663TIP3    H229549   1.196   5.991   7.092 -2.3959  0.7452 -1.0677
 2664TIP3   OH229550   0.554   2.469   0.823  0.0438 -0.0286  0.9778
 2664TIP3    H129551   0.612   2.393   0.826  0.9020  0.5668  0.1250
 2664TIP3    H229552   0.485   2.449   0.886 -0.7176 -2.2811 -0.4401
 2665TIP3   OH229553   4.948   3.534   7.985 -0.3882 -0.0383  0.0680
 2665TIP3    H129554   4.943   3.440   7.968 -2.0938 -0.0132  0.2833
 2665TIP3    H229555   5.041   3.549   8.005 -0.3982 -2.0419  2.0697
 2666TIP3   OH229556   4.818   0.633   6.185 -0.1252 -0.1408 -0.2280
 2666TIP3    H129557   4.912   0.616   6.180  0.0702  0.6600  0.3334
 2666TIP3    H229558   4.809   0.724   6.154 -0.5300  0.2420  0.9550
 2667TIP3   OH229559   3.277   4.334   1.496 -0.4483  0.1724  0.3917
 2667TIP3    H129560   3.362   4.305   1.528 -1.1181 -2.0517  0.3135
 2667TIP3    H229561   3.280   4.430   1.503  1.9192  0.1282  0.6558
 2668TIP3   OH229562   5.894   3.506   0.107  0.1795 -0.6052 -0.3349
 2668TIP3    H129563   5.828   3.441   0.134  0.2877 -1.2050 -1.4452
 2668TIP3    H229564   5.881   3.514   0.013  0.8522  0.2478 -0.3613
 2669TIP3   OH229565   3.108   2.951   6.527  0.5130  0.0669  0.3468
 2669TIP3    H129566   3.017   2.974   6.512  0.7544  2.4556  1.8639
 2669TIP3    H229567   3.158   3.016   6.477  1.3218  0.5101  1.6657
 2670TIP3   OH229568   0.759   5.280   0.454 -0.0845 -0.2049  0.0596
 2670TIP3    H129569   0.777   5.333   0.532  1.3791 -2.8501  1.6896
 2670TIP3    H229570   0.672   5.243   0.469 -1.3675  2.0113 -1.3572
 2671TIP3   OH229571   2.252   6.482   7.693  0.2432 -0.1811 -0.6412
 2671TIP3    H129572   2.159   6.469   7.712  0.3099 -0.9760 -0.8254
 2671TIP3    H229573   2.255   6.510   7.602  0.2542 -1.2556 -0.9776
 2672TIP3   OH229574   0.978   3.492   8.000  0.5706 -0.0729 -0.9179
 2672TIP3    H129575   1.061   3.445   7.995  0.0126 -1.7484  2.8334
 2672TIP3    H229576   1.000   3.574   8.045  0.3978  0.1481 -1.2293
 2673TIP3   OH229577   4.010   6.370   1.618 -0.7584  0.0184  0.1477
 2673TIP3    H129578   3.961   6.453   1.616 -0.1166  0.4065  0.0588
 2673TIP3    H229579   4.100   6.396   1.641  0.0719 -0.3008 -2.4005
 2674TIP3   OH229580   3.210   0.191   0.633 -0.8119 -0.0297 -0.0465
 2674TIP3    H129581   3.243   0.125   0.693 -1.5136  1.4714  2.1433
 2674TIP3    H229582   3.165   0.254   0.690  0.5907  2.8204 -1.8721
 2675TIP3   OH229583   1.959   2.590   7.457 -0.1642 -0.4430  0.0420
 2675TIP3    H129584   1.910   2.663   7.418  0.4808 -0.0629 -0.0708
 2675TIP3    H229585   2.003   2.629   7.533  1.0037 -0.4570 -0.6055
 2676TIP3   OH229586   5.111   0.753   7.683 -0.3016 -0.0179 -0.2832
 2676TIP3    H129587   5.134   0.687   7.749 -1.4213  0.6747  0.8366
 2676TIP3    H229588   5.134   0.836   7.723  0.6355  0.3390 -1.4970
 2677TIP3   OH229589   4.395   3.793   0.447 -0.3445  0.1096 -0.2229
 2677TIP3    H129590   4.384   3.699   0.462 -1.1556  0.1632 -0.4509
 2677TIP3    H229591   4.320   3.833   0.491  0.5867  0.7528  0.8514
 2678TIP3   OH229592   3.003   3.175   7.157 -0.5002 -0.4462  0.6106
 2678TIP3    H129593   2.970   3.126   7.232 -0.4370 -1.3854  0.0379
 2678TIP3    H229594   3.091   3.203   7.184  0.2285 -2.2683  0.2745
 2679TIP3   OH229595   2.710   3.588   1.284  0.5261  0.1876 -0.3923
 2679TIP3    H129596   2.687   3.623   1.370 -1.2993 -0.0984 -0.7220
 2679TIP3    H229597   2.772   3.517   1.303  0.3920  0.3343  0.6571
 2680TIP3   OH229598   6.265   5.729   6.539  0.5109  0.1960  0.5779
 2680TIP3    H129599   6.193   5.666   6.545  0.0713  0.7360  1.1494
 2680TIP3    H229600   6.337   5.680   6.500 -0.0499 -0.4603  0.3424
 2681TIP3   OH229601   3.295   3.103   8.420 -0.4356 -0.0660  0.1097
 2681TIP3    H129602   3.384   3.071   8.408  0.3699  0.8826  2.8646
 2681TIP3    H229603   3.248   3.030   8.460 -0.2510  0.1658  0.7634
 2682TIP3   OH229604   3.908   6.645   1.944  0.0733 -0.4346 -0.6540
 2682TIP3    H129605   3.994   6.617   1.976 -0.6850 -0.7026  1.2772
 2682TIP3    H229606   3.852   6.646   2.022 -2.1180 -1.8722 -2.0859
 2683TIP3   OH229607   0.579   2.818   7.843 -0.1471 -0.3092  0.3902
 2683TIP3    H129608   0.605   2.910   7.842  1.7822 -0.8072  0.3383
 2683TIP3    H229609   0.598   2.787   7.754  2.0688 -1.4355  1.1841
 2684TIP3   OH229610   0.740   4.445   7.546 -0.1426  0.1649 -0.3141
 2684TIP3    H129611   0.657   4.410   7.579  0.7525  0.1475  2.1201
 2684TIP3    H229612   0.788   4.470   7.624  2.0490  0.4652 -1.6797
 2685TIP3   OH229613   1.388   2.658   6.620 -0.1271  0.3517  0.1840
 2685TIP3    H129614   1.340   2.637   6.539  0.2360 -1.1653  0.3212
 2685TIP3    H229615   1.409   2.751   6.612  0.8446  0.0269 -2.0088
 2686TIP3   OH229616   4.283   0.199   6.889 -0.2763 -0.0368 -0.1841
 2686TIP3    H129617   4.334   0.278   6.902  0.8806 -0.7878  0.0241
 2686TIP3    H229618   4.294   0.178   6.796  0.4447 -0.6080  0.0172
 2687TIP3   OH229619   1.833   4.816   7.852  0.4624 -0.1773 -0.1290
 2687TIP3    H129620   1.777   4.892   7.839  0.8083 -0.1446 -1.6594
 2687TIP3    H229621   1.918   4.852   7.877  0.0624 -0.1865  1.3120
 2688TIP3   OH229622   0.845   3.947   8.578  0.5183  0.4566  0.5652
 2688TIP3    H129623   0.788   3.925   8.651  0.1040  3.8724  1.4139
 2688TIP3    H229624   0.797   3.918   8.500 -0.5209 -0.2999  1.4548
 2689TIP3   OH229625   3.089   4.997   1.658  0.0189 -0.2129  0.1704
 2689TIP3    H129626   3.041   4.939   1.717 -2.2105 -0.3945 -1.6866
 2689TIP3    H229627   3.048   5.083   1.671  0.4397  0.0376 -0.1450
 2690TIP3   OH229628   0.587   1.913   1.045 -0.4167  0.1364  0.4442
 2690TIP3    H129629   0.642   1.955   0.979  0.8687 -0.2418  1.2379
 2690TIP3    H229630   0.584   1.821   1.020 -1.1251  0.2393  0.1232
 2691TIP3   OH229631   2.237   1.575   1.147  0.4120  1.0088  0.2307
 2691TIP3    H129632   2.174   1.614   1.208  1.5911  1.5787  1.1333
 2691TIP3    H229633   2.280   1.506   1.198 -0.6700 -0.5920 -0.9252
 2692TIP3   OH229634   3.823   5.108   8.508 -0.0939  0.0909 -0.4539
 2692TIP3    H129635   3.764   5.048   8.554 -0.6298 -1.2875 -2.7574
 2692TIP3    H229636   3.902   5.056   8.492  0.6116  0.9783  0.0636
 2693TIP3   OH229637   0.572   4.136   8.043  0.1442  0.3712  0.4061
 2693TIP3    H129638   0.561   4.213   8.098 -2.6733  0.2152  0.1999
 2693TIP3    H229639   0.666   4.119   8.043  0.7598  3.3205  1.0854
 2694TIP3   OH229640   1.712   0.980   1.561 -0.1359 -0.4783 -0.0471
 2694TIP3    H129641   1.763   1.049   1.605 -1.0396  0.1881 -0.0208
 2694TIP3    H229642   1.662   0.939   1.631 -1.1422  0.2042 -0.3413
 2695TIP3   OH229643   5.486   3.822   6.916 -0.3600  0.0038 -0.3196
 2695TIP3    H129644   5.496   3.813   7.010  1.8745 -0.3447 -0.5433
 2695TIP3    H229645   5.396   3.795   6.898 -0.1739 -2.0042  1.4588
 2696TIP3   OH229646   3.780   5.580   7.072 -0.2554 -0.1009  0.3999
 2696TIP3    H129647   3.799   5.635   7.148  0.1509  0.4937 -0.1180
 2696TIP3    H229648   3.862   5.580   7.022 -0.4140 -0.7572  0.1326
 2697TIP3   OH229649   5.030   1.244   0.804 -0.0081  0.1343 -0.1134
 2697TIP3    H129650   5.109   1.228   0.752 -0.7935 -2.0203 -0.7597
 2697TIP3    H229651   4.978   1.304   0.751 -0.1533 -0.8996 -1.1892
 2698TIP3   OH229652   0.265   1.223   7.627 -0.0749 -0.2935  0.3644
 2698TIP3    H129653   0.343   1.169   7.614 -0.1242 -0.0004 -1.3457
 2698TIP3    H229654   0.294   1.313   7.612 -0.8278 -0.2309 -0.9549
 2699TIP3   OH229655   6.545   5.798   0.342  1.0044  0.1783  0.2791
 2699TIP3    H129656   6.629   5.808   0.387  0.3971  0.5041  1.3846
 2699TIP3    H229657   6.567   5.798   0.249  2.4531 -2.0031  0.5526
 2700TIP3   OH229658   4.430   3.356   7.938  0.1990  0.2834  0.3676
 2700TIP3    H129659   4.457   3.443   7.911  0.8153  0.0751  0.2990
 2700TIP3    H229660   4.343   3.368   7.975  0.4729  1.0000  0.7833
 2701TIP3   OH229661   5.757   3.359   0.298  0.0085 -0.2197  1.0013
 2701TIP3    H129662   5.718   3.349   0.385 -0.4647 -1.4605  0.6687
 2701TIP3    H229663   5.841   3.312   0.304 -0.4721 -1.1568  0.5185
 2702TIP3   OH229664   1.964   6.081   0.888 -0.0489  0.1966 -0.2983
 2702TIP3    H129665   1.870   6.063   0.893  0.1405 -1.5394 -2.0513
 2702TIP3    H229666   1.997   6.057   0.975 -0.9762 -0.7537 -0.1953
 2703TIP3   OH229667   4.935   4.130   2.218 -0.4896  0.1574 -0.1289
 2703TIP3    H129668   4.915   4.057   2.276 -2.1721 -0.1384 -1.0411
 2703TIP3    H229669   4.925   4.208   2.273 -1.6848 -0.1440  0.1013
 2704TIP3   OH229670   4.581   0.314   1.222 -0.2493 -0.4426 -0.0832
 2704TIP3    H129671   4.529   0.274   1.152  1.2167 -0.7195 -1.0656
 2704TIP3    H229672   4.578   0.251   1.294 -0.0308 -1.1583 -0.6898
 2705TIP3   OH229673   1.920   1.792   2.334 -0.7529 -0.2944 -0.1064
 2705TIP3    H129674   1.976   1.782   2.257 -2.4696  0.0061 -1.4409
 2705TIP3    H229675   1.963   1.740   2.402  2.0152  1.1919 -0.5522
 2706TIP3   OH229676   2.742   5.412   0.738 -0.1392 -0.5549 -0.4064
 2706TIP3    H129677   2.679   5.379   0.802  1.1272 -2.4127 -0.0329
 2706TIP3    H229678   2.740   5.507   0.749 -1.4954 -0.6936  0.8798
 2707TIP3   OH229679   0.963   6.266   7.584 -0.2943  0.2566  0.0105
 2707TIP3    H129680   1.023   6.208   7.630 -0.7964  0.4581  0.9523
 2707TIP3    H229681   0.912   6.208   7.526  0.2007 -0.0263 -0.1445
 2708TIP3   OH229682   3.611   3.867   0.883 -0.3674 -0.6870  0.6468
 2708TIP3    H129683   3.631   3.937   0.821 -2.5885  0.5193  1.1513
 2708TIP3    H229684   3.517   3.852   0.872 -0.7651 -0.7134  3.3842
 2709TIP3   OH229685   1.386   4.555   7.158  0.2143  0.4121  0.1345
 2709TIP3    H129686   1.335   4.629   7.190 -0.4237 -0.3581  0.9341
 2709TIP3    H229687   1.450   4.594   7.099 -0.6832  1.5064 -0.1563
 2710TIP3   OH229688   0.606   0.497   7.448 -0.1304  0.0499 -0.5114
 2710TIP3    H129689   0.685   0.446   7.432 -0.2036 -0.5467  0.9487
 2710TIP3    H229690   0.534   0.435   7.434 -0.2640  0.0810  0.0278
 2711TIP3   OH229691   5.035   4.690   7.883  0.7417  0.6505  0.4706
 2711TIP3    H129692   5.080   4.653   7.807  1.5121  0.1963  1.1236
 2711TIP3    H229693   5.099   4.684   7.954 -0.2866  0.1398  1.3925
 2712TIP3   OH229694   5.644   1.254   8.548 -0.3089  0.0309  0.3246
 2712TIP3    H129695   5.732   1.267   8.582 -0.4367  0.9299  0.3210
 2712TIP3    H229696   5.586   1.291   8.615 -0.9210 -3.4358  1.9213
 2713TIP3   OH229697   2.473   3.530   7.953 -0.0404 -0.0221 -0.1063
 2713TIP3    H129698   2.481   3.625   7.948  1.6351 -0.1556 -0.4500
 2713TIP3    H229699   2.505   3.498   7.868 -2.7570 -0.8374 -0.9545
 2714TIP3   OH229700   5.440   0.785   7.889  0.3352 -0.2216  0.2604
 2714TIP3    H129701   5.393   0.771   7.971  0.1618 -2.6929 -0.1834
 2714TIP3    H229702   5.532   0.770   7.911  0.1612 -2.1426 -0.2072
 2715TIP3   OH229703   1.624   5.086   1.795 -0.3001 -0.2691  0.1158
 2715TIP3    H129704   1.607   5.179   1.811 -4.5441 -0.8942  0.5575
 2715TIP3    H229705   1.614   5.077   1.700  0.9879 -0.2147 -0.0466
 2716TIP3   OH229706   0.580   5.130   8.567  0.4013  0.0261  0.2638
 2716TIP3    H129707   0.611   5.060   8.624  0.3893  0.1994  0.4830
 2716TIP3    H229708   0.492   5.103   8.541  0.4544 -0.1126  0.2273
 2717TIP3   OH229709   4.395   4.639   2.480 -0.2128 -0.3964  0.3053
 2717TIP3    H129710   4.388   4.631   2.576 -0.4712  3.9398  0.8676
 2717TIP3    H229711   4.304   4.649   2.451 -0.1404 -1.7577 -0.4573
 2718TIP3   OH229712   1.253   3.891   2.819 -0.0699 -0.5033 -0.1841
 2718TIP3    H129713   1.197   3.896   2.741 -1.4845 -1.7954  0.7072
 2718TIP3    H229714   1.282   3.799   2.821 -1.2216 -0.8672  1.5702
 2719TIP3   OH229715   3.187   0.940   0.941 -0.7825  0.3992 -0.2564
 2719TIP3    H129716   3.103   0.981   0.960 -0.0243  1.7357  0.3640
 2719TIP3    H229717   3.182   0.915   0.848 -2.3784 -0.8864  0.1368
 2720TIP3   OH229718   4.336   4.490   0.137  0.0852 -0.1850  0.3829
 2720TIP3    H129719   4.394   4.540   0.080 -0.4098 -2.0183 -1.8850
 2720TIP3    H229720   4.251   4.533   0.131  0.7245  1.4993  2.3648
 2721TIP3   OH229721   5.075   4.109   7.982 -0.0500  0.0319 -0.1236
 2721TIP3    H129722   5.100   4.193   8.021  0.3048 -0.9598  1.9202
 2721TIP3    H229723   5.070   4.127   7.888  1.0240  2.0818  0.1510
 2722TIP3   OH229724   2.699   4.395   2.057  0.3498  0.1532  0.2731
 2722TIP3    H129725   2.753   4.316   2.058  0.0920 -0.0299 -0.0700
 2722TIP3    H229726   2.749   4.459   2.108  0.2453 -0.4309  1.1346
 2723TIP3   OH229727   5.372   4.044   0.680 -0.2150  0.3714  0.7108
 2723TIP3    H129728   5.366   3.955   0.716 -0.6626  0.4447  0.8227
 2723TIP3    H229729   5.466   4.062   0.676 -0.0418 -0.6464 -0.6232
 2724TIP3   OH229730   5.092   0.335   8.042 -0.1598 -0.8551 -0.1523
 2724TIP3    H129731   5.090   0.288   7.958  1.8849 -1.4010  0.0458
 2724TIP3    H229732   5.130   0.271   8.103 -2.5389 -0.8177  1.4625
 2725TIP3   OH229733   1.070   3.893   7.116  0.4849 -0.2618  1.1134
 2725TIP3    H129734   1.009   3.821   7.130  0.0185  0.3679  2.5136
 2725TIP3    H229735   1.050   3.956   7.186  0.6087  1.4281 -0.2978
 2726TIP3   OH229736   6.715   4.134   7.468  0.1464 -0.9365  0.0952
 2726TIP3    H129737   6.711   4.062   7.406  1.3546 -0.2636 -0.7990
 2726TIP3    H229738   6.689   4.211   7.418 -1.1896 -0.7265  1.0562
 2727TIP3   OH229739   2.763   1.661   7.300 -0.1230  0.3119  0.4763
 2727TIP3    H129740   2.740   1.754   7.306  0.3846  0.3355  2.7056
 2727TIP3    H229741   2.696   1.624   7.243 -0.3864  2.0202 -0.3940
 2728TIP3   OH229742   6.881   5.624   1.941 -0.5875  0.2053  0.0289
 2728TIP3    H129743   6.796   5.646   1.904  0.6796  2.8111 -1.7131
 2728TIP3    H229744   6.897   5.693   2.006 -1.0515 -2.0480  2.6938
 2729TIP3   OH229745   3.791   0.884   1.244 -0.7273  0.5281 -0.5059
 2729TIP3    H129746   3.827   0.929   1.167  0.9384 -1.1957 -0.8220
 2729TIP3    H229747   3.810   0.944   1.317 -0.0696  1.0937 -1.1147
 2730TIP3   OH229748   1.510   1.726   0.036  0.2004  0.1275 -0.0281
 2730TIP3    H129749   1.461   1.747  -0.043  1.3132  0.7966 -0.5625
 2730TIP3    H229750   1.598   1.703   0.005  0.0963 -1.6172  0.8497
 2731TIP3   OH229751   2.665   1.639   1.076  0.2938 -0.2131 -0.1182
 2731TIP3    H129752   2.613   1.568   1.039 -0.8499  0.0948  0.8406
 2731TIP3    H229753   2.603   1.709   1.093  0.7215 -0.3095  2.2797
 2732TIP3   OH229754   0.332   0.102   8.558 -0.0860  0.1918 -0.1578
 2732TIP3    H129755   0.355   0.016   8.595 -1.0410  0.0555  0.1408
 2732TIP3    H229756   0.236   0.102   8.555 -0.0720  0.2300 -2.5437
 2733TIP3   OH229757   0.095   0.314   1.612  0.4858  0.1435 -0.2316
 2733TIP3    H129758   0.064   0.399   1.580 -1.3290 -0.0663  0.8081
 2733TIP3    H229759   0.143   0.335   1.692  2.0956  0.3710 -1.2311
 2734TIP3   OH229760   0.134   6.803   7.198 -0.1108  0.2057 -0.1765
 2734TIP3    H129761   0.212   6.853   7.220  0.2933  0.4264 -1.9522
 2734TIP3    H229762   0.081   6.804   7.277  0.8169  1.6913  0.4547
 2735TIP3   OH229763   0.105   4.355   2.163  0.2492 -0.7125  0.1657
 2735TIP3    H129764   0.039   4.413   2.202  0.8727 -0.3293  0.6587
 2735TIP3    H229765   0.175   4.413   2.135 -0.4015 -0.9091 -2.0742
 2736TIP3   OH229766   1.382   3.418   1.798 -0.0750  0.1845 -0.5890
 2736TIP3    H129767   1.425   3.480   1.857  1.4385 -0.0192 -1.4182
 2736TIP3    H229768   1.350   3.473   1.726 -0.7936  0.2787 -0.2005
 2737TIP3   OH229769   1.675   3.847   0.916  0.1406  0.0669  0.1528
 2737TIP3    H129770   1.663   3.936   0.883 -1.3186 -0.7031 -1.5916
 2737TIP3    H229771   1.760   3.820   0.882  0.3505  0.6113  0.2394
 2738TIP3   OH229772   4.813   5.487   8.546 -0.0435 -0.7036  0.6185
 2738TIP3    H129773   4.816   5.505   8.452  0.0097  1.8482  1.0482
 2738TIP3    H229774   4.878   5.417   8.558  2.0272  0.8228 -0.8920
 2739TIP3   OH229775   4.857   4.530   8.027 -0.3420 -0.1934  0.7654
 2739TIP3    H129776   4.853   4.620   8.059  1.4769 -0.1561  1.0296
 2739TIP3    H229777   4.909   4.535   7.947 -1.4413 -0.8286  0.0003
 2740TIP3   OH229778   1.904   4.345   0.726 -0.3888  0.6513 -0.1277
 2740TIP3    H129779   1.950   4.419   0.767  0.0204 -0.1439  0.8977
 2740TIP3    H229780   1.974   4.293   0.687 -0.7970  1.5924 -2.2704
 2741TIP3   OH229781   0.363   5.895   1.179  0.1137 -0.6082  0.1343
 2741TIP3    H129782   0.286   5.842   1.158 -0.0291 -0.1914 -0.4291
 2741TIP3    H229783   0.435   5.832   1.185 -0.5819 -1.2954  2.6987
 2742TIP3   OH229784   6.674   2.035   7.581 -0.1716 -0.3355 -0.1123
 2742TIP3    H129785   6.638   2.015   7.494 -1.9477  0.3297  0.4364
 2742TIP3    H229786   6.735   2.107   7.565 -1.7836  0.9776 -0.6001
 2743TIP3   OH229787   2.783   1.068   0.455 -0.4314  0.1638  0.2651
 2743TIP3    H129788   2.792   1.163   0.456 -1.9705  0.3400  1.3965
 2743TIP3    H229789   2.725   1.050   0.381  0.0175  0.0899 -0.0679
 2744TIP3   OH229790   6.221   3.304   0.937 -0.0594 -0.5254 -0.1987
 2744TIP3    H129791   6.250   3.360   0.865 -1.8379  1.7218  0.7011
 2744TIP3    H229792   6.141   3.346   0.968 -0.6383 -2.7725  1.5595
 2745TIP3   OH229793   0.479   2.688   1.097  0.1795 -0.3074  0.4709
 2745TIP3    H129794   0.418   2.619   1.070  0.2688 -0.0493 -0.4336
 2745TIP3    H229795   0.432   2.769   1.080  0.8206 -0.0978 -0.4003
 2746TIP3   OH229796   1.762   2.003   6.708  0.1987  0.2728  0.2917
 2746TIP3    H129797   1.775   1.992   6.613 -0.7176  1.4763  0.0060
 2746TIP3    H229798   1.845   2.038   6.739 -0.5258  3.0668 -0.6609
 2747TIP3   OH229799   5.506   1.927   0.821  0.3559  0.1247 -0.7576
 2747TIP3    H129800   5.570   1.936   0.750  1.1916 -0.9799 -0.1807
 2747TIP3    H229801   5.453   1.851   0.796  0.0444  0.3057 -0.6491
 2748TIP3   OH229802   2.879   5.619   2.095 -0.7242 -0.0235  0.4256
 2748TIP3    H129803   2.915   5.620   2.184 -2.2621  0.0067  1.0713
 2748TIP3    H229804   2.862   5.526   2.078 -0.5722 -0.0137  0.2142
 2749TIP3   OH229805   1.665   6.047   0.245 -0.0052  0.1511 -0.3430
 2749TIP3    H129806   1.594   6.053   0.309  0.2486 -1.7099  0.1756
 2749TIP3    H229807   1.643   6.111   0.178 -1.5454  0.4542  0.4114
 2750TIP3   OH229808   2.569   0.747   7.196  0.4618  0.0760  0.4241
 2750TIP3    H129809   2.639   0.768   7.135  0.3523  1.5070  0.7502
 2750TIP3    H229810   2.608   0.687   7.259  0.9596 -0.3302 -0.2717
 2751TIP3   OH229811   3.923   4.347   7.206 -0.2875 -0.1541  0.0964
 2751TIP3    H129812   3.969   4.345   7.290  2.0682 -3.1953 -1.0786
 2751TIP3    H229813   3.862   4.274   7.211 -1.3970  0.7280 -0.2538
 2752TIP3   OH229814   5.890   5.239   6.979  0.3231 -0.2515  0.4090
 2752TIP3    H129815   5.887   5.143   6.979 -0.4473 -0.2316  0.2060
 2752TIP3    H229816   5.851   5.264   6.895  0.7516  0.2373  0.3495
 2753TIP3   OH229817   6.528   1.660   8.438 -0.1283  0.2875 -0.3516
 2753TIP3    H129818   6.466   1.728   8.413  0.6914  1.5702  0.9372
 2753TIP3    H229819   6.608   1.682   8.391  2.1433  3.9928  4.4319
 2754TIP3   OH229820   3.514   1.247   2.239 -0.2045 -0.4159  0.2348
 2754TIP3    H129821   3.579   1.198   2.289 -0.6614 -0.7545  0.5079
 2754TIP3    H229822   3.441   1.259   2.301 -0.6536 -0.5738 -0.2604
 2755TIP3   OH229823   1.754   6.062   0.626  0.4350  0.5668 -0.0841
 2755TIP3    H129824   1.712   6.145   0.646 -0.2944  0.6393 -1.7343
 2755TIP3    H229825   1.804   6.078   0.546  2.5831  0.1160  1.0836
 2756TIP3   OH229826   5.143   4.040   2.614  0.1071 -0.0907 -0.2164
 2756TIP3    H129827   5.049   4.032   2.598  0.1247 -1.0008  0.0922
 2756TIP3    H229828   5.175   3.950   2.616  0.9757  0.2066 -0.2341
 2757TIP3   OH229829   6.494   5.423   0.800 -0.3143 -0.9253  0.2618
 2757TIP3    H129830   6.541   5.501   0.830 -0.7880 -0.7866  0.6606
 2757TIP3    H229831   6.518   5.415   0.708 -0.5255 -0.1146  0.1276
 2758TIP3   OH229832   4.193   4.476   2.233 -0.1598  0.0064  0.2305
 2758TIP3    H129833   4.128   4.508   2.296 -2.2657 -1.2948 -1.1510
 2758TIP3    H229834   4.158   4.393   2.203  2.0361 -0.5984 -0.8428
 2759TIP3   OH229835   4.885   6.122   7.056  0.2173 -0.4966  0.0420
 2759TIP3    H129836   4.968   6.168   7.042  0.4353 -0.7504  0.4843
 2759TIP3    H229837   4.818   6.185   7.030  0.5720 -0.6433 -1.3100
 2760TIP3   OH229838   2.311   1.668   7.122  0.0345  0.0814 -0.0831
 2760TIP3    H129839   2.310   1.752   7.075 -0.9669 -0.3589 -0.8738
 2760TIP3    H229840   2.278   1.690   7.209 -1.0849  0.3820 -0.5571
 2761TIP3   OH229841   5.625   3.981   2.393  0.1586  0.8755  0.0506
 2761TIP3    H129842   5.695   3.960   2.331 -1.0849 -0.0705 -1.1169
 2761TIP3    H229843   5.598   3.896   2.429  0.9557  1.4239  2.0602
 2762TIP3   OH229844   0.986   4.894   6.749  0.5142 -0.2263 -0.1583
 2762TIP3    H129845   0.908   4.929   6.705 -0.1999  0.1518  1.3540
 2762TIP3    H229846   1.051   4.964   6.738  0.4991 -0.3204 -0.9698
 2763TIP3   OH229847   5.870   2.095   0.274  0.3724 -0.1404  0.1658
 2763TIP3    H129848   5.948   2.053   0.239  0.2932 -0.8782  0.8353
 2763TIP3    H229849   5.800   2.030   0.264  0.1613 -0.0350  0.8416
 2764TIP3   OH229850   6.197   1.765   1.378  0.0948 -0.2545  0.0455
 2764TIP3    H129851   6.118   1.761   1.432 -0.1427 -1.8569 -0.3637
 2764TIP3    H229852   6.175   1.827   1.308  0.4791  1.9958  1.8005
 2765TIP3   OH229853   1.294   1.602   1.307  0.8357 -0.0909  0.2100
 2765TIP3    H129854   1.272   1.589   1.399 -0.2445  0.3909  0.0427
 2765TIP3    H229855   1.358   1.533   1.287 -0.6113 -1.6620  0.7389
 2766TIP3   OH229856   6.774   3.221   7.261  0.2156  0.6158 -0.3379
 2766TIP3    H129857   6.695   3.265   7.230  1.0989  1.1332 -1.9579
 2766TIP3    H229858   6.829   3.211   7.183  1.9223  0.6329  0.7921
 2767TIP3   OH229859   6.299   5.084   8.211 -0.2024  0.1922  0.6107
 2767TIP3    H129860   6.242   5.093   8.134 -1.8582 -0.3527  1.7239
 2767TIP3    H229861   6.319   5.174   8.237  0.6016  0.3863 -0.5802
 2768TIP3   OH229862   6.534   5.249   7.535 -0.0897 -0.3268 -0.0171
 2768TIP3    H129863   6.620   5.209   7.552  0.9931  1.7055 -0.4875
 2768TIP3    H229864   6.477   5.174   7.516  1.8671 -1.6609 -1.0229
 2769TIP3   OH229865   2.130   6.044   1.092 -0.2608  0.2561  0.5254
 2769TIP3    H129866   2.222   6.031   1.067 -0.4235  0.5894 -0.2818
 2769TIP3    H229867   2.131   6.045   1.188  0.5838  0.3106  0.5253
 2770TIP3   OH229868   2.820   0.615   0.107  0.1878 -0.5461 -0.6059
 2770TIP3    H129869   2.802   0.530   0.147  1.1668 -0.9615 -1.0041
 2770TIP3    H229870   2.907   0.639   0.139  1.0341 -0.9158 -2.4617
 2771TIP3   OH229871   3.402   2.682   8.182  0.5210 -0.0927  0.1681
 2771TIP3    H129872   3.347   2.672   8.259  2.7995  0.1584  1.9267
 2771TIP3    H229873   3.340   2.684   8.109 -1.9734  2.0853  2.1188
 2772TIP3   OH229874   1.051   5.331   1.299  0.0476  0.5047  0.3045
 2772TIP3    H129875   0.988   5.264   1.270  1.5203 -0.1439 -1.6376
 2772TIP3    H229876   1.064   5.313   1.392 -3.1680  1.1760  1.0189
 2773TIP3   OH229877   5.248   6.474   8.241  0.0515 -0.2984  0.0768
 2773TIP3    H129878   5.269   6.503   8.330 -2.1521  0.5867  0.3534
 2773TIP3    H229879   5.213   6.386   8.252  1.5561 -0.9702 -0.1764
 2774TIP3   OH229880   6.776   5.124   8.393  0.5191  0.2412 -0.2627
 2774TIP3    H129881   6.691   5.110   8.435  0.5874 -0.2168 -0.2696
 2774TIP3    H229882   6.771   5.075   8.311 -0.2107  2.4286 -1.6243
 2775TIP3   OH229883   3.670   1.766   8.478 -0.4192 -0.3767 -0.2514
 2775TIP3    H129884   3.712   1.777   8.392 -1.6048 -0.8490 -0.9229
 2775TIP3    H229885   3.740   1.783   8.541  0.2328  1.0140 -1.2882
 2776TIP3   OH229886   5.317   6.808   1.155  0.6884  0.6661 -0.2147
 2776TIP3    H129887   5.233   6.818   1.110 -0.0558 -0.6463  0.8044
 2776TIP3    H229888   5.337   6.895   1.190 -1.1660  0.6211  1.0701
 2777TIP3   OH229889   6.005   6.654   0.042 -0.8173 -0.0827 -0.0972
 2777TIP3    H129890   5.912   6.639   0.023 -1.0004  0.2989  0.4628
 2777TIP3    H229891   6.031   6.580   0.096 -0.6967 -0.3785 -0.5557
 2778TIP3   OH229892   2.906   1.213   7.671  0.3919  0.5882 -0.2517
 2778TIP3    H129893   2.921   1.270   7.746 -0.9159 -0.1588  0.6156
 2778TIP3    H229894   2.952   1.132   7.693 -0.1576  0.2985 -0.1727
 2779TIP3   OH229895   5.646   2.921   7.637  0.3965  0.4054  0.1247
 2779TIP3    H129896   5.683   2.845   7.591  2.7738  0.5112  1.6803
 2779TIP3    H229897   5.602   2.883   7.713 -1.4648  0.4095 -0.8815
 2780TIP3   OH229898   1.283   0.545   2.487 -0.2286  0.6286  0.3020
 2780TIP3    H129899   1.189   0.562   2.486 -0.3404  0.1459  1.3583
 2780TIP3    H229900   1.290   0.455   2.455 -0.3770 -0.2672  2.6102
 2781TIP3   OH229901   4.721   0.455   0.425 -0.2046 -0.7980 -0.3516
 2781TIP3    H129902   4.643   0.508   0.442  0.2411 -0.5576  1.1026
 2781TIP3    H229903   4.795   0.513   0.445  0.3656 -1.1125 -1.4208
 2782TIP3   OH229904   3.031   5.405   3.048 -0.3547  0.0427 -0.1019
 2782TIP3    H129905   3.121   5.376   3.032 -0.0628  2.3481 -3.9354
 2782TIP3    H229906   2.978   5.355   2.985 -0.6247  3.1582 -2.6351
 2783TIP3   OH229907   2.997   6.150   0.805  0.1037 -0.4089 -0.0739
 2783TIP3    H129908   3.012   6.059   0.779 -0.8678 -0.9994  1.2956
 2783TIP3    H229909   2.974   6.145   0.898 -0.2028  1.2186 -0.0288
 2784TIP3   OH229910   6.829   4.568   8.103 -0.3253  0.1658  0.1512
 2784TIP3    H129911   6.770   4.542   8.173  0.3989 -1.0900  0.3250
 2784TIP3    H229912   6.902   4.507   8.109 -0.4228 -0.2265 -1.9454
 2785TIP3   OH229913   1.283   4.247   0.670 -0.0849 -0.1953 -0.5491
 2785TIP3    H129914   1.192   4.257   0.699  0.3095  1.4460  0.2464
 2785TIP3    H229915   1.285   4.291   0.585  0.3738  1.5960  0.3437
 2786TIP3   OH229916   3.666   0.195   7.793  0.0307  0.5829  0.5721
 2786TIP3    H129917   3.589   0.210   7.847  0.2930 -1.2461  1.5424
 2786TIP3    H229918   3.668   0.100   7.779  1.3116  0.7471 -0.6507
 2787TIP3   OH229919   2.069   6.832   0.864  0.3758  0.2536  0.1455
 2787TIP3    H129920   2.074   6.753   0.918 -1.2063 -0.0179 -0.0568
 2787TIP3    H229921   2.076   6.801   0.774 -1.7052  0.0998 -0.0299
 2788TIP3   OH229922   2.613   4.449   8.156 -0.2797  1.0772  0.1846
 2788TIP3    H129923   2.531   4.496   8.173  0.1769  2.0903 -0.4135
 2788TIP3    H229924   2.637   4.473   8.067  0.5730  0.6261  0.2851
 2789TIP3   OH229925   0.008   6.858   1.296  0.1277 -0.1724 -0.3486
 2789TIP3    H129926   0.071   6.884   1.229 -0.1936  1.3266 -0.0912
 2789TIP3    H229927   0.054   6.873   1.379 -0.6412  1.2400 -0.1476
 2790TIP3   OH229928   6.428   6.276   7.526  0.3273 -0.1239  0.2506
 2790TIP3    H129929   6.455   6.197   7.477  0.0921 -0.2368  0.3006
 2790TIP3    H229930   6.368   6.243   7.593  1.8986 -0.1970  1.6916
 2791TIP3   OH229931   2.882   2.078   1.453  0.6401  0.0087  0.3413
 2791TIP3    H129932   2.975   2.080   1.427  0.5877  2.1256  0.1000
 2791TIP3    H229933   2.884   2.086   1.548  0.7123 -0.3446  0.3698
 2792TIP3   OH229934   4.599   4.406   1.695 -0.6403  0.1487 -0.2599
 2792TIP3    H129935   4.620   4.329   1.642  1.7501  0.1094  0.6185
 2792TIP3    H229936   4.592   4.477   1.632  1.5635 -0.0038 -0.7715
 2793TIP3   OH229937   3.421   6.304   2.800 -0.1413  0.2487  0.4171
 2793TIP3    H129938   3.475   6.309   2.722 -1.1292 -0.3781 -0.3359
 2793TIP3    H229939   3.477   6.264   2.866  0.6318  0.5615 -0.0374
 2794TIP3   OH229940   3.365   6.095   7.959  0.1006  0.3720  0.2313
 2794TIP3    H129941   3.325   6.179   7.981 -3.7082 -1.4599  1.1774
 2794TIP3    H229942   3.349   6.084   7.866 -2.0594 -0.4177  0.6292
 2795TIP3   OH229943   5.239   2.156   8.355 -0.3319 -0.7761  0.5811
 2795TIP3    H129944   5.242   2.242   8.398 -0.6174  0.3172 -1.4466
 2795TIP3    H229945   5.331   2.129   8.350 -0.2870 -0.8805  1.7478
 2796TIP3   OH229946   3.203   3.988   8.508  0.6067  0.0792 -0.1940
 2796TIP3    H129947   3.296   3.971   8.518  1.0056  1.2746 -1.4954
 2796TIP3    H229948   3.197   4.083   8.500 -0.8744  0.1347  1.1128
 2797TIP3   OH229949   1.084   2.771   6.066 -0.3574  0.1651  0.4510
 2797TIP3    H129950   1.037   2.689   6.083  0.1861  0.2544  2.8551
 2797TIP3    H229951   1.175   2.750   6.090  0.1393  0.9810 -0.6712
 2798TIP3   OH229952   5.276   1.756   7.011 -0.3012  0.3854 -0.3421
 2798TIP3    H129953   5.326   1.694   6.958 -0.5993 -1.2389  1.1686
 2798TIP3    H229954   5.240   1.818   6.948  2.4770  0.8339 -1.6119
 2799TIP3   OH229955   3.194   4.473   8.005 -0.0978  0.5185 -0.3324
 2799TIP3    H129956   3.128   4.541   7.994 -1.5004 -0.7198  0.0480
 2799TIP3    H229957   3.147   4.399   8.044  1.0016 -1.1970 -2.0236
 2800TIP3   OH229958   2.261   5.748   0.144 -0.4801  0.8642  0.2279
 2800TIP3    H129959   2.209   5.671   0.167  1.4441 -0.5179  0.2844
 2800TIP3    H229960   2.200   5.807   0.101 -2.0026 -0.8030 -0.0238
 2801TIP3   OH229961   5.759   1.669   8.514  0.0928  0.4964 -0.3497
 2801TIP3    H129962   5.809   1.687   8.434 -0.1782  0.2503 -0.5733
 2801TIP3    H229963   5.680   1.624   8.484  1.4275 -2.4885  0.3061
 2802TIP3   OH229964   6.626   3.141   1.976 -0.1943 -0.1814 -0.0028
 2802TIP3    H129965   6.559   3.115   2.038 -0.3077  0.0177 -0.0432
 2802TIP3    H229966   6.580   3.148   1.892 -0.5718  2.0286  0.3460
 2803TIP3   OH229967   4.667   4.591   6.909 -0.1095  0.1150  0.1305
 2803TIP3    H129968   4.729   4.548   6.968 -0.8616 -0.9414  0.1689
 2803TIP3    H229969   4.659   4.532   6.834 -0.2578  0.7664 -0.3808
 2804TIP3   OH229970   0.616   2.589   8.235 -0.1098 -0.0955  0.3379
 2804TIP3    H129971   0.546   2.653   8.226  0.6788  1.2260  2.5742
 2804TIP3    H229972   0.688   2.639   8.274  1.5229 -1.7491 -0.4555
 2805TIP3   OH229973   6.643   4.619   1.383 -0.1412 -0.2046  0.2218
 2805TIP3    H129974   6.594   4.576   1.453  0.3688 -1.5438 -0.2132
 2805TIP3    H229975   6.715   4.665   1.428 -0.8972  0.5282  0.7184
 2806TIP3   OH229976   1.723   4.954   1.529 -0.2622  0.1761  0.2722
 2806TIP3    H129977   1.764   5.030   1.488  0.1901  0.0758  0.5281
 2806TIP3    H229978   1.747   4.880   1.474 -1.3814  0.3223 -0.4342
 2807TIP3   OH229979   5.305   0.853   2.426 -0.1969 -0.0985 -0.4970
 2807TIP3    H129980   5.238   0.832   2.491  0.6304 -0.3967  0.2856
 2807TIP3    H229981   5.372   0.786   2.439  0.3944  0.3788 -1.0461
 2808TIP3   OH229982   0.999   2.756   8.569 -0.1865 -0.0664 -1.0402
 2808TIP3    H129983   1.000   2.818   8.642  0.6326 -0.6949 -0.5028
 2808TIP3    H229984   1.030   2.808   8.494 -1.6795  0.7645 -1.1283
 2809TIP3   OH229985   5.535   6.308   8.179 -0.3848 -0.8752  0.4475
 2809TIP3    H129986   5.467   6.321   8.113 -0.1981  0.5526  0.5057
 2809TIP3    H229987   5.489   6.273   8.255 -1.7402  3.1040  1.6691
 2810TIP3   OH229988   5.625   1.394   2.157 -0.3359 -0.0458 -0.1543
 2810TIP3    H129989   5.602   1.436   2.240  1.2690 -0.8149  0.7135
 2810TIP3    H229990   5.692   1.450   2.119  0.8290 -1.0589  0.3546
 2811TIP3   OH229991   2.685   6.566   8.014 -0.3460 -0.3535 -0.5424
 2811TIP3    H129992   2.625   6.510   7.965  0.8911 -0.3628 -2.1211
 2811TIP3    H229993   2.703   6.516   8.094 -0.6523 -1.3872 -1.0957
 2812TIP3   OH229994   1.007   4.657   7.695  0.1429  0.7018 -0.1022
 2812TIP3    H129995   1.078   4.721   7.689  0.1383  0.7174  0.0081
 2812TIP3    H229996   0.986   4.654   7.788  1.5217 -0.9550  0.2178
 2813TIP3   OH229997   1.627   2.446   8.396 -0.3666 -0.0410  0.2352
 2813TIP3    H129998   1.686   2.464   8.469 -0.8590  1.8278  0.2380
 2813TIP3    H229999   1.539   2.455   8.434 -0.6439 -0.6136 -0.2562
 2814TIP3   OH230000   4.396   0.420   6.269 -0.0315  0.2578 -0.4285
 2814TIP3    H130001   4.356   0.354   6.325 -0.2681  0.6753 -0.1067
 2814TIP3    H230002   4.326   0.447   6.209 -0.4700  1.5399  0.6262
 2815TIP3   OH230003   2.960   0.187   0.841 -0.0594  0.1720  0.7240
 2815TIP3    H130004   2.985   0.101   0.807 -1.2116 -0.0250  0.3467
 2815TIP3    H230005   2.914   0.168   0.923  1.2243  0.5507  1.5723
 2816TIP3   OH230006   6.277   6.281   0.677  0.0025  0.4123  0.0041
 2816TIP3    H130007   6.193   6.242   0.702 -0.5693  0.5434 -1.6097
 2816TIP3    H230008   6.342   6.227   0.720 -0.8956  1.1217  2.4426
 2817TIP3   OH230009   4.092   4.020   0.242 -0.4689 -0.3855 -0.2478
 2817TIP3    H130010   4.046   4.099   0.271 -2.7167 -1.2148 -1.2677
 2817TIP3    H230011   4.135   3.987   0.321 -1.3544  0.6627  0.7148
 2818TIP3   OH230012   4.581   6.564   7.536 -0.2876 -0.1190  0.0939
 2818TIP3    H130013   4.669   6.550   7.571 -0.0891 -0.5804 -0.5548
 2818TIP3    H230014   4.575   6.503   7.463  0.1669  2.3718 -2.1688
 2819TIP3   OH230015   3.761   1.201   7.951 -1.0701  0.2190 -0.0539
 2819TIP3    H130016   3.856   1.205   7.964 -0.8826  2.4722 -1.5527
 2819TIP3    H230017   3.725   1.229   8.035 -0.4634 -0.9521  0.6323
 2820TIP3   OH230018   6.862   4.400   1.807  0.0315 -0.1372 -0.0080
 2820TIP3    H130019   6.814   4.370   1.885  0.7044 -0.1122  0.4193
 2820TIP3    H230020   6.919   4.327   1.784 -0.4820 -0.3220 -0.7601
 2821TIP3   OH230021   6.738   1.093   7.220  0.1552  0.6380  0.2726
 2821TIP3    H130022   6.677   1.031   7.181  0.4163  1.1629 -1.0112
 2821TIP3    H230023   6.749   1.062   7.310  0.3661 -1.2298 -0.3502
 2822TIP3   OH230024   0.744   3.240   8.275 -0.2149  0.5432  0.2956
 2822TIP3    H130025   0.691   3.167   8.306  1.1409 -0.5983  0.0358
 2822TIP3    H230026   0.727   3.311   8.337 -1.3777 -0.0702  0.6947
 2823TIP3   OH230027   3.030   4.084   2.492  0.4665 -0.3370  0.1158
 2823TIP3    H130028   3.070   4.160   2.532 -0.7541 -0.5619  1.8706
 2823TIP3    H230029   3.053   4.011   2.549 -1.1354 -0.7135  0.3386
 2824TIP3   OH230030   6.823   4.403   1.415  0.4567 -0.0654  0.2655
 2824TIP3    H130031   6.743   4.446   1.387  1.1819  0.6854 -0.7098
 2824TIP3    H230032   6.856   4.358   1.337  1.8286  1.0056  0.1781
 2825TIP3   OH230033   0.325   6.273   7.296  0.1331 -0.4449  0.1299
 2825TIP3    H130034   0.278   6.308   7.221  0.0701  0.0816  0.4086
 2825TIP3    H230035   0.258   6.230   7.349  0.3326 -1.7238 -0.6117
 2826TIP3   OH230036   5.871   3.149   7.647 -0.2437  0.0079  0.3712
 2826TIP3    H130037   5.791   3.097   7.650 -0.8215  0.9227  2.1052
 2826TIP3    H230038   5.939   3.087   7.618 -1.3258 -1.0986  0.1186
 2827TIP3   OH230039   0.335   6.852   0.833  0.4966  0.5222 -0.1391
 2827TIP3    H130040   0.403   6.811   0.886  1.3532 -0.4007 -1.8399
 2827TIP3    H230041   0.284   6.779   0.799  0.2844  1.0434 -0.9768
 2828TIP3   OH230042   3.833   4.897   8.053 -0.2461  0.5647  0.0063
 2828TIP3    H130043   3.916   4.852   8.072 -0.9471 -1.2810 -1.0181
 2828TIP3    H230044   3.816   4.878   7.961 -1.2147  1.9434 -0.1194
 2829TIP3   OH230045   4.010   0.165   0.325  0.1317  0.0827  0.3827
 2829TIP3    H130046   4.041   0.255   0.335 -0.0819  0.0843  1.0359
 2829TIP3    H230047   3.916   0.170   0.343  0.3411 -0.4919  1.6930
 2830TIP3   OH230048   4.370   0.907   6.108  0.3049 -0.1649 -0.0253
 2830TIP3    H130049   4.375   0.859   6.025  0.1447  0.5032 -0.4231
 2830TIP3    H230050   4.418   0.851   6.170 -1.3637 -1.7190 -0.0507
 2831TIP3   OH230051   0.772   1.173   0.073  0.5036 -0.6642 -0.0966
 2831TIP3    H130052   0.727   1.089   0.081 -0.7154 -0.0176  0.2119
 2831TIP3    H230053   0.708   1.229   0.028  1.1548  0.1867  0.0180
 2832TIP3   OH230054   2.070   5.160   0.953 -0.4982  0.0570  0.1476
 2832TIP3    H130055   2.071   5.240   0.900  2.4988  0.8884  1.2664
 2832TIP3    H230056   2.124   5.098   0.904 -0.3632 -0.2623  0.6905
 2833TIP3   OH230057   0.632   6.032   0.133  0.1711 -0.7824 -0.1425
 2833TIP3    H130058   0.690   6.106   0.150 -2.3893  1.1015  1.1038
 2833TIP3    H230059   0.633   5.981   0.213  1.7329 -2.0140 -0.9088
 2834TIP3   OH230060   3.945   1.809   1.882  0.2377 -0.5052 -0.7723
 2834TIP3    H130061   4.014   1.854   1.930  0.5716 -0.3599 -1.3874
 2834TIP3    H230062   3.948   1.846   1.794 -1.8958  0.9261 -0.3156
 2835TIP3   OH230063   2.426   3.069   6.649 -0.3858  0.8814 -0.2538
 2835TIP3    H130064   2.432   2.978   6.620  0.0018  0.8637 -0.1239
 2835TIP3    H230065   2.517   3.099   6.654 -0.1850  0.0674  3.4578
 2836TIP3   OH230066   5.868   5.146   7.854  0.0020  0.4447 -0.4187
 2836TIP3    H130067   5.882   5.125   7.761 -1.4041  0.9618 -0.7751
 2836TIP3    H230068   5.942   5.201   7.878  0.7394 -0.2481 -1.0365
 2837TIP3   OH230069   6.538   1.284   8.046 -0.2497  0.1503  0.0408
 2837TIP3    H130070   6.456   1.325   8.073 -0.9855 -0.7631 -0.7358
 2837TIP3    H230071   6.571   1.340   7.976 -0.8733 -0.1745 -0.5209
 2838TIP3   OH230072   5.849   3.978   1.292 -0.8534 -0.3951 -0.4222
 2838TIP3    H130073   5.862   4.001   1.384 -0.2637 -1.1012 -0.3188
 2838TIP3    H230074   5.756   3.954   1.286 -0.7324 -1.0222  0.1464
 2839TIP3   OH230075   3.473   6.315   7.119 -0.5102  0.2768  0.5804
 2839TIP3    H130076   3.390   6.323   7.167 -0.4221 -0.4728  0.8799
 2839TIP3    H230077   3.510   6.403   7.120 -0.3974  0.2387  2.0979
 2840TIP3   OH230078   6.343   2.761   7.614  0.4050  0.0126  0.2585
 2840TIP3    H130079   6.412   2.757   7.680  1.3610  0.8411 -0.6453
 2840TIP3    H230080   6.316   2.853   7.612 -1.9859 -0.5876  1.7980
 2841TIP3   OH230081   5.290   1.476   7.729  0.0653  0.4347 -0.2497
 2841TIP3    H130082   5.352   1.407   7.755  1.0300  1.0396 -0.8696
 2841TIP3    H230083   5.221   1.472   7.795  1.1217  0.1967  0.8847
 2842TIP3   OH230084   3.735   6.477   0.676  0.2596 -0.0104 -0.2261
 2842TIP3    H130085   3.640   6.481   0.685  0.1898  0.5623 -1.1147
 2842TIP3    H230086   3.758   6.558   0.630  1.3102  0.4230  0.9976
 2843TIP3   OH230087   2.373   0.618   0.944 -0.8930  0.0321  0.6448
 2843TIP3    H130088   2.442   0.670   0.985  0.0126 -0.8697  0.3075
 2843TIP3    H230089   2.408   0.529   0.942 -1.2480 -0.1090 -1.3013
 2844TIP3   OH230090   6.036   5.341   7.999  0.0764 -0.4193 -0.2645
 2844TIP3    H130091   6.004   5.391   7.923  0.0352 -0.0441 -0.0016
 2844TIP3    H230092   6.095   5.401   8.044  0.5282 -0.8334 -0.2986
 2845TIP3   OH230093   4.744   5.314   1.927 -0.1170  0.0369 -0.3624
 2845TIP3    H130094   4.761   5.407   1.912  1.8976 -0.2750 -0.2558
 2845TIP3    H230095   4.817   5.285   1.981 -0.6895 -1.6378 -0.4381
 2846TIP3   OH230096   0.555   1.124   2.124 -0.0762 -0.1043 -0.3868
 2846TIP3    H130097   0.608   1.173   2.060  2.6823 -0.9271  1.1339
 2846TIP3    H230098   0.554   1.034   2.090 -0.2041 -0.1646 -0.2206
 2847TIP3   OH230099   4.004   1.039   2.355  0.7066 -0.1101  0.0855
 2847TIP3    H130100   3.968   0.955   2.324 -0.1657  0.3029 -0.0511
 2847TIP3    H230101   4.095   1.039   2.324  0.3625 -0.4769 -0.9850
 2848TIP3   OH230102   1.641   6.395   0.184 -0.5412  0.1749  0.4537
 2848TIP3    H130103   1.658   6.332   0.114  0.0860 -1.3189  1.8743
 2848TIP3    H230104   1.686   6.475   0.156  1.2941 -0.9513 -0.0026
 2849TIP3   OH230105   0.160   0.959   7.615 -0.1658 -0.7495 -0.2522
 2849TIP3    H130106   0.167   0.898   7.689 -2.5280 -0.7524  0.0373
 2849TIP3    H230107   0.193   1.042   7.649  0.0653 -1.0900  0.3724
 2850TIP3   OH230108   5.989   5.263   0.252  0.6357 -0.3782 -0.0100
 2850TIP3    H130109   5.905   5.235   0.290  0.2550  2.0169  1.0742
 2850TIP3    H230110   6.027   5.182   0.218 -1.0514 -1.9326  1.5403
 2851TIP3   OH230111   2.211   6.880   8.297  0.5565 -0.6336  0.1982
 2851TIP3    H130112   2.203   6.842   8.384  0.9187  1.1950  1.0816
 2851TIP3    H230113   2.132   6.934   8.287  1.6287  1.0656  0.4345
 2852TIP3   OH230114   2.689   4.112   1.425 -0.1718 -0.0461  0.4406
 2852TIP3    H130115   2.715   4.093   1.335 -0.2472  0.4242  0.3155
 2852TIP3    H230116   2.655   4.202   1.421 -3.9415 -1.3191  0.1253
 2853TIP3   OH230117   0.485   5.247   0.504  0.3558 -0.5664 -0.9691
 2853TIP3    H130118   0.430   5.204   0.439  0.0713  0.2667 -1.2920
 2853TIP3    H230119   0.454   5.338   0.506 -0.1211 -0.7228  0.8293
 2854TIP3   OH230120   0.795   5.829   7.286 -0.5834 -0.9019 -0.4077
 2854TIP3    H130121   0.719   5.783   7.323 -0.5961 -2.8173 -2.6061
 2854TIP3    H230122   0.842   5.762   7.236  1.0176  0.8691 -1.4213
 2855TIP3   OH230123   1.581   6.219   7.251  0.4753  0.0777  0.0301
 2855TIP3    H130124   1.638   6.263   7.314  2.7492 -1.7367 -0.6327
 2855TIP3    H230125   1.542   6.146   7.299 -1.7492  1.5204  0.5880
 2856TIP3   OH230126   4.290   5.731   2.341 -0.0082 -0.1228 -0.0116
 2856TIP3    H130127   4.313   5.733   2.434  2.2971 -1.6456 -0.4608
 2856TIP3    H230128   4.211   5.677   2.336  0.4838 -0.9596  0.9702
 2857TIP3   OH230129   0.070   2.341   0.718 -0.2095 -0.0961 -0.0839
 2857TIP3    H130130   0.049   2.290   0.639 -0.1505  0.0651 -0.2047
 2857TIP3    H230131   0.039   2.287   0.790 -1.6962  0.4333 -0.2800
 2858TIP3   OH230132   0.157   6.292   1.454  0.4943 -0.5919  0.1451
 2858TIP3    H130133   0.190   6.357   1.391  1.3400 -1.5923 -0.4636
 2858TIP3    H230134   0.063   6.287   1.436  0.3049  0.8496  0.5739
 2859TIP3   OH230135   3.576   1.707   7.257 -0.5893 -0.1451  0.3852
 2859TIP3    H130136   3.662   1.729   7.294 -0.5460 -0.1104  0.2661
 2859TIP3    H230137   3.577   1.747   7.170 -0.4966 -0.6483  0.1517
 2860TIP3   OH230138   5.902   5.812   1.347  0.6052  0.2618 -0.6447
 2860TIP3    H130139   5.834   5.873   1.376  0.5716  0.1027 -0.3844
 2860TIP3    H230140   5.944   5.783   1.428  2.2687  1.8273 -0.8763
 2861TIP3   OH230141   0.750   4.815   8.565  0.3177 -0.1148 -0.4220
 2861TIP3    H130142   0.721   4.742   8.619  0.3134  1.0043  1.1500
 2861TIP3    H230143   0.758   4.889   8.626 -0.5844  1.4518 -2.0921
 2862TIP3   OH230144   6.242   0.372   8.105  0.1251 -0.4130  0.1716
 2862TIP3    H130145   6.271   0.308   8.170  0.1510 -1.3701 -0.7608
 2862TIP3    H230146   6.265   0.457   8.144  0.2451 -0.9621  1.3499
 2863TIP3   OH230147   0.121   5.399   2.049  0.5319  0.0108 -0.1087
 2863TIP3    H130148   0.071   5.467   2.004  0.4652 -0.2531 -0.4382
 2863TIP3    H230149   0.131   5.432   2.138 -0.9140 -0.2776  0.1940
 2864TIP3   OH230150   0.346   0.395   8.617 -0.3375  0.1564 -0.2420
 2864TIP3    H130151   0.346   0.304   8.645  0.4606  0.5563  1.1910
 2864TIP3    H230152   0.340   0.445   8.699 -0.5081  1.3955 -0.9811
 2865TIP3   OH230153   4.444   6.026   2.400 -0.1247  0.3569 -0.2214
 2865TIP3    H130154   4.364   6.067   2.367  0.4249  2.2184  0.6384
 2865TIP3    H230155   4.414   5.945   2.442 -2.1038  2.5890  3.0773
 2866TIP3   OH230156   3.389   0.251   0.971 -0.6793  0.1562 -0.2632
 2866TIP3    H130157   3.296   0.247   0.992 -1.1847  0.7963 -2.1464
 2866TIP3    H230158   3.430   0.289   1.049 -2.1008  0.6239  0.2869
 2867TIP3   OH230159   1.119   1.315   6.640  0.3800 -0.4134 -0.1912
 2867TIP3    H130160   1.052   1.363   6.591  0.4658 -0.4840 -0.3794
 2867TIP3    H230161   1.079   1.231   6.660  0.0144 -0.0507  0.6499
 2868TIP3   OH230162   1.184   3.927   0.231 -0.2878 -0.7712 -0.4461
 2868TIP3    H130163   1.272   3.903   0.260  0.5101 -0.5924 -2.5812
 2868TIP3    H230164   1.167   3.871   0.156 -1.0392  0.7555 -1.4785
 2869TIP3   OH230165   0.513   0.080   0.238 -0.0292 -0.1180  0.0265
 2869TIP3    H130166   0.557   0.060   0.320 -0.2697 -0.1859  0.1397
 2869TIP3    H230167   0.530   0.173   0.222 -2.0981  0.5754  1.4543
 2870TIP3   OH230168   3.500   5.481   6.796  0.3291 -0.2574 -0.9616
 2870TIP3    H130169   3.538   5.402   6.759 -0.3460 -1.0370 -0.0201
 2870TIP3    H230170   3.542   5.491   6.881 -1.5574 -1.1846  0.1400
 2871TIP3   OH230171   1.822   6.680   6.476  0.3109 -0.0267  0.9163
 2871TIP3    H130172   1.774   6.693   6.558 -1.3500 -0.9453  0.1359
 2871TIP3    H230173   1.909   6.715   6.494  0.2751 -0.9998  3.3555
 2872TIP3   OH230174   6.381   2.157   7.024  0.6902 -0.0886  0.2826
 2872TIP3    H130175   6.407   2.224   7.088  0.5374 -0.6538  0.9399
 2872TIP3    H230176   6.297   2.188   6.991  0.3715 -0.2084  0.9591
 2873TIP3   OH230177   1.475   2.902   7.157  0.2195 -0.1004  0.5720
 2873TIP3    H130178   1.474   2.812   7.122 -1.0213  0.0535  0.1448
 2873TIP3    H230179   1.488   2.957   7.080  1.3326  0.0804  0.8811
 2874TIP3   OH230180   6.768   5.902   1.576 -0.2355  0.2066  0.1029
 2874TIP3    H130181   6.829   5.881   1.505  0.7422  0.7719  0.7514
 2874TIP3    H230182   6.702   5.959   1.535  0.2186  0.3928 -0.3885
 2875TIP3   OH230183   6.578   4.536   0.610  0.3987 -0.5424 -0.8371
 2875TIP3    H130184   6.578   4.564   0.701 -1.2958 -3.0866  0.0491
 2875TIP3    H230185   6.643   4.592   0.568  0.3684  1.5378  1.6262
 2876TIP3   OH230186   5.210   4.741   0.122  0.2924 -0.2178 -0.1820
 2876TIP3    H130187   5.206   4.836   0.114 -1.5344 -0.1378  1.0635
 2876TIP3    H230188   5.279   4.726   0.187  0.3263  0.2816 -0.0990
 2877TIP3   OH230189   5.244   1.173   0.622 -0.5776 -0.6021  0.0551
 2877TIP3    H130190   5.334   1.170   0.656  0.1473  1.4741 -1.4329
 2877TIP3    H230191   5.250   1.129   0.537 -1.2650 -1.4754  0.4468
 2878TIP3   OH230192   3.195   1.753   1.652  0.2288  0.0694  0.5838
 2878TIP3    H130193   3.247   1.833   1.653  0.8130 -0.2637 -0.6550
 2878TIP3    H230194   3.142   1.757   1.731 -0.5976  2.2231 -0.0118
 2879TIP3   OH230195   2.950   0.923   2.340 -0.1331 -0.8179 -0.1627
 2879TIP3    H130196   2.959   1.008   2.383  1.1776 -0.5321 -0.9515
 2879TIP3    H230197   3.035   0.907   2.300 -1.3660 -0.8999 -2.9820
 2880TIP3   OH230198   0.641   5.680   6.910 -0.0766 -0.2779  0.4528
 2880TIP3    H130199   0.680   5.627   6.980  1.2141 -0.6706 -0.5277
 2880TIP3    H230200   0.658   5.630   6.830 -0.9667  0.4757 -0.2246
 2881TIP3   OH230201   0.348   5.324   7.546 -0.5827 -0.4662 -0.0472
 2881TIP3    H130202   0.408   5.319   7.620 -0.5658 -1.9668 -0.1284
 2881TIP3    H230203   0.268   5.281   7.577 -0.9715 -0.1078 -0.5317
 2882TIP3   OH230204   5.212   5.664   0.388 -0.0724  0.4338 -0.1005
 2882TIP3    H130205   5.173   5.620   0.464 -0.6378 -0.0498 -0.6588
 2882TIP3    H230206   5.177   5.753   0.391 -1.0141  0.0877 -0.4308
 2883TIP3   OH230207   4.393   0.305   0.558 -0.3633  0.3100  0.0278
 2883TIP3    H130208   4.375   0.333   0.468 -0.7434 -0.6911 -0.2220
 2883TIP3    H230209   4.468   0.246   0.551  0.3260  1.1050  0.5266
 2884TIP3   OH230210   1.392   5.025   2.324 -0.1119 -0.0003  0.2168
 2884TIP3    H130211   1.420   5.105   2.368 -2.1013 -0.5202  2.7169
 2884TIP3    H230212   1.298   5.035   2.314 -0.2327 -1.5572 -0.4954
 2885TIP3   OH230213   0.337   2.211   6.834 -0.1368 -0.0153  0.7341
 2885TIP3    H130214   0.282   2.282   6.801  1.4824  0.6718 -0.6115
 2885TIP3    H230215   0.426   2.243   6.825  0.6832 -2.3090 -0.1567
 2886TIP3   OH230216   5.543   1.601   0.736  0.1009  0.0217  0.4487
 2886TIP3    H130217   5.595   1.640   0.806  0.1774 -0.6976  0.7949
 2886TIP3    H230218   5.605   1.545   0.689  0.5759  1.9858 -1.4328
 2887TIP3   OH230219   3.185   2.567   7.985 -0.4734 -0.3080 -0.6814
 2887TIP3    H130220   3.221   2.479   7.992 -0.6510 -0.2631  1.9185
 2887TIP3    H230221   3.091   2.553   7.969 -0.3780 -0.5820 -1.0052
 2888TIP3   OH230222   4.052   6.485   1.006  0.1067 -0.1829  0.2652
 2888TIP3    H130223   4.082   6.395   0.992 -3.0924 -1.1303 -1.3589
 2888TIP3    H230224   4.090   6.534   0.932  1.7261 -0.1347  1.0694
 2889TIP3   OH230225   0.501   3.279   6.662  0.6098  0.5189 -0.5013
 2889TIP3    H130226   0.579   3.225   6.648  0.5574  0.3862 -0.2921
 2889TIP3    H230227   0.481   3.316   6.576 -0.8489 -1.8146 -1.2492
 2890TIP3   OH230228   1.830   0.295   0.690  0.1674 -0.0247 -0.1165
 2890TIP3    H130229   1.833   0.289   0.786  1.5797  3.1597  0.1636
 2890TIP3    H230230   1.896   0.233   0.660 -1.3797 -2.2220  0.8082
 2891TIP3   OH230231   3.413   4.582   2.095 -0.1884 -0.2994  0.3233
 2891TIP3    H130232   3.481   4.517   2.113  0.5646  0.9549  2.3430
 2891TIP3    H230233   3.369   4.595   2.179 -2.3872 -0.4058 -0.7247
 2892TIP3   OH230234   4.813   6.365   8.407 -0.0817 -0.3777 -0.4520
 2892TIP3    H130235   4.861   6.405   8.479 -0.6382 -1.1134  0.3534
 2892TIP3    H230236   4.744   6.427   8.386  1.0811  0.6208 -1.5182
 2893TIP3   OH230237   5.368   1.384   7.492 -0.6402  0.0648  0.9144
 2893TIP3    H130238   5.336   1.396   7.582  2.8872  2.4913  2.0738
 2893TIP3    H230239   5.439   1.321   7.501 -0.6500 -0.1229 -0.2982
 2894TIP3   OH230240   3.032   4.450   1.201 -0.4282  0.0368 -0.3094
 2894TIP3    H130241   3.102   4.506   1.235  0.2921 -1.5528  0.9567
 2894TIP3    H230242   3.065   4.361   1.213 -2.1063 -0.7104 -0.9962
 2895TIP3   OH230243   6.208   2.446   7.040 -0.3108 -0.5148  0.4269
 2895TIP3    H130244   6.282   2.500   7.010 -1.0270 -0.4948 -1.4518
 2895TIP3    H230245   6.223   2.435   7.134  1.6177  0.1910  0.2500
 2896TIP3   OH230246   3.149   4.296   8.229  0.1461  0.3068  0.1348
 2896TIP3    H130247   3.244   4.308   8.232  0.4798 -1.9329  0.9184
 2896TIP3    H230248   3.130   4.242   8.306 -1.6578  0.0924 -0.4169
 2897TIP3   OH230249   6.336   0.022   8.385 -0.5713 -0.4684 -0.7822
 2897TIP3    H130250   6.420  -0.024   8.394 -0.9789 -0.8620  1.5954
 2897TIP3    H230251   6.358   0.114   8.402 -0.5694 -0.5028 -0.6058
 2898TIP3   OH230252   0.697   3.674   8.050 -0.2035  0.2904  0.5736
 2898TIP3    H130253   0.733   3.592   8.017  1.5890  0.8144  1.1131
 2898TIP3    H230254   0.681   3.658   8.143  0.9643  0.7783  0.8771
 2899TIP3   OH230255   2.472   5.115   2.401 -0.5092 -0.0597 -0.2330
 2899TIP3    H130256   2.449   5.069   2.483  3.0480 -0.7964  0.5119
 2899TIP3    H230257   2.430   5.063   2.333 -0.6901 -1.5255  0.9309
 2900TIP3   OH230258   3.053   2.041   0.015 -0.0069  0.1847  0.2892
 2900TIP3    H130259   2.975   2.077  -0.028  1.2890  1.6822 -0.9022
 2900TIP3    H230260   3.036   1.947   0.019 -1.3142  0.3145 -1.1549
 2901TIP3   OH230261   5.346   5.549   7.766  0.5458 -0.2391 -0.2108
 2901TIP3    H130262   5.259   5.581   7.740  0.7740  0.7442  0.1951
 2901TIP3    H230263   5.334   5.455   7.775  0.0860 -0.4432 -2.3582
 2902TIP3   OH230264   0.833   4.514   6.357  0.1131 -0.4763  0.8241
 2902TIP3    H130265   0.890   4.515   6.280  0.7667 -0.6362  1.2962
 2902TIP3    H230266   0.861   4.589   6.409 -1.0099  0.2456  0.4344
 2903TIP3   OH230267   0.303   5.624   7.405  0.4085  0.3832 -0.1336
 2903TIP3    H130268   0.322   5.537   7.441 -0.5694  1.2355  2.6837
 2903TIP3    H230269   0.388   5.656   7.376  1.3510 -0.3877  1.5694
 2904TIP3   OH230270   3.761   2.092   1.924  0.7074  0.4349 -0.2715
 2904TIP3    H130271   3.813   2.138   1.990  0.9270  2.7820 -1.9893
 2904TIP3    H230272   3.826   2.046   1.871  0.5219 -1.5738  1.0977
 2905TIP3   OH230273   1.772   1.150   0.770 -0.2693  0.7318 -0.3887
 2905TIP3    H130274   1.865   1.168   0.759 -0.1095  1.1914  1.4400
 2905TIP3    H230275   1.740   1.136   0.681  1.5269  0.5891 -1.0574
 2906TIP3   OH230276   3.539   5.227   7.857 -0.2833  0.0874  0.5452
 2906TIP3    H130277   3.548   5.233   7.762 -0.0749  0.0193  0.5590
 2906TIP3    H230278   3.629   5.233   7.889 -0.1764 -1.6974  0.6449
 2907TIP3   OH230279   4.066   2.129   1.807 -0.2058 -0.5202 -1.0365
 2907TIP3    H130280   4.051   2.219   1.838 -1.7287 -0.8316 -0.8171
 2907TIP3    H230281   4.102   2.083   1.883 -0.4737 -0.3711 -0.8189
 2908TIP3   OH230282   4.809   0.686   1.154 -0.1192 -0.3778  0.1684
 2908TIP3    H130283   4.784   0.776   1.134 -2.3170 -0.6075  1.5613
 2908TIP3    H230284   4.748   0.633   1.102  1.7010 -1.1427 -1.2998
 2909TIP3   OH230285   1.434   5.347   8.515 -0.3055  0.2051 -0.2754
 2909TIP3    H130286   1.420   5.252   8.517  0.2905  0.0934 -0.9488
 2909TIP3    H230287   1.462   5.369   8.604 -2.7992  0.1557  0.5975
 2910TIP3   OH230288   4.444   6.683   7.204  0.0352  0.2582  0.0175
 2910TIP3    H130289   4.501   6.635   7.144 -0.5887 -0.7445  0.2034
 2910TIP3    H230290   4.410   6.756   7.153  1.2978  0.7448 -0.1626
 2911TIP3   OH230291   5.034   0.588   8.157  0.2498  0.3508  0.1011
 2911TIP3    H130292   5.064   0.518   8.099  0.0947 -0.6936  1.2462
 2911TIP3    H230293   4.939   0.578   8.157  0.2529  0.3329  0.5486
 2912TIP3   OH230294   5.304   3.831   6.590  0.0527 -0.4061 -0.2080
 2912TIP3    H130295   5.264   3.909   6.551  0.7302  0.2982  0.4508
 2912TIP3    H230296   5.251   3.813   6.668 -1.3926 -1.9023 -1.4696
 2913TIP3   OH230297   6.031   1.248   8.504  0.1449  0.5702 -0.3762
 2913TIP3    H130298   5.974   1.241   8.427 -2.4223 -0.4913  1.4833
 2913TIP3    H230299   6.031   1.341   8.526  0.5572  0.8215 -1.3624
 2914TIP3   OH230300   1.777   1.905   1.451 -0.2831 -0.3307  0.4098
 2914TIP3    H130301   1.737   1.819   1.439  0.6179 -1.1053  2.4768
 2914TIP3    H230302   1.723   1.964   1.399 -2.5602 -1.7156  1.0768
 2915TIP3   OH230303   0.483   3.193   1.193  0.4896  0.0132  0.2669
 2915TIP3    H130304   0.442   3.271   1.155  0.0908 -1.0089 -1.5018
 2915TIP3    H230305   0.555   3.228   1.246 -1.1375  1.7094  1.5181
 2916TIP3   OH230306   6.258   4.512   7.462  0.4677 -0.0152  0.1242
 2916TIP3    H130307   6.309   4.431   7.466  0.4027 -0.0035  2.0593
 2916TIP3    H230308   6.176   4.491   7.507  0.6325  1.2387  1.0489
 2917TIP3   OH230309   1.747   5.865   2.170 -0.6655 -0.2968  0.0640
 2917TIP3    H130310   1.796   5.844   2.090 -0.5354 -0.9027  0.2939
 2917TIP3    H230311   1.807   5.918   2.222 -1.2278  1.2390 -0.8061
 2918TIP3   OH230312   4.528   2.265   7.217  0.0635 -0.3481  0.1311
 2918TIP3    H130313   4.578   2.343   7.242 -2.1065  1.4530 -0.8436
 2918TIP3    H230314   4.587   2.216   7.160  1.3862  0.6873  0.5507
 2919TIP3   OH230315   4.174   5.177   8.554  0.3880  0.0103  0.3108
 2919TIP3    H130316   4.126   5.176   8.471 -0.5911 -0.8572  0.8697
 2919TIP3    H230317   4.223   5.094   8.554  1.5542  0.6659 -0.0339
 2920TIP3   OH230318   0.252   1.361   8.270 -0.2651  0.2559 -0.3299
 2920TIP3    H130319   0.271   1.335   8.361  0.0147  0.9815 -0.1723
 2920TIP3    H230320   0.308   1.438   8.255 -0.8125  0.5537 -0.8967
 2921TIP3   OH230321   5.039   0.566   1.068  0.3315 -0.2196  0.9479
 2921TIP3    H130322   5.096   0.615   1.127 -1.3386  1.7742  1.0391
 2921TIP3    H230323   4.952   0.604   1.082 -0.3857 -0.6410 -1.7683
 2922TIP3   OH230324   0.786   6.019   1.556 -0.0244  0.2111 -0.2311
 2922TIP3    H130325   0.743   5.979   1.631  0.5184  2.6573  1.5258
 2922TIP3    H230326   0.827   5.946   1.509 -2.7259 -1.7239  0.2128
 2923TIP3   OH230327   6.377   1.551   2.198  0.3988  0.0854 -0.0446
 2923TIP3    H130328   6.301   1.513   2.155  0.5813  1.7691 -2.0340
 2923TIP3    H230329   6.343   1.587   2.280 -0.5761 -0.7006 -0.0924
 2924TIP3   OH230330   4.374   5.444   8.514  0.4125 -0.1326 -0.0155
 2924TIP3    H130331   4.400   5.467   8.603 -0.4934  0.0057  0.2299
 2924TIP3    H230332   4.280   5.462   8.511 -0.2333 -2.9707 -0.0434
 2925TIP3   OH230333   3.114   4.176   1.278  0.4660  0.1737 -0.2362
 2925TIP3    H130334   3.159   4.216   1.353  0.1071  1.4540 -0.6680
 2925TIP3    H230335   3.185   4.138   1.226  0.8159  0.1455  0.2443
 2926TIP3   OH230336   1.471   3.616   1.985  0.1992  0.3208 -0.0073
 2926TIP3    H130337   1.453   3.568   2.066  0.1953 -0.5683 -0.5329
 2926TIP3    H230338   1.419   3.696   1.993 -0.0743  0.0773  0.7115
 2927TIP3   OH230339   1.032   2.206   8.517  0.5495  0.8185 -0.4756
 2927TIP3    H130340   0.944   2.245   8.515  1.4181  3.0669  1.3963
 2927TIP3    H230341   1.082   2.257   8.454  1.0711  1.0511  0.1213
 2928TIP3   OH230342   3.260   4.293   1.019 -0.9228 -0.8171  0.7650
 2928TIP3    H130343   3.265   4.268   0.926  1.6522  2.0964 -0.0526
 2928TIP3    H230344   3.300   4.219   1.065  1.7219 -0.6005 -0.9647
 2929TIP3   OH230345   0.894   5.629   7.125  0.3596 -0.1666  0.0595
 2929TIP3    H130346   0.957   5.589   7.065  0.2832 -0.6802  0.3144
 2929TIP3    H230347   0.848   5.554   7.164  1.4401  0.0678  1.8979
 2930TIP3   OH230348   5.265   2.711   0.223 -0.1406 -0.6495  0.4525
 2930TIP3    H130349   5.221   2.654   0.287  0.6946 -2.2880 -0.3747
 2930TIP3    H230350   5.348   2.734   0.264  1.1856 -3.1389 -0.6522
 2931TIP3   OH230351   2.447   2.065   0.574 -0.3315  0.3912 -0.0607
 2931TIP3    H130352   2.543   2.068   0.583 -0.1242 -2.8125  0.1645
 2931TIP3    H230353   2.415   2.065   0.664  0.0301 -4.6410  0.3791
 2932TIP3   OH230354   1.868   4.881   0.289 -0.1131 -0.1434 -0.1401
 2932TIP3    H130355   1.778   4.848   0.281 -0.2990  0.3848 -0.2197
 2932TIP3    H230356   1.890   4.914   0.202  0.2714 -0.5464 -0.2010
 2933TIP3   OH230357   1.430   0.333   7.080  0.3803 -0.3795 -0.0632
 2933TIP3    H130358   1.413   0.242   7.104  0.7495 -0.5571 -0.4692
 2933TIP3    H230359   1.524   0.336   7.062  0.2047 -0.1235 -0.9681
 2934TIP3   OH230360   3.688   0.409   8.144 -0.2085 -0.1789  0.7914
 2934TIP3    H130361   3.600   0.384   8.173 -0.0770 -1.8812 -0.1109
 2934TIP3    H230362   3.744   0.338   8.175  0.4459 -0.3489 -0.7026
 2935TIP3   OH230363   3.623   4.100   0.708 -0.1242  0.1200 -0.8337
 2935TIP3    H130364   3.558   4.117   0.640 -1.0408  1.6411  0.3428
 2935TIP3    H230365   3.684   4.173   0.702 -0.0743  0.1360 -0.1879
 2936TIP3   OH230366   0.667   3.396   1.667  0.1880  0.0388  0.0334
 2936TIP3    H130367   0.635   3.313   1.702  0.4453 -0.1104 -0.0858
 2936TIP3    H230368   0.647   3.460   1.736 -0.5204 -0.0198 -0.1096
 2937TIP3   OH230369   2.150   6.222   7.344  0.2765  0.1628  0.1603
 2937TIP3    H130370   2.108   6.138   7.360  0.0107 -0.0083 -1.3432
 2937TIP3    H230371   2.085   6.287   7.373 -1.1868 -0.0951 -2.2813
 2938TIP3   OH230372   3.653   3.491   7.435  0.7188  0.3321  0.5019
 2938TIP3    H130373   3.705   3.412   7.451 -1.4203 -1.2623 -0.0238
 2938TIP3    H230374   3.612   3.511   7.519  1.0307  0.7511  0.5624
 2939TIP3   OH230375   5.749   2.529   6.838 -0.2080  0.4525  0.1557
 2939TIP3    H130376   5.782   2.471   6.769  0.4566  1.3848 -0.3380
 2939TIP3    H230377   5.811   2.518   6.910  0.6714  1.4729 -0.4109
 2940TIP3   OH230378   4.541   2.942   0.146 -0.5097  0.4675 -0.3810
 2940TIP3    H130379   4.514   2.851   0.154 -0.3706  0.3251 -1.4092
 2940TIP3    H230380   4.541   2.960   0.052 -0.7907  1.6114 -0.1846
 2941TIP3   OH230381   5.072   0.150   7.830 -0.2138  0.4128 -0.4759
 2941TIP3    H130382   5.033   0.087   7.891 -0.8162 -0.4969 -1.7702
 2941TIP3    H230383   5.141   0.100   7.785 -1.8314  0.0722 -2.7644
 2942TIP3   OH230384   0.321   2.437   8.480  0.2277 -0.5431  0.3538
 2942TIP3    H130385   0.300   2.481   8.398  0.2588 -1.6219 -0.2561
 2942TIP3    H230386   0.409   2.401   8.466  0.2274 -0.7481  0.8525
 2943TIP3   OH230387   3.812   6.562   1.404 -0.0478  0.8046  0.3818
 2943TIP3    H130388   3.873   6.620   1.360  0.6074  1.0894  1.6124
 2943TIP3    H230389   3.828   6.576   1.498  1.4488 -2.6286  0.8166
 2944TIP3   OH230390   6.582   2.371   2.481  0.4300  0.0917  0.1556
 2944TIP3    H130391   6.556   2.351   2.571  1.1872 -0.2806  0.3014
 2944TIP3    H230392   6.661   2.318   2.467  1.0450  1.0994 -0.2994
 2945TIP3   OH230393   6.486   2.311   7.208  0.1650 -0.0165 -0.1291
 2945TIP3    H130394   6.429   2.317   7.285 -1.1818 -2.5789 -0.7872
 2945TIP3    H230395   6.569   2.277   7.242 -0.2253 -0.5622  0.3071
 2946TIP3   OH230396   6.891   3.290   0.530  0.2700 -0.2810 -0.2507
 2946TIP3    H130397   6.850   3.227   0.470 -2.0217  0.7680  0.0837
 2946TIP3    H230398   6.871   3.257   0.617 -0.8717  0.7883 -0.0712
 2947TIP3   OH230399   0.755   4.984   0.570 -0.5127 -0.0241 -0.0680
 2947TIP3    H130400   0.761   5.026   0.656  0.9192 -1.0871  0.3900
 2947TIP3    H230401   0.836   5.007   0.526 -1.0734  0.2048 -1.0082
 2948TIP3   OH230402   3.816   5.438   0.236 -0.8423 -0.1162 -0.6504
 2948TIP3    H130403   3.856   5.421   0.151 -1.0113 -1.2996 -0.5044
 2948TIP3    H230404   3.723   5.449   0.217 -0.7495  0.5535 -0.7298
 2949TIP3   OH230405   6.474   2.639   1.995 -0.3717 -1.2072 -0.2855
 2949TIP3    H130406   6.394   2.679   2.029 -0.8853 -0.1617 -2.5453
 2949TIP3    H230407   6.446   2.555   1.958 -0.1074 -1.5595  0.2797
 2950TIP3   OH230408   6.078   6.039   1.048 -0.7535 -0.3943 -0.1735
 2950TIP3    H130409   6.087   6.134   1.041 -1.3551 -0.2386  0.9276
 2950TIP3    H230410   6.168   6.006   1.049 -0.4506  0.3587  1.5444
 2951TIP3   OH230411   5.393   6.633   7.582 -0.4570  0.0397  0.1931
 2951TIP3    H130412   5.451   6.565   7.547 -0.4789 -1.1281  2.2500
 2951TIP3    H230413   5.452   6.693   7.627 -0.4548  1.3771 -1.5032
 2952TIP3   OH230414   6.764   6.391   6.774 -0.5429  0.2522 -0.1193
 2952TIP3    H130415   6.715   6.472   6.788  0.2537  0.4609  1.8639
 2952TIP3    H230416   6.855   6.419   6.764 -0.5272 -0.2750 -1.6023
 2953TIP3   OH230417   2.141   2.684   0.510 -0.4151 -0.1969 -0.1699
 2953TIP3    H130418   2.166   2.636   0.431  0.9869  0.2981 -0.0583
 2953TIP3    H230419   2.054   2.651   0.532  0.4669 -2.7056 -0.0984
 2954TIP3   OH230420   6.880   3.579   0.603 -0.9821 -0.0505  1.0310
 2954TIP3    H130421   6.867   3.615   0.515 -0.1924 -0.5197  0.7065
 2954TIP3    H230422   6.898   3.486   0.589 -0.0705  0.0198  1.6152
 2955TIP3   OH230423   2.263   6.286   8.268  0.7032  0.7893  0.0825
 2955TIP3    H130424   2.311   6.277   8.351  0.2849  1.7836  0.4379
 2955TIP3    H230425   2.209   6.364   8.279 -0.0366  0.4215 -0.8001
 2956TIP3   OH230426   1.143   5.941   6.518 -0.1027  0.5114 -0.0816
 2956TIP3    H130427   1.224   5.905   6.483  0.6721  0.7401  1.4069
 2956TIP3    H230428   1.172   6.002   6.586 -1.5136  0.9873  0.1151
 2957TIP3   OH230429   0.322   0.590   0.256  0.1302 -0.4813 -0.5397
 2957TIP3    H130430   0.358   0.561   0.340 -0.3396 -0.5382 -0.3550
 2957TIP3    H230431   0.299   0.681   0.269 -0.7500 -0.7274 -0.3341
 2958TIP3   OH230432   5.046   1.398   7.900 -0.0030 -0.0039  0.4274
 2958TIP3    H130433   5.009   1.405   7.987 -0.7782  0.6424  0.0578
 2958TIP3    H230434   4.984   1.444   7.843  1.0588  0.5938 -0.2914
 2959TIP3   OH230435   5.460   5.783   7.662  0.2072 -0.4462 -0.2193
 2959TIP3    H130436   5.554   5.800   7.667  0.6268 -2.5936 -0.0741
 2959TIP3    H230437   5.439   5.736   7.743 -0.9707 -0.1923 -0.3470
 2960TIP3   OH230438   3.721   5.975   7.334 -0.2903 -0.4929  0.0675
 2960TIP3    H130439   3.694   6.061   7.366 -1.3808 -1.2461  1.2885
 2960TIP3    H230440   3.811   5.965   7.365  0.4507  0.8517 -1.5153
 2961TIP3   OH230441   0.365   0.940   1.516  0.2717 -0.3735 -0.1676
 2961TIP3    H130442   0.327   1.022   1.547  0.5326  0.9331 -2.9715
 2961TIP3    H230443   0.460   0.951   1.528  0.2722 -0.4707 -0.0808
 2962TIP3   OH230444   5.033   4.656   6.852  0.1647  0.7700 -0.1856
 2962TIP3    H130445   5.021   4.562   6.838  1.4872  0.7276 -1.3090
 2962TIP3    H230446   4.962   4.697   6.803 -0.4450  0.3515  0.3441
 2963TIP3   OH230447   5.988   4.324   7.341 -0.0465 -0.6661 -0.2052
 2963TIP3    H130448   5.946   4.378   7.274 -1.6061  0.2805  1.4362
 2963TIP3    H230449   6.075   4.304   7.305 -0.8125 -0.2178 -2.4709
 2964TIP3   OH230450   2.647   0.939   8.238  0.0228  0.0291  0.7665
 2964TIP3    H130451   2.557   0.949   8.270  0.6182  2.2578  1.9336
 2964TIP3    H230452   2.699   0.928   8.317  0.7990 -1.7040  0.0786
 2965TIP3   OH230453   4.988   0.588   8.438  0.2594  0.1200  0.1094
 2965TIP3    H130454   4.993   0.495   8.462  1.4851 -0.5151 -2.2914
 2965TIP3    H230455   4.999   0.589   8.343 -2.7981  2.5332 -0.3824
 2966TIP3   OH230456   4.664   2.818   8.319 -0.3033  0.8827  0.0472
 2966TIP3    H130457   4.744   2.813   8.266 -0.0471  1.2665  0.3896
 2966TIP3    H230458   4.663   2.736   8.368  0.0163  0.9845  0.2288
 2967TIP3   OH230459   2.192   3.587   1.025  0.4327 -0.2468 -0.2631
 2967TIP3    H130460   2.194   3.578   1.120  0.3076 -1.0868 -0.3319
 2967TIP3    H230461   2.100   3.571   1.001  0.5862 -0.6698 -0.5778
 2968TIP3   OH230462   0.017   3.009   7.429  0.2294 -0.1015 -0.2554
 2968TIP3    H130463   0.037   3.068   7.503 -0.5810  0.1825 -0.2485
 2968TIP3    H230464  -0.020   3.066   7.362 -1.2418 -0.6775  0.0173
 2969TIP3   OH230465   3.487   0.997   8.370 -0.3433 -0.2550 -0.1055
 2969TIP3    H130466   3.560   0.968   8.314 -0.0467  0.4453 -0.0868
 2969TIP3    H230467   3.409   0.962   8.327 -0.2411  1.3035 -1.6660
 2970TIP3   OH230468   6.016   4.351   6.976  0.2484 -0.4653  0.1640
 2970TIP3    H130469   5.991   4.289   6.908  0.3641  1.4379 -1.7463
 2970TIP3    H230470   6.110   4.340   6.986  0.4987  0.2426 -1.1454
 2971TIP3   OH230471   6.166   5.707   1.219  0.0566  0.2601  0.2266
 2971TIP3    H130472   6.192   5.677   1.132  0.8018  1.7943 -0.1233
 2971TIP3    H230473   6.082   5.752   1.205  0.3765  0.8680  0.2053
 2972TIP3   OH230474   5.851   6.740   6.495 -0.2372  0.3255 -0.0263
 2972TIP3    H130475   5.775   6.683   6.501 -1.9022  2.1026 -2.3476
 2972TIP3    H230476   5.831   6.814   6.551 -0.6472  1.1839 -1.2632
 2973TIP3   OH230477   3.987   3.056   1.212  0.1114 -0.2440  0.2712
 2973TIP3    H130478   4.042   3.110   1.269 -1.3571  0.5935  0.9577
 2973TIP3    H230479   3.979   3.106   1.131  1.6138 -1.1065 -0.4562
 2974TIP3   OH230480   0.080   6.234   7.623  0.4700  0.1124 -0.0353
 2974TIP3    H130481   0.129   6.170   7.570  1.2132  0.6697 -0.0532
 2974TIP3    H230482   0.036   6.289   7.558 -1.1606 -1.1061  0.0014
 2975TIP3   OH230483   4.307   3.126   7.309  0.5987  0.1110  0.2049
 2975TIP3    H130484   4.374   3.142   7.242 -0.8041 -0.9564 -1.5426
 2975TIP3    H230485   4.297   3.031   7.312 -0.4338  0.2201  0.8235
 2976TIP3   OH230486   1.157   4.749   6.854 -0.4563  0.0622 -0.0873
 2976TIP3    H130487   1.089   4.787   6.799  0.6533  0.0429 -1.5460
 2976TIP3    H230488   1.218   4.821   6.870 -0.4530 -0.0905  0.6080
 2977TIP3   OH230489   6.727   2.200   7.274  0.7700 -0.2376  0.0643
 2977TIP3    H130490   6.794   2.240   7.328  1.1678 -0.5977 -0.1491
 2977TIP3    H230491   6.758   2.110   7.261 -0.2281 -0.7009  0.7566
 2978TIP3   OH230492   4.024   1.196   7.736 -0.2255 -0.7054 -0.4541
 2978TIP3    H130493   4.042   1.243   7.817  3.2430  0.0581 -1.5137
 2978TIP3    H230494   4.005   1.106   7.764  3.0848 -1.0241  1.1968
 2979TIP3   OH230495   0.902   4.256   1.242 -0.2885  0.4510  0.4319
 2979TIP3    H130496   0.953   4.303   1.308  1.9885 -1.4962  0.1750
 2979TIP3    H230497   0.912   4.307   1.162 -0.0068  0.8846  0.7436
 2980TIP3   OH230498   4.879   5.707   0.317 -0.5472  0.2396 -0.8531
 2980TIP3    H130499   4.894   5.708   0.223  0.5171 -0.4994 -0.7093
 2980TIP3    H230500   4.806   5.645   0.329  0.9766 -1.6889 -1.0169
 2981TIP3   OH230501   0.132   2.981   0.771  0.6296  0.0359  0.7185
 2981TIP3    H130502   0.075   2.911   0.739 -1.3849  2.3657 -1.1709
 2981TIP3    H230503   0.205   2.984   0.709 -0.6759  1.2616 -0.8448
 2982TIP3   OH230504   2.546   1.723   2.348 -0.2887  0.2941  0.0327
 2982TIP3    H130505   2.484   1.686   2.285  0.6942  1.2995 -1.6116
 2982TIP3    H230506   2.515   1.812   2.362  0.5533  0.7004 -0.5547
 2983TIP3   OH230507   4.438   0.568   7.791  0.0373 -0.4068  0.8418
 2983TIP3    H130508   4.494   0.522   7.728 -0.1699 -0.5563  0.7631
 2983TIP3    H230509   4.495   0.634   7.831 -0.6546  2.2519 -2.1276
 2984TIP3   OH230510   1.450   5.140   1.024  0.3066  0.0157  0.5144
 2984TIP3    H130511   1.382   5.083   1.060  0.0452 -0.1073 -0.1617
 2984TIP3    H230512   1.420   5.160   0.936  0.8380  0.4807  0.4356
 2985TIP3   OH230513   4.767   2.619   1.716 -0.1016  0.0055  0.1726
 2985TIP3    H130514   4.826   2.676   1.667 -0.3954 -0.6898 -1.0572
 2985TIP3    H230515   4.680   2.644   1.687 -0.2992 -0.2624  0.5286
 2986TIP3   OH230516   5.335   0.974   1.309  0.4713  0.1209 -0.3512
 2986TIP3    H130517   5.416   0.929   1.331 -0.4799 -2.0480 -1.0034
 2986TIP3    H230518   5.307   1.017   1.390  1.7527  0.0850  0.1211
 2987TIP3   OH230519   2.572   2.953   7.951  0.1560  0.6352  0.0069
 2987TIP3    H130520   2.665   2.972   7.962  0.1354  0.0708  1.3236
 2987TIP3    H230521   2.556   2.876   8.006 -1.0630  0.6145 -0.3289
 2988TIP3   OH230522   5.350   2.655   0.701 -0.1388 -0.0107  0.0703
 2988TIP3    H130523   5.395   2.702   0.772 -0.7872 -0.7847  1.0233
 2988TIP3    H230524   5.420   2.607   0.657  0.0239 -1.2285  1.5609
 2989TIP3   OH230525   5.993   0.562   7.990 -0.2755 -0.0987 -0.0889
 2989TIP3    H130526   6.076   0.603   7.968 -0.8670  1.4550  0.4156
 2989TIP3    H230527   5.938   0.574   7.912 -0.1305 -0.8898 -0.3252
 2990TIP3   OH230528   3.733   3.507   2.146  0.1026 -0.7017 -0.1169
 2990TIP3    H130529   3.731   3.417   2.178  0.4666 -1.1789 -1.3641
 2990TIP3    H230530   3.812   3.545   2.185 -0.6637 -0.5401  1.3295
 2991TIP3   OH230531   4.312   3.156   8.411 -0.5288 -0.3608 -0.4084
 2991TIP3    H130532   4.227   3.142   8.369 -0.8733  0.7223 -0.1008
 2991TIP3    H230533   4.365   3.199   8.343 -0.9841  1.0991  0.1346
 2992TIP3   OH230534   2.157   6.722   6.383  0.3067  0.3406 -0.6068
 2992TIP3    H130535   2.124   6.748   6.469 -2.1799 -0.9403 -1.0806
 2992TIP3    H230536   2.252   6.730   6.390  0.1670  0.4015  2.1917
 2993TIP3   OH230537   2.417   6.258   7.545  0.0124 -0.0531 -0.5899
 2993TIP3    H130538   2.502   6.261   7.500  0.3646  2.1034  0.0846
 2993TIP3    H230539   2.352   6.263   7.475  0.4678 -0.5622 -1.0532
 2994TIP3   OH230540   2.085   1.265   7.635 -0.2564  0.3453  0.7578
 2994TIP3    H130541   2.167   1.252   7.588 -0.5721 -0.3441  0.3683
 2994TIP3    H230542   2.103   1.234   7.724 -0.4258 -0.9700  0.3540
 2995TIP3   OH230543   3.816   5.173   2.567 -0.3214 -0.2381 -0.1049
 2995TIP3    H130544   3.735   5.202   2.609 -0.2694 -1.1544  0.6594
 2995TIP3    H230545   3.885   5.223   2.611 -0.3141 -0.8315  0.5912
 2996TIP3   OH230546   0.560   3.040   7.012  0.5325  0.4158 -0.0614
 2996TIP3    H130547   0.471   3.045   7.047 -0.1103  1.0685 -1.6965
 2996TIP3    H230548   0.551   2.995   6.928  1.6598  0.9108 -0.4715
 2997TIP3   OH230549   4.373   1.004   7.331  0.1695  0.1669 -0.1930
 2997TIP3    H130550   4.412   0.917   7.331  2.0143  0.9583 -0.5038
 2997TIP3    H230551   4.308   1.001   7.401 -0.7163 -1.8200 -1.0134
 2998TIP3   OH230552   0.178   6.071   7.429 -0.0898  0.0439  0.0357
 2998TIP3    H130553   0.123   6.025   7.366  0.6602  0.3828 -0.8824
 2998TIP3    H230554   0.232   6.002   7.469  1.4177  0.1318 -1.7243
 2999TIP3   OH230555   4.132   0.399   6.696 -0.3464 -0.3005  0.2156
 2999TIP3    H130556   4.046   0.373   6.730 -0.1512 -0.6843  0.4283
 2999TIP3    H230557   4.171   0.317   6.666  0.5354 -0.3639  1.4620
 3000TIP3   OH230558   2.663   1.354   6.400 -0.2572  0.2141 -0.0330
 3000TIP3    H130559   2.582   1.306   6.419  0.4409 -1.4491 -1.0578
 3000TIP3    H230560   2.727   1.316   6.460  0.3244 -0.1890 -0.8998
 3001TIP3   OH230561   5.739   4.142   1.929  0.9028 -0.5280  0.2535
 3001TIP3    H130562   5.805   4.210   1.943 -0.3921  1.1825 -1.4245
 3001TIP3    H230563   5.790   4.063   1.910  2.4509  0.0603  1.6726
 3002TIP3   OH230564   5.779   1.831   0.180  0.1827 -0.3302 -0.2734
 3002TIP3    H130565   5.792   1.820   0.086 -1.5743 -0.6799 -0.5109
 3002TIP3    H230566   5.867   1.823   0.218  0.8638 -0.5686 -1.8378
 3003TIP3   OH230567   3.323   6.497   0.508  0.4211  0.3684  0.2600
 3003TIP3    H130568   3.331   6.557   0.582  3.0994  0.6471 -0.1546
 3003TIP3    H230569   3.407   6.450   0.506  0.0436 -0.3355 -2.0029
 3004TIP3   OH230570   3.376   6.108   6.972  0.6332  0.0234  0.1621
 3004TIP3    H130571   3.418   6.142   7.051 -0.1266  2.3074 -0.3438
 3004TIP3    H230572   3.371   6.183   6.913  0.0528 -1.3211 -1.5880
 3005TIP3   OH230573   5.837   3.852   1.875  0.0968 -0.0021  0.2433
 3005TIP3    H130574   5.865   3.765   1.902 -0.5429 -0.2260  0.2058
 3005TIP3    H230575   5.918   3.903   1.870  0.3248 -0.1717  1.7467
 3006TIP3   OH230576   2.778   3.550   7.957 -0.5195  0.0646  0.2027
 3006TIP3    H130577   2.711   3.596   7.906 -0.8823  0.1772  0.7822
 3006TIP3    H230578   2.754   3.564   8.048 -1.2261 -2.0797  0.4176
 3007TIP3   OH230579   4.199   1.029   6.726  0.5791 -0.4643  0.9049
 3007TIP3    H130580   4.172   1.093   6.660  1.8667  1.8650  2.4857
 3007TIP3    H230581   4.118   1.004   6.769  0.0624  0.2388  0.3657
 3008TIP3   OH230582   1.930   1.723   7.125 -0.1611  0.1417  0.5604
 3008TIP3    H130583   1.943   1.769   7.042  0.6174  0.7278  0.9878
 3008TIP3    H230584   1.929   1.630   7.102  0.5890  0.2750 -0.0451
 3009TIP3   OH230585   0.708   5.425   8.598 -0.8214  0.3439 -0.1557
 3009TIP3    H130586   0.677   5.339   8.570  1.0208 -1.1269  1.9756
 3009TIP3    H230587   0.657   5.445   8.676  0.5948 -0.1514  0.9433
 3010TIP3   OH230588   3.614   2.732   7.760 -0.0482 -0.1719 -0.3364
 3010TIP3    H130589   3.520   2.712   7.757 -0.2269  0.7515 -1.7619
 3010TIP3    H230590   3.655   2.648   7.778 -1.1067 -0.7493 -0.5025
 3011TIP3   OH230591   2.962   1.070   1.032  0.4283  0.1223 -0.1170
 3011TIP3    H130592   3.014   1.149   1.015 -0.4652  0.5890 -0.7224
 3011TIP3    H230593   2.883   1.081   0.980 -0.6668 -0.2092  1.4371
 3012TIP3   OH230594   6.256   1.278   0.349  0.3818 -0.2644 -0.3040
 3012TIP3    H130595   6.160   1.274   0.339  0.1597 -1.2296  1.8634
 3012TIP3    H230596   6.270   1.344   0.417  1.2126 -0.7057 -0.0402
 3013TIP3   OH230597   4.155   6.612   2.031  0.1000  0.6476  0.5553
 3013TIP3    H130598   4.153   6.675   2.103  0.5351  1.4062 -0.0799
 3013TIP3    H230599   4.246   6.611   2.003 -0.1393  0.6715 -0.2401
 3014TIP3   OH230600   3.392   4.217   2.272  0.3457 -0.7471 -0.2222
 3014TIP3    H130601   3.381   4.238   2.365 -2.8700 -1.2213 -0.3809
 3014TIP3    H230602   3.450   4.286   2.239 -0.7947  1.2159  1.5701
 3015TIP3   OH230603   2.145   2.302   0.598  0.2222  0.6567  0.4103
 3015TIP3    H130604   2.088   2.374   0.624  0.8371  1.6582 -0.8903
 3015TIP3    H230605   2.171   2.323   0.508  0.0376 -1.4547 -0.1811
 3016TIP3   OH230606   4.890   3.896   6.940  0.5152  0.0754  0.9747
 3016TIP3    H130607   4.967   3.839   6.937 -0.7677 -1.8179  1.7399
 3016TIP3    H230608   4.892   3.934   7.028  0.3641 -0.3027  1.1441
 3017TIP3   OH230609   5.966   1.863   0.641 -0.3481 -0.1798  0.0044
 3017TIP3    H130610   5.906   1.816   0.583  0.0928 -0.2718 -0.3832
 3017TIP3    H230611   5.978   1.948   0.599  0.4737 -0.4772 -0.3941
 3018TIP3   OH230612   2.892   0.411   1.194  0.0215 -0.0080 -0.8322
 3018TIP3    H130613   2.811   0.365   1.217  0.1753 -0.2218 -0.7186
 3018TIP3    H230614   2.865   0.502   1.183  0.1041  0.2878  1.1189
 3019TIP3   OH230615   2.516   1.344   8.541 -0.1432  0.1594  0.0164
 3019TIP3    H130616   2.492   1.380   8.456 -0.9016 -0.8555 -0.2244
 3019TIP3    H230617   2.596   1.295   8.525 -0.0986  0.2487 -0.0362
 3020TIP3   OH230618   3.282   2.293   7.919 -0.4018 -0.0574  0.0430
 3020TIP3    H130619   3.321   2.307   7.832  1.5618  1.4631  1.0921
 3020TIP3    H230620   3.352   2.254   7.971 -0.4968  1.8589  1.7369
 3021TIP3   OH230621   2.043   6.410   0.532 -0.0694  0.3024  0.1759
 3021TIP3    H130622   1.955   6.440   0.557 -1.8345 -1.5891 -3.0295
 3021TIP3    H230623   2.040   6.315   0.542  1.1855  0.0925 -1.1244
 3022TIP3   OH230624   0.147   0.085   1.493  0.3629 -0.4397  0.5767
 3022TIP3    H130625   0.144   0.170   1.537  0.6842  0.4223 -0.9767
 3022TIP3    H230626   0.225   0.090   1.436 -0.7384 -0.9705 -1.0603
 3023TIP3   OH230627   4.681   2.523   7.934  0.4332 -0.2144  0.5596
 3023TIP3    H130628   4.676   2.618   7.922 -0.3361  0.0192  2.2995
 3023TIP3    H230629   4.768   2.508   7.971  1.1046 -0.3995 -1.0066
 3024TIP3   OH230630   5.446   5.586   0.688  0.1633 -0.2154  0.3641
 3024TIP3    H130631   5.539   5.607   0.700  0.2985 -0.9730  0.7157
 3024TIP3    H230632   5.445   5.527   0.612  0.2749 -2.2272  1.8638
 3025TIP3   OH230633   3.777   1.859   7.393  0.0684 -0.2241  0.1475
 3025TIP3    H130634   3.785   1.878   7.299 -1.7461  0.4182  0.0804
 3025TIP3    H230635   3.850   1.906   7.433 -0.1836  1.0163 -0.7822
 3026TIP3   OH230636   2.153   6.753   8.567 -0.0511 -0.5117 -0.3178
 3026TIP3    H130637   2.138   6.833   8.617  1.4595  1.6677 -3.0613
 3026TIP3    H230638   2.217   6.704   8.619  0.1174  0.7687  0.7373
 3027TIP3   OH230639   5.419   1.118   0.945  0.7306  0.2516  0.3741
 3027TIP3    H130640   5.464   1.035   0.931  0.0505 -0.1787  0.7198
 3027TIP3    H230641   5.441   1.171   0.868  1.3042 -0.1835  0.2403
 3028TIP3   OH230642   5.444   3.051   7.895 -0.0283 -0.0155  0.3948
 3028TIP3    H130643   5.485   2.988   7.836  0.4201  0.1674  0.5038
 3028TIP3    H230644   5.518   3.098   7.935 -0.3382  0.1274  0.8076
 3029TIP3   OH230645   1.410   2.080   7.560 -0.3292  0.0081  0.0572
 3029TIP3    H130646   1.485   2.092   7.618 -0.9388  1.2246  0.6425
 3029TIP3    H230647   1.385   2.169   7.535 -0.4374 -0.4713 -1.6441
 3030TIP3   OH230648   1.696   5.230   7.732  0.0504  0.0871 -0.3202
 3030TIP3    H130649   1.603   5.250   7.718  0.0214  0.0819 -0.1369
 3030TIP3    H230650   1.705   5.139   7.702 -0.2542 -0.3046  0.7434
 3031TIP3   OH230651   6.831   2.089   2.143  0.3807  0.5721  0.2204
 3031TIP3    H130652   6.887   2.032   2.090  0.1597  1.7236 -1.3534
 3031TIP3    H230653   6.884   2.168   2.157 -0.2710  1.0573  0.0149
 3032TIP3   OH230654   1.511   2.929   6.863 -0.1964 -0.6149 -0.4015
 3032TIP3    H130655   1.595   2.974   6.854 -1.0880  1.2408  0.1598
 3032TIP3    H230656   1.466   2.947   6.780 -2.0119  2.8306  1.1202
 3033TIP3   OH230657   3.975   2.329   0.051  0.1880  0.1114  0.1406
 3033TIP3    H130658   3.980   2.257   0.114  0.7769 -0.2661 -0.3217
 3033TIP3    H230659   3.965   2.285  -0.034 -0.0849  0.5978 -0.0817
 3034TIP3   OH230660   3.005   0.924   7.171  0.1552 -0.1628 -0.3751
 3034TIP3    H130661   3.098   0.902   7.170  0.5356  1.3678 -0.5710
 3034TIP3    H230662   3.003   1.019   7.166 -1.3906 -0.0961  0.8734
 3035TIP3   OH230663   4.502   3.443   0.234 -0.2218  0.4004 -0.4897
 3035TIP3    H130664   4.526   3.461   0.143  0.2619 -2.0955 -0.9197
 3035TIP3    H230665   4.460   3.357   0.232  0.2101  0.0744  1.6988
 3036TIP3   OH230666   5.542   2.087   0.196  0.0255 -0.6352  0.4540
 3036TIP3    H130667   5.450   2.074   0.171 -0.2176 -1.2874  1.5891
 3036TIP3    H230668   5.587   2.010   0.161  0.1982 -0.1798 -0.3400
 3037TIP3   OH230669   3.461   1.446   0.312 -0.0173  0.3540 -0.4174
 3037TIP3    H130670   3.389   1.509   0.299  2.1065  3.1569  0.4039
 3037TIP3    H230671   3.503   1.441   0.226  1.4669  2.3691  0.1205
 3038TIP3   OH230672   3.520   3.992   7.113 -0.1207  0.1941 -0.1311
 3038TIP3    H130673   3.576   3.925   7.075  0.5442  1.3845 -1.3225
 3038TIP3    H230674   3.487   4.041   7.038 -0.8856  0.9776  0.6947
 3039TIP3   OH230675   3.226   5.287   6.958  0.2667  0.3191 -0.9354
 3039TIP3    H130676   3.175   5.366   6.979 -1.3509 -0.4203 -1.8827
 3039TIP3    H230677   3.184   5.252   6.880  0.5001 -1.8621 -0.1442
 3040TIP3   OH230678   4.045   6.223   0.919 -0.1799 -0.1230 -0.3082
 3040TIP3    H130679   3.952   6.238   0.902 -0.9193  0.8863  3.5377
 3040TIP3    H230680   4.053   6.128   0.928 -0.5860 -0.3036 -1.6300
 3041TIP3   OH230681   3.964   0.299   1.386  0.2750  0.4737  0.0361
 3041TIP3    H130682   3.954   0.206   1.366 -2.5240  1.0544 -1.8582
 3041TIP3    H230683   4.059   0.311   1.396  0.8105 -2.3595 -0.5914
 3042TIP3   OH230684   4.706   5.498   0.278  0.2963 -0.0087  0.2443
 3042TIP3    H130685   4.624   5.472   0.236  0.1711  0.9009 -0.0899
 3042TIP3    H230686   4.770   5.435   0.245 -0.5295 -1.6800  1.6804
 3043TIP3   OH230687   1.213   2.638   7.114 -0.6219 -0.0087  0.1027
 3043TIP3    H130688   1.301   2.605   7.133 -0.7536 -0.2885  0.2354
 3043TIP3    H230689   1.217   2.667   7.023  0.1020  1.5929  0.5975
 3044TIP3   OH230690   2.620   6.870   1.706 -0.2909  0.0309  0.1580
 3044TIP3    H130691   2.655   6.900   1.790  0.2663 -1.6229  0.5601
 3044TIP3    H230692   2.527   6.893   1.708 -0.0537  0.9558  0.7679
 3045TIP3   OH230693   4.411   2.913   0.621 -0.4922  0.1511  0.4232
 3045TIP3    H130694   4.461   2.992   0.600  0.7638 -0.9405 -0.8610
 3045TIP3    H230695   4.477   2.850   0.650 -1.2499 -0.9727 -0.2162
 3046TIP3   OH230696   3.384   4.804   0.139  0.0551 -0.4955 -0.1133
 3046TIP3    H130697   3.448   4.818   0.210  0.5413  0.3207 -0.6885
 3046TIP3    H230698   3.344   4.720   0.159  0.1370 -0.2530  1.1710
 3047TIP3   OH230699   2.263   3.291   0.900  0.3629  0.4397 -0.3289
 3047TIP3    H130700   2.198   3.361   0.904 -0.6536 -0.5510  1.6767
 3047TIP3    H230701   2.288   3.276   0.991  0.2064 -2.0997 -0.6447
 3048TIP3   OH230702   0.550   2.271   8.572 -0.4131 -0.1149  0.4171
 3048TIP3    H130703   0.587   2.343   8.623 -2.8038  0.8922  0.8762
 3048TIP3    H230704   0.585   2.192   8.613 -0.5933  0.7204  2.2863
 3049TIP3   OH230705   2.071   3.276   6.440  0.7826  0.4288 -0.3814
 3049TIP3    H130706   2.012   3.286   6.365  1.8060  0.9316 -1.1459
 3049TIP3    H230707   2.104   3.187   6.432  0.6340  0.3707 -0.3430
 3050TIP3   OH230708   0.035   2.768   8.248 -0.0843 -0.0441 -0.4718
 3050TIP3    H130709   0.090   2.830   8.200  1.6113 -0.4583  0.8495
 3050TIP3    H230710   0.017   2.698   8.185 -0.3569  0.7859 -1.3561
 3051TIP3   OH230711   0.690   0.912   0.082  0.4346  0.3413  0.1907
 3051TIP3    H130712   0.603   0.949   0.094  1.2371  2.0241  1.1710
 3051TIP3    H230713   0.688   0.830   0.132 -0.0749  1.2232  1.6805
 3052TIP3   OH230714   0.350   5.160   1.001 -0.4336  0.0601  0.2721
 3052TIP3    H130715   0.350   5.081   1.056  0.0112  0.8257  1.4239
 3052TIP3    H230716   0.364   5.128   0.912  0.4098 -1.1057  0.7997
 3053TIP3   OH230717   0.184   2.683   1.429  0.0254 -0.8033  0.2973
 3053TIP3    H130718   0.255   2.622   1.406  2.5145  0.8191  2.9034
 3053TIP3    H230719   0.187   2.750   1.361  1.6664 -0.3427  0.7617
 3054TIP3   OH230720   0.923   5.566   6.688  0.3987  0.0904 -0.4908
 3054TIP3    H130721   0.983   5.492   6.689 -0.0840 -0.3122 -0.8741
 3054TIP3    H230722   0.836   5.527   6.692  0.1389  0.6985  2.2566
 3055TIP3   OH230723   4.167   1.347   7.307  0.3098  0.0667 -0.3791
 3055TIP3    H130724   4.131   1.426   7.349  1.4172  1.3283 -1.6780
 3055TIP3    H230725   4.146   1.359   7.214  0.6242 -1.1071 -0.6074
 3056TIP3   OH230726   3.073   0.645   7.697  0.2733  0.0107 -0.1694
 3056TIP3    H130727   3.116   0.704   7.759 -0.0689  0.9034 -0.7538
 3056TIP3    H230728   2.986   0.684   7.683  0.1334 -0.4944 -0.7670
 3057TIP3   OH230729   0.503   3.210   7.951  0.5229 -0.2998 -0.0565
 3057TIP3    H130730   0.561   3.274   7.993  1.1965 -1.0091  0.1134
 3057TIP3    H230731   0.558   3.169   7.884  1.0439 -2.7325  1.7205
 3058TIP3   OH230732   1.192   3.684   6.640  0.2808  0.0894 -0.1468
 3058TIP3    H130733   1.176   3.600   6.598  1.1256  0.5822 -1.5046
 3058TIP3    H230734   1.114   3.737   6.618  0.3604  0.0887 -0.4378
 3059TIP3   OH230735   0.435   1.052   1.157 -0.1147  0.1231 -0.6140
 3059TIP3    H130736   0.456   1.144   1.166  0.0694  0.0650 -0.4403
 3059TIP3    H230737   0.519   1.007   1.166 -0.4629 -0.2003  1.3557
 3060TIP3   OH230738   0.612   3.147   7.281  0.6543  0.3950  0.3436
 3060TIP3    H130739   0.579   3.104   7.202  0.8206  1.0418 -0.0797
 3060TIP3    H230740   0.705   3.161   7.264  0.2810  2.4660 -0.2472
 3061TIP3   OH230741   5.749   1.164   0.566 -0.1355 -0.0637  0.3747
 3061TIP3    H130742   5.835   1.131   0.539  0.3889  1.8370 -0.4550
 3061TIP3    H230743   5.753   1.166   0.661  0.4049 -0.8100  0.3773
 3062TIP3   OH230744   2.594   0.759   0.158 -0.2536 -0.3514  0.1299
 3062TIP3    H130745   2.601   0.770   0.253  1.1550  1.9320 -0.1615
 3062TIP3    H230746   2.667   0.700   0.136  2.2759  2.5309  0.0961
 3063TIP3   OH230747   6.023   2.898   7.436 -0.0472  0.3478  0.1804
 3063TIP3    H130748   6.083   2.913   7.509 -0.1740 -0.2422  0.4104
 3063TIP3    H230749   6.067   2.830   7.384 -1.0345 -0.9276  0.9614
 3064TIP3   OH230750   6.040   2.422   7.272 -0.0977  0.0462 -0.1976
 3064TIP3    H130751   6.051   2.327   7.269  0.2620  0.0946 -0.5540
 3064TIP3    H230752   5.990   2.438   7.351 -1.1252 -0.5338 -0.7112
 3065TIP3   OH230753   1.277   1.432   6.857 -0.3458 -0.4534 -0.0416
 3065TIP3    H130754   1.230   1.379   6.793 -0.1740 -0.7487  0.0792
 3065TIP3    H230755   1.337   1.372   6.900  0.2543 -0.0443 -0.2987
 3066TIP3   OH230756   6.676   3.766   6.487  0.0539 -0.7052  0.5265
 3066TIP3    H130757   6.708   3.699   6.426  0.5644 -0.6904  0.7688
 3066TIP3    H230758   6.606   3.722   6.536  0.7522 -1.2488  1.0640
 3067TIP3   OH230759   1.038   2.239   1.669 -0.0485 -0.0833  0.2369
 3067TIP3    H130760   0.992   2.318   1.698 -1.0037  0.4324 -2.4012
 3067TIP3    H230761   0.982   2.203   1.600  1.5634 -1.7336 -0.2833
 3068TIP3   OH230762   2.613   1.414   8.021 -0.3999  0.0515  0.2436
 3068TIP3    H130763   2.615   1.319   8.029 -0.0170 -0.0459 -0.9022
 3068TIP3    H230764   2.613   1.446   8.112 -0.6306 -1.0315  0.6328
 3069TIP3   OH230765   4.316   2.419   7.309  0.0432 -0.1809 -0.2349
 3069TIP3    H130766   4.382   2.351   7.291 -0.4178 -0.3898 -1.1790
 3069TIP3    H230767   4.233   2.371   7.310 -0.3690  0.4600 -1.6278
 3070TIP3   OH230768   4.860   4.705   0.444 -0.3800  0.0562  0.1880
 3070TIP3    H130769   4.823   4.762   0.512  0.2726 -0.3640  0.9109
 3070TIP3    H230770   4.954   4.709   0.458 -0.2005  0.3134 -0.9870
 3071TIP3   OH230771   6.197   2.416   0.370  0.1184 -0.0916 -0.0010
 3071TIP3    H130772   6.187   2.510   0.363  2.1156  0.2135  0.6012
 3071TIP3    H230773   6.259   2.392   0.301  1.8439 -0.4775  1.5784
 3072TIP3   OH230774   0.170   3.452   1.596 -0.0422  0.1846 -0.0079
 3072TIP3    H130775   0.175   3.402   1.515  0.4382  0.4745 -0.1564
 3072TIP3    H230776   0.239   3.417   1.652  0.7188  1.1106 -0.3556
 3073TIP3   OH230777   0.546   4.438   0.997  0.4741  0.0571  0.4792
 3073TIP3    H130778   0.603   4.373   0.955  0.8900 -0.6865  2.1179
 3073TIP3    H230779   0.483   4.386   1.047  2.5561  0.7622  4.1799
 3074TIP3   OH230780   2.342   3.845   1.799 -0.2117 -0.0568 -0.4753
 3074TIP3    H130781   2.334   3.933   1.834 -1.4101 -1.0825  2.0890
 3074TIP3    H230782   2.267   3.835   1.740 -1.3596 -0.0366  0.9327
 3075TIP3   OH230783   0.246   1.966   6.887  0.6645 -0.7024  0.5666
 3075TIP3    H130784   0.270   2.056   6.863 -2.7314  1.0225  2.9461
 3075TIP3    H230785   0.175   1.943   6.827 -0.0826 -0.8259  1.4752
 3076TIP3   OH230786   1.972   3.354   1.307 -0.3332 -0.1513 -0.6088
 3076TIP3    H130787   2.054   3.391   1.275 -0.3869  0.5333  0.0003
 3076TIP3    H230788   1.983   3.259   1.301  0.4285 -0.0581 -0.7066
 3077TIP3   OH230789   2.337   0.391   7.615 -0.6886 -0.1124 -0.1448
 3077TIP3    H130790   2.355   0.372   7.707 -0.8996  0.8763  0.1199
 3077TIP3    H230791   2.419   0.373   7.570 -0.9614 -1.8828  0.0175
 3078TIP3   OH230792   1.477   3.243   7.065  0.0033  0.1986  0.0256
 3078TIP3    H130793   1.547   3.295   7.104  1.2978  0.1958 -2.1248
 3078TIP3    H230794   1.410   3.307   7.041  0.3038  0.5065 -0.0000
 3079TIP3   OH230795   2.425   1.829   8.045  0.6156 -0.3483  0.5153
 3079TIP3    H130796   2.500   1.800   7.993  1.6063  0.0189  1.6933
 3079TIP3    H230797   2.402   1.914   8.009  0.9331 -0.3416  0.3235
 3080TIP3   OH230798   4.731   4.160   7.473 -0.5000 -0.2182 -0.0916
 3080TIP3    H130799   4.802   4.152   7.409 -1.0071 -0.7843 -0.5948
 3080TIP3    H230800   4.716   4.254   7.481  1.7732  0.0893  1.6693
 3081TIP3   OH230801   2.519   5.483   0.891  0.1216  0.1991  0.3092
 3081TIP3    H130802   2.435   5.441   0.912 -0.4339  1.1658  0.0372
 3081TIP3    H230803   2.498   5.548   0.825  0.9856  0.8708  0.6767
 3082TIP3   OH230804   2.664   5.409   7.604 -0.2113  0.4775 -0.2319
 3082TIP3    H130805   2.710   5.332   7.573 -0.2463  0.7520 -0.9746
 3082TIP3    H230806   2.656   5.466   7.528 -1.2449  0.6956  0.0165
 3083TIP3   OH230807   6.028   3.202   1.252 -0.6984  0.1241 -0.1268
 3083TIP3    H130808   5.943   3.159   1.254 -0.4814 -0.3217 -0.3112
 3083TIP3    H230809   6.073   3.171   1.331 -0.5746  0.0784 -0.2145
 3084TIP3   OH230810   1.129   1.744   8.585  0.5366  0.2694 -0.0659
 3084TIP3    H130811   1.074   1.822   8.581 -0.1086 -0.2268 -1.2475
 3084TIP3    H230812   1.192   1.754   8.514  1.0567  0.1485  0.3683
 3085TIP3   OH230813   1.036   0.879   7.674 -0.4836 -0.1190 -0.0082
 3085TIP3    H130814   1.050   0.973   7.669 -3.1642  0.3524 -0.0380
 3085TIP3    H230815   1.093   0.850   7.745 -0.1246  1.6555  0.4693
 3086TIP3   OH230816   1.804   5.740   2.464  0.1526 -0.1240 -0.0212
 3086TIP3    H130817   1.844   5.798   2.399 -0.5383  2.4052  1.6693
 3086TIP3    H230818   1.870   5.672   2.479  0.7492 -0.2022 -2.5134
 3087TIP3   OH230819   2.266   4.933   0.880  0.0125  0.4564 -0.3341
 3087TIP3    H130820   2.320   4.927   0.801 -0.1465  0.0731 -0.4179
 3087TIP3    H230821   2.322   4.976   0.945  0.6612 -0.5437 -0.2101
 3088TIP3   OH230822   1.966   2.407   8.030  0.5611  0.0859 -0.5588
 3088TIP3    H130823   1.919   2.405   8.113  1.9553 -1.0738  0.2426
 3088TIP3    H230824   1.945   2.493   7.993 -2.8765 -0.6909 -0.7239
 3089TIP3   OH230825   2.985   4.949   2.605 -0.5085  0.3413 -0.4435
 3089TIP3    H130826   3.031   5.028   2.632  1.9489 -0.9780 -0.4428
 3089TIP3    H230827   3.033   4.878   2.648 -1.9096 -1.2306 -1.3677
 3090TIP3   OH230828   6.455   5.336   7.049  0.3756 -0.0275  0.1756
 3090TIP3    H130829   6.501   5.362   7.128  0.9818  1.1099 -0.5366
 3090TIP3    H230830   6.494   5.251   7.026 -0.5272 -0.8735  1.6405
 3091TIP3   OH230831   3.296   3.993   1.958 -0.2723  0.1008 -0.2663
 3091TIP3    H130832   3.312   3.937   1.883 -2.9251  1.4079 -1.9540
 3091TIP3    H230833   3.248   3.938   2.020 -1.2013 -0.0586 -1.1028
 3092TIP3   OH230834   3.552   4.381   8.121  0.0377  0.0717  0.0355
 3092TIP3    H130835   3.491   4.397   8.049  1.3812 -2.2232 -1.7755
 3092TIP3    H230836   3.626   4.439   8.102 -0.4272  0.9160  0.7357
 3093TIP3   OH230837   4.587   2.786   7.843  0.6196  0.3165 -0.2657
 3093TIP3    H130838   4.501   2.784   7.800  0.7677 -1.2697 -0.5287
 3093TIP3    H230839   4.633   2.858   7.801 -0.2168  0.5349 -0.8345
 3094TIP3   OH230840   6.201   3.472   2.512 -0.1672  0.6928 -0.2609
 3094TIP3    H130841   6.125   3.530   2.517 -0.5585  0.1515  0.2396
 3094TIP3    H230842   6.166   3.386   2.535  0.9090  0.6945  1.4966
 3095TIP3   OH230843   1.844   1.787   6.491  0.2894 -0.1523  0.2573
 3095TIP3    H130844   1.914   1.775   6.427  0.5152 -0.6304  0.5908
 3095TIP3    H230845   1.765   1.759   6.445  0.3224  0.3125 -0.0939
 3096TIP3   OH230846   5.972   1.892   6.738  0.3792 -0.0575 -0.4243
 3096TIP3    H130847   5.972   1.807   6.695  0.2549 -0.2286 -0.0852
 3096TIP3    H230848   5.917   1.947   6.682  0.0332 -0.3388 -0.3640
 3097TIP3   OH230849   1.414   2.086   0.543 -0.2425 -0.3039 -0.2571
 3097TIP3    H130850   1.509   2.086   0.532 -0.1714  0.3383  0.3511
 3097TIP3    H230851   1.382   2.029   0.472  0.5665 -0.2687 -0.6598
 3098TIP3   OH230852   6.305   5.173   0.738 -0.3662  0.2805 -0.1654
 3098TIP3    H130853   6.255   5.221   0.672  0.8248  1.0271 -0.5501
 3098TIP3    H230854   6.347   5.241   0.791  0.1495 -0.3194  0.2186
 3099TIP3   OH230855   3.985   5.949   1.035  0.4378  0.0814  0.0601
 3099TIP3    H130856   3.938   5.962   0.952 -0.4459 -0.0477  0.5372
 3099TIP3    H230857   3.937   6.002   1.098  0.2680 -0.9304  0.7912
 3100TIP3   OH230858   1.775   4.696   7.210 -0.5115 -0.1552  0.3526
 3100TIP3    H130859   1.849   4.703   7.150 -1.1145  0.4363 -0.3530
 3100TIP3    H230860   1.803   4.633   7.276  0.6818  0.2017  0.2083
 3101TIP3   OH230861   1.113   0.472   0.640  0.0378 -0.1903 -0.2105
 3101TIP3    H130862   1.023   0.484   0.609  0.0725 -0.3968 -0.3874
 3101TIP3    H230863   1.151   0.408   0.581 -0.5847 -2.3657  1.6044
 3102TIP3   OH230864   0.890   6.718   2.430  0.1885 -0.7978 -0.4190
 3102TIP3    H130865   0.795   6.705   2.434  0.1233 -0.4226 -0.7711
 3102TIP3    H230866   0.916   6.728   2.522 -0.8375  4.2350 -0.4097
 3103TIP3   OH230867   2.381   3.486   0.354 -0.5219  0.2340 -0.2425
 3103TIP3    H130868   2.437   3.478   0.276 -1.4393 -0.0981 -0.8798
 3103TIP3    H230869   2.396   3.405   0.403 -0.1913  0.2976 -0.2345
 3104TIP3   OH230870   3.296   4.421   8.546  0.6860  0.1769  0.2890
 3104TIP3    H130871   3.352   4.351   8.581  0.3379  0.0252  0.5647
 3104TIP3    H230872   3.344   4.456   8.471  1.9497  1.2143  1.5236
 3105TIP3   OH230873   6.406   2.321   0.984 -0.0990 -0.3110  0.2394
 3105TIP3    H130874   6.319   2.362   0.983 -1.3078 -2.6772  0.4529
 3105TIP3    H230875   6.437   2.333   1.074 -1.1183 -1.1238  0.7323
 3106TIP3   OH230876   6.361   6.808   7.388 -0.0124  0.0045  0.4134
 3106TIP3    H130877   6.346   6.738   7.324  0.6351 -0.3099  0.5891
 3106TIP3    H230878   6.426   6.771   7.449 -1.7902 -0.3180  2.2177
 3107TIP3   OH230879   3.141   2.458   1.340 -0.0495 -0.3652  0.4490
 3107TIP3    H130880   3.115   2.542   1.376  0.2475  0.4007 -1.0441
 3107TIP3    H230881   3.234   2.469   1.318  0.1365 -1.2694  0.7165
 3108TIP3   OH230882   5.181   6.515   0.424  0.3197 -0.2621  0.0651
 3108TIP3    H130883   5.152   6.424   0.411  0.7295 -0.2303 -1.2686
 3108TIP3    H230884   5.273   6.514   0.398  0.2927  0.5587 -0.0671
 3109TIP3   OH230885   3.887   0.039   0.971 -0.1908 -0.0536  0.6419
 3109TIP3    H130886   3.971   0.008   0.939  0.2649  1.3826  0.3637
 3109TIP3    H230887   3.838   0.063   0.892 -0.3999  0.2151  0.8477
 3110TIP3   OH230888   2.930   3.053   7.414  0.1570 -0.0215  0.1662
 3110TIP3    H130889   3.013   3.005   7.422 -0.2947 -1.1095 -1.3012
 3110TIP3    H230890   2.906   3.074   7.504  1.2254 -1.0932  0.7347
 3111TIP3   OH230891   0.203   4.797   7.141  0.2660  0.2425  0.1374
 3111TIP3    H130892   0.217   4.710   7.103  1.8802  0.6121 -0.1959
 3111TIP3    H230893   0.287   4.841   7.131  0.2761  0.9518  2.6196
 3112TIP3   OH230894   5.349   1.212   7.773 -0.3331  0.3144  0.2465
 3112TIP3    H130895   5.292   1.136   7.785  0.7918 -0.5375  0.2673
 3112TIP3    H230896   5.438   1.178   7.778  0.2366  1.2242 -2.2376
 3113TIP3   OH230897   0.828   6.238   0.140 -0.5378 -0.9907  0.3019
 3113TIP3    H130898   0.808   6.241   0.047  0.2352  0.8072  0.1603
 3113TIP3    H230899   0.886   6.162   0.150  1.2704  0.1393 -1.0996
 3114TIP3   OH230900   0.157   3.752   7.905 -0.7117 -0.2912  0.3860
 3114TIP3    H130901   0.243   3.731   7.870 -0.0475 -0.1059  1.8410
 3114TIP3    H230902   0.107   3.784   7.830  0.9854  1.1152 -0.2006
 3115TIP3   OH230903   5.536   4.144   0.992 -0.7074  0.2569  0.7149
 3115TIP3    H130904   5.628   4.134   0.968 -1.1079  0.4493 -1.0539
 3115TIP3    H230905   5.535   4.138   1.088  1.1249  0.2030  0.7642
 3116TIP3   OH230906   1.567   3.275   7.633 -0.1786 -0.5037 -0.1370
 3116TIP3    H130907   1.526   3.313   7.555  0.0305 -2.6751 -1.4059
 3116TIP3    H230908   1.653   3.246   7.602  0.4390 -0.2088  1.2721
 3117TIP3   OH230909   1.007   3.065   0.842  0.1290 -0.0947 -0.1320
 3117TIP3    H130910   0.991   2.971   0.844  2.8347 -0.6430 -0.3105
 3117TIP3    H230911   0.977   3.097   0.927  0.8697 -1.4674  0.6763
 3118TIP3   OH230912   5.960   3.833   0.053 -0.3766 -0.0492 -0.0947
 3118TIP3    H130913   6.000   3.898   0.110  0.6195 -0.1467 -0.6549
 3118TIP3    H230914   5.920   3.770   0.113  0.3372  0.0419  0.4923
 3119TIP3   OH230915   4.422   0.956   1.190  0.1149  0.3664  0.0405
 3119TIP3    H130916   4.364   0.885   1.218  0.1217  0.2659 -0.1953
 3119TIP3    H230917   4.417   0.954   1.094  0.1961  0.6168  0.0302
 3120TIP3   OH230918   6.613   2.279   2.126  0.3176 -0.0777 -0.3057
 3120TIP3    H130919   6.692   2.226   2.127  0.4687  0.1227  1.2149
 3120TIP3    H230920   6.547   2.224   2.167 -0.7328 -0.7466 -2.7115
 3121TIP3   OH230921   0.742   4.202   2.213 -0.4548  0.0360 -0.3168
 3121TIP3    H130922   0.780   4.238   2.293 -1.1412  0.0401  0.0126
 3121TIP3    H230923   0.813   4.152   2.173  0.4369  1.5224 -0.6446
 3122TIP3   OH230924   1.214   6.660   0.552 -0.5268 -0.2695 -0.1484
 3122TIP3    H130925   1.285   6.683   0.612 -1.3389  0.3893  0.5864
 3122TIP3    H230926   1.143   6.631   0.610 -0.1579 -3.0204 -0.9418
 3123TIP3   OH230927   4.305   6.478   8.089 -0.0655  0.1693  0.9984
 3123TIP3    H130928   4.358   6.407   8.125  1.3116  0.3322 -0.6021
 3123TIP3    H230929   4.351   6.505   8.010 -2.4319  0.4969 -0.3628
 3124TIP3   OH230930   0.959   2.365   2.052  0.1151  0.6036  0.2031
 3124TIP3    H130931   1.039   2.321   2.025 -0.7522 -2.4966  2.2339
 3124TIP3    H230932   0.980   2.404   2.137 -0.7123 -1.0220  1.1895
 3125TIP3   OH230933   6.254   3.068   6.215 -0.5459  0.1536  0.4592
 3125TIP3    H130934   6.222   2.978   6.210 -0.7958  0.2579  0.0973
 3125TIP3    H230935   6.204   3.108   6.286 -2.0975  0.6472 -0.8467
 3126TIP3   OH230936   4.143   5.555   7.156  0.5966  0.8862 -0.0981
 3126TIP3    H130937   4.234   5.563   7.183  0.2920  0.2141  1.2308
 3126TIP3    H230938   4.103   5.638   7.180  0.0356 -0.1239  2.9326
 3127TIP3   OH230939   0.516   2.174   1.104  0.2368  0.3312 -0.2727
 3127TIP3    H130940   0.424   2.197   1.093  0.2841  0.0595 -1.3162
 3127TIP3    H230941   0.522   2.083   1.075  0.6697  0.0354  0.6734
 3128TIP3   OH230942   2.482   4.947   1.046  0.0615 -0.1622 -0.7929
 3128TIP3    H130943   2.566   4.983   1.017 -0.5483 -0.4545 -3.0404
 3128TIP3    H230944   2.498   4.852   1.053  0.2685 -0.0698  0.1315
 3129TIP3   OH230945   6.296   4.934   8.451  0.5126  0.2503  0.1044
 3129TIP3    H130946   6.206   4.920   8.482  1.4334 -1.3979  2.2907
 3129TIP3    H230947   6.286   4.988   8.373 -2.5032 -1.3760 -0.7967
 3130TIP3   OH230948   4.610   6.175   2.554  0.8903 -0.8706  0.8026
 3130TIP3    H130949   4.523   6.151   2.521  1.3446 -2.5879  0.7449
 3130TIP3    H230950   4.670   6.120   2.504  1.8969 -0.8026  1.8955
 3131TIP3   OH230951   1.171   5.712   1.980  0.2087 -0.4621 -0.3596
 3131TIP3    H130952   1.184   5.723   2.074 -0.2967 -1.8402 -0.1103
 3131TIP3    H230953   1.242   5.655   1.952  0.3760 -0.0327 -0.8284
 3132TIP3   OH230954   1.494   6.205   7.690  0.4328 -0.0710 -0.3309
 3132TIP3    H130955   1.523   6.245   7.772  0.8253 -0.6223 -0.1964
 3132TIP3    H230956   1.463   6.279   7.637  0.5436  0.3317  0.1594
 3133TIP3   OH230957   0.879   2.851   6.912  0.0577  0.0267  0.4670
 3133TIP3    H130958   0.843   2.880   6.828  0.0735  0.0058  0.4530
 3133TIP3    H230959   0.852   2.760   6.919 -2.6975  0.8347  1.9525
 3134TIP3   OH230960   3.717   2.479   7.827  0.0064 -0.1837  0.3349
 3134TIP3    H130961   3.779   2.449   7.760 -0.5121  0.3250 -0.3880
 3134TIP3    H230962   3.750   2.442   7.909  1.3757  0.2207 -0.0054
 3135TIP3   OH230963   2.765   2.378   0.553 -0.0510  0.1099 -0.2467
 3135TIP3    H130964   2.743   2.382   0.646  0.7683  0.8007 -0.0662
 3135TIP3    H230965   2.750   2.287   0.528  1.0350 -0.4077  0.8965
 3136TIP3   OH230966   4.422   1.591   0.396  0.3250 -0.5819 -0.4841
 3136TIP3    H130967   4.340   1.548   0.421  0.4985 -0.8443 -0.3641
 3136TIP3    H230968   4.487   1.521   0.397  0.6964 -0.2320  0.1575
 3137TIP3   OH230969   1.037   6.772   0.168  0.0305 -0.1009 -0.5353
 3137TIP3    H130970   0.942   6.763   0.164  0.0858 -0.7231 -0.5882
 3137TIP3    H230971   1.070   6.702   0.111  0.5578 -0.9835  0.7917
 3138TIP3   OH230972   6.632   5.327   2.678 -0.1133  0.3221 -0.3143
 3138TIP3    H130973   6.644   5.340   2.584 -1.0108 -0.5975 -0.5782
 3138TIP3    H230974   6.620   5.233   2.687 -0.3390  0.4435  0.6878
 3139TIP3   OH230975   3.984   4.088   2.028 -0.5267 -0.8702 -0.1364
 3139TIP3    H130976   3.965   3.994   2.030 -0.9309 -0.7792  0.6760
 3139TIP3    H230977   4.058   4.098   2.088 -0.0567 -0.7601 -0.7333
 3140TIP3   OH230978   4.281   2.514   1.135 -0.5515 -0.3498 -0.0612
 3140TIP3    H130979   4.192   2.527   1.168 -0.4767  2.3273 -0.6729
 3140TIP3    H230980   4.333   2.580   1.180  1.1034 -1.6349  0.0214
 3141TIP3   OH230981   6.659   3.464   0.010 -0.7518 -0.3782  0.5867
 3141TIP3    H130982   6.663   3.548  -0.036 -1.4385 -0.3020  0.6589
 3141TIP3    H230983   6.656   3.487   0.103 -0.3421 -0.5017  0.6309
 3142TIP3   OH230984   5.816   0.350   1.879  0.2552  0.2478  0.0229
 3142TIP3    H130985   5.814   0.341   1.975 -2.4167 -0.2698 -0.0099
 3142TIP3    H230986   5.856   0.269   1.849 -0.7935 -0.5318  0.6581
 3143TIP3   OH230987   0.848   3.336   0.315 -0.0638 -0.5582  0.1735
 3143TIP3    H130988   0.878   3.384   0.392 -1.6398 -1.8407  1.6721
 3143TIP3    H230989   0.752   3.332   0.325 -0.4614  0.3843 -2.5729
 3144TIP3   OH230990   2.485   1.294   7.043  0.0612 -0.0073 -0.1264
 3144TIP3    H130991   2.429   1.262   6.972  0.8143 -0.5740 -0.4896
 3144TIP3    H230992   2.453   1.250   7.121  0.4337 -0.8988 -0.4542
 3145TIP3   OH230993   5.771   0.026   8.065  0.2916 -0.2743  0.2739
 3145TIP3    H130994   5.833   0.093   8.093  0.0373 -0.8797  2.4461
 3145TIP3    H230995   5.824  -0.034   8.013  1.3080 -0.1987  1.1733
 3146TIP3   OH230996   2.231   6.255   6.729 -1.1066  0.4872 -0.3536
 3146TIP3    H130997   2.243   6.321   6.661 -1.6136  1.1098  0.1611
 3146TIP3    H230998   2.224   6.172   6.681  1.6361  0.4816 -0.9142
 3147TIP3   OH230999   5.543   4.461   0.749 -0.1150 -0.0998  0.1247
 3147TIP3    H131000   5.468   4.404   0.770 -0.1950  0.3927  1.2472
 3147TIP3    H231001   5.553   4.517   0.826  0.5534  0.7825 -0.5802
 3148TIP3   OH231002   6.012   6.370   0.435  0.1120  0.2016  0.5119
 3148TIP3    H131003   5.985   6.453   0.397 -0.1446 -0.3812 -0.6247
 3148TIP3    H231004   6.097   6.352   0.396  0.1466 -0.0890  0.7178
 3149TIP3   OH231005   6.850   0.651   1.242 -0.4982  0.2660 -0.2051
 3149TIP3    H131006   6.755   0.635   1.240 -0.6214  0.3861  1.9401
 3149TIP3    H231007   6.858   0.742   1.271  0.2577  0.0281  0.3741
 3150TIP3   OH231008   1.182   1.946   0.687 -0.6643  0.1546 -0.3045
 3150TIP3    H131009   1.144   1.951   0.599 -0.1852 -0.9767 -0.5879
 3150TIP3    H231010   1.264   1.995   0.680 -1.3499  1.3894 -0.0601
 3151TIP3   OH231011   4.264   3.507   7.713 -0.0109 -0.0796  0.1501
 3151TIP3    H131012   4.336   3.550   7.760  0.2437  0.2762 -0.5468
 3151TIP3    H231013   4.308   3.444   7.656 -0.1936  0.6196 -0.7802
 3152TIP3   OH231014   4.930   3.336   0.777  0.4497  0.5583 -0.0092
 3152TIP3    H131015   4.947   3.256   0.827  0.0406  0.1921 -0.4412
 3152TIP3    H231016   5.008   3.348   0.723  0.5693  0.5263  0.1571
 3153TIP3   OH231017   1.017   5.611   1.287 -0.4478 -0.2924  0.2059
 3153TIP3    H131018   1.010   5.516   1.281  0.2178 -0.2692 -1.3700
 3153TIP3    H231019   1.022   5.641   1.196  3.5307  0.8961  0.6228
 3154TIP3   OH231020   5.169   2.881   1.836  0.2227 -0.7847 -0.5423
 3154TIP3    H131021   5.120   2.963   1.845  1.2836 -0.1374 -0.5733
 3154TIP3    H231022   5.135   2.827   1.908  2.7676  1.3892  2.6110
 3155TIP3   OH231023   6.540   6.787   7.026 -0.4775 -0.5071 -0.5860
 3155TIP3    H131024   6.479   6.861   7.019 -0.5054 -0.5611 -0.9512
 3155TIP3    H231025   6.627   6.828   7.024 -0.4992 -0.4369 -0.1477
 3156TIP3   OH231026   4.218   6.840   2.563 -0.1518 -0.6416 -0.2260
 3156TIP3    H131027   4.311   6.842   2.542 -0.5662  0.9295 -2.2699
 3156TIP3    H231028   4.174   6.832   2.479 -1.8976  0.1974  0.5396
 3157TIP3   OH231029   2.483   5.275   7.936 -0.2977  0.0035 -0.1075
 3157TIP3    H131030   2.475   5.310   8.025  0.2272 -0.3732  0.0877
 3157TIP3    H231031   2.448   5.345   7.880  0.5336  0.7658  0.2938
 3158TIP3   OH231032   4.657   6.033   0.561  0.2879  0.2454 -0.6164
 3158TIP3    H131033   4.573   6.074   0.583 -0.1423 -1.2862  0.7854
 3158TIP3    H231034   4.656   6.027   0.465 -1.7428 -0.7729 -0.5845
 3159TIP3   OH231035   4.053   4.948   1.561 -0.0177  0.2646 -0.5128
 3159TIP3    H131036   4.091   5.008   1.625  0.7727 -1.1407  0.3838
 3159TIP3    H231037   3.961   4.974   1.555  0.1489  1.1123  0.3888
 3160TIP3   OH231038   0.335   0.698   1.370  0.1325  0.5347 -0.6110
 3160TIP3    H131039   0.357   0.779   1.417  0.6890 -0.0268  0.1210
 3160TIP3    H231040   0.285   0.646   1.433  2.3026 -0.9407  0.0083
 3161TIP3   OH231041   5.905   5.809   1.061  0.4439  0.0566 -0.4036
 3161TIP3    H131042   5.958   5.885   1.038  0.2350  0.7211  1.2050
 3161TIP3    H231043   5.852   5.838   1.135 -0.5674 -1.2730 -0.5744
 3162TIP3   OH231044   6.787   2.937   1.703 -0.6998  0.7884 -0.3840
 3162TIP3    H131045   6.835   2.855   1.694 -0.4620  1.0339 -1.3791
 3162TIP3    H231046   6.705   2.912   1.747  1.5820  0.7929  4.6191
 3163TIP3   OH231047   5.843   6.117   0.894  1.1186 -0.4791 -0.5403
 3163TIP3    H131048   5.761   6.079   0.863 -0.2177  1.7923  0.0113
 3163TIP3    H231049   5.832   6.124   0.989  1.7607  0.2874 -0.5132
 3164TIP3   OH231050   3.137   2.588   0.102  0.3658 -0.1545  0.3920
 3164TIP3    H131051   3.116   2.681   0.112 -0.9206 -0.3558 -0.0941
 3164TIP3    H231052   3.112   2.548   0.185 -0.0932 -0.2146  0.2294
 3165TIP3   OH231053   1.878   6.739   0.600 -0.1899 -0.0050  0.0667
 3165TIP3    H131054   1.855   6.657   0.644  1.8898 -0.6229  0.1391
 3165TIP3    H231055   1.913   6.711   0.515  0.5233  0.8060  0.0853
 3166TIP3   OH231056   2.657   5.311   1.332 -0.7507  0.0977  0.0860
 3166TIP3    H131057   2.607   5.243   1.285 -3.0636  1.5354  0.2924
 3166TIP3    H231058   2.627   5.393   1.293  1.5759  1.0841  0.2134
 3167TIP3   OH231059   5.706   2.264   2.521 -0.6451 -0.3073 -0.5368
 3167TIP3    H131060   5.798   2.254   2.545 -0.0051 -0.7950 -2.9780
 3167TIP3    H231061   5.705   2.338   2.460 -2.6574  3.0231  3.0285
 3168TIP3   OH231062   2.329   4.722   0.410  0.0763  0.3828  0.1422
 3168TIP3    H131063   2.313   4.721   0.315  1.4087 -1.7623 -0.1074
 3168TIP3    H231064   2.414   4.765   0.419 -0.4081  1.3118  0.4787
 3169TIP3   OH231065   2.429   0.741   6.948 -0.3486 -0.7558  0.2770
 3169TIP3    H131066   2.454   0.783   7.029  3.5202  0.5251 -1.3735
 3169TIP3    H231067   2.399   0.812   6.891 -2.0721 -1.5011  0.1794
 3170TIP3   OH231068   4.409   6.066   0.649 -0.1310 -0.1648 -0.2033
 3170TIP3    H131069   4.378   6.074   0.558  0.9559 -0.6047 -0.6287
 3170TIP3    H231070   4.417   5.972   0.663  2.7639 -0.0796 -0.7546
 3171TIP3   OH231071   4.903   5.878   0.552 -0.2498  0.1084  0.1279
 3171TIP3    H131072   4.889   5.824   0.474  0.5178 -1.0079  0.7339
 3171TIP3    H231073   4.838   5.947   0.545 -0.2281  0.0142 -1.4802
 3172TIP3   OH231074   2.694   3.317   7.475  0.0805 -0.1256  0.0027
 3172TIP3    H131075   2.745   3.395   7.455 -0.9345  1.0379  1.6595
 3172TIP3    H231076   2.753   3.263   7.528  0.3064  0.1997  0.0879
 3173TIP3   OH231077   3.358   5.327   2.152  0.6389 -0.1163 -0.0748
 3173TIP3    H131078   3.350   5.290   2.239  1.5842 -1.4165 -0.5086
 3173TIP3    H231079   3.451   5.349   2.144  0.2274  1.7618 -0.0868
 3174TIP3   OH231080   6.214   4.388   7.880 -0.4642 -0.8113  0.4706
 3174TIP3    H131081   6.139   4.394   7.820  0.1009  1.3945 -0.1039
 3174TIP3    H231082   6.213   4.471   7.928  1.7704 -0.5848  0.2226
 3175TIP3   OH231083   3.648   0.950   0.950  0.1374  0.2257 -0.1790
 3175TIP3    H131084   3.602   0.884   1.002  0.5868  1.1391  1.4410
 3175TIP3    H231085   3.618   0.934   0.860  0.1086 -2.0516  0.1648
 3176TIP3   OH231086   0.611   6.759   8.365 -0.4097 -0.3517  0.3372
 3176TIP3    H131087   0.688   6.756   8.308  0.4158 -1.2537  1.4598
 3176TIP3    H231088   0.566   6.840   8.341  0.1807 -0.4673 -1.2394
 3177TIP3   OH231089   3.728   1.803   0.274 -0.1367 -0.2665 -0.2573
 3177TIP3    H131090   3.759   1.806   0.364  0.0683 -0.0023 -0.3366
 3177TIP3    H231091   3.634   1.823   0.281  0.1988  1.5068 -0.2620
 3178TIP3   OH231092   2.646   3.165   8.166  0.5913 -0.3772  0.0397
 3178TIP3    H131093   2.563   3.177   8.119  0.4749 -0.8327  0.1322
 3178TIP3    H231094   2.703   3.233   8.129  0.7855 -1.2954 -1.4334
 3179TIP3   OH231095   6.285   2.233   7.931  0.2050  0.0688  0.3689
 3179TIP3    H131096   6.355   2.189   7.883  0.4003  2.3550 -1.5632
 3179TIP3    H231097   6.318   2.238   8.021  0.9635 -1.9658  0.2550
 3180TIP3   OH231098   0.511   1.434   6.227  0.0480  0.0543  0.4301
 3180TIP3    H131099   0.473   1.511   6.270  2.4416  0.5871  1.7749
 3180TIP3    H231100   0.565   1.470   6.157 -0.1498 -0.5274 -0.0284
 3181TIP3   OH231101   3.233   2.863   6.756 -0.3128  0.8267  0.3459
 3181TIP3    H131102   3.181   2.900   6.685 -1.5216  1.8079  1.7004
 3181TIP3    H231103   3.180   2.876   6.834  0.0335 -2.0840  1.1952
 3182TIP3   OH231104   2.075   5.933   0.046  0.0234  0.2694 -0.5844
 3182TIP3    H131105   2.128   6.012   0.058 -1.1936  1.1341 -0.7917
 3182TIP3    H231106   1.988   5.965   0.023 -0.9532 -1.0778  0.9995
 3183TIP3   OH231107   1.607   5.831   1.597 -0.6800  0.0661 -0.3202
 3183TIP3    H131108   1.683   5.809   1.543  0.9742 -0.6414  2.1036
 3183TIP3    H231109   1.560   5.748   1.608 -0.9189  0.1715 -0.5551
 3184TIP3   OH231110   1.527   4.009   1.194 -0.1204 -0.0340 -0.0830
 3184TIP3    H131111   1.487   4.065   1.260 -0.3391 -1.3872  0.9803
 3184TIP3    H231112   1.594   4.064   1.152 -0.1763  0.9328  1.0665
 3185TIP3   OH231113   2.993   5.859   7.211 -0.2238 -0.1316  0.0100
 3185TIP3    H131114   3.059   5.884   7.147  1.2040  0.0656  1.4973
 3185TIP3    H231115   2.948   5.784   7.172  0.8067 -0.1987 -1.0860
 3186TIP3   OH231116   2.675   6.329   2.082 -0.0271  0.2529 -0.1042
 3186TIP3    H131117   2.728   6.316   2.161  1.1130  1.5898 -0.6111
 3186TIP3    H231118   2.739   6.340   2.012 -0.9845  1.0711 -0.8817
 3187TIP3   OH231119   6.612   6.622   6.803  0.1454 -0.2662 -0.2433
 3187TIP3    H131120   6.585   6.670   6.881 -1.2278 -3.1877  1.2438
 3187TIP3    H231121   6.585   6.678   6.730  0.4011  2.0309  1.3353
 3188TIP3   OH231122   3.633   5.485   7.718 -0.2084 -0.2409  0.1056
 3188TIP3    H131123   3.694   5.559   7.725  1.7285 -1.7150 -0.2143
 3188TIP3    H231124   3.689   5.409   7.702 -2.1023 -1.8187  0.5012
 3189TIP3   OH231125   3.169   0.596   1.123 -0.3178 -0.1902 -0.3737
 3189TIP3    H131126   3.155   0.547   1.042 -0.0958  1.6050 -1.5592
 3189TIP3    H231127   3.103   0.666   1.121  0.1611  0.3157  0.6211
 3190TIP3   OH231128   6.782   1.933   7.212 -0.3409  0.0794  0.2860
 3190TIP3    H131129   6.688   1.927   7.229 -0.5904 -1.5472 -1.3093
 3190TIP3    H231130   6.793   1.894   7.125  1.8069  0.3522  0.3797
 3191TIP3   OH231131   3.189   5.583   0.272 -0.3212 -0.0975  0.0363
 3191TIP3    H131132   3.265   5.622   0.315  0.7164 -0.3395 -1.5109
 3191TIP3    H231133   3.221   5.499   0.238 -0.8163  0.5026 -2.0147
 3192TIP3   OH231134   4.372   6.106   0.383  0.6305 -0.1661 -0.3753
 3192TIP3    H131135   4.296   6.054   0.356 -0.2910  1.6901 -1.5105
 3192TIP3    H231136   4.404   6.146   0.302  2.6021 -0.5767  0.1494
 3193TIP3   OH231137   1.617   3.202   1.603 -0.4429  0.3447  0.0874
 3193TIP3    H131138   1.574   3.117   1.599 -0.7383  0.5197 -0.9248
 3193TIP3    H231139   1.707   3.183   1.629 -0.1183 -0.4581 -1.4844
 3194TIP3   OH231140   6.091   2.404   8.329  0.0746  0.4104 -0.4013
 3194TIP3    H131141   6.046   2.334   8.377  0.0827  1.0063  0.5086
 3194TIP3    H231142   6.035   2.421   8.254 -0.0225 -0.4447 -0.5330
 3195TIP3   OH231143   3.004   2.249   0.713  0.0862  0.4587 -0.4771
 3195TIP3    H131144   2.927   2.248   0.657 -0.1767  2.8759 -0.2508
 3195TIP3    H231145   3.063   2.311   0.671  0.0611  2.0061  1.6262
 3196TIP3   OH231146   1.520   5.941   7.377  0.6340  0.7433 -0.2191
 3196TIP3    H131147   1.499   5.849   7.362 -1.0703  0.9017  0.8738
 3196TIP3    H231148   1.572   5.941   7.457  0.3290  0.7349 -0.0163
 3197TIP3   OH231149   2.229   3.859   0.186  0.3450  0.0201 -0.1343
 3197TIP3    H131150   2.285   3.839   0.261 -0.2045  2.8690  1.1417
 3197TIP3    H231151   2.276   3.926   0.137 -2.0374  2.9745  1.3107
 3198TIP3   OH231152   1.613   2.467   1.239 -0.3126  0.3514  0.0963
 3198TIP3    H131153   1.645   2.558   1.235  0.4242  0.1075  0.2741
 3198TIP3    H231154   1.640   2.436   1.325  0.8685 -0.5420 -0.5610
 3199TIP3   OH231155   0.530   4.712   8.352  0.4220  0.8011 -0.5983
 3199TIP3    H131156   0.569   4.786   8.399  0.6508  0.8629 -0.8834
 3199TIP3    H231157   0.546   4.731   8.259  2.1372 -0.5233 -0.6255
 3200TIP3   OH231158   1.841   5.009   8.090 -0.0547  0.1872 -0.0188
 3200TIP3    H131159   1.910   4.983   8.029 -0.2894 -1.0112  0.2113
 3200TIP3    H231160   1.854   4.953   8.167  0.0252  1.4380  0.9116
 3201TIP3   OH231161   6.090   4.945   1.595 -0.3170  0.1237  0.0806
 3201TIP3    H131162   6.147   4.994   1.654 -0.9518  0.1780  0.6575
 3201TIP3    H231163   6.066   4.867   1.645  0.7375 -0.8347 -0.8470
 3202TIP3   OH231164   1.891   5.853   7.535  0.0333  0.7580  0.4628
 3202TIP3    H131165   1.982   5.880   7.547 -0.3353  2.2753  0.0696
 3202TIP3    H231166   1.840   5.931   7.558 -1.2425 -0.4398  1.9159
 3203TIP3   OH231167   6.720   6.001   0.749  0.1657  0.3158  0.3851
 3203TIP3    H131168   6.815   6.007   0.744  0.0746  2.0733  0.1964
 3203TIP3    H231169   6.689   6.090   0.730 -1.4793 -0.0626  1.1094
 3204TIP3   OH231170   2.913   6.837   1.727 -0.3365  0.2679 -0.3313
 3204TIP3    H131171   2.831   6.791   1.709 -0.3691  0.6225 -1.1575
 3204TIP3    H231172   2.892   6.899   1.797 -0.7567  0.3106 -0.4964
 3205TIP3   OH231173   4.103   4.698   2.448  0.7838 -0.2661  0.3841
 3205TIP3    H131174   4.126   4.733   2.362 -1.3250  0.1743 -0.0816
 3205TIP3    H231175   4.013   4.667   2.437  1.2481 -2.3139  1.8531
 3206TIP3   OH231176   0.701   6.460   1.159 -0.3885 -0.5874 -0.2040
 3206TIP3    H131177   0.758   6.465   1.236 -0.5700 -1.5963  0.0053
 3206TIP3    H231178   0.705   6.548   1.121  1.3784 -0.6654 -0.2612
 3207TIP3   OH231179   3.308   4.847   0.921 -0.3635  0.1144 -0.2299
 3207TIP3    H131180   3.307   4.782   0.992 -0.9401  0.2312 -0.1204
 3207TIP3    H231181   3.398   4.846   0.889  0.1322  0.6571  1.0648
 3208TIP3   OH231182   2.132   1.416   1.615 -0.6451  0.7673  0.2606
 3208TIP3    H131183   2.162   1.393   1.527 -0.6251 -0.2221  0.5175
 3208TIP3    H231184   2.208   1.400   1.671 -0.1928  2.7516  0.2936
 3209TIP3   OH231185   4.185   0.250   8.531  0.2896 -0.2203  0.3938
 3209TIP3    H131186   4.227   0.209   8.607 -0.5560  0.1205  1.0630
 3209TIP3    H231187   4.170   0.341   8.558  1.1231  0.2382 -0.6583
 3210TIP3   OH231188   5.197   3.110   7.827 -0.7713  0.1743  0.2607
 3210TIP3    H131189   5.289   3.119   7.851 -1.1439 -0.1364  1.9664
 3210TIP3    H231190   5.198   3.076   7.738  0.7336  2.0115 -0.4819
 3211TIP3   OH231191   6.025   5.000   0.491 -0.0078  0.0531 -0.3720
 3211TIP3    H131192   6.024   5.019   0.584 -0.3839 -0.7441 -0.2051
 3211TIP3    H231193   6.029   5.086   0.449  4.3593  0.4082  0.3578
 3212TIP3   OH231194   2.486   3.524   8.243  0.0634 -0.2126 -0.6179
 3212TIP3    H131195   2.514   3.564   8.161 -0.2632  0.6230 -0.3247
 3212TIP3    H231196   2.399   3.559   8.259  0.4880  0.3600  0.5639
 3213TIP3   OH231197   2.838   6.665   1.988 -0.1867 -0.2300 -0.1393
 3213TIP3    H131198   2.808   6.650   2.077  1.3846 -3.9731 -0.0719
 3213TIP3    H231199   2.902   6.736   1.996 -0.1288 -0.4425  1.7033
 3214TIP3   OH231200   4.859   3.941   8.532 -0.1895  0.0519 -0.2442
 3214TIP3    H131201   4.800   4.009   8.498 -1.3157 -1.2966 -1.0511
 3214TIP3    H231202   4.874   3.883   8.458  0.4688 -0.8076  0.5409
 3215TIP3   OH231203   5.838   0.263   0.085 -0.1774 -0.2125 -0.2453
 3215TIP3    H131204   5.863   0.287  -0.005 -0.1181  2.1778  0.3569
 3215TIP3    H231205   5.886   0.182   0.101  1.5746  0.4746 -1.6169
 3216TIP3   OH231206   6.894   0.872   0.767 -0.2851  0.5879  0.1468
 3216TIP3    H131207   6.964   0.904   0.824 -0.7898  0.8865  0.6083
 3216TIP3    H231208   6.857   0.797   0.812  1.8699 -1.6926 -1.6212
 3217TIP3   OH231209   3.908   4.884   0.404 -0.3618  0.1630  0.7229
 3217TIP3    H131210   3.958   4.807   0.432 -0.4082 -0.2566 -0.2961
 3217TIP3    H231211   3.882   4.864   0.314  1.1483  2.1072 -0.2230
 3218TIP3   OH231212   2.157   0.919   8.481 -0.3130 -0.2109  0.1734
 3218TIP3    H131213   2.110   1.001   8.492 -2.1451 -1.3657  1.5734
 3218TIP3    H231214   2.166   0.884   8.570  3.3066 -0.0869  0.0041
 3219TIP3   OH231215   0.370   1.035   6.256  0.0176 -0.1389  0.2836
 3219TIP3    H131216   0.318   1.033   6.176 -1.6264  3.8247  1.0128
 3219TIP3    H231217   0.331   0.967   6.312 -0.9775 -0.7316 -1.0796
 3220TIP3   OH231218   4.298   6.080   7.559  0.1793 -0.5046 -0.6234
 3220TIP3    H131219   4.301   6.113   7.649  1.5354  2.0475 -1.5034
 3220TIP3    H231220   4.354   6.002   7.561  0.2053 -0.4792  0.7226
 3221TIP3   OH231221   2.242   1.331   0.963 -0.4285  0.1215  0.0500
 3221TIP3    H131222   2.273   1.341   0.873  1.3275 -1.5330  0.4104
 3221TIP3    H231223   2.222   1.420   0.992 -2.7530  0.5609 -2.4971
 3222TIP3   OH231224   4.839   5.035   1.011 -0.2746  0.4790  0.0849
 3222TIP3    H131225   4.842   5.035   1.107  2.9630 -1.2302  0.1365
 3222TIP3    H231226   4.757   4.990   0.990 -0.3199 -0.5427  2.1358
 3223TIP3   OH231227   4.885   4.409   7.709  0.0765 -0.0556  0.1966
 3223TIP3    H131228   4.944   4.479   7.682 -1.3323  1.2322  0.3589
 3223TIP3    H231229   4.808   4.418   7.653 -0.8748 -0.3433  1.4072
 3224TIP3   OH231230   4.212   4.989   7.612 -0.0828  0.4718 -0.3423
 3224TIP3    H131231   4.253   4.948   7.689 -0.5789  0.4421 -0.0892
 3224TIP3    H231232   4.259   4.951   7.538 -0.5316 -0.5777 -0.1161
 3225TIP3   OH231233   4.579   4.706   2.105 -0.6852 -0.0290  0.4607
 3225TIP3    H131234   4.518   4.652   2.055 -0.3015 -0.8880  0.9023
 3225TIP3    H231235   4.652   4.721   2.044 -0.4914 -0.5651  0.5616
 3226TIP3   OH231236   2.359   0.766   0.628 -0.0688 -0.5388  0.0104
 3226TIP3    H131237   2.329   0.720   0.550 -0.3321 -0.1677 -0.1110
 3226TIP3    H231238   2.326   0.713   0.701  1.4967 -1.7388 -0.1123
 3227TIP3   OH231239   3.128   5.563   8.299 -0.0101  0.8647 -0.0257
 3227TIP3    H131240   3.047   5.544   8.253  0.6316  0.7479 -1.1478
 3227TIP3    H231241   3.134   5.496   8.368 -1.6653  1.8747  1.1715
 3228TIP3   OH231242   3.032   2.803   1.102 -0.1236 -0.4271  0.7576
 3228TIP3    H131243   3.084   2.866   1.053  0.4071 -1.4100  0.0053
 3228TIP3    H231244   3.035   2.723   1.048 -4.8702  0.2160 -0.9342
 3229TIP3   OH231245   4.537   4.682   0.391 -0.7345  0.2289 -0.1586
 3229TIP3    H131246   4.529   4.751   0.457 -0.4709  1.5205 -1.4416
 3229TIP3    H231247   4.448   4.646   0.384 -1.2403  1.5026 -0.5774
 3230TIP3   OH231248   1.362   2.951   8.555  0.4245 -0.6522 -0.4895
 3230TIP3    H131249   1.408   3.035   8.555 -0.4683 -0.1412 -1.6290
 3230TIP3    H231250   1.409   2.899   8.490  2.0994 -1.7290  1.4519
 3231TIP3   OH231251   3.977   0.650   0.621  0.4079 -0.9618 -0.7709
 3231TIP3    H131252   4.045   0.689   0.567  0.3738 -0.7476 -0.6608
 3231TIP3    H231253   3.997   0.679   0.710  1.5085 -2.7628 -0.3695
 3232TIP3   OH231254   1.073   3.494   7.465 -0.6966  0.0328  0.1373
 3232TIP3    H131255   0.982   3.487   7.437 -0.4943 -0.6873 -0.3643
 3232TIP3    H231256   1.072   3.460   7.555 -0.5210 -2.4057 -0.7179
 3233TIP3   OH231257   4.746   1.866   1.597 -0.2160  0.3029  0.8153
 3233TIP3    H131258   4.670   1.878   1.541  0.5379  1.5736  0.0097
 3233TIP3    H231259   4.819   1.902   1.547  0.9300 -0.8857  1.5614
 3234TIP3   OH231260   1.205   2.525   1.449  0.1123 -0.3886 -0.3323
 3234TIP3    H131261   1.155   2.600   1.417  2.1083  0.7413 -0.9861
 3234TIP3    H231262   1.157   2.449   1.417 -2.0625  0.5533  0.4853
 3235TIP3   OH231263   0.596   6.184   1.141 -0.0759  0.2090 -0.0628
 3235TIP3    H131264   0.513   6.164   1.186  0.7588 -0.1266  1.4025
 3235TIP3    H231265   0.596   6.279   1.133 -1.5122  0.1144 -1.9675
 3236TIP3   OH231266   5.104   4.164   6.773  0.2288 -0.2019 -0.3098
 3236TIP3    H131267   5.164   4.239   6.772 -1.0487  0.8589 -0.7003
 3236TIP3    H231268   5.127   4.115   6.694  0.9291 -0.1117 -0.1728
 3237TIP3   OH231269   0.909   0.973   2.134 -0.5593 -0.6485 -0.2860
 3237TIP3    H131270   0.852   0.910   2.180 -1.0550  0.5563  0.8193
 3237TIP3    H231271   0.968   1.006   2.202  0.0335 -0.2959 -0.9628
 3238TIP3   OH231272   4.829   1.900   6.945 -0.1083 -0.0788 -0.2540
 3238TIP3    H131273   4.735   1.911   6.956  0.0228  0.2016  0.6257
 3238TIP3    H231274   4.850   1.950   6.866 -0.7051 -0.2208 -0.5058
 3239TIP3   OH231275   4.554   2.316   7.774 -0.1929  0.2897  0.3086
 3239TIP3    H131276   4.607   2.376   7.826  0.6919  1.9797 -2.3508
 3239TIP3    H231277   4.511   2.372   7.709  1.1305 -1.9247 -2.7033
 3240TIP3   OH231278   4.849   2.700   1.971 -0.1449 -0.1513 -0.5151
 3240TIP3    H131279   4.766   2.731   2.006  0.2348 -0.5282  0.7786
 3240TIP3    H231280   4.830   2.677   1.880 -1.4887 -0.3871 -0.1953
 3241TIP3   OH231281   0.195   4.418   0.831 -0.2576 -0.5514 -0.3181
 3241TIP3    H131282   0.200   4.324   0.815  0.7043 -0.5385 -0.1586
 3241TIP3    H231283   0.275   4.453   0.792 -0.5799  0.1949 -0.3285
 3242TIP3   OH231284   3.584   5.942   7.946  0.0714 -0.6751  0.1640
 3242TIP3    H131285   3.617   5.891   8.019  1.7273  0.2546  0.0958
 3242TIP3    H231286   3.522   6.003   7.985  0.9189 -0.2091  0.7949
 3243TIP3   OH231287   1.239   2.733   7.669 -0.2313  0.0863  0.6990
 3243TIP3    H131288   1.248   2.760   7.577  0.8802 -0.3977  0.6425
 3243TIP3    H231289   1.243   2.814   7.719 -1.3381  0.4015  0.3023
 3244TIP3   OH231290   4.683   0.865   8.041 -0.2668  0.2525  0.1804
 3244TIP3    H131291   4.647   0.953   8.041  0.4828  0.5645 -0.3248
 3244TIP3    H231292   4.726   0.856   7.957 -1.7000 -1.1866 -0.4616
 3245TIP3   OH231293   2.324   1.424   1.367  0.0385  0.3181  0.4262
 3245TIP3    H131294   2.329   1.518   1.384  0.9818  0.5493 -0.9988
 3245TIP3    H231295   2.404   1.388   1.405  0.3929  0.3095 -0.3237
 3246TIP3   OH231296   5.902   0.832   8.197  0.0338 -0.3844  0.1504
 3246TIP3    H131297   5.852   0.771   8.142  0.7024 -0.2705 -0.6085
 3246TIP3    H231298   5.949   0.887   8.134  1.4730 -0.7914  0.8511
 3247TIP3   OH231299   4.905   4.209   0.244  0.1185  0.0640 -0.4132
 3247TIP3    H131300   4.915   4.181   0.335  1.4858 -0.4347 -0.7022
 3247TIP3    H231301   4.955   4.146   0.193  1.1248  1.5218 -1.3160
 3248TIP3   OH231302   4.334   2.059   7.361  0.2963  0.5243 -0.8943
 3248TIP3    H131303   4.399   2.119   7.396  1.3605 -1.2968  0.4237
 3248TIP3    H231304   4.250   2.103   7.374  0.9490  1.3086  0.9870
 3249TIP3   OH231305   3.981   0.305   1.051 -0.0867 -0.5128  0.4630
 3249TIP3    H131306   3.957   0.325   1.142 -0.0946 -0.3269  0.4211
 3249TIP3    H231307   3.945   0.218   1.035 -0.5649 -0.3196  0.4673
 3250TIP3   OH231308   2.730   2.299   1.273 -0.0525  0.0954  0.5959
 3250TIP3    H131309   2.661   2.365   1.278 -0.9071 -0.7378 -0.0230
 3250TIP3    H231310   2.789   2.331   1.205  0.4392  1.0297  1.4259
 3251TIP3   OH231311   1.522   0.231   7.836  0.1297  0.2674 -0.2216
 3251TIP3    H131312   1.486   0.172   7.769 -2.5659 -0.1170  1.3906
 3251TIP3    H231313   1.449   0.289   7.858  1.1923  0.9704  1.7049
 3252TIP3   OH231314   6.232   2.717   6.592  0.4314  0.5948  0.1815
 3252TIP3    H131315   6.173   2.791   6.594 -0.6424 -0.1600 -1.3370
 3252TIP3    H231316   6.298   2.741   6.526  0.9040  0.7760  0.7157
 3253TIP3   OH231317   1.635   1.875   7.582  0.3320  0.0851  0.3367
 3253TIP3    H131318   1.645   1.821   7.504 -0.6556  1.8167 -1.0753
 3253TIP3    H231319   1.550   1.918   7.571  0.1877  0.4395  2.3530
 3254TIP3   OH231320   5.412   4.467   7.921  0.0898  0.3204  0.2008
 3254TIP3    H131321   5.354   4.539   7.949 -0.7550 -0.7506  1.3462
 3254TIP3    H231322   5.480   4.464   7.989 -1.2324 -1.4541  1.5461
 3255TIP3   OH231323   2.381   0.980   8.325 -0.7630 -0.0627  0.6839
 3255TIP3    H131324   2.321   0.962   8.397 -0.3048  0.8149  1.3172
 3255TIP3    H231325   2.341   0.939   8.248 -1.8566 -0.0037  1.2074
 3256TIP3   OH231326   3.815   2.959   7.038 -0.4298  0.2815 -0.3208
 3256TIP3    H131327   3.820   2.864   7.026  0.6971  0.4774 -1.7050
 3256TIP3    H231328   3.775   2.970   7.124 -0.0758 -1.4563  0.1149
 3257TIP3   OH231329   2.105   1.752   1.576 -0.1041 -0.5473 -0.4361
 3257TIP3    H131330   2.078   1.716   1.492  1.8194 -0.1472 -1.2756
 3257TIP3    H231331   2.129   1.675   1.628 -0.8223 -0.7635 -0.4132
 3258TIP3   OH231332   0.306   0.641   8.168  0.3935  0.3248 -0.2117
 3258TIP3    H131333   0.280   0.600   8.085 -1.3066  0.1836  0.3570
 3258TIP3    H231334   0.278   0.580   8.235 -2.3511  2.3782  0.6737
 3259TIP3   OH231335   2.368   6.193   7.163 -0.0295 -0.7399 -0.0517
 3259TIP3    H131336   2.346   6.269   7.110  0.5640 -1.1230 -0.8628
 3259TIP3    H231337   2.307   6.197   7.237 -0.0739  0.4600 -0.1308
 3260TIP3   OH231338   5.260   2.410   7.282  0.6383  0.0909 -0.2878
 3260TIP3    H131339   5.167   2.390   7.298  1.0865 -1.4963  0.5309
 3260TIP3    H231340   5.268   2.409   7.187 -0.4880  1.8805 -0.4572
 3261TIP3   OH231341   2.268   0.009   1.041  0.2172  0.5547 -0.5912
 3261TIP3    H131342   2.196  -0.020   1.097  0.3211  0.7864 -0.3328
 3261TIP3    H231343   2.232   0.005   0.953  0.5531 -1.3399 -0.6757
 3262TIP3   OH231344   0.692   5.424   6.685  0.0605  0.3902  0.3892
 3262TIP3    H131345   0.697   5.329   6.673 -0.1258  0.2021  1.6474
 3262TIP3    H231346   0.622   5.453   6.627  0.8830 -0.0689 -0.8657
 3263TIP3   OH231347   4.649   0.434   6.867 -0.0770 -0.7522 -0.6191
 3263TIP3    H131348   4.569   0.442   6.815 -0.6796  0.8099  0.4866
 3263TIP3    H231349   4.719   0.462   6.808 -0.7001  0.6089 -0.7298
 3264TIP3   OH231350   1.354   3.931   7.147 -0.4007  0.4053  0.1037
 3264TIP3    H131351   1.398   4.005   7.107  0.9321 -0.1784  0.4242
 3264TIP3    H231352   1.269   3.927   7.104  0.0915  1.1973 -0.9789
 3265TIP3   OH231353   6.848   0.320   0.957  0.1690  0.2391 -0.0580
 3265TIP3    H131354   6.799   0.240   0.976 -0.9528  0.7412 -0.7491
 3265TIP3    H231355   6.841   0.330   0.862 -0.8028  1.8543  0.1589
 3266TIP3   OH231356   5.154   4.948   7.996 -0.3122 -0.1069  0.2381
 3266TIP3    H131357   5.074   4.899   7.982  0.7346 -1.6715 -0.5601
 3266TIP3    H231358   5.138   4.998   8.077 -1.8811 -0.7656  0.3702
 3267TIP3   OH231359   0.669   2.098   7.844  0.1995  0.0608  0.2492
 3267TIP3    H131360   0.644   2.006   7.836 -0.1440 -0.0206  2.0217
 3267TIP3    H231361   0.763   2.096   7.859 -0.0920 -0.1396  2.2176
 3268TIP3   OH231362   1.446   0.600   6.706  0.6017  0.0186  0.6891
 3268TIP3    H131363   1.529   0.577   6.748 -0.0147 -0.8695  1.4508
 3268TIP3    H231364   1.468   0.675   6.650  2.6030 -2.1082 -1.6176
 3269TIP3   OH231365   3.011   3.977   0.267 -0.3238  0.1046 -0.2485
 3269TIP3    H131366   2.991   3.909   0.203  1.0919 -0.0938 -0.5037
 3269TIP3    H231367   3.090   3.947   0.311 -1.2365  0.2448  1.6050
 3270TIP3   OH231368   3.289   4.798   8.449  0.1101  0.0273  0.1326
 3270TIP3    H131369   3.331   4.820   8.532  0.6255  1.6144 -0.5286
 3270TIP3    H231370   3.198   4.779   8.473  0.3331  0.0972  1.0955
 3271TIP3   OH231371   2.742   4.832   1.653  0.6585 -0.1214  1.2236
 3271TIP3    H131372   2.815   4.815   1.712  0.1647 -1.8700  1.4120
 3271TIP3    H231373   2.680   4.883   1.705  0.1847 -1.7178  2.3117
 3272TIP3   OH231374   3.690   5.216   8.263  0.5820  0.2857  0.0832
 3272TIP3    H131375   3.755   5.214   8.334  0.6579  1.0134  0.0416
 3272TIP3    H231376   3.623   5.153   8.291 -0.0714  1.5217  1.4776
 3273TIP3   OH231377   6.667   1.870   1.581  0.0731  0.2622 -0.1056
 3273TIP3    H131378   6.582   1.901   1.614  0.3483  2.2354 -1.1429
 3273TIP3    H231379   6.674   1.781   1.616 -1.2353  0.9593  2.1778
 3274TIP3   OH231380   1.036   5.022   0.528  0.2451 -0.4538  0.0403
 3274TIP3    H131381   1.028   5.098   0.470 -1.4187 -1.0301 -0.5624
 3274TIP3    H231382   1.088   5.053   0.602  3.0760  0.1197 -2.0308
 3275TIP3   OH231383   1.987   1.932   0.682  0.3167  0.3482  0.0826
 3275TIP3    H131384   1.956   1.845   0.657 -1.7212  0.8396  0.6848
 3275TIP3    H231385   2.019   1.970   0.600  0.0043 -0.4955 -0.4489
 3276TIP3   OH231386   0.781   5.106   1.491 -0.3514  0.5377  0.2260
 3276TIP3    H131387   0.797   5.129   1.400  0.3636 -1.1482 -0.1124
 3276TIP3    H231388   0.832   5.025   1.505 -0.2055  0.9105  2.1899
 3277TIP3   OH231389   5.476   3.758   8.612 -0.7226  0.4336 -0.3032
 3277TIP3    H131390   5.534   3.754   8.688 -0.7421  1.7713 -0.2070
 3277TIP3    H231391   5.431   3.673   8.612 -0.2516  0.1662  0.7903
 3278TIP3   OH231392   5.296   0.240   1.649  0.4710 -0.4094  0.2816
 3278TIP3    H131393   5.262   0.195   1.572  0.0134  0.5217 -0.0784
 3278TIP3    H231394   5.240   0.210   1.721  0.1795 -0.4243  0.0511
 3279TIP3   OH231395   3.033   2.525   7.224  0.3104 -0.4886 -0.2911
 3279TIP3    H131396   2.947   2.505   7.261  0.3977  0.1329  0.2631
 3279TIP3    H231397   3.095   2.487   7.287  0.4968  1.8079  1.0276
 3280TIP3   OH231398   5.607   4.838   7.244 -0.7420 -0.2118  0.2911
 3280TIP3    H131399   5.612   4.920   7.295 -1.0543  0.9091 -1.4054
 3280TIP3    H231400   5.522   4.800   7.268 -0.4852 -0.1849  1.2811
 3281TIP3   OH231401   0.811   4.950   2.563 -0.7818 -1.0924  0.0300
 3281TIP3    H131402   0.761   4.961   2.644  2.2918 -1.8789  2.2359
 3281TIP3    H231403   0.788   4.862   2.532  0.8401 -2.4490  2.3632
 3282TIP3   OH231404   3.000   0.226   7.115  0.2423 -0.4006  0.4248
 3282TIP3    H131405   2.996   0.150   7.056 -1.3567 -0.1750  0.1938
 3282TIP3    H231406   2.932   0.285   7.082 -0.5251 -0.1565  2.3203
 3283TIP3   OH231407   4.446   6.778   1.741 -0.2439  0.0742 -0.4891
 3283TIP3    H131408   4.527   6.807   1.699 -0.3020 -0.2559 -0.8417
 3283TIP3    H231409   4.440   6.830   1.821  1.7562 -1.7892  1.0030
 3284TIP3   OH231410   1.314   3.696   1.666  0.2719 -0.0050  0.1270
 3284TIP3    H131411   1.237   3.749   1.644 -0.3171 -1.5005 -1.6484
 3284TIP3    H231412   1.356   3.744   1.738 -1.5565  1.5589  0.2404
 3285TIP3   OH231413   1.259   5.818   0.282 -0.1051  0.2576  0.6160
 3285TIP3    H131414   1.243   5.803   0.375 -1.9643  1.0300  0.4646
 3285TIP3    H231415   1.262   5.913   0.273  1.9445  0.1966  0.1276
 3286TIP3   OH231416   0.927   4.277   7.087  0.5331  0.1272  0.2052
 3286TIP3    H131417   0.967   4.268   7.174 -0.4423  1.1620  0.7819
 3286TIP3    H231418   0.863   4.206   7.083  2.1643 -1.3751 -0.6202
 3287TIP3   OH231419   6.768   1.893   8.598  0.6038 -0.4677  0.6620
 3287TIP3    H131420   6.727   1.862   8.518 -0.3656  0.4875  0.7629
 3287TIP3    H231421   6.862   1.895   8.578  0.4611 -1.1650 -0.1058
 3288TIP3   OH231422   6.005   1.831   1.781 -0.1222  0.1391  0.4847
 3288TIP3    H131423   5.963   1.787   1.855 -2.9173 -1.0027 -1.5857
 3288TIP3    H231424   6.024   1.919   1.812  0.9933 -0.9846  3.2295
 3289TIP3   OH231425   0.562   1.199   7.135 -0.2148 -0.3569  0.4602
 3289TIP3    H131426   0.536   1.130   7.196  0.1966  0.5892  1.7553
 3289TIP3    H231427   0.532   1.280   7.176 -0.6126  0.2668 -0.9844
 3290TIP3   OH231428   4.466   1.709   8.258 -0.6964  0.7435  0.0177
 3290TIP3    H131429   4.396   1.745   8.312 -0.8652  0.8313 -0.2592
 3290TIP3    H231430   4.425   1.638   8.208 -0.5914  0.8005 -0.1516
 3291TIP3   OH231431   0.484   4.338   6.607 -0.2460  0.4240 -0.4985
 3291TIP3    H131432   0.406   4.393   6.618 -1.1510 -0.7743 -0.7534
 3291TIP3    H231433   0.491   4.290   6.690 -0.0086  0.2336 -0.6289
 3292TIP3   OH231434   5.837   5.001   6.781  0.7167  0.6669 -0.4218
 3292TIP3    H131435   5.832   4.956   6.865 -0.3582  2.1630  0.3762
 3292TIP3    H231436   5.788   4.946   6.720  2.6150 -1.1021 -0.4431
 3293TIP3   OH231437   0.373   1.394   7.400  0.2232  0.0277  0.2436
 3293TIP3    H131438   0.451   1.354   7.439  0.5396 -0.1499 -0.5436
 3293TIP3    H231439   0.352   1.467   7.458  1.2801  0.3846  0.2032
 3294TIP3   OH231440   5.400   5.278   7.325  0.2748 -0.1687 -0.2878
 3294TIP3    H131441   5.373   5.357   7.372  0.2927 -0.8539  0.9157
 3294TIP3    H231442   5.493   5.291   7.307  0.9651 -0.9785  2.2384
 3295TIP3   OH231443   0.481   2.717   0.691  0.5559  0.2292  0.1969
 3295TIP3    H131444   0.389   2.693   0.701  0.6222  0.3541  1.2203
 3295TIP3    H231445   0.528   2.655   0.747  1.0848  0.2087 -0.2674
 3296TIP3   OH231446   0.447   3.965   7.867  0.7318  0.5491  0.4235
 3296TIP3    H131447   0.473   4.042   7.917  0.3910  1.3639 -0.6217
 3296TIP3    H231448   0.408   4.000   7.787 -1.1693 -0.6805  0.7567
 3297TIP3   OH231449   0.635   1.011   8.383 -0.2283  0.1413 -0.1270
 3297TIP3    H131450   0.582   1.062   8.444  2.0328  0.0178  2.1163
 3297TIP3    H231451   0.713   1.065   8.367 -0.3188 -0.2592 -2.2016
 3298TIP3   OH231452   4.065   6.430   7.161  0.3217 -0.2779  0.0993
 3298TIP3    H131453   3.985   6.392   7.123  0.0977  1.1539 -0.9073
 3298TIP3    H231454   4.135   6.376   7.126 -0.1007 -0.7205 -0.0832
 3299TIP3   OH231455   5.343   3.293   1.297  0.3576  0.1162 -0.2332
 3299TIP3    H131456   5.391   3.376   1.303  2.4193 -1.0778  0.9112
 3299TIP3    H231457   5.310   3.292   1.207 -3.4343  4.0073  0.7711
 3300TIP3   OH231458   0.649   4.486   0.458 -0.0381 -0.3247 -0.3764
 3300TIP3    H131459   0.566   4.507   0.415 -2.1163 -1.1259  2.8819
 3300TIP3    H231460   0.667   4.562   0.513  0.0023 -1.1977  0.8379
 3301TIP3   OH231461   4.293   0.377   0.271 -0.1802 -0.3629 -0.7149
 3301TIP3    H131462   4.351   0.322   0.217  0.0119  0.7677 -1.7146
 3301TIP3    H231463   4.206   0.338   0.259  0.0171 -0.7122 -1.0627
 3302TIP3   OH231464   3.391   4.845   8.054 -0.1590  0.0796  0.0529
 3302TIP3    H131465   3.473   4.829   8.100  0.2900  0.1270 -0.7272
 3302TIP3    H231466   3.337   4.893   8.117  1.0914  1.7208 -0.0843
 3303TIP3   OH231467   2.594   4.354   1.413  0.1069 -0.0325 -0.8260
 3303TIP3    H131468   2.665   4.402   1.370 -1.8944  3.1508 -0.9035
 3303TIP3    H231469   2.567   4.411   1.486 -2.7885 -0.7429 -1.2033
 3304TIP3   OH231470   5.219   2.139   0.591  0.1120  0.2017  0.8081
 3304TIP3    H131471   5.301   2.090   0.590  0.5189  0.8708  0.2226
 3304TIP3    H231472   5.176   2.116   0.508  0.8038  1.6194  0.0204
 3305TIP3   OH231473   0.733   2.606   7.417  0.1655  0.4397 -0.9417
 3305TIP3    H131474   0.817   2.564   7.395 -0.9712 -2.1707 -0.6374
 3305TIP3    H231475   0.753   2.699   7.416  3.1933 -0.0712 -0.4835
 3306TIP3   OH231476   6.383   5.723   1.585  0.4271 -0.3071 -0.0418
 3306TIP3    H131477   6.328   5.646   1.573  3.0344 -2.4281  0.6231
 3306TIP3    H231478   6.373   5.745   1.678  1.1665 -1.1343  0.2509
 3307TIP3   OH231479   6.331   0.626   1.073  0.0460  0.3543  0.3076
 3307TIP3    H131480   6.306   0.545   1.118 -0.7520 -0.5313 -1.6380
 3307TIP3    H231481   6.426   0.629   1.081  0.4258 -2.2849 -1.9259
 3308TIP3   OH231482   0.881   2.444   8.159 -0.3619 -0.3358  0.0072
 3308TIP3    H131483   0.807   2.392   8.128  0.6247 -0.8949 -1.5338
 3308TIP3    H231484   0.884   2.519   8.100  1.2576 -1.1636 -1.0336
 3309TIP3   OH231485   6.565   4.664   0.851  0.1955  0.1284 -0.5508
 3309TIP3    H131486   6.560   4.658   0.946 -0.2374 -1.8828 -0.6512
 3309TIP3    H231487   6.495   4.724   0.826  0.5515  0.9563  0.4061
 3310TIP3   OH231488   2.610   5.109   1.952  0.2165  0.4974 -0.9015
 3310TIP3    H131489   2.614   5.053   2.030  0.2571  2.1084  0.2877
 3310TIP3    H231490   2.572   5.052   1.884 -0.9601 -0.5880  0.5987
 3311TIP3   OH231491   0.978   0.158   0.553  1.0524 -0.7215 -0.8631
 3311TIP3    H131492   1.061   0.139   0.509  0.3680  0.2106 -2.6254
 3311TIP3    H231493   0.920   0.188   0.484 -1.1813 -2.5183  0.1071
 3312TIP3   OH231494   5.865   6.647   7.329  0.0069 -0.1864  1.0060
 3312TIP3    H131495   5.817   6.584   7.275  1.5853 -0.8798  0.3408
 3312TIP3    H231496   5.947   6.602   7.349  1.4610  1.8779 -0.0132
 3313TIP3   OH231497   2.738   3.668   6.678 -0.3583 -0.2584 -0.6691
 3313TIP3    H131498   2.668   3.689   6.617 -0.2318 -1.1910 -1.1534
 3313TIP3    H231499   2.819   3.684   6.630 -0.2313  0.6732 -0.1603
 3314TIP3   OH231500   1.088   6.559   0.994  0.1387 -0.6644 -0.0458
 3314TIP3    H131501   1.053   6.564   0.905  0.6495 -0.8862 -0.2583
 3314TIP3    H231502   1.111   6.467   1.005 -2.2835 -1.2219  1.2155
 3315TIP3   OH231503   1.630   3.748   6.879  0.0744  0.5983 -0.0562
 3315TIP3    H131504   1.695   3.734   6.811 -0.4660 -0.2931 -0.4130
 3315TIP3    H231505   1.555   3.694   6.852 -0.0798  0.0744  1.3323
 3316TIP3   OH231506   0.136   5.334   8.051 -0.8599  0.3661  0.7122
 3316TIP3    H131507   0.088   5.275   7.993 -0.0680  0.3769  0.0300
 3316TIP3    H231508   0.099   5.317   8.138  0.6480 -2.5938  0.9157
 3317TIP3   OH231509   0.257   3.199   0.919 -0.0989  0.0173  0.9098
 3317TIP3    H131510   0.177   3.215   0.970 -0.7851  0.1594 -0.1703
 3317TIP3    H231511   0.227   3.149   0.842  0.5488  1.4754 -0.3498
 3318TIP3   OH231512   0.791   2.596   6.968  0.4268  0.5648  0.0523
 3318TIP3    H131513   0.819   2.522   7.022 -1.7660 -0.3497  0.0310
 3318TIP3    H231514   0.700   2.610   6.993  0.3085  2.1754 -1.1782
 3319TIP3   OH231515   1.272   6.102   7.463  0.4437 -0.0164 -0.1279
 3319TIP3    H131516   1.214   6.039   7.506  1.5236  1.0240  3.1473
 3319TIP3    H231517   1.352   6.052   7.445  1.6821  0.4863  3.3833
 3320TIP3   OH231518   6.138   6.025   6.922  0.8374  0.1264 -0.1437
 3320TIP3    H131519   6.164   5.936   6.947  0.7596 -0.1307 -0.9301
 3320TIP3    H231520   6.152   6.027   6.827  0.1219  0.7147 -0.2374
 3321TIP3   OH231521   0.366   3.421   1.041  0.3706  0.0419 -0.3619
 3321TIP3    H131522   0.335   3.358   0.976 -0.2507 -1.7457  1.5578
 3321TIP3    H231523   0.442   3.462   1.001  0.6275 -1.7377 -1.8187
 3322TIP3   OH231524   1.457   5.452   1.097 -0.7473 -0.2136  0.0358
 3322TIP3    H131525   1.430   5.505   1.172 -0.6065  1.1307 -0.8231
 3322TIP3    H231526   1.375   5.415   1.063 -1.2457  1.6747 -0.9577
 3323TIP3   OH231527   0.573   4.416   1.454  0.5818 -0.4203  0.2133
 3323TIP3    H131528   0.564   4.479   1.526 -2.5625  1.2541 -1.4515
 3323TIP3    H231529   0.612   4.467   1.383 -1.6343 -0.3419 -1.0248
 3324TIP3   OH231530   2.982   3.841   8.549 -0.3999  0.2055  0.0332
 3324TIP3    H131531   2.970   3.824   8.456 -2.2897  0.1384  0.2681
 3324TIP3    H231532   3.045   3.913   8.552  0.2139 -0.2425 -1.2600
 3325TIP3   OH231533   3.572   1.167   7.561  0.0825  0.3325  0.3663
 3325TIP3    H131534   3.649   1.203   7.518  0.5466 -2.5833 -1.4512
 3325TIP3    H231535   3.606   1.100   7.620 -0.8402  1.8245  2.7351
 3326TIP3   OH231536   6.205   4.089   0.738 -0.0328 -0.0296 -0.2371
 3326TIP3    H131537   6.263   4.113   0.667  0.5124  0.5757  0.3969
 3326TIP3    H231538   6.263   4.057   0.807 -0.1115  3.1748  1.4972
 3327TIP3   OH231539   0.407   6.373   8.078 -0.3234 -0.5390  0.3027
 3327TIP3    H131540   0.465   6.399   8.149  0.4475  1.1338 -0.8621
 3327TIP3    H231541   0.414   6.444   8.014 -1.4460 -1.6904 -1.1836
 3328TIP3   OH231542   0.340   2.752   0.082  0.3317  0.1695  0.0007
 3328TIP3    H131543   0.361   2.659   0.086 -0.7529 -0.0463  2.4290
 3328TIP3    H231544   0.273   2.759   0.014 -0.3783 -1.0102  0.5564
 3329TIP3   OH231545   6.333   2.584   6.824  0.0408  0.5187  0.0728
 3329TIP3    H131546   6.353   2.669   6.864 -2.3980  0.4691  1.5860
 3329TIP3    H231547   6.278   2.605   6.749  0.1009  0.3111 -0.0291
 3330TIP3   OH231548   2.393   6.141   8.058 -0.1903  0.2379 -0.0236
 3330TIP3    H131549   2.485   6.120   8.075  0.7518  4.1263  0.7107
 3330TIP3    H231550   2.365   6.189   8.136 -1.9231  1.7140 -1.4694
 3331TIP3   OH231551   5.712   2.351   1.624  0.4114  0.2247 -0.2604
 3331TIP3    H131552   5.740   2.273   1.577 -0.0791 -0.7526  0.9834
 3331TIP3    H231553   5.712   2.421   1.559 -0.2357 -1.0577 -1.6927
 3332TIP3   OH231554   1.745   5.499   7.701  0.0920 -0.1115  0.0750
 3332TIP3    H131555   1.814   5.507   7.766  0.1319 -0.3782  0.0656
 3332TIP3    H231556   1.705   5.413   7.718 -1.1218  0.5975  0.9504
 3333TIP3   OH231557   2.190   2.578   2.296 -0.1060 -0.0022  0.0536
 3333TIP3    H131558   2.158   2.543   2.378  1.7168  0.2371  0.9298
 3333TIP3    H231559   2.154   2.666   2.291 -1.2709 -0.4729 -0.0660
 3334TIP3   OH231560   3.232   0.606   2.455  0.0069  0.2768 -0.4719
 3334TIP3    H131561   3.324   0.633   2.458 -0.4200  1.7898 -0.1852
 3334TIP3    H231562   3.235   0.510   2.457  1.5113  0.3039  1.2990
 3335TIP3   OH231563   4.025   2.700   8.245 -0.3149 -0.2593 -0.6700
 3335TIP3    H131564   3.953   2.690   8.182 -0.9316  1.0549 -0.2175
 3335TIP3    H231565   3.987   2.673   8.328  0.0800 -0.6710 -0.6205
 3336TIP3   OH231566   6.517   1.117   8.409 -0.3832 -0.1029 -0.1686
 3336TIP3    H131567   6.482   1.194   8.364  1.6555  1.2672  0.4399
 3336TIP3    H231568   6.447   1.090   8.469 -0.5901  2.2596  0.7369
 3337TIP3   OH231569   4.502   1.013   0.925 -0.0720  0.3651  0.2167
 3337TIP3    H131570   4.444   1.032   0.852  0.9733 -2.4283 -1.4959
 3337TIP3    H231571   4.590   1.021   0.888  0.6094  1.4387  1.9268
 3338TIP3   OH231572   6.303   1.310   8.334  0.6995  0.0436 -0.0675
 3338TIP3    H131573   6.288   1.370   8.407 -1.5794  0.6659 -0.9489
 3338TIP3    H231574   6.273   1.225   8.365 -1.6142  0.5826 -0.6530
 3339TIP3   OH231575   4.401   3.956   1.631 -0.0421  0.1719 -0.3010
 3339TIP3    H131576   4.317   3.913   1.614  0.2942 -1.7190  2.2192
 3339TIP3    H231577   4.381   4.022   1.697  0.1143  1.3926 -1.4226
 3340TIP3   OH231578   3.312   1.412   0.875  0.1268 -0.3500  0.1479
 3340TIP3    H131579   3.375   1.483   0.888 -1.0363  0.8871 -0.6407
 3340TIP3    H231580   3.351   1.356   0.808  1.3642 -0.8516  1.2679
 3341TIP3   OH231581   3.528   4.134   2.017 -0.1352 -0.0247  0.3423
 3341TIP3    H131582   3.446   4.098   1.983 -0.1910  0.0691  0.3779
 3341TIP3    H231583   3.503   4.219   2.054  0.2910  0.8255 -1.2304
 3342TIP3   OH231584   3.951   5.403   7.945  0.0919 -0.4140 -0.1272
 3342TIP3    H131585   3.896   5.332   7.979  1.1149 -0.5444  1.3278
 3342TIP3    H231586   4.031   5.359   7.916  0.5729  0.0937  0.4175
 3343TIP3   OH231587   6.313   1.183   0.688 -0.0924 -0.3092 -0.4972
 3343TIP3    H131588   6.379   1.130   0.645 -1.2345 -0.0580 -2.7122
 3343TIP3    H231589   6.256   1.120   0.732  0.4649 -0.6407 -0.2309
 3344TIP3   OH231590   2.045   1.316   1.920 -0.5334 -0.2617 -0.1740
 3344TIP3    H131591   2.097   1.302   1.840 -1.8387 -0.9405 -0.9438
 3344TIP3    H231592   2.011   1.405   1.911  0.9287  0.4061  0.6184
 3345TIP3   OH231593   5.914   3.403   6.474 -0.0577 -1.1776  0.8275
 3345TIP3    H131594   5.868   3.340   6.418  0.1163  0.7352 -1.6776
 3345TIP3    H231595   5.974   3.448   6.414 -0.0901  1.2528  2.4901
 3346TIP3   OH231596   5.477   5.050   1.088  0.5715 -0.2059 -0.2267
 3346TIP3    H131597   5.424   5.043   1.167 -0.3098  2.0899 -0.5534
 3346TIP3    H231598   5.416   5.033   1.016  0.3546  1.7652 -0.5667
 3347TIP3   OH231599   4.830   6.487   1.138 -0.1224  0.3429 -0.0139
 3347TIP3    H131600   4.812   6.484   1.044 -0.2283  0.6770 -0.0052
 3347TIP3    H231601   4.849   6.396   1.162  0.5411  0.3475 -0.4807
 3348TIP3   OH231602   6.651   1.884   1.277  0.0950 -0.3274  0.3502
 3348TIP3    H131603   6.707   1.914   1.348 -2.2347  2.2051  1.2608
 3348TIP3    H231604   6.599   1.814   1.316 -1.1821  1.0578  1.2238
 3349TIP3   OH231605   6.109   0.545   7.086  0.3713  0.1086 -0.2492
 3349TIP3    H131606   6.077   0.497   7.162  1.3459  1.6111  1.1612
 3349TIP3    H231607   6.055   0.624   7.083  0.7085  0.3264 -0.8033
 3350TIP3   OH231608   0.290   5.222   0.290 -0.1591 -0.5077 -0.2027
 3350TIP3    H131609   0.371   5.230   0.241  0.4765  1.2716  1.0318
 3350TIP3    H231610   0.231   5.286   0.250  0.4325  1.1104  1.3513
 3351TIP3   OH231611   4.237   3.959   2.935  0.0574 -0.6071 -0.2646
 3351TIP3    H131612   4.199   4.034   2.890  0.0304 -0.3545  0.1693
 3351TIP3    H231613   4.331   3.977   2.936 -0.0370 -0.0626  0.7353
 3352TIP3   OH231614   5.523   2.797   2.139 -0.0325 -0.4364  0.4137
 3352TIP3    H131615   5.534   2.704   2.123  0.6777 -0.3446  0.3282
 3352TIP3    H231616   5.575   2.840   2.072 -0.6724  0.0344  0.2097
 3353TIP3   OH231617   1.647   5.750   7.637  0.0024  0.0844  0.4255
 3353TIP3    H131618   1.664   5.670   7.688 -0.8927  1.0965  2.4081
 3353TIP3    H231619   1.733   5.787   7.621  0.4224 -1.1633 -0.3865
 3354TIP3   OH231620   0.787   6.672   0.962 -0.2043  0.2014  0.3294
 3354TIP3    H131621   0.837   6.720   1.028 -0.1812  0.4927  0.1009
 3354TIP3    H231622   0.833   6.688   0.880  0.0928 -0.6223  0.3245
 3355TIP3   OH231623   5.435   2.199   7.426 -0.5045 -0.5787  0.0023
 3355TIP3    H131624   5.358   2.150   7.454 -0.0556 -0.9757  0.5563
 3355TIP3    H231625   5.399   2.270   7.373 -1.0544 -2.7336 -2.7166
 3356TIP3   OH231626   2.243   2.193   7.132  0.1811 -0.0131 -0.1482
 3356TIP3    H131627   2.212   2.212   7.220 -1.2522 -0.7534 -0.4605
 3356TIP3    H231628   2.171   2.146   7.091  0.7717  0.4096 -1.7560
 3357TIP3   OH231629   5.012   2.746   8.509 -0.1808  0.6550  0.0340
 3357TIP3    H131630   4.984   2.778   8.423  0.9555 -0.2314 -0.6944
 3357TIP3    H231631   5.026   2.825   8.560  0.5005  1.2623 -1.0474
 3358TIP3   OH231632   5.454   3.801   7.789 -0.0997 -0.0329  0.0490
 3358TIP3    H131633   5.542   3.795   7.828 -1.0547 -0.2956  2.2942
 3358TIP3    H231634   5.406   3.859   7.848 -1.6964 -0.6285 -0.6333
 3359TIP3   OH231635   5.257   4.167   2.424  0.2852  0.3924  0.1157
 3359TIP3    H131636   5.207   4.247   2.409 -0.4000  0.1515  1.0438
 3359TIP3    H231637   5.210   4.122   2.493 -0.8137 -2.0945 -2.1007
 3360TIP3   OH231638   0.053   4.795   0.012 -0.0726  0.5095  0.0823
 3360TIP3    H131639   0.059   4.809  -0.083  1.7969  2.0412  0.3602
 3360TIP3    H231640   0.004   4.871   0.044 -0.0314  0.3937  0.4163
 3361TIP3   OH231641   3.283   1.461   7.081  0.1911  0.8578  0.0536
 3361TIP3    H131642   3.347   1.392   7.063  0.6521  0.8061  1.7474
 3361TIP3    H231643   3.199   1.415   7.085  0.4519  0.4464  0.8466
 3362TIP3   OH231644   3.201   6.564   8.155 -0.1583 -0.3819 -0.6845
 3362TIP3    H131645   3.217   6.633   8.091  0.8829 -1.8353 -2.0814
 3362TIP3    H231646   3.259   6.585   8.228  0.2057  0.1829 -1.1278
 3363TIP3   OH231647   1.335   0.442   1.818 -0.7542  0.2291  0.0804
 3363TIP3    H131648   1.312   0.393   1.739  0.9286  0.1082 -0.3634
 3363TIP3    H231649   1.290   0.396   1.889 -1.3435 -0.3560 -0.6618
 3364TIP3   OH231650   0.571   0.421   8.173  0.8634 -0.2045  0.0801
 3364TIP3    H131651   0.568   0.487   8.104  3.2576  2.6814  2.3906
 3364TIP3    H231652   0.498   0.444   8.231  0.1342 -1.2789 -0.3939
 3365TIP3   OH231653   2.937   1.771   8.605 -0.3019 -0.3728 -0.5094
 3365TIP3    H131654   2.922   1.718   8.683  0.5328 -1.7805 -1.2565
 3365TIP3    H231655   2.862   1.753   8.548  0.1368 -1.0443 -0.8947
 3366TIP3   OH231656   0.536   0.157   7.622  0.2800  0.3914  0.3421
 3366TIP3    H131657   0.449   0.191   7.643  0.9280  1.6583  1.1000
 3366TIP3    H231658   0.530   0.129   7.531 -0.2399  2.8705 -0.4568
 3367TIP3   OH231659   6.003   5.794   7.936  0.3355  0.6418  0.1876
 3367TIP3    H131660   5.986   5.700   7.931  0.8755  0.5283  0.3933
 3367TIP3    H231661   5.999   5.814   8.029  1.2883  0.6121  0.2433
 3368TIP3   OH231662   5.822   2.859   7.939  0.9356  0.3163 -0.0859
 3368TIP3    H131663   5.799   2.766   7.944  0.4844  0.3537 -1.1789
 3368TIP3    H231664   5.887   2.865   7.869  0.6102  0.8796 -0.3530
 3369TIP3   OH231665   4.423   0.982   7.692 -0.2769  0.4438 -0.2954
 3369TIP3    H131666   4.513   0.955   7.674 -0.5449 -0.9290  0.2915
 3369TIP3    H231667   4.431   1.072   7.724  1.1905 -0.4884  2.2028
 3370TIP3   OH231668   1.472   6.880   8.400 -0.0182  0.3834  0.0314
 3370TIP3    H131669   1.389   6.844   8.431  0.4902 -0.4249  0.4842
 3370TIP3    H231670   1.446   6.953   8.344 -1.0679 -0.3810 -0.5297
 3371TIP3   OH231671   6.010   4.743   7.727 -0.0557  0.3077 -0.4164
 3371TIP3    H131672   6.043   4.673   7.672 -0.0399  0.9072 -1.1844
 3371TIP3    H231673   5.919   4.755   7.700 -0.5922 -0.5440  0.8837
 3372TIP3   OH231674   1.438   3.093   0.678  0.1946  0.1818 -0.1202
 3372TIP3    H131675   1.393   3.030   0.734  0.3404 -0.3974 -0.6382
 3372TIP3    H231676   1.419   3.064   0.589  1.8538 -0.3025 -0.3597
 3373TIP3   OH231677   4.810   6.291   7.772 -0.6140 -0.2664  0.2168
 3373TIP3    H131678   4.844   6.351   7.706  0.5887 -0.2662  0.7997
 3373TIP3    H231679   4.722   6.323   7.792 -0.3320  0.7528 -0.1423
 3374TIP3   OH231680   1.976   2.120   0.895  0.2943 -0.3574  0.5979
 3374TIP3    H131681   1.987   2.030   0.865 -1.8043 -0.9379  1.4078
 3374TIP3    H231682   1.901   2.153   0.845 -0.0511  0.3451  1.5546
 3375TIP3   OH231683   0.811   6.158   6.632  0.1754 -0.2834  0.8871
 3375TIP3    H131684   0.892   6.189   6.674 -0.7132  2.1191  0.9929
 3375TIP3    H231685   0.839   6.131   6.544  0.8179  3.0200 -0.0686
 3376TIP3   OH231686   6.781   1.616   0.161  0.5730 -0.4041 -0.5724
 3376TIP3    H131687   6.757   1.569   0.080 -1.1592 -1.7830  0.6531
 3376TIP3    H231688   6.791   1.546   0.226 -0.0076  0.7875  0.8454
 3377TIP3   OH231689   2.172   4.329   2.460 -0.3057 -0.0269  0.1524
 3377TIP3    H131690   2.192   4.380   2.381  0.5982 -0.6184 -0.0121
 3377TIP3    H231691   2.114   4.386   2.510  1.8592  1.8715  0.6965
 3378TIP3   OH231692   4.802   0.612   0.768  0.6109 -0.0162 -0.2272
 3378TIP3    H131693   4.890   0.640   0.794  0.8282 -1.1384  0.2905
 3378TIP3    H231694   4.764   0.577   0.848  0.0054 -0.3260 -0.6495
 3379TIP3   OH231695   2.245   2.522   8.613 -0.3639  0.7514 -0.3137
 3379TIP3    H131696   2.291   2.481   8.687  0.3767 -1.1841 -1.7644
 3379TIP3    H231697   2.297   2.599   8.592  0.3604  0.3962  0.1481
 3380TIP3   OH231698   3.260   3.900   2.393 -0.1210 -0.1708  0.3737
 3380TIP3    H131699   3.204   3.859   2.459 -1.2831  0.8230  0.0578
 3380TIP3    H231700   3.254   3.842   2.317 -2.2181  0.7822 -0.2725
 3381TIP3   OH231701   6.170   1.779   7.383  0.3211 -0.0120  0.8636
 3381TIP3    H131702   6.210   1.694   7.362  0.2196  0.4657 -1.5559
 3381TIP3    H231703   6.153   1.775   7.477 -0.0769 -2.8324  0.7510
 3382TIP3   OH231704   5.218   3.841   7.587 -0.8798 -0.7295 -0.1576
 3382TIP3    H131705   5.156   3.783   7.543 -2.6294 -1.5459  3.0445
 3382TIP3    H231706   5.261   3.785   7.652  0.6461  0.6115  0.0565
 3383TIP3   OH231707   3.958   4.958   0.834 -0.0766  0.8046  0.2146
 3383TIP3    H131708   3.900   4.882   0.834 -0.1587  0.8669  0.8123
 3383TIP3    H231709   3.968   4.980   0.741  0.6590 -0.4705 -0.0386
 3384TIP3   OH231710   1.525   0.932   0.251 -0.2952  0.4751 -0.2519
 3384TIP3    H131711   1.442   0.884   0.255 -0.5991  0.9413 -0.7764
 3384TIP3    H231712   1.554   0.922   0.160  0.3954  0.0364  0.0089
 3385TIP3   OH231713   5.652   5.637   1.028 -0.0005  0.2567 -0.3298
 3385TIP3    H131714   5.731   5.645   1.080 -1.1300 -1.1436  1.7798
 3385TIP3    H231715   5.580   5.646   1.091 -1.4474 -2.0236 -1.4963
 3386TIP3   OH231716   0.643   6.605   7.007 -0.1575  0.2382 -0.4176
 3386TIP3    H131717   0.623   6.519   6.970 -1.2694  0.9951 -1.6389
 3386TIP3    H231718   0.653   6.662   6.931 -0.0891  1.3348  0.3925
 3387TIP3   OH231719   4.563   4.114   1.895  0.2968  0.1800  0.2485
 3387TIP3    H131720   4.641   4.074   1.855  0.3852 -0.2466  0.8441
 3387TIP3    H231721   4.567   4.205   1.866  0.9913  0.1514  0.2190
 3388TIP3   OH231722   6.146   6.336   1.749  0.3443  0.5222 -0.4459
 3388TIP3    H131723   6.130   6.277   1.824  0.5400  0.8338 -0.1566
 3388TIP3    H231724   6.160   6.277   1.675 -1.1342  0.2228 -0.5168
 3389TIP3   OH231725   1.915   5.202   7.243 -0.3343  0.5957  0.6135
 3389TIP3    H131726   1.874   5.238   7.321  2.4234  1.4735  1.7874
 3389TIP3    H231727   1.920   5.108   7.259  1.0455  0.8699  1.9846
 3390TIP3   OH231728   1.694   5.892   2.659  0.0613 -0.2334 -0.3498
 3390TIP3    H131729   1.696   5.830   2.731  1.9688  0.4095  0.2041
 3390TIP3    H231730   1.729   5.844   2.584  0.0568 -0.2741 -0.3255
 3391TIP3   OH231731   4.156   3.930   7.816 -0.1651 -0.5171  0.7510
 3391TIP3    H131732   4.201   3.981   7.883 -2.7568  0.1679  2.1155
 3391TIP3    H231733   4.117   3.857   7.865 -0.9512 -0.8059 -0.2813
 3392TIP3   OH231734   4.563   2.480   0.030 -0.1979  0.3180  0.3946
 3392TIP3    H131735   4.548   2.387   0.011  0.0362  0.3701 -0.0448
 3392TIP3    H231736   4.543   2.525  -0.052 -1.4236  0.7791  0.9097
 3393TIP3   OH231737   2.095   5.902   0.403 -0.3212  0.6327  0.0157
 3393TIP3    H131738   2.175   5.925   0.356 -0.6072  1.6723 -0.0030
 3393TIP3    H231739   2.119   5.908   0.496 -0.5451  1.6468  0.0194
 3394TIP3   OH231740   4.708   5.575   1.478  0.2489  0.6683  0.3134
 3394TIP3    H131741   4.754   5.583   1.394 -1.4694 -0.2018 -0.7451
 3394TIP3    H231742   4.714   5.663   1.517  0.7106  1.1949 -0.9050
 3395TIP3   OH231743   3.880   5.378   8.601 -0.2865 -0.1435  0.3828
 3395TIP3    H131744   3.825   5.415   8.532  0.6870  0.8543  0.1126
 3395TIP3    H231745   3.907   5.292   8.567  0.2043  0.3488 -0.5039
 3396TIP3   OH231746   5.227   3.332   1.032 -0.0318 -0.0991  0.1945
 3396TIP3    H131747   5.141   3.312   0.995 -0.5242  0.5137  0.9847
 3396TIP3    H231748   5.261   3.403   0.978  0.0492 -0.4338 -0.2040
 3397TIP3   OH231749   0.757   4.491   7.022 -0.1019 -0.9537 -0.0803
 3397TIP3    H131750   0.820   4.427   7.057 -0.0590  0.6593  3.1917
 3397TIP3    H231751   0.709   4.522   7.099 -2.6065  0.3857 -2.0097
 3398TIP3   OH231752   3.520   0.845   7.129  0.7239  0.0473  0.0472
 3398TIP3    H131753   3.601   0.895   7.139 -0.0207  1.4220 -0.4015
 3398TIP3    H231754   3.522   0.816   7.038 -0.3034  2.0831 -0.7010
 3399TIP3   OH231755   3.057   3.939   0.565 -0.0514 -0.5643  0.6520
 3399TIP3    H131756   3.001   4.014   0.583  0.2769  0.3698 -1.7956
 3399TIP3    H231757   2.998   3.871   0.532  0.1048  0.1743 -1.2519
 3400TIP3   OH231758   5.293   6.792   8.231  0.1015 -0.1545  0.8048
 3400TIP3    H131759   5.369   6.769   8.177  0.5551  0.2785  1.2457
 3400TIP3    H231760   5.230   6.723   8.213  0.2704 -0.0699 -0.2109
 3401TIP3   OH231761   2.430   2.225   0.322  0.5645  0.1780  0.1006
 3401TIP3    H131762   2.521   2.242   0.298  0.8073 -0.6089  0.4395
 3401TIP3    H231763   2.413   2.136   0.293 -0.2073  0.4369 -0.2601
 3402TIP3   OH231764   6.864   3.079   8.175  0.1944 -0.1294 -0.2388
 3402TIP3    H131765   6.841   3.096   8.083  2.1762 -1.3637 -1.0176
 3402TIP3    H231766   6.785   3.040   8.212 -1.5599  2.7396 -0.6485
 3403TIP3   OH231767   4.183   0.170   1.656  0.7838  0.5525  0.1735
 3403TIP3    H131768   4.217   0.165   1.745  0.3423  1.7866  0.4403
 3403TIP3    H231769   4.214   0.254   1.623  2.7882 -0.8054 -1.6713
 3404TIP3   OH231770   0.548   4.254   7.562  0.4280 -0.1736 -0.6040
 3404TIP3    H131771   0.487   4.204   7.508  0.0013 -1.0949  0.6754
 3404TIP3    H231772   0.580   4.191   7.627  1.1759  0.8062  0.0152
 3405TIP3   OH231773   5.514   6.244   1.117  0.3504  0.2289 -0.6683
 3405TIP3    H131774   5.583   6.301   1.153 -1.4142  0.9992  1.7619
 3405TIP3    H231775   5.558   6.160   1.104  1.8714  0.7904  0.4379
 3406TIP3   OH231776   4.227   2.474   7.861  0.0722  0.2924  0.1927
 3406TIP3    H131777   4.319   2.452   7.843 -0.2431 -0.3341 -0.7737
 3406TIP3    H231778   4.229   2.519   7.945  1.3401  0.8700 -0.1202
 3407TIP3   OH231779   2.854   5.614   1.011  0.1390  0.0397 -0.5220
 3407TIP3    H131780   2.799   5.642   0.938 -0.7757  0.3613  0.2555
 3407TIP3    H231781   2.792   5.580   1.075  0.9998 -1.0540 -0.2479
 3408TIP3   OH231782   0.950   4.769   6.486 -0.3382 -0.1156 -0.3399
 3408TIP3    H131783   1.040   4.790   6.462 -0.4188 -0.5648 -1.0591
 3408TIP3    H231784   0.917   4.849   6.527 -0.0506  0.5409 -1.3525
 3409TIP3   OH231785   5.725   0.212   0.529 -0.1678 -0.3525  0.0089
 3409TIP3    H131786   5.717   0.196   0.623  0.6991 -2.4837 -0.2229
 3409TIP3    H231787   5.658   0.157   0.489  0.5695 -0.7718 -0.6863
 3410TIP3   OH231788   5.377   5.855   2.406 -0.1335 -0.3150  0.1908
 3410TIP3    H131789   5.393   5.949   2.413 -1.2515 -0.0593 -0.3375
 3410TIP3    H231790   5.458   5.814   2.436  0.2211  0.8077  0.8271
 3411TIP3   OH231791   6.022   2.515   0.674  0.1073 -0.0639 -0.0937
 3411TIP3    H131792   6.004   2.518   0.767 -0.4243  0.6968 -0.2060
 3411TIP3    H231793   6.090   2.448   0.664  0.3012 -0.0191  0.8537
 3412TIP3   OH231794   1.822   0.723   0.332 -0.4319 -0.5525  0.1945
 3412TIP3    H131795   1.793   0.648   0.385 -1.1742 -1.2677 -1.1579
 3412TIP3    H231796   1.753   0.733   0.266  0.3437  0.4633 -0.4855
 3413TIP3   OH231797   1.012   4.990   7.205  0.4194  0.0171  0.2918
 3413TIP3    H131798   0.938   4.990   7.267 -0.4297  0.1116 -0.7035
 3413TIP3    H231799   1.027   4.898   7.185  2.1047 -0.2153  2.2268
 3414TIP3   OH231800   0.149   1.923   2.050 -0.4392  0.0139 -0.0290
 3414TIP3    H131801   0.227   1.892   2.004  0.6415 -0.3551  1.9410
 3414TIP3    H231802   0.079   1.866   2.020 -0.1054  0.6711 -2.2196
 3415TIP3   OH231803   2.995   5.134   0.923  0.3015  0.2597  0.6486
 3415TIP3    H131804   3.001   5.226   0.897 -1.9308  0.4758  0.6904
 3415TIP3    H231805   3.004   5.085   0.842  1.0519  0.5123  0.5679
 3416TIP3   OH231806   0.635   3.897   0.152 -0.0574  0.1775  0.5161
 3416TIP3    H131807   0.596   3.983   0.170  0.3657  0.3889  0.4357
 3416TIP3    H231808   0.561   3.844   0.121  0.2409  1.5669 -3.0283
 3417TIP3   OH231809   6.192   3.159   0.186 -0.4665 -0.2115  0.0083
 3417TIP3    H131810   6.268   3.165   0.243 -1.6115 -1.9358  1.8743
 3417TIP3    H231811   6.188   3.243   0.141  3.3908 -0.6047 -1.4006
 3418TIP3   OH231812   6.020   0.346   6.768  0.7354  0.0871 -0.1337
 3418TIP3    H131813   6.067   0.298   6.836  1.7071 -0.0686 -0.8969
 3418TIP3    H231814   6.084   0.357   6.698  0.4607  2.1896 -0.1406
 3419TIP3   OH231815   5.469   2.864   1.478  0.0275 -0.1515  0.6777
 3419TIP3    H131816   5.427   2.852   1.563  2.0172  0.6779  1.8503
 3419TIP3    H231817   5.562   2.849   1.495  0.7221  1.9173 -0.9252
 3420TIP3   OH231818   2.189   5.143   7.811 -0.6615  0.3459  0.6104
 3420TIP3    H131819   2.215   5.234   7.824  1.0640  0.5495 -2.9401
 3420TIP3    H231820   2.271   5.094   7.811 -0.8916 -0.3056 -2.5003
 3421TIP3   OH231821   5.819   6.247   6.514  0.6214  0.1815  0.1723
 3421TIP3    H131822   5.861   6.288   6.590  0.2372  0.5582  0.1882
 3421TIP3    H231823   5.732   6.288   6.510  1.4601  1.9981 -1.8969
 3422TIP3   OH231824   4.105   3.697   0.617 -0.4232 -0.0919  0.3573
 3422TIP3    H131825   4.111   3.683   0.712 -1.3409  0.2262  0.4740
 3422TIP3    H231826   4.175   3.643   0.580  0.9228  0.9050  1.3141
 3423TIP3   OH231827   1.912   2.612   7.076 -0.0457 -0.1117 -0.7148
 3423TIP3    H131828   1.893   2.650   6.991  2.6801 -0.4618 -1.5819
 3423TIP3    H231829   1.959   2.531   7.057  0.9753 -0.0083  1.0992
 3424TIP3   OH231830   1.798   1.588   1.176 -0.5786 -0.0205  0.1530
 3424TIP3    H131831   1.813   1.507   1.224 -1.8801 -1.9111 -2.3798
 3424TIP3    H231832   1.820   1.567   1.085 -2.3835  1.9876 -0.8449
 3425TIP3   OH231833   2.645   5.916   7.863 -0.2624  0.8205 -0.4364
 3425TIP3    H131834   2.722   5.868   7.832  0.5424  1.4066  0.5763
 3425TIP3    H231835   2.669   6.008   7.853 -0.4913  1.0180  0.6456
 3426TIP3   OH231836   6.387   0.965   0.098  0.2866 -0.1011  0.1730
 3426TIP3    H131837   6.378   0.916   0.016 -0.5764 -0.0136  0.2019
 3426TIP3    H231838   6.406   1.055   0.070  0.0972 -0.0921  0.0713
 3427TIP3   OH231839   1.663   4.589   2.417 -0.3277  0.8247  0.0497
 3427TIP3    H131840   1.669   4.624   2.506  1.3693  1.5763 -0.3052
 3427TIP3    H231841   1.652   4.667   2.362  1.8673  0.7211 -0.6272
 3428TIP3   OH231842   4.102   0.000   7.301  0.0413  0.2499  0.1334
 3428TIP3    H131843   4.178   0.025   7.354  1.2901 -0.7855 -1.0840
 3428TIP3    H231844   4.092   0.073   7.239 -0.3507  0.6760  0.6966
 3429TIP3   OH231845   6.341   6.321   2.100  0.0342  0.1275 -0.0025
 3429TIP3    H131846   6.410   6.279   2.150  0.2708  2.0839  1.4256
 3429TIP3    H231847   6.387   6.371   2.032 -0.0920 -0.0338 -0.2082
 3430TIP3   OH231848   4.036   1.648   0.327  0.4260  0.5356 -0.0389
 3430TIP3    H131849   3.972   1.592   0.371 -0.4412  0.2231 -1.6029
 3430TIP3    H231850   4.046   1.723   0.385 -1.9044  0.9158 -0.0049
 3431TIP3   OH231851   5.735   2.783   1.567 -0.2723 -0.1706 -0.6150
 3431TIP3    H131852   5.741   2.689   1.550 -0.9763 -0.5111  0.8712
 3431TIP3    H231853   5.816   2.804   1.614 -0.3005 -0.1098 -0.5941
 3432TIP3   OH231854   3.723   4.174   1.835  0.4317  0.2076 -0.3468
 3432TIP3    H131855   3.736   4.090   1.791  0.4576 -1.2555  2.1977
 3432TIP3    H231856   3.656   4.156   1.901  0.8533  2.0189  0.6469
 3433TIP3   OH231857   6.225   5.429   8.225 -0.2223 -0.5319 -0.4708
 3433TIP3    H131858   6.300   5.469   8.180  1.1234 -1.9147  0.4066
 3433TIP3    H231859   6.263   5.390   8.303 -2.2304  0.4054  1.0508
 3434TIP3   OH231860   6.514   2.563   7.128 -0.0295  0.2244  0.4855
 3434TIP3    H131861   6.518   2.470   7.150  2.2147  0.4661  1.3484
 3434TIP3    H231862   6.457   2.601   7.195 -1.2933 -0.5231 -0.1057
 3435TIP3   OH231863   2.378   3.279   1.162 -0.2872 -0.0002  0.0199
 3435TIP3    H131864   2.417   3.192   1.160  0.5295  0.3530  0.3523
 3435TIP3    H231865   2.440   3.336   1.117 -1.8519  0.0462 -2.2620
 3436TIP3   OH231866   2.523   3.831   0.965 -0.4143 -0.2681 -0.3095
 3436TIP3    H131867   2.559   3.918   0.982  3.1793 -1.1804 -2.2164
 3436TIP3    H231868   2.568   3.774   1.027  0.5183 -1.2586 -1.8143
 3437TIP3   OH231869   2.098   4.516   0.004  0.6296 -0.4032  0.3047
 3437TIP3    H131870   2.050   4.549   0.081  0.2026  0.6517 -0.3896
 3437TIP3    H231871   2.170   4.465   0.041  1.0990  1.0065  1.4447
 3438TIP3   OH231872   4.256   6.141   8.217 -0.3075 -0.3588  0.1517
 3438TIP3    H131873   4.217   6.127   8.131  0.2871 -1.8819  0.0985
 3438TIP3    H231874   4.239   6.060   8.265  1.5986 -0.5601  0.5732
 3439TIP3   OH231875   4.410   0.722   0.431 -0.0853 -0.1207  0.4014
 3439TIP3    H131876   4.371   0.688   0.351  2.6073 -0.4156 -0.8921
 3439TIP3    H231877   4.451   0.646   0.472  0.6090  0.4450  0.7874
 3440TIP3   OH231878   1.088   3.750   0.015 -0.2314 -0.0263  0.5818
 3440TIP3    H131879   1.002   3.753  -0.027 -1.1886  0.1519  2.4214
 3440TIP3    H231880   1.084   3.674   0.073  0.6277  0.3152  1.1227
 3441TIP3   OH231881   5.952   1.520   7.893 -0.4535 -0.2385  1.0189
 3441TIP3    H131882   5.969   1.534   7.800  0.0669 -0.2922  1.1014
 3441TIP3    H231883   5.857   1.519   7.901 -0.5282 -1.9744  0.2228
 3442TIP3   OH231884   6.518   2.118   7.808 -0.0837 -0.7728  0.3569
 3442TIP3    H131885   6.555   2.084   7.726 -0.2309 -1.2562  0.4918
 3442TIP3    H231886   6.561   2.068   7.877 -0.5426 -0.9111  0.5428
 3443TIP3   OH231887   4.776   0.955   0.423  0.2502 -0.3824 -0.3158
 3443TIP3    H131888   4.858   0.915   0.393  1.8305  2.1573  0.2598
 3443TIP3    H231889   4.760   0.915   0.508  0.6527 -1.2141 -0.6143
 3444TIP3   OH231890   4.959   2.798   8.245  0.0458 -0.7394 -0.0142
 3444TIP3    H131891   5.034   2.857   8.234 -1.6867  1.5954 -0.0519
 3444TIP3    H231892   4.960   2.744   8.166  0.5226  0.6902 -1.0445
 3445TIP3   OH231893   1.536   2.261   7.741 -0.1472 -0.1469 -0.0830
 3445TIP3    H131894   1.585   2.343   7.746  0.3662 -0.4528 -0.0468
 3445TIP3    H231895   1.533   2.230   7.832 -0.3971 -0.1326 -0.0875
 3446TIP3   OH231896   0.614   3.321   1.386  0.1102 -0.4291 -0.0940
 3446TIP3    H131897   0.541   3.383   1.376 -0.5689 -0.9715  1.2182
 3446TIP3    H231898   0.647   3.338   1.474  0.7632 -1.0427 -0.2153
 3447TIP3   OH231899   6.164   4.729   0.332 -0.3266 -0.5531 -0.0032
 3447TIP3    H131900   6.100   4.796   0.355 -2.2512 -2.5640  0.8238
 3447TIP3    H231901   6.173   4.677   0.411 -0.0425 -2.1629 -1.0512
 3448TIP3   OH231902   5.682   4.915   7.760  0.3842 -0.4732  0.1483
 3448TIP3    H131903   5.728   4.834   7.780  0.8185 -0.1054  0.6375
 3448TIP3    H231904   5.698   4.972   7.835  1.6606  0.7598 -0.9948
 3449TIP3   OH231905   1.728   4.583   8.039  0.2466 -0.1990  0.0007
 3449TIP3    H131906   1.803   4.630   8.003 -0.4415  0.0957 -1.0619
 3449TIP3    H231907   1.660   4.649   8.049  0.0807 -0.4830  0.8701
 3450TIP3   OH231908   6.067   4.161   8.165 -0.3898  0.4138  0.4236
 3450TIP3    H131909   6.157   4.143   8.137  0.2554  2.2241  1.1630
 3450TIP3    H231910   6.013   4.102   8.112  1.0996  0.5533 -1.3596
 3451TIP3   OH231911   4.469   0.154   1.048  0.4152 -0.5728  0.3320
 3451TIP3    H131912   4.546   0.160   0.992 -0.1840 -0.5966 -0.5261
 3451TIP3    H231913   4.396   0.178   0.990 -0.1671 -0.0471  1.2486
 3452TIP3   OH231914   6.731   4.656   7.106 -0.6652 -0.1636  0.3644
 3452TIP3    H131915   6.707   4.713   7.033  1.0349  0.1943  0.0531
 3452TIP3    H231916   6.652   4.603   7.122 -2.0493  1.7708  0.2212
 3453TIP3   OH231917   6.777   5.461   1.330 -0.3287  0.0119 -0.2038
 3453TIP3    H131918   6.717   5.534   1.317  0.3980  0.3538 -1.8530
 3453TIP3    H231919   6.734   5.386   1.288 -0.8386 -0.4246  1.0390
 3454TIP3   OH231920   4.479   0.690   2.056 -0.5517  0.1285  0.3727
 3454TIP3    H131921   4.466   0.706   1.963 -0.4811 -1.7834 -0.0093
 3454TIP3    H231922   4.450   0.771   2.099 -1.1642  0.8155 -1.2626
 3455TIP3   OH231923   3.754   1.420   0.930  0.1092 -0.2081  0.4756
 3455TIP3    H131924   3.702   1.368   0.992  0.4579  0.9439  1.8013
 3455TIP3    H231925   3.738   1.380   0.845 -1.0485 -1.3500  1.1972
 3456TIP3   OH231926   3.061   3.014   1.287  0.0852 -0.3564  0.0465
 3456TIP3    H131927   3.054   2.950   1.216 -0.1713  2.3519 -2.5633
 3456TIP3    H231928   3.090   3.094   1.244 -0.9309  1.6855  2.8955
 3457TIP3   OH231929   2.331   4.913   6.567  0.7954  0.1201 -0.2573
 3457TIP3    H131930   2.328   5.008   6.578  0.8194  0.0809  0.0960
 3457TIP3    H231931   2.285   4.897   6.484  3.3315  0.6996 -1.9019
 3458TIP3   OH231932   1.208   4.751   0.356  0.2217 -0.1735  0.1540
 3458TIP3    H131933   1.136   4.730   0.415  0.4473 -3.6197 -0.5983
 3458TIP3    H231934   1.171   4.746   0.268  0.6169  1.7489 -0.1799
 3459TIP3   OH231935   0.320   3.325   1.762 -0.1576 -0.2006 -0.1729
 3459TIP3    H131936   0.408   3.288   1.757  0.4529  1.1177  0.4115
 3459TIP3    H231937   0.289   3.302   1.849  0.6344  1.4906  0.5901
 3460TIP3   OH231938   4.820   1.522   7.731  0.4427 -0.0363 -0.4688
 3460TIP3    H131939   4.797   1.531   7.638 -1.9536 -0.6879 -0.0037
 3460TIP3    H231940   4.747   1.472   7.769  1.3521  0.2452  1.7744
 3461TIP3   OH231941   5.146   0.105   6.149 -0.1112  0.4934  0.2011
 3461TIP3    H131942   5.211   0.070   6.210 -0.3000  0.2829  0.2837
 3461TIP3    H231943   5.119   0.030   6.097  0.8121  0.8659 -0.8643
 3462TIP3   OH231944   6.735   1.415   0.597  0.4383  0.4498  0.1065
 3462TIP3    H131945   6.759   1.340   0.651  1.4831  1.2738  0.8284
 3462TIP3    H231946   6.727   1.488   0.659  1.9804  1.4927 -0.8503
 3463TIP3   OH231947   2.094   0.888   7.574 -0.0494 -0.1994  0.0188
 3463TIP3    H131948   2.010   0.930   7.595  1.3193  1.8208  1.9714
 3463TIP3    H231949   2.101   0.817   7.637 -0.1102 -0.1069  0.1310
 3464TIP3   OH231950   1.944   2.878   8.493  0.2395 -0.4402 -0.1944
 3464TIP3    H131951   1.923   2.829   8.414 -3.6374  1.4409 -0.5688
 3464TIP3    H231952   2.011   2.940   8.466 -0.0287 -0.7557 -1.6374
 3465TIP3   OH231953   2.330   3.992   8.108 -0.5764  0.4553  0.0613
 3465TIP3    H131954   2.414   4.037   8.109 -0.3175  0.0647  2.2090
 3465TIP3    H231955   2.267   4.059   8.134 -0.5811  0.2458  0.6163
 3466TIP3   OH231956   6.880   3.190   2.012 -0.3086 -0.2197  0.2989
 3466TIP3    H131957   6.918   3.205   1.926  0.3884 -0.4218  0.5672
 3466TIP3    H231958   6.786   3.187   1.996 -0.7475  4.6809  0.1907
 3467TIP3   OH231959   6.617   5.650   1.223 -0.7740 -0.4663 -0.0396
 3467TIP3    H131960   6.575   5.565   1.208 -0.8220 -0.5687  0.6437
 3467TIP3    H231961   6.545   5.709   1.246 -0.4190 -1.2442  3.8417
 3468TIP3   OH231962   2.001   5.069   6.334  0.5093 -0.2740  0.1129
 3468TIP3    H131963   2.062   5.119   6.389  1.7814 -1.0678 -0.5438
 3468TIP3    H231964   2.041   4.983   6.326 -0.4685 -0.6637 -0.7369
 3469TIP3   OH231965   0.293   2.147   8.564 -0.1313 -0.1979  0.9134
 3469TIP3    H131966   0.343   2.106   8.635  0.0907 -1.0596  0.2719
 3469TIP3    H231967   0.338   2.230   8.548  1.4356 -1.1595  0.0326
 3470TIP3   OH231968   4.830   0.770   1.413 -0.0928  0.1862 -0.5602
 3470TIP3    H131969   4.835   0.728   1.327  1.1370 -1.0149  0.0654
 3470TIP3    H231970   4.918   0.804   1.428 -0.8529  2.4338 -0.7139
 3471TIP3   OH231971   0.201   2.807   7.424 -0.0394  0.4601  0.5900
 3471TIP3    H131972   0.258   2.840   7.355  0.7915 -0.4563  0.8310
 3471TIP3    H231973   0.120   2.858   7.413 -0.2660 -0.2452 -1.6050
 3472TIP3   OH231974   0.819   1.361   7.358 -0.2114  0.3025 -0.0359
 3472TIP3    H131975   0.787   1.312   7.434  2.0327  0.5457  1.1374
 3472TIP3    H231976   0.906   1.326   7.341 -0.0573  1.3097 -1.5511
 3473TIP3   OH231977   3.758   0.775   7.858  0.0905 -0.0116  0.0024
 3473TIP3    H131978   3.847   0.805   7.836  0.8600 -2.0905  0.0241
 3473TIP3    H231979   3.716   0.764   7.773  0.7776 -1.5434 -0.1699
 3474TIP3   OH231980   3.908   5.443   8.228 -0.0635 -0.2839 -0.5308
 3474TIP3    H131981   3.893   5.525   8.274 -1.4010 -1.6278  1.6344
 3474TIP3    H231982   3.920   5.468   8.137 -1.3240  2.2358 -0.0919
 3475TIP3   OH231983   5.932   6.631   0.359  0.5338  0.1208  0.3365
 3475TIP3    H131984   5.934   6.690   0.283 -1.7900 -1.2554 -0.9279
 3475TIP3    H231985   5.852   6.655   0.406  0.8216 -0.4618  1.1464
 3476TIP3   OH231986   4.537   4.576   8.165 -0.3568 -0.0768 -0.4082
 3476TIP3    H131987   4.523   4.498   8.111 -1.6632 -1.4309  1.7129
 3476TIP3    H231988   4.454   4.622   8.162  0.5220  1.5169 -1.9389
 3477TIP3   OH231989   4.941   4.395   8.262  0.4623 -0.0136 -0.4840
 3477TIP3    H131990   4.915   4.451   8.188  0.7254  0.0556 -0.5282
 3477TIP3    H231991   4.912   4.308   8.237 -2.6783  0.4991  0.8911
 3478TIP3   OH231992   6.897   0.947   6.957  0.2350  0.1433  0.7465
 3478TIP3    H131993   6.830   0.988   7.011 -2.0938 -1.7282 -0.5416
 3478TIP3    H231994   6.875   0.973   6.868 -0.1175 -2.2010  0.0978
 3479TIP3   OH231995   0.003   1.570   1.361 -0.0819 -0.0627  0.3104
 3479TIP3    H131996   0.087   1.555   1.317 -0.7806  0.8597 -1.4213
 3479TIP3    H231997   0.000   1.665   1.375 -0.7532 -0.1130  0.5528
 3480TIP3   OH231998   4.543   1.577   6.663  0.4640  0.3314 -0.3616
 3480TIP3    H131999   4.602   1.606   6.594  0.2104  0.2913 -0.5954
 3480TIP3    H232000   4.461   1.625   6.647  0.2059 -0.1332 -0.4515
 3481TIP3   OH232001   0.331   0.409   8.338  0.2092 -0.3069 -0.5641
 3481TIP3    H132002   0.258   0.348   8.328  0.5079 -0.6091 -0.9108
 3481TIP3    H232003   0.347   0.413   8.432 -0.9753  0.6205 -0.3840
 3482TIP3   OH232004   0.819   1.266   2.089 -1.1091 -0.2714 -0.0527
 3482TIP3    H132005   0.801   1.179   2.124 -2.7011  0.1878  0.3234
 3482TIP3    H232006   0.890   1.300   2.144  0.5803 -1.8420 -1.1128
 3483TIP3   OH232007   5.974   3.538   6.801  0.0995  0.0766 -0.5068
 3483TIP3    H132008   5.987   3.613   6.744 -1.5382 -0.2593 -1.3833
 3483TIP3    H232009   5.961   3.576   6.888 -1.0524  0.8617 -1.0012
 3484TIP3   OH232010   2.621   5.734   1.793 -0.2394  0.7117 -0.0224
 3484TIP3    H132011   2.706   5.734   1.748  0.0908  3.0633  0.4829
 3484TIP3    H232012   2.614   5.646   1.830  2.4932  0.7570  0.8451
 3485TIP3   OH232013   2.385   4.150   7.236 -0.1843  0.3446  0.0599
 3485TIP3    H132014   2.460   4.147   7.296 -1.2145  0.3394  1.3870
 3485TIP3    H232015   2.422   4.182   7.154  1.5561 -1.0850  0.2281
 3486TIP3   OH232016   5.434   0.556   1.383 -0.5331 -0.0584  0.6345
 3486TIP3    H132017   5.349   0.513   1.378 -0.9115  0.3315  2.6629
 3486TIP3    H232018   5.475   0.518   1.461  0.5843  0.7224  0.4548
 3487TIP3   OH232019   1.201   1.664   7.477  0.1324 -0.2197  0.4404
 3487TIP3    H132020   1.184   1.598   7.411  3.3947 -0.4212 -0.3358
 3487TIP3    H232021   1.236   1.739   7.429  2.6877 -0.4020  1.8341
 3488TIP3   OH232022   2.281   5.772   0.905 -0.3211 -0.3870 -0.1627
 3488TIP3    H132023   2.200   5.754   0.857  0.1475 -1.3288 -0.6208
 3488TIP3    H232024   2.289   5.868   0.902 -1.4144 -0.2722 -0.0934
 3489TIP3   OH232025   6.457   2.492   2.266  0.2519  0.1572  0.0590
 3489TIP3    H132026   6.477   2.452   2.351 -0.8813 -0.7176 -0.0625
 3489TIP3    H232027   6.500   2.435   2.202  0.6535  0.5117  0.0070
 3490TIP3   OH232028   3.088   3.679   1.731 -0.3254  0.4024 -0.7423
 3490TIP3    H132029   3.104   3.673   1.637 -0.7577  0.6398 -0.8331
 3490TIP3    H232030   3.015   3.620   1.748 -1.3690  1.6162 -0.8450
 3491TIP3   OH232031   4.226   6.613   6.517 -0.1077 -0.4336  0.2027
 3491TIP3    H132032   4.174   6.533   6.529 -0.0530 -0.4019  0.6559
 3491TIP3    H232033   4.296   6.605   6.581  0.4293 -0.4574 -0.3826
 3492TIP3   OH232034   0.131   5.182   0.485  0.1518 -0.1622 -0.2793
 3492TIP3    H132035   0.201   5.196   0.422  0.0771  0.8118 -0.1512
 3492TIP3    H232036   0.091   5.099   0.458 -0.1988  0.4888 -1.8047
 3493TIP3   OH232037   4.599   1.969   7.909 -0.2674 -0.2686 -0.2889
 3493TIP3    H132038   4.680   1.919   7.902  1.3637  2.3410 -1.7584
 3493TIP3    H232039   4.569   1.979   7.819 -2.0537 -0.7969  0.1912
 3494TIP3   OH232040   6.799   6.070   0.459 -0.5178 -0.6483  0.0412
 3494TIP3    H132041   6.886   6.046   0.491 -1.2921 -1.0268  2.0655
 3494TIP3    H232042   6.807   6.070   0.364  1.8988  0.1978  0.1851
 3495TIP3   OH232043   3.387   6.789   7.021 -0.1468 -0.0197 -0.2279
 3495TIP3    H132044   3.343   6.723   7.076  1.1390  0.7297  1.8133
 3495TIP3    H232045   3.389   6.868   7.076  1.8587  0.5524 -1.0632
 3496TIP3   OH232046   4.352   6.109   0.076 -0.2369  0.0480 -0.1133
 3496TIP3    H132047   4.371   6.101  -0.018  0.9476  2.1739 -0.1349
 3496TIP3    H232048   4.423   6.061   0.119  0.0586  0.2892 -0.3198
 3497TIP3   OH232049   4.302   3.388   0.907 -0.5673 -0.3862 -0.1942
 3497TIP3    H132050   4.386   3.374   0.864 -0.4862 -0.0245 -0.1658
 3497TIP3    H232051   4.311   3.474   0.949 -1.4859  0.3570 -1.4599
 3498TIP3   OH232052   2.705   3.884   7.363 -0.0716  1.0360 -0.4310
 3498TIP3    H132053   2.722   3.818   7.296  0.0219 -0.0571  0.6321
 3498TIP3    H232054   2.786   3.936   7.368  1.3159 -1.0788  1.2133
 3499TIP3   OH232055   4.411   3.813   7.273  0.0036 -0.3991  0.2204
 3499TIP3    H132056   4.391   3.798   7.181 -1.0673  0.4207  0.3131
 3499TIP3    H232057   4.455   3.898   7.275 -0.5072 -0.1401  0.5304
 3500TIP3   OH232058   4.408   5.583   7.191 -0.7598  0.2941  0.9987
 3500TIP3    H132059   4.482   5.572   7.131 -1.2977 -2.9372  0.7382
 3500TIP3    H232060   4.448   5.589   7.278 -0.1133  1.1839  0.6471
 3501TIP3   OH232061   5.697   4.425   0.353  0.2607  0.1106  0.3240
 3501TIP3    H132062   5.626   4.427   0.289 -0.4106  1.8151  1.0703
 3501TIP3    H232063   5.669   4.484   0.423  1.9587  0.0230  1.1406
 3502TIP3   OH232064   1.934   1.779   6.837 -0.3054 -0.3776  0.1998
 3502TIP3    H132065   1.944   1.833   6.759  0.1735 -0.7269  0.0126
 3502TIP3    H232066   1.850   1.735   6.825 -0.4034 -0.1524  0.0540
 3503TIP3   OH232067   5.857   0.757   7.250 -0.2377 -0.3386 -0.3879
 3503TIP3    H132068   5.832   0.779   7.161  0.5645  0.2552 -0.4813
 3503TIP3    H232069   5.777   0.725   7.291 -0.6050 -0.6306 -1.3240
 3504TIP3   OH232070   1.880   6.093   0.400 -0.1612 -0.1719  0.0327
 3504TIP3    H132071   1.930   6.012   0.414 -0.2659 -0.3906 -0.8503
 3504TIP3    H232072   1.818   6.072   0.331  0.1309  0.8067 -0.5422
 3505TIP3   OH232073   6.693   0.579   7.822 -0.3495  0.0232  0.5628
 3505TIP3    H132074   6.682   0.493   7.780 -0.1467  0.5854 -0.6592
 3505TIP3    H232075   6.754   0.562   7.894 -0.4938 -0.9042  0.4814
 3506TIP3   OH232076   2.297   5.679   6.895 -0.1689 -0.4883 -0.3393
 3506TIP3    H132077   2.241   5.682   6.817  0.0715  0.0200 -0.4931
 3506TIP3    H232078   2.272   5.755   6.946 -0.1550 -0.6870 -0.0345
 3507TIP3   OH232079   2.607   0.116   2.178  0.5837 -0.7379  0.6666
 3507TIP3    H132080   2.692   0.083   2.208  0.0610 -0.5145  2.5257
 3507TIP3    H232081   2.592   0.195   2.231  1.4091  2.1656 -3.0373
 3508TIP3   OH232082   3.332   6.156   1.468 -0.2807  0.2517  0.1239
 3508TIP3    H132083   3.404   6.216   1.449 -0.7182  0.4241 -1.0483
 3508TIP3    H232084   3.269   6.209   1.517  0.2165  0.1877  0.8635
 3509TIP3   OH232085   5.802   1.728   8.035 -0.4012  0.0324  0.4832
 3509TIP3    H132086   5.849   1.802   8.075 -0.1961 -0.4194  1.1017
 3509TIP3    H232087   5.872   1.672   8.001 -0.5443 -0.0139  0.2685
 3510TIP3   OH232088   4.987   5.990   2.194  0.6139  0.4574 -0.4011
 3510TIP3    H132089   5.049   5.918   2.193 -0.2045 -0.3358  1.4087
 3510TIP3    H232090   5.033   6.061   2.240 -0.2092 -0.6394  2.3670
 3511TIP3   OH232091   6.485   4.367   0.914  0.1894 -0.1565  0.2212
 3511TIP3    H132092   6.547   4.440   0.904  0.6491 -0.6188 -0.3489
 3511TIP3    H232093   6.403   4.401   0.879  0.3534  0.1478  0.1278
 3512TIP3   OH232094   1.697   4.770   2.617  0.4930  0.6532  0.8521
 3512TIP3    H132095   1.666   4.851   2.575  0.8655  0.0066 -0.7348
 3512TIP3    H232096   1.703   4.792   2.710 -1.2580  1.8772  0.7228
 3513TIP3   OH232097   2.076   2.240   1.361  0.6307  0.1727  0.0994
 3513TIP3    H132098   2.003   2.233   1.300 -0.0834 -0.8690  1.0418
 3513TIP3    H232099   2.089   2.151   1.393  1.7192  0.5063  0.6480
 3514TIP3   OH232100   3.400   1.946   7.253 -0.3597  0.2794 -0.2334
 3514TIP3    H132101   3.325   1.931   7.196 -0.4065  0.4082 -0.2057
 3514TIP3    H232102   3.418   1.860   7.292 -1.8170  0.6434  1.3733
 3515TIP3   OH232103   5.548   6.438   7.438  0.0261  0.2621  0.3747
 3515TIP3    H132104   5.631   6.428   7.391 -1.2831 -1.2418 -1.8311
 3515TIP3    H232105   5.485   6.462   7.370 -1.2796  2.0104  2.0914
 3516TIP3   OH232106   4.462   6.615   1.406 -0.3763  0.4469 -0.1022
 3516TIP3    H132107   4.545   6.656   1.430 -1.0376  1.3568  0.6765
 3516TIP3    H232108   4.466   6.528   1.446  0.3246  0.3542 -0.3530
 3517TIP3   OH232109   1.804   1.830   8.131  1.0640 -0.1630  0.0420
 3517TIP3    H132110   1.815   1.854   8.039 -0.4247  2.9817  0.5686
 3517TIP3    H232111   1.719   1.787   8.134  2.0407 -2.2709 -0.2822
 3518TIP3   OH232112   3.514   5.890   0.689  0.4369  0.2581 -0.5093
 3518TIP3    H132113   3.514   5.860   0.598 -0.5045  1.6700 -1.0107
 3518TIP3    H232114   3.543   5.814   0.739  1.3113 -0.4571 -2.0079
 3519TIP3   OH232115   2.869   4.573   6.647 -0.1595  0.2455  0.7029
 3519TIP3    H132116   2.915   4.652   6.676  2.0043 -0.6468 -0.1272
 3519TIP3    H232117   2.777   4.590   6.669  0.4527  2.3338  1.9449
 3520TIP3   OH232118   5.506   2.577   6.994 -0.4203  0.1608 -0.1893
 3520TIP3    H132119   5.441   2.509   6.979  0.9465 -0.9880 -1.1670
 3520TIP3    H232120   5.584   2.547   6.947  0.2862  2.3409 -0.5418
 3521TIP3   OH232121   3.478   0.383   0.492  0.2116  0.6047  0.2706
 3521TIP3    H132122   3.466   0.360   0.584  1.4222 -0.1207  0.2656
 3521TIP3    H232123   3.521   0.469   0.494 -0.2643  0.8392  0.3735
 3522TIP3   OH232124   1.814   2.858   1.864 -0.0222  0.4839  0.2371
 3522TIP3    H132125   1.735   2.836   1.815  1.3824 -2.8927 -0.7341
 3522TIP3    H232126   1.802   2.816   1.949  0.6057  0.2319  0.2011
 3523TIP3   OH232127   4.769   4.828   7.827 -0.8811  0.1664 -0.2284
 3523TIP3    H132128   4.744   4.888   7.898  0.7069  0.5248  0.0852
 3523TIP3    H232129   4.844   4.779   7.863 -0.7518 -0.4346 -1.2730
 3524TIP3   OH232130   4.375   5.868   8.490 -0.1696 -0.0270 -0.0727
 3524TIP3    H132131   4.376   5.838   8.580  0.9339 -0.2106 -0.1328
 3524TIP3    H232132   4.422   5.801   8.441 -0.7658  0.0644 -0.7877
 3525TIP3   OH232133   2.972   2.947   6.876  0.3793  0.8112  0.1710
 3525TIP3    H132134   2.948   2.913   6.790  1.7273 -0.1801  0.1605
 3525TIP3    H232135   2.906   3.013   6.895 -1.2371 -0.5284 -0.6289
 3526TIP3   OH232136   6.710   2.261   8.059  0.0704  0.7906 -0.1424
 3526TIP3    H132137   6.760   2.179   8.059 -1.3477 -0.1100  0.3619
 3526TIP3    H232138   6.770   2.325   8.022  1.4232 -0.3485 -0.0290
 3527TIP3   OH232139   2.261   3.799   2.457 -0.0331 -0.5714  0.6792
 3527TIP3    H132140   2.246   3.888   2.488  0.0892 -0.3207  0.0361
 3527TIP3    H232141   2.346   3.803   2.415 -0.7603 -0.5732 -0.8574
 3528TIP3   OH232142   2.749   0.039   0.159  0.0228 -0.0281  0.4960
 3528TIP3    H132143   2.787  -0.039   0.199 -0.0163 -0.2574  0.0927
 3528TIP3    H232144   2.671   0.007   0.114  0.4949  0.0819 -0.4347
 3529TIP3   OH232145   4.286   1.291   0.908 -0.4366  0.5404  0.1099
 3529TIP3    H132146   4.376   1.305   0.936 -0.2390  1.3035 -0.8676
 3529TIP3    H232147   4.293   1.232   0.832 -1.1897 -5.1552  3.8126
 3530TIP3   OH232148   3.271   3.100   2.183 -0.0261  0.2272 -0.6249
 3530TIP3    H132149   3.314   3.176   2.223 -1.2755  0.6471 -0.0332
 3530TIP3    H232150   3.341   3.055   2.136  1.6616 -0.6028  2.4397
 3531TIP3   OH232151   2.758   2.071   0.455  0.0262 -0.7159  0.0785
 3531TIP3    H132152   2.790   2.070   0.365 -0.3891 -2.2635 -0.0884
 3531TIP3    H232153   2.729   1.981   0.471 -1.0144 -0.1866  1.3651
 3532TIP3   OH232154   3.024   0.946   0.344 -1.2041  0.2999 -0.6024
 3532TIP3    H132155   2.995   0.855   0.340 -1.2174  0.1363  1.7761
 3532TIP3    H232156   2.944   0.997   0.354 -1.0607  0.1706  2.0041
 3533TIP3   OH232157   1.536   3.556   0.685 -0.0479  0.4438  0.1176
 3533TIP3    H132158   1.557   3.551   0.591  2.3888  0.1842  0.6019
 3533TIP3    H232159   1.507   3.646   0.698  0.5359  0.7770 -0.7560
 3534TIP3   OH232160   0.552   0.612   1.807  0.2322  0.1104  0.5758
 3534TIP3    H132161   0.583   0.523   1.825 -0.6063 -0.4957 -0.7792
 3534TIP3    H232162   0.501   0.636   1.884 -1.2093 -1.3998  0.1388
 3535TIP3   OH232163   1.692   1.091   8.043 -0.0046 -0.0708  0.2150
 3535TIP3    H132164   1.603   1.127   8.035  0.1388  0.8389  2.2851
 3535TIP3    H232165   1.711   1.093   8.136  2.0479 -0.6730 -0.1418
 3536TIP3   OH232166   5.892   2.853   0.041 -0.1143 -0.5991  0.4830
 3536TIP3    H132167   5.824   2.790   0.065  0.7071 -1.5584  0.3327
 3536TIP3    H232168   5.861   2.936   0.079 -0.8250 -1.2394  1.3700
 3537TIP3   OH232169   3.402   5.862   6.691 -0.3491 -0.5061 -0.3743
 3537TIP3    H132170   3.309   5.845   6.685 -0.3586 -0.7649  0.4174
 3537TIP3    H232171   3.441   5.814   6.618 -1.1155  2.0229 -2.6259
 3538TIP3   OH232172   2.707   2.676   7.403 -0.0504 -0.3178  0.4096
 3538TIP3    H132173   2.629   2.623   7.390  0.5554 -0.9221 -0.9626
 3538TIP3    H232174   2.769   2.618   7.448  0.1897 -0.3939 -0.0127
 3539TIP3   OH232175   6.170   0.992   0.822  0.3670  0.2635 -0.1037
 3539TIP3    H132176   6.237   0.991   0.890 -0.9360  0.8702  1.2462
 3539TIP3    H232177   6.189   0.914   0.769 -0.2398 -1.9920  2.6928
 3540TIP3   OH232178   1.191   6.229   0.732 -0.3122 -0.4945  0.0425
 3540TIP3    H132179   1.099   6.232   0.703 -0.7855 -0.7578  1.4428
 3540TIP3    H232180   1.225   6.316   0.710 -1.7282  0.6575  2.0018
 3541TIP3   OH232181   1.706   0.950   0.972 -0.4902  0.4650 -0.2807
 3541TIP3    H132182   1.758   0.892   0.916 -0.5308  0.6271 -0.4867
 3541TIP3    H232183   1.709   1.035   0.928  0.1980  0.8040  0.4165
 3542TIP3   OH232184   0.418   4.218   1.590  0.2404 -0.0196  0.2117
 3542TIP3    H132185   0.413   4.139   1.536  0.7871 -0.0288  0.1762
 3542TIP3    H232186   0.449   4.286   1.531 -0.2852  0.2436  0.2269
 3543TIP3   OH232187   3.438   5.498   2.534  0.2139 -0.4273  0.3116
 3543TIP3    H132188   3.381   5.427   2.506  1.2289 -1.7055  1.3655
 3543TIP3    H232189   3.475   5.533   2.453 -0.9938 -0.4725 -0.2776
 3544TIP3   OH232190   3.200   4.179   7.481 -0.5358  0.0793 -0.1620
 3544TIP3    H132191   3.240   4.219   7.559 -0.2179 -2.0597  0.8336
 3544TIP3    H232192   3.273   4.163   7.422 -0.1251 -1.9708  0.8195
 3545TIP3   OH232193   2.580   4.849   0.393 -0.0030 -0.1843 -0.1045
 3545TIP3    H132194   2.615   4.924   0.344 -1.4176  0.7302  0.2313
 3545TIP3    H232195   2.650   4.826   0.454  2.0960 -1.7555 -2.8582
 3546TIP3   OH232196   3.293   2.111   8.266 -0.8151 -0.6926 -0.2307
 3546TIP3    H132197   3.298   2.072   8.179  0.9973 -1.2708  0.0979
 3546TIP3    H232198   3.290   2.037   8.326 -0.0861 -0.3228  0.2775
 3547TIP3   OH232199   6.480   5.035   6.097 -0.3125  0.3560  0.1076
 3547TIP3    H132200   6.512   5.051   6.186 -1.2367  0.8354  0.3556
 3547TIP3    H232201   6.420   4.961   6.106 -0.0755  0.1241 -0.1911
 3548TIP3   OH232202   1.036   2.837   1.144 -0.0383  0.5083  0.1606
 3548TIP3    H132203   0.962   2.818   1.087 -0.1146  0.0037  0.4253
 3548TIP3    H232204   1.022   2.928   1.172 -0.8280  0.2543  0.6106
 3549TIP3   OH232205   0.393   1.943   7.985 -0.6667 -0.1104  0.0615
 3549TIP3    H132206   0.313   1.983   7.951 -1.5527 -0.9105  1.1461
 3549TIP3    H232207   0.435   1.904   7.909 -1.1111  0.6329 -0.5780
 3550TIP3   OH232208   5.749   0.237   6.848  0.2504  0.2831  0.6141
 3550TIP3    H132209   5.753   0.281   6.763  0.1456 -0.1251  0.3949
 3550TIP3    H232210   5.803   0.292   6.906 -0.7315  1.2793  0.6200
 3551TIP3   OH232211   2.800   5.523   1.623 -0.9085 -0.2240 -0.0113
 3551TIP3    H132212   2.794   5.442   1.674 -1.2034  0.5523  1.2483
 3551TIP3    H232213   2.862   5.577   1.673  0.2174 -0.1009 -1.4644
 3552TIP3   OH232214   2.047   2.485   2.519  0.1291 -0.0443 -0.0959
 3552TIP3    H132215   2.009   2.397   2.518  1.5622 -0.6902  0.3459
 3552TIP3    H232216   1.976   2.542   2.488 -0.9843 -1.2778  0.1025
 3553TIP3   OH232217   0.189   5.893   0.779 -0.2601  0.1707  0.7613
 3553TIP3    H132218   0.178   5.909   0.873  0.7117  2.0074  0.6046
 3553TIP3    H232219   0.150   5.969   0.737 -0.0556 -0.2962 -0.3008
 3554TIP3   OH232220   1.509   1.807   7.300 -0.8203  1.4431  0.0996
 3554TIP3    H132221   1.533   1.862   7.224  2.2800  1.4775  0.9663
 3554TIP3    H232222   1.590   1.760   7.321 -2.3024 -0.4359  1.8916
 3555TIP3   OH232223   0.069   6.437   0.320 -0.5312  0.1137  0.4771
 3555TIP3    H132224  -0.003   6.455   0.381 -1.3193 -1.2243 -0.0196
 3555TIP3    H232225   0.031   6.380   0.254  0.8562 -0.1808 -0.1050
 3556TIP3   OH232226   4.161   0.505   8.584 -0.5711  0.5060 -0.2010
 3556TIP3    H132227   4.223   0.562   8.629 -0.2689 -1.2572  1.7712
 3556TIP3    H232228   4.165   0.533   8.492  1.3151  2.0344  0.2809
 3557TIP3   OH232229   2.744   4.097   7.594 -0.1142 -0.0944 -0.1197
 3557TIP3    H132230   2.747   4.042   7.672 -2.1032 -0.6845 -0.4033
 3557TIP3    H232231   2.818   4.068   7.541  0.1098 -1.0308  0.6832
 3558TIP3   OH232232   2.122   1.094   0.441 -0.4368  0.3224  0.4545
 3558TIP3    H132233   2.040   1.047   0.457 -0.4153  0.8832  2.4944
 3558TIP3    H232234   2.097   1.168   0.387 -1.2872  0.4753  1.0359
 3559TIP3   OH232235   4.575   5.627   8.389  0.1054  0.4609 -0.1209
 3559TIP3    H132236   4.544   5.544   8.427  0.9711  0.2103  0.0445
 3559TIP3    H232237   4.661   5.641   8.429  0.5304  0.7777 -1.1291
 3560TIP3   OH232238   6.566   5.659   6.968 -0.1770 -1.0396  0.2019
 3560TIP3    H132239   6.510   5.609   6.908  0.3428  0.6435 -1.8116
 3560TIP3    H232240   6.653   5.623   6.955  0.0570 -0.2124 -0.6362
 3561TIP3   OH232241   4.485   5.335   0.573  0.7794 -0.2542  0.1793
 3561TIP3    H132242   4.435   5.367   0.498  0.2530  2.0773  1.4491
 3561TIP3    H232243   4.420   5.316   0.640  1.4307  0.5476  1.0523
 3562TIP3   OH232244   6.744   1.726   8.051  0.4328 -0.5244 -0.1882
 3562TIP3    H132245   6.811   1.657   8.052 -0.3178 -1.2747 -0.3208
 3562TIP3    H232246   6.687   1.702   7.977 -0.0958 -0.0114  0.0495
 3563TIP3   OH232247   2.429   6.710   7.764  0.5021 -0.0699  0.1880
 3563TIP3    H132248   2.515   6.670   7.749  0.9188  1.1139 -0.7807
 3563TIP3    H232249   2.366   6.640   7.747  1.1557 -0.0396 -2.8110
 3564TIP3   OH232250   5.789   0.639   1.346  0.6954  0.0297  0.3030
 3564TIP3    H132251   5.813   0.547   1.354 -0.8058 -0.4818 -0.5801
 3564TIP3    H232252   5.771   0.667   1.435  1.9211 -0.3036  0.6637
 3565TIP3   OH232253   4.009   3.048   1.642  0.4540 -0.3930 -0.1184
 3565TIP3    H132254   4.046   3.085   1.562 -1.0828  0.5894 -0.4268
 3565TIP3    H232255   4.048   2.961   1.649 -0.1509 -0.9412 -2.5430
 3566TIP3   OH232256   6.573   3.023   7.471  0.3877  0.5457  0.5509
 3566TIP3    H132257   6.622   2.950   7.508 -0.5945 -0.1549  0.4891
 3566TIP3    H232258   6.564   3.002   7.379 -0.9123  0.1483  0.7509
 3567TIP3   OH232259   5.481   3.028   0.775 -0.3336 -0.0916 -0.3402
 3567TIP3    H132260   5.552   3.083   0.807  0.1428  0.2001 -1.8196
 3567TIP3    H232261   5.491   2.945   0.822  1.0057 -0.0582 -0.5329
 3568TIP3   OH232262   0.691   4.598   6.624  0.3790 -0.0526  0.6141
 3568TIP3    H132263   0.676   4.667   6.690 -1.7929 -0.0547  0.1964
 3568TIP3    H232264   0.759   4.634   6.567  1.6615  0.3276  2.2955
 3569TIP3   OH232265   5.516   2.067   2.493  0.4812  0.0342 -0.3923
 3569TIP3    H132266   5.576   1.994   2.504  0.9351  0.5711  0.9947
 3569TIP3    H232267   5.568   2.145   2.513 -0.0004  0.7461 -1.7955
 3570TIP3   OH232268   4.439   4.727   7.053 -0.1110 -0.0096 -0.2501
 3570TIP3    H132269   4.531   4.720   7.026  0.3265 -1.7595  1.4459
 3570TIP3    H232270   4.442   4.773   7.137 -0.7319 -0.5428  0.0700
 3571TIP3   OH232271   0.428   4.231   0.723 -0.3779 -0.5267  0.7504
 3571TIP3    H132272   0.440   4.323   0.700  0.5757 -0.6220  0.7894
 3571TIP3    H232273   0.505   4.210   0.777 -0.4154 -1.4217  0.4785
 3572TIP3   OH232274   2.611   3.376   1.872  0.0918 -0.2992 -0.1575
 3572TIP3    H132275   2.635   3.283   1.873 -0.7939 -0.5838  2.3913
 3572TIP3    H232276   2.598   3.399   1.964 -2.9533  1.4636 -0.8601
 3573TIP3   OH232277   4.868   4.264   2.690  0.3405 -0.3048 -0.0294
 3573TIP3    H132278   4.807   4.254   2.763 -1.7104 -0.0777 -1.5794
 3573TIP3    H232279   4.880   4.176   2.656  0.5755 -0.3010  0.0433
 3574TIP3   OH232280   1.946   0.214   7.984 -0.2844 -0.4630 -0.3202
 3574TIP3    H132281   1.945   0.308   7.969  0.7182 -0.4364 -0.3313
 3574TIP3    H232282   1.981   0.177   7.903 -0.6939 -0.8478 -0.3248
 3575TIP3   OH232283   3.298   6.869   0.819 -0.0438  0.0562  0.0142
 3575TIP3    H132284   3.392   6.887   0.824 -0.5540  2.9574  0.7271
 3575TIP3    H232285   3.265   6.889   0.906 -1.4444 -0.3084 -0.4114
 3576TIP3   OH232286   6.776   4.853   8.295  0.1776 -0.2259  0.0640
 3576TIP3    H132287   6.692   4.875   8.254 -0.9241 -1.9504  1.2836
 3576TIP3    H232288   6.768   4.761   8.321  1.9405 -0.0599  1.4370
 3577TIP3   OH232289   0.817   0.441   0.638  0.3158 -0.1094  0.2085
 3577TIP3    H132290   0.847   0.356   0.670  1.8588 -0.3087 -1.5527
 3577TIP3    H232291   0.737   0.459   0.687  0.7995 -1.8401  1.7299
 3578TIP3   OH232292   4.382   6.711   7.788 -0.0012  0.4087 -0.0752
 3578TIP3    H132293   4.406   6.618   7.790 -2.4064 -0.2858  1.0885
 3578TIP3    H232294   4.316   6.716   7.719 -0.7871  0.9648  0.6927
 3579TIP3   OH232295   0.235   0.626   6.619  0.6185  0.3036 -0.1245
 3579TIP3    H132296   0.230   0.577   6.701  0.4312  0.6531  0.0764
 3579TIP3    H232297   0.144   0.633   6.588  0.5231  1.3054  0.3260
 3580TIP3   OH232298   2.396   0.805   7.497 -0.1338 -0.5263 -0.3131
 3580TIP3    H132299   2.387   0.766   7.583 -0.2821  1.1154  0.4632
 3580TIP3    H232300   2.478   0.855   7.502 -0.7667  0.5877 -0.6840
 3581TIP3   OH232301   1.369   5.542   7.115 -0.0240  0.1809  0.3919
 3581TIP3    H132302   1.399   5.452   7.120  4.7236  1.4125 -0.8830
 3581TIP3    H232303   1.429   5.591   7.171 -0.7562  2.8549 -0.9736
 3582TIP3   OH232304   6.347   4.660   8.418 -0.0705  0.3299  0.0259
 3582TIP3    H132305   6.339   4.755   8.432  1.9804  0.6985 -0.9359
 3582TIP3    H232306   6.440   4.647   8.397 -0.5531 -1.7477 -1.0126
 3583TIP3   OH232307   0.120   2.667   2.513  0.2107  0.4041  0.5221
 3583TIP3    H132308   0.080   2.734   2.569 -0.0528 -0.0371  0.8680
 3583TIP3    H232309   0.212   2.693   2.507  0.3720  0.1661  1.6183
 3584TIP3   OH232310   0.842   6.674   1.577  0.3322 -0.3202 -0.0235
 3584TIP3    H132311   0.805   6.609   1.518 -1.5993  0.2867  0.4564
 3584TIP3    H232312   0.928   6.695   1.539 -0.5407 -0.4637 -2.2030
 3585TIP3   OH232313   5.769   0.881   7.621 -0.2944 -0.2472 -0.0845
 3585TIP3    H132314   5.787   0.943   7.550 -0.8662 -0.5036 -0.4665
 3585TIP3    H232315   5.718   0.811   7.579 -0.1024 -0.7142  0.4502
 3586TIP3   OH232316   2.199   2.293   8.426  0.5049  0.4331 -0.5211
 3586TIP3    H132317   2.171   2.357   8.491 -0.7091  1.3896 -1.9276
 3586TIP3    H232318   2.208   2.211   8.476 -1.3028  0.9116  0.6992
 3587TIP3   OH232319   4.476   4.510   1.434 -0.0174  0.1750 -0.3495
 3587TIP3    H132320   4.424   4.448   1.382  1.7515 -2.8901  1.2377
 3587TIP3    H232321   4.414   4.577   1.460 -1.9305 -0.4792 -2.7672
 3588TIP3   OH232322   3.042   2.851   2.195  0.6298 -0.2210 -0.2060
 3588TIP3    H132323   3.036   2.793   2.119 -1.6889  0.8412 -0.9325
 3588TIP3    H232324   2.984   2.812   2.260  0.7970  0.1067  0.1434
 3589TIP3   OH232325   1.934   1.528   8.212 -0.3392  0.4692 -0.0709
 3589TIP3    H132326   1.895   1.482   8.138 -1.8893  0.3543  0.7566
 3589TIP3    H232327   1.923   1.621   8.191 -1.1435  0.4396  0.1648
 3590TIP3   OH232328   0.824   1.663   0.388 -0.6854  0.4421 -0.9008
 3590TIP3    H132329   0.863   1.677   0.302  1.1239  0.2400 -0.1503
 3590TIP3    H232330   0.873   1.590   0.426 -0.1069  1.7456  1.0359
 3591TIP3   OH232331   4.424   5.167   1.406 -0.4141 -0.0473  0.1326
 3591TIP3    H132332   4.483   5.211   1.467  0.9912 -1.5771 -0.0222
 3591TIP3    H232333   4.346   5.147   1.457 -0.4769  1.2803  0.5889
 3592TIP3   OH232334   0.671   1.162   6.371  0.4034 -0.0361 -0.0552
 3592TIP3    H132335   0.709   1.113   6.299  0.2916  0.3386 -0.3719
 3592TIP3    H232336   0.690   1.109   6.449 -0.2092 -0.8529 -0.4545
 3593TIP3   OH232337   4.629   2.200   8.100  0.4152 -0.2125 -0.0440
 3593TIP3    H132338   4.640   2.170   8.190 -0.9773 -2.0277 -0.4097
 3593TIP3    H232339   4.626   2.119   8.049 -2.5781  0.5483 -1.2567
 3594TIP3   OH232340   3.824   3.376   7.662  0.8179  0.2924 -0.0147
 3594TIP3    H132341   3.874   3.452   7.633  0.6452  0.4743  0.1631
 3594TIP3    H232342   3.744   3.412   7.700 -0.5944 -0.0672 -2.4497
 3595TIP3   OH232343   4.458   0.853   6.712 -0.9445 -0.5353 -0.6234
 3595TIP3    H132344   4.403   0.927   6.737 -3.5101 -2.7310  0.7729
 3595TIP3    H232345   4.479   0.810   6.795  0.9520 -1.1274 -1.3548
 3596TIP3   OH232346   6.701   1.853   7.781  0.1209 -0.6336  0.4816
 3596TIP3    H132347   6.737   1.896   7.859  2.0579 -1.6207  0.2023
 3596TIP3    H232348   6.695   1.923   7.716 -1.9597  0.3075  1.5679
 3597TIP3   OH232349   2.482   2.307   1.432 -0.2856 -0.0357  0.1884
 3597TIP3    H132350   2.505   2.236   1.492  0.9813 -0.4172 -0.7150
 3597TIP3    H232351   2.460   2.263   1.350  1.8040  0.6479 -0.7854
 3598TIP3   OH232352   5.516   3.832   0.987 -0.4971 -0.0622 -0.0902
 3598TIP3    H132353   5.435   3.812   0.939 -0.9347  1.6850 -0.1309
 3598TIP3    H232354   5.496   3.911   1.037  0.1126 -1.4589  2.5930
 3599TIP3   OH232355   1.718   3.732   1.922 -0.0774  0.0903 -0.3943
 3599TIP3    H132356   1.640   3.680   1.903  0.9935 -0.7369 -2.8811
 3599TIP3    H232357   1.698   3.819   1.889 -0.9201  0.6840  1.5083
 3600TIP3   OH232358   5.582   3.491   0.631 -0.2660  0.2970 -0.0757
 3600TIP3    H132359   5.655   3.435   0.605  0.6027  0.7257  1.3390
 3600TIP3    H232360   5.508   3.431   0.644  0.6675 -0.5543  1.5168
 3601TIP3   OH232361   4.950   1.031   8.119  0.6450  0.0067 -0.3297
 3601TIP3    H132362   4.917   1.075   8.041 -1.3023  0.8862  0.8866
 3601TIP3    H232363   4.889   0.958   8.133  1.2009 -0.3786  0.1339
 3602TIP3   OH232364   1.245   4.842   7.370  0.2812 -0.3659 -0.2959
 3602TIP3    H132365   1.298   4.849   7.291 -0.5630 -0.4272 -0.8873
 3602TIP3    H232366   1.173   4.783   7.345 -0.0263 -0.3432  0.4997
 3603TIP3   OH232367   5.944   1.807   7.224  0.6190 -0.1853  0.5367
 3603TIP3    H132368   5.934   1.732   7.166 -1.3481 -1.3121  2.1655
 3603TIP3    H232369   6.014   1.782   7.284  0.3501 -0.5222  0.7197
 3604TIP3   OH232370   2.213   6.376   1.316 -0.0998  0.0207  0.4947
 3604TIP3    H132371   2.172   6.455   1.352  0.2300  0.0285  0.8590
 3604TIP3    H232372   2.141   6.328   1.276 -0.4155  0.1808  0.8631
 3605TIP3   OH232373   5.713   0.502   7.542  0.8196  0.2744  0.0065
 3605TIP3    H132374   5.675   0.472   7.625 -0.5836  2.2891  0.1758
 3605TIP3    H232375   5.675   0.445   7.476  1.1190 -0.6722  0.6326
 3606TIP3   OH232376   0.822   5.806   6.610 -0.1944 -0.3241 -0.1780
 3606TIP3    H132377   0.854   5.720   6.636  0.5932  0.0075 -0.0225
 3606TIP3    H232378   0.885   5.867   6.648 -0.7797  0.3224 -0.2392
 3607TIP3   OH232379   6.350   6.533   7.748 -0.3264 -0.5794  0.4373
 3607TIP3    H132380   6.281   6.490   7.696 -1.9474  3.8080 -1.5244
 3607TIP3    H232381   6.422   6.544   7.687 -0.3228  0.2608  0.5809
 3608TIP3   OH232382   6.692   4.121   1.268 -0.0665  0.9286 -0.3460
 3608TIP3    H132383   6.640   4.202   1.269 -2.0722 -0.2798  0.3891
 3608TIP3    H232384   6.730   4.116   1.356 -1.1525  0.3886  0.1151
 3609TIP3   OH232385   1.750   0.514   0.502  0.1360 -0.4438  0.2397
 3609TIP3    H132386   1.838   0.551   0.508 -0.4644  0.9122  1.0746
 3609TIP3    H232387   1.751   0.440   0.563  0.2056  0.6328  1.5878
 3610TIP3   OH232388   2.918   4.442   1.840 -0.5225  0.0946  0.4473
 3610TIP3    H132389   2.946   4.356   1.871 -0.0868 -0.1639 -0.6306
 3610TIP3    H232390   2.842   4.464   1.895  0.3591 -0.2168  1.8560
 3611TIP3   OH232391   6.337   0.440   7.231  0.2873 -0.0687 -0.5181
 3611TIP3    H132392   6.385   0.367   7.268  0.0036 -0.7354 -1.4200
 3611TIP3    H232393   6.273   0.399   7.172  0.8435  0.9299 -1.8767
 3612TIP3   OH232394   5.878   3.701   0.324 -0.4898  0.3357 -0.3741
 3612TIP3    H132395   5.955   3.717   0.378 -0.6092  0.9657 -0.3800
 3612TIP3    H232396   5.903   3.629   0.266  0.4453  1.1780 -1.0481
 3613TIP3   OH232397   4.407   5.055   0.025 -0.0605  0.0453  0.1073
 3613TIP3    H132398   4.429   5.148   0.026 -1.1516  0.3311  2.0980
 3613TIP3    H232399   4.462   5.017   0.094 -1.1693 -0.3644  0.7903
 3614TIP3   OH232400   0.893   1.880   7.064 -0.3678  0.0562 -0.2676
 3614TIP3    H132401   0.861   1.896   7.153 -0.8114 -0.9669 -0.2259
 3614TIP3    H232402   0.911   1.786   7.062  0.4421  0.2174 -1.0106
 3615TIP3   OH232403   1.030   1.486   0.553  0.2072 -0.2391 -0.0000
 3615TIP3    H132404   1.073   1.401   0.544 -1.4618 -1.2054  0.6220
 3615TIP3    H232405   1.100   1.547   0.578  1.8387 -0.9334 -2.5093
 3616TIP3   OH232406   4.226   3.213   7.648 -0.3803 -0.3770 -0.1644
 3616TIP3    H132407   4.176   3.243   7.724 -0.6684 -2.0245  0.3499
 3616TIP3    H232408   4.189   3.126   7.629  1.0400 -0.8329 -0.9313
 3617TIP3   OH232409   5.502   6.681   8.431 -0.3589 -0.0123  0.0954
 3617TIP3    H132410   5.439   6.715   8.367 -0.5033 -0.1040  0.1874
 3617TIP3    H232411   5.450   6.624   8.487 -0.6858  1.6372  1.5666
 3618TIP3   OH232412   0.364   2.497   1.343 -0.3382 -0.0385 -0.4900
 3618TIP3    H132413   0.410   2.416   1.364 -0.5386  0.0716  0.4034
 3618TIP3    H232414   0.434   2.563   1.342 -0.5257  0.2444  1.5226
 3619TIP3   OH232415   0.882   1.397   8.502 -0.7427  0.7301  0.5591
 3619TIP3    H132416   0.899   1.312   8.460  1.6242  0.4834  1.8641
 3619TIP3    H232417   0.850   1.374   8.589 -1.5343  1.2227  0.4061
 3620TIP3   OH232418   3.760   2.767   0.762  0.7191 -0.4371  0.3640
 3620TIP3    H132419   3.825   2.835   0.775  0.1543  0.1121  0.3548
 3620TIP3    H232420   3.680   2.814   0.739  0.4309 -1.1259 -0.0832
 3621TIP3   OH232421   4.134   0.781   1.344  0.5029  0.5309 -0.1543
 3621TIP3    H132422   4.186   0.751   1.269 -0.4347  0.1592 -0.6752
 3621TIP3    H232423   4.119   0.874   1.327 -0.7518  0.1824 -1.0907
 3622TIP3   OH232424   6.199   2.283   0.689 -0.0089  0.0846 -0.2513
 3622TIP3    H132425   6.159   2.227   0.623 -0.5935 -0.7551  0.7937
 3622TIP3    H232426   6.221   2.224   0.761  0.8769  0.9356  0.2057
 3623TIP3   OH232427   4.952   1.502   8.152  0.0409  0.0531  0.2355
 3623TIP3    H132428   4.859   1.521   8.165 -0.1478 -0.1005 -0.8047
 3623TIP3    H232429   4.987   1.493   8.241 -1.2356 -1.3431  0.6506
 3624TIP3   OH232430   1.330   6.205   8.002 -0.1821 -0.1969 -0.4942
 3624TIP3    H132431   1.385   6.142   8.050 -0.5874  0.0695  0.3479
 3624TIP3    H232432   1.380   6.226   7.924  0.2332 -1.1079 -0.4884
 3625TIP3   OH232433   5.938   5.509   7.806 -0.0474  0.0125 -0.7455
 3625TIP3    H132434   5.843   5.507   7.819  0.0058 -0.5555 -0.4265
 3625TIP3    H232435   5.954   5.593   7.761 -0.5805  0.5876  0.1016
 3626TIP3   OH232436   4.167   6.321   0.399  0.1894 -0.4421  0.1274
 3626TIP3    H132437   4.098   6.297   0.461 -0.8534  0.2581 -0.7192
 3626TIP3    H232438   4.247   6.321   0.451 -0.8919  2.0714  2.0168
 3627TIP3   OH232439   1.283   1.940   7.379 -0.1993  0.4180 -0.3326
 3627TIP3    H132440   1.291   1.980   7.466  1.2861 -1.7859  0.6269
 3627TIP3    H232441   1.373   1.914   7.357 -1.1088 -2.9814 -0.5335
 3628TIP3   OH232442   6.180   0.846   0.278  0.8079 -0.0936 -0.2702
 3628TIP3    H132443   6.241   0.909   0.240  0.4136 -0.6867 -1.9883
 3628TIP3    H232444   6.182   0.772   0.217 -1.9455  0.0472 -0.6501
 3629TIP3   OH232445   2.619   1.559   0.629  0.2851  0.0511 -0.0051
 3629TIP3    H132446   2.643   1.494   0.695 -2.0471  0.2657  1.1565
 3629TIP3    H232447   2.556   1.513   0.573  1.2949  0.2690 -1.3918
 3630TIP3   OH232448   4.435   2.814   7.614  0.2107  0.6124  0.8203
 3630TIP3    H132449   4.502   2.846   7.553 -2.8908  3.6805 -1.3252
 3630TIP3    H232450   4.374   2.765   7.559 -0.4683 -0.2645  2.2938
 3631TIP3   OH232451   4.637   6.048   1.136  0.3986  0.0227 -0.2033
 3631TIP3    H132452   4.597   5.974   1.183 -1.0004  0.1141 -1.1736
 3631TIP3    H232453   4.609   6.036   1.045  0.6014  1.4579 -0.4776
 3632TIP3   OH232454   4.889   1.574   1.581 -0.0832 -0.1903  0.2724
 3632TIP3    H132455   4.880   1.553   1.674 -2.2434 -0.3863  0.0808
 3632TIP3    H232456   4.855   1.663   1.573 -0.7016 -0.4766 -0.4287
 3633TIP3   OH232457   1.245   5.547   7.715 -0.0168 -0.0326 -0.5616
 3633TIP3    H132458   1.321   5.544   7.658 -0.1800 -1.9483 -0.7490
 3633TIP3    H232459   1.174   5.510   7.662 -0.6802  0.1246  0.1917
 3634TIP3   OH232460   5.602   6.776   1.077  0.0190 -0.0887  0.1820
 3634TIP3    H132461   5.588   6.758   1.170 -1.7640 -2.1407 -0.4004
 3634TIP3    H232462   5.517   6.810   1.047  1.1217  2.3530 -0.3578
 3635TIP3   OH232463   3.962   6.624   8.226  0.2916 -0.6578  0.1872
 3635TIP3    H132464   4.057   6.612   8.231  0.2662 -1.5384 -0.9288
 3635TIP3    H232465   3.934   6.560   8.160 -0.7381  1.3298 -1.4187
 3636TIP3   OH232466   6.326   0.832   1.336  0.1556 -0.2621  0.4269
 3636TIP3    H132467   6.255   0.818   1.273  1.5305  0.1283 -1.2657
 3636TIP3    H232468   6.290   0.799   1.419 -1.6490 -0.9566 -0.5605
 3637TIP3   OH232469   5.527   0.802   0.916  0.2164 -0.5873  0.1309
 3637TIP3    H132470   5.461   0.748   0.873  0.4977 -1.2961  0.5728
 3637TIP3    H232471   5.532   0.768   1.005 -0.8557  1.3190  0.9722
 3638TIP3   OH232472   2.899   1.522   0.999 -0.4593 -0.1259 -0.0401
 3638TIP3    H132473   2.812   1.558   1.016 -0.6639 -1.4354  2.1546
 3638TIP3    H232474   2.956   1.566   1.062  0.3135  0.1209 -0.8918
 3639TIP3   OH232475   0.246   1.172   1.607 -0.0261  0.3369 -0.0515
 3639TIP3    H132476   0.183   1.235   1.574  0.1772  1.8472  2.1882
 3639TIP3    H232477   0.327   1.223   1.617  0.4413 -0.5473  0.8101
 3640TIP3   OH232478   4.630   6.121   6.706  0.3275 -0.2722  0.0420
 3640TIP3    H132479   4.658   6.069   6.631 -0.5287 -0.5938 -0.0716
 3640TIP3    H232480   4.586   6.197   6.668  1.4582  0.4868  0.2095
 3641TIP3   OH232481   6.636   2.583   1.238 -0.2875 -0.1345  0.2993
 3641TIP3    H132482   6.646   2.647   1.308 -2.4724  1.3851 -0.6680
 3641TIP3    H232483   6.544   2.555   1.243 -0.8122  0.7490 -2.4690
 3642TIP3   OH232484   3.758   2.607   1.119  0.3081  0.4842  0.4644
 3642TIP3    H132485   3.684   2.585   1.175  0.9349 -1.4126  0.6122
 3642TIP3    H232486   3.781   2.696   1.143 -1.5433  0.9084  0.8217
 3643TIP3   OH232487   6.146   4.680   2.224 -0.3193 -0.0395 -0.6088
 3643TIP3    H132488   6.224   4.695   2.278  0.5128 -2.1010 -1.1213
 3643TIP3    H232489   6.082   4.642   2.285 -1.2144  2.1844 -0.0563
 3644TIP3   OH232490   1.836   6.765   1.761 -0.4042 -0.0571 -0.1766
 3644TIP3    H132491   1.809   6.697   1.700  0.7444 -0.4445 -0.2924
 3644TIP3    H232492   1.828   6.724   1.847 -0.5256 -0.0479 -0.1837
 3645TIP3   OH232493   2.402   0.359   8.587  0.2216 -0.3558 -0.1269
 3645TIP3    H132494   2.387   0.409   8.507  0.0147 -1.6072 -0.8951
 3645TIP3    H232495   2.492   0.327   8.580  0.9253  1.2117  1.1286
 3646TIP3   OH232496   1.183   5.550   7.986 -0.1310 -0.4119  0.3685
 3646TIP3    H132497   1.090   5.532   8.003 -0.5098  0.5133 -0.6175
 3646TIP3    H232498   1.192   5.549   7.891  1.1886 -1.8785  0.4702
 3647TIP3   OH232499   0.811   2.528   2.447 -0.1089 -0.1880  0.2014
 3647TIP3    H132500   0.754   2.542   2.523  1.3119  2.2249  0.9346
 3647TIP3    H232501   0.750   2.522   2.373 -1.4137  1.6573  1.0271
 3648TIP3   OH232502   2.146   0.622   0.781  0.4986  0.1025 -0.1680
 3648TIP3    H132503   2.075   0.604   0.843 -0.0119 -0.6499 -0.9585
 3648TIP3    H232504   2.226   0.609   0.833  0.0738 -0.2354  0.4183
 3649TIP3   OH232505   2.695   4.224   8.314 -0.0865 -0.4411 -0.0840
 3649TIP3    H132506   2.705   4.307   8.268  0.2799 -0.7619 -0.5856
 3649TIP3    H232507   2.614   4.234   8.363  0.5885  0.7006  0.8807
 3650TIP3   OH232508   5.146   1.446   1.698 -0.3949  0.0373 -0.1812
 3650TIP3    H132509   5.194   1.393   1.762  0.1833  0.8142  0.0468
 3650TIP3    H232510   5.054   1.434   1.720 -0.3040 -1.2934 -0.4739
 3651TIP3   OH232511   2.721   4.807   0.011 -0.3021  0.1114 -0.8311
 3651TIP3    H132512   2.704   4.714  -0.002 -3.2867  0.0071  2.4470
 3651TIP3    H232513   2.755   4.812   0.101 -0.0938  2.1847 -0.9866
 3652TIP3   OH232514   1.653   4.273   0.563 -0.3912  0.4049  0.5370
 3652TIP3    H132515   1.584   4.333   0.533  0.3748  0.9836 -0.1062
 3652TIP3    H232516   1.735   4.314   0.536  0.1204 -2.0825 -2.2756
 3653TIP3   OH232517   5.148   5.173   7.291  0.0787  0.0644  0.0767
 3653TIP3    H132518   5.085   5.224   7.239 -0.4879 -0.9926 -0.3063
 3653TIP3    H232519   5.222   5.232   7.304 -1.4902  1.7871  1.6228
 3654TIP3   OH232520   3.740   3.179   0.496 -0.4862 -0.3831  0.4430
 3654TIP3    H132521   3.834   3.197   0.505 -0.5233  0.0991 -0.0954
 3654TIP3    H232522   3.733   3.132   0.413 -0.7569 -0.1716  0.3467
 3655TIP3   OH232523   4.509   6.815   7.433 -0.2158  0.1596  0.4381
 3655TIP3    H132524   4.532   6.728   7.466  1.4651  0.7667  0.9604
 3655TIP3    H232525   4.462   6.798   7.351 -0.2710 -1.2323  0.7340
 3656TIP3   OH232526   6.246   3.477   0.729  0.2770  0.5057  0.2195
 3656TIP3    H132527   6.339   3.499   0.720  0.3088  0.0772 -0.6269
 3656TIP3    H232528   6.201   3.561   0.721  0.5901  0.7250  0.6892
 3657TIP3   OH232529   0.437   4.384   7.310 -0.7388  0.2034 -0.6555
 3657TIP3    H132530   0.492   4.406   7.385 -0.1816 -3.6655  0.2928
 3657TIP3    H232531   0.348   4.398   7.340 -0.5170 -1.2617  0.8136
 3658TIP3   OH232532   3.687   2.143   7.954  0.2081  0.1892 -0.1611
 3658TIP3    H132533   3.753   2.079   7.926  0.7541  0.7941 -0.2771
 3658TIP3    H232534   3.734   2.202   8.013  0.0410  1.2186 -1.0121
 3659TIP3   OH232535   2.491   6.282   1.295  0.0818  0.6533 -0.4536
 3659TIP3    H132536   2.496   6.190   1.323  0.5820  1.0268  0.7659
 3659TIP3    H232537   2.398   6.305   1.307  0.1086  0.5302  0.0213
 3660TIP3   OH232538   5.162   6.224   7.252  0.3462 -0.0053 -0.2556
 3660TIP3    H132539   5.184   6.251   7.342 -2.0500  0.3479  0.2851
 3660TIP3    H232540   5.236   6.255   7.199  1.6486  0.0897  1.5218
 3661TIP3   OH232541   0.987   3.201   8.122  0.4005 -0.1355 -0.8804
 3661TIP3    H132542   0.946   3.258   8.186 -0.6791 -1.8658  0.0489
 3661TIP3    H232543   1.078   3.194   8.150  0.4579  0.8180 -0.8069
 3662TIP3   OH232544   2.712   1.452   2.262  0.1950 -0.1712 -0.0904
 3662TIP3    H132545   2.642   1.466   2.198  0.2292  2.0991  0.3058
 3662TIP3    H232546   2.775   1.397   2.215 -0.4871  0.1655 -1.4739
 3663TIP3   OH232547   5.949   3.337   7.047  0.0026 -0.1297 -0.5301
 3663TIP3    H132548   6.023   3.296   7.003  0.1223  0.7817 -1.2266
 3663TIP3    H232549   5.969   3.332   7.140 -0.2607 -2.1126 -0.5526
 3664TIP3   OH232550   0.728   6.415   6.830 -0.2631  0.2395  0.2549
 3664TIP3    H132551   0.750   6.323   6.817 -0.4441  0.3303 -0.7651
 3664TIP3    H232552   0.813   6.460   6.830 -0.2622  0.4580 -2.6078
 3665TIP3   OH232553   0.872   3.692   7.735 -0.2593 -0.1473  0.1437
 3665TIP3    H132554   0.890   3.613   7.684 -0.1387  1.1037 -1.8285
 3665TIP3    H232555   0.781   3.683   7.761 -0.5286 -0.5145 -0.8762
 3666TIP3   OH232556   2.491   2.586   0.675 -0.5202  0.2715 -0.2366
 3666TIP3    H132557   2.478   2.509   0.621  0.6957  1.3847 -2.2240
 3666TIP3    H232558   2.412   2.591   0.729 -0.9543 -1.8951 -0.5768
 3667TIP3   OH232559   3.961   6.413   6.579  0.6937  0.1741 -0.4023
 3667TIP3    H132560   4.010   6.372   6.507  1.4334 -1.4916  0.9774
 3667TIP3    H232561   3.892   6.350   6.600  0.3871  0.7215  0.2444
 3668TIP3   OH232562   2.655   6.313   2.401 -0.0044  1.0212 -0.8099
 3668TIP3    H132563   2.713   6.250   2.444 -2.7479 -1.0304  0.1773
 3668TIP3    H232564   2.714   6.369   2.350  2.7597 -1.1954 -0.3010
 3669TIP3   OH232565   4.006   0.676   7.729 -0.9550 -0.4349  0.3664
 3669TIP3    H132566   3.991   0.601   7.786  2.0119 -1.4350 -0.0012
 3669TIP3    H232567   3.954   0.658   7.651 -2.2203 -0.8329  1.2708
 3670TIP3   OH232568   0.074   3.961   7.524  0.0998  0.3760  0.2426
 3670TIP3    H132569   0.118   4.025   7.469  0.1275  0.2014  0.0636
 3670TIP3    H232570  -0.020   3.974   7.506  0.1387 -0.1159 -0.3236
 3671TIP3   OH232571   3.987   4.167   7.966  0.4633 -0.2481  0.0736
 3671TIP3    H132572   4.015   4.214   7.887  0.7216 -2.2488 -1.1190
 3671TIP3    H232573   3.894   4.152   7.953  0.2562  0.4418  0.7313
 3672TIP3   OH232574   6.710   1.513   1.033 -0.2736  0.2748 -0.3715
 3672TIP3    H132575   6.627   1.504   1.080 -0.5461  0.6753 -0.7724
 3672TIP3    H232576   6.711   1.439   0.972  2.0173 -2.9691  3.0534
 3673TIP3   OH232577   3.471   6.694   7.987 -0.3835  0.1771 -0.2409
 3673TIP3    H132578   3.439   6.770   7.938 -0.6798 -0.1488 -0.5544
 3673TIP3    H232579   3.450   6.619   7.932  1.0783 -0.0415 -0.5629
 3674TIP3   OH232580   2.213   3.572   0.558 -0.2554 -0.1214  0.1230
 3674TIP3    H132581   2.275   3.547   0.490 -0.2578 -0.5891  0.2894
 3674TIP3    H232582   2.265   3.573   0.638 -0.5462 -0.9630  0.3371
 3675TIP3   OH232583   5.334   5.095   8.253 -0.0142  0.1800  0.2926
 3675TIP3    H132584   5.416   5.108   8.301 -0.1113  0.0865  0.4874
 3675TIP3    H232585   5.348   5.017   8.200  1.2794  2.1059 -2.4055
 3676TIP3   OH232586   5.495   0.883   7.196  0.0504  0.3106  0.1785
 3676TIP3    H132587   5.444   0.960   7.171 -0.4563  0.6170  2.0068
 3676TIP3    H232588   5.564   0.877   7.130  1.2285  3.4208  0.9723
 3677TIP3   OH232589   3.778   0.970   7.138 -0.2487 -0.0025  0.7779
 3677TIP3    H132590   3.868   0.997   7.153 -0.1729  0.4251 -0.3287
 3677TIP3    H232591   3.726   1.028   7.193  0.0090  1.4438 -0.4494
 3678TIP3   OH232592   3.906   6.224   7.294  0.3215 -0.1051  0.2932
 3678TIP3    H132593   3.981   6.175   7.329  0.2932 -0.1244  0.3278
 3678TIP3    H232594   3.867   6.165   7.230  0.0183 -0.3094  0.6610
 3679TIP3   OH232595   1.080   1.276   2.715  0.2314  0.6387 -0.6289
 3679TIP3    H132596   1.018   1.321   2.772  1.0951 -0.1431  1.0241
 3679TIP3    H232597   1.119   1.345   2.662  1.6164  1.9798  1.9183
 3680TIP3   OH232598   2.987   2.065   1.164  0.8071  0.3624  0.2193
 3680TIP3    H132599   3.019   2.017   1.087  1.7418  2.5321 -0.8190
 3680TIP3    H232600   3.043   2.036   1.236  0.1573 -1.4272  0.0583
 3681TIP3   OH232601   0.284   0.051   7.812  0.1803 -0.3397 -0.8236
 3681TIP3    H132602   0.248  -0.033   7.841 -1.7103  0.5538 -0.5048
 3681TIP3    H232603   0.211   0.112   7.814  1.3149  1.1519 -1.8794
 3682TIP3   OH232604   5.175   1.513   6.740 -0.5679 -0.0566 -0.0646
 3682TIP3    H132605   5.147   1.601   6.763 -0.0095  0.5117 -1.4360
 3682TIP3    H232606   5.257   1.500   6.789 -0.7046  0.1460  0.2181
 3683TIP3   OH232607   1.848   3.623   1.676  0.5178  0.0632  0.9359
 3683TIP3    H132608   1.789   3.696   1.655  2.3435  1.3177 -0.1340
 3683TIP3    H232609   1.850   3.570   1.596  1.4280  0.4674  0.6824
 3684TIP3   OH232610   4.519   2.520   6.950  0.2479 -0.2897  0.4866
 3684TIP3    H132611   4.577   2.557   6.884 -0.2319 -1.0759 -0.4003
 3684TIP3    H232612   4.578   2.492   7.020  0.8871 -0.5010 -0.1212
 3685TIP3   OH232613   0.827   4.092   1.923  0.4281  0.5084  0.2100
 3685TIP3    H132614   0.887   4.072   1.851  1.1625 -0.7989  1.1263
 3685TIP3    H232615   0.874   4.061   2.001 -0.2484  2.0703  1.2851
 3686TIP3   OH232616   5.062   5.136   2.460 -0.2294 -0.1500  0.1216
 3686TIP3    H132617   5.105   5.122   2.376  0.9125 -0.4907  0.7230
 3686TIP3    H232618   4.973   5.163   2.439  0.6141  1.7562 -1.2061
 3687TIP3   OH232619   6.403   3.667   0.077  0.5436  0.2773  0.2921
 3687TIP3    H132620   6.385   3.626   0.162  0.4097  0.0401  0.1511
 3687TIP3    H232621   6.364   3.608   0.013 -0.7710  1.2734  0.1462
 3688TIP3   OH232622   4.607   0.430   7.617 -0.3065 -0.1025  0.1977
 3688TIP3    H132623   4.621   0.380   7.698 -1.3615 -0.3206  0.2549
 3688TIP3    H232624   4.583   0.364   7.552 -0.7285  0.2190  0.0268
 3689TIP3   OH232625   1.311   1.310   1.972  0.4263  0.0113 -0.2577
 3689TIP3    H132626   1.229   1.347   1.939 -0.4011 -0.4428  1.1907
 3689TIP3    H232627   1.319   1.226   1.928 -1.3501 -1.1928  1.5269
 3690TIP3   OH232628   5.124   5.909   6.911  0.3746  0.0306 -0.5695
 3690TIP3    H132629   5.060   5.902   6.840 -0.6911  0.6189  0.3032
 3690TIP3    H232630   5.185   5.976   6.880 -0.5653  0.9084 -0.6043
 3691TIP3   OH232631   4.520   2.174   6.803 -0.2653  0.5574 -0.0540
 3691TIP3    H132632   4.612   2.165   6.776 -0.4761  0.3315 -0.6980
 3691TIP3    H232633   4.480   2.229   6.736 -0.7355  0.1986 -0.0718
 3692TIP3   OH232634   2.359   2.131   6.828 -0.0573  0.4796 -0.0539
 3692TIP3    H132635   2.290   2.144   6.763  0.9711  1.7933 -0.9384
 3692TIP3    H232636   2.326   2.172   6.908 -0.3451  0.9860 -0.4332
 3693TIP3   OH232637   0.977   1.045   0.645 -0.4572 -0.6172 -0.2015
 3693TIP3    H132638   1.070   1.049   0.623 -0.5015  0.3912 -0.2477
 3693TIP3    H232639   0.968   0.967   0.699  1.0949  1.1810  2.9313
 3694TIP3   OH232640   0.626   0.796   8.209 -0.3881 -0.2082 -0.1265
 3694TIP3    H132641   0.607   0.737   8.282  0.3691  0.0041  0.2518
 3694TIP3    H232642   0.639   0.882   8.251 -1.0248  0.1376 -0.6244
 3695TIP3   OH232643   2.006   3.980   1.703 -0.0009 -0.4335  0.9492
 3695TIP3    H132644   2.016   4.041   1.776 -1.0981 -0.0884  0.8287
 3695TIP3    H232645   1.954   3.908   1.738 -3.1703  1.1160 -0.1860
 3696TIP3   OH232646   4.392   6.083   7.859  0.0194  0.0008  0.4222
 3696TIP3    H132647   4.307   6.101   7.899 -0.6920  0.8834 -1.3839
 3696TIP3    H232648   4.432   6.170   7.847  0.4740 -0.2853 -0.2116
 3697TIP3   OH232649   0.245   1.542   7.901  0.3072 -0.3028 -0.2429
 3697TIP3    H132650   0.333   1.575   7.923  0.4570 -1.3743  0.8605
 3697TIP3    H232651   0.249   1.448   7.919 -1.3173 -0.2289  0.6687
 3698TIP3   OH232652   3.639   1.299   0.713 -0.2456 -0.0779 -0.0790
 3698TIP3    H132653   3.575   1.228   0.720  1.2799 -1.3730  3.1215
 3698TIP3    H232654   3.594   1.369   0.666 -3.2190 -1.6735  0.1777
 3699TIP3   OH232655   3.443   6.501   1.233  0.3336  0.3741  0.1547
 3699TIP3    H132656   3.349   6.491   1.247  0.3537 -0.1748 -0.0860
 3699TIP3    H232657   3.472   6.555   1.306  0.3467 -1.9625  2.0266
 3700TIP3   OH232658   0.670   2.998   0.189 -0.7886  0.1232 -0.1373
 3700TIP3    H132659   0.657   3.071   0.129 -0.9131  1.1346  1.0670
 3700TIP3    H232660   0.734   3.030   0.253  0.8041 -1.5849 -0.7690
 3701TIP3   OH232661   3.206   6.254   0.453  0.6081 -0.7033  0.4984
 3701TIP3    H132662   3.240   6.343   0.449  1.7569 -1.1571 -0.0386
 3701TIP3    H232663   3.249   6.215   0.529  0.4608 -0.9562  0.4535
 3702TIP3   OH232664   6.655   3.502   1.439 -0.5157 -0.2985 -0.0600
 3702TIP3    H132665   6.612   3.578   1.399  1.2186  0.6846 -0.1525
 3702TIP3    H232666   6.591   3.469   1.503 -1.1498  1.5021  0.2946
 3703TIP3   OH232667   2.250   2.083   0.010  0.2683  0.0808 -0.2067
 3703TIP3    H132668   2.273   2.000  -0.032 -0.8097  0.7129 -2.1571
 3703TIP3    H232669   2.168   2.065   0.055 -2.2068  0.9237 -3.9384
 3704TIP3   OH232670   0.731   4.153   7.755  0.2612  0.7073 -0.0762
 3704TIP3    H132671   0.789   4.113   7.820 -0.6294 -0.8102 -0.1587
 3704TIP3    H232672   0.744   4.247   7.766  0.4369  0.4973  2.0541
 3705TIP3   OH232673   4.120   2.479   7.593  0.3851  0.3788 -0.1059
 3705TIP3    H132674   4.157   2.452   7.678 -0.4822  0.1822  0.2229
 3705TIP3    H232675   4.056   2.410   7.573  2.0088 -0.7146 -1.9375
 3706TIP3   OH232676   4.963   5.430   2.658  0.0490  0.1001  0.2682
 3706TIP3    H132677   4.874   5.459   2.678 -0.0895 -0.7714  0.9520
 3706TIP3    H232678   4.963   5.337   2.678  0.4682 -0.4360 -1.9644
 3707TIP3   OH232679   0.492   5.998   0.636 -0.6700  0.0746 -0.0791
 3707TIP3    H132680   0.433   6.054   0.586  0.0294  0.2531 -0.7190
 3707TIP3    H232681   0.440   5.970   0.712 -1.9185 -0.5933 -1.1346
 3708TIP3   OH232682   5.604   5.112   8.379 -0.0022  0.5117  0.3558
 3708TIP3    H132683   5.566   5.128   8.466  1.7948 -0.9121  1.4784
 3708TIP3    H232684   5.675   5.175   8.372  1.5562 -1.0895  1.1090
 3709TIP3   OH232685   1.876   5.623   1.282  0.4030  0.2752 -0.0106
 3709TIP3    H132686   1.862   5.595   1.372  0.8758 -0.6933 -0.2236
 3709TIP3    H232687   1.837   5.711   1.277  0.9075  0.5927  1.2877
 3710TIP3   OH232688   1.784   6.512   1.949 -0.1899 -0.0668  0.3654
 3710TIP3    H132689   1.816   6.442   1.891  1.1848 -0.1367  1.1709
 3710TIP3    H232690   1.695   6.528   1.919 -0.4718 -2.0141  0.0061
 3711TIP3   OH232691   0.859   4.749   1.619  0.5863  0.2695 -0.0458
 3711TIP3    H132692   0.904   4.787   1.695  0.4695 -0.0284  0.1734
 3711TIP3    H232693   0.814   4.672   1.653 -1.5857  1.5377  0.1232
 3712TIP3   OH232694   6.458   6.538   1.341 -0.4338 -0.1869 -0.2883
 3712TIP3    H132695   6.365   6.541   1.365  0.0172  1.8244  1.4469
 3712TIP3    H232696   6.501   6.593   1.406  2.1136 -1.7206 -0.5632
 3713TIP3   OH232697   1.158   6.518   8.143  0.4505  0.6490 -0.1047
 3713TIP3    H132698   1.245   6.546   8.112 -0.2525  1.1740 -1.6881
 3713TIP3    H232699   1.145   6.566   8.225  0.8894  1.9954 -0.8027
 3714TIP3   OH232700   0.211   5.155   0.735  0.4547  0.0000 -0.0948
 3714TIP3    H132701   0.307   5.155   0.738  0.4666  0.4766 -0.4769
 3714TIP3    H232702   0.189   5.177   0.645 -0.0281  2.6880  0.6119
 3715TIP3   OH232703   4.801   4.796   6.818  0.5183 -0.9353 -0.0647
 3715TIP3    H132704   4.752   4.747   6.884 -1.0250 -0.0359 -0.5056
 3715TIP3    H232705   4.778   4.755   6.735  0.7922 -0.7371 -0.2393
 3716TIP3   OH232706   0.135   0.701   0.968  0.0441 -0.1480 -0.4949
 3716TIP3    H132707   0.215   0.732   1.011 -0.0209 -2.5385  1.6527
 3716TIP3    H232708   0.071   0.693   1.039 -1.0765 -1.3607 -1.5840
 3717TIP3   OH232709   2.425   2.923   1.925 -0.3741  0.0727  0.0580
 3717TIP3    H132710   2.490   2.867   1.967  0.0636  0.3529 -0.2335
 3717TIP3    H232711   2.404   2.989   1.991  0.3013  0.5036 -0.1444
 3718TIP3   OH232712   1.200   5.549   7.407 -0.6335 -0.5745  0.3554
 3718TIP3    H132713   1.188   5.602   7.328  2.7029  0.7011  0.5158
 3718TIP3    H232714   1.276   5.588   7.450 -1.0277 -2.5568  3.1072
 3719TIP3   OH232715   2.255   3.298   7.397 -0.3620  0.1060 -0.7507
 3719TIP3    H132716   2.187   3.334   7.340  0.9794  0.1223 -2.4059
 3719TIP3    H232717   2.270   3.366   7.463  0.2473  1.4577 -2.2420
 3720TIP3   OH232718   0.074   5.574   8.367 -0.1126 -0.0224  0.5408
 3720TIP3    H132719   0.063   5.483   8.338  1.0605 -0.0374  0.1245
 3720TIP3    H232720  -0.012   5.614   8.352 -0.8535 -1.2415  1.4023
 3721TIP3   OH232721   4.842   5.015   1.314  0.1268 -0.4410  0.0666
 3721TIP3    H132722   4.848   5.106   1.341 -1.8658  0.6157 -2.5992
 3721TIP3    H232723   4.753   4.988   1.336 -0.3354 -0.6854 -1.8758
 3722TIP3   OH232724   3.649   4.927   0.043  0.1288  0.3116  0.2687
 3722TIP3    H132725   3.570   4.979   0.062 -0.5338 -0.9532  1.1251
 3722TIP3    H232726   3.615   4.844   0.009  1.1514  0.2600 -0.6736
 3723TIP3   OH232727   3.184   3.486   2.403 -0.2053 -0.4266  0.2636
 3723TIP3    H132728   3.210   3.561   2.349 -0.0475 -1.4056 -1.0766
 3723TIP3    H232729   3.265   3.437   2.418 -0.3568 -0.5044  0.8612
 3724TIP3   OH232730   6.690   4.354   2.029  0.2447 -0.1551 -0.1931
 3724TIP3    H132731   6.717   4.413   2.099  0.1891  0.0230 -0.3201
 3724TIP3    H232732   6.606   4.389   1.999 -0.9431 -1.5965  1.2460
 3725TIP3   OH232733   2.111   5.405   0.835 -0.1073 -0.3410  0.3765
 3725TIP3    H132734   2.195   5.379   0.798 -0.5261 -1.9938  0.5015
 3725TIP3    H232735   2.094   5.491   0.798  0.6652 -0.8769 -1.2957
 3726TIP3   OH232736   0.371   3.244   2.013 -0.3429  0.0430  0.1529
 3726TIP3    H132737   0.431   3.173   1.992  1.5474  1.4561  0.5116
 3726TIP3    H232738   0.356   3.237   2.107  2.0352  1.6133  0.7470
 3727TIP3   OH232739   0.161   3.053   0.340 -0.0391 -0.1325 -0.4299
 3727TIP3    H132740   0.220   3.010   0.278 -0.7715 -1.2278 -0.3929
 3727TIP3    H232741   0.189   3.145   0.340  0.2929 -0.2047 -1.9915
 3728TIP3   OH232742   0.840   3.416   6.747  0.0025  0.0216  0.2120
 3728TIP3    H132743   0.818   3.508   6.729  1.5943  0.5218  0.6455
 3728TIP3    H232744   0.759   3.378   6.781 -1.3875  0.6104 -2.2170
 3729TIP3   OH232745   3.249   0.446   1.684 -0.3146 -0.2890  0.3153
 3729TIP3    H132746   3.224   0.453   1.592  0.3023  0.9106  0.2169
 3729TIP3    H232747   3.245   0.536   1.717 -0.4350 -0.6912  1.4367
 3730TIP3   OH232748   0.110   2.767   1.705  0.1220 -0.4855 -0.5120
 3730TIP3    H132749   0.132   2.720   1.624 -0.6767 -3.8425  1.0385
 3730TIP3    H232750   0.113   2.700   1.773  1.4656  2.3110  2.4529
 3731TIP3   OH232751   0.213   1.296   0.389 -0.5769 -0.4624 -0.4550
 3731TIP3    H132752   0.241   1.216   0.435 -0.0764  0.1365  0.2992
 3731TIP3    H232753   0.287   1.355   0.397 -1.6192  0.7626  0.6197
 3732TIP3   OH232754   5.166   1.771   7.359  0.0415 -0.1435 -0.3492
 3732TIP3    H132755   5.100   1.735   7.300 -0.3404 -1.4596  0.8210
 3732TIP3    H232756   5.240   1.710   7.354  0.6637  0.6137 -0.6749
 3733TIP3   OH232757   3.872   3.275   8.525  0.3956  0.1446  0.4236
 3733TIP3    H132758   3.955   3.282   8.571  0.3770 -2.0208  0.8987
 3733TIP3    H232759   3.811   3.239   8.589 -0.8857  1.5063  0.0231
 3734TIP3   OH232760   1.243   5.255   1.772 -0.0713  0.2243 -0.3019
 3734TIP3    H132761   1.233   5.187   1.839  1.8637  0.5428  0.3897
 3734TIP3    H232762   1.303   5.217   1.708 -0.8783  0.4168 -1.2015
 3735TIP3   OH232763   4.717   2.714   1.340 -0.7005  0.1481  0.6540
 3735TIP3    H132764   4.795   2.728   1.287 -0.2933  1.1677  1.4765
 3735TIP3    H232765   4.719   2.621   1.361 -0.3974 -0.0928 -0.3708
 3736TIP3   OH232766   0.806   4.546   1.779  0.0529  0.0505  0.6059
 3736TIP3    H132767   0.762   4.461   1.788  1.1041 -0.8318 -1.7740
 3736TIP3    H232768   0.883   4.539   1.835  0.2257 -0.6450  0.2926
 3737TIP3   OH232769   5.975   5.857   0.320  0.1572  0.0003  0.1038
 3737TIP3    H132770   5.891   5.842   0.363 -0.5973  0.1990 -1.2585
 3737TIP3    H232771   6.026   5.908   0.384 -0.4821 -0.7203  1.2143
 3738TIP3   OH232772   1.033   6.694   7.997  0.0125 -0.2850  0.2476
 3738TIP3    H132773   1.080   6.649   8.067 -0.6676  0.0325  0.9298
 3738TIP3    H232774   1.096   6.700   7.925  0.3933 -1.5314  0.4575
 3739TIP3   OH232775   1.384   1.151   1.053  0.1863 -0.3742 -0.3239
 3739TIP3    H132776   1.459   1.123   1.106 -0.6613 -0.1698  1.0159
 3739TIP3    H232777   1.327   1.197   1.114 -1.4726 -1.3138 -1.1198
 3740TIP3   OH232778   4.709   1.504   1.296 -0.4833  0.1412 -0.0615
 3740TIP3    H132779   4.786   1.488   1.351  1.2054  2.1152 -1.6440
 3740TIP3    H232780   4.673   1.417   1.279  0.3370 -0.7043  2.1598
 3741TIP3   OH232781   5.146   0.536   7.833  0.2826 -0.3660 -0.4945
 3741TIP3    H132782   5.175   0.497   7.751  2.1268  1.2584 -0.6814
 3741TIP3    H232783   5.212   0.508   7.897  0.1958  0.3196 -0.0958
 3742TIP3   OH232784   4.724   0.970   0.138  0.4117  0.2328  0.3884
 3742TIP3    H132785   4.715   1.059   0.102  3.5734  1.1333  1.4348
 3742TIP3    H232786   4.727   0.983   0.233 -3.2376 -1.5820  0.9036
 3743TIP3   OH232787   5.587   0.727   8.590 -0.1846  0.2183  0.1916
 3743TIP3    H132788   5.670   0.767   8.562 -0.6205  1.0633  0.0734
 3743TIP3    H232789   5.614   0.655   8.647  0.6606 -0.2937 -0.8262
 3744TIP3   OH232790   1.762   0.437   1.613  0.2132  0.7168  0.1532
 3744TIP3    H132791   1.687   0.485   1.578 -0.4322 -0.3138  0.0993
 3744TIP3    H232792   1.832   0.453   1.550 -0.3909  0.4566 -0.6010
 3745TIP3   OH232793   2.435   5.219   7.527  0.0556  0.1397 -0.1038
 3745TIP3    H132794   2.346   5.245   7.503 -0.4942 -2.0716 -0.6254
 3745TIP3    H232795   2.461   5.283   7.594 -2.1501  0.4558  0.5246
 3746TIP3   OH232796   2.583   1.562   7.060  0.5104  0.2243 -0.0671
 3746TIP3    H132797   2.491   1.586   7.072  0.2815  0.7347 -2.3396
 3746TIP3    H232798   2.581   1.471   7.033  0.5940  0.4611 -0.8915
 3747TIP3   OH232799   2.321   3.728   7.766  0.1120 -0.8540 -0.0625
 3747TIP3    H132800   2.256   3.797   7.750  1.9371  1.1893  0.7784
 3747TIP3    H232801   2.377   3.731   7.688  0.1308 -1.4790 -0.0728
 3748TIP3   OH232802   4.712   2.418   1.024  0.0955  0.0016  0.4808
 3748TIP3    H132803   4.750   2.338   1.062 -0.1260 -0.8281 -0.9764
 3748TIP3    H232804   4.702   2.477   1.099  2.3276 -0.5044  1.2505
 3749TIP3   OH232805   2.461   3.045   0.760 -0.2727  0.8010 -0.1628
 3749TIP3    H132806   2.489   3.059   0.670  1.3143  1.6519  0.4098
 3749TIP3    H232807   2.459   3.133   0.798  1.7662  0.2882  1.3268
 3750TIP3   OH232808   6.525   2.499   8.466  0.6283 -0.2377 -0.0561
 3750TIP3    H132809   6.521   2.594   8.455  0.6661 -0.2800 -0.4267
 3750TIP3    H232810   6.579   2.469   8.394 -1.7515 -0.8454 -1.7063
 3751TIP3   OH232811   4.866   0.533   7.858  0.1713  0.1437 -0.0736
 3751TIP3    H132812   4.961   0.530   7.872  0.2183  0.3432 -0.3388
 3751TIP3    H232813   4.845   0.445   7.825  0.5756  0.6791 -1.8672
 3752TIP3   OH232814   3.711   6.700   7.606 -0.3992 -0.0115  0.5738
 3752TIP3    H132815   3.762   6.714   7.526 -0.6139 -0.2387  0.3932
 3752TIP3    H232816   3.641   6.765   7.601  0.2663  0.7769  1.1690
 3753TIP3   OH232817   0.464   6.764   6.809 -0.4297 -0.2831  0.3311
 3753TIP3    H132818   0.470   6.672   6.783  2.3748  0.2230 -1.2936
 3753TIP3    H232819   0.394   6.800   6.755 -1.7073 -1.4756  1.1445
 3754TIP3   OH232820   1.246   2.581   6.400 -0.4094 -0.2095 -0.0685
 3754TIP3    H132821   1.223   2.493   6.368  2.4651 -0.8240 -0.7420
 3754TIP3    H232822   1.271   2.629   6.321  1.2762  0.0909  0.6124
 3755TIP3   OH232823   5.447   5.273   7.965 -0.0424 -0.4287 -0.1327
 3755TIP3    H132824   5.382   5.315   7.908  0.4601 -1.1415 -1.2730
 3755TIP3    H232825   5.463   5.337   8.034 -0.7773  0.4112 -0.7119
 3756TIP3   OH232826   4.518   0.544   0.646  0.4966  0.1260  0.8215
 3756TIP3    H132827   4.471   0.465   0.621 -1.0033  0.8459  1.2276
 3756TIP3    H232828   4.607   0.515   0.663  0.1935 -1.3058  0.0721
 3757TIP3   OH232829   3.149   4.771   7.839  0.0156  0.0928 -0.9312
 3757TIP3    H132830   3.231   4.779   7.889 -0.6709 -1.0667  0.4656
 3757TIP3    H232831   3.092   4.720   7.896 -1.7012  0.8855 -1.8829
 3758TIP3   OH232832   1.582   0.162   1.595 -0.3423  0.4619  0.6114
 3758TIP3    H132833   1.621   0.124   1.674  0.1327 -0.1182  0.1014
 3758TIP3    H232834   1.649   0.221   1.561 -0.7788  1.1865  0.9625
 3759TIP3   OH232835   5.266   0.898   1.780 -0.3913  0.1594 -0.2202
 3759TIP3    H132836   5.243   0.982   1.820  2.2395 -0.2362  2.4805
 3759TIP3    H232837   5.243   0.833   1.847 -0.2865 -1.0751 -1.3441
 3760TIP3   OH232838   6.479   5.972   7.548  0.2865  0.3931 -0.1100
 3760TIP3    H132839   6.468   5.877   7.560  1.0818  0.2900 -0.1221
 3760TIP3    H232840   6.395   6.002   7.514  0.3637 -0.4835 -1.1364
 3761TIP3   OH232841   0.503   4.952   1.892  0.3231 -0.0598  0.0526
 3761TIP3    H132842   0.541   5.005   1.822  1.4086  1.8669  1.9940
 3761TIP3    H232843   0.569   4.885   1.910  0.7983  0.4857  0.3566
 3762TIP3   OH232844   6.143   6.766   2.063  0.0967  0.2995 -0.0703
 3762TIP3    H132845   6.214   6.756   2.126  0.0436  2.4243  0.3910
 3762TIP3    H232846   6.188   6.779   1.979  0.1681 -1.3760 -0.3440
 3763TIP3   OH232847   2.313   0.471   1.291  0.3638  0.4721 -0.3929
 3763TIP3    H132848   2.299   0.554   1.246  3.8944  0.0924 -2.6132
 3763TIP3    H232849   2.243   0.413   1.260  0.6000  1.3056 -2.5743
 3764TIP3   OH232850   6.579   5.373   2.415 -0.3101 -0.2973 -0.0737
 3764TIP3    H132851   6.593   5.421   2.333  1.3190  1.5778  1.2056
 3764TIP3    H232852   6.491   5.396   2.442 -1.6697 -2.5179 -2.2027
 3765TIP3   OH232853   2.510   3.769   8.054 -0.3252 -0.1168 -0.5788
 3765TIP3    H132854   2.542   3.830   8.120  1.0531 -2.2881  0.8664
 3765TIP3    H232855   2.414   3.774   8.061 -0.2167  0.3150  1.0040
 3766TIP3   OH232856   1.388   4.396   0.327 -1.0658 -0.1384 -0.4079
 3766TIP3    H132857   1.420   4.319   0.281 -0.7006  0.1647 -0.6681
 3766TIP3    H232858   1.295   4.399   0.305 -1.5717 -1.6679  1.2806
 3767TIP3   OH232859   1.639   6.158   2.290 -0.7894 -0.3907 -0.1680
 3767TIP3    H132860   1.589   6.117   2.360 -0.3177  0.3915  0.6427
 3767TIP3    H232861   1.727   6.167   2.326 -0.3683 -0.5955 -1.1134
 3768TIP3   OH232862   2.911   1.535   0.697  0.0069  0.1491 -0.0296
 3768TIP3    H132863   2.859   1.531   0.777 -1.2285 -0.1555 -0.8147
 3768TIP3    H232864   2.860   1.592   0.639 -0.5537 -1.7904 -1.5537
 3769TIP3   OH232865   0.368   2.465   6.296  0.2385  0.4380  0.0150
 3769TIP3    H132866   0.305   2.419   6.241  0.4846  1.6940 -1.3859
 3769TIP3    H232867   0.330   2.461   6.384  0.3592 -2.5481  0.0264
 3770TIP3   OH232868   2.485   4.299   8.481 -0.6838 -0.5366  0.4441
 3770TIP3    H132869   2.486   4.365   8.549  0.0460 -0.4121  0.3217
 3770TIP3    H232870   2.400   4.256   8.490 -1.7238  1.2525 -0.2979
 3771TIP3   OH232871   2.439   0.493   1.527 -0.0449 -0.3908 -0.2662
 3771TIP3    H132872   2.493   0.552   1.475  0.3529 -1.6358 -1.3219
 3771TIP3    H232873   2.406   0.429   1.464  0.0243 -1.6478  0.9317
 3772TIP3   OH232874   4.626   5.129   6.282 -0.1330  0.5149  0.7071
 3772TIP3    H132875   4.646   5.047   6.327 -0.1714 -0.4148 -0.8697
 3772TIP3    H232876   4.699   5.187   6.304  0.6351 -0.4289  0.7496
 3773TIP3   OH232877   4.815   6.230   1.530 -1.1025  0.1627 -0.4988
 3773TIP3    H132878   4.761   6.192   1.599  0.6999 -0.1877  0.7681
 3773TIP3    H232879   4.836   6.156   1.473 -1.3890  0.1856 -0.6418
 3774TIP3   OH232880   6.240   1.081   8.471 -0.8144 -0.4338  0.4449
 3774TIP3    H132881   6.154   1.122   8.484 -0.3735  1.0219 -0.9027
 3774TIP3    H232882   6.220   1.001   8.423 -1.2586  2.1255 -4.2686
 3775TIP3   OH232883   0.180   0.930   6.688 -0.5780 -0.3719  0.2464
 3775TIP3    H132884   0.130   1.011   6.696 -2.1095 -1.2943  0.3482
 3775TIP3    H232885   0.116   0.865   6.659  0.7553 -1.4120 -0.5053
 3776TIP3   OH232886   2.553   3.773   7.595  0.0422  0.1401 -0.1034
 3776TIP3    H132887   2.619   3.799   7.531  1.5568  0.7146  1.6012
 3776TIP3    H232888   2.566   3.832   7.669 -2.3876  0.2386  0.3336
 3777TIP3   OH232889   3.323   1.568   8.401  0.2837 -0.5658  0.0724
 3777TIP3    H132890   3.262   1.527   8.340  0.2401 -0.7887  0.2646
 3777TIP3    H232891   3.270   1.592   8.477  0.1512  0.5901 -0.3703
 3778TIP3   OH232892   2.925   5.380   7.909 -0.0939  0.3200 -0.3759
 3778TIP3    H132893   2.835   5.405   7.888 -0.4602  0.0070  0.7422
 3778TIP3    H232894   2.976   5.460   7.896 -0.6318  0.6492 -0.4662
 3779TIP3   OH232895   4.386   1.060   1.542  0.0453 -0.2811  0.5386
 3779TIP3    H132896   4.402   1.087   1.452  0.7428  0.7115  0.9492
 3779TIP3    H232897   4.452   0.993   1.559 -0.1751 -0.5682  0.2790
 3780TIP3   OH232898   1.151   2.647   0.420  0.5983 -0.1758 -0.4648
 3780TIP3    H132899   1.056   2.634   0.430  0.3076  1.7428 -0.2750
 3780TIP3    H232900   1.166   2.636   0.326  0.0948 -0.0158 -0.5710
 3781TIP3   OH232901   6.769   3.767   2.350 -0.0228  0.4151 -0.4502
 3781TIP3    H132902   6.828   3.695   2.328  0.2060  0.7302 -0.8639
 3781TIP3    H232903   6.726   3.790   2.268 -0.4431  0.4405 -0.2263
 3782TIP3   OH232904   0.001   4.095   2.151  0.2391  0.1628  0.0074
 3782TIP3    H132905   0.003   4.190   2.164 -2.0678  0.3713 -0.7774
 3782TIP3    H232906   0.092   4.067   2.165  1.0359  2.5089 -0.0789
 3783TIP3   OH232907   6.074   2.799   7.817 -0.0832  0.4611  0.5011
 3783TIP3    H132908   6.133   2.857   7.768 -0.2563  0.9111  0.8251
 3783TIP3    H232909   6.072   2.718   7.765 -1.3741  1.4103 -1.0040
 3784TIP3   OH232910   6.248   3.498   8.477 -0.5019 -0.6176  0.1815
 3784TIP3    H132911   6.294   3.426   8.432 -0.8987 -0.6361 -0.2082
 3784TIP3    H232912   6.208   3.548   8.406 -0.2161  0.0017  0.4527
 3785TIP3   OH232913   4.664   6.341   7.225  0.5256 -0.1608 -0.0552
 3785TIP3    H132914   4.759   6.347   7.229  0.5118 -0.4155  1.6483
 3785TIP3    H232915   4.636   6.347   7.317 -0.9997 -1.3728 -0.3901
 3786TIP3   OH232916   1.961   3.949   0.898 -0.2520  0.1974 -0.1331
 3786TIP3    H132917   1.893   4.015   0.884 -0.0567  0.3782 -0.2274
 3786TIP3    H232918   1.955   3.928   0.991 -0.1096  0.5761 -0.0368
 3787TIP3   OH232919   6.670   5.684   8.043  0.5389  0.3079 -0.3570
 3787TIP3    H132920   6.738   5.623   8.014  0.2337  1.0035 -2.7289
 3787TIP3    H232921   6.620   5.704   7.964 -2.4857 -0.1876  1.2485
 3788TIP3   OH232922   1.212   6.046   0.059  0.4172  0.5053 -0.7652
 3788TIP3    H132923   1.154   6.065   0.132  1.8098  1.5125  0.1339
 3788TIP3    H232924   1.157   6.057  -0.019 -0.6595  1.1365  0.0520
 3789TIP3   OH232925   5.510   3.175   1.744 -0.1470  0.5435 -0.9311
 3789TIP3    H132926   5.447   3.186   1.815 -0.6088  0.6881 -1.3536
 3789TIP3    H232927   5.589   3.143   1.787 -1.0472 -1.3761 -0.5789
 3790TIP3   OH232928   5.527   2.332   7.906 -0.7200 -0.0291  0.1554
 3790TIP3    H132929   5.453   2.319   7.965  0.0867 -3.0022  0.7239
 3790TIP3    H232930   5.599   2.360   7.964 -0.9724  1.1832 -0.1146
 3791TIP3   OH232931   3.485   2.510   8.441 -0.1287  0.1766  0.0638
 3791TIP3    H132932   3.447   2.453   8.374 -1.5362 -0.6108  1.4666
 3791TIP3    H232933   3.436   2.490   8.520  1.0651  1.5332  1.2068
 3792TIP3   OH232934   4.456   1.212   2.325 -0.1159 -0.0350 -0.3660
 3792TIP3    H132935   4.489   1.302   2.326  0.6827 -0.3197 -0.0968
 3792TIP3    H232936   4.530   1.160   2.293 -0.2413 -0.7220  0.4390
 3793TIP3   OH232937   4.491   6.141   7.060  0.1596 -0.6856  0.4548
 3793TIP3    H132938   4.554   6.208   7.086  0.6334 -1.3628  1.0819
 3793TIP3    H232939   4.514   6.065   7.113  0.6137 -1.8490 -1.3225
 3794TIP3   OH232940   6.222   4.572   8.109  0.2544 -0.0102  0.2157
 3794TIP3    H132941   6.169   4.558   8.188 -0.1783  1.0914  0.1474
 3794TIP3    H232942   6.300   4.617   8.141 -0.0053  0.6024 -0.0008
 3795TIP3   OH232943   3.651   6.162   0.683  0.2339 -0.2923 -1.0380
 3795TIP3    H132944   3.601   6.081   0.683 -0.7092  0.2812 -1.1538
 3795TIP3    H232945   3.697   6.161   0.768  0.4451 -1.0573 -1.1475
 3796TIP3   OH232946   3.034   3.271   2.385  0.1117  0.0454  0.1028
 3796TIP3    H132947   2.946   3.300   2.363  0.2351 -0.5609 -1.3707
 3796TIP3    H232948   3.084   3.352   2.396 -0.8721  0.4239  2.2634
 3797TIP3   OH232949   4.883   2.993   1.115  0.1000  0.8588  0.9881
 3797TIP3    H132950   4.790   3.011   1.106  0.0140 -0.2824 -1.0368
 3797TIP3    H232951   4.888   2.904   1.148  0.4624  0.7996  0.7844
 3798TIP3   OH232952   6.066   0.348   0.217  0.4888 -0.4381  0.0675
 3798TIP3    H132953   5.971   0.356   0.224  0.4956  0.6298 -0.8949
 3798TIP3    H232954   6.080   0.308   0.131  1.0037  3.8311 -2.1019
 3799TIP3   OH232955   6.466   2.773   0.426 -0.4185  0.3367  0.5184
 3799TIP3    H132956   6.549   2.801   0.465 -0.2963  0.5334  0.1294
 3799TIP3    H232957   6.492   2.736   0.341 -0.7219  0.3359  0.4272
 3800TIP3   OH232958   1.663   1.643   1.437  0.4004 -0.1171 -0.4000
 3800TIP3    H132959   1.598   1.617   1.502 -0.7045  0.8685 -1.0537
 3800TIP3    H232960   1.646   1.587   1.361  0.2656  0.1813 -0.5932
 3801TIP3   OH232961   6.292   4.603   1.773 -0.5875  0.2663 -0.0901
 3801TIP3    H132962   6.208   4.617   1.730 -0.8891 -1.0360  0.0338
 3801TIP3    H232963   6.350   4.668   1.733 -1.4200  0.5613 -0.8574
 3802TIP3   OH232964   6.817   3.566   8.280 -0.3061  0.2520 -0.1125
 3802TIP3    H132965   6.797   3.480   8.318 -1.4170  0.5442  0.0061
 3802TIP3    H232966   6.847   3.546   8.191 -0.6648 -0.2675 -0.1276
 3803TIP3   OH232967   0.516   5.470   7.791 -0.4475 -0.5699  0.5723
 3803TIP3    H132968   0.578   5.465   7.865 -0.3447 -1.6760  0.4275
 3803TIP3    H232969   0.433   5.497   7.831 -0.1395 -0.1060  0.9212
 3804TIP3   OH232970   1.008   4.806   1.847  0.2497 -0.5094 -0.5445
 3804TIP3    H132971   1.087   4.753   1.848  1.4897  1.2238  1.3598
 3804TIP3    H232972   1.009   4.852   1.932 -0.8923  2.2399 -1.9037
 3805TIP3   OH232973   6.758   4.151   6.898 -0.1956 -0.5648  0.1198
 3805TIP3    H132974   6.841   4.191   6.873 -0.9383  1.6063  0.9142
 3805TIP3    H232975   6.738   4.090   6.828  1.3930 -0.1146 -0.7660
 3806TIP3   OH232976   2.284   2.546   1.575 -0.0707  0.6109  0.1528
 3806TIP3    H132977   2.288   2.476   1.639  1.5585  1.0899  0.6162
 3806TIP3    H232978   2.269   2.625   1.627 -1.4512  0.6972 -0.3251
 3807TIP3   OH232979   0.492   1.030   7.312 -0.0012  0.3546  0.2797
 3807TIP3    H132980   0.512   1.104   7.368  0.6572 -0.7813  1.6234
 3807TIP3    H232981   0.521   0.953   7.362 -3.2011 -1.0572  0.2115
 3808TIP3   OH232982   6.342   5.480   2.450 -0.0177  0.1115 -0.3807
 3808TIP3    H132983   6.287   5.456   2.525  0.7581 -1.1932 -0.1909
 3808TIP3    H232984   6.335   5.575   2.445 -0.8788  0.1327  0.7344
 3809TIP3   OH232985   1.120   4.157   7.781  0.6629  0.4359 -0.1231
 3809TIP3    H132986   1.196   4.156   7.839  0.0393  0.2070  0.7076
 3809TIP3    H232987   1.080   4.071   7.793 -0.5096  1.0496  0.5118
 3810TIP3   OH232988   4.914   2.557   7.311 -0.3039  0.4225 -0.0760
 3810TIP3    H132989   4.991   2.586   7.263  0.0518 -0.7167 -0.2153
 3810TIP3    H232990   4.916   2.462   7.305 -1.3650  0.3494  0.4782
 3811TIP3   OH232991   1.768   2.551   0.029  0.0352  0.6283  0.5544
 3811TIP3    H132992   1.740   2.488   0.095  1.7460 -2.4133 -1.3523
 3811TIP3    H232993   1.864   2.548   0.033  0.2138 -0.0696 -2.2697
 3812TIP3   OH232994   5.587   2.413   8.391  0.1157  0.0309  0.4864
 3812TIP3    H132995   5.546   2.486   8.346 -1.7597 -0.4303  1.3379
 3812TIP3    H232996   5.672   2.446   8.418 -0.1814  1.4693 -0.2401
 3813TIP3   OH232997   2.497   6.187   6.852 -0.1213 -0.7573 -0.8093
 3813TIP3    H132998   2.467   6.277   6.846 -0.2612 -0.6823  0.6427
 3813TIP3    H232999   2.429   6.136   6.808  0.1678 -0.1483 -2.0183
 3814TIP3   OH233000   6.435   5.676   8.383  0.0747  0.5942  0.2318
 3814TIP3    H133001   6.363   5.633   8.429  1.3545  1.3749  3.2662
 3814TIP3    H233002   6.409   5.768   8.379 -0.2176  0.4680 -1.1101
 3815TIP3   OH233003   2.546   1.948   1.331  0.4459 -0.1983 -0.2517
 3815TIP3    H133004   2.506   2.006   1.267  1.8695  2.8123  1.3859
 3815TIP3    H233005   2.480   1.938   1.400  1.0852  1.7574  0.7087
 3816TIP3   OH233006   0.802   3.418   7.412  1.1307 -0.0186  0.0185
 3816TIP3    H133007   0.819   3.362   7.337 -0.6393  0.3697 -0.7383
 3816TIP3    H233008   0.829   3.366   7.488  3.4152 -0.2142 -0.8775
 3817TIP3   OH233009   2.695   6.314   6.483 -0.0793  0.8007 -0.1193
 3817TIP3    H133010   2.621   6.326   6.543  1.1941 -1.2088  2.0240
 3817TIP3    H233011   2.658   6.264   6.410 -0.6707 -1.2373  1.4849
 3818TIP3   OH233012   1.375   2.440   8.590 -0.6495  0.3687  0.0714
 3818TIP3    H133013   1.383   2.344   8.594  1.1625  0.3851 -1.8389
 3818TIP3    H233014   1.382   2.468   8.681 -0.5045 -1.2672  0.5997
 3819TIP3   OH233015   6.363   0.517   0.581  0.6216  0.1291 -0.0281
 3819TIP3    H133016   6.345   0.575   0.655  1.7520 -0.4692  0.7563
 3819TIP3    H233017   6.287   0.458   0.577  1.8214 -1.8171  2.6586
 3820TIP3   OH233018   6.472   2.996   7.796 -0.1969 -0.0927 -0.2881
 3820TIP3    H133019   6.520   3.062   7.745 -0.2143  0.0214 -0.1588
 3820TIP3    H233020   6.398   3.044   7.833 -0.9502 -0.4751 -1.2459
 3821TIP3   OH233021   4.105   4.136   0.972  0.1976 -0.2488  0.5793
 3821TIP3    H133022   4.054   4.083   0.911 -0.0919 -0.3136  0.8754
 3821TIP3    H233023   4.040   4.189   1.018  0.4844  0.3601  0.2956
 3822TIP3   OH233024   2.071   2.008   7.363  0.4106 -0.4133 -0.2491
 3822TIP3    H133025   2.090   1.937   7.424  2.2081  0.0475 -0.1975
 3822TIP3    H233026   2.053   1.965   7.280 -0.5538 -0.9854  0.2440
 3823TIP3   OH233027   6.680   3.343   8.363  0.2187 -0.0384  0.4712
 3823TIP3    H133028   6.649   3.382   8.444 -1.6012  0.4399 -0.3940
 3823TIP3    H233029   6.648   3.253   8.367 -0.0949  0.0584  0.1854
 3824TIP3   OH233030   2.820   5.259   0.528 -0.1108  0.2802  0.5869
 3824TIP3    H133031   2.801   5.317   0.602  1.2365 -0.1236  1.2676
 3824TIP3    H233032   2.833   5.172   0.567 -0.5491 -0.1861 -0.2545
 3825TIP3   OH233033   1.202   3.416   1.085  0.0699 -0.0767  0.7088
 3825TIP3    H133034   1.176   3.479   1.019  0.6127  2.1924  2.5367
 3825TIP3    H233035   1.128   3.412   1.145  0.3902 -0.5210  1.0862
 3826TIP3   OH233036   3.891   3.119   0.248  1.1703 -0.0603 -0.8689
 3826TIP3    H133037   3.949   3.144   0.176  1.6312 -1.0547 -0.8644
 3826TIP3    H233038   3.849   3.039   0.218  0.4031  0.2070 -0.5379
 3827TIP3   OH233039   4.455   1.734   7.307 -0.4311  0.8160 -0.3857
 3827TIP3    H133040   4.531   1.695   7.263 -0.0470  2.6229 -1.4300
 3827TIP3    H233041   4.456   1.695   7.394  0.2578 -1.0050 -1.1542
 3828TIP3   OH233042   1.539   0.142   7.376  0.0878 -0.3941  0.2132
 3828TIP3    H133043   1.476   0.124   7.306 -2.7509 -0.8147  2.6679
 3828TIP3    H233044   1.503   0.218   7.422  2.7677  0.9419  0.2776
 3829TIP3   OH233045   3.132   5.488   2.276  0.3393  0.3718 -0.5674
 3829TIP3    H133046   3.215   5.441   2.285  0.9036  1.3921 -0.1192
 3829TIP3    H233047   3.144   5.567   2.330 -1.3865 -0.0511  0.4947
 3830TIP3   OH233048   5.407   4.510   1.542  0.7841 -0.4102  0.4419
 3830TIP3    H133049   5.341   4.538   1.479  1.4260  2.0105  0.7720
 3830TIP3    H233050   5.374   4.538   1.627  1.9461  0.3062  0.6772
 3831TIP3   OH233051   0.201   2.182   0.414  0.0619 -0.6409  0.3620
 3831TIP3    H133052   0.118   2.159   0.457  0.0297  0.4446  0.9227
 3831TIP3    H233053   0.216   2.111   0.351 -0.7501 -1.3962  0.9925
 3832TIP3   OH233054   3.880   1.813   8.279  0.2082 -0.8591 -0.1517
 3832TIP3    H133055   3.845   1.783   8.196  0.6813  0.0738 -0.6999
 3832TIP3    H233056   3.968   1.846   8.258  0.2122 -0.3222  0.6511
 3833TIP3   OH233057   1.343   1.392   6.312 -0.2439 -0.7623  0.2711
 3833TIP3    H133058   1.270   1.353   6.264 -0.7911 -0.9988  1.2804
 3833TIP3    H233059   1.354   1.336   6.389  2.2217 -1.8775 -0.7648
 3834TIP3   OH233060   4.289   0.933   1.868  0.3361 -0.0164 -0.7308
 3834TIP3    H133061   4.347   0.961   1.939 -1.3765 -1.0713  1.1717
 3834TIP3    H233062   4.255   1.014   1.831 -1.0530  0.5662  1.6723
 3835TIP3   OH233063   5.377   6.656   6.687  0.0924  0.2478  0.2937
 3835TIP3    H133064   5.349   6.627   6.601 -0.0040 -1.8880  0.9842
 3835TIP3    H233065   5.426   6.736   6.671  2.3387 -1.4512 -2.0545
 3836TIP3   OH233066   2.808   2.382   7.383  0.2434  0.1511 -0.0492
 3836TIP3    H133067   2.752   2.369   7.460 -1.6610  0.6773 -1.2602
 3836TIP3    H233068   2.814   2.295   7.343 -0.1587  0.1844 -0.1890
 3837TIP3   OH233069   0.529   4.133   2.065 -0.1694  0.5830 -0.8666
 3837TIP3    H133070   0.607   4.142   2.119  0.0835  2.0944 -1.4408
 3837TIP3    H233071   0.457   4.153   2.124  0.0165  0.9517 -0.7566
 3838TIP3   OH233072   1.004   4.746   0.559 -0.0034 -0.3517  0.3557
 3838TIP3    H133073   0.968   4.731   0.647 -2.1155 -0.1790 -0.4268
 3838TIP3    H233074   1.003   4.841   0.548  1.4085 -0.2964  0.5750
 3839TIP3   OH233075   0.184   5.472   0.759 -0.8893  0.4738  0.0947
 3839TIP3    H133076   0.192   5.382   0.791 -0.0875  0.6679  0.4497
 3839TIP3    H233077   0.237   5.474   0.680 -0.1004  0.8924  0.6288
 3840TIP3   OH233078   0.888   6.512   0.377  0.2812  0.1288 -0.3632
 3840TIP3    H133079   0.867   6.599   0.343  1.0391  0.5237  0.1572
 3840TIP3    H233080   0.983   6.507   0.373  0.3088 -0.2649  0.6031
 3841TIP3   OH233081   2.571   6.831   7.969  0.1782  0.1538 -0.2978
 3841TIP3    H133082   2.515   6.806   7.896  1.4498 -0.8315 -0.9799
 3841TIP3    H233083   2.589   6.749   8.015  2.0379  0.2022 -0.8383
 3842TIP3   OH233084   6.538   6.210   6.629  0.9404  0.2852  0.4697
 3842TIP3    H133085   6.583   6.260   6.561 -0.1873 -0.8292 -1.1876
 3842TIP3    H233086   6.604   6.150   6.663  0.8381 -1.3875 -1.9845
 3843TIP3   OH233087   2.650   5.847   1.427  0.0161 -0.2203  0.5221
 3843TIP3    H133088   2.733   5.814   1.393 -0.0197  0.1278  0.0759
 3843TIP3    H233089   2.590   5.772   1.424 -0.5358  0.2437 -2.0498
 3844TIP3   OH233090   4.542   4.291   7.077 -0.0167 -0.2152 -0.1260
 3844TIP3    H133091   4.506   4.204   7.058  1.6998 -1.1298  0.5762
 3844TIP3    H233092   4.578   4.321   6.994  1.0054 -0.9998  0.0209
 3845TIP3   OH233093   5.264   2.899   0.644  0.2345 -0.2854 -0.1427
 3845TIP3    H133094   5.266   2.812   0.685 -3.1575 -0.2044  0.5364
 3845TIP3    H233095   5.340   2.945   0.679  2.3498 -3.0208 -0.7854
 3846TIP3   OH233096   3.648   5.912   7.690  0.2878 -0.5895  0.0041
 3846TIP3    H133097   3.687   5.991   7.653  1.7315 -0.5761  1.4411
 3846TIP3    H233098   3.661   5.921   7.784 -1.8635 -1.3444  0.4244
 3847TIP3   OH233099   1.645   0.063   8.016  0.1205 -0.1115 -0.2263
 3847TIP3    H133100   1.721   0.098   8.064  0.8842 -0.4938 -1.1122
 3847TIP3    H233101   1.628   0.128   7.948  0.4564 -0.6159 -0.8059
 3848TIP3   OH233102   4.711   2.728   6.845 -0.5268  0.5615 -0.3650
 3848TIP3    H133103   4.797   2.703   6.879 -1.4760 -1.7154  0.6079
 3848TIP3    H233104   4.682   2.798   6.903 -0.0405  0.1308  0.4234
 3849TIP3   OH233105   4.914   6.462   1.801 -0.2598  0.6805 -0.7677
 3849TIP3    H133106   4.971   6.389   1.826 -0.5285  0.4513 -0.8099
 3849TIP3    H233107   4.926   6.526   1.871 -1.6474 -0.3044  0.4463
 3850TIP3   OH233108   4.422   2.474   7.575  0.5484  0.0813  0.1709
 3850TIP3    H133109   4.327   2.468   7.582  0.6462 -2.5861 -0.1027
 3850TIP3    H233110   4.437   2.550   7.519 -1.3806  0.7459  0.4775
 3851TIP3   OH233111   1.703   4.765   6.487 -0.0554  0.0824 -0.1155
 3851TIP3    H133112   1.779   4.715   6.457  0.2909  0.9923 -0.8185
 3851TIP3    H233113   1.735   4.855   6.493 -0.0915  0.0006  3.0795
 3852TIP3   OH233114   2.222   5.241   0.114  0.2616  0.8261  0.4998
 3852TIP3    H133115   2.237   5.177   0.045  0.9465  1.6408 -0.1298
 3852TIP3    H233116   2.172   5.194   0.181 -0.8344  0.1596 -0.7532
 3853TIP3   OH233117   0.326   3.204   2.301 -0.0821 -0.7187  0.9375
 3853TIP3    H133118   0.283   3.277   2.344 -0.1037  0.1985 -0.6057
 3853TIP3    H233119   0.373   3.160   2.372  0.6797  1.3085  1.7680
 3854TIP3   OH233120   4.299   3.552   0.446  0.4029  0.6627 -0.0100
 3854TIP3    H133121   4.304   3.473   0.500 -0.3808 -0.2000 -1.1321
 3854TIP3    H233122   4.319   3.521   0.357 -0.5935  1.5860 -0.5815
 3855TIP3   OH233123   3.705   2.542   0.874 -0.4676 -0.3643 -0.2019
 3855TIP3    H133124   3.724   2.624   0.827 -2.6924  0.2377 -0.1515
 3855TIP3    H233125   3.722   2.562   0.966 -0.8068 -0.0142 -0.2138
 3856TIP3   OH233126   2.170   6.846   2.651 -0.1191  0.0607  0.2503
 3856TIP3    H133127   2.124   6.815   2.573  0.5181 -0.3420  0.0275
 3856TIP3    H233128   2.206   6.767   2.691  1.0006  0.4425  0.0170
 3857TIP3   OH233129   0.902   4.423   7.308 -0.0360  0.6935  0.0433
 3857TIP3    H133130   0.836   4.429   7.377 -0.2793  2.3363 -0.2914
 3857TIP3    H233131   0.862   4.367   7.242 -0.1220 -0.2437  0.8545
 3858TIP3   OH233132   6.320   4.254   7.526  0.0482  0.1696  0.1661
 3858TIP3    H133133   6.389   4.220   7.469 -2.1402  1.9075 -3.8577
 3858TIP3    H233134   6.266   4.177   7.545  1.4832 -0.6741  1.1025
 3859TIP3   OH233135   4.121   5.055   1.272 -0.2665 -0.6189 -0.8450
 3859TIP3    H133136   4.066   5.121   1.230  0.3105  0.1834 -0.3507
 3859TIP3    H233137   4.113   5.072   1.365 -0.8641 -1.8610 -0.6445
 3860TIP3   OH233138   5.627   1.889   0.560 -0.0042 -0.3906 -0.3659
 3860TIP3    H133139   5.555   1.847   0.512 -1.3917  0.7144  0.6765
 3860TIP3    H233140   5.705   1.843   0.530 -0.8975 -0.3929 -2.9658
 3861TIP3   OH233141   6.716   4.000   0.777 -0.0798  0.0205  0.8755
 3861TIP3    H133142   6.789   3.941   0.758 -0.4661 -0.4402  0.8136
 3861TIP3    H233143   6.683   3.969   0.862  0.2891  0.7193  1.2782
 3862TIP3   OH233144   2.771   5.596   2.356 -0.3575 -0.2131 -0.0861
 3862TIP3    H133145   2.677   5.579   2.360 -0.3640 -0.0915  0.4268
 3862TIP3    H233146   2.777   5.692   2.348 -0.3330 -0.3699 -3.3101
 3863TIP3   OH233147   1.198   0.485   1.511  0.0639  0.8738  0.3113
 3863TIP3    H133148   1.166   0.396   1.522 -0.3220  1.2031  2.1210
 3863TIP3    H233149   1.289   0.483   1.540  0.6673  0.7044 -1.4511
 3864TIP3   OH233150   5.859   4.225   0.471  0.0290  0.3649  0.1251
 3864TIP3    H133151   5.921   4.194   0.404 -0.7767 -0.6475 -0.1693
 3864TIP3    H233152   5.824   4.306   0.434  0.9297  0.7892  0.1549
 3865TIP3   OH233153   0.680   2.180   0.252  0.3296  0.1726 -0.5849
 3865TIP3    H133154   0.677   2.276   0.246  0.3892  0.1229 -1.6858
 3865TIP3    H233155   0.679   2.162   0.346 -0.5913  1.2220 -0.3661
 3866TIP3   OH233156   6.750   4.750   7.910  0.2113 -0.6112 -0.9772
 3866TIP3    H133157   6.785   4.688   7.973 -1.9259 -0.5204  0.4097
 3866TIP3    H233158   6.718   4.697   7.837 -0.2212 -1.0189 -0.4934
 3867TIP3   OH233159   6.088   3.961   1.931 -0.2203 -0.1790  0.4941
 3867TIP3    H133160   6.164   3.914   1.898 -0.2125 -0.1824  0.5174
 3867TIP3    H233161   6.074   3.927   2.019 -1.1290 -1.2356 -0.0364
 3868TIP3   OH233162   0.861   0.545   0.086  0.5923  0.3943  0.7783
 3868TIP3    H133163   0.766   0.555   0.089  0.4404  0.8211 -2.2351
 3868TIP3    H233164   0.894   0.634   0.079  1.3352  0.3059  2.6298
 3869TIP3   OH233165   6.708   1.555   1.597 -0.4228 -0.2524 -0.4108
 3869TIP3    H133166   6.779   1.558   1.533 -0.6055  1.9617 -0.5931
 3869TIP3    H233167   6.629   1.543   1.545 -0.3767 -0.7540 -0.3740
 3870TIP3   OH233168   0.977   5.240   6.421  0.2326  0.2242 -0.4666
 3870TIP3    H133169   0.960   5.320   6.372  0.6297  0.7799  0.2861
 3870TIP3    H233170   0.891   5.198   6.428  0.0394  0.5272 -0.9521
 3871TIP3   OH233171   1.164   4.093   1.339 -0.5190  0.1387 -0.2490
 3871TIP3    H133172   1.130   4.022   1.285  2.6771 -1.2131 -0.7152
 3871TIP3    H233173   1.183   4.164   1.277 -0.3571  0.0417 -0.3079
 3872TIP3   OH233174   6.547   6.441   1.966 -0.0204  0.0384 -0.5881
 3872TIP3    H133175   6.546   6.526   2.009 -0.0057 -0.7488  1.0687
 3872TIP3    H233176   6.635   6.433   1.929  0.8048 -0.1846  1.3024
 3873TIP3   OH233177   0.103   4.590   0.304  0.1451 -0.2948  0.6586
 3873TIP3    H133178   0.110   4.522   0.372  0.3542  0.2144  1.1525
 3873TIP3    H233179   0.105   4.541   0.221  1.5725 -0.8223  0.9705
 3874TIP3   OH233180   0.318   3.628   7.498 -0.7701 -0.1567  0.5864
 3874TIP3    H133181   0.348   3.718   7.489 -0.8619 -0.1937 -0.1156
 3874TIP3    H233182   0.357   3.598   7.581  0.0593  0.2154  0.3371
 3875TIP3   OH233183   1.877   4.954   0.932 -0.2935  0.7685  0.1958
 3875TIP3    H133184   1.947   5.019   0.936  0.8902 -0.2493 -2.0287
 3875TIP3    H233185   1.906   4.883   0.989  1.2700 -0.2758 -1.7961
 3876TIP3   OH233186   3.116   1.783   7.831  0.0520 -0.5004 -0.6033
 3876TIP3    H133187   3.151   1.823   7.751  1.1124  0.2521  0.1966
 3876TIP3    H233188   3.127   1.851   7.898  0.4672 -1.5937  0.4750
 3877TIP3   OH233189   5.291   2.180   7.756  0.2253  0.1912 -0.0771
 3877TIP3    H133190   5.256   2.260   7.717 -0.5100 -0.3188 -0.4792
 3877TIP3    H233191   5.363   2.210   7.812  2.3845  0.8406 -2.9787
 3878TIP3   OH233192   5.789   2.290   6.598 -0.3257  0.2073 -0.6303
 3878TIP3    H133193   5.854   2.312   6.531  0.4375 -2.7788 -0.9781
 3878TIP3    H233194   5.705   2.295   6.552 -0.4760  3.6383 -0.2887
 3879TIP3   OH233195   2.048   6.295   8.559 -0.5235 -0.0815  0.3876
 3879TIP3    H133196   2.120   6.359   8.553  0.6396 -1.5157 -3.2890
 3879TIP3    H233197   2.062   6.253   8.644  1.5393  1.2792  0.8078
 3880TIP3   OH233198   2.627   4.099   1.945 -0.2117 -0.4174 -0.2472
 3880TIP3    H133199   2.645   4.018   1.899 -0.2837 -1.1946  1.0554
 3880TIP3    H233200   2.713   4.137   1.963 -0.1281 -0.8362  0.2389
 3881TIP3   OH233201   3.518   1.587   0.915  0.1161  0.0686 -0.1702
 3881TIP3    H133202   3.608   1.556   0.908  0.8145  1.7573  0.7844
 3881TIP3    H233203   3.501   1.631   0.832  0.5350  0.5920  0.0142
 3882TIP3   OH233204   5.259   5.276   0.052  0.0420 -0.5019 -1.0831
 3882TIP3    H133205   5.346   5.250   0.085 -0.1762  0.9203  0.7921
 3882TIP3    H233206   5.278   5.328  -0.026  0.7837 -1.3825 -1.5126
 3883TIP3   OH233207   2.560   4.130   0.235 -0.3486  0.0168  0.1972
 3883TIP3    H133208   2.584   4.049   0.280 -2.3047 -0.9112 -0.3127
 3883TIP3    H233209   2.638   4.185   0.241  0.6692 -1.4761  1.5065
 3884TIP3   OH233210   2.924   3.249   0.341 -0.5520  0.2215 -0.9860
 3884TIP3    H133211   2.930   3.290   0.254  2.0071  1.2264 -0.4199
 3884TIP3    H233212   2.882   3.164   0.324 -0.4274  0.5289 -3.1551
 3885TIP3   OH233213   2.045   5.009   2.361 -0.0686  0.0572  0.0504
 3885TIP3    H133214   2.114   5.056   2.316 -0.2337 -1.7070 -2.1945
 3885TIP3    H233215   2.090   4.939   2.408 -0.0674  0.8756  1.3220
 3886TIP3   OH233216   4.460   1.569   6.981  0.3195 -0.3516 -0.0277
 3886TIP3    H133217   4.406   1.547   6.905 -0.6901  0.5472  0.4110
 3886TIP3    H233218   4.463   1.488   7.033 -0.5381 -0.4333 -0.0965
 3887TIP3   OH233219   3.558   0.031   0.866 -0.3179 -0.5675  0.3208
 3887TIP3    H133220   3.544   0.122   0.891 -1.2730 -0.3210 -1.0006
 3887TIP3    H233221   3.621   0.035   0.794  0.6403 -1.0718  1.1121
 3888TIP3   OH233222   2.717   6.819   8.312  0.1494  0.1248 -0.4828
 3888TIP3    H133223   2.782   6.851   8.373 -0.4042 -1.3299  0.9270
 3888TIP3    H233224   2.670   6.898   8.283 -0.8921  0.7366  2.5209
 3889TIP3   OH233225   5.751   3.665   7.129  0.1047  0.1205  0.1668
 3889TIP3    H133226   5.726   3.602   7.061 -0.2428 -0.7994  1.1234
 3889TIP3    H233227   5.836   3.633   7.160  0.0230  0.2409  0.5157
 3890TIP3   OH233228   1.668   3.989   1.836  0.2362  0.1432  0.6319
 3890TIP3    H133229   1.669   4.080   1.865  0.7278 -0.1565  1.5792
 3890TIP3    H233230   1.660   3.995   1.741 -1.9405  1.1334  0.8125
 3891TIP3   OH233231   6.200   4.093   2.352  0.0946 -0.0150  0.1274
 3891TIP3    H133232   6.186   4.034   2.425 -0.8302  0.9449  0.7531
 3891TIP3    H233233   6.131   4.159   2.360  0.9993  1.0750 -0.6250
 3892TIP3   OH233234   5.572   2.176   8.536  0.2848 -0.0969  0.3666
 3892TIP3    H133235   5.599   2.162   8.627  1.1994  0.4013  0.1858
 3892TIP3    H233236   5.527   2.261   8.537  0.3416 -0.0664  0.3486
 3893TIP3   OH233237   5.703   2.076   1.024  0.4375  0.3624 -0.3689
 3893TIP3    H133238   5.632   2.035   0.974  0.6181 -0.2115 -0.1702
 3893TIP3    H233239   5.682   2.169   1.025 -0.4519  0.1659 -0.0930
 3894TIP3   OH233240   1.950   3.027   8.077  0.1349  0.3220  0.0890
 3894TIP3    H133241   1.866   3.000   8.039  0.7693  0.1026 -1.1803
 3894TIP3    H233242   2.007   3.042   8.002  1.0132  1.2355  0.9197
 3895TIP3   OH233243   4.847   0.869   7.504  0.0064 -0.0075  0.2087
 3895TIP3    H133244   4.810   0.782   7.517  1.3369 -0.8048 -1.0992
 3895TIP3    H233245   4.823   0.893   7.415  0.8347  0.3750  0.0838
 3896TIP3   OH233246   5.721   0.815   7.922 -0.2287  0.0904  0.0010
 3896TIP3    H133247   5.758   0.824   7.834 -0.9451 -0.0108 -0.3124
 3896TIP3    H233248   5.726   0.903   7.959  1.5437 -0.1674  0.4636
 3897TIP3   OH233249   6.476   5.184   1.129 -0.7678  0.3373  0.5223
 3897TIP3    H133250   6.418   5.235   1.073  0.6753 -1.2297 -2.6756
 3897TIP3    H233251   6.443   5.094   1.124  1.0997 -0.3606 -0.3162
 3898TIP3   OH233252   5.723   2.148   0.545 -0.2175  0.1117  0.0067
 3898TIP3    H133253   5.650   2.194   0.503 -0.7965 -1.1700 -0.4498
 3898TIP3    H233254   5.693   2.057   0.553  0.5286 -0.0254  1.7077
 3899TIP3   OH233255   3.928   0.043   1.869 -0.1322 -0.5603 -0.4105
 3899TIP3    H133256   4.001   0.076   1.921 -0.5896 -0.7870  0.4006
 3899TIP3    H233257   3.932  -0.052   1.879  0.3350 -0.6881 -1.5811
 3900TIP3   OH233258   4.682   4.806   7.564 -0.2414 -0.1266 -0.1173
 3900TIP3    H133259   4.712   4.858   7.639 -1.1746  0.2246  0.0368
 3900TIP3    H233260   4.749   4.819   7.497 -0.6937  1.7583 -0.2769
 3901TIP3   OH233261   5.707   0.021   6.637 -0.5461 -0.0703 -0.1840
 3901TIP3    H133262   5.630  -0.012   6.589 -1.0099  2.1614 -1.0721
 3901TIP3    H233263   5.684   0.111   6.660  1.0483  0.0052  1.2938
 3902TIP3   OH233264   2.011   2.420   6.915  0.1851 -0.2279  0.1976
 3902TIP3    H133265   1.989   2.399   6.824 -0.7365 -2.1647  0.8057
 3902TIP3    H233266   2.088   2.476   6.909 -1.2580  1.6664 -1.8323
 3903TIP3   OH233267   0.891   3.730   1.238  0.0269 -0.0439  0.1071
 3903TIP3    H133268   0.804   3.692   1.230  0.2812 -0.6713  0.3128
 3903TIP3    H233269   0.875   3.824   1.251 -0.6011 -0.0982 -0.2511
 3904TIP3   OH233270   1.339   4.552   0.715  0.0882 -0.1135 -0.1158
 3904TIP3    H133271   1.433   4.537   0.703  0.4141  1.1200  0.6561
 3904TIP3    H233272   1.330   4.647   0.711 -1.1824 -0.2362 -0.4640
 3905TIP3   OH233273   4.152   5.776   7.888  0.2813 -0.3360 -0.4341
 3905TIP3    H133274   4.067   5.817   7.896  0.1167 -0.3720 -1.7481
 3905TIP3    H233275   4.190   5.780   7.976 -1.5066 -1.2918  0.4258
 3906TIP3   OH233276   5.946   4.203   0.734 -0.0971  0.0938 -0.6872
 3906TIP3    H133277   5.915   4.217   0.644 -1.5839 -1.0587 -0.3777
 3906TIP3    H233278   6.034   4.166   0.723  0.4388  1.5295 -1.6132
 3907TIP3   OH233279   3.689   0.094   7.319 -0.2893  0.5448  0.6414
 3907TIP3    H133280   3.750   0.160   7.286 -0.9253  1.0281  0.3957
 3907TIP3    H233281   3.742   0.015   7.329  0.3616  0.9381  0.3949
 3908TIP3   OH233282   3.276   6.056   1.006 -0.6333  0.1026 -0.2308
 3908TIP3    H133283   3.333   6.119   0.963 -1.6746  0.7156 -0.7687
 3908TIP3    H233284   3.233   6.009   0.935 -2.2245  0.9884  0.0821
 3909TIP3   OH233285   1.493   2.678   0.456  0.1577 -0.2892 -0.4195
 3909TIP3    H133286   1.504   2.756   0.402  0.8631 -1.4336 -2.0358
 3909TIP3    H233287   1.404   2.684   0.490  0.1453  1.1288 -0.6549
 3910TIP3   OH233288   6.458   4.982   7.939  0.2102  0.5147  0.1552
 3910TIP3    H133289   6.378   5.033   7.948 -0.3161 -0.2289 -0.1660
 3910TIP3    H233290   6.430   4.903   7.892  1.1397  0.2666  0.0070
 3911TIP3   OH233291   1.283   3.438   7.074 -0.0930  0.3678  0.0857
 3911TIP3    H133292   1.301   3.502   7.143 -1.0086  0.9258 -0.1650
 3911TIP3    H233293   1.230   3.486   7.011  0.1781 -0.3259 -0.6844
 3912TIP3   OH233294   3.062   0.118   8.089  0.3941  0.0724 -0.3751
 3912TIP3    H133295   3.098   0.161   8.011  1.0933 -1.1127 -0.7212
 3912TIP3    H233296   3.138   0.082   8.134 -0.2318 -1.5269 -0.5448
 3913TIP3   OH233297   4.327   2.197   8.153 -0.5335 -0.1575 -0.0310
 3913TIP3    H133298   4.384   2.127   8.123 -0.1393  0.6928 -1.3541
 3913TIP3    H233299   4.283   2.228   8.073 -2.3153 -0.3182  0.8461
 3914TIP3   OH233300   3.196   5.077   2.001  0.1274 -0.9936 -0.2509
 3914TIP3    H133301   3.245   5.136   2.058 -0.5596  0.0551 -0.7100
 3914TIP3    H233302   3.257   5.006   1.981  2.0643  1.0190 -2.0856
 3915TIP3   OH233303   3.690   0.368   1.221 -0.0635 -0.3599  0.1733
 3915TIP3    H133304   3.696   0.462   1.237  0.8881 -0.1988 -0.9628
 3915TIP3    H233305   3.634   0.361   1.144 -0.7256 -0.7850  0.6840
 3916TIP3   OH233306   0.770   5.534   8.272  0.4013 -0.4994 -0.2433
 3916TIP3    H133307   0.819   5.612   8.247  0.0974 -0.1452  0.2650
 3916TIP3    H233308   0.776   5.531   8.368  0.7207 -1.3030 -0.2719
 3917TIP3   OH233309   3.311   6.636   0.225  0.0835 -0.0772  0.0511
 3917TIP3    H133310   3.342   6.602   0.309 -0.5248 -0.1012  0.2658
 3917TIP3    H233311   3.281   6.725   0.244  0.7688  0.2451 -0.3225
 3918TIP3   OH233312   4.291   5.075   6.394 -0.0870 -0.3007  0.6902
 3918TIP3    H133313   4.245   5.052   6.313  0.4632  0.5808  0.1184
 3918TIP3    H233314   4.221   5.088   6.458 -0.5496 -0.5370  0.2405
 3919TIP3   OH233315   5.401   6.287   7.915 -0.1948  0.6213  0.0274
 3919TIP3    H133316   5.376   6.253   7.829  0.3806  0.1103  0.0618
 3919TIP3    H233317   5.452   6.366   7.896  0.6953  0.0128 -0.1290
 3920TIP3   OH233318   1.669   3.815   0.034 -0.7182  0.0708  0.4117
 3920TIP3    H133319   1.763   3.801   0.045 -0.0951  0.5174 -3.0313
 3920TIP3    H233320   1.628   3.751   0.092  1.7673 -1.8490  0.2323
 3921TIP3   OH233321   1.081   4.876   8.020  0.1080 -0.1093 -0.0366
 3921TIP3    H133322   1.127   4.804   7.976  0.8052  0.1167  0.3112
 3921TIP3    H233323   1.018   4.907   7.955 -0.9091 -1.6786  0.1585
 3922TIP3   OH233324   1.501   5.892   8.358 -0.2366 -0.1681  0.4667
 3922TIP3    H133325   1.582   5.920   8.400 -0.6590 -0.1533  1.3067
 3922TIP3    H233326   1.523   5.809   8.315  0.8926  1.1135 -1.5905
 3923TIP3   OH233327   3.187   4.251   0.725 -0.0365  0.3595  0.4358
 3923TIP3    H133328   3.132   4.173   0.726 -0.2024  0.3564 -2.4897
 3923TIP3    H233329   3.130   4.320   0.762 -1.8002  0.1698 -1.7341
 3924TIP3   OH233330   6.444   2.088   0.371 -0.5071  0.4694 -0.9175
 3924TIP3    H133331   6.475   2.057   0.456  0.0090  1.4779 -0.7281
 3924TIP3    H233332   6.480   2.025   0.308  0.2680  0.5090 -0.5200
 3925TIP3   OH233333   6.812   4.135   1.518 -0.1197 -1.2420  0.0429
 3925TIP3    H133334   6.816   4.230   1.511 -0.9359 -1.2926 -1.3861
 3925TIP3    H233335   6.820   4.118   1.612 -0.4849  0.2593  0.3682
 3926TIP3   OH233336   3.547   3.042   8.379  0.4940 -0.1432 -0.0057
 3926TIP3    H133337   3.585   2.967   8.333 -1.0006 -0.6863 -0.4370
 3926TIP3    H233338   3.609   3.063   8.448  0.7113 -2.1177  0.4487
 3927TIP3   OH233339   0.760   3.338   0.821 -0.1803  0.4548  0.7392
 3927TIP3    H133340   0.719   3.404   0.877 -0.8930 -0.3640  1.2000
 3927TIP3    H233341   0.720   3.256   0.848  0.6853 -0.1688  0.1576
 3928TIP3   OH233342   0.802   1.734   0.918  0.5614  0.0806  0.4536
 3928TIP3    H133343   0.807   1.646   0.880 -0.4633  0.7247 -1.2308
 3928TIP3    H233344   0.889   1.771   0.905  0.5029 -0.0725 -0.3861
 3929TIP3   OH233345   3.631   3.286   6.953 -0.4147  0.1956  0.1932
 3929TIP3    H133346   3.611   3.364   7.005 -0.7437  2.0679 -2.5389
 3929TIP3    H233347   3.554   3.274   6.897  0.6175 -0.6068 -1.1255
 3930TIP3   OH233348   3.248   3.870   7.419  0.3422 -0.0849  0.1827
 3930TIP3    H133349   3.293   3.921   7.486  0.3616  0.2960 -0.1158
 3930TIP3    H233350   3.213   3.936   7.359 -0.9970 -0.3468  0.6521
 3931TIP3   OH233351   0.791   0.300   6.563  0.2041  0.1159  0.3741
 3931TIP3    H133352   0.738   0.292   6.642 -0.5229 -0.4541 -0.1585
 3931TIP3    H233353   0.788   0.393   6.541 -0.8109  0.0520  0.2017
 3932TIP3   OH233354   3.326   2.056   7.706  0.3137 -0.3536 -0.2598
 3932TIP3    H133355   3.290   1.969   7.689  1.6554 -0.6751 -1.6465
 3932TIP3    H233356   3.309   2.105   7.626 -0.1843  0.5972  0.4117
 3933TIP3   OH233357   6.506   6.114   0.228  0.3189  0.4697  0.0369
 3933TIP3    H133358   6.502   6.063   0.308 -1.7007  0.6732  0.1142
 3933TIP3    H233359   6.546   6.055   0.164  0.1029 -0.4034  0.6898
 3934TIP3   OH233360   5.044   1.746   7.590 -0.2797  0.0496 -0.0801
 3934TIP3    H133361   4.986   1.672   7.573 -0.8623  0.2800  0.8327
 3934TIP3    H233362   5.081   1.769   7.504  0.2730 -1.5836 -0.3027
 3935TIP3   OH233363   6.633   4.458   7.455 -0.1629 -0.2615  0.7623
 3935TIP3    H133364   6.728   4.465   7.458 -0.1555 -0.0547  0.2375
 3935TIP3    H233365   6.602   4.515   7.525  0.1084 -0.5608  1.1268
 3936TIP3   OH233366   3.037   4.245   0.159  0.4728 -0.1264 -0.0594
 3936TIP3    H133367   2.959   4.290   0.193  0.6399  0.1491 -0.0404
 3936TIP3    H233368   3.039   4.161   0.207  1.4466  0.7913  1.5959
 3937TIP3   OH233369   4.998   4.280   7.399 -0.1302 -0.3729  0.3535
 3937TIP3    H133370   5.076   4.333   7.415 -1.0194  0.1287  4.2061
 3937TIP3    H233371   5.028   4.190   7.408  0.1638 -0.1978  1.3085
 3938TIP3   OH233372   6.402   3.859   8.185  0.2334 -0.3724  0.4954
 3938TIP3    H133373   6.400   3.869   8.090  2.1668  2.5489  0.6281
 3938TIP3    H233374   6.322   3.812   8.206  0.7327 -2.9592 -2.6996
 3939TIP3   OH233375   4.334   4.150   7.936  0.0181  0.0122 -0.5707
 3939TIP3    H133376   4.387   4.138   7.857  0.8164 -0.7319  0.0581
 3939TIP3    H233377   4.389   4.116   8.007 -0.4927  1.1074  0.3740
 3940TIP3   OH233378   4.845   3.842   7.631 -0.5270  0.4750  0.2316
 3940TIP3    H133379   4.894   3.921   7.653 -1.6712  1.2588  0.0611
 3940TIP3    H233380   4.808   3.859   7.545  1.1577 -1.2315 -0.9087
 3941TIP3   OH233381   1.983   5.780   1.055 -0.0267 -0.2762  0.2583
 3941TIP3    H133382   2.010   5.740   1.137 -0.3490  1.3714  1.2101
 3941TIP3    H233383   1.997   5.874   1.068  0.7130 -0.0282 -1.8811
 3942TIP3   OH233384   3.907   1.547   1.638 -0.7515  0.6907 -0.0267
 3942TIP3    H133385   3.958   1.612   1.589 -1.3967  0.5994 -0.8541
 3942TIP3    H233386   3.837   1.598   1.679  0.1225  0.8532  1.3154
 3943TIP3   OH233387   4.419   3.227   0.027  0.2357 -0.2005 -0.5036
 3943TIP3    H133388   4.491   3.166   0.044 -0.8826 -1.6539 -0.7782
 3943TIP3    H233389   4.379   3.195  -0.054 -1.5266 -0.2546  0.3337
 3944TIP3   OH233390   0.504   1.579   7.928 -0.0958 -0.1974  0.1533
 3944TIP3    H133391   0.514   1.665   7.888 -1.4586  0.2697  0.7523
 3944TIP3    H233392   0.529   1.517   7.859 -0.3536  0.6368 -0.7141
 3945TIP3   OH233393   0.056   6.092   7.870  0.2877  0.0580  0.4878
 3945TIP3    H133394   0.146   6.098   7.904  1.0181 -2.4988 -0.6988
 3945TIP3    H233395   0.058   6.142   7.788  0.9624 -0.8309 -0.0580
 3946TIP3   OH233396   2.317   0.705   0.060 -0.4853 -0.2199  0.0662
 3946TIP3    H133397   2.315   0.654  -0.020 -0.3851  0.1670 -0.1858
 3946TIP3    H233398   2.410   0.705   0.086  0.2425  2.8864 -1.9441
 3947TIP3   OH233399   5.839   5.564   1.251  0.8455 -0.2255 -0.2230
 3947TIP3    H133400   5.807   5.523   1.332 -2.6896  0.7973 -0.9069
 3947TIP3    H233401   5.851   5.656   1.273 -1.0799  0.2591 -0.9800
 3948TIP3   OH233402   0.379   4.904   0.512 -0.7153  0.1994  0.7875
 3948TIP3    H133403   0.318   4.880   0.441  0.2064 -1.8377  0.5990
 3948TIP3    H233404   0.336   4.873   0.591 -0.3328 -0.4560  0.7465
 3949TIP3   OH233405   4.831   1.167   1.602  0.0867 -0.9138  0.1277
 3949TIP3    H133406   4.858   1.225   1.673  0.6584  0.1009 -0.8750
 3949TIP3    H233407   4.815   1.083   1.643 -1.8876  0.2030  1.8508
 3950TIP3   OH233408   0.395   3.717   7.755  0.1124  0.6373 -0.2658
 3950TIP3    H133409   0.416   3.810   7.769 -0.1204  0.8659 -1.3575
 3950TIP3    H233410   0.446   3.671   7.822  0.5744  1.5160  0.0067
 3951TIP3   OH233411   6.574   3.251   0.709  0.1139  0.4519 -0.6842
 3951TIP3    H133412   6.541   3.309   0.777  1.0052  0.6286 -0.3871
 3951TIP3    H233413   6.658   3.219   0.743  0.7344  0.7993 -1.8137
 3952TIP3   OH233414   1.706   5.826   6.307 -0.1058  0.1182  0.3192
 3952TIP3    H133415   1.621   5.787   6.329 -0.3672  0.4377 -0.1091
 3952TIP3    H233416   1.687   5.919   6.295 -0.0334 -0.0678 -1.5146
 3953TIP3   OH233417   1.093   6.725   8.318 -0.3430 -0.6362 -0.4053
 3953TIP3    H133418   1.017   6.684   8.359 -0.1786  0.7627  1.4713
 3953TIP3    H233419   1.059   6.806   8.279  0.0324 -0.3180 -0.0956
 3954TIP3   OH233420   4.654   4.106   8.470  0.1671 -0.2629  0.1954
 3954TIP3    H133421   4.600   4.109   8.391  0.0623 -0.7708  0.2465
 3954TIP3    H233422   4.639   4.191   8.512 -0.4072 -0.3041  0.0869
 3955TIP3   OH233423   2.795   0.253   8.147  0.0468  0.2499  0.7390
 3955TIP3    H133424   2.856   0.220   8.080  0.7670  2.4779  0.2198
 3955TIP3    H233425   2.711   0.214   8.124  0.5650 -0.1168 -0.6470
 3956TIP3   OH233426   5.304   4.831   7.771 -0.5653  0.5454 -0.1918
 3956TIP3    H133427   5.390   4.868   7.792  0.0107 -1.9479  2.3956
 3956TIP3    H233428   5.255   4.839   7.852 -0.4031 -4.0125  0.6184
 3957TIP3   OH233429   6.816   6.327   7.439  0.2770 -0.5189  0.8559
 3957TIP3    H133430   6.737   6.341   7.491  1.0282 -1.3242  2.2867
 3957TIP3    H233431   6.805   6.241   7.400  0.9669 -1.2264  2.1332
 3958TIP3   OH233432   4.083   0.400   7.482  0.2360 -0.1239 -0.1314
 3958TIP3    H133433   4.021   0.433   7.547 -0.3568 -2.4829  0.6068
 3958TIP3    H233434   4.115   0.478   7.437 -0.7158  1.4356  1.7572
 3959TIP3   OH233435   3.466   4.687   1.694 -0.2004 -0.0376 -0.4560
 3959TIP3    H133436   3.433   4.598   1.705 -1.0428  0.1743 -1.0961
 3959TIP3    H233437   3.390   4.737   1.663  0.1372  1.0124  0.3490
 3960TIP3   OH233438   4.329   4.318   1.704  0.6639  0.3898  0.5229
 3960TIP3    H133439   4.412   4.350   1.741  0.8411  0.2955  0.2117
 3960TIP3    H233440   4.333   4.344   1.612  0.2028  0.6669  0.5810
 3961TIP3   OH233441   4.577   0.554   6.090  0.1042 -0.1984 -0.1560
 3961TIP3    H133442   4.665   0.568   6.125 -0.1158  0.6543  0.0857
 3961TIP3    H233443   4.533   0.501   6.157 -0.2645  1.2920  0.8462
 3962TIP3   OH233444   4.831   3.055   0.689 -0.2956 -0.1431 -0.1449
 3962TIP3    H133445   4.759   3.062   0.627 -1.4001 -0.3317  1.0670
 3962TIP3    H233446   4.795   3.088   0.772  1.3104  0.6652  0.2756
 3963TIP3   OH233447   1.972   4.724   7.492  0.2592  0.0222 -0.3039
 3963TIP3    H133448   1.908   4.654   7.493  1.0169 -0.6996  1.7488
 3963TIP3    H233449   2.010   4.724   7.580 -0.5432  3.7854  0.2226
 3964TIP3   OH233450   4.022   6.840   1.582 -0.6302 -0.1977  0.3587
 3964TIP3    H133451   4.079   6.906   1.620 -2.6428  1.1087  1.2968
 3964TIP3    H233452   4.016   6.864   1.489  1.3954 -1.2156 -0.0937
 3965TIP3   OH233453   5.290   1.639   6.326  0.4680 -0.0078 -0.1094
 3965TIP3    H133454   5.292   1.649   6.421 -0.4681  1.1972 -0.1996
 3965TIP3    H233455   5.198   1.623   6.306  0.8262 -1.4768 -0.7181
 3966TIP3   OH233456   1.361   3.800   2.200  0.1702 -0.1599 -0.0521
 3966TIP3    H133457   1.408   3.883   2.191  0.5304 -0.2634  0.7511
 3966TIP3    H233458   1.268   3.824   2.196  0.2618 -0.0015 -2.0330
 3967TIP3   OH233459   6.446   3.224   7.566  0.7528 -0.3861  0.2134
 3967TIP3    H133460   6.511   3.157   7.543  0.7483 -1.1041  2.1117
 3967TIP3    H233461   6.497   3.301   7.588  0.9104 -0.5653  0.4834
 3968TIP3   OH233462   3.530   0.520   1.860  0.0180  0.7456 -0.2216
 3968TIP3    H133463   3.518   0.541   1.768 -0.5842 -1.9507 -0.8489
 3968TIP3    H233464   3.624   0.501   1.868  0.1085  1.1849 -0.2221
 3969TIP3   OH233465   4.269   4.610   8.063  0.5058  0.1495  0.1290
 3969TIP3    H133466   4.176   4.616   8.087  0.3684  1.2372 -0.6001
 3969TIP3    H233467   4.270   4.552   7.986 -0.3803  4.3271 -3.4253
 3970TIP3   OH233468   2.063   0.654   8.393  0.1752 -0.5961  0.3615
 3970TIP3    H133469   2.075   0.605   8.474  2.4819  0.6598  0.8689
 3970TIP3    H233470   2.083   0.744   8.416 -1.1108  0.1410 -1.1896
 3971TIP3   OH233471   1.222   0.932   0.134  0.0391 -0.0817  0.0254
 3971TIP3    H133472   1.201   0.940   0.227  0.0195  1.2726 -0.0692
 3971TIP3    H233473   1.166   0.997   0.092 -0.5283 -1.2309 -1.0377
 3972TIP3   OH233474   2.306   4.375   1.391  0.1477 -1.0436 -0.5749
 3972TIP3    H133475   2.396   4.356   1.364  0.2802 -2.2885  0.5848
 3972TIP3    H233476   2.256   4.379   1.310  1.3045 -0.0084 -1.2531
 3973TIP3   OH233477   0.380   0.380   7.734 -0.0298  0.0554  0.1301
 3973TIP3    H133478   0.301   0.430   7.714  0.3311  0.5346 -0.1068
 3973TIP3    H233479   0.431   0.382   7.653 -0.3625 -1.3849 -0.1587
 3974TIP3   OH233480   0.766   3.158   2.046 -0.0253 -0.0512 -0.0832
 3974TIP3    H133481   0.716   3.220   2.098 -1.3391 -1.3818  0.3093
 3974TIP3    H233482   0.848   3.147   2.094 -0.3235  0.3646  0.5364
 3975TIP3   OH233483   6.576   6.478   8.302  0.0952 -0.5783 -0.0074
 3975TIP3    H133484   6.655   6.468   8.249  1.3306 -0.0371  1.6295
 3975TIP3    H233485   6.504   6.455   8.243  1.3827 -0.1444 -1.8493
 3976TIP3   OH233486   4.552   2.588   8.386 -0.1189  0.3092  0.1939
 3976TIP3    H133487   4.546   2.534   8.308 -0.9461  0.1578  0.3637
 3976TIP3    H233488   4.477   2.647   8.382 -0.0201  0.4887  0.7391
 3977TIP3   OH233489   5.320   2.408   0.279 -0.4134 -0.2170 -0.2509
 3977TIP3    H133490   5.225   2.397   0.281 -0.4642 -0.3251 -2.1273
 3977TIP3    H233491   5.338   2.469   0.351 -1.4792 -2.7273  2.3777
 3978TIP3   OH233492   6.510   0.801   7.514  0.0458 -0.2605 -0.3943
 3978TIP3    H133493   6.421   0.804   7.550  0.1829 -0.7530 -0.0097
 3978TIP3    H233494   6.567   0.797   7.590  0.8190  5.4744 -0.2630
 3979TIP3   OH233495   6.564   1.360   2.273 -0.3463  0.1187 -0.0970
 3979TIP3    H133496   6.592   1.396   2.357 -0.7887 -0.3602  0.2653
 3979TIP3    H233497   6.489   1.414   2.247  0.1776  0.6586 -0.4896
 3980TIP3   OH233498   1.377   0.155   8.190 -0.3199 -0.0879 -0.0215
 3980TIP3    H133499   1.320   0.190   8.122 -0.3961 -0.6880 -0.2753
 3980TIP3    H233500   1.448   0.112   8.142 -2.1324 -3.5481  0.1234
 3981TIP3   OH233501   1.092   0.710   8.461  0.6455 -0.0938 -0.5095
 3981TIP3    H133502   1.057   0.745   8.379  0.9903  1.3363 -0.0714
 3981TIP3    H233503   1.040   0.752   8.529 -0.2950 -2.0191  0.0158
 3982TIP3   OH233504   1.692   3.333   0.098 -0.5681 -0.8332 -0.3625
 3982TIP3    H133505   1.767   3.305   0.151  0.9985 -0.6944 -2.3421
 3982TIP3    H233506   1.695   3.429   0.101  0.0735 -0.7988 -1.3051
 3983TIP3   OH233507   5.101   0.101   6.712  0.3095  0.0836 -0.0862
 3983TIP3    H133508   5.095   0.011   6.744  0.8380 -0.2644 -0.9490
 3983TIP3    H233509   5.174   0.140   6.762 -0.9316  0.5518  1.4522
 3984TIP3   OH233510   0.135   4.068   6.730  0.0205  0.5743  0.2349
 3984TIP3    H133511   0.089   4.150   6.717 -0.3338  0.5306  1.1398
 3984TIP3    H233512   0.210   4.091   6.786  0.3412  0.4123 -0.1243
 3985TIP3   OH233513   2.739   5.977   0.747  0.2667  0.4730 -0.6783
 3985TIP3    H133514   2.795   6.029   0.690 -0.0582  2.2455  0.5536
 3985TIP3    H233515   2.701   6.040   0.808 -1.5324 -0.9603 -0.2235
 3986TIP3   OH233516   2.160   1.393   8.076 -0.4784  0.2775  0.4895
 3986TIP3    H133517   2.172   1.456   8.005  2.0202  0.6000  1.0789
 3986TIP3    H233518   2.082   1.423   8.122 -1.7203  0.4864 -1.6208
 3987TIP3   OH233519   0.268   3.189   7.747 -0.3526 -0.3619 -0.2417
 3987TIP3    H133520   0.321   3.198   7.826  0.8268 -0.1135 -1.0219
 3987TIP3    H233521   0.295   3.106   7.709 -1.8558 -1.1168  0.2575
 3988TIP3   OH233522   3.867   1.669   6.780  0.0275 -0.0872 -0.3886
 3988TIP3    H133523   3.873   1.667   6.685  1.5969  0.3040 -0.3211
 3988TIP3    H233524   3.957   1.680   6.810 -0.3194 -1.1063  1.1753
 3989TIP3   OH233525   1.163   3.789   2.572  0.4115  0.1969  0.1535
 3989TIP3    H133526   1.092   3.786   2.508 -0.1573  0.2680  0.7622
 3989TIP3    H233527   1.224   3.721   2.544 -0.8923 -1.2665  0.7498
 3990TIP3   OH233528   4.121   0.573   7.276 -0.5687  0.3329  0.1908
 3990TIP3    H133529   4.071   0.558   7.196  1.5297  1.2127 -1.3743
 3990TIP3    H233530   4.133   0.668   7.279  2.0694  0.0994 -0.2704
 3991TIP3   OH233531   5.478   0.141   1.193  0.7715  0.0204  0.0153
 3991TIP3    H133532   5.463   0.223   1.145 -1.8205  0.3353  1.1934
 3991TIP3    H233533   5.537   0.165   1.264  1.6782  0.3714 -0.8341
 3992TIP3   OH233534   2.841   6.302   1.614 -0.3562 -0.3386 -0.5840
 3992TIP3    H133535   2.781   6.243   1.568 -0.8804  0.3155 -0.7605
 3992TIP3    H233536   2.792   6.384   1.622 -0.0753 -0.2707  0.6681
 3993TIP3   OH233537   1.067   2.636   6.607  0.4699  0.1182  0.0968
 3993TIP3    H133538   1.144   2.618   6.552  0.0125 -2.0222  0.0727
 3993TIP3    H233539   1.022   2.708   6.562  2.0455  0.9208 -0.2850
 3994TIP3   OH233540   3.488   0.897   0.745 -0.2999 -0.3088  0.5700
 3994TIP3    H133541   3.402   0.876   0.710  0.4361  1.1467 -2.4544
 3994TIP3    H233542   3.543   0.823   0.718  0.1143  0.4755 -0.8446
 3995TIP3   OH233543   3.331   5.383   7.923 -0.1294  0.5186 -0.0467
 3995TIP3    H133544   3.385   5.308   7.899 -0.8655  0.4872 -1.7828
 3995TIP3    H233545   3.313   5.427   7.840 -1.7449  1.2157  0.6224
 3996TIP3   OH233546   5.047   3.117   0.923  0.5053 -0.0402  0.3910
 3996TIP3    H133547   4.986   3.083   0.989 -0.7429  0.2215 -0.6018
 3996TIP3    H233548   5.116   3.051   0.920 -0.7556 -1.4153  0.0828
 3997TIP3   OH233549   1.522   4.904   8.575 -0.6344 -0.5038 -0.2736
 3997TIP3    H133550   1.499   4.814   8.555 -1.4194 -0.2736 -0.4706
 3997TIP3    H233551   1.482   4.921   8.661 -1.2267 -0.1002 -0.6140
 3998TIP3   OH233552   5.888   4.264   7.753  0.8369  0.9849  0.0873
 3998TIP3    H133553   5.838   4.286   7.832 -0.0622  1.7603 -0.6856
 3998TIP3    H233554   5.829   4.208   7.702  1.5394  0.2055  0.1021
 3999TIP3   OH233555   6.300   6.450   8.469 -0.3523 -0.4495  0.6975
 3999TIP3    H133556   6.369   6.499   8.424 -1.1935  0.8948  0.7972
 3999TIP3    H233557   6.335   6.431   8.555  0.4676 -1.1502  0.2179
 4000TIP3   OH233558   2.018   0.251   6.874  0.7001 -0.4456 -0.1732
 4000TIP3    H133559   1.999   0.337   6.839  0.8241 -0.3200  0.0638
 4000TIP3    H233560   2.107   0.232   6.845  0.2666 -0.9999 -1.2165
 4001TIP3   OH233561   1.790   2.981   1.397  0.3268  0.5665  0.1990
 4001TIP3    H133562   1.704   2.993   1.357 -0.3428 -0.8273  1.1454
 4001TIP3    H233563   1.850   3.027   1.339 -0.8632  0.3319 -1.2758
 4002TIP3   OH233564   2.520   3.015   1.593  0.4746 -0.3027  0.1782
 4002TIP3    H133565   2.510   3.110   1.581  1.6190 -0.2464 -0.4743
 4002TIP3    H233566   2.464   2.977   1.525  1.6478 -0.0440 -0.9770
 4003TIP3   OH233567   3.981   4.722   6.961  0.1767  0.5054 -0.1628
 4003TIP3    H133568   3.887   4.705   6.959  0.5503 -2.2172  1.2122
 4003TIP3    H233569   4.017   4.666   6.892  0.8724  1.2026 -0.3892
 4004TIP3   OH233570   4.960   0.922   1.766  0.3132  0.1249 -0.4077
 4004TIP3    H133571   4.991   0.866   1.837  0.6910 -0.4923 -1.0346
 4004TIP3    H233572   5.024   0.992   1.760  0.1670  0.2916 -0.0053
 4005TIP3   OH233573   2.544   5.149   0.756  0.0768  0.0839  1.0439
 4005TIP3    H133574   2.503   5.070   0.721  0.5610  0.5762 -0.6999
 4005TIP3    H233575   2.600   5.118   0.827 -0.9618 -0.9406  1.4333
 4006TIP3   OH233576   2.336   4.949   2.218 -0.1181 -0.4789 -0.7868
 4006TIP3    H133577   2.285   5.023   2.184  0.8159 -0.5596 -2.4553
 4006TIP3    H233578   2.279   4.873   2.206 -0.3683 -0.2963 -0.7762
 4007TIP3   OH233579   0.621   1.270   1.365  0.0868  0.4628  0.4875
 4007TIP3    H133580   0.568   1.309   1.435  1.0732  0.5939  1.1912
 4007TIP3    H233581   0.648   1.185   1.401 -1.1759 -0.4629 -0.6136
 4008TIP3   OH233582   1.925   1.364   0.950  0.5487 -0.5220  0.2003
 4008TIP3    H133583   1.969   1.434   0.901  1.0805 -0.8081  0.2573
 4008TIP3    H233584   1.963   1.284   0.915 -4.1478 -1.3375 -4.1830
 4009TIP3   OH233585   1.719   3.557   2.405  0.1310 -0.4155  0.3969
 4009TIP3    H133586   1.809   3.582   2.427 -0.0165  1.0895 -0.5573
 4009TIP3    H233587   1.669   3.638   2.413 -0.9769 -1.0403  0.0516
 4010TIP3   OH233588   0.514   4.353   8.324  0.2633  0.1673 -0.4810
 4010TIP3    H133589   0.499   4.379   8.234  2.5890  1.9369 -0.4780
 4010TIP3    H233590   0.473   4.422   8.377  0.0706 -0.1383 -0.2273
 4011TIP3   OH233591   6.324   4.301   0.576  0.5765 -0.1464 -0.1499
 4011TIP3    H133592   6.419   4.297   0.587  1.2318  4.3740 -2.0157
 4011TIP3    H233593   6.296   4.368   0.639 -0.8233  0.7757 -1.6658
 4012TIP3   OH233594   3.102   6.717   7.898 -0.3439 -0.3974  0.0190
 4012TIP3    H133595   3.039   6.717   7.971 -2.0077 -1.1992 -1.3371
 4012TIP3    H233596   3.068   6.651   7.838  1.0680  0.1351 -1.4153
 4013TIP3   OH233597   4.175   5.261   7.834  0.2919 -0.0114 -0.1858
 4013TIP3    H133598   4.240   5.325   7.862  0.8192 -1.1254  1.2820
 4013TIP3    H233599   4.222   5.204   7.772  0.3709 -0.0919 -0.0525
 4014TIP3   OH233600   0.765   1.470   7.786 -0.1612 -0.1817 -0.2412
 4014TIP3    H133601   0.730   1.445   7.700 -1.9022 -0.6893  0.5736
 4014TIP3    H233602   0.756   1.392   7.840  0.9101  0.1372  0.4279
 4015TIP3   OH233603   1.293   3.201   6.180  0.2061 -0.0852 -0.2747
 4015TIP3    H133604   1.300   3.110   6.208 -0.6374 -0.2902 -0.7040
 4015TIP3    H233605   1.361   3.247   6.229 -0.0956 -0.7445  0.7835
 4016TIP3   OH233606   3.774   5.011   0.617  0.2304  0.5828 -0.2305
 4016TIP3    H133607   3.804   4.970   0.536  1.5438  2.7314 -0.9107
 4016TIP3    H233608   3.714   5.080   0.588  0.3676  1.0922  0.6669
 4017TIP3   OH233609   4.936   0.462   7.284  0.7538  0.2385 -0.5264
 4017TIP3    H133610   4.985   0.405   7.344  0.8098 -1.5654 -2.1452
 4017TIP3    H233611   4.854   0.415   7.268 -0.0613  1.5887 -0.4501
 4018TIP3   OH233612   4.348   1.892   8.589 -0.5459  0.0292  0.2868
 4018TIP3    H133613   4.274   1.930   8.637  0.1578  1.4924  0.2652
 4018TIP3    H233614   4.307   1.837   8.522 -1.6223  0.8832  0.2144
 4019TIP3   OH233615   1.105   5.162   0.042  0.0318  0.3109  0.6770
 4019TIP3    H133616   1.020   5.174   0.084  0.9586  0.4287  2.6513
 4019TIP3    H233617   1.162   5.130   0.112  1.3821 -0.7896 -0.8328
 4020TIP3   OH233618   1.860   1.223   7.493 -0.6720 -0.1729 -0.0411
 4020TIP3    H133619   1.833   1.133   7.512  0.7982 -0.6833 -0.2304
 4020TIP3    H233620   1.936   1.238   7.550 -0.8458  0.9170 -0.0802
 4021TIP3   OH233621   5.913   4.706   7.357  0.2786  0.0232  0.1038
 4021TIP3    H133622   5.927   4.661   7.274 -0.7139 -0.4902  0.1908
 4021TIP3    H233623   5.843   4.656   7.400 -0.1990  1.0998  0.6225
 4022TIP3   OH233624   3.041   6.664   1.155  0.0715 -0.4634  1.0155
 4022TIP3    H133625   3.081   6.600   1.213  2.0844  0.2814  0.5099
 4022TIP3    H233626   2.999   6.727   1.214 -2.3927 -2.4263  1.5124
 4023TIP3   OH233627   1.448   1.020   2.567  0.0138  0.2640 -0.0434
 4023TIP3    H133628   1.369   1.027   2.621  0.6445 -1.0603  1.1245
 4023TIP3    H233629   1.428   0.951   2.504 -0.4286  1.2628 -1.0451
 4024TIP3   OH233630   4.797   1.478   6.865 -0.4614 -0.6601 -0.5906
 4024TIP3    H133631   4.717   1.529   6.862 -0.9112 -1.3968 -2.6928
 4024TIP3    H233632   4.860   1.529   6.815  0.1577 -0.4750  0.3554
 4025TIP3   OH233633   1.419   6.858   1.467 -0.3590  0.2209 -0.5619
 4025TIP3    H133634   1.376   6.886   1.386 -0.3961  0.8082 -0.3399
 4025TIP3    H233635   1.450   6.939   1.507  1.1057 -0.2008 -0.7987
 4026TIP3   OH233636   4.158   1.462   7.918  0.2264 -0.0188  0.2814
 4026TIP3    H133637   4.181   1.458   7.825  1.1324  1.0779  0.4378
 4026TIP3    H233638   4.092   1.530   7.924  1.2707  0.9987  0.6198
 4027TIP3   OH233639   1.458   6.097   0.985  0.7057  0.6168 -0.2353
 4027TIP3    H133640   1.507   6.124   1.062 -2.0067  1.3270  1.3744
 4027TIP3    H233641   1.385   6.159   0.980 -0.3190 -0.6390 -2.1950
 4028TIP3   OH233642   5.149   1.767   0.296  0.3459  0.1248  0.1776
 4028TIP3    H133643   5.061   1.802   0.311  0.7024  0.5689  1.3221
 4028TIP3    H233644   5.148   1.739   0.205  0.0034  3.0216 -0.7995
 4029TIP3   OH233645   2.695   3.819   0.107 -0.5250 -0.5817  0.4565
 4029TIP3    H133646   2.758   3.859   0.047 -1.7874  0.9713  0.0950
 4029TIP3    H233647   2.748   3.760   0.162  1.2285  0.6660  0.1892
 4030TIP3   OH233648   5.087   2.875   0.451 -0.4882  0.6005 -0.1603
 4030TIP3    H133649   5.156   2.892   0.515 -0.8017  0.6002  0.1818
 4030TIP3    H233650   5.041   2.799   0.485  1.6315 -1.8150 -2.2793
 4031TIP3   OH233651   4.813   4.994   8.143 -0.3363 -0.0234 -0.7425
 4031TIP3    H133652   4.732   4.986   8.193  0.0057  1.4099  0.0826
 4031TIP3    H233653   4.871   5.045   8.198  0.7383 -0.0453 -1.8080
 4032TIP3   OH233654   4.909   2.604   7.752 -0.6603  0.2897 -0.3193
 4032TIP3    H133655   4.980   2.642   7.700 -0.0295 -0.2302  0.1545
 4032TIP3    H233656   4.846   2.573   7.686 -0.4143  0.6863 -0.7454
 4033TIP3   OH233657   0.221   1.707   0.389 -0.9147 -0.2349  0.3893
 4033TIP3    H133658   0.208   1.658   0.308 -0.2864 -0.0939  0.2000
 4033TIP3    H233659   0.249   1.641   0.452 -0.9907 -0.2719  0.3855
 4034TIP3   OH233660   3.534   1.995   8.606 -0.2345  0.1948  0.4027
 4034TIP3    H133661   3.571   1.912   8.574 -0.5790 -0.1951  0.9843
 4034TIP3    H233662   3.459   1.968   8.659  0.1399  0.8320  1.2728
 4035TIP3   OH233663   5.000   0.926   0.069  0.0478 -0.0704  0.7488
 4035TIP3    H133664   4.918   0.910   0.023  0.6933  2.4942 -1.5159
 4035TIP3    H233665   4.993   1.016   0.100  2.2651  0.4568 -0.1250
 4036TIP3   OH233666   1.215   2.950   6.264  0.1016 -0.5074  0.0096
 4036TIP3    H133667   1.151   2.965   6.195 -0.6891 -1.1077  0.5948
 4036TIP3    H233668   1.259   2.868   6.239  1.7354  0.6665 -1.1796
 4037TIP3   OH233669   0.896   3.200   1.771  0.1582 -0.2405  0.0916
 4037TIP3    H133670   0.827   3.153   1.725  0.0903 -0.7964  0.7467
 4037TIP3    H233671   0.878   3.185   1.864  0.9201 -0.0587  0.2807
 4038TIP3   OH233672   3.191   6.320   8.001 -0.2879  0.3039 -0.4155
 4038TIP3    H133673   3.153   6.372   7.930 -2.2060  0.4666  0.6643
 4038TIP3    H233674   3.210   6.385   8.070  2.4391  0.2964 -1.0365
 4039TIP3   OH233675   3.665   5.737   8.135  0.0607 -0.0877 -0.5917
 4039TIP3    H133676   3.652   5.650   8.098 -0.2762 -0.3762  0.1874
 4039TIP3    H233677   3.602   5.743   8.207 -0.4723  1.1023 -1.1255
 4040TIP3   OH233678   1.764   4.034   1.442 -0.0246  0.6144  0.2503
 4040TIP3    H133679   1.857   4.056   1.455  0.3733  0.2387 -1.6877
 4040TIP3    H233680   1.718   4.117   1.455  0.5520  0.7684  1.4036
 4041TIP3   OH233681   4.508   2.123   6.435 -0.3699  0.1568 -0.1651
 4041TIP3    H133682   4.436   2.095   6.379  0.3988 -0.7019 -0.7703
 4041TIP3    H233683   4.508   2.062   6.508  0.3923 -0.5426 -0.7249
 4042TIP3   OH233684   1.679   6.422   6.603  0.5502  0.0466 -0.0835
 4042TIP3    H133685   1.655   6.512   6.621 -0.9262 -0.9230  3.8176
 4042TIP3    H233686   1.596   6.374   6.603  1.4219 -2.0841  4.5355
 4043TIP3   OH233687   4.825   3.531   2.024 -0.3839  0.0449 -0.4755
 4043TIP3    H133688   4.804   3.461   2.087  0.1120  0.9072  0.6842
 4043TIP3    H233689   4.869   3.598   2.077 -0.7648  1.1973 -1.5749
 4044TIP3   OH233690   3.424   5.471   1.276 -0.3226 -0.1823  0.2369
 4044TIP3    H133691   3.354   5.462   1.212 -0.8740  3.0652  0.1908
 4044TIP3    H233692   3.384   5.519   1.349  1.1701 -0.7485  1.5057
 4045TIP3   OH233693   4.473   1.866   0.301 -0.4374  0.8338  0.0895
 4045TIP3    H133694   4.398   1.923   0.319 -0.6690  0.9570 -1.1278
 4045TIP3    H233695   4.458   1.789   0.356 -0.7560  1.4313  0.8483
 4046TIP3   OH233696   2.626   2.744   0.514 -0.1901  0.4754  0.3411
 4046TIP3    H133697   2.715   2.762   0.543 -0.2091  0.8253  0.1882
 4046TIP3    H233698   2.599   2.669   0.566  0.9898 -1.0829 -1.1916
 4047TIP3   OH233699   0.490   1.787   1.669 -0.2184  0.6285  0.3503
 4047TIP3    H133700   0.429   1.714   1.675 -2.2837  2.2489  0.5028
 4047TIP3    H233701   0.516   1.804   1.759 -1.2224  1.1921  0.5584
 4048TIP3   OH233702   4.320   0.928   8.105  0.1231  0.1991  0.0074
 4048TIP3    H133703   4.279   0.848   8.137  0.8447  0.3645  1.4349
 4048TIP3    H233704   4.372   0.900   8.029 -2.4008 -0.0321 -1.7424
 4049TIP3   OH233705   4.810   3.745   0.308  0.2892  0.3260 -0.3292
 4049TIP3    H133706   4.901   3.773   0.320  0.9496 -0.7058 -2.4837
 4049TIP3    H233707   4.795   3.752   0.214 -1.0375 -1.9257 -0.3443
 4050TIP3   OH233708   5.022   0.319   6.553 -0.3209 -0.2396  0.0721
 4050TIP3    H133709   5.023   0.273   6.468  1.2466  1.6334 -1.0149
 4050TIP3    H233710   5.030   0.249   6.618  1.0379 -1.5958 -1.4600
 4051TIP3   OH233711   6.643   2.190   1.474  0.3575 -0.2146  0.3670
 4051TIP3    H133712   6.594   2.272   1.482 -0.8885 -0.7538 -1.2013
 4051TIP3    H233713   6.622   2.141   1.553  0.9482  0.8690  1.2226
 4052TIP3   OH233714   3.178   2.870   7.398  0.2398  0.2468  0.1623
 4052TIP3    H133715   3.153   2.785   7.433  1.8252  0.0626  0.9426
 4052TIP3    H233716   3.242   2.904   7.461 -2.7888  3.5994  1.8068
 4053TIP3   OH233717   3.753   3.370   0.780  0.1374  0.1448  0.5808
 4053TIP3    H133718   3.709   3.444   0.822  0.3567  0.9419 -0.5456
 4053TIP3    H233719   3.760   3.396   0.688 -2.0126 -2.3040 -0.3929
 4054TIP3   OH233720   5.567   1.207   1.972 -0.2291 -0.9299  0.3815
 4054TIP3    H133721   5.570   1.276   2.039 -0.6760  0.9614 -1.4158
 4054TIP3    H233722   5.503   1.144   2.006  0.5228 -0.7210  2.3012
 4055TIP3   OH233723   0.433   3.751   0.030  0.1267  0.1183  0.4948
 4055TIP3    H133724   0.410   3.749  -0.063 -0.1196  1.3620  0.5091
 4055TIP3    H233725   0.374   3.688   0.070 -0.4470  0.2785 -0.0667
 4056TIP3   OH233726   6.437   3.993   7.910  0.3137 -0.0524 -0.1970
 4056TIP3    H133727   6.404   4.076   7.945 -0.0999  0.7827 -2.4117
 4056TIP3    H233728   6.374   3.970   7.841  1.0531 -1.6314 -0.3844
 4057TIP3   OH233729   2.641   1.168   1.941  0.1501 -0.4098 -0.3684
 4057TIP3    H133730   2.576   1.119   1.992  0.2564  1.3705  1.5954
 4057TIP3    H233731   2.716   1.175   1.999 -0.3446  3.1900  0.0572
 4058TIP3   OH233732   3.567   4.436   1.083 -0.1638  0.7040 -0.0568
 4058TIP3    H133733   3.483   4.482   1.079 -0.7685 -0.3966 -0.3526
 4058TIP3    H233734   3.608   4.452   0.998 -0.9662 -0.3836 -0.6643
 4059TIP3   OH233735   1.963   2.277   2.226  0.0736  0.3275 -0.4290
 4059TIP3    H133736   1.877   2.319   2.223  0.3242  0.8253 -2.7679
 4059TIP3    H233737   2.025   2.349   2.234  0.3278  0.0596  0.0615
 4060TIP3   OH233738   2.028   1.609   1.338 -0.1969  0.9148  0.4269
 4060TIP3    H133739   2.006   1.516   1.331  1.3919  0.5726 -0.7382
 4060TIP3    H233740   1.956   1.655   1.297 -0.8529  0.1846  0.7444
 4061TIP3   OH233741   6.269   4.602   7.198  0.3040 -0.2625 -0.1235
 4061TIP3    H133742   6.261   4.509   7.178  0.5502 -0.2642 -0.2189
 4061TIP3    H233743   6.269   4.607   7.294  0.5144 -0.3784 -0.1192
 4062TIP3   OH233744   0.851   6.348   7.874 -0.4849 -0.3090 -0.7032
 4062TIP3    H133745   0.890   6.283   7.815  0.6912  0.5733 -0.9366
 4062TIP3    H233746   0.819   6.297   7.948  2.1436 -1.0365  0.0443
 4063TIP3   OH233747   5.630   1.774   7.729  0.7513 -0.1602 -0.1617
 4063TIP3    H133748   5.662   1.860   7.757  2.6797 -1.5968  2.5767
 4063TIP3    H233749   5.699   1.740   7.673  0.2126 -0.1269 -0.8541
 4064TIP3   OH233750   4.550   6.534   1.150  0.0143  0.1160  0.1671
 4064TIP3    H133751   4.635   6.505   1.183  0.2237 -0.3166 -0.7224
 4064TIP3    H233752   4.516   6.591   1.219  0.9843  0.2276  0.5710
 4065TIP3   OH233753   3.968   1.167   1.751 -0.3360  0.4832 -0.2477
 4065TIP3    H133754   4.033   1.185   1.820  0.7265  0.2563 -1.1675
 4065TIP3    H233755   3.884   1.167   1.797  0.5368 -2.3309  1.5625
 4066TIP3   OH233756   1.068   5.337   6.661 -0.1363  0.3589  0.0468
 4066TIP3    H133757   1.026   5.298   6.585 -0.6752 -1.0416  1.0251
 4066TIP3    H233758   1.089   5.263   6.718  0.5200  1.3432  1.1404
 4067TIP3   OH233759   4.809   5.096   6.803  0.6611 -0.0637  0.2665
 4067TIP3    H133760   4.777   5.016   6.759  1.9885 -1.3131  1.4781
 4067TIP3    H233761   4.839   5.152   6.731  0.3333 -0.9350 -0.5752
 4068TIP3   OH233762   5.364   0.744   2.009  0.0919 -0.1590  0.4745
 4068TIP3    H133763   5.367   0.656   2.048 -0.0060  0.3737  1.7260
 4068TIP3    H233764   5.451   0.756   1.971  1.3429  0.4686  3.2721
 4069TIP3   OH233765   4.266   3.064   0.825  0.4950  0.0796  0.2999
 4069TIP3    H133766   4.305   3.036   0.742 -2.1581 -2.2825 -0.3025
 4069TIP3    H233767   4.341   3.075   0.884  2.3922  0.9745 -2.1007
 4070TIP3   OH233768   2.443   6.017   1.301  0.2482 -0.3812 -0.3978
 4070TIP3    H133769   2.512   5.960   1.336  0.3181 -0.7104 -1.0603
 4070TIP3    H233770   2.404   5.967   1.231  0.9521  0.7424 -1.6428
 4071TIP3   OH233771   4.313   6.480   7.355  0.2475 -0.2994 -0.6362
 4071TIP3    H133772   4.344   6.564   7.321 -0.7183  0.6787  0.7651
 4071TIP3    H233773   4.278   6.434   7.279  3.5318 -0.8145 -2.0211
 4072TIP3   OH233774   6.063   2.121   0.506 -0.1332 -0.0876  0.7411
 4072TIP3    H133775   6.127   2.111   0.436 -1.1101 -1.6468  0.0026
 4072TIP3    H233776   5.980   2.135   0.460 -0.7439 -0.8853  1.5771
 4073TIP3   OH233777   1.419   5.363   1.517 -0.6939 -0.0047 -0.2451
 4073TIP3    H133778   1.438   5.270   1.503  0.2651  0.3442 -1.5192
 4073TIP3    H233779   1.370   5.389   1.439 -1.8650  0.3457  0.5778
 4074TIP3   OH233780   6.563   4.826   2.682 -0.2947  0.5288  0.1925
 4074TIP3    H133781   6.643   4.775   2.693 -1.3803 -1.1281  0.7417
 4074TIP3    H233782   6.506   4.771   2.629 -1.8695  0.7423  1.5821
 4075TIP3   OH233783   4.973   2.780   0.784 -0.5522 -0.4143  0.3902
 4075TIP3    H133784   4.897   2.836   0.766  1.0754  1.5407 -0.9356
 4075TIP3    H233785   5.018   2.823   0.857  0.3878 -0.3107 -0.2297
 4076TIP3   OH233786   4.519   3.964   0.676  0.5684 -0.1759  0.0569
 4076TIP3    H133787   4.547   3.872   0.671  1.8607  0.1684  0.4470
 4076TIP3    H233788   4.552   4.003   0.595  1.2488  0.2405  0.5212
 4077TIP3   OH233789   2.115   6.853   1.737 -0.1578 -0.2886  0.2267
 4077TIP3    H133790   2.026   6.886   1.726 -0.4676 -2.0510 -4.2606
 4077TIP3    H233791   2.108   6.790   1.809 -2.6891 -0.7496 -0.3246
 4078TIP3   OH233792   3.119   5.834   2.142 -0.0906  0.1019  0.6990
 4078TIP3    H133793   3.208   5.804   2.128 -0.1535 -0.0344  0.5841
 4078TIP3    H233794   3.091   5.790   2.223  0.1920  0.7058  1.1289
 4079TIP3   OH233795   5.392   4.670   1.760 -0.4447  0.2223 -0.2654
 4079TIP3    H133796   5.458   4.731   1.728  0.3252 -0.0778  0.6980
 4079TIP3    H233797   5.324   4.726   1.797 -1.3179  0.5725 -2.2931
 4080TIP3   OH233798   1.746   1.709   7.369  0.4545 -0.2692  0.1159
 4080TIP3    H133799   1.791   1.736   7.289 -0.3327 -0.1223 -0.2868
 4080TIP3    H233800   1.755   1.614   7.370  2.0240 -0.1528  0.8108
 4081TIP3   OH233801   3.909   0.235   1.670 -0.1491  0.3140  0.3198
 4081TIP3    H133802   3.901   0.179   1.747  2.0267  0.2947  0.6052
 4081TIP3    H233803   4.001   0.227   1.645 -0.6821  0.7543 -1.9689
 4082TIP3   OH233804   3.847   6.404   1.155 -0.3117  0.4480  0.5253
 4082TIP3    H133805   3.821   6.456   1.231  1.4772 -0.1468  1.6042
 4082TIP3    H233806   3.901   6.464   1.103 -0.3686  0.4341  0.4502
 4083TIP3   OH233807   6.403   5.300   6.380 -0.2835 -0.4711 -0.0306
 4083TIP3    H133808   6.444   5.332   6.299  0.8151 -2.2595 -0.2591
 4083TIP3    H233809   6.434   5.210   6.387 -0.8274 -0.5357  2.0986
 4084TIP3   OH233810   3.411   0.349   8.192  0.5698  0.4264  0.0797
 4084TIP3    H133811   3.370   0.425   8.150 -1.8322 -1.0362 -0.3898
 4084TIP3    H233812   3.365   0.340   8.275  3.5120  1.7265  2.0184
 4085TIP3   OH233813   6.146   6.157   1.975 -0.0756 -0.3703  0.2449
 4085TIP3    H133814   6.120   6.070   2.003 -0.7591 -0.1356  0.3606
 4085TIP3    H233815   6.223   6.178   2.029 -0.1593 -0.7321  0.5070
 4086TIP3   OH233816   4.020   2.713   7.831 -0.2764 -0.3749 -0.4050
 4086TIP3    H133817   4.013   2.619   7.815 -1.8155 -0.3819  0.1232
 4086TIP3    H233818   3.959   2.753   7.769 -0.4648  0.1875  0.1250
 4087TIP3   OH233819   4.173   6.736   2.286 -0.3777 -0.6717  0.3676
 4087TIP3    H133820   4.156   6.830   2.294 -0.1981 -0.6034 -0.0081
 4087TIP3    H233821   4.268   6.728   2.296 -0.6187 -1.1386  3.2965
 4088TIP3   OH233822   1.256   2.129   8.140  0.1750  0.0331 -0.5151
 4088TIP3    H133823   1.222   2.190   8.074  0.2853 -0.4033 -0.9757
 4088TIP3    H233824   1.179   2.106   8.192  0.2012  0.8771 -0.0760
 4089TIP3   OH233825   1.448   1.104   8.603  0.2689 -0.3896 -0.1104
 4089TIP3    H133826   1.421   1.105   8.695 -1.1572 -1.2487 -0.4979
 4089TIP3    H233827   1.367   1.117   8.553  0.9604 -0.3376 -1.2731
 4090TIP3   OH233828   0.553   3.730   1.193  0.3614 -0.0982 -0.1723
 4090TIP3    H133829   0.512   3.678   1.263 -0.2771 -0.6798 -0.9489
 4090TIP3    H233830   0.565   3.667   1.122 -2.4423  1.1880 -1.9635
 4091TIP3   OH233831   1.647   2.467   0.303 -0.3039  0.1961 -0.6748
 4091TIP3    H133832   1.557   2.439   0.321 -0.2678  1.3340  1.5590
 4091TIP3    H233833   1.644   2.562   0.308  0.4589  0.4606 -3.7166
 4092TIP3   OH233834   1.621   3.652   8.359  0.3302 -0.1674  0.4363
 4092TIP3    H133835   1.531   3.622   8.376  0.3443 -0.0095  0.8035
 4092TIP3    H233836   1.654   3.677   8.445  0.6301  0.0468  0.2596
 4093TIP3   OH233837   5.588   3.509   6.425  0.9423 -0.9854  0.7729
 4093TIP3    H133838   5.668   3.460   6.407 -0.0372 -2.3655  0.0152
 4093TIP3    H233839   5.519   3.443   6.424 -0.2353  0.1963  1.2993
 4094TIP3   OH233840   1.669   5.780   1.271 -0.4149  0.9594  0.1765
 4094TIP3    H133841   1.591   5.770   1.326  0.3479 -0.8519  1.0128
 4094TIP3    H233842   1.641   5.749   1.185 -0.8151  0.9901  0.2911
 4095TIP3   OH233843   1.721   2.069   8.257 -0.4689 -0.0600 -0.3109
 4095TIP3    H133844   1.746   1.992   8.205  2.9357  0.4976  0.2578
 4095TIP3    H233845   1.800   2.122   8.260 -2.0973  2.4934  1.0908
 4096TIP3   OH233846   4.922   3.502   2.371 -0.3000  0.2088  0.1887
 4096TIP3    H133847   4.963   3.426   2.414  0.2093  0.2679 -0.1847
 4096TIP3    H233848   4.968   3.577   2.407  0.7884  0.2124 -1.1395
 4097TIP3   OH233849   4.733   3.372   6.512  0.1531 -1.1259 -0.3658
 4097TIP3    H133850   4.787   3.333   6.443 -0.3503 -2.3795 -0.0810
 4097TIP3    H233851   4.643   3.355   6.483 -0.1118  0.6816 -0.6930
 4098TIP3   OH233852   4.853   4.111   7.211 -0.1387 -0.3506  0.1477
 4098TIP3    H133853   4.900   4.045   7.263  0.8067  0.5657  0.4956
 4098TIP3    H233854   4.922   4.170   7.180 -0.8334 -0.2003 -1.1613
 4099TIP3   OH233855   6.818   4.952   0.428  0.0214 -0.1313 -0.5212
 4099TIP3    H133856   6.749   4.981   0.368 -0.1068 -1.6790 -1.1704
 4099TIP3    H233857   6.773   4.935   0.510  0.2965  2.6251  0.3000
 4100TIP3   OH233858   1.151   1.035   7.174  0.6325 -0.0695  0.3978
 4100TIP3    H133859   1.169   0.941   7.166 -1.1255 -0.3438 -1.1650
 4100TIP3    H233860   1.154   1.067   7.084 -0.2701  1.0690  0.7505
 4101TIP3   OH233861   6.212   1.569   6.958  0.4715 -0.3180 -0.2049
 4101TIP3    H133862   6.119   1.550   6.953  0.0779  1.1077  0.9894
 4101TIP3    H233863   6.252   1.487   6.988 -0.3378 -1.0035 -0.9360
 4102TIP3   OH233864   5.175   3.498   2.543 -0.4104 -0.1085  0.4767
 4102TIP3    H133865   5.117   3.423   2.557  0.1351 -0.2783  2.0270
 4102TIP3    H233866   5.246   3.464   2.489 -0.2160 -0.6947  1.0867
 4103TIP3   OH233867   6.740   2.387   8.305 -0.2973 -0.3797  0.6676
 4103TIP3    H133868   6.832   2.402   8.327 -0.2394 -0.1920  0.3115
 4103TIP3    H233869   6.739   2.374   8.210 -0.5752 -0.9043  0.7399
 4104TIP3   OH233870   4.539   2.430   0.822 -0.4245  0.1885 -0.3317
 4104TIP3    H133871   4.602   2.421   0.894  1.0265 -1.0390 -1.6941
 4104TIP3    H233872   4.464   2.377   0.849  0.3322 -0.7150  0.0520
 4105TIP3   OH233873   4.902   6.235   7.414  0.3459  0.1307  0.0039
 4105TIP3    H133874   4.857   6.162   7.372 -1.2963  0.7803  0.5470
 4105TIP3    H233875   4.984   6.198   7.446  1.2123 -0.6218 -2.8085
 4106TIP3   OH233876   0.025   5.737   7.501 -0.3311 -0.3121  0.4096
 4106TIP3    H133877   0.039   5.819   7.454 -2.1762 -0.0150  0.3127
 4106TIP3    H233878   0.102   5.684   7.481  0.0396  0.7140 -0.9926
 4107TIP3   OH233879   1.102   1.299   1.462  0.0784  1.0272  0.3372
 4107TIP3    H133880   1.136   1.294   1.551 -0.0500 -1.8507  0.3439
 4107TIP3    H233881   1.031   1.364   1.466 -0.0751  0.7854  2.3994
 4108TIP3   OH233882   3.955   2.621   7.203 -0.1006 -0.0528 -0.5871
 4108TIP3    H133883   4.021   2.683   7.172 -1.1659  1.1698 -0.5104
 4108TIP3    H233884   3.880   2.634   7.145 -0.3003 -1.4216 -0.6777
 4109TIP3   OH233885   5.646   1.510   7.761 -0.0292 -0.0957  0.3460
 4109TIP3    H133886   5.641   1.505   7.665  2.9762 -0.0578  0.0990
 4109TIP3    H233887   5.633   1.603   7.780 -2.9231 -0.3883  0.2725
 4110TIP3   OH233888   5.136   3.725   2.299 -0.2448  0.1940  0.1700
 4110TIP3    H133889   5.130   3.771   2.383  1.2393  0.6539  0.0545
 4110TIP3    H233890   5.230   3.716   2.283 -0.4972  0.1566 -1.4701
 4111TIP3   OH233891   5.444   1.785   0.355  0.5108 -0.2439 -0.2714
 4111TIP3    H133892   5.355   1.760   0.333  0.0061  0.9964  0.2840
 4111TIP3    H233893   5.497   1.755   0.281 -0.3247 -1.2147 -0.4816
 4112TIP3   OH233894   2.634   0.792   2.292  0.3022 -0.5575  0.7520
 4112TIP3    H133895   2.656   0.707   2.330  1.6897 -0.6515 -0.1958
 4112TIP3    H233896   2.550   0.778   2.248  0.7263 -1.5704  0.2243
 4113TIP3   OH233897   4.081   1.156   0.606 -0.1868 -0.7956 -0.0617
 4113TIP3    H133898   3.998   1.144   0.652  0.4873 -0.7470  1.2182
 4113TIP3    H233899   4.147   1.121   0.666  0.9223  1.0122 -0.1492
 4114TIP3   OH233900   1.196   6.428   7.736 -0.5676  0.2767  0.1862
 4114TIP3    H133901   1.161   6.377   7.809 -0.6675  0.1506  0.0498
 4114TIP3    H233902   1.276   6.468   7.772 -0.4583 -0.0162  0.2787
 4115TIP3   OH233903   2.306   5.783   7.335 -0.3614 -0.1548 -0.1769
 4115TIP3    H133904   2.396   5.797   7.306 -0.6584  1.0744 -0.5589
 4115TIP3    H233905   2.314   5.722   7.409  1.1631  2.5703  2.1169
 4116TIP3   OH233906   4.940   5.839   6.622  0.2812 -0.0012 -0.2811
 4116TIP3    H133907   4.873   5.876   6.565  0.7586  1.1608 -0.0991
 4116TIP3    H233908   5.019   5.836   6.568  0.5197  0.2818  0.0507
 4117TIP3   OH233909   3.024   0.947   7.703  0.3850  0.5125 -0.3877
 4117TIP3    H133910   2.992   0.909   7.622  0.3113 -1.2822  0.4267
 4117TIP3    H233911   3.120   0.942   7.696  0.4477 -2.4530  0.7444
 4118TIP3   OH233912   1.483   4.304   8.531  0.1708  0.7068 -0.6296
 4118TIP3    H133913   1.502   4.236   8.466 -0.2734  0.1452 -0.1851
 4118TIP3    H233914   1.388   4.315   8.527 -0.2394 -1.1300  1.6301
 4119TIP3   OH233915   5.009   1.027   1.245  0.0017  0.1621 -0.0988
 4119TIP3    H133916   5.056   0.981   1.314 -0.6848  0.5645  0.6611
 4119TIP3    H233917   5.071   1.093   1.213  0.8464 -0.9757 -0.9209
 4120TIP3   OH233918   4.346   3.318   1.725 -0.1430 -0.4174 -0.8024
 4120TIP3    H133919   4.273   3.269   1.762 -1.2571  2.0866  0.5635
 4120TIP3    H233920   4.322   3.331   1.633 -1.5412  0.4700 -0.3485
 4121TIP3   OH233921   4.388   1.063   0.654 -0.2731  0.0522 -0.4003
 4121TIP3    H133922   4.404   1.018   0.571  0.2128 -1.0002  0.2431
 4121TIP3    H233923   4.438   1.145   0.647 -0.4897  0.1161 -1.2610
 4122TIP3   OH233924   1.919   3.188   7.538 -0.3426  0.1599  0.2745
 4122TIP3    H133925   1.852   3.126   7.567 -0.6783  0.3479 -0.0908
 4122TIP3    H233926   1.989   3.133   7.502 -0.8755  0.0008 -0.5557
 4123TIP3   OH233927   4.327   1.221   7.882 -0.1830  0.0442 -0.3585
 4123TIP3    H133928   4.284   1.178   7.956 -2.5377  3.7330  0.6604
 4123TIP3    H233929   4.257   1.238   7.820  0.6569  2.0318 -0.8495
 4124TIP3   OH233930   5.560   4.943   2.796  0.2033  0.2338  0.3979
 4124TIP3    H133931   5.628   5.003   2.766 -0.2267  0.6181  0.1834
 4124TIP3    H233932   5.477   4.987   2.776 -0.1083  0.0557  1.2160
 4125TIP3   OH233933   4.272   1.882   7.790 -0.1729  0.0168 -0.0924
 4125TIP3    H133934   4.291   1.862   7.698  1.0966  1.1427 -0.1077
 4125TIP3    H233935   4.303   1.805   7.838 -0.3324 -0.3437 -0.5600
 4126TIP3   OH233936   1.016   2.078   8.224 -0.1120  0.4364 -0.4768
 4126TIP3    H133937   0.950   2.026   8.269  0.2421  0.0975 -0.3395
 4126TIP3    H233938   1.021   2.159   8.273 -0.9142  0.7511 -0.8931
 4127TIP3   OH233939   0.901   6.052   6.915  0.7856 -0.2910  0.7501
 4127TIP3    H133940   0.931   6.008   6.995  0.7140  0.6577  1.3194
 4127TIP3    H233941   0.812   6.021   6.903 -0.0707  1.3071  2.4042
 4128TIP3   OH233942   2.529   0.798   1.064  0.1796 -0.6569  0.5616
 4128TIP3    H133943   2.610   0.777   1.017  0.4399 -1.2980  1.2756
 4128TIP3    H233944   2.501   0.882   1.027  0.5991 -0.9377 -0.4369
 4129TIP3   OH233945   6.437   1.081   2.201  0.3809 -0.0954 -0.4060
 4129TIP3    H133946   6.387   1.130   2.136  0.7375  1.0165  0.1302
 4129TIP3    H233947   6.394   1.102   2.284  0.7318 -0.4466 -0.1341
 4130TIP3   OH233948   4.629   1.328   8.284  0.2612  0.3418 -0.6619
 4130TIP3    H133949   4.699   1.323   8.349 -1.5577  1.1545  1.5102
 4130TIP3    H233950   4.633   1.417   8.250 -0.0565  0.5876 -0.0786
 4131TIP3   OH233951   5.174   3.926   2.021  0.5410 -0.2829 -0.3275
 4131TIP3    H133952   5.106   3.963   2.078 -0.2240 -1.1259 -0.6727
 4131TIP3    H233953   5.167   3.977   1.940  1.9568  1.2483  0.4474
 4132TIP3   OH233954   1.462   6.784   1.177 -0.3370  0.3551 -0.0838
 4132TIP3    H133955   1.550   6.813   1.198  0.1345 -0.4000 -0.9838
 4132TIP3    H233956   1.427   6.850   1.117 -0.6834  1.0594  0.8661
 4133TIP3   OH233957   1.677   6.553   8.347  0.2416 -0.0490  0.0863
 4133TIP3    H133958   1.707   6.631   8.394 -0.1922 -0.1429  0.5309
 4133TIP3    H233959   1.716   6.561   8.260  0.6208  0.4022  0.2923
 4134TIP3   OH233960   5.462   1.829   0.071 -0.0668 -0.1820 -0.0482
 4134TIP3    H133961   5.512   1.752   0.044  0.7595  0.2395  0.2427
 4134TIP3    H233962   5.389   1.832   0.010 -0.3779 -1.4608  0.2230
 4135TIP3   OH233963   5.575   3.232   1.007 -0.1079 -0.5846  0.4912
 4135TIP3    H133964   5.546   3.320   1.032 -0.8168 -0.9215  0.8956
 4135TIP3    H233965   5.521   3.173   1.060  0.5107 -1.2632  0.3830
 4136TIP3   OH233966   5.317   1.495   0.549 -0.4260 -0.2574  0.1611
 4136TIP3    H133967   5.305   1.491   0.644  0.7139  1.1602  0.4077
 4136TIP3    H233968   5.392   1.553   0.537 -0.4383 -0.5514 -1.6125
 4137TIP3   OH233969   2.673   1.329   1.313 -0.3787 -0.1090  0.0234
 4137TIP3    H133970   2.747   1.374   1.355 -0.8709 -1.5381  2.6627
 4137TIP3    H233971   2.647   1.262   1.376 -2.0997 -1.5816 -2.0951
 4138TIP3   OH233972   1.835   0.310   2.330  0.2545 -0.4436  0.8049
 4138TIP3    H133973   1.803   0.294   2.241 -1.6719 -1.0109  1.5353
 4138TIP3    H233974   1.930   0.309   2.322  0.2639 -4.1689 -0.6641
 4139TIP3   OH233975   1.224   0.016   0.384  0.0615  0.2694 -0.0471
 4139TIP3    H133976   1.222  -0.041   0.460 -1.0075  1.1550  0.6154
 4139TIP3    H233977   1.165  -0.025   0.321  1.2807 -0.6952 -0.6085
 4140TIP3   OH233978   1.350   0.649   8.363  0.0733  0.4231 -0.4809
 4140TIP3    H133979   1.256   0.664   8.372  0.2115  1.5589 -0.7659
 4140TIP3    H233980   1.358   0.588   8.290 -0.4939 -0.5513  0.2615
 4141TIP3   OH233981   6.360   4.743   2.428  0.8066 -0.1220  0.2848
 4141TIP3    H133982   6.362   4.694   2.510  0.5051 -1.6320 -0.5822
 4141TIP3    H233983   6.446   4.727   2.388  0.7886  0.2462  0.0958
 4142TIP3   OH233984   2.874   3.313   1.307 -0.1671  0.8050  0.0951
 4142TIP3    H133985   2.963   3.305   1.270 -0.2627 -1.5758  0.1697
 4142TIP3    H233986   2.821   3.257   1.250 -1.0207 -0.1162  1.7252
 4143TIP3   OH233987   5.729   5.759   0.451 -0.2113 -0.6193 -0.0715
 4143TIP3    H133988   5.698   5.672   0.477 -0.9094 -0.7771 -1.3470
 4143TIP3    H233989   5.692   5.818   0.516 -0.0794 -1.2241  0.5668
 4144TIP3   OH233990   6.582   6.243   2.228  0.4082  0.4674  0.6493
 4144TIP3    H133991   6.644   6.315   2.218  2.1561 -1.1461 -0.6359
 4144TIP3    H233992   6.601   6.207   2.315  1.4150 -0.1040  0.2091
 4145TIP3   OH233993   5.479   3.765   7.176  0.1785 -0.4326 -0.8899
 4145TIP3    H133994   5.560   3.723   7.206 -0.0041  1.0371  2.1407
 4145TIP3    H233995   5.410   3.703   7.198 -0.0184  0.8617  2.8700
 4146TIP3   OH233996   6.323   1.878   0.029 -0.3200 -0.4586  0.0589
 4146TIP3    H133997   6.267   1.804   0.053  0.1332 -0.7024  0.3697
 4146TIP3    H233998   6.411   1.851   0.055 -0.2354  0.4201  0.6962
 4147TIP3   OH233999   2.231   1.875   1.231  0.2081 -0.1005  0.0524
 4147TIP3    H134000   2.202   1.943   1.292  0.7007  1.5702 -1.4972
 4147TIP3    H234001   2.286   1.818   1.285 -1.9688 -0.5974  1.9099
 4148TIP3   OH234002   0.450   0.106   1.198 -0.0906  0.3894 -0.0966
 4148TIP3    H134003   0.410   0.189   1.224  0.8626  0.3718  1.6218
 4148TIP3    H234004   0.381   0.059   1.152 -1.5538  0.9835  1.3942
 4149TIP3   OH234005   4.854   5.262   1.445 -0.3538 -0.6811 -0.2480
 4149TIP3    H134006   4.899   5.343   1.420 -0.1719 -0.0802  1.8019
 4149TIP3    H234007   4.895   5.236   1.528 -1.4772 -1.9984 -0.0578
 4150TIP3   OH234008   2.846   1.787   7.769  0.4956 -0.0515  0.0165
 4150TIP3    H134009   2.905   1.841   7.821  0.4368  0.0385 -0.0102
 4150TIP3    H234010   2.860   1.816   7.679  1.3947 -0.9417 -0.1627
 4151TIP3   OH234011   6.764   4.948   1.285  0.3299 -0.2453  0.0349
 4151TIP3    H134012   6.850   4.907   1.282  0.3375 -0.3100  1.0235
 4151TIP3    H234013   6.783   5.042   1.275  0.3911 -0.3697 -1.1719
 4152TIP3   OH234014   2.240   3.472   7.680  0.1547  0.0698 -0.7120
 4152TIP3    H134015   2.164   3.441   7.728 -0.6990  0.3251 -1.8354
 4152TIP3    H234016   2.272   3.547   7.730 -0.8944  0.5178 -0.6879
 4153TIP3   OH234017   3.404   3.156   0.093 -0.3839  0.4739 -0.3571
 4153TIP3    H134018   3.481   3.192   0.049 -0.6665  0.3933 -0.9228
 4153TIP3    H234019   3.330   3.190   0.044 -0.8512  2.4060  1.4994
 4154TIP3   OH234020   4.895   4.488   7.167  0.5013  0.0213 -0.1668
 4154TIP3    H134021   4.945   4.464   7.088  0.5998 -1.3894  0.2947
 4154TIP3    H234022   4.945   4.450   7.239 -0.0626  0.5372  0.5049
 4155TIP3   OH234023   3.551   2.778   0.485 -0.0568  0.0064  0.0982
 4155TIP3    H134024   3.532   2.849   0.424 -1.2397 -0.4486 -0.0901
 4155TIP3    H234025   3.526   2.812   0.571 -1.4888 -0.4673 -0.1046
 4156TIP3   OH234026   0.457   0.182   0.667 -0.5267  0.3612 -0.0832
 4156TIP3    H134027   0.441   0.102   0.717 -1.8006 -1.0746 -2.6372
 4156TIP3    H234028   0.374   0.230   0.672 -0.1850  0.9214  0.3489
 4157TIP3   OH234029   5.755   4.559   7.527 -0.0729  0.1740 -0.5468
 4157TIP3    H134030   5.698   4.494   7.568  0.7233  0.1893  0.6307
 4157TIP3    H234031   5.840   4.515   7.521 -0.5269 -0.4706 -3.8396
 4158TIP3   OH234032   0.808   6.816   0.733 -0.9038 -0.1572 -0.2584
 4158TIP3    H134033   0.768   6.900   0.753 -0.5467  0.4650 -2.0455
 4158TIP3    H234034   0.894   6.838   0.697 -0.9464 -1.2736 -1.0793
 4159TIP3   OH234035   4.005   2.903   0.853  0.0033 -0.0916  0.2208
 4159TIP3    H134036   4.095   2.914   0.823  0.0883 -1.4967 -0.1497
 4159TIP3    H234037   4.013   2.884   0.947  0.2058 -1.2649 -0.0137
 4160TIP3   OH234038   6.375   4.620   2.664 -0.1217  0.4277  0.1457
 4160TIP3    H134039   6.450   4.590   2.715 -0.2273  0.0434  0.0784
 4160TIP3    H234040   6.325   4.540   2.646  0.0771  0.5196 -0.8229
 4161TIP3   OH234041   5.527   5.715   7.080 -0.2205  0.5235 -0.4421
 4161TIP3    H134042   5.538   5.644   7.143 -2.2012  0.0418 -0.5762
 4161TIP3    H234043   5.589   5.782   7.108  0.8839 -0.7909  0.3545
 4162TIP3   OH234044   0.130   3.180   2.605 -0.4378  0.1931 -0.0671
 4162TIP3    H134045   0.065   3.127   2.560 -1.7994 -0.0009  1.9917
 4162TIP3    H234046   0.140   3.258   2.551 -0.7356 -0.7663 -1.5384
 4163TIP3   OH234047   2.032   2.352   1.625  0.6987  0.5947 -0.1524
 4163TIP3    H134048   2.044   2.299   1.546 -2.3797 -0.7597  0.1081
 4163TIP3    H234049   2.113   2.343   1.673  1.6080 -0.9331 -1.8352
 4164TIP3   OH234050   4.064   1.430   6.937  0.4019  0.6381  0.0185
 4164TIP3    H134051   4.146   1.428   6.986  0.1835  3.3039  0.6682
 4164TIP3    H234052   4.077   1.497   6.870 -0.8345  0.2591 -0.6348
 4165TIP3   OH234053   0.760   3.860   6.979  0.2260 -0.1526  0.0102
 4165TIP3    H134054   0.746   3.954   6.984 -2.3301 -0.3008 -2.0437
 4165TIP3    H234055   0.781   3.834   7.069 -1.4607  2.0445  1.1388
 4166TIP3   OH234056   6.025   4.706   1.358 -1.1812  0.2618 -0.5944
 4166TIP3    H134057   5.964   4.762   1.311 -0.1262  1.4703 -0.5701
 4166TIP3    H234058   6.001   4.617   1.333 -3.5771  0.6248  0.1968
 4167TIP3   OH234059   4.749   3.831   1.916  0.0008  0.8184 -0.0080
 4167TIP3    H134060   4.774   3.914   1.875  1.9714 -0.4420 -1.5125
 4167TIP3    H234061   4.811   3.820   1.987 -1.7738  1.7173  1.7807
 4168TIP3   OH234062   1.850   4.703   6.814  0.1368 -0.6410  0.1121
 4168TIP3    H134063   1.889   4.767   6.754 -1.2881  0.1393 -0.0193
 4168TIP3    H234064   1.833   4.626   6.759  0.8314 -0.7410  0.0237
 4169TIP3   OH234065   3.524   4.272   1.627 -0.1049  0.0352  1.0800
 4169TIP3    H134066   3.501   4.315   1.709 -0.2335  0.3946  0.8593
 4169TIP3    H234067   3.526   4.179   1.648 -1.4398  0.0107  1.1977
 4170TIP3   OH234068   1.144   6.137   7.722  0.2003  0.5409  0.7479
 4170TIP3    H134069   1.223   6.132   7.667 -0.9853 -2.1224 -0.9265
 4170TIP3    H234070   1.177   6.145   7.811  2.4653 -1.2642  0.1765
 4171TIP3   OH234071   0.756   1.949   0.458  0.0326 -0.1735 -0.7832
 4171TIP3    H134072   0.836   1.995   0.482  0.2323 -0.5378 -0.7460
 4171TIP3    H234073   0.785   1.864   0.426 -0.4085 -0.8941  0.6185
 4172TIP3   OH234074   0.012   0.997   1.120 -0.2344 -0.0253  0.0294
 4172TIP3    H134075   0.073   0.988   1.047  0.5501  1.8347  0.3937
 4172TIP3    H234076   0.064   0.981   1.198 -0.3169  1.0518  0.3193
 4173TIP3   OH234077   2.801   3.918   0.827  0.0476  0.1113 -0.1832
 4173TIP3    H134078   2.742   3.938   0.899  1.1330 -0.7882  1.0041
 4173TIP3    H234079   2.745   3.878   0.760 -1.0037  1.1392  0.0687
 4174TIP3   OH234080   5.829   2.526   8.435  0.2650  0.3138 -0.1192
 4174TIP3    H134081   5.889   2.595   8.407  0.1324  0.6975  0.5310
 4174TIP3    H234082   5.858   2.503   8.523 -0.3506  0.2944  0.0850
 4175TIP3   OH234083   6.795   6.447   8.152 -0.5688  0.5662 -0.0674
 4175TIP3    H134084   6.799   6.540   8.129  0.7210  1.3448  2.8342
 4175TIP3    H234085   6.886   6.419   8.155 -0.9365 -0.8233 -0.8184
 4176TIP3   OH234086   5.548   0.848   6.447  1.0076 -0.1254  0.1217
 4176TIP3    H134087   5.607   0.902   6.499 -1.8264  0.9168  2.5930
 4176TIP3    H234088   5.543   0.892   6.362  1.5411  1.4450  0.8676
 4177TIP3   OH234089   5.346   6.353   7.047 -0.1440  0.3049  0.5524
 4177TIP3    H134090   5.397   6.412   7.103  0.9386  0.0546 -0.1410
 4177TIP3    H234091   5.401   6.276   7.038 -0.1239  0.4905 -1.1523
 4178TIP3   OH234092   6.886   5.354   1.678 -0.4621  0.5546 -0.7301
 4178TIP3    H134093   6.936   5.390   1.751 -0.5624  1.5397 -1.1300
 4178TIP3    H234094   6.798   5.342   1.712 -0.4970  0.9692 -0.6692
 4179TIP3   OH234095   4.000   4.354   0.270  0.1967 -0.1301 -0.0385
 4179TIP3    H134096   4.035   4.434   0.231  1.0466  0.3394  1.5690
 4179TIP3    H234097   3.905   4.364   0.265  0.2964  0.9839  0.0985
 4180TIP3   OH234098   3.259   4.812   1.558  0.0130  0.0808 -0.0242
 4180TIP3    H134099   3.212   4.884   1.600 -0.2040  0.7130 -1.3162
 4180TIP3    H234100   3.213   4.733   1.587 -0.2734  0.5129  0.7248
 4181TIP3   OH234101   6.188   2.065   0.288 -0.3586  0.6811  0.1088
 4181TIP3    H134102   6.200   2.095   0.198  1.5501 -1.5648 -0.4527
 4181TIP3    H234103   6.276   2.061   0.325 -1.0500  0.9130  1.8989
 4182TIP3   OH234104   3.450   1.647   2.156 -0.3846 -0.1705  0.6239
 4182TIP3    H134105   3.386   1.612   2.218  0.7998 -2.3959  0.7141
 4182TIP3    H234106   3.528   1.592   2.169  0.9031  1.2206 -0.7820
 4183TIP3   OH234107   2.393   5.061   7.178 -0.2371  0.2320  0.0594
 4183TIP3    H134108   2.310   5.091   7.141 -0.4933 -0.2018  0.2756
 4183TIP3    H234109   2.443   5.031   7.102 -0.5604 -0.1751  0.0009
 4184TIP3   OH234110   3.390   3.365   0.930  0.1497  0.0592 -0.2793
 4184TIP3    H134111   3.330   3.433   0.898  0.1461  0.6974  1.0076
 4184TIP3    H234112   3.368   3.288   0.879 -1.3476  0.4551 -0.2889
 4185TIP3   OH234113   2.736   1.811   0.834 -0.0270 -0.5884 -0.5181
 4185TIP3    H134114   2.687   1.729   0.846 -2.9633  1.1761  0.6948
 4185TIP3    H234115   2.716   1.837   0.744 -1.5050  0.1487 -0.0140
 4186TIP3   OH234116   6.300   2.544   8.131  0.0156 -0.5623 -0.0984
 4186TIP3    H134117   6.297   2.465   8.185  0.4039  0.5429  1.6187
 4186TIP3    H234118   6.220   2.592   8.153  0.0932 -0.1665 -0.6433
 4187TIP3   OH234119   2.883   5.179   8.506  0.4610  0.3286 -0.2325
 4187TIP3    H134120   2.853   5.141   8.423  1.2986  0.2144 -0.4893
 4187TIP3    H234121   2.806   5.176   8.562  0.6252 -2.3709 -0.0096
 4188TIP3   OH234122   4.455   3.160   0.329  0.3249  0.0337  0.4115
 4188TIP3    H134123   4.539   3.162   0.283 -0.3780 -0.8291 -0.9749
 4188TIP3    H234124   4.411   3.083   0.295 -1.3329  0.8613  0.5769
 4189TIP3   OH234125   1.964   3.867   0.099 -0.4113  0.4746 -0.0844
 4189TIP3    H134126   2.057   3.851   0.115 -0.7241 -0.2990  1.0963
 4189TIP3    H234127   1.948   3.953   0.137  0.0656  1.1541 -1.3763
 4190TIP3   OH234128   4.589   4.815   1.644 -0.1885  0.4459 -0.1559
 4190TIP3    H134129   4.637   4.898   1.648  1.4272 -0.4754  0.7710
 4190TIP3    H234130   4.515   4.826   1.704 -1.3179  1.9540 -1.7349
 4191TIP3   OH234131   2.397   6.830   0.693 -0.0120  0.2673  0.0712
 4191TIP3    H134132   2.472   6.886   0.712 -0.1713  0.1546  1.1306
 4191TIP3    H234133   2.414   6.749   0.742  1.3777 -1.6766 -3.2509
 4192TIP3   OH234134   0.559   1.798   7.773 -0.2185  0.0683 -0.6394
 4192TIP3    H134135   0.652   1.781   7.785  0.1686  1.8586 -0.7442
 4192TIP3    H234136   0.540   1.767   7.685  0.8650  1.7435 -1.5171
 4193TIP3   OH234137   5.462   5.747   0.258 -0.3969  0.0692  0.1988
 4193TIP3    H134138   5.425   5.694   0.328  2.0030 -0.9765  0.7630
 4193TIP3    H234139   5.510   5.816   0.303 -0.2456  0.3930 -0.4529
 4194TIP3   OH234140   4.280   5.607   7.565 -0.0101 -0.4944  0.4488
 4194TIP3    H134141   4.363   5.617   7.518 -0.6936  0.4701 -0.6086
 4194TIP3    H234142   4.306   5.585   7.654  1.3798 -0.2852  0.1282
 4195TIP3   OH234143   2.762   2.884   7.230 -0.7397 -0.0814 -0.5707
 4195TIP3    H134144   2.840   2.924   7.269  0.9331 -2.1844 -1.5738
 4195TIP3    H234145   2.735   2.818   7.294 -1.4442  0.3100 -0.4518
 4196TIP3   OH234146   5.238   0.789   0.103  0.2304  0.6094  0.1458
 4196TIP3    H134147   5.195   0.712   0.064  1.0439 -0.4547  1.2807
 4196TIP3    H234148   5.166   0.849   0.122 -0.7697 -0.9437  1.5959
 4197TIP3   OH234149   4.076   6.257   8.521  0.2622  0.6233 -0.0064
 4197TIP3    H134150   4.069   6.301   8.436  1.5299 -0.7763 -0.8946
 4197TIP3    H234151   4.097   6.327   8.583 -1.7998  1.8557 -0.5884
 4198TIP3   OH234152   4.824   4.325   8.595 -0.0447 -0.2404 -0.2474
 4198TIP3    H134153   4.903   4.299   8.547  1.1394  0.5946  1.1613
 4198TIP3    H234154   4.830   4.278   8.678  0.6477  2.1475  1.1597
 4199TIP3   OH234155   4.602   5.775   0.213 -0.2145  0.2446 -0.0916
 4199TIP3    H134156   4.684   5.759   0.260  0.4893 -1.5931 -1.8079
 4199TIP3    H234157   4.629   5.817   0.131 -0.6213 -2.5252 -1.7685
 4200TIP3   OH234158   1.712   1.180   1.939 -0.1307 -0.3635  0.1357
 4200TIP3    H134159   1.804   1.203   1.922 -0.2535  1.2797  1.3752
 4200TIP3    H234160   1.717   1.103   1.995  0.3998 -1.6184 -1.5646
 4201TIP3   OH234161   5.794   5.311   8.328 -0.0502 -0.1641 -0.7168
 4201TIP3    H134162   5.770   5.383   8.386  0.0837 -0.2401 -0.5661
 4201TIP3    H234163   5.876   5.339   8.288  0.6515 -0.7531  0.2687
 4202TIP3   OH234164   2.767   3.210   8.496  0.1733 -0.7419 -0.3212
 4202TIP3    H134165   2.675   3.237   8.488  0.0558 -0.2664  2.0703
 4202TIP3    H234166   2.765   3.114   8.488 -0.5038 -0.7294 -0.3458
 4203TIP3   OH234167   3.747   0.205   8.300 -0.1146 -0.3002  0.5388
 4203TIP3    H134168   3.775   0.270   8.364 -0.4249 -0.3788  0.7584
 4203TIP3    H234169   3.823   0.148   8.287  0.4283  0.5852 -0.2724
 4204TIP3   OH234170   4.772   5.723   7.813 -0.0220 -0.1920  0.0264
 4204TIP3    H134171   4.845   5.784   7.812  0.9004 -1.2442  0.5809
 4204TIP3    H234172   4.696   5.776   7.834  0.7405  0.7711  0.4041
 4205TIP3   OH234173   1.816   1.483   1.618  0.1774  0.6633  0.0879
 4205TIP3    H134174   1.909   1.473   1.638  0.5434  1.2704 -1.2283
 4205TIP3    H234175   1.804   1.578   1.610 -0.8963  0.7156  1.7145
 4206TIP3   OH234176   4.687   1.953   0.533 -0.1725 -0.2885  0.0395
 4206TIP3    H134177   4.610   1.968   0.589  0.0503  1.0091  0.0330
 4206TIP3    H234178   4.729   2.039   0.527  1.4609 -1.0355  0.2918
 4207TIP3   OH234179   2.788   5.345   2.097  0.4620 -0.1346  0.5334
 4207TIP3    H134180   2.734   5.324   2.173 -0.5828 -1.2794 -0.4896
 4207TIP3    H234181   2.823   5.261   2.068  0.3924  0.2105 -0.5940
 4208TIP3   OH234182   6.379   4.104   1.502  0.6067 -0.0233 -0.3665
 4208TIP3    H134183   6.345   4.183   1.543  1.7594  0.0944  0.4132
 4208TIP3    H234184   6.335   4.100   1.417 -2.0806 -0.4270  0.9290
 4209TIP3   OH234185   3.857   6.772   7.381 -0.0198 -0.1285 -0.7796
 4209TIP3    H134186   3.936   6.812   7.345 -0.1700 -0.0990 -1.0810
 4209TIP3    H234187   3.848   6.690   7.333  0.3597 -0.5945 -0.0709
 4210TIP3   OH234188   0.808   3.997   1.255 -0.2330  0.4328 -0.5273
 4210TIP3    H134189   0.758   3.991   1.336  1.1735 -0.3350  0.3352
 4210TIP3    H234190   0.829   4.090   1.247 -1.4084  0.6982 -0.6864
 4211TIP3   OH234191   4.981   1.248   0.065 -0.3831 -0.5384 -0.5320
 4211TIP3    H134192   4.957   1.231   0.156  0.0311 -2.5450 -0.7544
 4211TIP3    H234193   5.067   1.290   0.071 -0.7304  0.1316  0.0012
 4212TIP3   OH234194   6.671   3.956   8.041  0.3654 -0.1905 -0.1343
 4212TIP3    H134195   6.577   3.938   8.042  0.6252 -1.6591  1.0852
 4212TIP3    H234196   6.698   3.945   8.132  1.3892  2.2613 -0.0641
 4213TIP3   OH234197   6.134   3.441   1.424  0.3922 -0.1060  0.0673
 4213TIP3    H134198   6.039   3.427   1.420  0.4074  0.0022 -0.9150
 4213TIP3    H234199   6.166   3.374   1.484 -0.2447 -0.4582  0.0216
 4214TIP3   OH234200   1.589   2.774   1.700  0.0906 -0.2280  0.3251
 4214TIP3    H134201   1.556   2.700   1.751 -0.5465 -0.6890 -0.7228
 4214TIP3    H234202   1.569   2.751   1.609  0.0537  1.1524 -0.0314
 4215TIP3   OH234203   4.088   2.859   7.095  0.1639 -0.9186  0.3942
 4215TIP3    H134204   4.183   2.852   7.084  0.3732  0.9362  0.7635
 4215TIP3    H234205   4.067   2.948   7.067 -1.9755 -2.2537 -2.9104
 4216TIP3   OH234206   5.106   4.774   1.796  0.2712  0.0707 -0.0387
 4216TIP3    H134207   5.042   4.790   1.726  0.6894  0.3884 -0.3539
 4216TIP3    H234208   5.087   4.684   1.825  0.3783 -0.2268 -0.8620
 4217TIP3   OH234209   6.124   2.518   1.465  0.1350  0.1358  0.2279
 4217TIP3    H134210   6.143   2.470   1.545  0.3920  0.3042  0.2688
 4217TIP3    H234211   6.182   2.481   1.399 -0.4215 -0.3380 -0.0038
 4218TIP3   OH234212   5.514   6.863   7.228 -0.2401 -0.1789  0.7644
 4218TIP3    H134213   5.433   6.863   7.280 -0.6484 -0.1884  0.1523
 4218TIP3    H234214   5.486   6.896   7.142  0.7574  1.5487  1.0534
 4219TIP3   OH234215   4.726   0.093   7.977  0.2152 -0.2205 -0.5146
 4219TIP3    H134216   4.687   0.093   8.065  0.2055 -1.6012 -0.4907
 4219TIP3    H234217   4.652   0.081   7.918  0.2071  0.8379 -0.7300
 4220TIP3   OH234218   2.088   0.843   1.016 -0.7395  0.1860  0.2921
 4220TIP3    H134219   2.038   0.769   0.980 -1.0616 -0.1144  1.3094
 4220TIP3    H234220   2.127   0.885   0.939 -3.0997  0.8415 -0.6400
 4221TIP3   OH234221   5.960   6.528   0.658  0.0412  0.2556 -0.3032
 4221TIP3    H134222   5.980   6.600   0.599 -0.5370  0.2650 -0.4960
 4221TIP3    H234223   5.957   6.450   0.602  1.6234 -0.0948  0.0441
 4222TIP3   OH234224   3.142   1.618   8.607  0.0044  0.0687  0.0374
 4222TIP3    H134225   3.163   1.639   8.698  1.8505 -0.7162 -0.1756
 4222TIP3    H234226   3.067   1.673   8.587 -1.0933 -0.4426  2.3334
 4223TIP3   OH234227   1.623   6.164   8.616 -0.3231  0.0129 -0.2640
 4223TIP3    H134228   1.674   6.172   8.536 -0.6281  2.4781 -0.3005
 4223TIP3    H234229   1.533   6.187   8.590 -1.0190 -1.9386  0.2579
 4224TIP3   OH234230   5.154   1.735   0.596 -0.5228  0.2610  0.4594
 4224TIP3    H134231   5.219   1.666   0.584  1.0398  1.7610 -0.0917
 4224TIP3    H234232   5.142   1.772   0.508 -0.2164  1.6311  0.9697
 4225TIP3   OH234233   4.893   5.883   1.849 -0.7434 -0.2227 -0.2684
 4225TIP3    H134234   4.851   5.958   1.890 -1.8615 -1.2570  0.5736
 4225TIP3    H234235   4.893   5.903   1.755 -1.5833  0.5544 -0.1113
 4226TIP3   OH234236   3.686   0.026   0.449  0.2847  0.0420  0.4426
 4226TIP3    H134237   3.708   0.108   0.404 -1.2924 -1.1136 -2.7260
 4226TIP3    H234238   3.591   0.024   0.451  0.2901 -0.8272  2.3797
 4227TIP3   OH234239   1.574   3.937   7.792 -0.3738 -0.0333  0.6221
 4227TIP3    H134240   1.516   3.985   7.733  0.3131 -0.0269 -0.0643
 4227TIP3    H234241   1.581   3.993   7.869  1.1045  1.4158 -0.5123
 4228TIP3   OH234242   3.552   5.460   8.244 -0.1225  0.3115 -0.1426
 4228TIP3    H134243   3.570   5.494   8.157 -1.1960 -1.1862 -0.9876
 4228TIP3    H234244   3.585   5.370   8.241 -1.9825 -0.4128  0.3211
 4229TIP3   OH234245   5.494   1.194   1.196 -0.4852  0.5194 -0.3542
 4229TIP3    H134246   5.476   1.171   1.105 -0.7035 -0.1628 -0.1447
 4229TIP3    H234247   5.447   1.128   1.247  1.2958 -0.3454  0.2460
 4230TIP3   OH234248   2.830   0.660   1.325  0.3500  0.4106  0.1561
 4230TIP3    H134249   2.849   0.602   1.399  1.7323  0.2262 -0.3197
 4230TIP3    H234250   2.740   0.689   1.341  0.0208 -0.9515  1.0134
 4231TIP3   OH234251   6.664   3.691   8.466  0.0372 -0.1145  0.3851
 4231TIP3    H134252   6.580   3.721   8.429  0.2773  0.1320  0.0275
 4231TIP3    H234253   6.716   3.666   8.389 -0.3014 -1.8762  0.6920
 4232TIP3   OH234254   6.827   0.000   7.400  0.1249  0.0791 -0.1138
 4232TIP3    H134255   6.884   0.049   7.458  0.4231  0.1630 -0.4732
 4232TIP3    H234256   6.783   0.067   7.347 -1.2347  0.1016  0.9745
 4233TIP3   OH234257   5.054   3.650   7.488  0.3083 -0.0425 -0.3052
 4233TIP3    H134258   5.018   3.610   7.410 -0.2650  0.4007 -0.2716
 4233TIP3    H234259   5.027   3.592   7.560  0.3296 -0.1324 -0.3705
 4234TIP3   OH234260   4.053   1.556   7.491 -0.1538  0.0019  0.3386
 4234TIP3    H134261   4.019   1.603   7.567  0.7543 -0.3922  1.0058
 4234TIP3    H234262   4.020   1.605   7.416 -0.9893  0.4494  0.9841
 4235TIP3   OH234263   2.764   5.030   8.265 -0.3548  0.7111 -0.2937
 4235TIP3    H134264   2.772   4.934   8.269 -2.7647  0.4468 -0.4084
 4235TIP3    H234265   2.798   5.052   8.178  0.5796  0.0241 -0.1271
 4236TIP3   OH234266   0.698   4.160   6.923 -0.2850  0.4801 -0.1324
 4236TIP3    H134267   0.659   4.243   6.897  0.5672  1.4921  1.5797
 4236TIP3    H234268   0.760   4.138   6.853 -1.9898  0.1590 -1.6137
 4237TIP3   OH234269   2.584   3.344   6.800  0.2394  0.5548 -0.0166
 4237TIP3    H134270   2.626   3.276   6.747 -1.5306  0.1674 -1.0334
 4237TIP3    H234271   2.525   3.388   6.739 -2.7446 -0.6432  1.7708
 4238TIP3   OH234272   1.282   1.281   1.265  0.2793  0.1448 -0.2670
 4238TIP3    H134273   1.208   1.305   1.321 -0.0382  0.6282 -0.8836
 4238TIP3    H234274   1.351   1.254   1.326 -0.2788  0.0472  0.3268
 4239TIP3   OH234275   1.285   4.091   8.041  0.5488 -0.2775 -0.5612
 4239TIP3    H134276   1.365   4.059   8.082  1.1650  0.3110 -1.2513
 4239TIP3    H234277   1.278   4.182   8.071  0.9574  0.1317 -1.6218
 4240TIP3   OH234278   1.698   0.639   7.665  0.6195 -0.6746 -0.2233
 4240TIP3    H134279   1.740   0.695   7.730 -2.1509  0.9162  0.4000
 4240TIP3    H234280   1.757   0.640   7.590  2.2205  0.3758  0.9924
 4241TIP3   OH234281   5.704   5.507   1.843  0.1677  0.1814 -0.0875
 4241TIP3    H134282   5.755   5.583   1.873 -0.4067  0.5885 -0.1125
 4241TIP3    H234283   5.712   5.444   1.914 -0.9932  1.0497  0.8690
 4242TIP3   OH234284   0.650   4.654   0.142  0.0413  0.5165 -0.0152
 4242TIP3    H134285   0.579   4.650   0.205 -0.5263  0.4070 -0.6570
 4242TIP3    H234286   0.708   4.581   0.166  0.1463  0.8399  0.7400
 4243TIP3   OH234287   3.234   5.633   1.468 -0.3258  0.0492  0.8522
 4243TIP3    H134288   3.232   5.724   1.496 -1.3520  0.3149 -0.0253
 4243TIP3    H234289   3.151   5.620   1.421 -0.3985 -1.4454  1.3152
 4244TIP3   OH234290   6.325   6.346   0.402 -0.5055 -0.2474  0.1163
 4244TIP3    H134291   6.313   6.345   0.497  1.1850 -1.0922  0.3637
 4244TIP3    H234292   6.380   6.270   0.384  0.0211  0.4553 -1.4169
 4245TIP3   OH234293   6.190   6.763   0.966  0.2666  0.9480 -0.0939
 4245TIP3    H134294   6.126   6.737   0.900  0.3210  2.1701 -0.6495
 4245TIP3    H234295   6.220   6.681   1.005 -1.3604  0.3430 -0.0796
 4246TIP3   OH234296   0.311   0.813   1.134 -0.4166  0.1656  0.2859
 4246TIP3    H134297   0.348   0.896   1.164 -0.2996  0.1000  0.3230
 4246TIP3    H234298   0.306   0.760   1.213 -1.8817  0.6504  0.5582
 4247TIP3   OH234299   3.481   0.660   2.344 -0.5531  0.0264 -0.2858
 4247TIP3    H134300   3.517   0.728   2.287 -2.9731  2.1762  0.5659
 4247TIP3    H234301   3.557   0.622   2.387  0.9129  2.2211 -0.7813
 4248TIP3   OH234302   4.593   5.903   7.898 -0.2071 -0.3827 -0.0904
 4248TIP3    H134303   4.663   5.956   7.935 -0.2615 -1.4855  1.6968
 4248TIP3    H234304   4.517   5.961   7.897 -0.2306 -0.3468  1.6843
 4249TIP3   OH234305   5.355   3.776   0.777 -0.2720 -0.2845 -0.1261
 4249TIP3    H134306   5.391   3.755   0.691  0.9341 -0.6029  0.4408
 4249TIP3    H234307   5.261   3.762   0.768 -0.1229 -0.5843 -1.3107
 4250TIP3   OH234308   5.942   4.935   1.929 -0.0344  0.7292 -0.1014
 4250TIP3    H134309   5.947   5.003   1.996  2.0480  1.4666 -0.9262
 4250TIP3    H234310   6.018   4.880   1.946 -1.0541 -0.7606 -0.1598
 4251TIP3   OH234311   4.352   4.236   8.609 -0.5485  0.2778  0.4199
 4251TIP3    H134312   4.331   4.261   8.519 -1.9839  0.0578  0.6592
 4251TIP3    H234313   4.370   4.319   8.653  1.7668  0.2747 -0.4061
 4252TIP3   OH234314   3.504   1.521   1.494 -0.1199  0.0344  0.0363
 4252TIP3    H134315   3.430   1.472   1.460 -0.8903  1.3262 -0.2137
 4252TIP3    H234316   3.574   1.456   1.503 -0.9178 -0.9785 -0.8339
 4253TIP3   OH234317   4.079   5.620   6.645 -0.2815 -0.1120 -0.1071
 4253TIP3    H134318   4.097   5.536   6.602 -1.1456 -0.5012  0.2723
 4253TIP3    H234319   4.163   5.666   6.643  0.3236 -1.1775  0.1079
 4254TIP3   OH234320   1.174   0.901   2.347  0.1062  0.6009 -0.1179
 4254TIP3    H134321   1.105   0.842   2.378 -2.0560  2.0155 -1.8762
 4254TIP3    H234322   1.160   0.982   2.396 -1.5371  1.8968 -2.5050
 4255TIP3   OH234323   0.036   2.618   0.255  0.2077 -0.1005  0.2762
 4255TIP3    H134324  -0.004   2.668   0.184  1.0446 -0.4748 -0.4763
 4255TIP3    H234325   0.074   2.541   0.213  0.9867 -0.1796  1.0775
 4256TIP3   OH234326   4.395   1.344   7.465  0.0763  0.4147 -0.1327
 4256TIP3    H134327   4.341   1.335   7.386 -0.9089 -0.7510  0.6337
 4256TIP3    H234328   4.477   1.300   7.443 -1.3333 -2.7714  0.4605
 4257TIP3   OH234329   2.811   4.044   1.188  0.2749 -0.1569  0.2332
 4257TIP3    H134330   2.888   4.098   1.209 -0.2460 -0.0290  1.9908
 4257TIP3    H234331   2.845   3.955   1.180  0.9431  0.2165 -1.3923
 4258TIP3   OH234332   0.186   1.394   6.652  0.3654  0.3419 -0.1794
 4258TIP3    H134333   0.146   1.481   6.661  0.0613  0.2124 -0.2412
 4258TIP3    H234334   0.111   1.335   6.638  0.3189 -0.3400  2.4701
 4259TIP3   OH234335   3.133   1.507   6.760 -0.2401 -0.6579 -0.2101
 4259TIP3    H134336   3.106   1.491   6.850 -1.3182 -0.4794 -0.4910
 4259TIP3    H234337   3.122   1.423   6.717 -1.9465 -0.2052 -0.7095
 4260TIP3   OH234338   3.625   1.010   7.823 -0.2915 -0.2822  0.3505
 4260TIP3    H134339   3.674   0.929   7.838 -0.7776 -1.0213 -1.7317
 4260TIP3    H234340   3.675   1.077   7.870 -0.0701 -1.8062  2.4107
 4261TIP3   OH234341   0.595   3.719   6.527 -0.0663  0.0698  0.1690
 4261TIP3    H134342   0.581   3.809   6.555 -0.3275  0.4666 -1.1725
 4261TIP3    H234343   0.508   3.688   6.501  0.0431 -0.5323  0.5092
 4262TIP3   OH234344   5.665   0.281   7.372  0.1724  0.1097  0.5063
 4262TIP3    H134345   5.619   0.224   7.434  1.1976 -2.5314 -0.9894
 4262TIP3    H234346   5.757   0.276   7.398  0.1604  2.2151  1.1164
 4263TIP3   OH234347   3.973   4.852   1.168 -0.3141 -0.2071  0.8502
 4263TIP3    H134348   4.031   4.795   1.117 -1.4773  0.1665 -0.9710
 4263TIP3    H234349   4.031   4.916   1.208  0.5270  0.4794 -1.3516
 4264TIP3   OH234350   5.543   1.895   7.436  0.3394 -0.5336 -0.6746
 4264TIP3    H134351   5.480   1.859   7.498  1.0790  0.1299  0.5207
 4264TIP3    H234352   5.553   1.987   7.463  0.8616 -0.2870 -1.6410
 4265TIP3   OH234353   2.830   3.384   7.181 -0.0545 -0.4409  0.2456
 4265TIP3    H134354   2.890   3.311   7.197 -0.1078 -0.3075  1.1051
 4265TIP3    H234355   2.743   3.344   7.185 -0.0418 -0.5483 -0.5167
 4266TIP3   OH234356   4.871   0.082   2.007 -0.2333  0.6438  0.0848
 4266TIP3    H134357   4.784   0.085   1.969 -0.1402  0.1252 -0.1753
 4266TIP3    H234358   4.867   0.010   2.070  0.1585  0.2504 -0.3277
 4267TIP3   OH234359   0.996   4.346   8.229 -0.0015 -0.0398  0.0009
 4267TIP3    H134360   0.923   4.396   8.266  0.2668 -0.4313  1.1000
 4267TIP3    H234361   0.998   4.265   8.280  0.6476 -0.4248 -0.6173
 4268TIP3   OH234362   4.802   1.928   2.140  0.2136  0.0156  0.1951
 4268TIP3    H134363   4.847   2.012   2.150 -0.3928  0.2799  0.7810
 4268TIP3    H234364   4.815   1.905   2.048  3.4428 -1.0327  0.7826
 4269TIP3   OH234365   2.937   2.468   1.150 -0.0916  0.4401  0.5832
 4269TIP3    H134366   2.999   2.427   1.211 -1.5235 -1.6217  0.7397
 4269TIP3    H234367   2.912   2.550   1.194  0.4387 -0.0238  1.8141
 4270TIP3   OH234368   6.524   1.182   1.925  0.4568 -0.1415 -0.5777
 4270TIP3    H134369   6.516   1.228   1.842 -3.2187  1.2502  0.3626
 4270TIP3    H234370   6.436   1.182   1.962  1.3395 -3.1907  2.0869
 4271TIP3   OH234371   5.930   3.862   8.230  0.6214 -0.2021 -0.4128
 4271TIP3    H134372   5.990   3.891   8.298 -0.3952 -1.3882  1.0493
 4271TIP3    H234373   5.848   3.843   8.276  0.1261 -1.7839 -1.8240
 4272TIP3   OH234374   3.709   5.535   8.446  0.4853  0.3207  0.0664
 4272TIP3    H134375   3.637   5.524   8.383  1.0763 -0.6508 -0.4540
 4272TIP3    H234376   3.740   5.624   8.430  1.3580 -0.2735 -1.8308
 4273TIP3   OH234377   3.088   6.021   7.964  0.3048 -0.2048  0.5769
 4273TIP3    H134378   3.052   6.077   8.032  0.8947 -0.5248  1.1732
 4273TIP3    H234379   3.183   6.027   7.976  0.5109  1.0637 -1.3083
 4274TIP3   OH234380   1.044   2.604   0.762  0.3890 -0.5655 -0.2451
 4274TIP3    H134381   0.981   2.561   0.704 -0.9362 -0.5418  1.1151
 4274TIP3    H234382   0.994   2.674   0.804  1.4163 -0.3323  0.6257
 4275TIP3   OH234383   5.126   3.162   2.257  0.2451 -0.4362  0.0484
 4275TIP3    H134384   5.075   3.150   2.178 -0.3854 -0.6593  0.4830
 4275TIP3    H234385   5.207   3.113   2.242 -0.0293 -0.7799 -0.3078
 4276TIP3   OH234386   6.148   0.243   7.160  0.0529 -0.3848  0.1379
 4276TIP3    H134387   6.165   0.229   7.067  0.7133 -3.2735  0.6204
 4276TIP3    H234388   6.057   0.216   7.173 -0.0304 -0.0191  0.3405
 4277TIP3   OH234389   4.520   2.453   8.146 -0.0019 -0.1456  0.3280
 4277TIP3    H134390   4.531   2.361   8.123  1.5472  0.0140  0.3658
 4277TIP3    H234391   4.568   2.501   8.078  0.9816  0.5258  1.4741
 4278TIP3   OH234392   4.444   5.886   1.906  0.2471 -0.3850 -0.6224
 4278TIP3    H134393   4.493   5.908   1.985 -2.1803  3.0197  0.1147
 4278TIP3    H234394   4.393   5.809   1.931  0.5847 -0.2232  0.6482
 4279TIP3   OH234395   5.507   2.263   0.409  0.3477  0.3787 -0.5442
 4279TIP3    H134396   5.421   2.295   0.382  0.3959 -0.2286 -1.4771
 4279TIP3    H234397   5.536   2.207   0.336  0.5140 -1.3130  0.7679
 4280TIP3   OH234398   4.900   5.726   0.032 -0.4757 -0.3675  0.3016
 4280TIP3    H134399   4.991   5.720   0.003  0.3611 -0.1455  2.6585
 4280TIP3    H234400   4.863   5.640   0.012  0.1818 -0.4122 -0.8203
 4281TIP3   OH234401   1.661   5.407   2.322 -0.6635  0.2025  0.2996
 4281TIP3    H134402   1.593   5.349   2.356  0.6369 -0.9075  1.1114
 4281TIP3    H234403   1.740   5.382   2.370  0.2921  1.5610 -0.4993
 4282TIP3   OH234404   1.427   2.832   8.304 -0.3923  0.5646  0.1219
 4282TIP3    H134405   1.371   2.827   8.227 -1.2835 -0.1554  0.7993
 4282TIP3    H234406   1.517   2.830   8.269 -0.7783 -0.4893 -0.8397
 4283TIP3   OH234407   4.200   1.639   0.799 -0.1371  0.0664 -0.2843
 4283TIP3    H134408   4.157   1.567   0.845 -0.4921  0.1163 -0.5361
 4283TIP3    H234409   4.291   1.635   0.828 -0.4780  0.4857  0.9217
 4284TIP3   OH234410   2.638   6.242   0.833 -0.1436 -0.4275 -0.3145
 4284TIP3    H134411   2.732   6.239   0.815 -0.0899  1.1227 -0.4149
 4284TIP3    H234412   2.626   6.320   0.888 -1.2301 -1.2360  0.6438
 4285TIP3   OH234413   6.887   1.435   0.326 -0.2074  0.1235  0.0698
 4285TIP3    H134414   6.974   1.399   0.347  0.5342  1.7466 -0.0838
 4285TIP3    H234415   6.837   1.424   0.407 -0.1822 -1.6262 -0.1036
 4286TIP3   OH234416   2.118   0.366   7.402 -0.3732  0.1987 -0.2980
 4286TIP3    H134417   2.192   0.330   7.451 -0.5319  0.3627  0.0705
 4286TIP3    H234418   2.054   0.389   7.470 -0.4973  0.6595 -0.5664
 4287TIP3   OH234419   3.175   5.931   7.021 -0.0506  0.1229 -0.0923
 4287TIP3    H134420   3.234   6.004   7.004  0.7620 -0.5682 -0.2699
 4287TIP3    H234421   3.228   5.853   7.007 -0.6110 -0.5061  1.1164
 4288TIP3   OH234422   0.478   2.985   1.988 -0.3977  0.0116 -0.1238
 4288TIP3    H134423   0.497   2.921   2.056 -1.2301  1.4591  1.5547
 4288TIP3    H234424   0.432   2.936   1.920  1.8882 -1.8274 -0.5004
 4289TIP3   OH234425   1.746   3.766   6.204 -0.3184  0.1585 -0.3985
 4289TIP3    H134426   1.678   3.828   6.229  0.7104  0.7559  1.0574
 4289TIP3    H234427   1.805   3.763   6.280  0.7175 -1.1264 -1.2041
 4290TIP3   OH234428   3.071   5.557   1.195  0.0820  0.2102  0.1785
 4290TIP3    H134429   3.000   5.519   1.247  0.3188 -2.3371 -1.2212
 4290TIP3    H234430   3.028   5.592   1.117  0.2688 -1.2645 -0.6327
 4291TIP3   OH234431   1.137   0.781   0.620  0.4736 -0.0145  0.2074
 4291TIP3    H134432   1.045   0.762   0.598  0.1724 -0.8069  2.0219
 4291TIP3    H234433   1.161   0.714   0.684  2.6786 -0.4704 -0.9781
 4292TIP3   OH234434   5.191   2.389   7.978  0.3569 -0.4468 -0.5160
 4292TIP3    H134435   5.103   2.358   7.954  0.5616 -0.9383 -0.6556
 4292TIP3    H234436   5.242   2.308   7.986  0.2272 -0.3414  1.9145
 4293TIP3   OH234437   1.296   2.886   0.228 -0.0108  1.1398  0.3733
 4293TIP3    H134438   1.217   2.836   0.207  2.5056 -3.0192 -0.2119
 4293TIP3    H234439   1.331   2.912   0.143 -0.0442  1.8695  0.5721
 4294TIP3   OH234440   6.672   5.570   8.330  0.2528 -0.2545 -0.6363
 4294TIP3    H134441   6.588   5.607   8.360  0.6240 -0.1253  0.2699
 4294TIP3    H234442   6.675   5.591   8.237 -0.1516  0.8687 -0.4132
 4295TIP3   OH234443   1.135   3.585   6.915 -0.1391 -0.6088 -0.0199
 4295TIP3    H134444   1.067   3.628   6.968 -1.3821  0.0445 -2.0184
 4295TIP3    H234445   1.129   3.628   6.829  1.6378 -1.7624 -0.7799
 4296TIP3   OH234446   5.977   1.733   1.528 -0.2445  0.5441  0.4914
 4296TIP3    H134447   5.985   1.762   1.619 -0.0140  0.8465  0.3759
 4296TIP3    H234448   5.979   1.637   1.533  1.7817  0.5477  0.6311
 4297TIP3   OH234449   6.555   6.694   2.069 -0.0889 -0.1177  0.3543
 4297TIP3    H134450   6.503   6.725   2.143  0.0669  1.3214 -0.1112
 4297TIP3    H234451   6.627   6.756   2.062  0.0540 -0.3813 -0.8471
 4298TIP3   OH234452   3.175   2.071   0.869 -0.3443  0.5711  0.6655
 4298TIP3    H134453   3.155   1.977   0.876  0.4058  0.3003 -0.4861
 4298TIP3    H234454   3.110   2.105   0.808  1.0710  0.1968 -1.1249
 4299TIP3   OH234455   0.250   4.179   0.027  0.5740 -0.3296 -0.6723
 4299TIP3    H134456   0.328   4.153  -0.022  1.3604 -1.2130  0.9813
 4299TIP3    H234457   0.273   4.165   0.119 -1.4627 -0.4251 -0.1234
 4300TIP3   OH234458   3.864   4.791   0.137  0.7194 -0.1738 -0.2855
 4300TIP3    H134459   3.830   4.703   0.153 -0.7026  0.5751  1.0385
 4300TIP3    H234460   3.797   4.834   0.085  1.8235 -0.1076 -1.7350
 4301TIP3   OH234461   1.483   1.390   0.949  0.3602  0.2650  0.3795
 4301TIP3    H134462   1.556   1.337   0.982  0.8098  2.7395  3.8084
 4301TIP3    H234463   1.405   1.346   0.983  0.5360  0.1338  0.6234
 4302TIP3   OH234464   6.180   1.661   8.140 -0.1628  0.6486  0.2949
 4302TIP3    H134465   6.152   1.675   8.230  0.8315 -0.3281  0.7786
 4302TIP3    H234466   6.124   1.590   8.109 -0.2808  0.7624  0.2445
 4303TIP3   OH234467   3.885   0.967   0.185 -0.7204  0.4880  0.2754
 4303TIP3    H134468   3.796   0.999   0.201 -1.2230 -0.6175 -0.1977
 4303TIP3    H234469   3.942   1.038   0.213 -1.7488  1.0768  0.9219
 4304TIP3   OH234470   0.479   5.121   0.768  0.0379 -0.6940 -0.0780
 4304TIP3    H134471   0.500   5.138   0.676  0.5589  1.3339  0.3522
 4304TIP3    H234472   0.564   5.113   0.811 -0.1442  0.4052  0.5254
 4305TIP3   OH234473   0.715   4.995   6.989 -0.2749 -0.2224  0.3489
 4305TIP3    H134474   0.713   5.087   6.960 -3.6168 -0.9924 -2.5847
 4305TIP3    H234475   0.647   4.990   7.056 -0.4853 -0.6251  0.1064
 4306TIP3   OH234476   5.959   3.162   0.382 -0.2617  0.0403 -0.3566
 4306TIP3    H134477   5.942   3.108   0.460  0.7458 -0.7748 -0.6869
 4306TIP3    H234478   6.054   3.163   0.373 -0.3360  0.6784 -1.2045
 4307TIP3   OH234479   5.371   0.787   0.554 -0.4388 -0.6750 -0.1326
 4307TIP3    H134480   5.422   0.849   0.501 -2.0322 -0.8596 -2.0035
 4307TIP3    H234481   5.339   0.839   0.628  0.4484  0.0361 -0.2280
 4308TIP3   OH234482   5.150   5.270   0.314 -0.6951 -0.5112  0.4407
 4308TIP3    H134483   5.201   5.231   0.243  0.8504  1.5857  0.3253
 4308TIP3    H234484   5.180   5.224   0.392 -0.1658 -0.7396  0.1097
 4309TIP3   OH234485   5.373   6.628   6.150  0.0051 -0.2364  0.0457
 4309TIP3    H134486   5.291   6.580   6.144  0.3038 -0.5406 -3.4180
 4309TIP3    H234487   5.356   6.712   6.107  1.4604 -0.2618 -0.6363
 4310TIP3   OH234488   1.953   1.341   7.197  0.3726 -0.1662  0.5524
 4310TIP3    H134489   1.891   1.371   7.130 -1.9213 -2.9341  1.2237
 4310TIP3    H234490   1.920   1.378   7.279  2.1039  1.6996  0.4737
 4311TIP3   OH234491   5.496   1.573   1.644 -0.4286  0.6232 -0.2683
 4311TIP3    H134492   5.459   1.503   1.697 -2.2888  1.0389 -0.9553
 4311TIP3    H234493   5.459   1.653   1.681  0.3547  1.1349 -0.5568
 4312TIP3   OH234494   3.326   1.363   1.386 -0.5070 -0.3712  0.5669
 4312TIP3    H134495   3.362   1.368   1.297 -0.6386 -4.7906  0.0315
 4312TIP3    H234496   3.231   1.363   1.374 -0.5656  0.5595  0.9229
 4313TIP3   OH234497   0.349   0.268   6.745  0.2705  0.5181 -1.0214
 4313TIP3    H134498   0.283   0.333   6.772 -1.8466 -1.6113 -0.7845
 4313TIP3    H234499   0.412   0.267   6.817 -1.2968  0.2113  0.4151
 4314TIP3   OH234500   6.010   5.914   8.414  0.2472 -0.1119  0.1231
 4314TIP3    H134501   6.070   5.907   8.488  0.0664 -2.5094  0.1381
 4314TIP3    H234502   5.937   5.858   8.437 -1.4736  1.7866 -0.4479
 4315TIP3   OH234503   1.446   2.364   6.498  0.1609  0.1641 -0.6315
 4315TIP3    H134504   1.419   2.323   6.416  0.5484 -1.2227 -0.1045
 4315TIP3    H234505   1.518   2.422   6.473  1.1499 -1.2127 -1.1352
 4316TIP3   OH234506   3.987   0.450   6.999 -0.0578  0.9056 -0.4914
 4316TIP3    H134507   3.947   0.410   6.921  0.1706  0.5110 -0.4117
 4316TIP3    H234508   3.997   0.542   6.976  1.6447  0.4951 -1.6243
 4317TIP3   OH234509   5.059   6.272   7.880  0.3265 -0.2608 -0.4346
 4317TIP3    H134510   4.971   6.277   7.842  0.2009 -1.5030 -0.3625
 4317TIP3    H234511   5.045   6.237   7.968  0.7235  1.5043  0.3617
 4318TIP3   OH234512   6.651   1.212   0.198  0.1635  0.0708  0.4684
 4318TIP3    H134513   6.567   1.217   0.152  0.7705  0.8921 -0.6142
 4318TIP3    H234514   6.717   1.222   0.129  1.1428 -0.1270  1.3460
 4319TIP3   OH234515   6.164   6.734   0.635  0.2760 -0.0635 -0.0268
 4319TIP3    H134516   6.102   6.806   0.628  0.0042 -0.3296 -0.3707
 4319TIP3    H234517   6.186   6.712   0.545 -0.2543 -0.9354  0.0409
 4320TIP3   OH234518   1.217   2.367   0.491  0.0538 -0.5654 -0.1134
 4320TIP3    H134519   1.215   2.461   0.478  1.5486 -0.6746 -1.3709
 4320TIP3    H234520   1.210   2.355   0.585 -2.6780  0.6577 -0.0669
 4321TIP3   OH234521   5.179   4.684   1.437 -0.6390 -0.0422  0.4028
 4321TIP3    H134522   5.144   4.689   1.348 -2.1375 -0.4923  0.9461
 4321TIP3    H234523   5.114   4.634   1.486 -0.3529  1.0805  1.9982
 4322TIP3   OH234524   5.542   5.024   1.512 -0.6015  0.0274  0.2724
 4322TIP3    H134525   5.532   5.039   1.418 -0.6556 -0.7180  0.1569
 4322TIP3    H234526   5.522   5.109   1.551 -1.0260  0.2333 -0.3635
 4323TIP3   OH234527   2.438   6.637   7.134  0.3092 -0.0028 -0.3930
 4323TIP3    H134528   2.526   6.603   7.121 -0.6141 -2.2445 -1.3649
 4323TIP3    H234529   2.406   6.592   7.212 -0.4771 -0.3507 -0.9020
 4324TIP3   OH234530   6.832   5.354   0.439 -0.0169 -0.1520  0.8279
 4324TIP3    H134531   6.892   5.418   0.402  1.0973 -1.0629  1.0178
 4324TIP3    H234532   6.883   5.273   0.445 -0.9430 -0.6815  1.9666
 4325TIP3   OH234533   3.426   3.516   0.110  0.3578 -0.6392  0.2824
 4325TIP3    H134534   3.433   3.467   0.028  0.9792 -0.2794  0.1123
 4325TIP3    H234535   3.373   3.592   0.088  2.1436  0.4909 -0.3045
 4326TIP3   OH234536   3.039   0.199   0.395 -0.5837  0.1130  0.6844
 4326TIP3    H134537   2.976   0.168   0.330  1.7424 -1.2325 -1.0905
 4326TIP3    H234538   3.076   0.119   0.432 -0.2386  0.8714  2.0335
 4327TIP3   OH234539   0.544   0.646   8.004 -0.1437 -0.1986  0.2952
 4327TIP3    H134540   0.590   0.708   8.061 -1.2514  1.8844 -0.9638
 4327TIP3    H234541   0.452   0.657   8.026 -0.3130 -2.6058  1.1110
 4328TIP3   OH234542   5.573   3.069   6.871  0.1003  0.0014  0.2123
 4328TIP3    H134543   5.520   3.051   6.949  1.1338 -0.4386  0.8458
 4328TIP3    H234544   5.512   3.060   6.798 -1.2282  1.8002  1.0313
 4329TIP3   OH234545   1.668   0.090   0.228 -0.0338 -0.5980 -0.0501
 4329TIP3    H134546   1.693   0.137   0.148 -3.8782  0.8352 -0.6325
 4329TIP3    H234547   1.582   0.052   0.208 -1.9201  1.1045  3.7542
 4330TIP3   OH234548   0.656   4.743   2.493  0.0796  0.2481  0.1206
 4330TIP3    H134549   0.599   4.724   2.567 -0.6198 -0.7127 -0.6312
 4330TIP3    H234550   0.642   4.670   2.433  2.1237 -0.0425 -0.0890
 4331TIP3   OH234551   3.095   4.347   7.275  0.0398  0.0092 -0.0709
 4331TIP3    H134552   3.020   4.305   7.233 -0.9367  1.5590  0.0202
 4331TIP3    H234553   3.128   4.282   7.336  1.1131 -2.1050 -2.6956
 4332TIP3   OH234554   4.607   3.229   8.091  0.2918  0.2756  0.0303
 4332TIP3    H134555   4.555   3.150   8.077  1.2237 -0.6203  1.3467
 4332TIP3    H234556   4.566   3.295   8.035 -0.9807 -0.9251 -0.5203
 4333TIP3   OH234557   3.762   3.049   6.774 -0.0883  0.1048 -0.3209
 4333TIP3    H134558   3.691   2.985   6.779 -0.3972  0.3652 -1.1472
 4333TIP3    H234559   3.729   3.117   6.715 -0.4732  1.9565  1.9108
 4334TIP3   OH234560   0.450   4.950   7.453  0.3181 -0.7189  0.4842
 4334TIP3    H134561   0.512   4.994   7.394 -1.0055  0.0617 -0.3689
 4334TIP3    H234562   0.412   4.880   7.399  0.1207 -0.9036  0.8592
 4335TIP3   OH234563   1.843   1.364   8.434 -0.8009 -0.1236 -0.2571
 4335TIP3    H134564   1.805   1.430   8.492 -0.2971  0.8149 -0.9696
 4335TIP3    H234565   1.868   1.413   8.355  0.1744 -1.0449 -0.5427
 4336TIP3   OH234566   4.834   6.006   0.305 -0.5401 -0.0166  0.0394
 4336TIP3    H134567   4.893   5.933   0.323  1.2242  0.8186 -1.9569
 4336TIP3    H234568   4.882   6.084   0.334 -1.4882  0.5663  0.1183
 4337TIP3   OH234569   1.589   4.581   8.589 -0.0441  0.3599  0.0326
 4337TIP3    H134570   1.607   4.492   8.558 -0.6949  0.1906  0.1328
 4337TIP3    H234571   1.494   4.583   8.602 -0.0384  1.0829 -0.0114
 4338TIP3   OH234572   0.061   2.904   7.861  0.1281  0.3162  0.3484
 4338TIP3    H134573   0.103   2.843   7.922  0.7583  0.6950  0.3040
 4338TIP3    H234574   0.121   2.908   7.787  0.9816  2.3049  1.0916
 4339TIP3   OH234575   3.857   6.480   8.462 -0.0537  0.1988 -0.6345
 4339TIP3    H134576   3.907   6.557   8.434  0.1015  0.8088  1.1815
 4339TIP3    H234577   3.924   6.412   8.474  0.0783  0.3694 -0.3670
 4340TIP3   OH234578   0.962   5.320   2.066 -0.5400  0.3555  0.2660
 4340TIP3    H134579   0.867   5.312   2.058 -0.6412  1.4381  0.2075
 4340TIP3    H234580   0.987   5.384   1.999 -0.1824  2.2999  2.1277
 4341TIP3   OH234581   0.618   2.680   1.746  0.0224 -0.1413  0.7433
 4341TIP3    H134582   0.606   2.770   1.776 -0.8686 -0.0578  0.1646
 4341TIP3    H234583   0.672   2.639   1.814 -1.7342  0.0992  2.3580
 4342TIP3   OH234584   6.651   5.648   0.833 -0.0319 -0.0931  0.2596
 4342TIP3    H134585   6.666   5.703   0.757  0.0926  1.1653  1.1686
 4342TIP3    H234586   6.738   5.636   0.872 -0.2357  0.2463  0.8398
 4343TIP3   OH234587   1.450   4.164   0.199 -0.0919 -0.5244 -1.2664
 4343TIP3    H134588   1.406   4.181   0.115  2.1886 -2.6828 -3.0484
 4343TIP3    H234589   1.542   4.152   0.176  1.1035  1.2395  1.9608
 4344TIP3   OH234590   4.537   0.728   6.981  0.1490 -0.4142  0.3088
 4344TIP3    H134591   4.499   0.714   7.068 -0.6828  1.4371  0.2988
 4344TIP3    H234592   4.602   0.658   6.971 -1.8446 -2.4896  1.1432
 4345TIP3   OH234593   5.483   0.593   7.140 -0.2524 -0.1171  0.2453
 4345TIP3    H134594   5.433   0.609   7.061 -0.3375  0.3454  0.3948
 4345TIP3    H234595   5.473   0.672   7.193  1.9272  0.6706 -0.4016
 4346TIP3   OH234596   2.359   3.646   0.815 -0.5931  0.6443 -0.0213
 4346TIP3    H134597   2.419   3.694   0.871  0.2965  2.7839 -2.5653
 4346TIP3    H234598   2.286   3.622   0.872 -0.0623  3.1913  1.9205
 4347TIP3   OH234599   4.638   3.584   0.447  0.7275 -0.2112 -0.1717
 4347TIP3    H134600   4.708   3.612   0.389  1.7105  0.2539  1.1988
 4347TIP3    H234601   4.572   3.546   0.389  0.8130  1.9526 -1.7700
 4348TIP3   OH234602   1.614   0.456   0.263  0.1745 -0.0294 -0.5825
 4348TIP3    H134603   1.595   0.475   0.355 -2.3422 -1.3873 -0.7538
 4348TIP3    H234604   1.548   0.505   0.214  0.7592 -0.2453 -1.6160
 4349TIP3   OH234605   0.608   4.187   7.216  0.0861  0.6740 -0.1086
 4349TIP3    H134606   0.585   4.272   7.252 -0.2291  0.5686 -0.0602
 4349TIP3    H234607   0.600   4.197   7.121  2.4108  1.4056 -0.2879
 4350TIP3   OH234608   0.301   6.133   7.990  0.0103  0.2052 -0.6606
 4350TIP3    H134609   0.308   6.055   8.045 -0.3846 -0.5553 -1.6729
 4350TIP3    H234610   0.357   6.198   8.034 -0.1253 -0.4491  0.5104
 4351TIP3   OH234611   4.066   2.323   8.225 -0.2753 -0.1322 -0.0852
 4351TIP3    H134612   4.104   2.236   8.236 -1.5393 -0.6227  0.6452
 4351TIP3    H234613   4.141   2.380   8.211  0.5090 -1.4955 -1.7342
 4352TIP3   OH234614   2.295   0.894   8.066  0.0309  0.1294 -0.2787
 4352TIP3    H134615   2.289   0.989   8.077  0.0831  0.3291 -1.7719
 4352TIP3    H234616   2.234   0.874   7.996 -1.4901 -1.2615  1.3478
 4353TIP3   OH234617   3.117   5.348   8.497 -0.0809 -0.6495 -0.4914
 4353TIP3    H134618   3.028   5.313   8.490 -0.5763  0.6454 -1.0133
 4353TIP3    H234619   3.162   5.286   8.553 -1.7820 -0.4730  1.1813
 4354TIP3   OH234620   4.179   2.954   7.617  0.1573  1.0155  0.8461
 4354TIP3    H134621   4.161   2.897   7.543 -0.7326  1.4269  0.7313
 4354TIP3    H234622   4.239   2.904   7.672  1.3300  0.9418 -0.4353
 4355TIP3   OH234623   5.038   0.755   7.149  0.4161  0.3778 -0.1195
 4355TIP3    H134624   5.049   0.842   7.188  2.1359  1.4685 -2.7335
 4355TIP3    H234625   5.127   0.719   7.146  0.1652 -0.1811 -1.7763
 4356TIP3   OH234626   5.026   0.322   8.431  0.1085 -0.6248 -0.1575
 4356TIP3    H134627   4.963   0.315   8.360  0.8606  1.2983 -1.0956
 4356TIP3    H234628   5.079   0.243   8.425 -0.4325 -0.9227 -1.1484
 4357TIP3   OH234629   0.201   2.949   8.110 -0.2911  0.1138  0.4231
 4357TIP3    H134630   0.120   2.996   8.091 -0.4551 -0.3014  0.0623
 4357TIP3    H234631   0.247   3.004   8.174 -1.1926  0.0023  1.1951
 4358TIP3   OH234632   0.161   3.344   1.315 -0.0937  0.3284  0.2101
 4358TIP3    H134633   0.210   3.334   1.234 -1.2708  0.9770 -0.6252
 4358TIP3    H234634   0.074   3.373   1.287 -1.2592 -1.6374  1.5599
 4359TIP3   OH234635   0.139   3.715   8.439  0.1616 -0.0436  0.9505
 4359TIP3    H134636   0.147   3.810   8.436  1.7627 -0.1645  0.4365
 4359TIP3    H234637   0.062   3.695   8.386  0.7904  0.8639 -0.3418
 4360TIP3   OH234638   1.267   4.089   1.590 -0.8064  0.2583  0.1102
 4360TIP3    H134639   1.227   4.007   1.619  1.1682 -1.5631 -1.8940
 4360TIP3    H234640   1.215   4.117   1.516  0.1183 -0.7756 -0.9642
 4361TIP3   OH234641   1.215   1.783   7.141 -0.1361  0.1520 -0.1935
 4361TIP3    H134642   1.201   1.868   7.100  2.1948  0.6289 -0.1315
 4361TIP3    H234643   1.278   1.800   7.211 -0.8576 -1.3744  0.8974
 4362TIP3   OH234644   0.291   0.310   1.297 -0.3795  0.1656 -0.0862
 4362TIP3    H134645   0.203   0.323   1.262 -1.5374  0.4165  2.6572
 4362TIP3    H234646   0.291   0.358   1.380  2.9226  1.5632 -0.7223
 4363TIP3   OH234647   2.164   5.927   7.518 -0.7813 -1.1690 -0.8353
 4363TIP3    H134648   2.227   5.926   7.590 -2.2976 -1.5898  0.5402
 4363TIP3    H234649   2.193   5.858   7.459 -0.4021 -1.8856  0.1790
 4364TIP3   OH234650   6.322   4.422   1.175  0.2505  0.2124  0.0764
 4364TIP3    H134651   6.265   4.498   1.182  1.4630  1.1223  0.4556
 4364TIP3    H234652   6.336   4.411   1.080 -0.2014  0.2268  0.0038
 4365TIP3   OH234653   3.928   6.897   8.271  0.1919 -0.1743 -0.5650
 4365TIP3    H134654   4.019   6.927   8.267  0.0186  0.4304 -0.0691
 4365TIP3    H234655   3.932   6.806   8.241  1.1908 -0.6506  0.8566
 4366TIP3   OH234656   6.520   1.505   7.045 -0.0338  0.0001  0.1405
 4366TIP3    H134657   6.597   1.450   7.059 -0.7510 -0.7012  1.5435
 4366TIP3    H234658   6.446   1.445   7.053 -0.8609  1.2045  2.1514
 4367TIP3   OH234659   3.090   6.058   2.771 -0.4206 -0.2299  0.4960
 4367TIP3    H134660   3.074   6.021   2.685 -2.9324 -1.7599  1.4950
 4367TIP3    H234661   3.126   5.985   2.822 -0.3530  0.2311  1.1210
 4368TIP3   OH234662   4.412   5.694   7.808  0.5782  0.6857  0.5844
 4368TIP3    H134663   4.324   5.721   7.834  0.3212  1.9403 -1.3619
 4368TIP3    H234664   4.470   5.756   7.852  0.3309  1.1822  0.2225
 4369TIP3   OH234665   0.666   0.090   1.349  0.2735 -0.1829  0.6438
 4369TIP3    H134666   0.634   0.059   1.434 -0.8841  1.9131  1.0254
 4369TIP3    H234667   0.587   0.097   1.295  0.8619 -0.4589 -0.2729
 4370TIP3   OH234668   1.581   5.623   8.311 -0.0716 -0.0546  0.3307
 4370TIP3    H134669   1.622   5.600   8.228 -1.5597  0.9290 -0.7174
 4370TIP3    H234670   1.490   5.594   8.302 -0.2708  0.1000  1.6119
 4371TIP3   OH234671   2.445   3.938   6.754 -0.6197 -0.5963  0.1713
 4371TIP3    H134672   2.442   3.871   6.685 -0.3985  1.2946 -1.7881
 4371TIP3    H234673   2.532   3.977   6.746 -0.4709 -0.5370  1.7720
 4372TIP3   OH234674   3.010   3.728   6.959  0.3502  0.8202  0.0119
 4372TIP3    H134675   3.092   3.689   6.989 -0.3225  0.4631  1.5099
 4372TIP3    H234676   3.031   3.821   6.946  1.3027  0.4848 -0.9655
 4373TIP3   OH234677   2.226   0.802   2.296 -0.0712 -0.1307  0.1103
 4373TIP3    H134678   2.262   0.736   2.355 -0.2384 -0.1662  0.1727
 4373TIP3    H234679   2.256   0.886   2.332 -1.2309 -0.0657  0.9896
 4374TIP3   OH234680   3.846   3.989   1.081  0.0570 -0.7179  0.2029
 4374TIP3    H134681   3.763   3.954   1.048 -0.6759  1.1106 -0.0179
 4374TIP3    H234682   3.906   3.982   1.007 -1.6259  3.5399 -1.8955
 4375TIP3   OH234683   4.386   4.330   1.243 -0.5452  0.4011 -0.0279
 4375TIP3    H134684   4.445   4.255   1.249 -1.9639 -0.7457  0.0671
 4375TIP3    H234685   4.411   4.375   1.163 -0.3180 -0.7435 -0.6077
 4376TIP3   OH234686   6.160   4.233   1.848  0.1600 -0.2325  0.5841
 4376TIP3    H134687   6.168   4.140   1.826  1.1064 -0.6270  2.4818
 4376TIP3    H234688   6.093   4.236   1.916  0.8441  0.3531  1.2410
 4377TIP3   OH234689   3.126   1.853   0.673 -0.4528 -0.3633 -0.4125
 4377TIP3    H134690   3.073   1.860   0.752 -1.6894  0.1257 -1.2597
 4377TIP3    H234691   3.216   1.848   0.705 -0.9912 -1.4077  1.0756
 4378TIP3   OH234692   0.916   5.542   1.743 -0.1133 -0.2687  0.5876
 4378TIP3    H134693   0.865   5.461   1.748 -3.5178  1.2482 -3.4759
 4378TIP3    H234694   0.892   5.591   1.822 -2.1864 -1.1365  0.5490
 4379TIP3   OH234695   2.461   5.608   7.985  0.4060  0.4017  0.0689
 4379TIP3    H134696   2.468   5.683   8.044  2.9712 -0.1670  0.6247
 4379TIP3    H234697   2.450   5.533   8.043  0.2375  0.1055 -0.3426
 4380TIP3   OH234698   0.128   0.951   0.522 -1.0166  0.6639 -0.0817
 4380TIP3    H134699   0.080   0.934   0.603 -3.8492  1.5957 -1.4551
 4380TIP3    H234700   0.178   1.031   0.541 -2.8650  1.7904  0.3264
 4381TIP3   OH234701   3.326   4.047   1.111 -0.0941  0.4894 -0.4684
 4381TIP3    H134702   3.408   4.022   1.153  2.2515  2.4005 -3.4213
 4381TIP3    H234703   3.280   3.964   1.096  1.3242 -0.6592  1.1321
 4382TIP3   OH234704   3.540   3.710   1.935  0.4016 -0.0290 -0.0845
 4382TIP3    H134705   3.491   3.728   1.854  1.6426  0.4556 -0.7484
 4382TIP3    H234706   3.629   3.737   1.916  1.1661 -1.7500  0.7702
 4383TIP3   OH234707   3.025   2.222   8.325  0.2031  0.3271  0.9167
 4383TIP3    H134708   3.066   2.161   8.264 -1.3608  0.3596 -0.2065
 4383TIP3    H234709   3.017   2.173   8.407  1.2223 -0.1168  0.7612
 4384TIP3   OH234710   0.692   3.936   1.493 -0.3443 -0.3034 -0.3429
 4384TIP3    H134711   0.728   3.962   1.578  1.2131 -1.1683 -0.7029
 4384TIP3    H234712   0.638   3.860   1.512  1.5568 -1.7296 -0.3144
 4385TIP3   OH234713   0.576   1.860   1.339  0.0788  0.0288  0.1816
 4385TIP3    H134714   0.635   1.922   1.296  0.9237 -1.8578 -1.5241
 4385TIP3    H234715   0.499   1.858   1.282  0.1872 -0.7041  0.0576
 4386TIP3   OH234716   0.174   3.655   0.108 -0.1849  0.4006 -1.1001
 4386TIP3    H134717   0.098   3.711   0.101  0.4701  1.7036  1.1038
 4386TIP3    H234718   0.159   3.585   0.045 -2.3727  1.5224 -1.9071
 4387TIP3   OH234719   1.461   0.676   1.857 -0.2731 -0.0831  0.1957
 4387TIP3    H134720   1.494   0.669   1.947 -1.1173 -0.9221  0.4437
 4387TIP3    H234721   1.413   0.595   1.842 -0.3522  0.1582 -0.9390
 4388TIP3   OH234722   1.195   0.307   8.503 -0.6005 -0.8064  0.1209
 4388TIP3    H134723   1.113   0.338   8.467 -3.3460 -4.0091  2.8858
 4388TIP3    H234724   1.228   0.244   8.439 -1.6303 -1.3000  0.0717
 4389TIP3   OH234725   0.799   3.652   0.243  0.7238  0.0133  0.1529
 4389TIP3    H134726   0.886   3.673   0.279  0.8822  1.2338 -0.8703
 4389TIP3    H234727   0.763   3.737   0.217  1.2010 -0.8114 -3.8282
 4390TIP3   OH234728   0.889   4.381   8.574  0.5228  0.2792  0.3370
 4390TIP3    H134729   0.833   4.359   8.648 -0.3283  1.0099 -0.0797
 4390TIP3    H234730   0.938   4.301   8.557  0.8622  0.1444  1.7921
 4391TIP3   OH234731   4.360   3.869   7.585 -0.1436 -0.5886 -0.2489
 4391TIP3    H134732   4.282   3.890   7.534  1.0161 -1.5356 -2.5872
 4391TIP3    H234733   4.333   3.796   7.641 -1.2053 -0.1901 -0.2204
 4392TIP3   OH234734   2.666   1.127   2.270  0.1582 -0.5005 -0.4028
 4392TIP3    H134735   2.606   1.090   2.204 -1.3225  0.9967  0.0320
 4392TIP3    H234736   2.724   1.184   2.220  0.9164 -1.5519 -0.7575
 4393TIP3   OH234737   5.796   1.905   6.937  0.3380  0.3740 -0.7018
 4393TIP3    H134738   5.840   1.883   6.855 -0.8416  0.6902 -1.4319
 4393TIP3    H234739   5.798   2.001   6.940 -0.1914  0.3875 -0.6895
 4394TIP3   OH234740   3.993   5.409   1.010  0.0504 -0.3051  0.0589
 4394TIP3    H134741   3.959   5.405   0.921  1.9158  0.0228 -0.7236
 4394TIP3    H234742   4.001   5.502   1.029  1.3712 -0.3398 -0.1833
 4395TIP3   OH234743   5.477   2.886   8.279 -0.3564  0.9830  0.1836
 4395TIP3    H134744   5.418   2.959   8.300  0.3566  1.1297  1.9287
 4395TIP3    H234745   5.459   2.821   8.346  0.4812  0.4481 -0.0961
 4396TIP3   OH234746   4.343   1.476   8.190  0.0061  0.1676 -1.0993
 4396TIP3    H134747   4.251   1.500   8.197  0.1158  0.2183  0.7435
 4396TIP3    H234748   4.343   1.380   8.191  0.0373  0.1594  0.7180
 4397TIP3   OH234749   4.677   3.173   0.937 -0.0600  0.6168 -0.4194
 4397TIP3    H134750   4.605   3.122   0.973 -0.4040  0.9388 -0.6446
 4397TIP3    H234751   4.684   3.248   0.996  0.7476  0.0863  0.1824
 4398TIP3   OH234752   6.017   6.154   0.682  0.6225  0.4358  0.0612
 4398TIP3    H134753   5.938   6.174   0.631  1.0451  1.5056 -0.2106
 4398TIP3    H234754   5.984   6.130   0.768 -0.1116 -1.4585 -0.6809
 4399TIP3   OH234755   4.378   4.997   7.380  0.4412  0.2740 -0.6944
 4399TIP3    H134756   4.391   4.995   7.285 -1.5625  0.6380 -1.0281
 4399TIP3    H234757   4.344   5.085   7.397 -0.1648 -0.1154  0.1995
 4400TIP3   OH234758   2.935   0.929   7.448 -0.1201 -0.1243  0.5884
 4400TIP3    H134759   2.960   0.889   7.365 -0.0170  0.6441  0.2348
 4400TIP3    H234760   2.897   1.013   7.423  0.8216  0.5578  1.3685
 4401TIP3   OH234761   5.474   4.142   1.935 -0.2454 -0.1120  0.2929
 4401TIP3    H134762   5.570   4.148   1.939 -0.2150 -1.1045  1.7214
 4401TIP3    H234763   5.444   4.230   1.955  0.3515  0.4662 -1.1761
 4402TIP3   OH234764   1.477   2.729   0.833 -0.1904 -0.7534 -0.7003
 4402TIP3    H134765   1.424   2.735   0.912 -0.1717 -2.0995 -0.5620
 4402TIP3    H234766   1.433   2.663   0.780  0.7530 -1.1044 -1.0574
 4403TIP3   OH234767   0.634   2.477   2.220  0.1002 -0.5617  0.3459
 4403TIP3    H134768   0.552   2.521   2.243 -1.8979 -1.3720 -4.1250
 4403TIP3    H234769   0.610   2.385   2.211  2.6606 -1.6589  2.9539
 4404TIP3   OH234770   1.532   5.349   1.782 -0.5077  0.6215 -0.2616
 4404TIP3    H134771   1.491   5.375   1.864 -0.6407  1.6214 -0.6396
 4404TIP3    H234772   1.512   5.420   1.721  2.3840  1.5422 -0.2728
 4405TIP3   OH234773   6.684   6.376   0.184 -1.0169  0.3325  0.1874
 4405TIP3    H134774   6.631   6.297   0.195 -2.6177  1.3906  0.2476
 4405TIP3    H234775   6.678   6.421   0.268  1.6372 -0.4695  0.8946
 4406TIP3   OH234776   2.621   2.051   8.118  0.1889 -0.0149  0.2937
 4406TIP3    H134777   2.687   2.114   8.087 -0.0661 -0.0854 -0.4079
 4406TIP3    H234778   2.665   1.966   8.112  0.7513  0.1464  1.8457
 4407TIP3   OH234779   5.954   5.101   8.140 -0.3011 -0.2906 -0.2654
 4407TIP3    H134780   5.881   5.083   8.199  0.4105  0.8068  1.0224
 4407TIP3    H234781   5.923   5.172   8.084 -0.2152  0.1958  0.3000
 4408TIP3   OH234782   4.205   2.656   0.885 -0.0977  0.4725  0.3712
 4408TIP3    H134783   4.227   2.722   0.951 -1.1171  1.4920 -0.2673
 4408TIP3    H234784   4.260   2.581   0.907 -0.8533  0.5532  2.7460
 4409TIP3   OH234785   6.659   5.412   8.570  0.0076  0.0495 -0.1105
 4409TIP3    H134786   6.693   5.328   8.537 -2.2797 -0.6639 -0.8538
 4409TIP3    H234787   6.648   5.466   8.492 -1.1996 -0.0155 -0.0037
 4410TIP3   OH234788   3.485   5.203   1.855  0.5345 -0.4116 -0.7164
 4410TIP3    H134789   3.434   5.226   1.933  2.4985 -1.6214  1.0384
 4410TIP3    H234790   3.424   5.152   1.801 -1.4025  1.9139 -0.8733
 4411TIP3   OH234791   0.107   6.707   0.179  0.1953  0.0022 -0.2476
 4411TIP3    H134792   0.177   6.684   0.118 -0.3095 -1.5411 -0.2741
 4411TIP3    H234793   0.083   6.625   0.222 -2.2499  0.2460 -0.9419
 4412TIP3   OH234794   0.056   1.489   6.914  0.0392 -0.4943  0.1462
 4412TIP3    H134795  -0.014   1.429   6.891 -0.3845 -0.3959  1.1172
 4412TIP3    H234796   0.047   1.562   6.853 -1.3332 -0.0159  0.8918
 4413TIP3   OH234797   0.141   5.136   2.041  0.4669  0.2340  0.0894
 4413TIP3    H134798   0.057   5.111   2.004  1.1644 -0.2466 -1.2590
 4413TIP3    H234799   0.146   5.231   2.028  0.5220  0.1303 -0.7078
 4414TIP3   OH234800   0.646   0.877   1.226  0.0715 -0.1801 -0.3369
 4414TIP3    H134801   0.739   0.874   1.203  0.1519 -0.8732  0.0486
 4414TIP3    H234802   0.646   0.899   1.320 -0.1991  1.1534 -0.6337
 4415TIP3   OH234803   6.554   1.935   7.374  0.1006  0.3521  0.1260
 4415TIP3    H134804   6.542   1.848   7.336 -1.0647  0.7920 -0.5543
 4415TIP3    H234805   6.469   1.957   7.412  0.6583  0.8102  1.1417
 4416TIP3   OH234806   3.753   6.681   6.931  0.3645  0.3655  0.4351
 4416TIP3    H134807   3.808   6.660   6.855  0.8036 -1.0083  1.0995
 4416TIP3    H234808   3.809   6.732   6.988  0.1809  0.9971  0.0646
 4417TIP3   OH234809   4.610   0.701   0.169  0.4088 -0.3003 -0.1161
 4417TIP3    H134810   4.644   0.789   0.158  0.7390 -0.2315  1.2629
 4417TIP3    H234811   4.687   0.646   0.182  0.1588 -0.6019  0.1382
 4418TIP3   OH234812   0.797   1.123   7.119 -0.0128  0.1086 -0.1760
 4418TIP3    H134813   0.805   1.113   7.214  1.1078  0.6957 -0.1959
 4418TIP3    H234814   0.709   1.161   7.107  0.1600  0.8112  0.6909
 4419TIP3   OH234815   1.057   6.225   6.785  0.3451 -0.6242 -0.2761
 4419TIP3    H134816   1.002   6.173   6.844 -0.5427 -0.0118 -0.5331
 4419TIP3    H234817   1.136   6.173   6.774 -0.5165 -1.9392 -0.5358
 4420TIP3   OH234818   4.336   3.954   1.902 -0.0014 -0.3446 -0.1226
 4420TIP3    H134819   4.416   4.006   1.909  1.5361 -2.6468  0.6518
 4420TIP3    H234820   4.315   3.931   1.992 -1.3512 -0.0940 -0.3552
 4421TIP3   OH234821   2.663   0.732   0.448 -0.2640 -0.1438 -0.1921
 4421TIP3    H134822   2.604   0.670   0.491  0.0041 -0.9901 -1.0063
 4421TIP3    H234823   2.745   0.684   0.437 -0.2017  0.1811 -1.2734
 4422TIP3   OH234824   2.388   4.188   0.711  0.3289  0.1795 -0.3220
 4422TIP3    H134825   2.479   4.216   0.714  0.1551  0.9948 -1.8086
 4422TIP3    H234826   2.392   4.093   0.704  1.0390  0.1620  0.2430
 4423TIP3   OH234827   3.097   4.111   1.570  0.7144 -0.7402 -0.1080
 4423TIP3    H134828   3.057   4.053   1.636  1.9797 -0.6944  0.7331
 4423TIP3    H234829   3.029   4.176   1.551  0.5972 -0.2338  1.8161
 4424TIP3   OH234830   4.657   5.982   0.854 -0.2994  0.1649 -0.3902
 4424TIP3    H134831   4.646   6.074   0.831  0.8425  0.8184  1.4523
 4424TIP3    H234832   4.722   5.949   0.792  2.6750  1.8656  1.5434
 4425TIP3   OH234833   0.157   4.191   1.733 -0.0194 -0.0926 -1.2746
 4425TIP3    H134834   0.240   4.228   1.704 -0.1755 -0.1904 -1.8578
 4425TIP3    H234835   0.178   4.143   1.813  0.4786 -0.1018 -1.4128
 4426TIP3   OH234836   2.440   3.278   7.626 -0.5096 -0.3368  0.2267
 4426TIP3    H134837   2.361   3.327   7.649 -0.2150 -0.0336  0.6149
 4426TIP3    H234838   2.449   3.212   7.695  0.9217  1.2056  1.6081
 4427TIP3   OH234839   1.450   0.926   7.593 -0.2696 -0.3246  0.2304
 4427TIP3    H134840   1.422   1.013   7.622 -2.7205 -1.0469  0.2527
 4427TIP3    H234841   1.538   0.916   7.629 -0.4979  1.5887  1.4513
 4428TIP3   OH234842   1.711   5.189   1.236 -0.7237 -0.2025 -0.0509
 4428TIP3    H134843   1.691   5.250   1.307 -0.0530  0.8645 -0.7480
 4428TIP3    H234844   1.806   5.179   1.240 -0.6563  0.0286 -0.9193
 4429TIP3   OH234845   1.693   2.759   6.635 -0.2920  0.3638 -0.7268
 4429TIP3    H134846   1.679   2.853   6.638 -1.2873  0.2124  1.1124
 4429TIP3    H234847   1.765   2.743   6.696 -0.4981 -0.1174 -0.6028
 4430TIP3   OH234848   6.756   0.553   0.618  0.2465  0.6307  0.0423
 4430TIP3    H134849   6.839   0.592   0.591  0.6761  0.1409  0.6263
 4430TIP3    H234850   6.703   0.552   0.539  1.4337 -0.6952 -0.7745
 4431TIP3   OH234851   0.231   4.764   8.400 -0.3224 -0.1870  0.2529
 4431TIP3    H134852   0.323   4.742   8.389 -0.4341 -0.9050  0.6799
 4431TIP3    H234853   0.193   4.756   8.313  0.2356  1.2259 -0.1487
 4432TIP3   OH234854   3.124   4.590   1.943  0.2235 -1.0137 -0.2991
 4432TIP3    H134855   3.193   4.537   1.982 -1.2156 -0.9595  2.5385
 4432TIP3    H234856   3.068   4.528   1.897  0.1359 -1.5521  0.5313
 4433TIP3   OH234857   1.976   4.129   8.158 -0.6300 -0.8548 -0.5469
 4433TIP3    H134858   1.969   4.046   8.205 -0.7663 -0.5719 -0.0613
 4433TIP3    H234859   1.948   4.196   8.222  1.4157 -0.2169 -0.2564
 4434TIP3   OH234860   2.789   1.826   6.474 -0.1228  0.2525  0.2430
 4434TIP3    H134861   2.724   1.895   6.470 -2.1619 -1.5748  0.0137
 4434TIP3    H234862   2.741   1.746   6.454  2.5782 -1.0002 -1.9845
 4435TIP3   OH234863   6.109   1.179   6.830  0.1164  0.2323 -0.2195
 4435TIP3    H134864   6.112   1.107   6.767 -1.0300  0.6037 -0.7348
 4435TIP3    H234865   6.061   1.249   6.785  1.8464  1.6216 -0.0088
 4436TIP3   OH234866   3.494   1.617   6.962 -0.8904 -0.5921  0.2886
 4436TIP3    H134867   3.493   1.544   6.900  1.8160 -1.6697  1.3505
 4436TIP3    H234868   3.433   1.591   7.031 -1.0974 -1.1328 -0.0920
 4437TIP3   OH234869   3.697   4.745   1.065  0.1982  0.5507  0.0276
 4437TIP3    H134870   3.735   4.657   1.056 -1.1391 -0.3863  2.5038
 4437TIP3    H234871   3.772   4.801   1.085  0.7164 -0.6512  1.6446
 4438TIP3   OH234872   0.828   0.992   0.362  0.2881  0.1515 -0.4303
 4438TIP3    H134873   0.781   0.974   0.443 -1.1555  1.1613 -0.9891
 4438TIP3    H234874   0.829   1.088   0.356  0.7664  0.0973 -1.3682
 4439TIP3   OH234875   3.224   1.609   6.509  0.0331 -0.2774 -0.1572
 4439TIP3    H134876   3.302   1.559   6.485 -0.1512 -0.1147 -1.1179
 4439TIP3    H234877   3.191   1.565   6.587 -0.0444 -1.5725 -0.8881
 4440TIP3   OH234878   3.394   4.156   7.297  0.9907  0.2156 -0.2897
 4440TIP3    H134879   3.430   4.077   7.256  0.7460 -0.2606  0.3932
 4440TIP3    H234880   3.456   4.225   7.274  1.3581 -0.2309 -0.6642
 4441TIP3   OH234881   6.576   3.708   0.811  0.4509  0.2311 -0.3630
 4441TIP3    H134882   6.658   3.661   0.817  1.9051  2.4400 -1.4751
 4441TIP3    H234883   6.576   3.766   0.888  0.6436  1.2205 -1.0867
 4442TIP3   OH234884   4.051   3.942   8.368  0.2917 -0.1298 -0.5929
 4442TIP3    H134885   4.133   3.893   8.366  0.4641  0.0728  0.7659
 4442TIP3    H234886   4.058   3.997   8.445 -1.8591 -1.4170  0.6245
 4443TIP3   OH234887   6.546   0.360   8.031  0.2026  0.6642 -0.1527
 4443TIP3    H134888   6.455   0.378   8.007  0.3218  0.0205 -1.1468
 4443TIP3    H234889   6.591   0.349   7.947  1.0316  0.1673  0.3473
 4444TIP3   OH234890   4.631   0.987   6.930  0.4343  0.2139  0.7169
 4444TIP3    H134891   4.622   1.055   6.997 -0.1145 -0.3749  1.2450
 4444TIP3    H234892   4.606   0.906   6.974 -0.2301 -0.1372 -0.2831
 4445TIP3   OH234893   1.897   3.112   7.228  0.3926 -0.2188  0.0247
 4445TIP3    H134894   1.956   3.183   7.252  0.4502 -0.7801  1.6824
 4445TIP3    H234895   1.823   3.121   7.288  0.5318 -1.6991  0.4639
 4446TIP3   OH234896   6.365   3.878   0.375  0.1544  0.1936  0.0240
 4446TIP3    H134897   6.417   3.922   0.442  0.0841 -0.1086  0.2788
 4446TIP3    H234898   6.426   3.863   0.303  0.2972  0.2795  0.1266
 4447TIP3   OH234899   4.539   4.635   1.039  0.0436 -0.5681 -0.4816
 4447TIP3    H134900   4.566   4.714   1.086 -0.5890  0.0412 -1.1155
 4447TIP3    H234901   4.470   4.665   0.980  0.9333 -1.2679 -1.9250
 4448TIP3   OH234902   2.465   4.122   6.455  0.1183 -0.0868  0.6247
 4448TIP3    H134903   2.511   4.183   6.513 -0.9099 -1.1550  2.6939
 4448TIP3    H234904   2.530   4.056   6.432  0.8371  0.9484 -0.4068
 4449TIP3   OH234905   4.423   1.625   7.880  0.1272 -0.4251  0.3165
 4449TIP3    H134906   4.478   1.565   7.931 -0.9674 -0.1930  1.8260
 4449TIP3    H234907   4.368   1.567   7.826  0.8750 -0.6894 -0.1761
 4450TIP3   OH234908   2.024   0.816   1.607 -0.5934 -0.5177  0.0780
 4450TIP3    H134909   2.098   0.830   1.548 -0.2931 -3.6189 -0.4612
 4450TIP3    H234910   2.050   0.859   1.688  1.5323 -0.9265 -0.3164
 4451TIP3   OH234911   4.847   0.255   7.457  0.3677 -0.2484 -0.0161
 4451TIP3    H134912   4.851   0.243   7.551 -1.4400  2.8948  0.6114
 4451TIP3    H234913   4.756   0.237   7.433  0.8566 -1.2741 -1.2576
 4452TIP3   OH234914   1.964   0.359   8.472 -0.0440  0.3060  0.3093
 4452TIP3    H134915   2.027   0.369   8.401 -0.7257  1.1975 -0.1831
 4452TIP3    H234916   1.993   0.421   8.539  0.9742 -0.9879  1.1181
 4453TIP3   OH234917   5.671   0.918   6.697  0.3993 -0.1699  0.4354
 4453TIP3    H134918   5.613   0.942   6.770  0.6866  0.3371  0.5022
 4453TIP3    H234919   5.706   1.002   6.666  2.4418 -0.5632  1.4913
 4454TIP3   OH234920   2.500   4.404   1.869  0.5853 -0.3076 -0.1106
 4454TIP3    H134921   2.546   4.456   1.935  0.1020 -0.1718  0.1210
 4454TIP3    H234922   2.526   4.314   1.888  0.9531 -0.2091 -0.1373
 4455TIP3   OH234923   5.650   0.484   7.984  0.0616  0.0979 -0.3213
 4455TIP3    H134924   5.710   0.523   7.920  0.9522  0.3204  0.6198
 4455TIP3    H234925   5.694   0.495   8.068 -1.9852  1.6697  0.6379
 4456TIP3   OH234926   5.791   6.318   7.372 -0.1604 -0.7266  0.5037
 4456TIP3    H134927   5.804   6.231   7.409 -1.5436 -1.1572  0.0348
 4456TIP3    H234928   5.806   6.307   7.278  0.0989 -0.3560  0.4996
 4457TIP3   OH234929   0.648   0.187   1.023 -0.3210 -0.2004  0.1126
 4457TIP3    H134930   0.575   0.180   1.084 -0.5689  1.7715  0.1047
 4457TIP3    H234931   0.722   0.212   1.077 -0.1951  0.0993 -0.1952
 4458TIP3   OH234932   1.205   0.562   0.053 -0.6072 -0.2746  0.2702
 4458TIP3    H134933   1.177   0.618  -0.019  1.3851  1.3174  0.6317
 4458TIP3    H234934   1.246   0.487   0.011 -1.2930 -0.3739 -0.2360
 4459TIP3   OH234935   3.392   5.403   7.300  0.0822  0.3443  0.5174
 4459TIP3    H134936   3.298   5.414   7.288 -0.1357 -0.9611  0.9199
 4459TIP3    H234937   3.401   5.366   7.388  1.0493  1.4173  0.8896
 4460TIP3   OH234938   5.552   5.587   1.633  0.0452 -0.3144 -0.1765
 4460TIP3    H134939   5.504   5.663   1.666 -1.2810 -1.4052  0.5342
 4460TIP3    H234940   5.609   5.562   1.705  0.4954 -0.0040 -0.4174
 4461TIP3   OH234941   6.609   3.412   0.962 -0.0388 -0.1797  0.0889
 4461TIP3    H134942   6.566   3.486   1.005  0.9031  0.9139 -0.7835
 4461TIP3    H234943   6.701   3.438   0.957  0.3776 -1.5612  0.0429
 4462TIP3   OH234944   5.643   4.031   0.584 -0.4612  0.2291  0.0422
 4462TIP3    H134945   5.717   4.092   0.593 -0.7928  0.9372 -1.6607
 4462TIP3    H234946   5.650   3.974   0.660  1.0154  1.1698  0.6601
 4463TIP3   OH234947   5.457   4.946   1.736  0.3396 -0.2824  0.4061
 4463TIP3    H134948   5.512   4.947   1.814  1.1751 -2.6435 -0.0623
 4463TIP3    H234949   5.515   4.975   1.666  0.6694 -1.5230  0.1322
 4464TIP3   OH234950   1.333   1.500   0.639  0.0210 -0.0357  0.1568
 4464TIP3    H134951   1.279   1.490   0.717  2.2383  1.0542  1.9539
 4464TIP3    H234952   1.389   1.423   0.638  1.7109  1.0987  1.1760
 4465TIP3   OH234953   2.005   3.039   1.879  0.3734  0.0701  0.6059
 4465TIP3    H134954   1.988   3.117   1.826  3.2556 -1.6216 -3.3172
 4465TIP3    H234955   1.938   2.976   1.850  1.9231 -0.8400 -1.2714
 4466TIP3   OH234956   1.543   3.315   0.813  0.2296 -0.2746  0.2794
 4466TIP3    H134957   1.531   3.391   0.755  0.7375  0.7668  1.4798
 4466TIP3    H234958   1.515   3.240   0.761  0.8940  0.5859 -1.3891
 4467TIP3   OH234959   5.442   6.881   0.800  0.0539  0.1798 -0.3403
 4467TIP3    H134960   5.357   6.918   0.824 -0.1056 -0.4457  0.1100
 4467TIP3    H234961   5.432   6.855   0.708 -0.6327 -0.9332  0.0355
 4468TIP3   OH234962   5.811   3.566   8.244 -0.2674 -0.0642  0.1246
 4468TIP3    H134963   5.808   3.603   8.333  0.9610 -1.8405  0.9661
 4468TIP3    H234964   5.900   3.531   8.236 -0.2016  0.4558 -2.0120
 4469TIP3   OH234965   5.242   5.870   7.514  0.2022  0.0491 -0.2529
 4469TIP3    H134966   5.301   5.838   7.582 -1.9495  0.0967  1.7618
 4469TIP3    H234967   5.248   5.804   7.445 -0.5289 -2.2508  1.7248
 4470TIP3   OH234968   1.500   2.648   7.424  0.1840 -0.5911  0.9212
 4470TIP3    H134969   1.568   2.688   7.369  0.5065 -2.0317  0.2213
 4470TIP3    H234970   1.467   2.576   7.371 -4.5578  2.1184 -0.4472
 4471TIP3   OH234971   1.232   2.241   2.051 -0.0153 -0.0644  0.3984
 4471TIP3    H134972   1.311   2.247   2.105 -0.7506  1.6345  1.3894
 4471TIP3    H234973   1.222   2.148   2.032  2.2326 -0.3187  0.2025
 4472TIP3   OH234974   2.428   1.830   6.501  0.1338 -0.7222 -0.1200
 4472TIP3    H134975   2.460   1.781   6.424 -0.0075  0.0640 -0.6817
 4472TIP3    H234976   2.337   1.803   6.511  0.7971 -2.7021  1.2721
 4473TIP3   OH234977   6.775   5.026   1.939  0.0237 -0.6848 -0.2933
 4473TIP3    H134978   6.696   5.079   1.942 -0.1337 -0.9835  1.6792
 4473TIP3    H234979   6.744   4.935   1.943  0.4054 -0.8692 -1.2138
 4474TIP3   OH234980   1.386   6.024   6.204 -0.2461  0.0975  0.4061
 4474TIP3    H134981   1.417   6.115   6.209 -1.3008  0.4180  1.6321
 4474TIP3    H234982   1.335   6.020   6.124  1.9302 -0.1408 -1.0525
 4475TIP3   OH234983   0.200   3.988   8.436 -0.5717  0.3435 -0.2098
 4475TIP3    H134984   0.230   4.031   8.356  2.1821 -0.0669  0.5146
 4475TIP3    H234985   0.186   4.060   8.498 -0.9594  0.5206 -0.4941
 4476TIP3   OH234986   2.810   0.448   7.129  0.0523  0.6400  0.3544
 4476TIP3    H134987   2.806   0.502   7.209  3.4096  0.7986  0.5609
 4476TIP3    H234988   2.756   0.371   7.150  0.6591  0.7703  2.7307
 4477TIP3   OH234989   0.708   3.070   7.786  0.8182  0.2085 -0.0965
 4477TIP3    H134990   0.797   3.101   7.772  0.8127  0.3894  0.2753
 4477TIP3    H234991   0.656   3.115   7.719  0.8635  0.7527  0.2344
 4478TIP3   OH234992   0.425   0.992   0.144  0.2481 -0.1973  0.1127
 4478TIP3    H134993   0.434   1.045   0.223 -0.9517  1.4257 -0.7750
 4478TIP3    H234994   0.351   0.934   0.163  2.0897 -2.2458  1.4028
 4479TIP3   OH234995   6.598   5.399   7.797  0.0353  0.2809 -0.1442
 4479TIP3    H134996   6.581   5.345   7.720 -0.3825 -1.1538  0.9110
 4479TIP3    H234997   6.540   5.475   7.788 -2.7956 -1.6493  0.5048
 4480TIP3   OH234998   1.946   6.768   7.849 -0.2476  0.1316  0.0486
 4480TIP3    H134999   1.866   6.733   7.888 -0.1987  0.7061  0.6941
 4480TIP3    H235000   2.006   6.694   7.847  0.1263  0.3328  2.1152
 4481TIP3   OH235001   0.655   3.953   0.591 -0.2150  0.0251  0.3481
 4481TIP3    H135002   0.721   3.936   0.524 -1.8066  0.4384 -1.3882
 4481TIP3    H235003   0.656   4.048   0.602  0.2447 -0.0584  1.1907
 4482TIP3   OH235004   3.773   0.927   8.309  0.0592  0.0735 -0.1300
 4482TIP3    H135005   3.715   0.864   8.266  0.2960 -1.6326  1.8622
 4482TIP3    H235006   3.854   0.878   8.323  0.3669  0.9034  1.1838
 4483TIP3   OH235007   6.180   4.440   6.682 -0.3073 -0.3139 -0.1045
 4483TIP3    H135008   6.119   4.366   6.680  2.1954 -2.5284 -1.3290
 4483TIP3    H235009   6.148   4.499   6.613 -0.8692 -1.6209 -1.0122
 4484TIP3   OH235010   6.450   4.102   7.353 -0.0681  0.0763 -0.5419
 4484TIP3    H135011   6.362   4.074   7.329 -0.1422  0.8150 -1.1827
 4484TIP3    H235012   6.503   4.024   7.345 -0.4516 -0.1150 -1.3007
 4485TIP3   OH235013   2.569   1.784   7.818  0.1113  0.5074  0.1865
 4485TIP3    H135014   2.552   1.834   7.738 -1.6709 -0.0672  0.1609
 4485TIP3    H235015   2.664   1.780   7.823  0.2788  0.9366 -1.6645
 4486TIP3   OH235016   0.635   5.766   1.250 -0.0001 -0.5795 -0.3575
 4486TIP3    H135017   0.585   5.779   1.331 -0.0919 -1.2262 -0.3001
 4486TIP3    H235018   0.700   5.700   1.274  0.4431 -0.2365 -0.6169
 4487TIP3   OH235019   4.233   0.864   6.505  0.4033  0.7350  0.5115
 4487TIP3    H135020   4.276   0.791   6.549 -2.2930 -0.4407  1.4428
 4487TIP3    H235021   4.257   0.941   6.557  0.6858  0.0031  1.4963
 4488TIP3   OH235022   5.511   4.501   0.165  0.0974 -0.6872 -0.0541
 4488TIP3    H135023   5.479   4.591   0.172  0.4588 -0.5120 -0.5507
 4488TIP3    H235024   5.495   4.476   0.074  0.3703 -0.9773 -0.0274
 4489TIP3   OH235025   3.635   1.863   6.931  0.0214  0.4392  0.4758
 4489TIP3    H135026   3.587   1.779   6.929 -2.3192  1.6986 -0.6122
 4489TIP3    H235027   3.703   1.853   6.864 -0.8559 -0.2689 -0.3373
 4490TIP3   OH235028   3.626   5.591   1.057  0.9027 -0.6142 -0.1530
 4490TIP3    H135029   3.680   5.575   1.134 -0.1802  0.0331  0.7830
 4490TIP3    H235030   3.558   5.651   1.088  1.5332  1.2218 -2.0990
 4491TIP3   OH235031   5.020   0.955   0.980  0.0841  0.2523  0.5130
 4491TIP3    H135032   5.102   0.912   1.005 -0.7206 -1.5271  0.2140
 4491TIP3    H235033   4.990   0.997   1.061 -0.8393 -2.7115  1.8299
 4492TIP3   OH235034   0.394   1.136   6.673 -0.1722  0.2550  0.1591
 4492TIP3    H135035   0.322   1.073   6.669  0.3604 -0.2962 -2.1800
 4492TIP3    H235036   0.472   1.082   6.686  0.1627  0.5288 -0.6863
 4493TIP3   OH235037   6.884   2.239   7.515 -1.0718 -0.1277  0.2719
 4493TIP3    H135038   6.934   2.179   7.460 -0.3293  2.1572 -1.6908
 4493TIP3    H235039   6.926   2.233   7.601 -0.3926 -1.6615 -0.1329
 4494TIP3   OH235040   5.979   5.598   0.787 -0.1900 -0.0629 -0.0587
 4494TIP3    H135041   5.913   5.664   0.812  1.8290  1.4303  1.6971
 4494TIP3    H235042   6.037   5.644   0.727  2.0962  0.3665  2.3171
 4495TIP3   OH235043   2.274   0.916   7.164 -0.4605 -0.1590  0.1063
 4495TIP3    H135044   2.358   0.956   7.145 -0.1441 -0.7338  0.2861
 4495TIP3    H235045   2.228   0.916   7.080 -0.7148  1.1371  0.2239
 4496TIP3   OH235046   2.187   1.085   2.497  0.2630  0.0763  0.0881
 4496TIP3    H135047   2.094   1.107   2.498 -0.0999 -1.2656 -1.3409
 4496TIP3    H235048   2.229   1.158   2.544 -1.7027 -0.3762  2.7961
 4497TIP3   OH235049   3.712   4.200   6.673  0.4097 -0.4063 -0.5964
 4497TIP3    H135050   3.643   4.154   6.721  0.8794 -0.7016 -0.1898
 4497TIP3    H235051   3.684   4.291   6.670  0.3731 -0.3827  0.2513
 4498TIP3   OH235052   5.223   0.570   2.206  0.5774  0.0491 -0.4105
 4498TIP3    H135053   5.276   0.503   2.249 -0.1305  0.0247  0.4557
 4498TIP3    H235054   5.158   0.594   2.272  0.5597  1.2835 -0.8616
 4499TIP3   OH235055   5.055   5.627   6.745  0.5610 -0.2502  0.3692
 4499TIP3    H135056   5.149   5.635   6.734  0.4647 -0.7345 -1.0562
 4499TIP3    H235057   5.019   5.709   6.710  0.4084 -0.3929  0.1894
 4500TIP3   OH235058   2.350   1.843   6.907  0.6634  0.4573 -0.3718
 4500TIP3    H135059   2.406   1.921   6.912  1.6423 -0.1280 -1.5833
 4500TIP3    H235060   2.400   1.781   6.853  0.7822 -1.7653  2.0987
 4501TIP3   OH235061   3.553   5.385   0.880  0.3244 -0.4218 -0.3190
 4501TIP3    H135062   3.592   5.446   0.942  1.1976 -1.5045  0.2430
 4501TIP3    H235063   3.598   5.302   0.898  0.8382 -0.7003 -2.6099
 4502TIP3   OH235064   4.601   1.129   8.101 -0.4868  0.0525  0.2010
 4502TIP3    H135065   4.630   1.176   8.179  0.5542 -0.2122 -0.0110
 4502TIP3    H235066   4.510   1.156   8.089 -0.1183  1.5046  0.4649
 4503TIP3   OH235067   3.911   0.182   0.036 -0.5558 -0.4244 -0.3004
 4503TIP3    H135068   3.900   0.247  -0.033 -0.4709 -0.5203 -0.4070
 4503TIP3    H235069   3.944   0.231   0.111  3.2335 -0.8005 -1.4637
 4504TIP3   OH235070   4.096   0.841   0.445  0.3856  0.2070  0.0565
 4504TIP3    H135071   4.163   0.895   0.486  0.1451  1.4140 -1.0707
 4504TIP3    H235072   4.099   0.865   0.352 -0.3716 -1.0443 -0.3198
 4505TIP3   OH235073   4.818   4.486   0.251  0.0678  0.2559 -0.3334
 4505TIP3    H135074   4.844   4.396   0.232 -1.3135 -0.2990  0.2656
 4505TIP3    H235075   4.888   4.540   0.214  1.9742 -1.1180  1.0752
 4506TIP3   OH235076   4.107   5.214   1.556  0.0390 -0.1518 -0.5861
 4506TIP3    H135077   4.025   5.257   1.531  0.5764  0.3143 -1.6161
 4506TIP3    H235078   4.124   5.246   1.645 -0.5813  0.2219 -0.5930
 4507TIP3   OH235079   3.404   6.024   7.684 -0.3925 -0.3518  0.2253
 4507TIP3    H135080   3.442   6.099   7.638 -0.7889 -1.8073 -2.7093
 4507TIP3    H235081   3.477   5.962   7.693 -0.4286 -0.2681  1.1925
 4508TIP3   OH235082   6.389   4.989   2.180 -0.0777 -0.2469  0.0385
 4508TIP3    H135083   6.308   5.033   2.204  0.0101  0.4668 -0.9171
 4508TIP3    H235084   6.378   4.899   2.211 -0.3881  0.3446  1.7466
 4509TIP3   OH235085   6.119   0.852   8.381  0.2755 -0.5417 -0.1650
 4509TIP3    H135086   6.073   0.846   8.297 -1.2853  0.4380  0.5895
 4509TIP3    H235087   6.121   0.762   8.413 -0.4512 -0.7029 -0.5594
 4510TIP3   OH235088   1.703   0.287   7.076  0.0368  0.6019 -0.2021
 4510TIP3    H135089   1.754   0.272   7.156  1.0142  1.5493 -0.6155
 4510TIP3    H235090   1.754   0.353   7.028 -0.7326  0.3252 -1.4242
 4511TIP3   OH235091   2.844   0.499   1.556  0.3576  0.2506 -0.1540
 4511TIP3    H135092   2.770   0.538   1.602 -0.3622  0.0241 -1.0950
 4511TIP3    H235093   2.863   0.419   1.606  0.1170  0.4266  0.2238
 4512TIP3   OH235094   2.625   0.943   6.629 -0.3441  0.2392  0.1889
 4512TIP3    H135095   2.546   0.937   6.683 -0.3164 -0.4079  0.1737
 4512TIP3    H235096   2.594   0.969   6.542 -0.6493 -0.7998 -0.0297
 4513TIP3   OH235097   3.991   0.895   8.084 -0.2508 -0.0525  0.5096
 4513TIP3    H135098   3.981   0.816   8.138  0.2564 -0.0396  0.6271
 4513TIP3    H235099   3.977   0.967   8.146 -2.3502 -0.0352  0.0897
 4514TIP3   OH235100   4.125   1.573   1.854 -0.2862 -0.0174 -0.9474
 4514TIP3    H135101   4.089   1.662   1.855  0.5986  0.3884  1.0279
 4514TIP3    H235102   4.058   1.519   1.896  0.6250  0.4638  1.3143
 4515TIP3   OH235103   0.289   3.919   0.197 -0.2287 -0.0733 -0.3536
 4515TIP3    H135104   0.324   3.888   0.114 -1.1991  1.1786 -1.2668
 4515TIP3    H235105   0.203   3.879   0.204  1.0103 -2.7325  1.6474
 4516TIP3   OH235106   0.585   6.725   8.035  0.1003 -0.1910  0.8568
 4516TIP3    H135107   0.541   6.649   7.999  1.4350 -0.2220 -0.8613
 4516TIP3    H235108   0.604   6.780   7.959  2.9713 -0.2067  1.4418
 4517TIP3   OH235109   0.757   3.883   7.552 -0.0457 -0.4287 -0.0549
 4517TIP3    H135110   0.807   3.842   7.622 -1.5200  1.3410  2.1695
 4517TIP3    H235111   0.805   3.964   7.532 -0.5445 -0.0841  0.1329
 4518TIP3   OH235112   4.612   4.631   0.679 -0.0689  0.0320  0.0570
 4518TIP3    H135113   4.539   4.585   0.721 -0.0743  1.0795  1.2662
 4518TIP3    H235114   4.638   4.697   0.743  2.8593 -1.1666  0.2382
 4519TIP3   OH235115   5.648   3.571   6.892 -0.1093  0.3431 -0.5383
 4519TIP3    H135116   5.586   3.645   6.896  0.7897  1.1036 -0.3348
 4519TIP3    H235117   5.635   3.534   6.804 -0.7863  0.5424 -0.5317
 4520TIP3   OH235118   6.173   5.711   0.631 -0.0451  0.6456 -0.1571
 4520TIP3    H135119   6.157   5.785   0.572 -2.6372 -0.1130 -0.5738
 4520TIP3    H235120   6.254   5.672   0.600  0.0173  1.8009 -1.5519
 4521TIP3   OH235121   5.578   4.468   2.676 -0.5966 -0.1574 -0.8608
 4521TIP3    H135122   5.643   4.463   2.746  0.2554  1.7378 -1.4451
 4521TIP3    H235123   5.506   4.412   2.705 -0.3527  0.7041  1.6241
 4522TIP3   OH235124   3.872   0.715   0.292 -0.3426  0.4062 -0.6031
 4522TIP3    H135125   3.867   0.798   0.245  2.3135  0.0582 -1.6480
 4522TIP3    H235126   3.930   0.731   0.366  1.0313 -0.7287 -1.3912
 4523TIP3   OH235127   2.940   6.510   8.200  0.7560 -0.4287 -0.8401
 4523TIP3    H135128   3.034   6.498   8.215  1.0199  0.9825 -1.2363
 4523TIP3    H235129   2.933   6.596   8.159 -0.3982 -1.9115 -4.1262
 4524TIP3   OH235130   6.667   2.835   8.208  0.5682 -0.0922  0.3611
 4524TIP3    H135131   6.604   2.781   8.255  1.1063 -0.9331  0.1286
 4524TIP3    H235132   6.744   2.780   8.199  1.4195  0.9757  0.8017
 4525TIP3   OH235133   3.719   5.648   0.783 -0.5113 -0.3240 -0.1053
 4525TIP3    H135134   3.674   5.656   0.867  0.2920 -0.5802  0.3529
 4525TIP3    H235135   3.812   5.643   0.805 -0.2536  0.0446 -1.0326
 4526TIP3   OH235136   0.634   3.559   0.977  0.1310  0.0472  0.1196
 4526TIP3    H135137   0.718   3.599   0.956  0.4149 -1.1986 -1.3419
 4526TIP3    H235138   0.582   3.568   0.897 -0.1328 -1.5550  0.0734
 4527TIP3   OH235139   1.243   1.519   8.295 -0.0370  0.0662 -0.2135
 4527TIP3    H135140   1.236   1.524   8.200  1.6565 -0.8134 -0.4235
 4527TIP3    H235141   1.297   1.594   8.319  0.8695 -0.5949 -0.1412
 4528TIP3   OH235142   1.687   6.192   1.450 -0.5324 -0.5156 -0.0773
 4528TIP3    H135143   1.762   6.142   1.482 -0.6542 -0.6221  0.0468
 4528TIP3    H235144   1.699   6.279   1.488 -1.4495 -1.0364  1.5064
 4529TIP3   OH235145   0.739   2.489   1.914 -0.1204  0.4552  0.2812
 4529TIP3    H135146   0.791   2.445   1.980 -1.7850  0.5825  1.7437
 4529TIP3    H235147   0.747   2.433   1.836  2.2865  0.5849  0.3610
 4530TIP3   OH235148   0.808   5.742   8.028  0.1203  0.0730  0.0196
 4530TIP3    H135149   0.845   5.739   8.116  0.2668 -1.1682 -0.0769
 4530TIP3    H235150   0.879   5.778   7.974 -0.3109  1.8264  0.5421
 4531TIP3   OH235151   2.956   5.703   7.973 -0.1156 -0.3275 -0.0008
 4531TIP3    H135152   2.871   5.664   7.950  0.2321 -0.3693 -1.3055
 4531TIP3    H235153   2.993   5.731   7.889  0.8288  0.3909  0.6348
 4532TIP3   OH235154   3.114   2.542   2.188 -0.3046  0.1942  0.3103
 4532TIP3    H135155   3.121   2.555   2.093 -1.5043 -1.0734  0.0110
 4532TIP3    H235156   3.160   2.459   2.204  0.6995  0.8653  0.9976
 4533TIP3   OH235157   3.552   5.327   0.348  0.2487 -0.0557  0.5725
 4533TIP3    H135158   3.464   5.292   0.353  0.1047 -0.2759 -2.1107
 4533TIP3    H235159   3.608   5.250   0.336  1.0891 -0.0711  3.6216
 4534TIP3   OH235160   0.644   6.251   1.523  0.3259 -0.2576  0.0241
 4534TIP3    H135161   0.577   6.216   1.465 -0.6745  0.3540  0.7735
 4534TIP3    H235162   0.697   6.175   1.546  0.2028 -0.6633 -0.9760
 4535TIP3   OH235163   5.972   6.473   0.939 -0.4865  1.1724 -0.0051
 4535TIP3    H135164   5.950   6.564   0.957 -0.6798  1.7287 -2.6132
 4535TIP3    H235165   5.971   6.467   0.843 -0.3571 -1.5487  0.0920
 4536TIP3   OH235166   6.215   2.513   1.053  0.0300  0.0220  0.3291
 4536TIP3    H135167   6.144   2.453   1.074  0.5963 -0.7847 -0.0271
 4536TIP3    H235168   6.171   2.591   1.019 -0.7312  0.0131  1.2423
 4537TIP3   OH235169   0.666   0.372   1.845 -0.0624 -0.9607  0.2039
 4537TIP3    H135170   0.671   0.295   1.788 -0.8474 -1.5959  0.9781
 4537TIP3    H235171   0.678   0.337   1.933  1.2652  0.0320  0.4443
 4538TIP3   OH235172   2.290   3.095   1.391  0.8778  0.2153  0.1655
 4538TIP3    H135173   2.351   3.113   1.320 -0.3118 -0.6326 -1.1212
 4538TIP3    H235174   2.290   2.999   1.399 -1.7807  0.0083 -1.2972
 4539TIP3   OH235175   4.815   3.212   1.339  0.0499 -0.4118 -0.1605
 4539TIP3    H135176   4.876   3.264   1.286  0.0140 -0.0886  0.1129
 4539TIP3    H235177   4.742   3.272   1.357 -0.5760 -0.9352 -0.8792
 4540TIP3   OH235178   5.944   4.786   8.274  0.5011  0.1419  0.1331
 4540TIP3    H135179   6.001   4.799   8.198  0.1565  0.9647  0.0051
 4540TIP3    H235180   5.867   4.840   8.255  0.1904 -0.0494  0.8380
 4541TIP3   OH235181   5.002   5.505   0.494 -0.2686 -0.3601 -0.5397
 4541TIP3    H135182   4.939   5.532   0.427 -1.8220 -0.4782  0.8133
 4541TIP3    H235183   4.961   5.430   0.537 -0.1128  0.7003  1.6080
 4542TIP3   OH235184   1.726   5.209   0.860 -0.3868  0.1451 -0.5434
 4542TIP3    H135185   1.803   5.152   0.862  0.5711  1.3383 -1.5582
 4542TIP3    H235186   1.699   5.209   0.768 -1.1828  0.3135 -0.3196
 4543TIP3   OH235187   3.604   2.739   0.043 -0.4732  0.0702 -0.4292
 4543TIP3    H135188   3.549   2.772   0.115 -1.5562 -0.7736 -0.8410
 4543TIP3    H235189   3.550   2.674  -0.001  0.7812 -0.6138 -1.0235
 4544TIP3   OH235190   3.808   0.541   0.865 -0.5640 -0.1180 -0.3309
 4544TIP3    H135191   3.849   0.627   0.855 -0.2266 -0.2165  0.1878
 4544TIP3    H235192   3.859   0.498   0.933 -1.2718 -0.3942  0.0377
 4545TIP3   OH235193   6.758   3.955   8.305 -0.8937  0.1674 -0.7809
 4545TIP3    H135194   6.668   3.928   8.322 -0.4542  0.5427  3.0614
 4545TIP3    H235195   6.806   3.932   8.385  1.7838  2.6000 -1.4928
 4546TIP3   OH235196   0.416   3.482   7.913  0.4308  0.0301 -0.5321
 4546TIP3    H135197   0.388   3.398   7.951 -1.0538 -0.1136 -1.8117
 4546TIP3    H235198   0.398   3.472   7.819 -0.4559  2.0170 -0.6192
 4547TIP3   OH235199   0.740   5.340   7.411 -0.3671 -0.1957 -0.5551
 4547TIP3    H135200   0.692   5.422   7.426  0.7610  0.7370 -1.8093
 4547TIP3    H235201   0.769   5.313   7.499 -2.3195 -0.2713  0.0997
 4548TIP3   OH235202   6.600   0.215   7.388 -0.1911  0.4293  0.3469
 4548TIP3    H135203   6.606   0.307   7.413 -1.3047 -0.1173  2.8981
 4548TIP3    H235204   6.508   0.202   7.366 -0.1866 -0.2198  0.6934
 4549TIP3   OH235205   2.592   5.794   7.333 -0.5949  0.4249  0.2178
 4549TIP3    H135206   2.613   5.868   7.390  1.9926 -0.0918  0.0423
 4549TIP3    H235207   2.632   5.815   7.249 -1.7083 -0.2158 -0.5026
 4550TIP3   OH235208   5.977   5.431   7.159 -0.3639 -0.1978 -0.7818
 4550TIP3    H135209   6.068   5.405   7.152 -0.3210 -0.7678  1.1776
 4550TIP3    H235210   5.930   5.373   7.098  0.5219 -0.1556 -1.5122
 4551TIP3   OH235211   6.526   1.508   7.531 -0.3458 -0.0618  0.3676
 4551TIP3    H135212   6.494   1.563   7.459  0.3190 -0.5442 -0.3078
 4551TIP3    H235213   6.538   1.569   7.604 -1.2365  0.3960  0.1473
 4552TIP3   OH235214   3.271   4.043   8.044  0.4754 -0.5206 -0.3544
 4552TIP3    H135215   3.177   4.049   8.060  0.6869 -0.5225  1.0923
 4552TIP3    H235216   3.298   4.133   8.027  0.2445 -0.4948 -0.5872
 4553TIP3   OH235217   6.734   2.716   7.075  0.1890 -0.0602 -0.2212
 4553TIP3    H135218   6.664   2.658   7.107 -0.7901  0.7502 -0.8356
 4553TIP3    H235219   6.753   2.684   6.987 -0.6488  0.7673 -0.7274
 4554TIP3   OH235220   2.118   2.052   1.728  0.9403 -0.3904  0.0265
 4554TIP3    H135221   2.058   2.117   1.764  0.0561 -0.0705 -1.9174
 4554TIP3    H235222   2.200   2.066   1.775  0.0545  0.4467  1.3826
 4555TIP3   OH235223   4.710   5.913   0.022  0.5822  0.0866 -0.1253
 4555TIP3    H135224   4.788   5.859   0.009  1.1945  0.7537  0.6615
 4555TIP3    H235225   4.710   5.971  -0.054  0.2667 -0.5906 -0.6546
 4556TIP3   OH235226   3.411   6.759   2.397  0.0729  0.3467  0.1660
 4556TIP3    H135227   3.461   6.677   2.401 -0.1658  0.2155  0.6683
 4556TIP3    H235228   3.352   6.753   2.472 -0.8026  0.4275 -0.5080
 4557TIP3   OH235229   4.223   1.843   7.505  0.4754 -0.1511  0.1367
 4557TIP3    H135230   4.284   1.903   7.464  0.1676 -0.2951 -0.5460
 4557TIP3    H235231   4.228   1.763   7.452  1.6884 -1.1529  1.6561
 4558TIP3   OH235232   1.721   0.430   7.841 -0.4686 -0.0637  0.2514
 4558TIP3    H135233   1.690   0.490   7.773  0.6862 -0.1367 -0.3748
 4558TIP3    H235234   1.668   0.351   7.830  0.6857 -0.6663 -1.6159
 4559TIP3   OH235235   1.712   0.004   1.151  0.1390  0.0435 -0.3769
 4559TIP3    H135236   1.716  -0.004   1.055 -0.4035  0.1026 -0.4053
 4559TIP3    H235237   1.803   0.013   1.177  0.2693  0.4015 -0.9241
 4560TIP3   OH235238   6.274   4.231   6.908  0.3807 -0.3732  0.0283
 4560TIP3    H135239   6.228   4.182   6.840  0.4108 -1.8725  1.0377
 4560TIP3    H235240   6.321   4.164   6.959  0.7430  0.7443  1.2354
 4561TIP3   OH235241   6.695   4.327   0.092  0.1178 -0.7573 -0.0990
 4561TIP3    H135242   6.780   4.292   0.116  2.3264  1.3838 -3.8311
 4561TIP3    H235243   6.698   4.419   0.119 -1.3635 -0.8278  0.4046
 4562TIP3   OH235244   4.324   5.449   6.958  0.0514  0.2213  0.0542
 4562TIP3    H135245   4.281   5.491   7.032  0.5508 -2.5152  2.0528
 4562TIP3    H235246   4.418   5.467   6.971  0.0837  0.3138 -0.3032
 4563TIP3   OH235247   4.636   3.897   1.507  0.8703  0.0130 -0.6799
 4563TIP3    H135248   4.619   3.947   1.426  1.0777  1.1417 -0.0436
 4563TIP3    H235249   4.558   3.911   1.560  1.5578  0.9013  0.1157
 4564TIP3   OH235250   2.563   1.481   8.313  0.0132 -0.4047 -0.2642
 4564TIP3    H135251   2.490   1.535   8.283  0.7758 -0.3053 -2.0924
 4564TIP3    H235252   2.638   1.541   8.312  0.5172 -1.0285 -0.4926
 4565TIP3   OH235253   5.321   6.579   0.922  0.5619 -0.1802 -0.1582
 4565TIP3    H135254   5.328   6.539   1.008  1.2780 -1.1734 -0.6644
 4565TIP3    H235255   5.411   6.588   0.892  0.2838 -0.9342 -1.2838
 4566TIP3   OH235256   2.853   3.756   0.562 -0.2705 -0.1965  0.1446
 4566TIP3    H135257   2.760   3.737   0.569 -0.4421 -0.4236 -1.9401
 4566TIP3    H235258   2.891   3.722   0.643 -1.6864 -2.1816  0.0439
 4567TIP3   OH235259   4.716   4.985   2.452 -0.6052 -0.2991  0.4739
 4567TIP3    H135260   4.627   4.985   2.415 -1.4393 -0.3050  2.3474
 4567TIP3    H235261   4.753   5.068   2.424 -1.9851  0.6562  1.3348
 4568TIP3   OH235262   2.072   2.034   2.442 -0.5255  0.7660 -0.2653
 4568TIP3    H135263   2.112   1.955   2.478 -0.4385  0.8488 -0.1812
 4568TIP3    H235264   2.129   2.060   2.370 -1.1122  0.1647 -0.9568
 4569TIP3   OH235265   4.471   2.860   1.175  0.2082  0.1181 -0.2039
 4569TIP3    H135266   4.504   2.804   1.104 -1.8004  0.1113 -1.2078
 4569TIP3    H235267   4.489   2.811   1.255 -0.8863 -1.6831 -1.0133
 4570TIP3   OH235268   0.099   4.715   2.082 -0.3655  0.4335 -0.1031
 4570TIP3    H135269   0.155   4.792   2.086 -1.2340  1.0453  0.5197
 4570TIP3    H235270   0.155   4.642   2.108  0.1505  1.0265  0.4462
 4571TIP3   OH235271   6.799   5.855   8.202  0.2660  0.0084  0.0602
 4571TIP3    H135272   6.754   5.787   8.152  2.5253 -0.5316 -1.4020
 4571TIP3    H235273   6.890   5.851   8.171  1.5320  0.5363  3.3514
 4572TIP3   OH235274   0.360   2.940   1.079 -0.5311 -0.1234  0.1711
 4572TIP3    H135275   0.281   2.949   1.024  0.1583  0.8395 -0.6979
 4572TIP3    H235276   0.389   3.030   1.094  0.8901 -0.4927 -0.2441
 4573TIP3   OH235277   5.178   3.014   7.582  0.3347 -0.0141 -0.1668
 4573TIP3    H135278   5.239   3.028   7.510 -1.7373 -0.0914 -2.0000
 4573TIP3    H235279   5.170   2.918   7.588  0.5894 -0.0128  0.2769
 4574TIP3   OH235280   4.198   4.615   7.722  0.1509  0.8950 -0.1736
 4574TIP3    H135281   4.218   4.543   7.782  1.1136  2.5522  1.6375
 4574TIP3    H235282   4.258   4.604   7.649  1.4233  0.7250  0.8612
 4575TIP3   OH235283   6.400   5.756   0.842 -0.0246  0.7084  0.0964
 4575TIP3    H135284   6.384   5.734   0.750 -1.5509  1.2596  0.1937
 4575TIP3    H235285   6.489   5.725   0.859 -0.4131 -1.2466 -1.0105
 4576TIP3   OH235286   4.741   5.904   6.449  0.1243 -0.1380  0.2610
 4576TIP3    H135287   4.655   5.871   6.477  0.6499 -0.7376  1.1974
 4576TIP3    H235288   4.748   5.878   6.357 -1.6576  1.8988 -0.5481
 4577TIP3   OH235289   2.381   1.737   0.475  0.2163 -0.5682 -0.4667
 4577TIP3    H135290   2.368   1.794   0.400 -2.1539 -0.5598 -0.1433
 4577TIP3    H235291   2.368   1.648   0.440 -1.2456 -0.5463 -0.0801
 4578TIP3   OH235292   2.875   6.405   1.296 -0.0650  0.1629 -0.2965
 4578TIP3    H135293   2.825   6.382   1.218 -0.4769 -0.2609  0.0906
 4578TIP3    H235294   2.815   6.392   1.369  0.2504  0.7685  0.0785
 4579TIP3   OH235295   6.643   1.472   1.871 -0.2214  0.2607  0.2324
 4579TIP3    H135296   6.579   1.407   1.842 -1.9501  1.9477  0.0800
 4579TIP3    H235297   6.681   1.506   1.790 -1.1384  1.1618  0.1581
 4580TIP3   OH235298   1.195   5.837   7.753 -0.3128 -0.0199  0.0176
 4580TIP3    H135299   1.198   5.858   7.846  0.9476  0.8516 -0.1798
 4580TIP3    H235300   1.245   5.756   7.745  0.1718  0.2720  0.0291
 4581TIP3   OH235301   0.189   0.539   7.315  0.9292  0.0279  0.4115
 4581TIP3    H135302   0.147   0.534   7.229  0.5373 -1.2154  0.6521
 4581TIP3    H235303   0.175   0.629   7.344 -1.7290 -0.3400  0.5311
 4582TIP3   OH235304   1.608   5.729   0.055 -0.1568  0.2069 -0.8059
 4582TIP3    H135305   1.637   5.774  -0.025 -0.1605 -0.8634 -1.4298
 4582TIP3    H235306   1.513   5.745   0.058  0.2054  2.4759  0.4455
 4583TIP3   OH235307   4.155   6.819   0.940  0.6093  0.2888  0.5646
 4583TIP3    H135308   4.147   6.838   1.033 -0.8680  2.9685 -0.0176
 4583TIP3    H235309   4.248   6.829   0.921  1.1777 -1.7427  1.9588
 4584TIP3   OH235310   2.123   0.278   1.204  1.1699  0.7210 -0.0052
 4584TIP3    H135311   2.130   0.187   1.232  1.4889  0.5170 -0.7575
 4584TIP3    H235312   2.117   0.275   1.109  1.5049  1.5046 -0.0634
 4585TIP3   OH235313   0.022   1.593   2.206 -0.1889  0.0954 -0.2898
 4585TIP3    H135314  -0.004   1.684   2.190 -0.9141  0.0549  0.5937
 4585TIP3    H235315   0.117   1.595   2.206 -0.1993  0.7767 -0.7411
 4586TIP3   OH235316   6.193   3.214   7.004  0.5202 -0.2000  0.0713
 4586TIP3    H135317   6.211   3.251   7.090 -0.5212 -1.3770  0.8270
 4586TIP3    H235318   6.227   3.125   7.008 -1.6190 -1.0809  0.1353
 4587TIP3   OH235319   4.849   6.141   1.933  0.7482 -0.4624  0.3370
 4587TIP3    H135320   4.938   6.131   1.900  0.4268  1.5699 -1.4054
 4587TIP3    H235321   4.852   6.222   1.985 -0.5329  1.1705 -1.9363
 4588TIP3   OH235322   2.947   2.575   0.480 -0.2727 -0.6311 -0.6284
 4588TIP3    H135323   2.872   2.531   0.521 -0.7949 -0.3862 -1.2889
 4588TIP3    H235324   3.023   2.528   0.512 -0.7847 -1.6081 -0.8063
 4589TIP3   OH235325   5.726   6.026   8.418 -0.0633  0.0298 -0.2410
 4589TIP3    H135326   5.796   5.966   8.393  0.7078  0.3807  0.9976
 4589TIP3    H235327   5.730   6.095   8.351  1.6361  0.7028  0.5022
 4590TIP3   OH235328   6.809   1.995   7.987  0.4526  0.1016  0.5278
 4590TIP3    H135329   6.887   2.039   8.019  0.1967  1.8919 -1.1566
 4590TIP3    H235330   6.811   1.908   8.028  2.3387  0.7634  1.9167
 4591TIP3   OH235331   0.479   5.759   1.650 -0.0432  0.5506  0.0905
 4591TIP3    H135332   0.472   5.675   1.694 -0.7445 -0.0603 -1.1222
 4591TIP3    H235333   0.546   5.807   1.698 -0.8247 -0.0404  1.8437
 4592TIP3   OH235334   2.057   5.099   7.569  0.1926  0.0101  0.3717
 4592TIP3    H135335   2.111   5.102   7.648  1.1006 -2.6282 -0.0246
 4592TIP3    H235336   2.109   5.046   7.507 -3.5393 -4.7152  0.6586
 4593TIP3   OH235337   3.694   4.203   1.185  0.1710  0.1002  0.2114
 4593TIP3    H135338   3.759   4.177   1.120  0.1184 -1.5695  0.7848
 4593TIP3    H235339   3.658   4.285   1.151 -0.1840 -0.9344 -2.1387
 4594TIP3   OH235340   0.839   1.540   1.225 -0.3478  0.5016  0.3420
 4594TIP3    H135341   0.753   1.552   1.266 -0.8513 -0.3080 -0.4457
 4594TIP3    H235342   0.840   1.449   1.195  1.2054  0.1758  1.2619
 4595TIP3   OH235343   4.471   2.979   8.068  0.0293  0.1304 -0.1108
 4595TIP3    H135344   4.515   2.896   8.049 -0.3335 -0.1882  0.3952
 4595TIP3    H235345   4.381   2.966   8.038 -0.4514 -0.2483  1.4042
 4596TIP3   OH235346   5.163   1.115   8.261 -0.1953  0.1100 -0.0546
 4596TIP3    H135347   5.091   1.071   8.216  0.6047 -0.1508 -1.1178
 4596TIP3    H235348   5.199   1.175   8.196 -0.7103  1.7244  1.0947
 4597TIP3   OH235349   2.611   0.883   0.713 -0.2506 -0.0400 -0.5190
 4597TIP3    H135350   2.526   0.845   0.690  0.3460 -0.9865 -1.2438
 4597TIP3    H235351   2.672   0.844   0.651  0.7970  0.2810  0.2853
 4598TIP3   OH235352   0.003   1.216   8.039  0.1494 -0.1878 -0.0180
 4598TIP3    H135353   0.096   1.237   8.027  0.1674 -0.9332 -1.3748
 4598TIP3    H235354  -0.026   1.186   7.953 -0.3740 -3.6623  1.2057
 4599TIP3   OH235355   6.234   4.403   2.633  0.0061  0.1145 -0.0849
 4599TIP3    H135356   6.263   4.323   2.676  1.0347  0.3367 -0.3385
 4599TIP3    H235357   6.154   4.378   2.587 -0.1253 -0.5572  0.5023
 4600TIP3   OH235358   0.176   6.644   6.945  0.1339 -0.1977  0.9476
 4600TIP3    H135359   0.223   6.691   7.014 -1.9182  1.8696  1.0769
 4600TIP3    H235360   0.148   6.562   6.986  0.4130  0.2241  2.0079
 4601TIP3   OH235361   5.887   6.321   6.918 -0.4803 -0.0241 -0.3770
 4601TIP3    H135362   5.901   6.334   6.824 -1.1739  1.5347 -0.3031
 4601TIP3    H235363   5.972   6.293   6.951 -0.6107 -2.1653 -1.6874
 4602TIP3   OH235364   5.086   4.597   7.623  0.4369  0.0097 -0.3080
 4602TIP3    H135365   5.065   4.683   7.585 -0.5593 -0.6476 -1.2883
 4602TIP3    H235366   5.171   4.575   7.586  0.3794  0.2580 -0.5891
 4603TIP3   OH235367   2.685   5.123   7.531 -0.2052  0.1243  0.3213
 4603TIP3    H135368   2.602   5.164   7.507  0.7711  0.7411 -2.2968
 4603TIP3    H235369   2.690   5.046   7.474  1.0695  0.1688  0.3582
 4604TIP3   OH235370   2.908   2.480   7.939 -0.1039  0.2662  0.3082
 4604TIP3    H135371   2.885   2.391   7.966  0.5052  0.3309  1.0821
 4604TIP3    H235372   2.917   2.475   7.844 -1.9595 -0.0574  0.1128
 4605TIP3   OH235373   1.998   2.959   0.714 -0.1208  0.0129 -0.1145
 4605TIP3    H135374   2.081   2.931   0.753 -1.1056 -1.1078  1.2695
 4605TIP3    H235375   2.019   3.043   0.672  1.6599 -0.1486  0.3484
 4606TIP3   OH235376   1.889   3.159   1.632 -0.0204 -0.0888  0.3657
 4606TIP3    H135377   1.972   3.198   1.604  1.1130 -0.8938  2.4215
 4606TIP3    H235378   1.869   3.094   1.564  0.3385  1.0041 -0.8152
 4607TIP3   OH235379   1.167   4.963   1.638 -0.2265  0.3779 -0.3063
 4607TIP3    H135380   1.083   4.923   1.661  0.9718 -1.6449  0.8799
 4607TIP3    H235381   1.220   4.956   1.718  1.0133  1.8659 -0.9279
 4608TIP3   OH235382   1.677   3.379   7.172 -1.2411  0.4442  0.6951
 4608TIP3    H135383   1.673   3.472   7.197 -2.1512  0.7313 -0.3971
 4608TIP3    H235384   1.769   3.356   7.181 -0.4633  2.2249 -1.4919
 4609TIP3   OH235385   5.982   0.325   6.381  0.1859 -0.3416  0.4254
 4609TIP3    H135386   6.055   0.288   6.430  0.2081 -1.5546 -0.4715
 4609TIP3    H235387   5.986   0.282   6.295 -1.2109  0.0136  0.1504
 4610TIP3   OH235388   4.476   3.799   2.393 -0.0501  0.1518 -0.0672
 4610TIP3    H135389   4.517   3.862   2.452  0.0505  0.1830 -0.1703
 4610TIP3    H235390   4.545   3.736   2.373 -0.2870 -0.2724  0.4296
 4611TIP3   OH235391   6.148   3.089   7.861  0.2756 -0.0365  0.2295
 4611TIP3    H135392   6.080   3.156   7.854 -0.7801 -1.1300 -0.3837
 4611TIP3    H235393   6.167   3.083   7.954 -0.4121  0.3372  0.3960
 4612TIP3   OH235394   4.699   5.614   1.178  0.0127 -0.5376 -0.3731
 4612TIP3    H135395   4.754   5.687   1.148 -0.1591 -0.6067 -0.8779
 4612TIP3    H235396   4.610   5.647   1.169 -0.1869 -1.4741 -2.5592
 4613TIP3   OH235397   6.170   4.638   1.110  0.5198  0.2325  0.6663
 4613TIP3    H135398   6.174   4.732   1.097  1.4188 -0.0973 -1.9932
 4613TIP3    H235399   6.081   4.614   1.086 -0.3955  0.5515  3.3422
 4614TIP3   OH235400   5.068   4.837   7.480  0.2202 -0.1815 -0.0028
 4614TIP3    H135401   5.044   4.926   7.507 -0.0066 -0.4579  0.7364
 4614TIP3    H235402   5.010   4.817   7.407  0.0404  0.1458  0.0496
 4615TIP3   OH235403   4.146   1.646   1.427  0.6362  0.6404 -0.6144
 4615TIP3    H135404   4.140   1.569   1.484  1.2307  0.1833 -1.1487
 4615TIP3    H235405   4.238   1.672   1.432  0.7142  0.5460 -1.4098
 4616TIP3   OH235406   3.473   4.239   8.603 -0.2259 -0.4561 -0.2706
 4616TIP3    H135407   3.462   4.280   8.689 -1.8381  0.5048 -0.8975
 4616TIP3    H235408   3.457   4.146   8.619  0.7442 -0.4931  0.6665
 4617TIP3   OH235409   1.041   2.731   8.243 -0.0506  0.7941  0.7105
 4617TIP3    H135410   1.089   2.676   8.305 -1.4223 -1.1483  0.1256
 4617TIP3    H235411   0.996   2.795   8.298  0.3912  0.4054  1.5479
 4618TIP3   OH235412   6.765   1.778   1.046 -0.2510 -0.1592 -0.2069
 4618TIP3    H135413   6.763   1.684   1.060 -1.0727  0.0504  1.3309
 4618TIP3    H235414   6.727   1.815   1.126  1.2896  1.5324 -0.1934
 4619TIP3   OH235415   3.023   4.703   7.184 -0.4450 -0.2668 -0.0583
 4619TIP3    H135416   3.029   4.668   7.095  0.2642 -0.8775  0.2160
 4619TIP3    H235417   2.954   4.652   7.226 -0.5957 -0.1596 -0.1740
 4620TIP3   OH235418   3.702   6.172   7.033 -0.1523 -0.0659  0.5449
 4620TIP3    H135419   3.623   6.222   7.056  1.4088  2.8807  0.0414
 4620TIP3    H235420   3.685   6.141   6.944 -0.6290  0.8202  0.3193
 4621TIP3   OH235421   1.194   5.516   0.150 -0.7561  0.3079  0.5873
 4621TIP3    H135422   1.136   5.588   0.171 -1.6208 -0.0417 -0.4990
 4621TIP3    H235423   1.164   5.484   0.064  0.4097 -0.5147  0.4476
 4622TIP3   OH235424   0.389   2.425   1.037  0.1273  0.4404 -0.0329
 4622TIP3    H135425   0.318   2.363   1.052  1.2137 -0.9991 -0.6302
 4622TIP3    H235426   0.468   2.379   1.064  1.0225  1.3992 -0.8945
 4623TIP3   OH235427   3.475   1.221   7.019  0.0183  0.0719  0.1850
 4623TIP3    H135428   3.404   1.159   7.004 -1.2026  1.0709  1.6907
 4623TIP3    H235429   3.488   1.263   6.934  1.6291 -2.8889 -1.2156
 4624TIP3   OH235430   5.470   4.900   8.115  0.2751 -0.1153  0.0038
 4624TIP3    H135431   5.529   4.950   8.059 -0.0839  2.4560  1.7353
 4624TIP3    H235432   5.519   4.822   8.139  2.3942  1.1952  0.1482
 4625TIP3   OH235433   1.340   2.263   0.746  0.3902  0.5254  0.3236
 4625TIP3    H135434   1.375   2.216   0.670 -0.4576  1.6969 -0.8315
 4625TIP3    H235435   1.360   2.206   0.820  1.2876 -0.6358 -0.7575
 4626TIP3   OH235436   2.651   6.734   6.828  0.4352  0.1599  0.6674
 4626TIP3    H135437   2.651   6.684   6.909  0.1420  0.2992  0.7508
 4626TIP3    H235438   2.597   6.810   6.846  0.9035  0.5239  0.5482
 4627TIP3   OH235439   2.523   1.395   1.073 -0.2254 -0.0976 -0.5545
 4627TIP3    H135440   2.434   1.383   1.106 -0.2988  4.5287  1.7601
 4627TIP3    H235441   2.579   1.381   1.149  0.4159  2.2054 -0.5120
 4628TIP3   OH235442   5.184   0.236   7.238  0.1874  0.0200 -0.0178
 4628TIP3    H135443   5.262   0.279   7.201  2.0253 -1.4098  1.9732
 4628TIP3    H235444   5.210   0.145   7.249 -1.7119 -0.4527  0.9422
 4629TIP3   OH235445   1.405   1.166   0.327  0.3077 -0.2547  0.1076
 4629TIP3    H135446   1.452   1.088   0.299  0.8918 -0.4354  1.5055
 4629TIP3    H235447   1.469   1.237   0.317  1.0749 -0.5470  2.3097
 4630TIP3   OH235448   5.203   2.045   0.345  0.1202 -0.7322 -0.7105
 4630TIP3    H135449   5.162   2.100   0.278 -3.0429 -2.4047 -0.3346
 4630TIP3    H235450   5.194   1.956   0.311  0.3490 -1.4393  0.9939
 4631TIP3   OH235451   4.373   5.028   8.133 -0.2880  0.3284 -0.5831
 4631TIP3    H135452   4.454   4.992   8.169 -0.2128  0.1292 -0.9429
 4631TIP3    H235453   4.402   5.103   8.081  0.0926 -1.6677 -3.4930
 4632TIP3   OH235454   2.228   6.580   6.690 -0.4157  0.1385 -0.3441
 4632TIP3    H135455   2.138   6.550   6.705 -0.9388  0.9158 -1.7877
 4632TIP3    H235456   2.225   6.674   6.706  1.2721 -0.3586  4.3967
 4633TIP3   OH235457   4.397   5.205   6.138 -0.3375  0.0003  0.0942
 4633TIP3    H135458   4.310   5.165   6.139 -0.1782 -0.4834  3.0737
 4633TIP3    H235459   4.451   5.148   6.192  1.4518  1.1186 -0.4034
 4634TIP3   OH235460   4.084   3.172   6.992  0.4398 -0.2469  0.8104
 4634TIP3    H135461   4.173   3.149   6.965  0.2505  1.3138 -1.4545
 4634TIP3    H235462   4.095   3.251   7.044  0.3576  0.6624 -0.4922
 4635TIP3   OH235463   5.894   3.722   7.524  0.2259 -0.3059  0.0292
 4635TIP3    H135464   5.809   3.705   7.483  0.4472 -1.2585 -0.0577
 4635TIP3    H235465   5.919   3.638   7.564  2.1366 -0.7207 -1.8127
 4636TIP3   OH235466   0.900   1.249   0.299 -0.1962  0.3395  0.1404
 4636TIP3    H135467   0.974   1.304   0.273  1.6056 -1.7426  0.5918
 4636TIP3    H235468   0.847   1.243   0.220  1.6340 -0.3797 -1.1170
 4637TIP3   OH235469   0.441   2.584   0.346 -0.6550 -0.2174  0.3734
 4637TIP3    H135470   0.381   2.520   0.383  0.3210 -0.5134  1.5022
 4637TIP3    H235471   0.409   2.669   0.377 -0.2530 -0.4098  1.3296
 4638TIP3   OH235472   2.312   1.345   0.690  0.0260  0.1064  0.0737
 4638TIP3    H135473   2.383   1.296   0.648 -0.9167 -0.0464 -1.4249
 4638TIP3    H235474   2.313   1.430   0.647 -0.1333  0.4252  0.6869
 4639TIP3   OH235475   5.075   4.995   8.281  0.1094  0.3823 -0.8459
 4639TIP3    H135476   5.091   4.911   8.325 -0.0846  0.4070 -0.7265
 4639TIP3    H235477   5.150   5.049   8.306 -0.6966  0.8752  0.6467
 4640TIP3   OH235478   5.715   2.456   8.085 -0.2469  0.2030  0.1819
 4640TIP3    H135479   5.785   2.489   8.028  2.3859  0.3706  3.2294
 4640TIP3    H235480   5.663   2.533   8.107 -1.0724  0.1966 -1.5393
 4641TIP3   OH235481   1.215   1.610   1.568 -0.1217  0.1051  0.6002
 4641TIP3    H135482   1.130   1.568   1.554 -1.7721  2.9752  1.2429
 4641TIP3    H235483   1.206   1.656   1.651  0.9592  2.9476 -0.7264
 4642TIP3   OH235484   2.199   1.862   7.640 -0.3814 -0.3315 -0.2629
 4642TIP3    H135485   2.206   1.905   7.725  1.8237  1.9703 -1.4761
 4642TIP3    H235486   2.105   1.856   7.624 -0.8375  1.9609  1.0462
 4643TIP3   OH235487   4.613   5.137   6.622 -0.3531 -0.0600  0.7131
 4643TIP3    H135488   4.666   5.144   6.701  0.7489 -0.9747  0.0804
 4643TIP3    H235489   4.629   5.049   6.590 -1.3061  0.0725 -0.1705
 4644TIP3   OH235490   0.162   5.956   1.364 -0.3877 -0.2259 -0.0164
 4644TIP3    H135491   0.126   6.044   1.373  0.1272  0.0283 -0.3787
 4644TIP3    H235492   0.154   5.936   1.271 -2.1500 -1.2911  0.3243
 4645TIP3   OH235493   0.516   3.149   7.567  0.1132 -0.4998  0.1613
 4645TIP3    H135494   0.429   3.111   7.550  0.4892 -1.1408 -0.4167
 4645TIP3    H235495   0.569   3.120   7.492  0.5927  0.6393  0.0403
 4646TIP3   OH235496   3.685   1.699   1.876 -0.1224 -0.3510 -0.0072
 4646TIP3    H135497   3.652   1.737   1.794  2.1616  1.2000 -0.3417
 4646TIP3    H235498   3.780   1.709   1.869  0.1415  0.0076  2.9190
 4647TIP3   OH235499   0.987   5.383   8.103  0.0167 -0.6004  0.1185
 4647TIP3    H135500   1.016   5.292   8.112 -0.4400 -0.8783 -1.0342
 4647TIP3    H235501   0.982   5.416   8.193  2.1731 -1.0612  0.4582
 4648TIP3   OH235502   0.064   0.480   8.588 -0.4932 -0.0252  0.3997
 4648TIP3    H135503   0.041   0.454   8.499  2.4806  0.4278 -0.6010
 4648TIP3    H235504   0.145   0.432   8.607 -1.3745 -0.5944  3.1529
 4649TIP3   OH235505   5.483   4.200   0.075 -0.0638  0.1031 -0.6140
 4649TIP3    H135506   5.416   4.181   0.140 -0.2715 -0.1030 -0.8846
 4649TIP3    H235507   5.561   4.219   0.126 -0.1394 -0.3784 -0.3137
 4650TIP3   OH235508   5.401   2.741   7.182 -0.0791  0.0579  0.0569
 4650TIP3    H135509   5.424   2.830   7.156  1.4662 -0.6028 -0.9498
 4650TIP3    H235510   5.449   2.684   7.122 -2.0754 -1.4744 -0.2081
 4651TIP3   OH235511   5.418   5.279   1.448 -0.3392  0.5537  0.6838
 4651TIP3    H135512   5.389   5.193   1.416 -0.3920  0.3862  1.1726
 4651TIP3    H235513   5.471   5.315   1.377  0.8980 -0.5037  1.0539
 4652TIP3   OH235514   5.918   0.158   7.502 -0.1958  0.4841  0.3579
 4652TIP3    H135515   5.874   0.087   7.456 -0.1566  0.1221  0.8750
 4652TIP3    H235516   5.872   0.165   7.586  0.3914  0.4417  0.6924
 4653TIP3   OH235517   6.520   3.743   7.043  0.1083  0.0856  0.6414
 4653TIP3    H135518   6.592   3.738   6.980 -0.6643  0.5849 -0.3247
 4653TIP3    H235519   6.553   3.799   7.113 -0.0963  2.3236 -0.9310
 4654TIP3   OH235520   2.779   2.870   1.151 -0.1938 -0.0497  0.6806
 4654TIP3    H135521   2.873   2.860   1.134 -0.2850 -0.2374  0.2652
 4654TIP3    H235522   2.772   2.871   1.246  0.0358 -2.1657  0.7727
 4655TIP3   OH235523   3.100   6.633   0.622 -0.9996 -0.2638  0.3728
 4655TIP3    H135524   3.066   6.550   0.589  0.6428 -0.3155 -1.3577
 4655TIP3    H235525   3.176   6.609   0.675 -0.0156  0.1433 -0.8188
 4656TIP3   OH235526   5.475   0.455   8.388 -0.0700  0.1554 -0.2705
 4656TIP3    H135527   5.500   0.380   8.442  1.2118  1.0452  0.4239
 4656TIP3    H235528   5.557   0.483   8.348 -0.5677  1.0840 -0.6438
 4657TIP3   OH235529   0.367   1.519   1.323  0.5980 -0.0764 -0.0121
 4657TIP3    H135530   0.342   1.548   1.411  1.1836  0.0676  0.1128
 4657TIP3    H235531   0.298   1.553   1.266  0.3018 -0.0299  0.3711
 4658TIP3   OH235532   5.696   5.954   0.185  0.1411 -0.2590  0.1570
 4658TIP3    H135533   5.686   5.946   0.280 -1.0417 -0.7799  0.0053
 4658TIP3    H235534   5.612   5.925   0.150 -0.9642  3.7209 -0.9081
 4659TIP3   OH235535   0.774   0.113   1.623  0.3577 -0.1842  0.2396
 4659TIP3    H135536   0.797   0.021   1.606  0.8506 -0.1079  0.4598
 4659TIP3    H235537   0.825   0.136   1.701 -0.1678  0.1255  0.4991
 4660TIP3   OH235538   4.972   5.283   7.749 -0.0918  0.3446 -0.3031
 4660TIP3    H135539   4.905   5.350   7.762  0.5763  0.7958  0.9957
 4660TIP3    H235540   4.944   5.210   7.805  1.0617  0.9833  1.1721
 4661TIP3   OH235541   4.071   2.789   1.719 -0.2621 -0.2740 -0.2265
 4661TIP3    H135542   4.158   2.750   1.732 -0.4963 -0.5348  0.6218
 4661TIP3    H235543   4.015   2.741   1.779 -0.5970  1.2535  0.7016
 4662TIP3   OH235544   5.429   4.747   0.319 -0.1899 -0.5215  0.5320
 4662TIP3    H135545   5.383   4.820   0.362  1.4405  1.1046 -0.3420
 4662TIP3    H235546   5.480   4.706   0.389  0.3404  0.4031  0.7119
 4663TIP3   OH235547   2.302   4.452   0.415  0.0070 -0.2201 -0.5712
 4663TIP3    H135548   2.380   4.426   0.465 -2.1316 -2.9184  1.7322
 4663TIP3    H235549   2.298   4.547   0.424  2.7067 -0.0702 -0.3132
 4664TIP3   OH235550   4.596   3.753   6.819  0.2843 -0.0908 -0.3569
 4664TIP3    H135551   4.634   3.777   6.735  0.2754 -1.5387 -0.8017
 4664TIP3    H235552   4.671   3.724   6.872  0.6155  2.7885  0.9314
 4665TIP3   OH235553   4.824   0.360   8.222 -0.4636 -0.8450 -0.4531
 4665TIP3    H135554   4.798   0.442   8.181  0.0927 -0.8021 -0.7244
 4665TIP3    H235555   4.831   0.297   8.150  0.0775 -0.8812 -0.3759
 4666TIP3   OH235556   5.065   5.369   6.809  0.1067 -0.1292  0.5751
 4666TIP3    H135557   4.986   5.335   6.767  0.5919 -1.6765  0.8332
 4666TIP3    H235558   5.056   5.464   6.805 -1.5339 -0.2741  0.1748
 4667TIP3   OH235559   6.412   3.754   2.655  0.5285 -0.0667 -0.9113
 4667TIP3    H135560   6.505   3.750   2.678  0.5700 -1.7873 -1.2923
 4667TIP3    H235561   6.403   3.695   2.581 -0.5379  1.5572 -2.1539
 4668TIP3   OH235562   3.191   0.893   8.411 -0.5023  0.2485 -0.0234
 4668TIP3    H135563   3.118   0.926   8.359  0.1531  1.6315 -0.1172
 4668TIP3    H235564   3.168   0.913   8.501 -0.9760 -0.8347  0.1148
 4669TIP3   OH235565   2.201   2.275   8.091  0.2553  0.1454 -0.0181
 4669TIP3    H135566   2.126   2.320   8.052  0.9613 -0.2317 -1.9242
 4669TIP3    H235567   2.241   2.341   8.148 -2.2806 -0.0833  2.2133
 4670TIP3   OH235568   5.373   6.636   0.583 -0.3746 -0.1290  0.2889
 4670TIP3    H135569   5.362   6.659   0.675 -0.2475 -1.4986  0.6606
 4670TIP3    H235570   5.284   6.621   0.551 -0.2923 -1.7311  0.7597
 4671TIP3   OH235571   3.471   4.814   7.755  0.3913 -0.0243 -0.1229
 4671TIP3    H135572   3.447   4.851   7.840  0.6917 -0.9853  0.3933
 4671TIP3    H235573   3.567   4.819   7.753  0.3905 -0.0851 -0.3701
 4672TIP3   OH235574   4.591   5.689   8.131 -0.4917  0.0812  0.1517
 4672TIP3    H135575   4.576   5.638   8.210 -1.0610  0.8288  0.5355
 4672TIP3    H235576   4.504   5.720   8.106 -0.7259 -2.1208 -2.1475
 4673TIP3   OH235577   6.520   3.098   1.134 -0.1711  0.1109 -0.3085
 4673TIP3    H135578   6.495   3.033   1.068  0.2409 -0.2174 -0.1513
 4673TIP3    H235579   6.489   3.181   1.099 -0.0820 -0.0782 -0.8538
 4674TIP3   OH235580   5.298   0.417   1.891  0.3421 -0.2835  0.0274
 4674TIP3    H135581   5.380   0.461   1.869 -0.3345  1.5634  0.9969
 4674TIP3    H235582   5.320   0.363   1.966  0.3499  1.6132  1.4758
 4675TIP3   OH235583   2.008   6.725   0.380  0.1256 -0.7673  0.3683
 4675TIP3    H135584   2.006   6.806   0.329 -0.0765 -1.5360 -0.8852
 4675TIP3    H235585   2.099   6.695   0.375 -0.3793 -2.1416 -1.7131
 4676TIP3   OH235586   4.735   1.101   7.625 -0.8211  0.0693  0.9696
 4676TIP3    H135587   4.687   1.125   7.546  0.9935 -0.8199 -0.5051
 4676TIP3    H235588   4.787   1.025   7.599  2.5679  1.8759  1.8961
 4677TIP3   OH235589   6.274   1.622   6.591  0.0109  0.6313 -0.1064
 4677TIP3    H135590   6.188   1.597   6.557 -0.1929 -0.7046  1.2787
 4677TIP3    H235591   6.256   1.691   6.655  0.1773  1.6288 -1.1102
 4678TIP3   OH235592   2.397   2.838   8.369  0.2279  0.5240  0.2729
 4678TIP3    H135593   2.456   2.913   8.382  0.5175  0.1590  1.2081
 4678TIP3    H235594   2.370   2.814   8.458  0.0315 -0.3887 -0.0206
 4679TIP3   OH235595   4.938   2.163   1.091  0.3358 -0.0795 -0.1070
 4679TIP3    H135596   4.969   2.243   1.133  0.3874  0.1359 -0.5523
 4679TIP3    H235597   4.857   2.141   1.138 -0.4278  1.0051 -0.8896
 4680TIP3   OH235598   3.912   6.653   6.717  0.2019 -0.2385 -0.2164
 4680TIP3    H135599   3.918   6.732   6.662  0.5927 -0.1137  0.0019
 4680TIP3    H235600   3.924   6.581   6.656  0.6394 -0.0999 -0.2983
 4681TIP3   OH235601   0.456   2.062   0.161 -0.2856 -0.0448  0.2109
 4681TIP3    H135602   0.403   2.035   0.237 -1.4030  1.0116 -0.1769
 4681TIP3    H235603   0.539   2.090   0.200 -0.3615 -0.7601  0.9255
 4682TIP3   OH235604   4.936   5.179   7.069  0.6816 -0.0613 -0.0238
 4682TIP3    H135605   4.878   5.255   7.079  0.4644 -0.3214  0.7760
 4682TIP3    H235606   4.961   5.179   6.977 -0.2736  0.2894 -0.2869
 4683TIP3   OH235607   2.974   3.651   8.286 -0.4314  0.0768  0.4857
 4683TIP3    H135608   2.936   3.564   8.299 -1.0120  0.1140 -0.7369
 4683TIP3    H235609   3.031   3.641   8.210 -0.4003  0.7328  0.4177
 4684TIP3   OH235610   4.281   5.745   2.055 -0.1687 -0.2432 -0.5112
 4684TIP3    H135611   4.272   5.751   2.150 -0.5586  1.5165 -0.6226
 4684TIP3    H235612   4.191   5.731   2.024 -0.3929  1.4355 -0.7169
 4685TIP3   OH235613   6.354   6.433   8.132  0.2914 -0.3196 -0.1821
 4685TIP3    H135614   6.389   6.384   8.057 -0.7665 -1.7670  0.2133
 4685TIP3    H235615   6.259   6.429   8.121 -0.1626 -3.4955  2.8155
 4686TIP3   OH235616   3.741   5.366   0.587 -0.2690 -0.3553  0.4380
 4686TIP3    H135617   3.691   5.359   0.668 -1.8541 -0.3935 -0.4859
 4686TIP3    H235618   3.674   5.364   0.518  0.8808  1.3474 -0.8027
 4687TIP3   OH235619   1.382   2.346   0.259  0.3747  0.1005 -0.1607
 4687TIP3    H135620   1.322   2.367   0.330 -0.2964  0.3448 -0.7844
 4687TIP3    H235621   1.341   2.272   0.214  1.0135 -0.3336 -0.0383
 4688TIP3   OH235622   2.037   4.743   7.060  0.3732  0.4757  0.0705
 4688TIP3    H135623   2.060   4.835   7.049 -0.9073  1.0416  1.6296
 4688TIP3    H235624   1.984   4.721   6.983 -0.1413  1.3574  0.1573
 4689TIP3   OH235625   2.972   5.591   0.032  0.4315 -0.1979 -0.2445
 4689TIP3    H135626   2.969   5.553   0.120  1.2749 -0.7951 -0.4611
 4689TIP3    H235627   3.015   5.525  -0.021  0.3909  0.3746 -1.0042
 4690TIP3   OH235628   4.694   3.225   0.239  0.1371  0.1357  0.0456
 4690TIP3    H135629   4.667   3.291   0.303  1.8757  0.0527  0.9269
 4690TIP3    H235630   4.776   3.190   0.274  0.3501 -0.9943 -1.4841
 4691TIP3   OH235631   5.740   2.641   0.858 -0.2211 -0.2025 -1.2549
 4691TIP3    H135632   5.781   2.563   0.896  0.6153  0.9498  0.3188
 4691TIP3    H235633   5.662   2.655   0.911 -0.0514  0.3526 -1.1468
 4692TIP3   OH235634   0.392   5.532   1.816 -0.2271 -0.3214 -0.1658
 4692TIP3    H135635   0.323   5.486   1.769 -0.4058 -0.3634  0.1358
 4692TIP3    H235636   0.424   5.469   1.880 -0.3385 -0.0990  0.1162
 4693TIP3   OH235637   3.681   2.374   1.488 -0.0298  0.4902  0.1951
 4693TIP3    H135638   3.661   2.451   1.434  1.2048 -1.2365 -2.9951
 4693TIP3    H235639   3.776   2.379   1.503  0.2360 -0.8368 -0.8656
 4694TIP3   OH235640   6.384   1.548   0.235 -0.7946 -0.3847  0.3325
 4694TIP3    H135641   6.307   1.504   0.270 -0.5144  0.7678  2.5759
 4694TIP3    H235642   6.456   1.519   0.292 -0.8088  3.7689  2.8938
 4695TIP3   OH235643   4.930   1.230   6.757  0.3971  0.6329  0.3109
 4695TIP3    H135644   4.875   1.308   6.744  1.9479  1.7121 -0.0263
 4695TIP3    H235645   4.989   1.230   6.681  0.8587 -0.5002  0.6633
 4696TIP3   OH235646   4.158   4.804   0.239  0.7874  0.0329  0.4722
 4696TIP3    H135647   4.078   4.847   0.207  0.9697 -0.8385 -1.2818
 4696TIP3    H235648   4.223   4.822   0.171  0.8779 -2.9179 -0.3408
 4697TIP3   OH235649   0.659   6.824   7.224 -0.0087  0.4353  0.3710
 4697TIP3    H135650   0.670   6.889   7.154  0.0860  1.9309  1.7057
 4697TIP3    H235651   0.734   6.765   7.214  0.4179  1.0698 -0.3356
 4698TIP3   OH235652   1.378   1.864   0.928  0.0669  0.4548 -0.6335
 4698TIP3    H135653   1.408   1.847   0.838  1.4246 -0.5546 -0.0276
 4698TIP3    H235654   1.432   1.807   0.982 -1.1710  0.5783  0.7865
 4699TIP3   OH235655   6.378   6.766   1.879  0.0237 -0.1385 -0.2136
 4699TIP3    H135656   6.363   6.679   1.842  0.8505 -0.2671 -0.2457
 4699TIP3    H235657   6.455   6.756   1.934 -0.0078  0.5281 -0.0443
 4700TIP3   OH235658   3.292   4.290   7.710 -0.0918 -0.3919  0.2068
 4700TIP3    H135659   3.306   4.382   7.729  1.1194 -0.5831  0.3012
 4700TIP3    H235660   3.331   4.243   7.784  0.7102 -1.0106 -0.5861
 4701TIP3   OH235661   3.934   5.257   1.260 -0.0245 -0.3855  0.3704
 4701TIP3    H135662   3.855   5.290   1.302  0.0013 -1.0640  0.9704
 4701TIP3    H235663   3.929   5.290   1.170 -0.1058  1.0362  0.8761
 4702TIP3   OH235664   1.213   3.406   0.794  0.3993  0.1650 -0.8326
 4702TIP3    H135665   1.238   3.332   0.849  1.7187 -0.1114 -1.7352
 4702TIP3    H235666   1.195   3.366   0.708  0.4388  0.8124 -1.1467
 4703TIP3   OH235667   6.122   2.697   7.300 -0.4753 -0.2652  0.0573
 4703TIP3    H135668   6.076   2.614   7.305 -1.3814  0.2731  1.4493
 4703TIP3    H235669   6.205   2.682   7.346 -0.8558 -0.2823  0.7516
 4704TIP3   OH235670   1.480   0.635   0.039  0.1346 -0.2569 -0.1043
 4704TIP3    H135671   1.392   0.615   0.072  0.1568  0.8269  0.6683
 4704TIP3    H235672   1.465   0.674  -0.047 -0.1514  0.1262  0.1188
 4705TIP3   OH235673   5.653   1.651   7.303  0.5363  0.1573  0.9504
 4705TIP3    H135674   5.680   1.656   7.212 -0.5682 -0.7682  0.5494
 4705TIP3    H235675   5.671   1.739   7.338 -0.7504  1.1279 -0.6635
 4706TIP3   OH235676   2.189   1.106   1.561 -0.9362 -0.0877  0.0775
 4706TIP3    H135677   2.115   1.113   1.501 -0.7142 -0.5115 -0.2533
 4706TIP3    H235678   2.154   1.061   1.638 -0.7552 -1.3994 -0.5718
 4707TIP3   OH235679   3.266   0.824   7.213 -0.1065 -0.3158  0.0263
 4707TIP3    H135680   3.356   0.841   7.183  0.0203 -0.8913  0.0574
 4707TIP3    H235681   3.273   0.823   7.308 -0.2067 -0.0552  0.0364
 4708TIP3   OH235682   2.588   1.295   7.663 -0.2589 -0.1429  0.4991
 4708TIP3    H135683   2.635   1.337   7.591 -0.3917 -0.1140  0.4293
 4708TIP3    H235684   2.631   1.210   7.673 -0.6457 -0.4090 -0.0350
 4709TIP3   OH235685   3.128   3.476   0.806  0.2061  0.3220  0.7722
 4709TIP3    H135686   3.170   3.427   0.735 -1.1464 -0.5003  0.4975
 4709TIP3    H235687   3.095   3.556   0.764 -0.3135 -0.0155  0.5221
 4710TIP3   OH235688   6.679   0.407   7.110 -0.4467 -0.3465  0.4106
 4710TIP3    H135689   6.725   0.388   7.192  0.9082 -0.1487 -0.2706
 4710TIP3    H235690   6.675   0.323   7.065  1.9687  0.1161 -0.8330
 4711TIP3   OH235691   4.677   6.826   0.403  0.5620 -0.3661 -0.4348
 4711TIP3    H135692   4.634   6.789   0.480 -0.4232  0.0137 -0.7866
 4711TIP3    H235693   4.763   6.783   0.400 -0.3860 -2.3527 -0.6237
 4712TIP3   OH235694   5.751   0.854   0.342  0.3929 -0.3895 -0.1498
 4712TIP3    H135695   5.742   0.835   0.436 -0.8896  1.2176  0.0895
 4712TIP3    H235696   5.838   0.894   0.335 -0.0313  0.7188  0.6057
 4713TIP3   OH235697   6.085   6.407   0.145 -0.1466  0.1759  0.0981
 4713TIP3    H135698   6.179   6.411   0.131 -0.2553  1.0497 -0.4761
 4713TIP3    H235699   6.062   6.315   0.132  0.4877  0.1256 -0.7071
 4714TIP3   OH235700   4.288   5.817   0.136 -0.2080 -0.8214  0.2044
 4714TIP3    H135701   4.226   5.871   0.185  1.1658  0.0280  1.0582
 4714TIP3    H235702   4.252   5.728   0.142 -0.4570 -0.6206  2.1347
 4715TIP3   OH235703   3.053   1.881   7.352 -0.0341 -0.0921 -0.2356
 4715TIP3    H135704   2.989   1.942   7.314 -1.1495 -1.0535  0.0310
 4715TIP3    H235705   3.097   1.844   7.276  1.1384  1.4952 -0.3869
 4716TIP3   OH235706   6.765   2.282   6.604  0.0041  0.4065  0.2557
 4716TIP3    H135707   6.791   2.218   6.670  0.7649 -0.1174 -0.5345
 4716TIP3    H235708   6.709   2.234   6.544  1.7237  0.0571 -1.1495
 4717TIP3   OH235709   1.480   2.599   1.866  0.0501  0.1202  0.3372
 4717TIP3    H135710   1.495   2.670   1.929 -1.1320  0.2835  0.4459
 4717TIP3    H235711   1.395   2.562   1.891  0.1678 -0.6583 -0.3735
 4718TIP3   OH235712   4.282   0.213   0.797 -0.6122  0.7010  0.6421
 4718TIP3    H135713   4.302   0.249   0.711 -1.8797  0.3269  0.1645
 4718TIP3    H235714   4.300   0.119   0.788  0.7479  0.8741  1.2781
 4719TIP3   OH235715   5.847   4.600   1.070  0.4732  0.2504 -0.2254
 4719TIP3    H135716   5.839   4.544   0.993  0.4491  1.3098 -1.0203
 4719TIP3    H235717   5.880   4.542   1.138 -0.4799 -0.9470 -0.7420
 4720TIP3   OH235718   6.830   3.167   0.760 -0.5638 -0.0890 -0.0597
 4720TIP3    H135719   6.883   3.089   0.741  1.1182  0.8961  0.4171
 4720TIP3    H235720   6.854   3.191   0.850  0.8883  2.4049 -1.0114
 4721TIP3   OH235721   0.822   5.900   8.446 -0.0454  0.0274  0.6423
 4721TIP3    H135722   0.894   5.964   8.445  0.9318 -0.9708 -2.4243
 4721TIP3    H235723   0.743   5.952   8.430  0.4226  0.7261  0.5747
 4722TIP3   OH235724   1.902   0.393   0.260  0.1361  0.1959  0.2183
 4722TIP3    H135725   1.835   0.400   0.192 -0.4902  0.5956  0.8566
 4722TIP3    H235726   1.857   0.420   0.340  1.4159  1.8850  0.4456
 4723TIP3   OH235727   6.438   5.661   0.565 -0.6747 -0.0218 -0.1861
 4723TIP3    H135728   6.467   5.707   0.487 -1.7021  2.0864  0.6052
 4723TIP3    H235729   6.486   5.578   0.564 -0.9317 -0.2354 -3.2065
 4724TIP3   OH235730   2.124   5.176   1.940 -0.0079  0.3335  0.4450
 4724TIP3    H135731   2.146   5.091   1.903 -0.6953  1.5385 -3.1111
 4724TIP3    H235732   2.028   5.177   1.942 -0.0753  1.6401 -1.3668
 4725TIP3   OH235733   3.128   1.435   7.514 -0.7044  0.5685 -0.1898
 4725TIP3    H135734   3.204   1.384   7.542 -1.3102 -0.3301 -0.1634
 4725TIP3    H235735   3.092   1.470   7.596  1.0623  3.0890 -0.3365
 4726TIP3   OH235736   3.501   1.196   1.635 -0.0276  0.3882 -0.0634
 4726TIP3    H135737   3.524   1.103   1.629  0.5059  0.3861  1.6152
 4726TIP3    H235738   3.566   1.241   1.581  0.3838 -0.1232  0.0043
 4727TIP3   OH235739   6.514   6.624   0.048  0.3091 -0.7194 -0.7426
 4727TIP3    H135740   6.570   6.586  -0.020  1.1625 -2.2576  0.7438
 4727TIP3    H235741   6.575   6.676   0.102 -0.3023  0.2499 -0.9685
 4728TIP3   OH235742   4.418   0.037   0.348 -0.1808  0.0101  0.0425
 4728TIP3    H135743   4.347  -0.027   0.355 -0.0153 -0.1679  0.0739
 4728TIP3    H235744   4.498  -0.015   0.342 -0.0236  0.2174  0.3135
 4729TIP3   OH235745   2.394   4.670   8.544 -0.0956  0.0273 -0.2950
 4729TIP3    H135746   2.378   4.754   8.588  0.9306 -0.4471  1.0395
 4729TIP3    H235747   2.316   4.619   8.560 -0.5278  0.5436 -0.7015
 4730TIP3   OH235748   2.699   6.196   7.850 -0.8780 -0.3711  0.0065
 4730TIP3    H135749   2.732   6.227   7.934  0.1272  1.1543 -0.9120
 4730TIP3    H235750   2.620   6.248   7.835 -2.3844 -2.2283  1.0041
 4731TIP3   OH235751   5.838   0.144   7.788 -0.7556  0.2627  0.2586
 4731TIP3    H135752   5.898   0.070   7.784 -0.3443  0.3357  3.1928
 4731TIP3    H235753   5.884   0.210   7.840 -2.1907  1.5363  0.0017
 4732TIP3   OH235754   4.650   2.520   7.199  0.1021 -0.5232 -0.0943
 4732TIP3    H135755   4.736   2.550   7.227 -0.3887  1.5826 -0.6832
 4732TIP3    H235756   4.596   2.599   7.200 -1.4721 -1.5463 -1.0386
 4733TIP3   OH235757   5.363   6.112   6.807 -0.5242 -0.5529  0.2372
 4733TIP3    H135758   5.315   6.193   6.795  1.7230  0.9144  0.5311
 4733TIP3    H235759   5.372   6.076   6.719  1.1891  1.2489 -0.4031
 4734TIP3   OH235760   4.950   3.138   0.362 -0.4646  0.3909  0.5538
 4734TIP3    H135761   4.908   3.067   0.313 -0.5415  0.2964  0.7526
 4734TIP3    H235762   4.990   3.095   0.438  0.7900  0.3545 -0.1064
 4735TIP3   OH235763   2.909   6.844   0.681  0.1624 -0.4276 -0.2802
 4735TIP3    H135764   2.978   6.784   0.709  0.4623 -0.4815 -1.0978
 4735TIP3    H235765   2.883   6.812   0.595  1.1976  1.3332 -1.3066
 4736TIP3   OH235766   3.974   1.506   2.254  0.1641 -0.7925 -0.6506
 4736TIP3    H135767   3.946   1.445   2.322 -1.9651 -1.0513 -1.6638
 4736TIP3    H235768   4.060   1.473   2.226  0.7901 -1.0408  1.4188
 4737TIP3   OH235769   2.872   5.237   2.891 -0.4579  0.1633 -0.0468
 4737TIP3    H135770   2.793   5.214   2.842 -1.5727  1.3096  1.0949
 4737TIP3    H235771   2.909   5.153   2.917 -0.1517 -0.4538 -2.2779
 4738TIP3   OH235772   2.181   3.055   7.453 -0.1122  0.1523  0.2610
 4738TIP3    H135773   2.257   3.005   7.483 -0.8219 -1.3995 -0.4498
 4738TIP3    H235774   2.218   3.128   7.404  0.9453  0.3288  1.2712
 4739TIP3   OH235775   5.312   5.381   8.400 -0.0414  0.4058  0.0088
 4739TIP3    H135776   5.287   5.364   8.309 -1.9919  2.7939 -0.0209
 4739TIP3    H235777   5.391   5.435   8.393  0.7057 -0.6735 -0.1696
 4740TIP3   OH235778   0.839   6.306   8.326 -0.0212  0.4832 -0.6586
 4740TIP3    H135779   0.870   6.395   8.343 -1.4447  0.4673  2.6910
 4740TIP3    H235780   0.911   6.264   8.280  0.7079  3.2900 -2.3469
 4741TIP3   OH235781   3.412   0.050   0.437 -0.3258 -0.2025 -0.4174
 4741TIP3    H135782   3.365   0.124   0.476 -1.6191 -1.8356  1.3128
 4741TIP3    H235783   3.343  -0.003   0.396  0.0769 -2.0062  1.0818
 4742TIP3   OH235784   1.591   0.893   1.776 -0.1826 -0.0405 -0.0455
 4742TIP3    H135785   1.555   0.970   1.819  0.4163  0.6296 -0.7193
 4742TIP3    H235786   1.540   0.820   1.811  2.2053  0.0030  4.2202
 4743TIP3   OH235787   0.613   0.362   6.816 -0.2096 -0.2338  0.5764
 4743TIP3    H135788   0.622   0.444   6.865  0.5866 -0.0338  0.1215
 4743TIP3    H235789   0.642   0.294   6.877  1.4651  0.0842  0.1824
 4744TIP3   OH235790   0.398   5.066   1.440  0.6449  0.7205  0.6342
 4744TIP3    H135791   0.433   5.042   1.354  0.3224  1.1634  0.3737
 4744TIP3    H235792   0.340   4.993   1.463 -1.9715  2.0855 -1.0930
 4745TIP3   OH235793   3.303   0.946   7.651 -0.3670 -0.7429  0.8198
 4745TIP3    H135794   3.392   0.911   7.662  0.3930  0.7264 -0.1941
 4745TIP3    H235795   3.315   1.041   7.653 -1.8665 -0.5147  0.2186
 4746TIP3   OH235796   2.959   3.288   7.604  0.4980  0.1927  0.0341
 4746TIP3    H135797   2.934   3.372   7.566  1.5029  0.7660  0.5991
 4746TIP3    H235798   3.054   3.285   7.596  0.2999 -2.5309 -3.2984
 4747TIP3   OH235799   1.713   1.329   1.122  1.0355  0.0669 -0.0910
 4747TIP3    H135800   1.786   1.351   1.064 -0.2655  0.9205 -1.5025
 4747TIP3    H235801   1.721   1.235   1.137  1.2316 -0.2434 -1.9588
 4748TIP3   OH235802   2.292   4.167   6.841  0.0316 -0.0075  0.3756
 4748TIP3    H135803   2.368   4.215   6.871  0.3779  0.1393 -0.7047
 4748TIP3    H235804   2.327   4.091   6.795 -0.4634  0.1077 -0.2137
 4749TIP3   OH235805   6.635   6.421   7.643  0.5963 -0.2025  0.0443
 4749TIP3    H135806   6.630   6.426   7.738 -0.9387 -0.7807  0.0208
 4749TIP3    H235807   6.550   6.387   7.616  1.3246 -0.9249 -1.4816
 4750TIP3   OH235808   4.886   1.793   7.838  0.4048 -0.7750  0.0985
 4750TIP3    H135809   4.872   1.700   7.823  0.4029 -0.9037  0.8778
 4750TIP3    H235810   4.893   1.830   7.750 -0.9425 -1.2948 -0.2643
 4751TIP3   OH235811   2.051   4.237   1.856 -0.9222  0.9219 -0.4154
 4751TIP3    H135812   2.028   4.298   1.786  0.3313 -2.0535 -3.6895
 4751TIP3    H235813   2.142   4.259   1.878 -0.7553  0.7778 -0.9610
 4752TIP3   OH235814   5.832   6.016   7.780 -0.0439 -0.5506 -0.3849
 4752TIP3    H135815   5.790   6.067   7.850 -0.7186 -1.7811  0.1260
 4752TIP3    H235816   5.904   5.971   7.823  0.6932  0.1084 -0.8863
 4753TIP3   OH235817   0.625   5.478   7.124 -0.1383  0.0980  0.0033
 4753TIP3    H135818   0.657   5.406   7.070 -0.4674 -0.0873  0.0466
 4753TIP3    H235819   0.573   5.434   7.192  1.1562  0.2380  1.1265
 4754TIP3   OH235820   1.907   3.898   2.462  0.2422  0.2394 -0.2458
 4754TIP3    H135821   1.825   3.851   2.478  0.8434 -0.3120  1.4639
 4754TIP3    H235822   1.901   3.976   2.516  2.1158 -1.4049  2.6390
 4755TIP3   OH235823   2.087   0.960   1.847  0.4131  0.6176  0.3841
 4755TIP3    H135824   2.028   0.956   1.923  0.4882  1.8388  0.5240
 4755TIP3    H235825   2.171   0.985   1.884  0.3920  1.4774 -0.1179
 4756TIP3   OH235826   3.314   5.410   1.654 -0.2886  0.3002 -0.1715
 4756TIP3    H135827   3.372   5.437   1.725 -0.2795  0.6883 -0.3226
 4756TIP3    H235828   3.301   5.490   1.603 -1.0209  0.2397 -0.0893
 4757TIP3   OH235829   5.974   2.147   0.929  0.4599  0.0975 -0.1149
 4757TIP3    H135830   6.007   2.236   0.937  0.5990  0.0689 -0.3803
 4757TIP3    H235831   5.920   2.148   0.851 -1.1117  0.4359  0.9270
 4758TIP3   OH235832   3.450   2.294   1.157 -0.0632 -0.2928  0.3299
 4758TIP3    H135833   3.483   2.227   1.217  0.7397 -1.6614 -1.5814
 4758TIP3    H235834   3.357   2.275   1.148  0.4138 -2.0816 -1.2826
 4759TIP3   OH235835   2.963   3.011   1.864 -0.1529  0.1315  0.4393
 4759TIP3    H135836   3.036   2.952   1.844 -1.8507 -1.3063 -2.1228
 4759TIP3    H235837   2.907   2.961   1.924 -1.4255 -0.8496 -1.4737
 4760TIP3   OH235838   4.167   1.402   0.286  0.0033  0.1130  0.0852
 4760TIP3    H135839   4.119   1.485   0.285 -1.1417 -0.5214  0.0804
 4760TIP3    H235840   4.185   1.386   0.379 -1.1757 -0.3740  0.2598
 4761TIP3   OH235841   0.052   4.704   0.695  0.1642  0.6336  0.0840
 4761TIP3    H135842  -0.036   4.726   0.664 -0.6035  0.8703  2.2562
 4761TIP3    H235843   0.085   4.641   0.632 -1.1628  1.2768 -1.3224
 4762TIP3   OH235844   4.525   5.853   7.550 -0.2495  0.0698  0.7735
 4762TIP3    H135845   4.461   5.796   7.591  1.0067 -1.7067  0.3987
 4762TIP3    H235846   4.603   5.798   7.541  0.5982  1.4563 -0.8354
 4763TIP3   OH235847   4.171   2.765   0.609 -0.4277 -0.4212 -0.1253
 4763TIP3    H135848   4.260   2.801   0.613  0.2844 -2.1012 -0.2480
 4763TIP3    H235849   4.162   2.712   0.688 -1.1849 -0.5702 -0.3009
 4764TIP3   OH235850   2.398   6.857   1.307  0.1327 -0.8117 -0.2075
 4764TIP3    H135851   2.409   6.949   1.284  1.1690 -0.5774  1.0840
 4764TIP3    H235852   2.351   6.859   1.391  0.5300 -1.4357  0.0361
 4765TIP3   OH235853   0.207   4.122   0.569  0.6599  0.4686 -0.7564
 4765TIP3    H135854   0.293   4.139   0.608 -0.2577  1.3496  1.0250
 4765TIP3    H235855   0.147   4.118   0.644 -0.5561 -2.3721 -1.7684
 4766TIP3   OH235856   4.873   2.211   0.729  0.3997  0.7735 -0.1924
 4766TIP3    H135857   4.803   2.209   0.795 -0.7780 -2.4446 -1.3385
 4766TIP3    H235858   4.896   2.119   0.717  1.8189  1.4090 -2.9823
 4767TIP3   OH235859   1.338   4.992   7.967 -0.3774 -0.3073 -0.2795
 4767TIP3    H135860   1.254   5.016   8.006  0.2229 -2.1857  2.4356
 4767TIP3    H235861   1.343   4.897   7.977  1.1430 -0.5171 -2.4497
 4768TIP3   OH235862   4.099   5.569   2.366 -0.0049  0.1978 -0.3881
 4768TIP3    H135863   4.006   5.577   2.388  0.2229  0.2293  0.6354
 4768TIP3    H235864   4.109   5.479   2.335 -0.1371 -0.2587  0.8290
 4769TIP3   OH235865   2.439   2.592   0.992  0.0766 -0.2702 -0.5140
 4769TIP3    H135866   2.463   2.500   0.990 -1.2948 -0.6676 -0.1275
 4769TIP3    H235867   2.357   2.596   0.943 -0.4917  0.5383  0.4698
 4770TIP3   OH235868   0.499   4.487   1.944 -0.6140  0.4978 -0.2120
 4770TIP3    H135869   0.434   4.512   1.878  0.2532  2.3236 -0.4269
 4770TIP3    H235870   0.560   4.430   1.897  0.3061  2.2177 -1.1845
 4771TIP3   OH235871   2.083   6.567   1.519 -0.3432  0.1901 -0.1364
 4771TIP3    H135872   2.034   6.500   1.567  1.0968 -0.9749 -0.1868
 4771TIP3    H235873   2.034   6.648   1.533 -0.1498 -0.1002  3.1293
 4772TIP3   OH235874   2.994   0.869   1.240  0.0164  0.1589 -1.4566
 4772TIP3    H135875   2.960   0.941   1.187  0.0467  1.1066 -0.2256
 4772TIP3    H235876   2.923   0.806   1.243 -0.9360  1.2302 -0.5670
 4773TIP3   OH235877   6.128   1.970   1.186 -0.3200 -0.3329 -0.3285
 4773TIP3    H135878   6.200   1.937   1.133  0.8970 -0.1610  1.1604
 4773TIP3    H235879   6.157   2.055   1.217 -0.0345 -1.3047  2.3467
 4774TIP3   OH235880   2.359   0.694   2.070  0.0266 -0.3458 -0.5856
 4774TIP3    H135881   2.314   0.746   2.136  0.8115 -0.2168 -0.1411
 4774TIP3    H235882   2.433   0.748   2.042  0.9120 -1.2342 -0.0569
 4775TIP3   OH235883   1.061   5.456   7.012  0.8906 -0.0738 -0.1921
 4775TIP3    H135884   1.128   5.437   7.077  0.5118 -0.8022  0.0027
 4775TIP3    H235885   1.024   5.370   6.991 -2.2702  0.5318  2.1675
 4776TIP3   OH235886   2.636   1.842   0.585  0.0815  0.0922  0.5673
 4776TIP3    H135887   2.617   1.749   0.579 -0.5061  0.2397 -0.0222
 4776TIP3    H235888   2.551   1.885   0.569  0.4336  0.7264  0.3604
 4777TIP3   OH235889   0.848   3.934   0.382 -0.8146  0.1685 -0.0683
 4777TIP3    H135890   0.939   3.937   0.412 -0.6654 -1.1070 -0.3375
 4777TIP3    H235891   0.834   4.018   0.339  1.1623 -0.6907 -2.5810
 4778TIP3   OH235892   1.927   4.855   0.558  0.3631  0.2829 -0.2562
 4778TIP3    H135893   1.935   4.946   0.588  0.8300  0.0802  0.2582
 4778TIP3    H235894   1.892   4.862   0.469 -2.5822  0.8554  0.8324
 4779TIP3   OH235895   2.155   4.042   1.176  0.1976 -0.3069 -0.9910
 4779TIP3    H135896   2.060   4.050   1.163  0.0939 -1.0453 -0.7675
 4779TIP3    H235897   2.163   3.979   1.248  0.7880  2.1211  1.1692
 4780TIP3   OH235898   0.115   0.024   8.359  0.0154  0.3342  0.6178
 4780TIP3    H135899   0.047  -0.042   8.357 -0.7965  1.0704  2.2823
 4780TIP3    H235900   0.182  -0.008   8.298 -1.2722 -0.9728 -0.1502
 4781TIP3   OH235901   1.057   4.707   0.117 -0.0750 -0.8076  0.0862
 4781TIP3    H135902   1.009   4.700   0.035  0.5660  1.0129 -0.5063
 4781TIP3    H235903   0.991   4.701   0.185 -1.1625  1.3287 -0.6914
 4782TIP3   OH235904   1.718   2.744   7.612 -0.3401 -0.1791  0.5898
 4782TIP3    H135905   1.684   2.765   7.699 -2.8348  0.5120 -0.4362
 4782TIP3    H235906   1.664   2.669   7.583 -0.7442  0.6609 -0.9635
 4783TIP3   OH235907   4.100   0.708   0.865  0.6274 -0.0443  0.0946
 4783TIP3    H135908   4.177   0.731   0.812  0.6797 -1.6012 -0.5786
 4783TIP3    H235909   4.129   0.632   0.916  0.1101  0.5260  1.2642
 4784TIP3   OH235910   3.848   0.483   7.593 -0.2980 -0.2123 -0.1837
 4784TIP3    H135911   3.820   0.518   7.509 -0.3853  1.1849  0.4028
 4784TIP3    H235912   3.780   0.512   7.655 -1.3684 -2.9595  0.0779
 4785TIP3   OH235913   0.281   3.998   1.977 -0.2617 -0.2364  0.2914
 4785TIP3    H135914   0.279   4.079   2.029 -1.0738 -0.2085  0.2290
 4785TIP3    H235915   0.362   4.005   1.926 -1.0065  1.2171 -0.7839
 4786TIP3   OH235916   1.389   1.885   1.853  0.2845  0.3441 -0.9725
 4786TIP3    H135917   1.351   1.972   1.839 -0.4788 -0.0889 -1.6559
 4786TIP3    H235918   1.447   1.896   1.928 -1.0747  1.0772  0.0284
 4787TIP3   OH235919   6.728   6.297   0.972  0.2540  0.0236 -0.2004
 4787TIP3    H135920   6.791   6.361   0.941  0.2520 -1.0926 -2.7760
 4787TIP3    H235921   6.643   6.341   0.963  0.4985  0.9941  1.8345
 4788TIP3   OH235922   1.947   3.389   0.632 -0.1311  0.3775 -0.3025
 4788TIP3    H135923   1.976   3.463   0.579  0.3456  0.8871  0.6459
 4788TIP3    H235924   1.893   3.337   0.573 -0.7764  1.6672 -0.8954
 4789TIP3   OH235925   1.395   6.135   8.445  0.2014 -0.0002 -0.4350
 4789TIP3    H135926   1.412   6.046   8.415  0.2710 -0.5879  1.2529
 4789TIP3    H235927   1.419   6.191   8.371 -1.0905 -1.4292 -2.0054
 4790TIP3   OH235928   5.522   6.334   0.839 -0.2000 -0.0752 -0.2869
 4790TIP3    H135929   5.538   6.428   0.827 -1.7971  0.0963 -1.5443
 4790TIP3    H235930   5.517   6.322   0.933 -0.6504  1.2438 -0.1217
 4791TIP3   OH235931   4.156   2.017   0.126 -0.5503 -0.8637  0.3909
 4791TIP3    H135932   4.226   2.076   0.153  0.2524 -0.9073 -1.4163
 4791TIP3    H235933   4.076   2.060   0.154  0.0904  0.3788  0.4044
 4792TIP3   OH235934   5.080   0.582   1.842 -0.1161 -0.4120  0.0619
 4792TIP3    H135935   5.049   0.653   1.899  1.1982  1.1064 -1.0174
 4792TIP3    H235936   5.148   0.538   1.894  1.0799  0.9618 -0.2749
 4793TIP3   OH235937   5.723   4.513   1.686  0.2637 -0.3461 -0.4559
 4793TIP3    H135938   5.806   4.513   1.735 -0.1159  1.4682  0.2718
 4793TIP3    H235939   5.711   4.604   1.660 -2.2477 -0.2208  0.8271
 4794TIP3   OH235940   1.996   2.130   8.218 -0.2417  0.0460  0.1157
 4794TIP3    H135941   2.017   2.038   8.225  3.1200  0.4039 -2.8485
 4794TIP3    H235942   2.080   2.175   8.211 -1.7526  3.0996 -0.7812
 4795TIP3   OH235943   6.833   2.528   6.486  0.0020 -0.2808  0.3651
 4795TIP3    H135944   6.808   2.609   6.529  0.9770 -0.0980  0.6095
 4795TIP3    H235945   6.818   2.460   6.552  1.4721 -0.0059  1.0378
 4796TIP3   OH235946   3.908   3.746   1.296  0.1017  0.0585  0.2910
 4796TIP3    H135947   3.961   3.820   1.267  1.1702 -0.0028  1.9499
 4796TIP3    H235948   3.955   3.669   1.267  0.2034  0.0165  0.5628
 4797TIP3   OH235949   4.033   2.614   6.908 -0.8935  0.4744  0.3302
 4797TIP3    H135950   3.989   2.691   6.872  0.4706  0.3872 -1.6960
 4797TIP3    H235951   4.094   2.650   6.973 -0.1210  1.1712 -0.7459
 4798TIP3   OH235952   2.673   5.835   7.068 -0.3244 -0.0109 -0.3411
 4798TIP3    H135953   2.631   5.865   6.988 -0.9758 -0.1587 -0.0662
 4798TIP3    H235954   2.753   5.791   7.039 -1.0962 -1.0150 -1.0005
 4799TIP3   OH235955   2.603   0.336   7.536 -0.5688  0.6830 -0.6699
 4799TIP3    H135956   2.635   0.416   7.494  1.9980  1.1678  1.8791
 4799TIP3    H235957   2.610   0.268   7.468  0.8258  1.9084 -1.8054
 4800TIP3   OH235958   0.563   5.136   1.656 -0.4009 -0.1768 -0.4332
 4800TIP3    H135959   0.653   5.134   1.625 -0.6619 -0.5320 -1.1946
 4800TIP3    H235960   0.512   5.099   1.584 -1.4510  2.2538 -1.0330
 4801TIP3   OH235961   2.547   4.998   8.515  0.2149 -0.1553  0.3892
 4801TIP3    H135962   2.588   4.922   8.554  0.4353 -0.8850 -1.2004
 4801TIP3    H235963   2.582   5.073   8.564 -2.1269 -1.0953  3.9155
 4802TIP3   OH235964   4.375   5.355   1.165 -0.4853 -0.2332 -0.3533
 4802TIP3    H135965   4.442   5.385   1.103 -0.3559 -0.2391 -0.2169
 4802TIP3    H235966   4.424   5.301   1.227 -0.3782  0.8977  0.5654
 4803TIP3   OH235967   3.456   5.776   7.307  0.7130  0.1367 -0.0712
 4803TIP3    H135968   3.370   5.735   7.304  0.7060  0.1549 -2.0968
 4803TIP3    H235969   3.512   5.714   7.353 -0.6681  0.8208  2.7162
 4804TIP3   OH235970   1.433   6.459   7.446  0.8243 -0.5889  0.0942
 4804TIP3    H135971   1.345   6.456   7.407  0.7355  0.1090  0.2259
 4804TIP3    H235972   1.434   6.541   7.496  2.0298  0.1434 -1.0693
 4805TIP3   OH235973   0.943   2.904   0.534 -0.8852 -0.4805 -0.0643
 4805TIP3    H135974   0.875   2.939   0.592 -3.1409 -1.3894 -2.0323
 4805TIP3    H235975   0.932   2.810   0.538 -1.5352 -0.5522 -2.4116
 4806TIP3   OH235976   2.166   3.644   7.980 -0.6532 -0.3014  0.1595
 4806TIP3    H135977   2.101   3.713   7.978  0.3240  0.6754  0.9995
 4806TIP3    H235978   2.225   3.663   7.907  0.2186  0.3910  1.0161
 4807TIP3   OH235979   2.888   3.504   1.820 -1.0249  0.0088 -0.1145
 4807TIP3    H135980   2.814   3.459   1.777 -0.5303  0.2619 -1.2720
 4807TIP3    H235981   2.910   3.448   1.894 -0.9774 -1.2315 -1.0367
 4808TIP3   OH235982   5.196   5.557   0.786 -0.7308  0.1994  0.0062
 4808TIP3    H135983   5.285   5.568   0.754 -0.5539 -2.9698 -0.9683
 4808TIP3    H235984   5.144   5.622   0.739  0.8592  1.3108 -0.2692
 4809TIP3   OH235985   2.599   0.389   1.711  0.6364 -0.1557  0.0405
 4809TIP3    H135986   2.613   0.470   1.760 -0.9065  0.3421 -0.2908
 4809TIP3    H235987   2.527   0.409   1.651 -0.9056 -2.1945  1.0666
 4810TIP3   OH235988   4.993   2.751   1.658 -0.3891  0.1801  0.2250
 4810TIP3    H135989   5.048   2.804   1.716  0.5430 -0.9239  0.3778
 4810TIP3    H235990   5.022   2.774   1.570 -1.0348  1.0262  0.2190
 4811TIP3   OH235991   6.781   5.099   6.488 -0.2936 -0.0387  0.2944
 4811TIP3    H135992   6.820   5.179   6.523  1.4691 -1.3900  1.6509
 4811TIP3    H235993   6.839   5.073   6.417 -0.6182 -0.3269  0.1323
 4812TIP3   OH235994   4.629   6.147   1.730  0.4202  0.2663 -0.9756
 4812TIP3    H135995   4.675   6.079   1.781  0.0229 -0.0827 -1.0736
 4812TIP3    H235996   4.635   6.225   1.785 -0.2779 -0.1838 -0.2299
 4813TIP3   OH235997   1.177   4.505   0.931 -0.1702  0.1923 -0.1886
 4813TIP3    H135998   1.226   4.496   0.849  1.8778  0.4596  0.9567
 4813TIP3    H235999   1.160   4.414   0.958  1.1182  0.0489  0.1982
 4814TIP3   OH236000   2.145   1.629   7.894 -0.8774  0.2715  0.5521
 4814TIP3    H136001   2.217   1.593   7.842 -3.3486 -1.9302 -1.6538
 4814TIP3    H236002   2.158   1.724   7.892  1.7300 -0.0382 -0.0193
 4815TIP3   OH236003   0.906   0.312   1.082 -0.8906 -0.0248  0.3809
 4815TIP3    H136004   0.965   0.309   1.007  0.3806  0.5459  1.3320
 4815TIP3    H236005   0.961   0.335   1.156 -2.1565 -0.3512  1.4756
 4816TIP3   OH236006   3.594   2.224   1.734  0.1358  0.5661  1.0888
 4816TIP3    H136007   3.661   2.175   1.780  1.1317  2.0172  1.2534
 4816TIP3    H236008   3.638   2.259   1.656 -1.2542 -0.9973 -0.5098
 4817TIP3   OH236009   1.835   2.740   0.499 -0.2638 -0.2751 -0.0798
 4817TIP3    H136010   1.745   2.712   0.485 -0.5303  0.5205  0.0240
 4817TIP3    H236011   1.839   2.763   0.592 -0.5182  1.6416 -0.5052
 4818TIP3   OH236012   2.343   3.665   1.996 -0.1352  0.2277 -0.5908
 4818TIP3    H136013   2.263   3.615   2.010 -0.7734  1.0860 -1.0407
 4818TIP3    H236014   2.320   3.729   1.928  1.0605  0.2102 -1.0481
 4819TIP3   OH236015   4.094   3.206   0.059  0.4030 -0.2745 -0.5231
 4819TIP3    H136016   4.161   3.272   0.041  0.2982 -0.3220 -1.1317
 4819TIP3    H236017   4.142   3.132   0.096  0.5041  0.1864  0.2753
 4820TIP3   OH236018   4.450   5.807   1.166 -0.4152  0.1404 -0.1639
 4820TIP3    H136019   4.400   5.725   1.165 -0.7854  0.3230 -2.3520
 4820TIP3    H236020   4.392   5.870   1.124  0.8506  0.8744 -0.8614
 4821TIP3   OH236021   6.023   3.940   7.641  0.2965  0.9626 -0.3667
 4821TIP3    H136022   6.000   3.864   7.587  0.0142  0.4979  0.4027
 4821TIP3    H236023   5.974   4.013   7.602  0.7845  0.8160 -1.2784
 4822TIP3   OH236024   1.087   2.405   6.835  0.0479  0.2163  0.3363
 4822TIP3    H136025   1.088   2.485   6.782 -1.8381 -1.2662 -2.1966
 4822TIP3    H236026   1.133   2.340   6.782  2.0165 -0.3478  2.5759
 4823TIP3   OH236027   1.120   0.445   1.217 -0.1386 -0.3335 -0.3843
 4823TIP3    H136028   1.054   0.510   1.195  0.3927  0.1806 -0.4811
 4823TIP3    H236029   1.202   0.480   1.182  0.2911 -0.6725  0.2449
 4824TIP3   OH236030   4.900   5.076   2.163  0.0980 -0.4788 -0.6577
 4824TIP3    H136031   4.879   4.990   2.198 -1.0977 -0.0737 -0.3281
 4824TIP3    H236032   4.872   5.137   2.231  0.6528  0.1778 -1.0119
 4825TIP3   OH236033   3.905   1.491   8.594  0.4351  0.3778  0.3081
 4825TIP3    H136034   3.872   1.571   8.554 -0.3930  0.0604  0.3430
 4825TIP3    H236035   3.853   1.480   8.673  0.3796 -0.3171  0.1807
 4826TIP3   OH236036   6.826   5.528   6.971 -0.3355  0.1002 -0.4290
 4826TIP3    H136037   6.909   5.546   6.926 -0.8573  0.3848 -1.3059
 4826TIP3    H236038   6.816   5.433   6.966 -0.1369  0.0800 -0.4518
 4827TIP3   OH236039   4.146   0.158   7.632 -0.8141  0.2504 -0.2419
 4827TIP3    H136040   4.125   0.245   7.598  1.0265  0.2479 -1.5095
 4827TIP3    H236041   4.062   0.111   7.630 -1.6250  1.6579 -0.5486
 4828TIP3   OH236042   5.773   6.359   2.053  0.1129 -0.0529  0.0284
 4828TIP3    H136043   5.805   6.360   1.962  0.6672  0.3397  0.2178
 4828TIP3    H236044   5.686   6.321   2.048 -0.0500  0.3930 -0.7364
 4829TIP3   OH236045   1.231   2.426   0.986  0.7222  0.5386  0.6863
 4829TIP3    H136046   1.314   2.400   0.945 -0.1064  0.1401 -0.8149
 4829TIP3    H236047   1.228   2.521   0.978 -0.5497  0.3507 -2.6332
 4830TIP3   OH236048   1.739   2.696   7.267  0.3951 -0.2780 -0.2860
 4830TIP3    H136049   1.794   2.644   7.207  0.3126  0.9067 -1.4423
 4830TIP3    H236050   1.789   2.776   7.282  0.7293 -0.8259  1.8439
 4831TIP3   OH236051   6.816   5.837   1.275  0.0111 -0.1390  0.0117
 4831TIP3    H136052   6.764   5.757   1.276  0.1323 -0.2173  0.0615
 4831TIP3    H236053   6.756   5.904   1.242  0.2773 -0.4972 -1.2357
 4832TIP3   OH236054   4.234   2.829   2.300  0.4262 -0.0066  0.7407
 4832TIP3    H136055   4.322   2.869   2.304  1.1712 -1.5069  0.1360
 4832TIP3    H236056   4.249   2.737   2.321 -1.0590 -0.2499  0.8281
 4833TIP3   OH236057   3.712   4.606   1.544  0.6023  0.3138 -0.0692
 4833TIP3    H136058   3.682   4.530   1.494  2.2389  0.0754 -0.7615
 4833TIP3    H236059   3.633   4.643   1.583 -0.3204 -1.2973 -0.3477
 4834TIP3   OH236060   1.289   4.694   1.796 -0.6034  0.2713 -0.1817
 4834TIP3    H136061   1.355   4.757   1.767  0.9788 -1.5842 -0.9090
 4834TIP3    H236062   1.288   4.702   1.891 -0.0470  1.0104 -0.2285
 4835TIP3   OH236063   1.067   6.510   0.096 -0.7295 -0.3060  0.1189
 4835TIP3    H136064   1.127   6.463   0.038 -1.0238  0.8230 -1.1586
 4835TIP3    H236065   1.086   6.475   0.183 -0.6057 -2.4178 -0.6882
 4836TIP3   OH236066   0.786   4.419   7.824  0.5750  0.4587 -0.2990
 4836TIP3    H136067   0.779   4.495   7.882 -1.3404  0.7965 -0.8924
 4836TIP3    H236068   0.852   4.363   7.866  0.1730  1.2717  1.5264
 4837TIP3   OH236069   6.067   1.461   7.644  0.2342  0.1601  0.4983
 4837TIP3    H136070   6.049   1.450   7.550  2.4242 -0.0578  0.0714
 4837TIP3    H236071   6.120   1.385   7.667  0.3837  0.6347  1.7447
 4838TIP3   OH236072   5.553   1.671   8.143 -0.7581 -0.1283  0.1009
 4838TIP3    H136073   5.605   1.612   8.198  0.1241  1.5169  1.1103
 4838TIP3    H236074   5.617   1.714   8.086 -1.7311 -2.5690 -3.1531
 4839TIP3   OH236075   2.590   4.068   8.090  0.2816  0.0210  0.0660
 4839TIP3    H136076   2.620   4.114   8.011 -0.2623  0.2727  0.0006
 4839TIP3    H236077   2.605   4.131   8.161 -1.5499  0.7868 -0.1750
 4840TIP3   OH236078   5.827   4.425   0.826  0.5609 -0.2512  0.3581
 4840TIP3    H136079   5.868   4.348   0.787  2.3976  0.4879  0.7524
 4840TIP3    H236080   5.735   4.419   0.798  1.2390 -1.0782 -1.9913
 4841TIP3   OH236081   5.083   0.596   6.456  0.3032 -0.3451  0.3468
 4841TIP3    H136082   5.166   0.594   6.502  0.4745 -0.0700  0.0557
 4841TIP3    H236083   5.045   0.510   6.470  0.1934 -0.1522  1.2839
 4842TIP3   OH236084   4.356   6.895   1.488  0.1038  0.5535 -0.1574
 4842TIP3    H136085   4.334   6.808   1.520  1.8305  0.3153  0.4646
 4842TIP3    H236086   4.312   6.955   1.548 -0.3094  0.1258 -0.0272
 4843TIP3   OH236087   5.797   6.731   7.621 -0.2556 -0.6154  0.1839
 4843TIP3    H136088   5.778   6.748   7.529 -1.3223 -1.4942  0.2139
 4843TIP3    H236089   5.870   6.789   7.642  1.0023 -1.4722 -1.6036
 4844TIP3   OH236090   4.826   2.348   8.438  0.0895  0.1812 -0.1097
 4844TIP3    H136091   4.902   2.402   8.460 -0.7266  1.1994  0.3074
 4844TIP3    H236092   4.762   2.410   8.403  0.7397 -1.1367 -4.0760
 4845TIP3   OH236093   5.367   3.294   7.695 -0.2748  0.3500 -0.2527
 4845TIP3    H136094   5.435   3.296   7.762 -0.1910 -0.4934 -0.3106
 4845TIP3    H236095   5.323   3.379   7.703 -1.5465 -0.4526  2.2104
 4846TIP3   OH236096   1.681   2.356   1.485 -0.0350  0.6794 -1.0318
 4846TIP3    H136097   1.612   2.334   1.547  2.0353 -1.7514  0.5998
 4846TIP3    H236098   1.737   2.417   1.532  0.4155  0.4875 -1.3090
 4847TIP3   OH236099   2.079   1.882   2.087 -0.7582  0.0259 -0.3096
 4847TIP3    H136100   2.055   1.880   1.995  1.8635  0.3976 -1.0930
 4847TIP3    H236101   2.014   1.939   2.128 -3.0601 -1.5754 -1.5090
 4848TIP3   OH236102   5.126   5.721   1.816  0.1359  0.0398 -0.0927
 4848TIP3    H136103   5.040   5.763   1.817 -0.0383 -0.3145 -0.0227
 4848TIP3    H236104   5.120   5.656   1.746  0.1003 -0.4956  0.3971
 4849TIP3   OH236105   4.786   0.797   7.786  0.8715 -0.1185 -0.4568
 4849TIP3    H136106   4.822   0.709   7.775  1.0634  0.0381 -1.1864
 4849TIP3    H236107   4.826   0.848   7.714 -0.2225  0.2423 -0.8313
 4850TIP3   OH236108   0.556   2.214   2.170  0.2304 -0.3980 -0.2348
 4850TIP3    H136109   0.545   2.179   2.081  1.1988 -0.8336 -0.1951
 4850TIP3    H236110   0.554   2.137   2.226  2.6474 -0.4789 -0.1680
 4851TIP3   OH236111   0.231   4.509   1.191 -0.3071 -0.5075 -0.4502
 4851TIP3    H136112   0.141   4.478   1.184 -1.0575  1.7951 -1.8881
 4851TIP3    H236113   0.284   4.433   1.167 -1.9289 -1.3203 -1.6539
 4852TIP3   OH236114   3.964   0.944   6.896  0.6463  0.3543  0.5114
 4852TIP3    H136115   3.987   0.859   6.932  0.5459  0.1165  0.0134
 4852TIP3    H236116   3.904   0.982   6.960 -0.9425 -0.8073 -0.2460
 4853TIP3   OH236117   2.070   5.951   8.258 -0.6100  0.0374 -0.0578
 4853TIP3    H136118   2.104   5.927   8.172  1.4639  0.9815  0.4392
 4853TIP3    H236119   1.983   5.911   8.262 -0.3341 -0.8767 -2.1723
 4854TIP3   OH236120   4.925   2.772   2.355  0.6024  0.4889  0.1426
 4854TIP3    H136121   4.838   2.807   2.337  0.9250  0.7515 -0.9899
 4854TIP3    H236122   4.912   2.677   2.356  0.3659  0.5043 -0.4787
 4855TIP3   OH236123   1.111   5.791   0.787  0.2184 -0.0969  0.2358
 4855TIP3    H136124   1.192   5.800   0.736  0.7028 -1.7884  0.6204
 4855TIP3    H236125   1.063   5.720   0.744 -0.7160  0.3727  0.4691
 4856TIP3   OH236126   6.801   0.236   8.157 -0.1534 -0.6166 -0.2130
 4856TIP3    H136127   6.868   0.174   8.128 -0.1473 -1.6310  1.7851
 4856TIP3    H236128   6.718   0.193   8.136 -0.1491 -1.3842  1.1877
 4857TIP3   OH236129   0.167   3.899   1.674  0.4314 -0.4097  0.7281
 4857TIP3    H136130   0.180   3.985   1.634  0.7027 -0.2452  1.1720
 4857TIP3    H236131   0.076   3.877   1.653 -0.1651  0.7213  2.0279
 4858TIP3   OH236132   5.999   4.171   8.528 -0.5091  0.2469 -0.6451
 4858TIP3    H136133   6.021   4.085   8.492 -2.0312 -0.2936 -0.3882
 4858TIP3    H236134   6.021   4.233   8.459  1.7295 -0.2004 -0.3936
 4859TIP3   OH236135   1.953   2.492   0.635 -0.7493  0.5285  0.0674
 4859TIP3    H136136   1.890   2.503   0.706 -1.6538 -0.0053 -0.6206
 4859TIP3    H236137   1.903   2.448   0.566  0.2378  0.5930 -0.7097
 4860TIP3   OH236138   5.263   2.704   1.215 -0.2091  0.0416  0.1177
 4860TIP3    H136139   5.325   2.716   1.143  0.6055 -1.7346  0.4536
 4860TIP3    H236140   5.278   2.614   1.244 -1.8283  0.1050  1.2916
 4861TIP3   OH236141   3.408   0.998   2.105 -0.2759 -0.2284 -0.1557
 4861TIP3    H136142   3.414   1.093   2.098 -2.1513 -0.1383 -1.2541
 4861TIP3    H236143   3.499   0.968   2.106  0.3486  1.4977 -0.9623
 4862TIP3   OH236144   3.642   3.295   8.040  0.4198 -0.1051  0.3643
 4862TIP3    H136145   3.702   3.273   8.111  0.1473  0.2129  0.7017
 4862TIP3    H236146   3.573   3.229   8.045  0.1275  0.2245  0.7333
 4863TIP3   OH236147   1.544   5.658   7.279 -0.3678  0.1291  0.7200
 4863TIP3    H136148   1.562   5.566   7.299 -1.6398 -0.0090  1.3136
 4863TIP3    H236149   1.628   5.702   7.294 -0.3589 -0.5205  2.9846
 4864TIP3   OH236150   1.267   6.283   0.997  0.4675 -0.0454  0.1980
 4864TIP3    H136151   1.187   6.305   1.046  0.6545 -0.8943  0.8927
 4864TIP3    H236152   1.234   6.254   0.911 -0.0691 -1.4529  0.8437
 4865TIP3   OH236153   5.413   6.279   6.208  0.6754  0.1163  0.3046
 4865TIP3    H136154   5.433   6.213   6.274  0.3433  0.3989  0.6883
 4865TIP3    H236155   5.318   6.283   6.206  0.6948  1.0013  0.7091
 4866TIP3   OH236156   2.135   1.901   8.190  0.3612  0.2425 -0.6223
 4866TIP3    H136157   2.157   1.843   8.263 -1.8242 -0.5865 -0.5358
 4866TIP3    H236158   2.203   1.885   8.125  1.9637  0.4744  0.9137
 4867TIP3   OH236159   2.389   1.545   7.776  0.5786 -0.2549  0.3332
 4867TIP3    H136160   2.456   1.609   7.801  1.8507 -1.6853  0.7360
 4867TIP3    H236161   2.428   1.460   7.798 -1.1613 -1.1639  0.0558
 4868TIP3   OH236162   2.385   6.620   1.173 -0.1706 -0.5469  0.3245
 4868TIP3    H136163   2.336   6.553   1.220  0.4542 -1.2681 -0.0149
 4868TIP3    H236164   2.373   6.700   1.225  0.3902 -1.2828  1.6462
 4869TIP3   OH236165   4.936   0.172   2.380  0.6438  0.5040  0.3617
 4869TIP3    H136166   4.842   0.155   2.379  0.6530  0.2797 -1.9586
 4869TIP3    H236167   4.966   0.135   2.463 -1.1283 -0.5700  0.5717
 4870TIP3   OH236168   2.876   2.558   1.890  0.0170 -0.0838  0.2188
 4870TIP3    H136169   2.855   2.603   1.972  2.5359 -1.2642  1.6308
 4870TIP3    H236170   2.931   2.619   1.842 -1.3287  0.5439 -0.5966
 4871TIP3   OH236171   1.226   3.079   1.667 -0.2403 -0.3880  0.0071
 4871TIP3    H136172   1.188   2.993   1.685 -0.3794 -0.2020  0.6425
 4871TIP3    H236173   1.208   3.130   1.746 -0.3834  0.3050 -0.4568
 4872TIP3   OH236174   3.489   0.767   7.682 -0.5530 -0.4821  0.1390
 4872TIP3    H136175   3.433   0.755   7.758  0.2975  0.3041  0.9149
 4872TIP3    H236176   3.516   0.678   7.658  0.2158 -0.6776  1.5812
 4873TIP3   OH236177   2.970   1.058   8.328 -0.4239 -0.2131 -0.0423
 4873TIP3    H136178   3.014   1.059   8.242  0.0681 -0.4661  0.2022
 4873TIP3    H236179   2.939   1.147   8.339  0.4942  0.1174  0.0064
 4874TIP3   OH236180   0.261   4.862   0.777  0.5988  0.3583 -0.0037
 4874TIP3    H136181   0.181   4.813   0.757  0.5023  1.0659 -1.5005
 4874TIP3    H236182   0.237   4.954   0.768  1.7791  0.5699 -1.4334
 4875TIP3   OH236183   3.955   0.479   7.929  0.2351  0.4846 -0.1406
 4875TIP3    H136184   3.929   0.389   7.947  0.1597  0.4447 -0.4461
 4875TIP3    H236185   4.049   0.480   7.942  0.4609  0.0102 -1.5329
 4876TIP3   OH236186   0.289   0.735   0.728 -0.4056 -0.1180  0.2474
 4876TIP3    H136187   0.230   0.709   0.656 -0.3886 -0.3116  0.3023
 4876TIP3    H236188   0.231   0.754   0.801 -0.3420 -3.2287  1.2820
 4877TIP3   OH236189   4.686   4.872   7.070 -0.3602  0.1500 -0.3179
 4877TIP3    H136190   4.726   4.925   7.001  1.1668 -1.2291 -0.5647
 4877TIP3    H236191   4.648   4.935   7.131  0.0595  1.4518 -1.3649
 4878TIP3   OH236192   5.515   0.510   0.443  0.0351  0.1233 -0.0837
 4878TIP3    H136193   5.484   0.419   0.446 -0.9863  0.3554 -2.0428
 4878TIP3    H236194   5.460   0.552   0.377  1.6830  1.7162 -0.5198
 4879TIP3   OH236195   3.760   4.609   7.215 -0.0957  0.0890 -0.7606
 4879TIP3    H136196   3.755   4.624   7.120 -3.3368 -2.5999 -1.2157
 4879TIP3    H236197   3.804   4.525   7.223 -0.1040  0.1665  0.1103
 4880TIP3   OH236198   3.009   6.125   8.262  0.5760  0.1465 -0.2623
 4880TIP3    H136199   2.937   6.063   8.279  0.0070  0.6264 -0.8875
 4880TIP3    H236200   3.088   6.074   8.278  0.1508 -1.0896 -1.8438
 4881TIP3   OH236201   0.660   1.513   0.152 -0.5808 -0.1446  0.0296
 4881TIP3    H136202   0.727   1.571   0.118  1.0208 -1.3295  1.0112
 4881TIP3    H236203   0.591   1.571   0.183  1.3055  1.3305  1.7545
 4882TIP3   OH236204   6.046   2.654   8.158 -0.9713  0.0454  0.0453
 4882TIP3    H136205   6.020   2.669   8.249 -0.6051  0.9001  0.0251
 4882TIP3    H236206   6.075   2.740   8.127  2.3394 -0.8557  0.2085
 4883TIP3   OH236207   1.323   4.071   0.458 -0.1911 -0.1250 -0.1915
 4883TIP3    H136208   1.403   4.048   0.505 -0.4698  0.2518  0.4932
 4883TIP3    H236209   1.350   4.081   0.367  1.0902  2.5385  0.3750
 4884TIP3   OH236210   5.500   2.317   6.454  0.0119 -0.5206  0.0999
 4884TIP3    H136211   5.431   2.294   6.392 -0.7339  0.3470  0.5919
 4884TIP3    H236212   5.460   2.381   6.512  1.2889  0.1354  0.2871
 4885TIP3   OH236213   1.801   2.555   6.146  0.0779 -0.3127 -0.7204
 4885TIP3    H136214   1.876   2.551   6.206 -0.5873  1.0679  0.2713
 4885TIP3    H236215   1.762   2.468   6.151  1.5919 -1.0464 -1.2501
 4886TIP3   OH236216   6.822   3.578   6.322  0.0366  0.0390 -0.4928
 4886TIP3    H136217   6.740   3.582   6.272 -1.1382 -0.3653  1.3094
 4886TIP3    H236218   6.814   3.499   6.375  0.5086  1.2866  1.5294
 4887TIP3   OH236219   5.158   2.853   0.962 -0.4958  0.1870 -0.6126
 4887TIP3    H136220   5.165   2.819   1.051 -0.7212 -0.2222 -0.7455
 4887TIP3    H236221   5.233   2.816   0.916 -0.4317  0.3210 -0.6158
 4888TIP3   OH236222   2.307   0.612   0.388 -0.0593  0.1490 -0.3852
 4888TIP3    H136223   2.337   0.582   0.303  1.5917  0.2173  0.1478
 4888TIP3    H236224   2.274   0.532   0.430 -0.6599  0.0739 -0.9790
 4889TIP3   OH236225   1.846   6.522   1.187 -0.5529 -0.2415 -0.1195
 4889TIP3    H136226   1.752   6.505   1.199 -0.7898 -2.3473 -3.4667
 4889TIP3    H236227   1.882   6.436   1.164  2.0471  0.6948  0.1818
 4890TIP3   OH236228   0.816   3.048   8.503 -0.5057 -0.0477  0.1411
 4890TIP3    H136229   0.895   3.009   8.541 -0.8541 -0.7413  0.1707
 4890TIP3    H236230   0.792   3.117   8.564 -0.4214 -0.4160  0.6024
 4891TIP3   OH236231   3.981   2.928   0.508  1.0932 -0.2608 -0.4249
 4891TIP3    H136232   4.023   2.845   0.532 -0.2685 -1.1065 -0.8847
 4891TIP3    H236233   3.951   2.914   0.418 -3.3579 -1.0809  0.9570
 4892TIP3   OH236234   5.074   4.012   0.075  0.5805 -0.3140  0.1219
 4892TIP3    H136235   5.124   3.931   0.066  1.0146  0.0021 -0.3929
 4892TIP3    H236236   4.984   3.987   0.057  0.2661 -1.2082  2.6149
 4893TIP3   OH236237   2.724   2.060   7.113 -0.1317  0.4071  0.1467
 4893TIP3    H136238   2.632   2.082   7.126 -0.0192  0.5678  0.7366
 4893TIP3    H236239   2.723   1.975   7.070 -0.5547  0.3215  0.3219
 4894TIP3   OH236240   3.458   2.655   1.687  0.3038  0.0029  0.0017
 4894TIP3    H136241   3.391   2.722   1.698 -0.4154 -0.3437 -1.9336
 4894TIP3    H236242   3.539   2.698   1.715 -0.3857  1.1100  0.3812
 4895TIP3   OH236243   1.424   3.897   0.034  0.1877 -0.6830  0.4240
 4895TIP3    H136244   1.510   3.878  -0.002  0.1671  2.9468 -2.1125
 4895TIP3    H236245   1.442   3.945   0.115  0.7116  0.8732 -0.5578
 4896TIP3   OH236246   5.889   5.101   1.491 -0.2388 -0.3510 -0.0911
 4896TIP3    H136247   5.855   5.046   1.420  2.7287 -1.4203 -0.8480
 4896TIP3    H236248   5.953   5.046   1.536 -0.4368  1.0490  2.0692
 4897TIP3   OH236249   1.174   1.464   0.844 -0.1964 -0.0180 -0.8735
 4897TIP3    H136250   1.174   1.509   0.928  1.4326 -0.3266 -0.6707
 4897TIP3    H236251   1.120   1.386   0.858 -1.8792  1.1171 -0.8312
 4898TIP3   OH236252   3.177   6.064   8.470  0.5292  0.5443  0.2734
 4898TIP3    H136253   3.197   6.051   8.377  1.0482 -1.4715  0.6320
 4898TIP3    H236254   3.082   6.076   8.473  0.6703  2.1770 -0.6384
 4899TIP3   OH236255   0.264   2.918   7.651 -0.3847  0.3432 -0.6652
 4899TIP3    H136256   0.348   2.873   7.645  0.1877  1.1985  0.5207
 4899TIP3    H236257   0.211   2.881   7.580  0.2897 -1.6496 -0.1869
 4900TIP3   OH236258   6.292   1.647   1.595  0.1750  0.6582 -0.0700
 4900TIP3    H136259   6.293   1.685   1.507 -0.7612 -1.7031 -1.1874
 4900TIP3    H236260   6.330   1.714   1.651 -0.3040  2.7100 -2.0777
 4901TIP3   OH236261   3.164   4.969   1.308  0.1502  0.0047  0.4821
 4901TIP3    H136262   3.211   4.903   1.358 -1.1380 -1.3908 -0.0811
 4901TIP3    H236263   3.222   5.045   1.309  0.6891 -0.3477  3.0522
 4902TIP3   OH236264   5.263   0.501   6.856  0.2420  0.3858 -0.4425
 4902TIP3    H136265   5.347   0.471   6.889 -0.8191 -2.3636  0.0071
 4902TIP3    H236266   5.198   0.461   6.913 -1.4378  1.6790 -1.3269
 4903TIP3   OH236267   2.078   5.496   7.036  0.6354  0.1907  0.2378
 4903TIP3    H136268   2.074   5.525   6.945  2.8475 -0.1271 -0.0212
 4903TIP3    H236269   2.074   5.576   7.088  0.6012  0.4687 -0.1920
 4904TIP3   OH236270   2.571   3.935   1.593 -0.4973 -0.0296  0.4170
 4904TIP3    H136271   2.609   3.989   1.524  1.7877 -2.3362 -0.2824
 4904TIP3    H236272   2.482   3.917   1.563 -0.2024  0.6424 -0.9261
 4905TIP3   OH236273   5.747   5.208   0.405  0.2279  0.0080 -0.4854
 4905TIP3    H136274   5.781   5.201   0.495 -0.8887  0.6409  0.0131
 4905TIP3    H236275   5.712   5.121   0.386 -1.0533  0.3210  0.3521
 4906TIP3   OH236276   5.543   3.700   6.622  0.3261  0.0695  0.4005
 4906TIP3    H136277   5.536   3.626   6.562  0.0315  0.7151 -0.3844
 4906TIP3    H236278   5.459   3.745   6.614 -0.9913 -1.5155  3.6198
 4907TIP3   OH236279   3.094   2.306   7.444  0.6022 -0.3046  0.0072
 4907TIP3    H136280   3.168   2.246   7.452  0.7472 -0.2240 -0.6594
 4907TIP3    H236281   3.038   2.266   7.378 -0.7841 -1.1942  1.6330
 4908TIP3   OH236282   2.878   0.867   1.700  0.2750 -0.5462  0.2916
 4908TIP3    H136283   2.952   0.878   1.640 -0.1049  1.6834  0.1654
 4908TIP3    H236284   2.821   0.941   1.682 -0.3531 -0.3690  2.7206
 4909TIP3   OH236285   6.142   5.979   0.507  0.1755 -0.0242 -0.3682
 4909TIP3    H136286   6.094   6.023   0.576 -0.6247  3.2561 -2.8046
 4909TIP3    H236287   6.230   6.016   0.512  0.1973 -0.0012 -0.8969
 4910TIP3   OH236288   5.088   0.113   8.233 -0.7467 -0.2992  0.2164
 4910TIP3    H136289   5.067   0.056   8.160  1.4042 -0.8798 -0.0174
 4910TIP3    H236290   5.183   0.115   8.235 -0.7476  2.1140  1.1440
 4911TIP3   OH236291   3.588   4.709   8.489 -0.1643 -0.2122 -0.3920
 4911TIP3    H136292   3.504   4.676   8.457 -1.7647  0.7542  2.4523
 4911TIP3    H236293   3.640   4.631   8.506 -2.1894 -1.1779  1.9578
 4912TIP3   OH236294   2.134   3.382   7.918  0.2936 -0.0811  0.4118
 4912TIP3    H136295   2.210   3.343   7.960  2.3064  2.0498 -1.0260
 4912TIP3    H236296   2.117   3.461   7.970 -1.4056 -0.8350  1.0885
 4913TIP3   OH236297   0.223   6.586   0.686 -0.2307  0.3251 -0.2861
 4913TIP3    H136298   0.307   6.545   0.666  0.1950  0.1702  1.6358
 4913TIP3    H236299   0.215   6.656   0.621  2.5010  1.8342  0.8420
 4914TIP3   OH236300   5.047   2.337   0.318 -0.6815  0.6501 -0.0583
 4914TIP3    H136301   5.022   2.284   0.242  0.1884 -1.8004  1.2583
 4914TIP3    H236302   4.975   2.324   0.381  1.1714 -2.1907  1.7098
 4915TIP3   OH236303   6.881   4.054   6.481  0.2845  0.5347  0.2451
 4915TIP3    H136304   6.905   4.015   6.397 -0.0720 -0.8911  0.7774
 4915TIP3    H236305   6.956   4.036   6.537  0.5618  1.5695  0.2194
 4916TIP3   OH236306   0.962   1.755   7.645  0.5577 -0.2253  0.4410
 4916TIP3    H136307   1.043   1.783   7.603  1.7340 -2.3961  1.0779
 4916TIP3    H236308   0.911   1.715   7.574  0.6845 -0.1350  0.2990
 4917TIP3   OH236309   3.172   4.687   1.233 -0.2185 -0.3883 -0.3031
 4917TIP3    H136310   3.113   4.757   1.262  1.3385  0.2476  1.5739
 4917TIP3    H236311   3.259   4.726   1.236  0.7076 -2.3646  0.7552
 4918TIP3   OH236312   3.356   0.341   1.416 -1.0494 -0.3912 -0.5791
 4918TIP3    H136313   3.286   0.402   1.396 -0.7294  0.7450  1.4795
 4918TIP3    H236314   3.428   0.368   1.359 -1.4429  0.0949 -0.8547
 4919TIP3   OH236315   4.827   1.818   1.865 -0.4882  0.2913 -0.0119
 4919TIP3    H136316   4.850   1.725   1.861 -1.1313  0.0412  1.4590
 4919TIP3    H236317   4.809   1.842   1.773  2.0891 -0.3540 -0.7535
 4920TIP3   OH236318   2.689   4.075   6.700  0.8477  0.2862  0.2400
 4920TIP3    H136319   2.641   4.158   6.693 -0.3428 -0.2594  1.4874
 4920TIP3    H236320   2.775   4.101   6.732  0.2547  1.0103  1.3436
 4921TIP3   OH236321   3.933   4.304   1.400  0.0444  0.1885  0.8272
 4921TIP3    H136322   3.847   4.333   1.431  0.1866  1.2877  0.2664
 4921TIP3    H236323   3.947   4.355   1.320  0.3653 -1.4140 -0.1885
 4922TIP3   OH236324   3.814   1.372   7.129 -0.0751 -0.2176 -0.3562
 4922TIP3    H136325   3.775   1.327   7.205 -0.6447  0.0839 -0.4690
 4922TIP3    H236326   3.874   1.436   7.168 -1.7285  1.2148 -0.0907
 4923TIP3   OH236327   4.818   1.874   8.272 -0.6238 -0.0693 -0.4809
 4923TIP3    H136328   4.777   1.944   8.323 -0.7814 -0.5460  0.0726
 4923TIP3    H236329   4.866   1.918   8.203 -2.9470  0.5070 -1.8368
 4924TIP3   OH236330   4.295   3.916   1.047  0.0607 -0.5254  0.5506
 4924TIP3    H136331   4.240   3.990   1.073  0.3151  0.5752 -1.7377
 4924TIP3    H236332   4.374   3.924   1.101 -0.2288  0.4389  0.8541
 4925TIP3   OH236333   1.802   1.618   8.591 -0.7948  0.0186  0.1763
 4925TIP3    H136334   1.895   1.626   8.569 -0.7144  1.8461  0.9739
 4925TIP3    H236335   1.799   1.623   8.686 -1.6575 -0.8028  0.2039
 4926TIP3   OH236336   3.165   6.354   2.853 -0.4403  0.3142  0.0394
 4926TIP3    H136337   3.114   6.273   2.864  0.2935 -0.2479 -0.6660
 4926TIP3    H236338   3.252   6.325   2.829 -0.3789  1.3484 -1.0570
 4927TIP3   OH236339   3.121   6.269   1.608  0.1562  0.7489 -0.0261
 4927TIP3    H136340   3.039   6.305   1.574 -0.4422  0.3505  0.9550
 4927TIP3    H236341   3.095   6.190   1.655  1.0888  0.6895  0.4153
 4928TIP3   OH236342   3.366   2.013   1.513 -0.3684  0.3648 -0.2172
 4928TIP3    H136343   3.345   2.041   1.602 -0.7762  0.0431 -0.2124
 4928TIP3    H236344   3.437   1.950   1.523 -0.9647 -0.2893 -0.0517
 4929TIP3   OH236345   4.671   5.183   0.378 -0.2450  0.1909  0.2165
 4929TIP3    H136346   4.626   5.219   0.454  0.7498  0.2029  0.8123
 4929TIP3    H236347   4.726   5.254   0.346 -0.7743  0.2377 -0.6276
 4930TIP3   OH236348   5.005   1.230   7.562 -0.5578  0.2710  0.2745
 4930TIP3    H136349   4.915   1.201   7.575 -0.4022 -0.1603  0.4191
 4930TIP3    H236350   5.058   1.152   7.578 -0.1222  0.6582  0.7660
 4931TIP3   OH236351   1.939   1.846   7.600 -0.3173 -0.5258  0.2347
 4931TIP3    H136352   1.877   1.784   7.562 -0.9463 -0.1927  0.7013
 4931TIP3    H236353   1.907   1.860   7.689 -0.3597  0.7017  0.0483
 4932TIP3   OH236354   6.536   0.703   7.246 -0.5095 -0.5321  0.8151
 4932TIP3    H136355   6.563   0.771   7.184 -1.2068 -0.1044  0.9696
 4932TIP3    H236356   6.482   0.749   7.310 -2.5051 -1.4936 -0.0705
 4933TIP3   OH236357   3.123   2.662   6.447 -0.4110  0.3705 -0.1095
 4933TIP3    H136358   3.081   2.745   6.474  1.7572  1.4505  0.1513
 4933TIP3    H236359   3.088   2.645   6.360 -1.9277  0.8147  0.3809
 4934TIP3   OH236360   0.481   6.344   7.027  0.2007  0.0528  0.1876
 4934TIP3    H136361   0.575   6.334   7.042  0.2050 -0.8150 -0.3712
 4934TIP3    H236362   0.441   6.281   7.086  0.1037 -1.4553 -1.3991
 4935TIP3   OH236363   3.097   2.857   7.120 -0.3735 -0.3598  0.1041
 4935TIP3    H136364   3.062   2.931   7.071  0.0062 -0.9472 -1.0885
 4935TIP3    H236365   3.131   2.896   7.201 -0.7428  0.6733 -0.2198
 4936TIP3   OH236366   6.678   6.333   6.416 -0.0299 -0.2903 -0.2090
 4936TIP3    H136367   6.631   6.414   6.437  0.7872  0.4827 -1.2120
 4936TIP3    H236368   6.672   6.327   6.321 -0.8206 -1.9002 -0.0849
 4937TIP3   OH236369   3.418   2.075   7.981 -0.7471 -0.0522  0.0452
 4937TIP3    H136370   3.512   2.085   7.999 -1.1061  0.3864  1.8061
 4937TIP3    H236371   3.414   2.063   7.886  1.1253 -0.5909 -0.0153
 4938TIP3   OH236372   6.067   3.457   8.203  0.5552 -0.1175  0.3859
 4938TIP3    H136373   6.026   3.372   8.220 -0.3920  0.0711 -0.7686
 4938TIP3    H236374   6.128   3.441   8.131  1.5118 -0.1079  1.1736
 4939TIP3   OH236375   4.738   2.998   7.731  0.4023 -0.2511  0.4096
 4939TIP3    H136376   4.810   2.975   7.790 -0.3510  0.3691  1.5788
 4939TIP3    H236377   4.698   3.075   7.770 -1.7966 -1.3982  0.5627
 4940TIP3   OH236378   4.199   0.552   6.488  0.0958 -0.7186  0.2914
 4940TIP3    H136379   4.153   0.486   6.436 -0.0684  1.0058 -1.8773
 4940TIP3    H236380   4.169   0.537   6.578 -2.2364 -1.6622 -0.5706
 4941TIP3   OH236381   2.194   1.216   7.169  0.2850  0.0399  0.6425
 4941TIP3    H136382   2.182   1.129   7.131 -1.4403  0.0346  1.1022
 4941TIP3    H236383   2.107   1.256   7.166  0.5166  0.8286  2.6241
 4942TIP3   OH236384   4.928   1.131   8.435  0.0122  0.3014  0.0543
 4942TIP3    H136385   4.941   1.197   8.503  0.4584  0.1107  0.1558
 4942TIP3    H236386   5.003   1.142   8.376  0.9908 -1.1997  0.9629
 4943TIP3   OH236387   2.510   4.699   1.912 -0.0798  0.5502 -0.1978
 4943TIP3    H136388   2.529   4.781   1.959 -0.4871  0.1780  0.6549
 4943TIP3    H236389   2.485   4.638   1.982  1.2119 -0.6078 -0.7083
 4944TIP3   OH236390   4.022   2.362   0.924  0.2526 -0.3434 -0.3474
 4944TIP3    H136391   3.961   2.415   0.976 -0.0309 -1.5418  0.5686
 4944TIP3    H236392   4.106   2.370   0.970  0.5905  0.5353 -1.0790
 4945TIP3   OH236393   0.062   2.160   8.134  0.3870 -0.5070  0.3996
 4945TIP3    H136394   0.148   2.188   8.102 -0.6531  0.9114 -1.3236
 4945TIP3    H236395   0.066   2.172   8.229  1.4498  1.4052  0.1450
 4946TIP3   OH236396   2.022   6.234   0.203 -0.0401  0.3934 -0.3504
 4946TIP3    H136397   1.955   6.202   0.263  0.2216  0.9302  0.2259
 4946TIP3    H236398   2.101   6.240   0.256  0.4504 -0.1332 -1.0003
 4947TIP3   OH236399   6.310   3.978   7.656 -0.0195  0.1866 -0.3409
 4947TIP3    H136400   6.389   4.028   7.675 -0.4656  0.3124  1.3039
 4947TIP3    H236401   6.338   3.910   7.595  1.2949  0.4157 -0.0058
 4948TIP3   OH236402   6.228   1.719   7.647  0.4120 -0.0963  0.0303
 4948TIP3    H136403   6.181   1.645   7.684  0.5067  0.4787  1.3643
 4948TIP3    H236404   6.320   1.695   7.652  0.4516  0.1598  0.5958
 4949TIP3   OH236405   5.830   4.970   7.045  0.8167  0.6262  0.3676
 4949TIP3    H136406   5.772   4.939   7.114  0.8644  0.0209  0.1450
 4949TIP3    H236407   5.917   4.941   7.072  0.9734  1.2493  0.5395
 4950TIP3   OH236408   4.696   5.211   0.849  0.2453  0.2237  0.0493
 4950TIP3    H136409   4.735   5.151   0.913 -0.5171  0.7484  1.0557
 4950TIP3    H236410   4.637   5.156   0.797  0.8984 -0.2165 -0.2349
 4951TIP3   OH236411   3.313   3.613   7.734 -0.1502  0.6186 -0.0418
 4951TIP3    H136412   3.303   3.628   7.640  0.0673 -0.1878 -0.1993
 4951TIP3    H236413   3.309   3.700   7.772  0.6298  1.0396 -0.8795
 4952TIP3   OH236414   4.657   0.532   0.993 -0.2486  0.2497 -0.2858
 4952TIP3    H136415   4.638   0.445   1.027  2.7708  0.1491  1.5837
 4952TIP3    H236416   4.573   0.567   0.965 -1.7509 -2.7158  0.1963
 4953TIP3   OH236417   5.764   0.848   0.628  0.0952 -0.2574 -0.9073
 4953TIP3    H136418   5.724   0.927   0.666 -0.9293 -0.3113 -1.8444
 4953TIP3    H236419   5.840   0.832   0.684  0.6092  1.6595 -0.9595
 4954TIP3   OH236420   1.762   3.835   0.360 -0.1103  0.0884  0.0892
 4954TIP3    H136421   1.792   3.760   0.309 -1.5310  0.8726 -2.0904
 4954TIP3    H236422   1.842   3.878   0.389  0.7612 -1.0139 -0.5758
 4955TIP3   OH236423   3.531   2.478   2.405  0.4954 -0.1675  0.1902
 4955TIP3    H136424   3.472   2.546   2.436  0.8810  0.7455 -0.9975
 4955TIP3    H236425   3.480   2.397   2.410 -0.0167  0.2211  1.4685
 4956TIP3   OH236426   3.082   0.050   6.543  0.5645  0.7089 -0.0483
 4956TIP3    H136427   3.076   0.113   6.615  1.5201 -0.4087  1.0507
 4956TIP3    H236428   3.176   0.035   6.532  0.5015  1.4216 -2.0748
 4957TIP3   OH236429   5.833   3.689   1.051  0.0409 -0.1557 -0.3964
 4957TIP3    H136430   5.780   3.653   0.979 -1.2265  0.8670 -0.0144
 4957TIP3    H236431   5.788   3.770   1.075  1.9436  0.9064 -0.2174
 4958TIP3   OH236432   0.166   4.850   0.350  0.3713  0.2728 -0.4033
 4958TIP3    H136433   0.156   4.757   0.335 -1.0585  0.3865 -0.2660
 4958TIP3    H236434   0.077   4.883   0.362  0.6612  1.9740 -2.2816
 4959TIP3   OH236435   5.500   1.092   6.857  0.6635  0.1952 -0.2122
 4959TIP3    H136436   5.435   1.131   6.798  0.0584  0.3406  0.5241
 4959TIP3    H236437   5.465   1.109   6.945 -0.0745 -2.6935  0.1692
 4960TIP3   OH236438   0.404   3.781   1.527  0.0074  0.5573  0.4592
 4960TIP3    H136439   0.398   3.869   1.490  0.2741  0.0181 -0.8979
 4960TIP3    H236440   0.348   3.784   1.605  0.9839  2.2682  1.1584
 4961TIP3   OH236441   4.658   4.485   1.950 -0.3494 -0.7105  0.4558
 4961TIP3    H136442   4.648   4.470   1.856  0.4589 -0.2904  0.2969
 4961TIP3    H236443   4.568   4.490   1.983 -0.6602 -2.5589 -0.0079
 4962TIP3   OH236444   2.434   3.906   0.714 -0.1112 -0.0353  0.2899
 4962TIP3    H136445   2.463   3.881   0.802  0.0568  0.6563  0.4343
 4962TIP3    H236446   2.341   3.883   0.711  0.1466 -1.1046  0.2562
 4963TIP3   OH236447   3.887   3.925   7.465 -0.9849 -0.5301 -1.1453
 4963TIP3    H136448   3.800   3.887   7.478 -1.8100  1.4328 -0.5556
 4963TIP3    H236449   3.921   3.939   7.553 -0.5798 -0.1944 -1.3489
 4964TIP3   OH236450   0.172   4.910   1.091  0.0316  0.1377 -0.3824
 4964TIP3    H136451   0.210   4.854   1.023  1.3569  0.4514  0.0723
 4964TIP3    H236452   0.145   4.849   1.159 -0.7187 -0.1256 -0.8983
 4965TIP3   OH236453   0.281   4.916   2.091 -0.1465  0.5169  0.0933
 4965TIP3    H136454   0.221   4.987   2.070 -0.9957 -0.4050 -0.7063
 4965TIP3    H236455   0.336   4.907   2.013 -0.8499 -0.4711 -0.3191
 4966TIP3   OH236456   2.101   0.768   0.300  0.8074 -0.8189 -0.4919
 4966TIP3    H136457   2.161   0.716   0.354 -0.0380  0.8878  2.3544
 4966TIP3    H236458   2.014   0.745   0.333  0.2307  0.0942 -1.3350
 4967TIP3   OH236459   2.099   2.957   0.085  0.0153  0.0956  0.5002
 4967TIP3    H136460   2.131   3.029   0.139 -0.8221 -0.4322  1.7521
 4967TIP3    H236461   2.044   2.999   0.020  0.3751  0.6759  0.5575
 4968TIP3   OH236462   5.136   5.994   6.358  0.0295  0.2508 -0.0036
 4968TIP3    H136463   5.064   6.037   6.404  1.3235  3.5518 -0.7987
 4968TIP3    H236464   5.174   5.936   6.424 -2.3264 -0.4029  0.9019
 4969TIP3   OH236465   6.393   5.496   7.541  0.6393 -0.7869  0.9184
 4969TIP3    H136466   6.453   5.427   7.513  1.2981  0.2057 -0.2635
 4969TIP3    H236467   6.312   5.479   7.492  0.7214 -0.8643  0.8100
 4970TIP3   OH236468   0.803   5.173   0.796 -0.2937  0.0232  0.7620
 4970TIP3    H136469   0.887   5.166   0.842  0.3838 -0.1897 -0.4663
 4970TIP3    H236470   0.781   5.266   0.799  1.7607  0.7061 -1.8881
 4971TIP3   OH236471   4.871   2.314   8.046  0.0687  0.2149 -0.1762
 4971TIP3    H136472   4.793   2.290   8.096  1.3953 -1.6273  1.1129
 4971TIP3    H236473   4.863   2.265   7.964 -0.3958  0.5118 -0.3167
 4972TIP3   OH236474   5.351   0.873   6.646 -0.0938  0.0783 -0.0527
 4972TIP3    H136475   5.412   0.862   6.573 -0.9377 -0.1690 -0.7343
 4972TIP3    H236476   5.308   0.957   6.629  1.2567  1.1102  1.3475
 4973TIP3   OH236477   4.526   5.026   0.718 -0.2133 -0.2971  0.4455
 4973TIP3    H136478   4.517   5.033   0.623 -2.4744 -3.0093  0.3164
 4973TIP3    H236479   4.438   5.006   0.749  0.5250  0.2001  3.1064
 4974TIP3   OH236480   4.589   3.402   6.872  0.6290 -0.2594 -0.2607
 4974TIP3    H136481   4.549   3.421   6.957  2.2707  2.4041  0.0252
 4974TIP3    H236482   4.571   3.480   6.819  1.7042 -0.8509 -1.5575
 4975TIP3   OH236483   3.750   2.032   0.481 -0.3972  0.4314 -0.1367
 4975TIP3    H136484   3.695   2.096   0.435 -1.3091  0.5813  1.1051
 4975TIP3    H236485   3.692   1.995   0.548  1.2234  1.2513  1.8339
 4976TIP3   OH236486   1.793   5.093   2.458  0.2796  0.1071 -0.3151
 4976TIP3    H136487   1.879   5.059   2.433  0.4336 -0.1594  0.5520
 4976TIP3    H236488   1.803   5.188   2.456 -0.4928  0.2823 -3.9796
 4977TIP3   OH236489   2.710   0.104   1.924 -0.0659 -0.1776  0.0653
 4977TIP3    H136490   2.663   0.112   2.007  0.2643 -0.9920  0.3425
 4977TIP3    H236491   2.802   0.120   1.947  0.0824 -0.8067 -0.0517
 4978TIP3   OH236492   5.492   3.487   1.034  0.0891 -0.0016 -0.6158
 4978TIP3    H136493   5.511   3.549   0.964 -1.1331 -0.2221 -1.1799
 4978TIP3    H236494   5.457   3.541   1.105  1.6338  0.2615 -0.0228
 4979TIP3   OH236495   0.496   5.397   0.149  0.3108  0.0289  0.4267
 4979TIP3    H136496   0.457   5.470   0.101  1.5502  0.9622  0.7949
 4979TIP3    H236497   0.542   5.438   0.222 -1.5480 -1.3493  2.5158
 4980TIP3   OH236498   1.773   1.437   7.729 -0.1136  0.5995  0.2540
 4980TIP3    H136499   1.806   1.376   7.663  0.1202  1.1094 -0.0993
 4980TIP3    H236500   1.687   1.464   7.696  0.5875  1.9396 -0.5689
 4981TIP3   OH236501   1.619   0.369   1.850 -0.1706  0.1802 -0.0776
 4981TIP3    H136502   1.667   0.367   1.767  0.2264 -2.0533  0.1675
 4981TIP3    H236503   1.530   0.395   1.825  0.4963  1.8694 -0.8568
 4982TIP3   OH236504   1.329   0.953   8.168 -0.3674 -0.5914 -0.1361
 4982TIP3    H136505   1.422   0.933   8.161 -0.0093  1.4395 -1.8924
 4982TIP3    H236506   1.316   0.974   8.261  1.1670  0.2041 -0.0799
 4983TIP3   OH236507   0.174   6.799   0.530  0.0375 -0.4841 -0.7580
 4983TIP3    H136508   0.186   6.891   0.551 -0.0789 -0.1795 -1.9356
 4983TIP3    H236509   0.087   6.794   0.491  0.4809 -0.8894 -1.7334
 4984TIP3   OH236510   2.678   1.722   8.492  0.4987 -0.0605  0.0064
 4984TIP3    H136511   2.634   1.686   8.568  0.8167 -0.7695 -0.1334
 4984TIP3    H236512   2.621   1.793   8.462  0.3087  0.1381  0.8155
 4985TIP3   OH236513   3.742   2.209   1.058  0.5273 -0.4244 -0.2267
 4985TIP3    H136514   3.753   2.220   0.964  1.5758  0.7624  0.0056
 4985TIP3    H236515   3.661   2.255   1.079  0.2636 -0.7380 -0.5437
 4986TIP3   OH236516   5.585   3.510   1.491  0.6519  0.1184 -0.4517
 4986TIP3    H136517   5.566   3.418   1.471 -0.3593  0.0943  0.4501
 4986TIP3    H236518   5.672   3.509   1.531  0.3102 -0.5741  0.2978
 4987TIP3   OH236519   1.709   3.012   7.527 -0.3650  0.0710 -0.0960
 4987TIP3    H136520   1.699   2.917   7.534 -1.0684  0.0092 -1.5869
 4987TIP3    H236521   1.656   3.037   7.452  2.3756  1.2007 -1.8419
 4988TIP3   OH236522   6.376   6.893   2.185  0.9931 -0.3835  0.7704
 4988TIP3    H136523   6.444   6.948   2.224  2.3764 -1.9197  0.6325
 4988TIP3    H236524   6.308   6.888   2.252  0.2548  2.3528  0.3695
 4989TIP3   OH236525   5.390   3.563   1.704 -0.5519  0.1788 -0.1903
 4989TIP3    H136526   5.472   3.552   1.656 -0.2859 -0.9860  0.4904
 4989TIP3    H236527   5.324   3.523   1.646 -0.2233 -1.2725  0.3771
 4990TIP3   OH236528   6.006   6.734   8.070  0.2519 -0.0043  0.1227
 4990TIP3    H136529   5.980   6.729   8.162  0.8361  0.0143  0.2911
 4990TIP3    H236530   6.090   6.780   8.071  0.9316 -1.1988 -0.2885
 4991TIP3   OH236531   2.891   2.156   1.738  0.4418  0.0451  0.0792
 4991TIP3    H136532   2.965   2.205   1.702 -1.0938  1.2056 -1.6765
 4991TIP3    H236533   2.859   2.211   1.809  2.6505 -1.6159  2.5510
 4992TIP3   OH236534   0.484   0.799   0.433 -0.1585  0.2237  0.7807
 4992TIP3    H136535   0.434   0.785   0.513  1.0215  0.6992  1.6387
 4992TIP3    H236536   0.471   0.892   0.413 -2.4972 -0.4103 -1.0622
 4993TIP3   OH236537   2.377   6.009   1.013  0.3830 -0.2298 -0.2959
 4993TIP3    H136538   2.466   6.001   1.047 -0.1331  1.6037  1.6686
 4993TIP3    H236539   2.388   6.051   0.928  1.3488  0.8767  0.3482
 4994TIP3   OH236540   0.017   3.886   0.120 -0.1160  0.1718 -0.0740
 4994TIP3    H136541   0.014   3.888   0.025  1.0231 -0.4765 -0.1462
 4994TIP3    H236542  -0.073   3.866   0.147 -0.5322  0.7846 -0.9848
 4995TIP3   OH236543   5.178   0.949   0.765  0.3206  0.1387  0.1282
 4995TIP3    H136544   5.106   0.958   0.828  1.7300 -0.4694  1.8898
 4995TIP3    H236545   5.221   1.035   0.767  1.3736 -0.4028  1.2909
 4996TIP3   OH236546   1.500   5.904   2.045 -0.3960  0.0779  0.2681
 4996TIP3    H136547   1.483   5.810   2.034 -2.4129  0.1737  1.8642
 4996TIP3    H236548   1.569   5.908   2.111 -0.9408 -0.2970  0.8743
 4997TIP3   OH236549   4.521   1.976   7.663  0.6396  0.1202  0.2048
 4997TIP3    H136550   4.513   1.894   7.615 -1.7199  0.1235  0.4833
 4997TIP3    H236551   4.501   2.044   7.599  0.0172  0.2877  0.5627
 4998TIP3   OH236552   2.619   0.422   1.197  0.2656  0.4928  0.4926
 4998TIP3    H136553   2.590   0.478   1.270 -0.2195 -0.5286  1.1034
 4998TIP3    H236554   2.567   0.342   1.206  0.7251  0.0610 -0.5520
 4999TIP3   OH236555   6.759   3.752   0.396 -0.4320  0.0915 -0.0636
 4999TIP3    H136556   6.768   3.831   0.450 -1.3577  1.2180 -1.4857
 4999TIP3    H236557   6.712   3.781   0.319  0.4942 -1.5592 -1.3201
 5000TIP3   OH236558   4.909   5.195   8.325  0.6294  0.1738  0.1709
 5000TIP3    H136559   4.893   5.172   8.417  2.4516 -0.0518  0.4684
 5000TIP3    H236560   4.979   5.136   8.297 -1.0244 -0.9224 -1.9121
 5001TIP3   OH236561   5.595   3.976   8.056  0.7077  0.0186  0.1164
 5001TIP3    H136562   5.589   3.882   8.071 -0.0277  0.2519  1.4678
 5001TIP3    H236563   5.507   4.001   8.026  1.5693 -0.0817 -2.7524
 5002TIP3   OH236564   2.026   3.382   8.236 -0.9588  0.2847 -0.2438
 5002TIP3    H136565   2.065   3.345   8.156  0.4402  1.0058  0.0825
 5002TIP3    H236566   1.952   3.433   8.204 -1.2031 -0.4731 -0.9473
 5003TIP3   OH236567   4.229   0.546   6.092  0.4568  0.1079 -0.0463
 5003TIP3    H136568   4.277   0.601   6.030  1.5834 -2.0488 -1.2116
 5003TIP3    H236569   4.154   0.599   6.118  1.4807  2.1788 -1.0524
 5004TIP3   OH236570   6.105   6.334   1.124  0.1363 -0.0864 -0.6101
 5004TIP3    H136571   6.187   6.385   1.121 -0.9840  1.9573  0.7604
 5004TIP3    H236572   6.052   6.371   1.053 -0.2303 -0.2008 -0.3973
 5005TIP3   OH236573   2.767   1.518   1.936  0.9003  0.1084 -0.0505
 5005TIP3    H136574   2.685   1.524   1.984  2.0268 -0.0627  2.0354
 5005TIP3    H236575   2.786   1.424   1.932 -0.5846 -0.1754 -3.5317
 5006TIP3   OH236576   2.782   5.782   8.536  0.1737  0.5644  0.2432
 5006TIP3    H136577   2.718   5.712   8.540 -1.5144  1.8798 -1.6348
 5006TIP3    H236578   2.863   5.743   8.570 -1.0035 -1.8668  0.4555
 5007TIP3   OH236579   4.189   1.417   0.560  0.4406  0.2050  0.2790
 5007TIP3    H136580   4.220   1.468   0.635 -0.7031  1.3606  0.0060
 5007TIP3    H236581   4.120   1.361   0.597  0.1279  0.5152  0.1791
 5008TIP3   OH236582   5.869   6.739   0.997  0.1296  0.0454 -0.2332
 5008TIP3    H136583   5.819   6.769   0.921 -1.5104 -3.1609 -0.6431
 5008TIP3    H236584   5.828   6.783   1.072 -0.9027  0.2703 -0.9041
 5009TIP3   OH236585   1.997   2.001   0.055  0.4218 -0.1817  0.2588
 5009TIP3    H136586   1.942   1.963   0.123  1.0002 -0.0818  0.7927
 5009TIP3    H236587   1.945   1.995  -0.025 -1.2107  1.7878  1.0954
 5010TIP3   OH236588   3.732   2.897   1.237 -0.9866  0.2340  0.2166
 5010TIP3    H136589   3.717   2.971   1.178 -0.2475 -0.2398 -0.5862
 5010TIP3    H236590   3.811   2.921   1.286 -1.2804  0.3818  0.6203
 5011TIP3   OH236591   4.235   6.726   8.586  0.5724  0.7723 -0.1681
 5011TIP3    H136592   4.209   6.679   8.507  0.4444 -0.2201  0.4513
 5011TIP3    H236593   4.153   6.740   8.633  0.4938  2.3241 -0.6902
 5012TIP3   OH236594   1.614   4.574   0.760 -0.1520 -0.0331  0.1050
 5012TIP3    H136595   1.621   4.667   0.781 -0.6461 -0.1388  0.7771
 5012TIP3    H236596   1.699   4.551   0.723 -0.3047  0.8704 -0.8551
 5013TIP3   OH236597   2.473   0.731   7.858 -0.3391  0.4942  0.5613
 5013TIP3    H136598   2.380   0.736   7.879 -0.6456  1.0304 -0.8435
 5013TIP3    H236599   2.507   0.662   7.916 -1.6457  0.1388  0.9276
 5014TIP3   OH236600   4.528   6.261   7.522 -0.0470  0.1473  0.0508
 5014TIP3    H136601   4.453   6.212   7.488  0.0965 -0.1534  0.1713
 5014TIP3    H236602   4.503   6.284   7.611  0.4147 -0.8251  0.4436
 5015TIP3   OH236603   3.145   5.658   0.919  0.2616  0.2219  0.2207
 5015TIP3    H136604   3.094   5.578   0.924  2.0228 -0.9720  0.1115
 5015TIP3    H236605   3.233   5.629   0.893  1.4003  1.9946  1.8099
 5016TIP3   OH236606   2.626   3.593   6.913  0.0466 -0.2302  0.2760
 5016TIP3    H136607   2.670   3.649   6.848  0.3394  0.8306  1.3532
 5016TIP3    H236608   2.617   3.508   6.869 -0.6889  0.7196 -1.5185
 5017TIP3   OH236609   6.085   2.876   1.245  0.0846 -0.9373  0.3790
 5017TIP3    H136610   6.177   2.880   1.271 -0.3711  1.1184  1.9600
 5017TIP3    H236611   6.081   2.925   1.163  0.1098  1.1547  1.5446
 5018TIP3   OH236612   1.747   1.850   0.898  0.8656 -0.0976  0.7466
 5018TIP3    H136613   1.683   1.791   0.938 -1.6983  1.1284 -1.2695
 5018TIP3    H236614   1.763   1.813   0.811  1.6598  0.4938  0.6343
 5019TIP3   OH236615   6.190   2.705   0.338  0.1330  0.1998 -0.7201
 5019TIP3    H136616   6.183   2.763   0.262  0.2183  0.4788 -0.5163
 5019TIP3    H236617   6.251   2.749   0.396 -0.5752  0.4110 -0.1166
 5020TIP3   OH236618   1.918   3.720   1.079 -0.0390  0.6106  0.3566
 5020TIP3    H136619   1.917   3.711   1.175 -0.6184 -0.2905  0.2719
 5020TIP3    H236620   1.841   3.671   1.050  2.0052 -2.1487 -0.8274
 5021TIP3   OH236621   1.535   0.710   0.636 -0.7461 -0.0750  0.3014
 5021TIP3    H136622   1.558   0.633   0.689 -0.5524 -1.0095 -1.0684
 5021TIP3    H236623   1.493   0.673   0.558  1.0778  1.0282 -1.3156
 5022TIP3   OH236624   2.412   1.985   7.458  0.2986  0.7800  0.0660
 5022TIP3    H136625   2.365   1.907   7.488  1.5940  0.5394  1.6327
 5022TIP3    H236626   2.365   2.058   7.498  0.7205  0.5950  0.9332
 5023TIP3   OH236627   5.258   1.532   1.053  0.5483 -0.1817 -0.3158
 5023TIP3    H136628   5.338   1.499   1.093 -1.0152 -2.9050  0.8400
 5023TIP3    H236629   5.214   1.580   1.123  0.7076  0.4690 -0.6571
 5024TIP3   OH236630   3.255   0.921   1.209  0.3027 -0.2649 -0.4561
 5024TIP3    H136631   3.163   0.897   1.220 -0.0071  0.3915 -1.5446
 5024TIP3    H236632   3.264   0.940   1.116  0.8833  2.3343  0.0665
 5025TIP3   OH236633   3.197   4.574   0.212 -0.2772 -0.7863 -0.2133
 5025TIP3    H136634   3.190   4.502   0.150  0.9185  0.2155 -1.5493
 5025TIP3    H236635   3.228   4.533   0.293 -2.7336 -2.2483  0.0848
 5026TIP3   OH236636   1.633   5.999   1.831 -0.3357 -0.1422  0.8144
 5026TIP3    H136637   1.630   5.925   1.770 -0.9916  0.6067 -0.1033
 5026TIP3    H236638   1.566   5.979   1.896  0.5443 -1.0725  1.4615
 5027TIP3   OH236639   0.230   2.564   0.763  0.2821  0.2929  0.2616
 5027TIP3    H136640   0.161   2.502   0.739  0.0574  1.4937 -2.5751
 5027TIP3    H236641   0.254   2.539   0.852 -2.0887 -1.7258  0.4581
 5028TIP3   OH236642   1.426   1.422   7.358  0.2354  0.0773  0.0810
 5028TIP3    H136643   1.456   1.431   7.267  1.5517 -0.5779  0.4154
 5028TIP3    H236644   1.331   1.422   7.352  0.2693 -1.6491 -1.5114
 5029TIP3   OH236645   3.473   1.465   0.585 -0.2686  0.2534  0.1463
 5029TIP3    H136646   3.423   1.545   0.602 -1.0877 -0.3029  0.3951
 5029TIP3    H236647   3.471   1.455   0.490  0.2472  0.7816  0.0737
 5030TIP3   OH236648   4.364   3.589   7.419 -0.4497 -0.0666 -0.3645
 5030TIP3    H136649   4.272   3.596   7.444 -0.1325  0.9087  0.5924
 5030TIP3    H236650   4.386   3.673   7.380  1.0467  1.3445  3.0729
 5031TIP3   OH236651   0.866   1.661   0.077  0.8189  0.6259  0.5497
 5031TIP3    H136652   0.928   1.650   0.004 -1.4406  2.0415 -1.7389
 5031TIP3    H236653   0.860   1.755   0.089  0.0936  0.4566  1.6396
 5032TIP3   OH236654   0.468   0.951   0.783 -0.8859 -0.0167  0.4392
 5032TIP3    H136655   0.527   0.916   0.851 -1.5152  0.1055  1.0577
 5032TIP3    H236656   0.427   0.873   0.746  1.4264 -0.3428 -1.7144
 5033TIP3   OH236657   3.238   3.850   0.327 -0.4928  0.1436  0.5823
 5033TIP3    H136658   3.324   3.826   0.295 -0.8818 -0.1834 -0.2426
 5033TIP3    H236659   3.245   3.843   0.422  0.3429 -0.0052  0.5156
 5034TIP3   OH236660   1.693   0.105   2.459 -0.2547  0.4487  0.5943
 5034TIP3    H136661   1.696   0.185   2.407 -0.7014  0.0670 -0.0276
 5034TIP3    H236662   1.608   0.066   2.437  0.8544 -1.3055 -0.7622
 5035TIP3   OH236663   2.798   1.838   8.100 -0.0855 -0.4435  0.8285
 5035TIP3    H136664   2.786   1.761   8.044 -1.6176  1.4833 -1.6883
 5035TIP3    H236665   2.892   1.838   8.119  0.7128 -0.8726 -2.4035
 5036TIP3   OH236666   1.765   1.240   0.122 -0.3992 -0.4147 -0.7513
 5036TIP3    H136667   1.718   1.245   0.039 -1.1372  1.0202 -0.2815
 5036TIP3    H236668   1.719   1.302   0.179  2.5874  1.8147 -0.5433
 5037TIP3   OH236669   0.618   0.346   0.267 -0.1592  0.2786  0.2830
 5037TIP3    H136670   0.571   0.420   0.307 -2.0333 -0.5472 -0.2678
 5037TIP3    H236671   0.643   0.378   0.181  2.2413  1.4309  1.3203
 5038TIP3   OH236672   6.778   0.268   0.678 -0.8571 -0.7173 -0.1196
 5038TIP3    H136673   6.789   0.241   0.587  1.1571 -0.7135  0.0766
 5038TIP3    H236674   6.739   0.355   0.673  1.0995  0.1443 -1.0729
 5039TIP3   OH236675   1.088   4.177   0.394 -0.0985  0.2059  0.3199
 5039TIP3    H136676   1.093   4.180   0.298  1.0057  0.7208  0.3776
 5039TIP3    H236677   1.176   4.153   0.422 -0.5656 -0.5717  1.1974
 5040TIP3   OH236678   0.470   2.027   1.517  0.2205 -0.1025  0.3316
 5040TIP3    H136679   0.469   1.957   1.583 -1.9756 -0.2724  0.1886
 5040TIP3    H236680   0.512   1.987   1.441 -0.6808 -1.1621  0.3664
 5041TIP3   OH236681   0.039   5.303   7.312 -0.2711 -0.1169  0.1919
 5041TIP3    H136682   0.077   5.377   7.265  1.0120 -0.9814 -0.1677
 5041TIP3    H236683  -0.054   5.307   7.290 -0.0356  0.7050 -0.7514
 5042TIP3   OH236684   5.574   3.190   1.450  0.4305 -0.2838  0.0491
 5042TIP3    H136685   5.561   3.173   1.543 -0.7834 -3.1520 -0.5438
 5042TIP3    H236686   5.582   3.103   1.410  0.7677  0.8444 -2.5466
 5043TIP3   OH236687   3.648   0.756   0.049  0.7138 -0.2529  0.2493
 5043TIP3    H136688   3.558   0.727   0.065  0.4296 -1.2021 -2.5035
 5043TIP3    H236689   3.647   0.849   0.070 -0.7869 -0.3273  0.6573
 5044TIP3   OH236690   1.712   4.215   7.295  0.2412  0.0691 -0.5919
 5044TIP3    H136691   1.718   4.168   7.378 -0.5888 -0.9640 -1.0916
 5044TIP3    H236692   1.623   4.252   7.295  0.9086  1.7925 -0.1562
 5045TIP3   OH236693   0.272   6.527   1.649  0.2923  0.0581 -0.0798
 5045TIP3    H136694   0.251   6.564   1.734 -0.9499  0.3871 -0.5215
 5045TIP3    H236695   0.200   6.553   1.592  1.3025  0.1966 -1.3494
 5046TIP3   OH236696   2.395   2.739   8.114 -0.7813  0.2502  0.1858
 5046TIP3    H136697   2.486   2.716   8.097 -0.9649  0.4802 -1.2527
 5046TIP3    H236698   2.395   2.775   8.203  0.3964 -0.4213  0.4743
 5047TIP3   OH236699   0.970   3.145   7.828  0.1782 -0.0983  0.1074
 5047TIP3    H136700   1.035   3.080   7.798  2.0535  1.2076  1.1384
 5047TIP3    H236701   0.989   3.156   7.921 -0.4665  1.5103  0.0744
 5048TIP3   OH236702   4.583   2.713   0.965 -0.6433  0.1042 -0.7714
 5048TIP3    H136703   4.567   2.619   0.957 -3.4789  0.5438 -1.4595
 5048TIP3    H236704   4.622   2.738   0.881  0.4776 -0.4890 -0.4419
 5049TIP3   OH236705   2.034   1.979   1.437 -0.2732  0.3488 -0.1653
 5049TIP3    H136706   1.938   1.976   1.434 -0.3010  0.8432  0.0252
 5049TIP3    H236707   2.057   1.938   1.521 -0.4083  1.5192  0.4770
 5050TIP3   OH236708   2.160   4.811   1.133 -0.3007 -0.6344 -0.3160
 5050TIP3    H136709   2.239   4.765   1.163  1.0136  2.2369  1.0858
 5050TIP3    H236710   2.190   4.860   1.056 -0.4502  1.0355  0.6456
 5051TIP3   OH236711   2.044   3.395   1.796 -0.1211 -0.1038 -0.0212
 5051TIP3    H136712   2.090   3.333   1.739  1.0285  0.1797  0.5445
 5051TIP3    H236713   2.014   3.464   1.738  0.5084 -0.1181 -0.3759
 5052TIP3   OH236714   5.027   5.493   8.318 -0.4946  0.6750  0.1334
 5052TIP3    H136715   5.058   5.410   8.281  2.0521  2.1326 -1.2523
 5052TIP3    H236716   5.075   5.501   8.401 -2.8447 -0.4543  1.7209
 5053TIP3   OH236717   1.196   0.761   7.177  0.2786 -0.2426 -0.1377
 5053TIP3    H136718   1.173   0.776   7.269 -1.4725 -0.8740 -0.4284
 5053TIP3    H236719   1.175   0.669   7.162  1.7040 -0.4755 -0.8788
 5054TIP3   OH236720   2.847   6.269   8.082 -0.1402  0.0034  0.0765
 5054TIP3    H136721   2.936   6.233   8.082 -0.3113 -0.4401 -0.4570
 5054TIP3    H236722   2.852   6.346   8.138  0.2454 -0.8070  1.1787
 5055TIP3   OH236723   3.940   4.677   1.436 -0.2252  0.3734 -0.1950
 5055TIP3    H136724   3.944   4.764   1.396 -1.6666 -0.0077 -1.2711
 5055TIP3    H236725   3.850   4.671   1.470 -0.9655 -1.5239 -2.2263
 5056TIP3   OH236726   6.885   2.117   6.799 -0.7747  0.0114  0.1491
 5056TIP3    H136727   6.853   2.074   6.879  1.1931 -0.1925  0.8926
 5056TIP3    H236728   6.904   2.045   6.739 -0.1838  0.0115  0.3291
 5057TIP3   OH236729   1.265   0.811   7.804 -0.1737  0.2726  0.1007
 5057TIP3    H136730   1.335   0.828   7.741 -0.1338  1.0188  0.3293
 5057TIP3    H236731   1.311   0.782   7.883 -0.0129  1.8606  0.6238
 5058TIP3   OH236732   0.102   4.751   1.307 -0.2530  0.1878  0.0081
 5058TIP3    H136733   0.150   4.668   1.301 -1.3135 -0.4796  0.4761
 5058TIP3    H236734   0.126   4.786   1.393 -2.0217 -1.0837  1.0717
 5059TIP3   OH236735   0.696   4.744   1.968 -0.2598 -0.1947 -0.1318
 5059TIP3    H136736   0.745   4.717   1.890  0.5349  0.1525  0.2315
 5059TIP3    H236737   0.646   4.666   1.993  1.7323 -1.2969  0.7061
 5060TIP3   OH236738   4.268   5.649   1.605 -0.5470 -0.0083 -0.0010
 5060TIP3    H136739   4.197   5.649   1.541  0.4132 -1.5089 -1.1463
 5060TIP3    H236740   4.327   5.718   1.576 -1.0838  0.6424  0.4352
 5061TIP3   OH236741   2.201   5.191   2.237 -0.1534  0.1158  0.2283
 5061TIP3    H136742   2.190   5.261   2.301  3.2110  1.7023 -0.7083
 5061TIP3    H236743   2.187   5.234   2.152  1.4671 -0.4195 -0.3396
 5062TIP3   OH236744   3.635   3.095   1.047 -0.3162 -0.1261 -0.3637
 5062TIP3    H136745   3.627   3.070   0.955  1.0894  0.3568 -0.6534
 5062TIP3    H236746   3.689   3.174   1.046  2.1014 -1.6183  1.0010
 5063TIP3   OH236747   0.472   5.935   0.930 -0.1716  0.5936  0.3396
 5063TIP3    H136748   0.421   5.941   1.010 -0.9813  2.8056 -0.2721
 5063TIP3    H236749   0.560   5.962   0.955  0.2829 -1.3081  0.9781
 5064TIP3   OH236750   0.947   4.247   7.964  0.0856  0.3560 -0.2763
 5064TIP3    H136751   0.957   4.233   8.058 -1.4798  1.3726  0.0842
 5064TIP3    H236752   1.031   4.222   7.927  0.6871 -0.2049  1.3774
 5065TIP3   OH236753   4.940   1.469   6.573 -0.3839 -0.1716 -0.3839
 5065TIP3    H136754   5.004   1.529   6.610 -0.7586  1.8618 -2.7392
 5065TIP3    H236755   4.989   1.390   6.553  0.9731  0.6593 -0.4417
 5066TIP3   OH236756   1.659   5.653   6.738  0.3854 -0.4496 -0.5385
 5066TIP3    H136757   1.636   5.653   6.646 -0.3939 -1.3226 -0.3646
 5066TIP3    H236758   1.575   5.651   6.784  0.7614 -0.0284  0.1904
 5067TIP3   OH236759   5.055   0.298   0.893 -0.1590  0.1724 -0.3574
 5067TIP3    H136760   5.073   0.350   0.814  0.9015 -1.1663 -1.0382
 5067TIP3    H236761   5.080   0.356   0.966  2.3994  0.1748 -1.1351
 5068TIP3   OH236762   5.842   1.673   7.588  0.1562  0.8168 -0.4502
 5068TIP3    H136763   5.902   1.600   7.601 -1.4948 -0.4704  0.4666
 5068TIP3    H236764   5.837   1.684   7.493  0.4570 -0.2648 -0.6067
 5069TIP3   OH236765   0.848   1.504   0.803  0.0324  0.5785 -0.0441
 5069TIP3    H136766   0.880   1.479   0.716  2.3400  0.0534  0.8721
 5069TIP3    H236767   0.912   1.467   0.863 -1.6651  0.6678  1.9294
 5070TIP3   OH236768   5.987   2.083   1.534  0.2023 -0.4654 -0.6372
 5070TIP3    H136769   5.901   2.043   1.548 -0.4145  0.6106 -1.2179
 5070TIP3    H236770   6.036   2.063   1.614 -1.4189  0.9971  0.8043
 5071TIP3   OH236771   3.416   3.414   2.562  0.2738 -0.3381 -0.3764
 5071TIP3    H136772   3.455   3.460   2.636 -2.8555  2.4406 -0.2409
 5071TIP3    H236773   3.454   3.326   2.567  2.4532  0.5853  2.6894
 5072TIP3   OH236774   1.794   6.272   8.446 -0.0495  0.2823 -0.4362
 5072TIP3    H136775   1.875   6.280   8.497  0.0153 -1.3855 -0.2380
 5072TIP3    H236776   1.766   6.363   8.432  0.7160  0.8261  1.2923
 5073TIP3   OH236777   5.333   1.501   8.199  0.6556 -0.0976  0.0532
 5073TIP3    H136778   5.407   1.546   8.158  1.7199 -1.8860 -0.0885
 5073TIP3    H236779   5.326   1.418   8.152 -1.0936 -0.2171  0.4517
 5074TIP3   OH236780   5.234   6.635   6.451 -0.2219 -0.1819 -0.0126
 5074TIP3    H136781   5.266   6.719   6.419  0.7014 -0.5888 -0.2100
 5074TIP3    H236782   5.140   6.647   6.461 -0.1837  0.6992 -0.5740
 5075TIP3   OH236783   5.375   2.784   2.602  0.2355 -0.0320  0.2843
 5075TIP3    H136784   5.381   2.690   2.618  0.5141  0.1452  1.2943
 5075TIP3    H236785   5.293   2.795   2.555 -0.3755 -0.6597  1.1656
 5076TIP3   OH236786   5.593   6.086   1.804  0.2756  0.3744 -0.5047
 5076TIP3    H136787   5.550   6.071   1.720 -3.5447 -1.6749  1.5354
 5076TIP3    H236788   5.584   6.180   1.819 -0.3320  0.5424 -1.7647
 5077TIP3   OH236789   4.284   2.996   1.825  0.0818 -0.2014 -0.6765
 5077TIP3    H136790   4.200   2.982   1.781  1.1702 -0.4866 -2.8144
 5077TIP3    H236791   4.349   2.989   1.755  1.7949  1.5463  0.6246
 5078TIP3   OH236792   5.661   4.670   8.481 -0.3750 -0.0093  0.3319
 5078TIP3    H136793   5.581   4.620   8.462 -0.5038  0.0128  0.8103
 5078TIP3    H236794   5.715   4.609   8.530  0.4683 -0.4809 -1.1175
 5079TIP3   OH236795   3.000   2.443   7.678  0.4176  0.2758 -0.2976
 5079TIP3    H136796   2.916   2.455   7.633  0.7711  1.7839 -0.6162
 5079TIP3    H236797   3.063   2.431   7.607  0.3652 -2.0383 -0.0407
 5080TIP3   OH236798   2.908   5.245   6.799  0.1697  0.1115 -0.0052
 5080TIP3    H136799   2.903   5.257   6.704 -0.4899  1.2331  0.1673
 5080TIP3    H236800   2.865   5.321   6.836 -1.6490 -1.4063  1.1917
 5081TIP3   OH236801   0.961   5.831   1.442  0.9100  1.0112 -0.3160
 5081TIP3    H136802   1.039   5.850   1.494  2.0515  1.0787 -1.9629
 5081TIP3    H236803   0.980   5.748   1.399 -1.0429 -0.3237  1.2160
 5082TIP3   OH236804   1.774   4.280   1.871 -0.4636  0.2594  0.1286
 5082TIP3    H136805   1.753   4.300   1.962  0.9604  0.6501  0.3973
 5082TIP3    H236806   1.860   4.238   1.875 -0.3466  0.3487 -1.0381
 5083TIP3   OH236807   3.586   5.509   0.063 -0.3109  0.0827 -0.7211
 5083TIP3    H136808   3.495   5.515   0.034 -0.1823  0.0634 -1.1359
 5083TIP3    H236809   3.636   5.494  -0.017 -0.0530 -0.9858 -0.3889
 5084TIP3   OH236810   0.364   1.259   0.867  0.4152 -0.0513 -0.2991
 5084TIP3    H136811   0.399   1.318   0.933 -0.9030  0.0384  0.3660
 5084TIP3    H236812   0.440   1.216   0.829  1.1668 -1.4422  2.5005
 5085TIP3   OH236813   5.301   6.838   7.039 -0.3026 -0.0092 -0.7008
 5085TIP3    H136814   5.272   6.890   6.964 -2.1963 -0.5498 -0.3956
 5085TIP3    H236815   5.222   6.824   7.090  1.0774  1.1113  1.9125
 5086TIP3   OH236816   3.392   0.686   8.350 -0.0647 -0.3888 -0.0895
 5086TIP3    H136817   3.402   0.659   8.442  0.2460 -2.7509 -0.7683
 5086TIP3    H236818   3.325   0.755   8.353  1.6853  1.3867  2.1618
 5087TIP3   OH236819   0.189   2.570   7.548  0.0658 -0.2961  0.3123
 5087TIP3    H136820   0.176   2.653   7.502 -0.5136 -0.2289  0.5865
 5087TIP3    H236821   0.282   2.567   7.567  0.0245  0.5091  0.6998
 5088TIP3   OH236822   4.503   0.971   0.393 -0.3578 -0.4179 -0.3721
 5088TIP3    H136823   4.598   0.955   0.394 -0.4261 -1.1906 -2.2360
 5088TIP3    H236824   4.464   0.886   0.413 -0.6682 -0.1262  0.2813
 5089TIP3   OH236825   2.109   6.128   0.663  0.1848  0.0136 -0.1695
 5089TIP3    H136826   2.174   6.058   0.658  0.2123  0.0308 -0.0562
 5089TIP3    H236827   2.035   6.090   0.711 -0.1362 -0.1974 -0.8150
 5090TIP3   OH236828   2.512   3.520   1.132  0.2225 -0.2294  0.2926
 5090TIP3    H136829   2.590   3.545   1.181  0.5471  1.3883 -0.9658
 5090TIP3    H236830   2.448   3.588   1.152  0.0004 -0.1433 -0.6608
 5091TIP3   OH236831   1.798   6.888   0.906 -0.2074 -0.3116 -0.0072
 5091TIP3    H136832   1.750   6.896   0.824 -1.5615 -3.3149  0.3516
 5091TIP3    H236833   1.869   6.827   0.885  0.7585  0.5824  0.5807
 5092TIP3   OH236834   2.556   0.493   8.029  0.2039 -0.1459 -0.9324
 5092TIP3    H136835   2.533   0.400   8.033 -2.4510  0.4318 -0.9108
 5092TIP3    H236836   2.619   0.499   7.957 -0.2065 -1.8533 -1.4875
 5093TIP3   OH236837   1.260   1.569   0.122  0.5411  0.5868 -0.0971
 5093TIP3    H136838   1.197   1.630   0.086 -0.1033  0.1932  0.3465
 5093TIP3    H236839   1.335   1.623   0.147  0.9631  0.8876 -1.8730
 5094TIP3   OH236840   1.293   5.424   0.878 -0.3124  0.2126 -0.0807
 5094TIP3    H136841   1.299   5.365   0.803  0.5047 -0.0352  0.1700
 5094TIP3    H236842   1.310   5.511   0.841 -1.1821  0.2657 -0.3913
 5095TIP3   OH236843   1.389   6.335   0.276 -0.3848 -0.1315 -0.0873
 5095TIP3    H136844   1.477   6.357   0.248  0.6188 -3.9016 -0.4955
 5095TIP3    H236845   1.341   6.320   0.194 -0.5475 -0.8422  0.1309
 5096TIP3   OH236846   6.591   4.244   1.729  0.4065  0.0895  0.6285
 5096TIP3    H136847   6.540   4.192   1.667  0.6542  0.5133  0.0621
 5096TIP3    H236848   6.606   4.327   1.684 -0.2418  0.7725  1.6350
 5097TIP3   OH236849   1.494   2.008   6.427 -0.3305 -0.8449 -0.4638
 5097TIP3    H136850   1.473   2.075   6.361 -1.1596  2.4296  2.7696
 5097TIP3    H236851   1.409   1.969   6.448 -0.5531  0.0996  0.5014
 5098TIP3   OH236852   3.405   0.787   1.407 -0.1140  0.6856  0.3806
 5098TIP3    H136853   3.379   0.842   1.333 -1.9881  1.0499  1.2530
 5098TIP3    H236854   3.325   0.775   1.458  0.6607 -1.3019  1.2464
 5099TIP3   OH236855   0.900   5.214   0.218  0.2313  0.1482 -0.2388
 5099TIP3    H136856   0.984   5.251   0.245 -0.3028  1.1836  0.0555
 5099TIP3    H236857   0.838   5.245   0.284 -0.1323 -1.9396  0.4850
 5100TIP3   OH236858   3.905   6.541   7.751 -0.4234 -0.2736 -0.0193
 5100TIP3    H136859   3.946   6.512   7.670 -0.7928  1.6827 -0.9574
 5100TIP3    H236860   3.829   6.591   7.723 -0.9092 -0.0885  1.5579
 5101TIP3   OH236861   6.223   4.315   8.372 -0.5917 -0.2015  0.3249
 5101TIP3    H136862   6.195   4.291   8.284  1.4591  0.4566 -0.5549
 5101TIP3    H236863   6.318   4.312   8.369 -0.4750 -0.8647  2.7525
 5102TIP3   OH236864   5.533   1.307   7.031  0.1258  0.0706 -1.0228
 5102TIP3    H136865   5.500   1.397   7.040  1.4115  0.3713  1.9820
 5102TIP3    H236866   5.476   1.255   7.088  1.8280 -0.2092  0.5212
 5103TIP3   OH236867   5.267   3.042   0.281  0.2807 -0.0238 -0.1044
 5103TIP3    H136868   5.248   3.000   0.198  1.9397 -1.4380  0.1773
 5103TIP3    H236869   5.213   2.996   0.345 -0.6730  0.7824 -0.2982
 5104TIP3   OH236870   5.774   4.378   8.466  0.5555  0.3376 -0.1384
 5104TIP3    H136871   5.691   4.329   8.469  0.5996  0.0155 -2.4089
 5104TIP3    H236872   5.807   4.374   8.555 -2.5179  1.6482  1.2366
 5105TIP3   OH236873   0.316   6.166   0.507 -0.2451 -0.0200 -0.2466
 5105TIP3    H136874   0.330   6.249   0.462 -2.7916  0.6963  0.1055
 5105TIP3    H236875   0.287   6.190   0.595 -0.3960 -1.2866  0.0815
 5106TIP3   OH236876   2.897   4.279   1.552 -0.2919  0.3452  0.3436
 5106TIP3    H136877   2.872   4.359   1.505 -0.5257  0.7473  1.1282
 5106TIP3    H236878   2.814   4.242   1.582 -0.2821 -0.8314 -0.9867
 5107TIP3   OH236879   4.860   3.084   1.699  0.2079 -0.0845  0.3827
 5107TIP3    H136880   4.900   3.094   1.612 -0.6064  1.1785  0.1230
 5107TIP3    H236881   4.833   2.992   1.703 -0.7684  0.0900 -1.1931
 5108TIP3   OH236882   3.451   1.675   7.516  0.5839 -0.7025  0.1498
 5108TIP3    H136883   3.523   1.738   7.518 -1.0753  1.2839  0.5172
 5108TIP3    H236884   3.453   1.639   7.428  0.4449  1.2964 -0.7212
 5109TIP3   OH236885   6.823   0.647   8.281  0.2575  0.3066 -0.3774
 5109TIP3    H136886   6.769   0.705   8.335  2.3890  0.9345  1.2126
 5109TIP3    H236887   6.889   0.705   8.243 -0.0904 -0.4441 -2.2443
 5110TIP3   OH236888   6.577   1.975   0.158 -0.1067  0.0556  0.0198
 5110TIP3    H136889   6.557   2.042   0.092 -1.0541 -0.7354 -0.5277
 5110TIP3    H236890   6.654   1.930   0.124  0.4575  0.7659  0.3259
 5111TIP3   OH236891   2.214   2.656   2.657  0.3948  0.3742  0.2646
 5111TIP3    H136892   2.225   2.720   2.587  0.3918 -0.5846 -0.6419
 5111TIP3    H236893   2.139   2.603   2.629  0.5441 -0.1759  0.8806
 5112TIP3   OH236894   4.726   0.781   8.458  0.0121  0.0252  0.0916
 5112TIP3    H136895   4.788   0.809   8.391  0.8956  1.1336  1.3017
 5112TIP3    H236896   4.659   0.849   8.459 -1.5087 -1.3707 -1.4803
 5113TIP3   OH236897   6.546   1.924   1.982  0.0277  0.4340  0.0243
 5113TIP3    H136898   6.537   1.829   1.994 -0.5173  0.4502 -0.2107
 5113TIP3    H236899   6.510   1.962   2.062  0.8843  0.4346  0.4231
 5114TIP3   OH236900   6.809   5.504   2.786  0.0630  0.4842  0.2500
 5114TIP3    H136901   6.731   5.449   2.778 -0.3141  1.0340  0.1012
 5114TIP3    H236902   6.815   5.549   2.702 -0.4554  1.7402  0.8640
 5115TIP3   OH236903   2.330   1.624   8.213 -0.0968 -0.9764 -0.1525
 5115TIP3    H136904   2.273   1.568   8.161 -0.7991 -0.0956 -0.3578
 5115TIP3    H236905   2.354   1.695   8.153 -0.7035 -0.0853  0.6424
 5116TIP3   OH236906   5.825   3.498   1.268 -0.0473  0.0415  0.2312
 5116TIP3    H136907   5.824   3.560   1.195 -1.4821 -0.8492 -0.5381
 5116TIP3    H236908   5.824   3.554   1.346 -0.7412  0.9998 -0.4465
 5117TIP3   OH236909   5.847   1.281   6.929  0.0208 -0.3391 -0.1254
 5117TIP3    H136910   5.811   1.292   7.017  2.4915 -1.0768  1.0486
 5117TIP3    H236911   5.909   1.353   6.919  1.3858 -1.5039 -0.3574
 5118TIP3   OH236912   1.015   4.148   0.091 -0.4030  0.0276 -0.6342
 5118TIP3    H136913   1.093   4.095   0.106  0.2580  1.0016 -0.5634
 5118TIP3    H236914   0.954   4.089   0.045 -0.3449 -1.3004  0.9014
 5119TIP3   OH236915   6.011   1.543   0.990 -0.1801 -0.0757 -0.1240
 5119TIP3    H136916   5.977   1.454   0.999  1.3957 -0.8374 -1.1596
 5119TIP3    H236917   6.079   1.550   1.057 -0.3725  0.3797  0.0231
 5120TIP3   OH236918   0.400   6.721   0.091  0.4647 -0.5838 -0.2170
 5120TIP3    H136919   0.394   6.668   0.170 -1.8228 -0.9934 -0.6012
 5120TIP3    H236920   0.450   6.799   0.118 -0.9441 -0.3157  1.8667
 5121TIP3   OH236921   4.577   2.841   7.238 -0.4525  0.0343 -0.1324
 5121TIP3    H136922   4.573   2.874   7.328  0.9733 -1.1321  0.4054
 5121TIP3    H236923   4.504   2.883   7.194  0.4876  2.8838  0.8033
 5122TIP3   OH236924   4.533   4.622   7.720  0.8289 -0.3208  0.2486
 5122TIP3    H136925   4.574   4.694   7.672 -0.0012  0.3386  0.4918
 5122TIP3    H236926   4.495   4.664   7.797  2.7261 -1.4411  1.9000
 5123TIP3   OH236927   5.961   3.266   1.702 -0.1594  0.0995 -0.2430
 5123TIP3    H136928   5.901   3.275   1.628  1.8831 -0.4248 -2.0397
 5123TIP3    H236929   6.000   3.180   1.691 -0.3885 -0.3682  1.9772
 5124TIP3   OH236930   0.316   1.649   6.460  0.1059 -0.0879  0.1728
 5124TIP3    H136931   0.239   1.646   6.517 -0.0239  1.8584  0.1612
 5124TIP3    H236932   0.289   1.705   6.387  1.0108 -0.7347 -0.6904
 5125TIP3   OH236933   6.814   2.966   0.474 -0.2978 -0.3868 -0.3193
 5125TIP3    H136934   6.789   2.874   0.484  0.0242 -0.3330  1.2578
 5125TIP3    H236935   6.909   2.963   0.464 -0.2698 -0.2117 -0.0997
 5126TIP3   OH236936   6.743   6.751   0.791  0.2330  0.4000 -0.1321
 5126TIP3    H136937   6.735   6.756   0.886  1.8581  0.6123  0.0268
 5126TIP3    H236938   6.806   6.820   0.769 -1.3387  1.4658 -1.5627
 5127TIP3   OH236939   1.586   6.481   0.461  1.0048  0.2371  0.1708
 5127TIP3    H136940   1.631   6.439   0.387  0.4124  0.7233 -0.4826
 5127TIP3    H236941   1.554   6.564   0.425  0.4536  0.3471  0.8996
 5128TIP3   OH236942   2.753   0.800   7.009  0.3553  0.1928 -0.0994
 5128TIP3    H136943   2.792   0.723   6.967 -1.4639 -0.8852  0.0964
 5128TIP3    H236944   2.824   0.838   7.060  1.6921 -0.4640 -1.3898
 5129TIP3   OH236945   5.279   1.061   0.346  0.0458  0.2346 -0.0866
 5129TIP3    H136946   5.275   1.079   0.252  0.4014 -2.3099 -0.6559
 5129TIP3    H236947   5.371   1.041   0.362 -0.2145 -0.4421  0.5774
 5130TIP3   OH236948   2.096   3.076   7.788 -0.1168 -0.5344 -0.4061
 5130TIP3    H136949   2.075   3.140   7.720 -0.7446 -1.3454 -0.9963
 5130TIP3    H236950   2.181   3.104   7.821 -0.2559  0.4526 -0.8285
 5131TIP3   OH236951   6.767   6.028   7.506 -0.2006 -0.7906 -0.1133
 5131TIP3    H136952   6.676   5.997   7.504  0.3716 -2.6374  0.6154
 5131TIP3    H236953   6.806   5.984   7.582  1.2107  0.2488 -0.1999
 5132TIP3   OH236954   2.584   4.612   0.721  0.5214  0.2218  0.4009
 5132TIP3    H136955   2.639   4.678   0.763  0.4471  0.1737  0.5744
 5132TIP3    H236956   2.507   4.607   0.777  1.3289 -1.3420  1.4288
 5133TIP3   OH236957   6.433   2.425   0.582 -0.1053  0.2576 -0.1491
 5133TIP3    H136958   6.382   2.445   0.504  0.7168  0.9642 -0.5267
 5133TIP3    H236959   6.369   2.390   0.644 -1.2723  2.1001 -0.2253
 5134TIP3   OH236960   2.089   5.698   8.448  0.0307 -0.0503  0.7641
 5134TIP3    H136961   2.014   5.646   8.417  0.8167 -3.4706  3.9007
 5134TIP3    H236962   2.049   5.767   8.501 -0.9623  1.0534 -1.3126
 5135TIP3   OH236963   5.408   6.573   7.196 -0.0925  0.0766 -0.9459
 5135TIP3    H136964   5.322   6.574   7.153  0.6488 -0.0022 -2.4947
 5135TIP3    H236965   5.440   6.663   7.188 -0.6714  0.5306  1.0890
 5136TIP3   OH236966   4.124   3.253   0.367  0.1903 -0.6336  0.3167
 5136TIP3    H136967   4.070   3.192   0.317 -0.0867 -0.0935 -0.0560
 5136TIP3    H236968   4.125   3.218   0.456 -0.3041 -0.9588  0.1955
 5137TIP3   OH236969   3.692   1.158   1.887 -0.0743  0.4428 -0.4933
 5137TIP3    H136970   3.709   1.066   1.906  0.3533 -0.2614 -3.7892
 5137TIP3    H236971   3.612   1.158   1.835  0.9568  1.6848 -2.1834
 5138TIP3   OH236972   5.897   6.888   2.012  0.4122  0.1269  0.0543
 5138TIP3    H136973   5.908   6.925   1.924  1.8125  1.1958  0.6316
 5138TIP3    H236974   5.979   6.842   2.030 -0.0546 -0.5171  0.6184
 5139TIP3   OH236975   3.512   4.890   1.458 -0.2639 -0.4392  0.0352
 5139TIP3    H136976   3.473   4.851   1.536 -0.3779 -0.1555  0.1177
 5139TIP3    H236977   3.541   4.977   1.486  0.4111 -0.6378 -0.0264
 5140TIP3   OH236978   4.580   6.044   2.128 -0.5086 -0.2054 -0.2483
 5140TIP3    H136979   4.535   6.050   2.212 -0.8121 -0.3799 -0.3946
 5140TIP3    H236980   4.644   5.974   2.140 -1.3128 -1.0163 -0.4938
 5141TIP3   OH236981   5.913   4.023   2.324  1.2711  0.3323 -0.1695
 5141TIP3    H136982   5.947   4.098   2.276  1.9030  1.1684  1.5010
 5141TIP3    H236983   5.954   3.947   2.283  1.2004  0.9360 -1.4036
 5142TIP3   OH236984   4.381   4.524   2.017  0.6012  0.0911 -0.0136
 5142TIP3    H136985   4.314   4.559   1.958  1.5434  0.3841 -0.9439
 5142TIP3    H236986   4.334   4.462   2.072 -0.1846 -0.8231 -1.6265
 5143TIP3   OH236987   6.520   1.087   0.556  0.2198  0.1649 -0.1483
 5143TIP3    H136988   6.482   1.002   0.533 -1.0661 -0.3000  3.1647
 5143TIP3    H236989   6.604   1.088   0.511  0.0688 -2.6439 -0.6886
 5144TIP3   OH236990   5.148   6.567   7.589 -0.6024  0.0668  0.8825
 5144TIP3    H136991   5.234   6.589   7.552 -0.5982 -0.0858  0.8011
 5144TIP3    H236992   5.161   6.569   7.683 -0.2833 -0.8340  0.8732
 5145TIP3   OH236993   2.858   3.763   1.120  0.2072 -0.4194  0.1519
 5145TIP3    H136994   2.810   3.715   1.187  1.2307 -2.1645 -0.2849
 5145TIP3    H236995   2.900   3.694   1.067  1.7983  0.9652 -0.4819
 5146TIP3   OH236996   5.168   0.660   7.379 -0.0581 -0.1573 -0.3957
 5146TIP3    H136997   5.081   0.623   7.367 -0.2748 -0.0307  0.7201
 5146TIP3    H236998   5.215   0.594   7.430  1.4415 -1.5483 -3.3253
 5147TIP3   OH236999   5.240   3.924   8.353 -0.3760  0.3951 -0.1838
 5147TIP3    H137000   5.319   3.971   8.381 -0.5542  0.6629 -0.1278
 5147TIP3    H237001   5.247   3.839   8.397 -0.2962  0.5498  0.1088
 5148TIP3   OH237002   1.627   2.861   0.231  0.8367  0.6469 -0.5114
 5148TIP3    H137003   1.692   2.926   0.259  0.9528  1.1373 -1.8816
 5148TIP3    H237004   1.632   2.860   0.136 -1.2838  0.7996 -0.6755
 5149TIP3   OH237005   5.036   5.240   0.989 -0.3999  0.6608  0.1764
 5149TIP3    H137006   4.958   5.186   0.998 -0.5849  1.0094  0.7623
 5149TIP3    H237007   5.019   5.316   1.045 -0.1918  1.3706 -0.7033
 5150TIP3   OH237008   4.799   2.945   0.228 -0.4716  0.0917  0.4830
 5150TIP3    H137009   4.718   2.965   0.180  0.2152 -1.3789 -1.4356
 5150TIP3    H237010   4.772   2.889   0.300 -1.2641  0.4080  0.4367
 5151TIP3   OH237011   2.490   6.337   7.807  0.2193  0.3128 -0.7228
 5151TIP3    H137012   2.451   6.340   7.720 -2.2109 -1.1722  0.1829
 5151TIP3    H237013   2.427   6.383   7.863  1.5929  1.0092  0.3058
 5152TIP3   OH237014   3.765   3.586   0.048 -0.4815 -0.4005  0.0686
 5152TIP3    H137015   3.721   3.545   0.122  0.5699 -0.4426  0.6896
 5152TIP3    H237016   3.784   3.676   0.078 -0.1173 -0.3972 -0.1586
 5153TIP3   OH237017   1.646   4.914   7.308 -0.0781  0.3388  0.0798
 5153TIP3    H137018   1.658   4.820   7.290  0.1643  0.3848  0.0033
 5153TIP3    H237019   1.730   4.942   7.344  0.3300  0.8506 -1.2382
 5154TIP3   OH237020   4.596   3.320   7.176  0.2783  0.2964  0.3643
 5154TIP3    H137021   4.681   3.286   7.204  1.0783  0.8906 -1.2149
 5154TIP3    H237022   4.545   3.242   7.154  0.8850 -0.0115  0.0377
 5155TIP3   OH237023   5.224   6.095   8.617 -0.3114  0.1630  0.1714
 5155TIP3    H137024   5.190   6.064   8.533 -0.6053  1.4464 -0.2029
 5155TIP3    H237025   5.171   6.172   8.638 -1.0958 -0.8544  2.1753
 5156TIP3   OH237026   3.116   2.656   7.546  0.0471 -0.2409 -0.2495
 5156TIP3    H137027   3.066   2.603   7.608 -1.0062  0.4101 -0.5362
 5156TIP3    H237028   3.178   2.594   7.506  0.6443 -0.6978  1.3215
 5157TIP3   OH237029   0.169   3.666   0.994 -0.0663  0.1381  0.0861
 5157TIP3    H137030   0.228   3.730   0.956 -0.3076 -0.1589 -0.8206
 5157TIP3    H237031   0.216   3.583   0.990  0.3667  0.2867  1.5369
 5158TIP3   OH237032   4.702   2.147   7.040 -0.1973  0.9044 -0.5964
 5158TIP3    H137033   4.675   2.154   6.948 -0.6236  2.3145 -0.3852
 5158TIP3    H237034   4.779   2.205   7.046  0.9562 -0.5741 -0.4525
 5159TIP3   OH237035   1.198   5.042   1.932  0.4059 -0.3244 -0.0141
 5159TIP3    H137036   1.230   4.979   1.996 -0.5570  0.4347  1.2632
 5159TIP3    H237037   1.159   5.112   1.985 -0.8729  0.0846 -1.4333
 5160TIP3   OH237038   2.624   3.936   7.823 -0.0149 -0.7264  0.6091
 5160TIP3    H137039   2.581   4.021   7.821 -1.4505 -1.4189 -1.1004
 5160TIP3    H237040   2.583   3.889   7.896 -2.6528 -1.5271 -1.2389
 5161TIP3   OH237041   0.156   4.394   7.327  0.4865  0.0480  0.0569
 5161TIP3    H137042   0.099   4.419   7.400 -0.6621  1.4788 -1.2598
 5161TIP3    H237043   0.122   4.444   7.253  0.8728 -2.2423 -1.7521
 5162TIP3   OH237044   1.888   0.150   1.499 -0.2393  0.5884 -0.1260
 5162TIP3    H137045   1.949   0.175   1.568 -0.5539  0.5529  0.1631
 5162TIP3    H237046   1.887   0.226   1.440 -0.4882  0.8929  0.2657
 5163TIP3   OH237047   1.524   5.130   7.182  0.3798 -0.1726  0.4571
 5163TIP3    H137048   1.547   5.058   7.240  2.0706 -0.0564 -0.0203
 5163TIP3    H237049   1.429   5.123   7.173  0.3109 -1.3758  1.6550
 5164TIP3   OH237050   3.362   4.080   0.184 -0.1469  0.3997  0.3860
 5164TIP3    H137051   3.357   3.988   0.208 -2.1203  0.0719 -1.1147
 5164TIP3    H237052   3.336   4.127   0.264  1.5888 -0.2442  1.3888
 5165TIP3   OH237053   0.419   2.761   8.074  0.5285 -0.0301 -0.1072
 5165TIP3    H137054   0.347   2.820   8.052 -0.2987 -1.5366 -1.6470
 5165TIP3    H237055   0.485   2.775   8.006  2.0449  1.7288  1.5799
 5166TIP3   OH237056   6.746   6.857   1.962  0.3028 -0.0595  0.3711
 5166TIP3    H137057   6.761   6.917   1.889  1.0358 -0.9884 -0.2824
 5166TIP3    H237058   6.828   6.807   1.968  0.7204  0.7908  2.6185
 5167TIP3   OH237059   4.962   6.841   8.471  0.3577 -0.2744  0.7991
 5167TIP3    H137060   4.889   6.799   8.425 -0.0442  0.2554  0.9478
 5167TIP3    H237061   5.006   6.893   8.404  0.8620 -0.9142  0.6130
 5168TIP3   OH237062   5.561   2.595   1.210 -0.1419  0.5476  0.6017
 5168TIP3    H137063   5.494   2.542   1.253  0.1095  0.3236  0.7220
 5168TIP3    H237064   5.524   2.616   1.124  0.8337 -2.1392 -0.5767
 5169TIP3   OH237065   2.687   2.728   7.725 -0.1578  0.3701  0.6438
 5169TIP3    H137066   2.696   2.641   7.685  0.2715  0.7524 -0.1264
 5169TIP3    H237067   2.710   2.788   7.654 -0.6581  1.1195  1.1100
 5170TIP3   OH237068   1.008   6.035   0.229  0.0800 -0.1944 -0.4084
 5170TIP3    H137069   0.935   6.044   0.290  0.2495  0.5384 -0.3065
 5170TIP3    H237070   1.027   5.941   0.229  1.7169 -0.0156  2.6644
 5171TIP3   OH237071   3.623   6.106   8.178  0.2310  0.1501 -0.0025
 5171TIP3    H137072   3.713   6.077   8.161  0.5572  0.9779  0.2547
 5171TIP3    H237073   3.633   6.184   8.232 -0.6933 -1.0036  1.9466
 5172TIP3   OH237074   4.615   3.508   7.372 -0.2333  0.7345 -0.4538
 5172TIP3    H137075   4.524   3.520   7.399 -0.3706  0.7679 -0.9164
 5172TIP3    H237076   4.614   3.430   7.316 -0.1764  1.3607 -1.3545
 5173TIP3   OH237077   4.567   0.559   8.561  0.1188 -0.1320  0.2707
 5173TIP3    H137078   4.599   0.581   8.648  1.0373  1.2103 -0.3715
 5173TIP3    H237079   4.597   0.631   8.505 -0.9173 -0.6826 -1.0578
 5174TIP3   OH237080   1.200   5.831   8.027 -0.2449 -0.5366 -0.1381
 5174TIP3    H137081   1.199   5.736   8.017 -1.0320 -0.5040 -0.5177
 5174TIP3    H237082   1.194   5.846   8.121 -1.8068 -0.8856 -0.1432
 5175TIP3   OH237083   5.656   1.471   0.519 -0.4261  0.2538 -0.7153
 5175TIP3    H137084   5.681   1.379   0.531  0.0570  0.1687 -2.2405
 5175TIP3    H237085   5.597   1.471   0.444  1.3341  1.4104 -2.2059
 5176TIP3   OH237086   4.508   4.854   2.324  0.3085  0.1042 -0.1110
 5176TIP3    H137087   4.449   4.809   2.385 -0.1198 -0.4335 -0.9082
 5176TIP3    H237088   4.521   4.791   2.253  3.7191 -0.7592  1.1106
 5177TIP3   OH237089   5.516   0.431   6.894 -0.6543 -0.0842  0.1181
 5177TIP3    H137090   5.564   0.425   6.977  1.1760  1.2969 -0.7491
 5177TIP3    H237091   5.577   0.394   6.829 -0.9713  1.2061 -0.9538
 5178TIP3   OH237092   0.932   2.740   6.409  0.5928 -0.1144  0.4615
 5178TIP3    H137093   0.933   2.700   6.322  0.4619  1.9028 -0.5231
 5178TIP3    H237094   0.888   2.824   6.396  0.2478  0.0790  2.5668
 5179TIP3   OH237095   6.418   5.796   1.335  0.0742 -0.3217  0.5139
 5179TIP3    H137096   6.332   5.778   1.296  0.6700 -0.4229 -0.8111
 5179TIP3    H237097   6.404   5.786   1.429 -0.5723 -4.0272  0.1765
 5180TIP3   OH237098   2.873   5.023   0.653  0.1286  0.2371 -0.2593
 5180TIP3    H137099   2.841   4.955   0.593 -0.3077  0.9599 -0.8711
 5180TIP3    H237100   2.960   4.993   0.679  0.1791 -0.2767 -0.9792
 5181TIP3   OH237101   1.476   0.343   1.377  0.6575  0.3040 -0.2370
 5181TIP3    H137102   1.388   0.311   1.354  0.3578  0.4911  0.6203
 5181TIP3    H237103   1.462   0.433   1.405  0.9394 -0.0425  1.0838
 5182TIP3   OH237104   5.214   2.066   2.078 -0.3570 -0.4980 -0.2365
 5182TIP3    H137105   5.232   1.972   2.072  0.2171 -0.3944 -0.2498
 5182TIP3    H237106   5.233   2.088   2.169  1.3213 -0.0541 -0.6579
 5183TIP3   OH237107   3.508   6.125   0.268  0.0453 -0.2058 -0.8509
 5183TIP3    H137108   3.530   6.160   0.354  1.3154 -0.1802 -1.1663
 5183TIP3    H237109   3.482   6.202   0.217  1.2272  0.0705 -1.0610
 5184TIP3   OH237110   4.118   4.395   1.865  0.0770  0.2983 -0.6483
 5184TIP3    H137111   4.124   4.490   1.865  0.1245  0.2942 -0.4162
 5184TIP3    H237112   4.189   4.367   1.808  1.1160  0.3338  0.5957
 5185TIP3   OH237113   6.036   6.462   7.814  0.1115  0.4413 -0.1810
 5185TIP3    H137114   6.005   6.542   7.857  1.0286  0.5925  0.2231
 5185TIP3    H237115   5.965   6.437   7.756  0.0136  1.8583 -0.7218
 5186TIP3   OH237116   2.080   5.375   0.469 -0.0091  0.3806  0.1857
 5186TIP3    H137117   2.078   5.467   0.494  1.6428  0.7493 -0.8968
 5186TIP3    H237118   2.022   5.370   0.392 -0.8463  0.2939  0.7998
 5187TIP3   OH237119   2.998   6.164   7.000 -0.6104 -0.0385  0.4989
 5187TIP3    H137120   3.056   6.201   7.067 -2.1205 -1.1617  2.5441
 5187TIP3    H237121   3.025   6.073   6.992  0.8980  0.5504 -2.0371
 5188TIP3   OH237122   3.493   3.422   1.221  0.0605  0.5500  0.0504
 5188TIP3    H137123   3.468   3.365   1.148  0.6946  1.3653 -0.8359
 5188TIP3    H237124   3.497   3.510   1.183 -0.9783  1.2196  1.4092
 5189TIP3   OH237125   1.540   2.016   2.049 -0.1360  0.2647  0.1333
 5189TIP3    H137126   1.588   2.082   1.998 -2.4448  0.1561 -2.3927
 5189TIP3    H237127   1.498   2.066   2.119  1.8037  0.6700  1.0958
 5190TIP3   OH237128   4.262   6.610   0.660 -0.6343  0.0438  0.0365
 5190TIP3    H137129   4.294   6.520   0.667  0.8934  0.5375 -0.4134
 5190TIP3    H237130   4.169   6.604   0.685 -1.5833 -2.2424 -3.3809
 5191TIP3   OH237131   3.262   3.604   7.033 -0.0766 -0.1368 -0.1008
 5191TIP3    H137132   3.323   3.677   7.044 -1.5769  0.9564  1.5406
 5191TIP3    H237133   3.291   3.538   7.096 -0.8266  0.5681  0.9986
 5192TIP3   OH237134   0.003   4.146   0.175  0.0090  0.2585  0.0683
 5192TIP3    H137135  -0.004   4.055   0.146  0.7287 -0.3827  1.7451
 5192TIP3    H237136   0.088   4.175   0.143  0.6449 -0.3286  1.1666
 5193TIP3   OH237137   6.177   4.617   6.900 -0.1335  0.1500 -0.4393
 5193TIP3    H137138   6.165   4.538   6.847  1.5129 -1.5041  1.4682
 5193TIP3    H237139   6.268   4.613   6.928 -0.8758  0.9250  2.4036
 5194TIP3   OH237140   5.829   0.575   6.319  0.3729 -0.6974 -0.7335
 5194TIP3    H137141   5.859   0.489   6.349  1.8448 -0.3834 -1.2363
 5194TIP3    H237142   5.827   0.629   6.398 -0.0431 -1.0393 -0.5039
 5195TIP3   OH237143   6.377   4.719   6.697 -0.0351  0.0375  0.4873
 5195TIP3    H137144   6.314   4.660   6.738  0.8258  0.2898  2.2837
 5195TIP3    H237145   6.323   4.783   6.650 -0.9951 -1.8481 -1.1004
 5196TIP3   OH237146   4.007   4.653   8.156 -0.0204  0.1412  0.1914
 5196TIP3    H137147   4.047   4.732   8.192  0.7054 -0.4960  0.8136
 5196TIP3    H237148   3.995   4.595   8.231 -2.3107  0.3567  0.0687
 5197TIP3   OH237149   5.636   3.437   8.526 -0.0383 -0.1348 -0.5613
 5197TIP3    H137150   5.549   3.437   8.566  0.7990 -0.6866  1.3766
 5197TIP3    H237151   5.663   3.529   8.529 -0.4047 -0.0168 -0.8323
 5198TIP3   OH237152   4.208   5.230   0.974 -0.0878  0.6544 -0.1863
 5198TIP3    H137153   4.129   5.280   0.994  0.6068  1.0153  1.9776
 5198TIP3    H237154   4.272   5.259   1.040  1.6002 -0.2008 -1.3714
 5199TIP3   OH237155   4.290   1.203   6.940  0.0432  0.1001 -0.0600
 5199TIP3    H137156   4.267   1.120   6.900  2.2835 -0.2266 -0.8576
 5199TIP3    H237157   4.342   1.248   6.873  3.2230 -0.0952  2.0192
 5200TIP3   OH237158   5.863   6.406   6.272  0.1658  0.0688 -0.3960
 5200TIP3    H137159   5.782   6.446   6.238 -0.0936 -0.3047 -0.2251
 5200TIP3    H237160   5.833   6.330   6.321  0.5838  0.2785  0.1970
 5201TIP3   OH237161   1.543   2.016   7.101 -0.5252 -0.2425  0.5181
 5201TIP3    H137162   1.493   2.018   7.019 -1.9608  1.5300  1.3599
 5201TIP3    H237163   1.540   2.106   7.133 -0.0466 -0.9016  2.5560
 5202TIP3   OH237164   1.515   6.593   1.946  1.0408 -0.1637  0.6856
 5202TIP3    H137165   1.517   6.680   1.986 -2.0147 -0.0021  0.7126
 5202TIP3    H237166   1.478   6.536   2.013 -3.0447 -0.1156 -1.2318
 5203TIP3   OH237167   1.057   0.238   6.556  0.2576  0.0433 -0.3522
 5203TIP3    H137168   1.115   0.278   6.491 -0.2171 -1.3109 -1.6805
 5203TIP3    H237169   0.969   0.252   6.521 -0.0808  0.1352  0.5113
 5204TIP3   OH237170   2.765   0.002   7.129 -0.2763  0.4302 -0.1211
 5204TIP3    H137171   2.788  -0.090   7.139 -0.2036  0.5503  0.9660
 5204TIP3    H237172   2.828   0.049   7.185  0.1668  1.2111 -1.2369
 5205TIP3   OH237173   2.684   1.997   7.388  0.0591  0.1260  0.1321
 5205TIP3    H137174   2.593   2.001   7.415  0.0167  1.8861 -0.1742
 5205TIP3    H237175   2.682   2.018   7.294  0.6793 -1.1286 -0.1955
 5206TIP3   OH237176   3.886   4.611   7.758 -0.1436  0.2125 -0.2308
 5206TIP3    H137177   3.957   4.547   7.750 -0.9768 -0.8331  0.3655
 5206TIP3    H237178   3.819   4.580   7.696  0.1031  1.4818 -1.1747
 5207TIP3   OH237179   5.636   3.750   0.219  0.1237 -0.5057  0.0759
 5207TIP3    H137180   5.646   3.845   0.228  1.4971 -0.5422 -0.7146
 5207TIP3    H237181   5.716   3.715   0.258  0.2521 -1.2632 -0.8487
 5208TIP3   OH237182   5.678   1.454   1.155  0.1674 -0.1343  0.2595
 5208TIP3    H137183   5.733   1.378   1.176  0.4301 -0.2559 -0.8137
 5208TIP3    H237184   5.599   1.441   1.207  0.4589 -0.8364  0.5456
 5209TIP3   OH237185   5.152   4.041   0.443  0.2704  0.3196 -0.4106
 5209TIP3    H137186   5.224   4.041   0.506 -1.2038  0.1578  1.3475
 5209TIP3    H237187   5.178   3.977   0.377  1.4195 -0.2639  0.5756
 5210TIP3   OH237188   6.104   1.470   1.614 -0.1129 -0.0494  0.1615
 5210TIP3    H137189   6.073   1.409   1.547 -1.5934  1.8276 -0.9637
 5210TIP3    H237190   6.178   1.515   1.573 -0.7861  0.8404 -0.1097
 5211TIP3   OH237191   1.633   0.194   0.478 -0.6161  0.4339  0.0997
 5211TIP3    H137192   1.729   0.194   0.474 -0.6034  0.7972  0.3801
 5211TIP3    H237193   1.606   0.159   0.393 -0.2387  0.8953 -0.2217
 5212TIP3   OH237194   2.767   6.500   0.532  0.1694 -0.0492  0.2830
 5212TIP3    H137195   2.790   6.453   0.613 -0.9732  0.3350  0.8583
 5212TIP3    H237196   2.822   6.460   0.465 -0.3876 -1.8849  0.8412
 5213TIP3   OH237197   1.044   6.319   1.140  0.2047 -0.2104  0.5809
 5213TIP3    H137198   1.026   6.355   1.227  0.1955  1.3865 -0.0529
 5213TIP3    H237199   1.026   6.225   1.149  1.4981 -0.3140  2.6409
 5214TIP3   OH237200   0.020   2.429   7.962  0.0251 -0.0752  0.0921
 5214TIP3    H137201   0.039   2.412   7.870  1.4630 -1.4483  0.6056
 5214TIP3    H237202   0.092   2.389   8.010  0.2658  2.1320  1.7692
 5215TIP3   OH237203   1.892   3.178   2.393 -0.2280  0.2281  0.3669
 5215TIP3    H137204   1.859   3.102   2.441 -1.0276  0.5972  0.4272
 5215TIP3    H237205   1.922   3.238   2.462  1.5323 -0.5044  0.2840
 5216TIP3   OH237206   0.649   5.575   7.551 -0.7460 -0.3743  0.0579
 5216TIP3    H137207   0.644   5.670   7.540  3.0209 -0.0258 -0.0380
 5216TIP3    H237208   0.589   5.556   7.623  2.3755  3.0401  4.1198
 5217TIP3   OH237209   0.888   0.882   7.030 -0.0837  0.1793 -0.0707
 5217TIP3    H137210   0.866   0.968   7.066  0.4038  0.9621 -1.5550
 5217TIP3    H237211   0.883   0.894   6.936  0.3495 -1.3412 -0.3087
 5218TIP3   OH237212   1.636   4.818   0.847  0.2333 -0.7722 -0.0902
 5218TIP3    H137213   1.664   4.872   0.773  0.2032 -0.3588  0.1978
 5218TIP3    H237214   1.677   4.859   0.923 -0.9671 -0.2997  0.3091
 5219TIP3   OH237215   1.653   2.521   6.420  0.6338  0.1395 -0.3196
 5219TIP3    H137216   1.670   2.598   6.474 -0.6108 -0.0448  0.3895
 5219TIP3    H237217   1.689   2.543   6.334  1.7817  0.8256  0.3139
 5220TIP3   OH237218   1.770   0.202   0.012  0.5519  0.3831 -0.1021
 5220TIP3    H137219   1.829   0.210  -0.064  0.0573  2.1122 -0.3525
 5220TIP3    H237220   1.703   0.269  -0.003 -0.4017 -0.2577  1.1373
 5221TIP3   OH237221   2.922   4.083   8.330  0.5416 -0.0669 -0.2125
 5221TIP3    H137222   2.839   4.127   8.316  1.1573  0.5570 -2.3688
 5221TIP3    H237223   2.962   4.128   8.404  0.5602  2.1878 -1.5107
 5222TIP3   OH237224   3.151   5.898   0.790  0.0352 -0.2325  0.0492
 5222TIP3    H137225   3.158   5.887   0.696  1.5251 -1.5408  0.2797
 5222TIP3    H237226   3.161   5.810   0.825  2.1125  0.5204  1.5498
 5223TIP3   OH237227   5.798   4.859   1.228  0.2899 -0.0951 -0.3241
 5223TIP3    H137228   5.727   4.796   1.235  0.3228  0.0423  1.9468
 5223TIP3    H237229   5.762   4.931   1.177 -0.3634 -1.1150 -1.3279
 5224TIP3   OH237230   4.963   3.085   2.053  0.7652 -0.3655  0.1000
 5224TIP3    H137231   4.880   3.129   2.035  0.2648 -0.6779  1.5186
 5224TIP3    H237232   4.957   3.001   2.009 -1.2463 -1.9577  3.0301
 5225TIP3   OH237233   4.213   0.888   0.205 -0.1170 -0.3915  0.3414
 5225TIP3    H137234   4.273   0.931   0.144 -0.9839 -0.2844 -0.4764
 5225TIP3    H237235   4.229   0.795   0.191 -1.4743 -0.4314 -1.3500
 5226TIP3   OH237236   3.648   4.875   7.037  0.2220 -0.4427 -0.0185
 5226TIP3    H137237   3.682   4.803   6.984 -0.9022 -1.1723  0.2079
 5226TIP3    H237238   3.700   4.873   7.117  0.0921 -1.1248  0.0561
 5227TIP3   OH237239   5.804   3.094   0.130 -0.0489 -0.2707  0.0179
 5227TIP3    H137240   5.721   3.096   0.178  0.0681  1.8530  0.1987
 5227TIP3    H237241   5.869   3.128   0.192 -0.0450  3.4470 -1.7707
 5228TIP3   OH237242   0.845   3.697   6.776 -0.9713  0.2288  0.1059
 5228TIP3    H137243   0.837   3.748   6.695  0.0273 -0.0425 -0.1677
 5228TIP3    H237244   0.819   3.758   6.845  0.5316  1.2388 -0.1827
 5229TIP3   OH237245   5.524   5.977   0.484 -0.8998  0.0297 -0.7905
 5229TIP3    H137246   5.432   5.984   0.462 -1.6959  0.4278  2.1549
 5229TIP3    H237247   5.545   6.059   0.528  0.0642 -1.0285  0.8837
 5230TIP3   OH237248   3.773   1.865   1.654  0.0415  0.3355 -0.5357
 5230TIP3    H137249   3.705   1.887   1.590  2.1639  1.8458 -2.4312
 5230TIP3    H237250   3.854   1.897   1.614  1.4048  2.3822  3.3714
 5231TIP3   OH237251   4.772   6.780   1.807  0.4741 -0.2968 -0.0695
 5231TIP3    H137252   4.713   6.851   1.832 -0.2330 -0.2817 -1.6745
 5231TIP3    H237253   4.796   6.738   1.890 -1.3564  0.0417  0.6715
 5232TIP3   OH237254   5.850   4.118   7.511 -0.2847  0.1905  0.5020
 5232TIP3    H137255   5.899   4.175   7.452  2.2822 -1.0395  1.3164
 5232TIP3    H237256   5.802   4.060   7.453  1.2683 -0.2318 -0.4204
 5233TIP3   OH237257   0.642   0.065   0.483  0.4314  0.7430 -0.2416
 5233TIP3    H137258   0.579   0.117   0.533  0.6551  1.1837 -0.4080
 5233TIP3    H237259   0.725   0.078   0.529  0.2241 -0.6680  0.5924
 5234TIP3   OH237260   0.639   2.373   7.101  0.1074  0.3329 -0.2260
 5234TIP3    H137261   0.611   2.283   7.116  0.1870  0.4612  0.8089
 5234TIP3    H237262   0.615   2.392   7.011 -0.4186 -0.5381 -0.2762
 5235TIP3   OH237263   1.449   3.130   0.167  0.7283 -0.3257 -0.9310
 5235TIP3    H137264   1.516   3.158   0.105  0.9946 -0.5573 -0.7518
 5235TIP3    H237265   1.476   3.043   0.195 -1.6336 -2.1089 -3.6922
 5236TIP3   OH237266   4.245   0.372   1.261 -0.2734 -0.2063  0.3069
 5236TIP3    H137267   4.289   0.290   1.237 -0.7965 -0.2940 -0.3642
 5236TIP3    H237268   4.229   0.416   1.178 -1.0097  0.0590  0.5875
 5237TIP3   OH237269   6.313   4.776   1.368  0.3300 -0.1613 -0.3581
 5237TIP3    H137270   6.224   4.754   1.396 -0.1099  1.1218 -0.6768
 5237TIP3    H237271   6.319   4.740   1.279  1.3621 -3.2914  0.8454
 5238TIP3   OH237272   5.447   5.537   8.101  0.6272  0.1599 -0.0918
 5238TIP3    H137273   5.363   5.581   8.099  1.0715  1.0033 -1.6277
 5238TIP3    H237274   5.477   5.547   8.191 -1.8019 -1.9760  1.0819
 5239TIP3   OH237275   6.053   5.544   0.327  0.1361 -0.0134 -0.6870
 5239TIP3    H137276   5.981   5.606   0.336 -0.2899 -0.7362  1.7042
 5239TIP3    H237277   6.011   5.458   0.327  0.9391 -0.4228  0.1905
 5240TIP3   OH237278   4.495   3.222   7.707  0.4094  0.7284  0.3354
 5240TIP3    H137279   4.479   3.253   7.796 -2.3521 -0.2645  0.2729
 5240TIP3    H237280   4.408   3.205   7.671  1.4313  1.1431 -2.6018
 5241TIP3   OH237281   6.366   2.087   0.864 -0.2185 -0.1193  0.2602
 5241TIP3    H137282   6.379   2.175   0.898 -0.7187 -0.1620  0.5717
 5241TIP3    H237283   6.404   2.030   0.931 -1.1936 -0.2032  0.7653
 5242TIP3   OH237284   0.515   0.884   1.753  0.1232 -0.0216 -0.0226
 5242TIP3    H137285   0.541   0.793   1.767 -1.0849 -0.2056  1.2112
 5242TIP3    H237286   0.419   0.882   1.758  0.0629  1.2647 -0.3782
 5243TIP3   OH237287   0.049   1.660   7.461  0.0923  0.2006 -0.2537
 5243TIP3    H137288   0.109   1.721   7.503  1.5286 -2.2679  1.5191
 5243TIP3    H237289  -0.013   1.635   7.530  0.2272 -1.1674 -0.6047
 5244TIP3   OH237290   5.490   3.077   6.417  0.1424 -0.1352 -0.2904
 5244TIP3    H137291   5.467   3.107   6.505 -1.2271  0.5714 -0.8666
 5244TIP3    H237292   5.465   2.985   6.416  1.0814 -0.4174  0.3541
 5245TIP3   OH237293   5.203   3.637   7.989  0.3900  0.1038 -0.0871
 5245TIP3    H137294   5.282   3.598   8.026  0.0077 -0.7893 -0.1765
 5245TIP3    H237295   5.193   3.720   8.034 -0.5105 -1.2818  2.4743
 5246TIP3   OH237296   1.513   1.423   7.621 -0.0264 -0.5363 -0.1935
 5246TIP3    H137297   1.480   1.406   7.533 -0.4540  1.2895 -0.4371
 5246TIP3    H237298   1.445   1.476   7.663  1.8087  2.0258 -0.1892
 5247TIP3   OH237299   1.631   4.282   2.439  0.3911 -0.2213  0.2030
 5247TIP3    H137300   1.538   4.275   2.459  0.5761 -1.7059  0.6073
 5247TIP3    H237301   1.648   4.377   2.438 -0.9601  0.0470  0.8046
 5248TIP3   OH237302   2.463   1.243   1.521 -0.2805 -0.1236  0.1506
 5248TIP3    H137303   2.471   1.264   1.614 -0.8516  2.3732 -0.2823
 5248TIP3    H237304   2.392   1.178   1.517 -0.4279 -0.0731  1.4312
 5249TIP3   OH237305   2.094   0.389   2.320 -0.4206  0.0017  0.0344
 5249TIP3    H137306   2.106   0.457   2.387  0.5375  0.1683 -0.2844
 5249TIP3    H237307   2.175   0.339   2.323 -0.9716 -0.9135  0.0073
 5250TIP3   OH237308   6.356   2.295   8.413 -0.2024  0.3300  0.0265
 5250TIP3    H137309   6.378   2.373   8.463 -1.0187  1.4755 -1.3367
 5250TIP3    H237310   6.262   2.301   8.398 -0.2556 -0.8499 -0.1974
 5251TIP3   OH237311   0.294   4.544   2.144  0.2955 -0.2632 -0.5426
 5251TIP3    H137312   0.348   4.564   2.221 -0.2340  1.5796 -0.6012
 5251TIP3    H237313   0.357   4.525   2.075  0.8072 -0.4432 -0.0416
 5252TIP3   OH237314   1.505   3.215   8.515 -0.5678 -0.0629  0.8168
 5252TIP3    H137315   1.581   3.261   8.550 -0.8797  2.4713 -1.5668
 5252TIP3    H237316   1.532   3.186   8.428 -2.2052  0.6354  0.0332
 5253TIP3   OH237317   2.426   4.928   0.613  0.6134 -0.7067  0.5367
 5253TIP3    H137318   2.500   4.902   0.560  2.7895  2.5515  1.6285
 5253TIP3    H237319   2.370   4.979   0.554  1.8208  0.9091  0.7144
 5254TIP3   OH237320   5.355   1.326   6.548 -0.3920 -0.6790  0.1367
 5254TIP3    H137321   5.384   1.333   6.457 -1.1321  0.9713  0.0039
 5254TIP3    H237322   5.260   1.319   6.543 -0.4450 -0.5282  0.7796
 5255TIP3   OH237323   3.472   3.034   6.838 -0.3367  0.7045 -0.0595
 5255TIP3    H137324   3.408   2.975   6.798 -0.2648  0.6093 -0.0334
 5255TIP3    H237325   3.463   3.116   6.789 -0.0217  0.4880 -0.4833
 5256TIP3   OH237326   6.780   0.132   1.752  0.2274 -0.3681  0.1104
 5256TIP3    H137327   6.856   0.106   1.699 -0.3210 -0.9504 -0.4165
 5256TIP3    H237328   6.774   0.226   1.740  2.3066  0.1014  2.1212
 5257TIP3   OH237329   1.338   3.352   7.416  0.7949 -0.6592  0.9677
 5257TIP3    H137330   1.260   3.398   7.445 -0.8015 -1.8107 -1.1606
 5257TIP3    H237331   1.401   3.421   7.394 -0.4484  0.3926  0.6194
 5258TIP3   OH237332   2.194   3.733   8.545  0.0773  0.0146  0.5043
 5258TIP3    H137333   2.276   3.714   8.591 -0.2926 -0.5489  0.9455
 5258TIP3    H237334   2.218   3.736   8.453  1.3210  3.5544  0.7968
 5259TIP3   OH237335   0.618   4.093   2.459  0.2103  0.0151 -0.2831
 5259TIP3    H137336   0.558   4.163   2.436  0.9077  0.7177 -0.0072
 5259TIP3    H237337   0.645   4.055   2.375  2.3274  2.2090 -0.6986
 5260TIP3   OH237338   2.952   5.423   8.162 -0.2180  0.0703  0.5257
 5260TIP3    H137339   3.003   5.348   8.194  1.1255  0.3053 -0.9517
 5260TIP3    H237340   2.928   5.399   8.073 -4.0384 -0.6425  1.5773
 5261TIP3   OH237341   6.662   1.403   8.260  0.3521 -0.2598 -0.2044
 5261TIP3    H137342   6.576   1.443   8.268  0.6392  0.0909  1.3694
 5261TIP3    H237343   6.661   1.361   8.174 -0.6136  1.5384 -1.1170
 5262TIP3   OH237344   3.012   0.371   8.373  0.1503  0.6180  0.1499
 5262TIP3    H137345   3.095   0.379   8.326  0.2163 -1.9343 -0.3159
 5262TIP3    H237346   2.946   0.397   8.309  0.3862 -0.8351 -0.7314
 5263TIP3   OH237347   6.243   3.490   7.993  0.2173  0.3066  0.2312
 5263TIP3    H137348   6.292   3.460   7.915 -0.3009  0.1849 -0.0517
 5263TIP3    H237349   6.252   3.585   7.991 -0.1761  0.3388 -0.2370
 5264TIP3   OH237350   1.695   0.284   1.233  0.0895  0.6268 -0.5016
 5264TIP3    H137351   1.718   0.195   1.256  0.2668  0.6744 -0.4970
 5264TIP3    H237352   1.620   0.305   1.288  0.9820  1.0087  0.5956
 5265TIP3   OH237353   0.795   3.377   7.694  0.4449 -0.4747  0.1160
 5265TIP3    H137354   0.757   3.361   7.780 -0.0321 -1.7373 -0.3139
 5265TIP3    H237355   0.883   3.342   7.700 -0.1267 -2.0605 -0.3876
 5266TIP3   OH237356   2.215   4.108   7.429 -0.1842  0.4577 -0.5181
 5266TIP3    H137357   2.298   4.094   7.475 -0.4599  0.1755 -0.0952
 5266TIP3    H237358   2.241   4.139   7.343  0.4265 -1.3061 -1.0186
 5267TIP3   OH237359   4.377   6.361   0.637 -0.3104  0.5699 -0.0708
 5267TIP3    H137360   4.453   6.337   0.584  1.0192 -0.7537  2.2606
 5267TIP3    H237361   4.365   6.287   0.696 -3.1880  0.9366 -0.0300
 5268TIP3   OH237362   1.116   6.608   1.906 -0.5275 -0.5076 -0.3535
 5268TIP3    H137363   1.175   6.618   1.832 -2.3827 -0.6510 -1.9290
 5268TIP3    H237364   1.100   6.514   1.912  0.4032 -0.6150  0.9298
 5269TIP3   OH237365   4.220   4.253   6.617  0.6496  0.2323  0.1154
 5269TIP3    H137366   4.134   4.292   6.601  0.7486  0.0763 -0.8238
 5269TIP3    H237367   4.200   4.171   6.662  0.3427  0.4979  0.4742
 5270TIP3   OH237368   4.280   6.302   1.927 -0.1379  0.1300  0.4213
 5270TIP3    H137369   4.203   6.246   1.944  0.9344 -1.4954  0.1691
 5270TIP3    H237370   4.243   6.383   1.892 -1.8362  0.0253  1.8089
 5271TIP3   OH237371   0.687   2.963   1.497 -0.1858 -0.9141  0.2763
 5271TIP3    H137372   0.685   2.922   1.411 -0.3125  0.8770 -0.6366
 5271TIP3    H237373   0.606   3.014   1.500  1.6795  2.4106 -0.3752
 5272TIP3   OH237374   6.053   1.171   0.562 -0.2955  0.0697  0.0566
 5272TIP3    H137375   6.037   1.227   0.639 -0.5882 -0.5092  0.4257
 5272TIP3    H237376   6.148   1.172   0.551 -0.0285 -1.5397  1.7394
 5273TIP3   OH237377   2.853   2.987   7.990 -0.0792 -0.2116  0.0364
 5273TIP3    H137378   2.902   2.948   8.062 -0.7092  0.9298  1.1149
 5273TIP3    H237379   2.868   3.081   7.998  0.1758 -0.0859 -1.5845
 5274TIP3   OH237380   4.769   5.461   7.739 -0.2328  0.0061 -0.2392
 5274TIP3    H137381   4.761   5.556   7.742 -2.9628 -0.1609  1.5736
 5274TIP3    H237382   4.696   5.433   7.683 -1.1413 -1.0827  1.4055
 5275TIP3   OH237383   5.391   3.852   1.801 -0.3155  0.1713  0.2810
 5275TIP3    H137384   5.320   3.888   1.747  0.3455  2.2699  0.7064
 5275TIP3    H237385   5.401   3.762   1.770 -2.6253  0.0371 -0.3179
 5276TIP3   OH237386   6.035   6.472   8.419  0.6862 -0.3241 -0.0169
 5276TIP3    H137387   6.051   6.469   8.324 -0.9156  1.8524 -0.4465
 5276TIP3    H237388   6.119   6.497   8.457  0.6985  1.6345 -1.2062
 5277TIP3   OH237389   1.558   4.577   0.450 -0.1128 -0.6313  0.1239
 5277TIP3    H137390   1.511   4.505   0.409  0.2326 -0.4322 -0.6450
 5277TIP3    H237391   1.649   4.546   0.456  0.1866 -0.0049 -0.8745
 5278TIP3   OH237392   3.970   4.360   6.610 -0.3826  0.5152  0.0868
 5278TIP3    H137393   3.880   4.328   6.614 -0.1111 -0.3153 -0.2417
 5278TIP3    H237394   3.971   4.418   6.534 -0.2629 -0.7510 -0.9078
 5279TIP3   OH237395   0.562   3.179   1.779 -0.3866 -0.4551 -0.0704
 5279TIP3    H137396   0.536   3.133   1.859 -0.3901 -0.1271  0.1159
 5279TIP3    H237397   0.531   3.122   1.708 -0.0034 -0.9658  0.1583
 5280TIP3   OH237398   6.370   1.054   8.122  0.0603  0.1907  0.1948
 5280TIP3    H137399   6.422   1.120   8.076  0.6402  0.5550  1.3369
 5280TIP3    H237400   6.435   1.000   8.168 -0.5288  0.2622  1.1327
 5281TIP3   OH237401   3.627   3.488   1.456  0.0274  0.3353 -0.7304
 5281TIP3    H137402   3.560   3.465   1.392  0.4943 -0.1864 -1.0396
 5281TIP3    H237403   3.709   3.461   1.415  0.4082  0.7762 -0.2673
 5282TIP3   OH237404   3.496   3.414   0.359 -0.3366 -0.7043  0.2654
 5282TIP3    H137405   3.492   3.432   0.265  5.4833  1.9937  0.0604
 5282TIP3    H237406   3.453   3.489   0.399 -0.5667 -0.5372 -0.2826
 5283TIP3   OH237407   3.923   6.874   7.034 -0.4724  0.1948  0.1898
 5283TIP3    H137408   3.975   6.800   7.064  0.0496  0.0737 -0.9675
 5283TIP3    H237409   3.974   6.951   7.056  1.1362  0.0314 -2.4779
 5284TIP3   OH237410   2.081   6.006   6.963 -0.3002 -0.2025 -0.2345
 5284TIP3    H137411   2.078   6.000   6.868 -0.5750  1.4152 -0.3596
 5284TIP3    H237412   2.174   5.999   6.985 -0.1496  0.3217 -0.6962
 5285TIP3   OH237413   3.824   2.405   8.058  0.0088 -0.0967 -0.2558
 5285TIP3    H137414   3.904   2.354   8.070  0.6736  1.3026  1.7177
 5285TIP3    H237415   3.803   2.437   8.146 -1.6574  1.1390 -1.0583
 5286TIP3   OH237416   1.450   2.647   1.482 -0.2246  0.6214 -0.6750
 5286TIP3    H137417   1.434   2.664   1.389 -2.7628  1.9289 -0.1125
 5286TIP3    H237418   1.406   2.563   1.499  1.8303 -0.5688 -0.9731
 5287TIP3   OH237419   2.399   4.990   2.632  0.2571  0.1898  0.4607
 5287TIP3    H137420   2.406   5.012   2.725  0.4598 -0.1652  0.5292
 5287TIP3    H237421   2.354   4.905   2.631 -0.4570  0.5627  0.1994
 5288TIP3   OH237422   4.857   4.770   1.655  0.2349  0.5121  0.4327
 5288TIP3    H137423   4.763   4.752   1.660  0.3819  0.0553  3.1305
 5288TIP3    H237424   4.890   4.707   1.591 -1.0981 -0.2160  0.4113
 5289TIP3   OH237425   1.547   4.839   6.741  0.4368  0.1168  0.3279
 5289TIP3    H137426   1.592   4.804   6.664  0.0240  0.5247 -0.0982
 5289TIP3    H237427   1.487   4.905   6.707 -0.4332 -0.3564  0.9027
 5290TIP3   OH237428   0.815   4.740   0.996  0.2192  0.5408 -0.5711
 5290TIP3    H137429   0.911   4.743   0.990  0.3332 -0.3923  0.3362
 5290TIP3    H237430   0.788   4.689   0.920  0.6548 -1.1770  0.3748
 5291TIP3   OH237431   3.863   3.114   7.669 -0.5360  0.6256  0.0770
 5291TIP3    H137432   3.898   3.105   7.581 -0.7425  1.8564 -0.1520
 5291TIP3    H237433   3.859   3.209   7.684  0.5864  0.4582  1.8521
 5292TIP3   OH237434   5.607   6.573   6.491  0.3191 -0.7348  0.4626
 5292TIP3    H137435   5.578   6.664   6.483  0.1883 -0.6646  1.5151
 5292TIP3    H237436   5.548   6.524   6.435 -0.8048 -0.3750  1.2852
 5293TIP3   OH237437   3.260   3.110   1.896  0.0608  0.2315  0.1719
 5293TIP3    H137438   3.182   3.159   1.873 -0.1222  0.4615  1.2117
 5293TIP3    H237439   3.276   3.133   1.988  0.6234 -0.7734  0.3391
 5294TIP3   OH237440   4.818   4.237   8.032 -0.2055  0.4361  0.1832
 5294TIP3    H137441   4.856   4.229   7.944 -0.1324  0.3472  0.2233
 5294TIP3    H237442   4.821   4.331   8.050 -1.0623  0.5594 -0.2827
 5295TIP3   OH237443   6.248   2.085   1.724  0.2144  0.2597  0.4230
 5295TIP3    H137444   6.180   2.094   1.791 -0.7303  1.7520 -0.6561
 5295TIP3    H237445   6.282   1.996   1.736 -0.9106 -0.0146  1.9379
 5296TIP3   OH237446   0.775   6.009   0.377 -0.8578 -1.0510 -0.4410
 5296TIP3    H137447   0.820   5.978   0.455  2.0947  2.3662 -0.5592
 5296TIP3    H237448   0.721   6.082   0.407 -0.6243 -0.4728 -1.3721
 5297TIP3   OH237449   4.668   6.619   8.146  0.4403 -0.4355 -0.0386
 5297TIP3    H137450   4.595   6.567   8.181 -1.0948  1.7058  0.1468
 5297TIP3    H237451   4.682   6.584   8.058 -1.9047  0.1027 -0.6887
 5298TIP3   OH237452   3.055   6.067   2.024 -0.4205  0.4793  0.9646
 5298TIP3    H137453   3.115   6.110   2.085  1.6637 -0.2284 -0.4699
 5298TIP3    H237454   3.062   5.974   2.045 -0.5256  0.3351  0.3771
 5299TIP3   OH237455   3.122   4.941   0.736 -0.0530 -0.2871  0.0384
 5299TIP3    H137456   3.172   4.910   0.812 -0.1489 -0.7183 -0.0695
 5299TIP3    H237457   3.185   4.937   0.664  0.4751  1.5171  0.3496
 5300TIP3   OH237458   6.538   1.744   7.177  0.1856  0.1891  0.0161
 5300TIP3    H137459   6.548   1.654   7.148  0.2182 -0.2602  1.3583
 5300TIP3    H237460   6.469   1.780   7.121  1.2852 -0.1564 -1.6060
 5301TIP3   OH237461   0.906   2.344   7.820 -0.2143 -0.2479 -0.2618
 5301TIP3    H137462   0.949   2.430   7.813 -0.3004 -0.2762 -1.4925
 5301TIP3    H237463   0.848   2.351   7.895  0.2898  0.5498  0.0604
 5302TIP3   OH237464   3.968   4.880   7.555 -0.3345 -0.1861 -0.0456
 5302TIP3    H137465   4.027   4.948   7.591 -0.7731  0.4656 -0.5322
 5302TIP3    H237466   3.939   4.831   7.632 -0.9578  0.9504  0.4756
 5303TIP3   OH237467   1.524   6.054   2.523  0.3393 -0.2644  0.4398
 5303TIP3    H137468   1.457   6.064   2.591  0.6118  2.7490  0.3958
 5303TIP3    H237469   1.593   6.003   2.566 -0.0183  0.5275  2.0620
 5304TIP3   OH237470   5.982   2.737   0.533  0.0113  0.1698  0.2734
 5304TIP3    H137471   5.996   2.665   0.594  4.6393  1.3470  1.0162
 5304TIP3    H237472   6.042   2.719   0.460 -1.3087  1.5393 -1.2453
 5305TIP3   OH237473   0.608   2.400   1.692 -0.6192  0.8689 -0.2378
 5305TIP3    H137474   0.575   2.489   1.703 -2.9932  0.0310  0.0931
 5305TIP3    H237475   0.534   2.352   1.655  0.0304 -1.3476  1.1448
 5306TIP3   OH237476   2.567   2.077   0.082 -0.4017  0.1328  0.3031
 5306TIP3    H137477   2.495   2.101   0.024 -1.4686  0.9469  1.9184
 5306TIP3    H237478   2.554   1.984   0.100 -0.8531  0.2010  0.3251
 5307TIP3   OH237479   4.675   3.613   2.312  0.2187  0.2628  0.3654
 5307TIP3    H137480   4.654   3.535   2.364  0.7722  0.6467  1.1830
 5307TIP3    H237481   4.770   3.619   2.317  0.4269 -0.4470 -1.8197
 5308TIP3   OH237482   5.788   3.669   8.493  0.7830 -0.1117 -0.2659
 5308TIP3    H137483   5.721   3.735   8.473 -0.0707 -0.3919  1.4609
 5308TIP3    H237484   5.857   3.718   8.538  0.8046 -0.1583 -0.2483
 5309TIP3   OH237485   1.048   4.398   1.421 -0.3487  0.4339 -0.3374
 5309TIP3    H137486   1.139   4.400   1.391 -0.2823 -1.7980 -0.4460
 5309TIP3    H237487   1.053   4.362   1.510 -1.1722 -0.6812 -0.7158
 5310TIP3   OH237488   3.269   2.376   8.295 -0.0306 -0.7632  0.0054
 5310TIP3    H137489   3.271   2.285   8.266 -0.1434 -0.6103 -0.5032
 5310TIP3    H237490   3.176   2.397   8.301 -0.1067  0.2350 -2.9483
 5311TIP3   OH237491   2.179   0.066   2.174  0.5230 -0.7400  0.2018
 5311TIP3    H137492   2.222   0.109   2.248  1.3158 -1.4125  0.1504
 5311TIP3    H237493   2.249   0.019   2.130  0.0319 -0.4470 -0.9151
 5312TIP3   OH237494   6.105   2.549   0.120 -0.0062 -0.1907  0.3888
 5312TIP3    H137495   6.118   2.614   0.188 -0.1582  0.6021 -0.3277
 5312TIP3    H237496   6.028   2.500   0.148 -0.5054  0.6083  0.4143
 5313TIP3   OH237497   4.524   1.708   7.609 -0.1578  0.3135  0.5667
 5313TIP3    H137498   4.531   1.678   7.700  0.7346  2.1213  1.1422
 5313TIP3    H237499   4.582   1.649   7.560 -1.6995 -1.5563  0.8848
 5314TIP3   OH237500   2.416   0.353   8.277 -0.2364  0.2418 -0.4958
 5314TIP3    H137501   2.427   0.402   8.196 -1.9196  0.4426 -0.6427
 5314TIP3    H237502   2.333   0.385   8.313 -1.2133 -2.2008 -0.3910
 5315TIP3   OH237503   2.394   4.636   0.915  0.1564  0.8712 -0.0081
 5315TIP3    H137504   2.351   4.716   0.885 -1.1950  0.0623 -0.2955
 5315TIP3    H237505   2.379   4.635   1.009  1.1254  1.4902  0.1680
 5316TIP3   OH237506   2.010   4.129   1.428  0.0481 -0.0336  0.1547
 5316TIP3    H137507   2.067   4.127   1.505 -0.8085  0.8093  0.8245
 5316TIP3    H237508   2.070   4.145   1.355  0.7637  0.0736  0.7511
 5317TIP3   OH237509   4.102   0.915   7.222  0.4571 -0.1385  0.2893
 5317TIP3    H137510   4.091   1.000   7.180 -0.0150 -0.1430  0.4080
 5317TIP3    H237511   4.186   0.922   7.269  0.5173  0.1882  0.1316
 5318TIP3   OH237512   0.763   4.493   8.352  0.2578 -0.6149  0.6548
 5318TIP3    H137513   0.680   4.446   8.364  0.8643 -1.3452  2.1704
 5318TIP3    H237514   0.797   4.505   8.441  1.9441 -0.6265  0.0460
 5319TIP3   OH237515   1.502   2.264   7.999  0.3810 -0.0745  0.3541
 5319TIP3    H137516   1.492   2.338   8.059 -1.0343 -0.0357  0.1010
 5319TIP3    H237517   1.477   2.188   8.051  1.5790 -0.3689  0.5342
 5320TIP3   OH237518   5.786   0.467   6.075  0.3337  0.5765  0.5752
 5320TIP3    H137519   5.856   0.493   6.016 -0.6931 -1.4244 -1.6669
 5320TIP3    H237520   5.807   0.512   6.158  3.0148  1.7513 -0.6189
 5321TIP3   OH237521   3.190   0.778   6.734  0.5843 -0.0092  0.2219
 5321TIP3    H137522   3.235   0.720   6.796  0.4665 -0.5458 -0.1896
 5321TIP3    H237523   3.110   0.730   6.710  0.6324  0.1935 -0.3491
 5322TIP3   OH237524   2.453   5.623   0.651  0.3461  0.2306 -0.0964
 5322TIP3    H137525   2.397   5.697   0.676  0.6337  0.4920 -0.2090
 5322TIP3    H237526   2.472   5.638   0.559  1.3079  0.6303  0.1471
 5323TIP3   OH237527   6.418   6.123   7.289 -0.3984 -0.5926 -0.1992
 5323TIP3    H137528   6.461   6.203   7.257 -0.9712 -0.3249 -0.2992
 5323TIP3    H237529   6.487   6.057   7.285  0.2190 -0.0063  0.3211
 5324TIP3   OH237530   1.791   5.305   8.139 -0.1330  0.3242  0.3474
 5324TIP3    H137531   1.699   5.312   8.164 -0.0058  1.7701  0.5423
 5324TIP3    H237532   1.811   5.212   8.141 -1.6614 -0.0230  0.0511
 5325TIP3   OH237533   1.902   2.146   7.948 -0.2874 -0.3790 -0.0496
 5325TIP3    H137534   1.899   2.136   8.043 -3.9609  0.8106  0.1343
 5325TIP3    H237535   1.920   2.239   7.934 -0.6080 -0.3708 -0.4434
 5326TIP3   OH237536   3.203   1.175   6.914 -0.0320 -0.2794  0.5652
 5326TIP3    H137537   3.121   1.145   6.874  0.1612  0.2626 -0.2750
 5326TIP3    H237538   3.263   1.182   6.840  1.2516 -2.1647  1.3638
 5327TIP3   OH237539   6.708   5.794   0.578 -0.0927  0.1804  0.1159
 5327TIP3    H137540   6.699   5.874   0.630  0.3747 -0.2917  0.9618
 5327TIP3    H237541   6.798   5.796   0.546 -0.8074  1.2140 -2.0033
 5328TIP3   OH237542   2.904   4.184   0.736 -0.0759  0.2542 -0.8197
 5328TIP3    H137543   2.882   4.099   0.773  1.5153  0.8222  1.6145
 5328TIP3    H237544   2.828   4.206   0.682 -2.4624 -0.8498  1.8283
 5329TIP3   OH237545   4.964   6.745   6.480 -0.2327 -0.2744 -0.7721
 5329TIP3    H137546   4.928   6.805   6.546  2.2972  1.1363 -0.5727
 5329TIP3    H237547   4.929   6.777   6.397 -0.6756  0.0929 -0.4500
 5330TIP3   OH237548   4.310   2.687   7.386 -0.3487 -0.5310  0.2242
 5330TIP3    H137549   4.308   2.594   7.360  0.0329 -0.7181  0.8456
 5330TIP3    H237550   4.218   2.711   7.397 -0.4114 -1.1680  1.1987
 5331TIP3   OH237551   1.005   3.032   2.425  0.0021  0.0048  0.1216
 5331TIP3    H137552   0.985   2.939   2.413 -1.4769  0.6107 -3.5941
 5331TIP3    H237553   0.979   3.051   2.515 -0.8068 -2.8933  0.6001
 5332TIP3   OH237554   4.061   3.672   0.883 -0.0578 -0.1145 -0.4824
 5332TIP3    H137555   4.145   3.661   0.928  0.4753 -1.1636 -1.6880
 5332TIP3    H237556   3.996   3.633   0.942  0.4808 -0.5003 -0.1424
 5333TIP3   OH237557   5.397   5.459   0.440  0.1766 -0.3319  0.4196
 5333TIP3    H137558   5.343   5.533   0.413  0.3850  0.1430  1.2757
 5333TIP3    H237559   5.433   5.424   0.358 -1.2786 -0.5608 -0.1561
 5334TIP3   OH237560   6.215   6.719   1.574 -0.5907 -0.6012  0.4016
 5334TIP3    H137561   6.232   6.655   1.643 -0.2444 -1.1855 -0.2125
 5334TIP3    H237562   6.175   6.793   1.619 -2.2400 -1.7683  0.9445
 5335TIP3   OH237563   2.430   2.392   7.086 -0.0302  0.1140  0.2382
 5335TIP3    H137564   2.415   2.308   7.129 -0.3024  0.2933  0.4958
 5335TIP3    H237565   2.365   2.396   7.016  1.3770 -0.8492 -1.1988
 5336TIP3   OH237566   5.834   0.931   2.058 -0.1716  0.5475  0.6342
 5336TIP3    H137567   5.802   1.008   2.105  0.6599  1.4121 -0.1750
 5336TIP3    H237568   5.903   0.895   2.115  0.6041  1.3967  0.2570
 5337TIP3   OH237569   4.873   3.850   7.328  0.3137 -0.1160  0.9345
 5337TIP3    H137570   4.780   3.861   7.348  0.1287  2.0873 -0.7508
 5337TIP3    H237571   4.882   3.759   7.302 -1.3488 -0.3836  1.1834
 5338TIP3   OH237572   3.628   2.875   1.771 -0.2651 -0.0262 -0.2801
 5338TIP3    H137573   3.623   2.902   1.862  1.1196  0.8100 -0.4304
 5338TIP3    H237574   3.572   2.938   1.724  0.0704  0.3624 -0.1657
 5339TIP3   OH237575   3.675   5.360   1.313  0.2860 -0.2141 -0.0540
 5339TIP3    H137576   3.690   5.454   1.309 -2.1036  0.2137 -0.0406
 5339TIP3    H237577   3.582   5.349   1.294  0.4154 -2.5523  0.3376
 5340TIP3   OH237578   0.332   5.562   1.175  0.1067  0.0788  0.2388
 5340TIP3    H137579   0.246   5.577   1.215 -0.3943 -1.7448 -0.0626
 5340TIP3    H237580   0.330   5.616   1.095 -0.6164  0.3111  0.3999
 5341TIP3   OH237581   3.490   5.152   1.541 -0.1627  0.3048 -0.0017
 5341TIP3    H137582   3.437   5.209   1.595  0.5611  0.0597  1.0075
 5341TIP3    H237583   3.469   5.176   1.451 -2.5109 -0.2984  0.3368
 5342TIP3   OH237584   0.198   4.146   2.491 -0.3443  0.3401  0.2816
 5342TIP3    H137585   0.222   4.059   2.523 -1.0691  0.5868  1.5914
 5342TIP3    H237586   0.104   4.140   2.472 -0.3890  0.8239  0.3313
 5343TIP3   OH237587   3.232   3.324   8.299 -0.2569  0.2493 -0.4691
 5343TIP3    H137588   3.146   3.363   8.314 -0.2449  0.4177 -0.8125
 5343TIP3    H237589   3.227   3.237   8.339 -0.1527  0.7403  0.6502
 5344TIP3   OH237590   2.867   0.273   1.716  0.0698 -0.5477  0.1870
 5344TIP3    H137591   2.773   0.265   1.733 -0.3068  1.3320 -0.7414
 5344TIP3    H237592   2.908   0.218   1.783 -1.4550  3.1861  4.7819
 5345TIP3   OH237593   5.390   4.041   7.395  0.1354 -0.4645  0.5552
 5345TIP3    H137594   5.436   3.961   7.372  0.9595  0.1777 -0.0709
 5345TIP3    H237595   5.378   4.035   7.490 -0.1865 -1.5101  0.4631
 5346TIP3   OH237596   3.196   6.841   6.808 -0.6835  0.0301  0.1747
 5346TIP3    H137597   3.210   6.826   6.715  1.2454 -1.0693  0.5744
 5346TIP3    H237598   3.264   6.787   6.851 -0.8078  1.3584  2.1569
 5347TIP3   OH237599   4.339   1.399   1.468  0.4517 -0.0436  0.3213
 5347TIP3    H137600   4.254   1.360   1.489 -0.9835  2.3774 -0.5504
 5347TIP3    H237601   4.383   1.334   1.414 -1.8540 -0.4497 -1.1981
 5348TIP3   OH237602   1.477   5.351   0.585  0.5928 -0.3366 -0.0095
 5348TIP3    H137603   1.504   5.405   0.659  1.0901  0.1643 -0.5541
 5348TIP3    H237604   1.432   5.277   0.625 -0.3402  0.6046  0.7453
 5349TIP3   OH237605   0.885   2.580   0.425  0.4156  0.0661 -0.0150
 5349TIP3    H137606   0.815   2.549   0.368  1.0722 -0.4899 -0.5306
 5349TIP3    H237607   0.867   2.539   0.510 -0.4966  0.8036  0.1728
 5350TIP3   OH237608   2.311   1.879   1.934 -0.2205 -0.2348  0.1081
 5350TIP3    H137609   2.320   1.784   1.939 -0.6307 -0.3755 -1.4179
 5350TIP3    H237610   2.241   1.900   1.995 -0.2470 -0.9221  0.3243
 5351TIP3   OH237611   0.440   6.360   8.573 -0.2959  0.2291 -0.0589
 5351TIP3    H137612   0.486   6.394   8.650  2.1412 -0.4940 -1.1010
 5351TIP3    H237613   0.406   6.438   8.530  1.1542  0.9829  0.0744
 5352TIP3   OH237614   0.582   6.454   7.406  0.7637 -0.2621 -0.0001
 5352TIP3    H137615   0.548   6.524   7.350 -0.3115 -1.8658 -1.4612
 5352TIP3    H237616   0.519   6.382   7.395  0.9608 -0.9334  2.6896
 5353TIP3   OH237617   2.737   2.785   1.433 -0.9102 -0.1727 -0.0713
 5353TIP3    H137618   2.654   2.800   1.387 -0.6345  0.1524 -0.4754
 5353TIP3    H237619   2.712   2.779   1.525 -1.4150 -0.3447 -0.2123
 5354TIP3   OH237620   0.263   4.493   7.554 -0.3279  0.5126 -0.3163
 5354TIP3    H137621   0.219   4.561   7.504 -1.6920 -0.3450 -0.3520
 5354TIP3    H237622   0.199   4.421   7.558  0.4442 -0.1512  1.0749
 5355TIP3   OH237623   0.799   6.244   1.831  0.2658  0.1721 -0.6042
 5355TIP3    H137624   0.706   6.223   1.832  0.3531 -0.2077  0.5306
 5355TIP3    H237625   0.820   6.252   1.738 -0.8443  0.0416 -0.8846
 5356TIP3   OH237626   2.747   4.316   0.117 -0.1532 -0.0003 -0.0968
 5356TIP3    H137627   2.708   4.290   0.034 -0.5212  0.3051 -0.0244
 5356TIP3    H237628   2.775   4.407   0.103  3.8521 -1.2253 -1.3414
 5357TIP3   OH237629   4.921   6.373   8.159  0.2018  0.0570  0.2902
 5357TIP3    H137630   4.922   6.320   8.239  1.4147  0.0621  0.2974
 5357TIP3    H237631   4.829   6.400   8.150  0.2672  1.2732  2.4833
 5358TIP3   OH237632   0.487   2.341   8.233 -0.6021 -0.2171  0.1957
 5358TIP3    H137633   0.521   2.427   8.258  1.4833 -1.0631  0.4934
 5358TIP3    H237634   0.501   2.287   8.311 -2.1930 -0.7688  0.1291
 5359TIP3   OH237635   0.758   5.213   7.707 -0.2030 -0.0487 -0.3539
 5359TIP3    H137636   0.700   5.137   7.708  0.3904 -0.5123  0.7947
 5359TIP3    H237637   0.715   5.276   7.765 -0.1054  0.0308 -0.3688
 5360TIP3   OH237638   5.475   6.619   8.105 -0.0987 -1.0002  0.0350
 5360TIP3    H137639   5.430   6.554   8.159  0.9012 -0.3253  1.7632
 5360TIP3    H237640   5.557   6.577   8.080 -0.4848 -1.2471 -0.8686
 5361TIP3   OH237641   3.019   1.965   6.925  0.1768 -0.0059 -0.1410
 5361TIP3    H137642   3.102   1.930   6.894  0.4375  1.9039 -1.8319
 5361TIP3    H237643   2.957   1.950   6.853 -1.1734 -1.9410  1.3148
 5362TIP3   OH237644   1.315   3.651   7.258  0.1129  0.0448  0.4350
 5362TIP3    H137645   1.316   3.694   7.343  2.4117  0.6807  0.1579
 5362TIP3    H237646   1.290   3.721   7.197 -1.3237 -0.3601  0.5117
 5363TIP3   OH237647   5.731   4.660   7.829  0.5037 -0.2954 -0.3001
 5363TIP3    H137648   5.807   4.618   7.869  1.7788  1.1613 -1.1049
 5363TIP3    H237649   5.685   4.587   7.786  0.9200 -1.3391  0.9412
 5364TIP3   OH237650   0.501   2.078   1.927 -0.5480  0.3183 -0.0925
 5364TIP3    H137651   0.539   2.096   1.841  0.0972  1.7596  0.4707
 5364TIP3    H237652   0.506   1.983   1.936  1.6918  0.3287 -0.6104
 5365TIP3   OH237653   6.742   6.793   1.064 -0.2860 -0.4664 -0.1609
 5365TIP3    H137654   6.778   6.808   1.151  0.7050 -2.2670 -0.2032
 5365TIP3    H237655   6.696   6.874   1.042  2.0959  1.2327  0.7409
 5366TIP3   OH237656   2.794   3.650   7.223 -0.1251 -0.6308 -0.0384
 5366TIP3    H137657   2.844   3.682   7.148  2.1178 -1.1884  1.1337
 5366TIP3    H237658   2.788   3.555   7.209 -0.5131 -0.6189  0.0376
 5367TIP3   OH237659   6.408   4.453   2.005  0.3661 -0.0469 -0.2088
 5367TIP3    H137660   6.352   4.393   2.053  0.9810  1.0492  1.9988
 5367TIP3    H237661   6.349   4.497   1.944 -0.4589 -1.3999 -0.4170
 5368TIP3   OH237662   0.926   6.059   7.385 -0.4346 -0.2023 -0.0960
 5368TIP3    H137663   1.003   6.014   7.420 -0.7187 -0.2683  0.4401
 5368TIP3    H237664   0.872   5.990   7.347 -0.6006 -0.2493  0.2237
 5369TIP3   OH237665   2.327   2.793   0.029 -0.1779  0.1609  0.2353
 5369TIP3    H137666   2.251   2.846   0.051  0.7339  0.7977  2.1017
 5369TIP3    H237667   2.372   2.780   0.113  0.8082 -1.7177 -0.5168
 5370TIP3   OH237668   2.608   6.596   1.006 -0.1587 -0.1731  0.5941
 5370TIP3    H137669   2.539   6.641   1.054 -0.3443 -0.8177  0.9511
 5370TIP3    H237670   2.627   6.518   1.059  0.5921 -0.1862  0.3171
 5371TIP3   OH237671   5.318   5.051   7.505  0.3846  0.0224  0.2706
 5371TIP3    H137672   5.279   5.090   7.427  0.3636 -0.0735  0.2334
 5371TIP3    H237673   5.388   5.112   7.530 -3.3884  3.6196  3.8479
 5372TIP3   OH237674   1.041   5.661   1.017  0.9368 -0.2172 -0.0560
 5372TIP3    H137675   1.082   5.707   0.944 -0.3787  3.4494  1.2783
 5372TIP3    H237676   0.960   5.625   0.979  0.0601  1.9841 -0.4361
 5373TIP3   OH237677   2.878   6.385   0.746  0.2834  0.3648  0.9368
 5373TIP3    H137678   2.879   6.454   0.812  3.9572  1.6497 -0.1899
 5373TIP3    H237679   2.938   6.318   0.779 -0.4368 -0.5938  0.3737
 5374TIP3   OH237680   4.363   1.426   1.764 -0.4802 -0.5593  0.4179
 5374TIP3    H137681   4.382   1.443   1.672  2.4366  0.9562  1.1966
 5374TIP3    H237682   4.303   1.497   1.789  0.0172 -0.0155  0.0850
 5375TIP3   OH237683   3.345   2.155   7.438 -0.2887  0.0977  0.2937
 5375TIP3    H137684   3.357   2.090   7.370 -0.1444 -1.2898  1.6002
 5375TIP3    H237685   3.422   2.212   7.432  0.6939 -1.1744  0.5307
 5376TIP3   OH237686   3.085   3.591   7.966  0.0815 -0.0369  0.1788
 5376TIP3    H137687   3.084   3.496   7.962 -1.7021 -0.0377 -0.1960
 5376TIP3    H237688   3.026   3.619   7.896 -0.5243  1.2806  1.1579
 5377TIP3   OH237689   5.281   0.644   8.435  0.2641 -0.0403  0.2197
 5377TIP3    H137690   5.319   0.563   8.402  1.2460  0.3996  0.2378
 5377TIP3    H237691   5.187   0.627   8.440  0.2477 -0.5555 -1.5206
 5378TIP3   OH237692   0.938   1.537   1.819 -0.1730  0.3419  0.6218
 5378TIP3    H137693   0.852   1.548   1.860 -0.1737 -0.3747  0.8207
 5378TIP3    H237694   1.000   1.536   1.893 -0.2014 -1.2510  0.6650
 5379TIP3   OH237695   2.586   0.834   1.980  0.2405  0.1377  0.8048
 5379TIP3    H137696   2.525   0.905   2.001  0.3185 -0.0367  1.6380
 5379TIP3    H237697   2.673   0.872   1.996  0.3450  0.2413  0.0521
 5380TIP3   OH237698   0.094   2.006   7.383 -0.0395  0.3843 -0.0581
 5380TIP3    H137699   0.169   2.007   7.323  0.3124 -1.7670  0.2646
 5380TIP3    H237700   0.028   1.955   7.337 -0.1057 -0.4941  0.9671
 5381TIP3   OH237701   1.115   2.574   0.136  0.1249  0.0667  0.0219
 5381TIP3    H137702   1.072   2.638   0.080 -0.1199  0.3066  0.4753
 5381TIP3    H237703   1.148   2.507   0.076  0.7945  0.8516 -0.4893
 5382TIP3   OH237704   2.412   6.881   2.053  0.4394 -0.0047  0.2185
 5382TIP3    H137705   2.462   6.800   2.071  0.7429 -0.4566 -2.2823
 5382TIP3    H237706   2.465   6.950   2.092  0.5206 -0.9112  1.8283
 5383TIP3   OH237707   6.848   5.550   7.708  0.3973 -0.2852 -0.7199
 5383TIP3    H137708   6.857   5.606   7.631 -1.7514 -0.0062 -0.8159
 5383TIP3    H237709   6.762   5.509   7.699  0.9122 -1.7813  0.5598
 5384TIP3   OH237710   5.603   4.396   8.210 -0.3546 -0.1851 -0.1821
 5384TIP3    H137711   5.557   4.385   8.293  0.3125 -2.4847 -0.0544
 5384TIP3    H237712   5.587   4.487   8.186 -1.1368  0.3473  2.1039
 5385TIP3   OH237713   2.970   3.244   1.039 -0.0253 -0.0668 -0.1934
 5385TIP3    H137714   3.002   3.218   0.953 -1.1264 -0.4502 -0.5102
 5385TIP3    H237715   2.886   3.198   1.049 -0.4500  0.8242  0.6128
 5386TIP3   OH237716   6.525   6.677   7.559  0.3372  0.5637  0.1251
 5386TIP3    H137717   6.580   6.637   7.492  1.3412 -0.4493  1.5056
 5386TIP3    H237718   6.576   6.670   7.639  0.1981  3.8730  0.6209
 5387TIP3   OH237719   6.261   3.559   7.611 -0.5792 -0.7159 -0.1573
 5387TIP3    H137720   6.281   3.495   7.542  1.8386  1.3716 -1.6129
 5387TIP3    H237721   6.312   3.529   7.686  1.4112 -0.0484 -1.1638
 5388TIP3   OH237722   3.752   2.525   8.315  0.1867  0.3368 -0.0915
 5388TIP3    H137723   3.774   2.538   8.407  1.2972  1.2283 -0.4732
 5388TIP3    H237724   3.656   2.517   8.314  0.1799  0.1835  1.1441
 5389TIP3   OH237725   3.873   2.340   0.444 -0.1010 -0.3768  0.1853
 5389TIP3    H137726   3.786   2.366   0.476 -0.6520 -2.0493  0.1827
 5389TIP3    H237727   3.910   2.420   0.407 -1.6141  0.3953  0.2427
 5390TIP3   OH237728   5.367   5.222   0.609  0.0807  0.1629 -1.0151
 5390TIP3    H137729   5.307   5.251   0.678  1.4445 -1.1415  0.8288
 5390TIP3    H237730   5.350   5.281   0.536 -1.1673  1.8932  0.5743
 5391TIP3   OH237731   5.018   2.009   8.507 -0.1063  0.8261 -0.0808
 5391TIP3    H137732   5.018   1.915   8.487  2.0791  0.7966 -0.2161
 5391TIP3    H237733   5.079   2.046   8.443  0.5452  2.0350  1.2035
 5392TIP3   OH237734   3.707   0.593   7.029 -0.6802 -0.2407 -0.0170
 5392TIP3    H137735   3.739   0.658   6.966 -0.6966  0.4062  0.6191
 5392TIP3    H237736   3.784   0.538   7.047 -0.2427  0.5233  0.5417
 5393TIP3   OH237737   3.840   4.834   1.800 -0.0885 -0.0154 -0.5492
 5393TIP3    H137738   3.746   4.830   1.819  0.4555  0.5834  2.9435
 5393TIP3    H237739   3.852   4.918   1.757 -1.2111 -0.4008 -1.6846
 5394TIP3   OH237740   5.525   2.746   0.369  0.5464 -0.4685  0.1440
 5394TIP3    H137741   5.566   2.704   0.444 -0.2855 -0.1127  0.8080
 5394TIP3    H237742   5.540   2.840   0.383 -1.1134 -0.2582  0.8124
 5395TIP3   OH237743   6.542   5.199   2.069 -0.3197  0.1424  0.0370
 5395TIP3    H137744   6.483   5.262   2.110  0.2192 -0.1110  1.2438
 5395TIP3    H237745   6.523   5.116   2.113 -0.1873 -0.2780 -0.6940
 5396TIP3   OH237746   1.327   4.608   0.045 -0.2501 -0.2642  0.6199
 5396TIP3    H137747   1.317   4.538   0.109  0.9353  0.3722  1.5289
 5396TIP3    H237748   1.247   4.660   0.053 -0.4951 -0.6920  0.9498
 5397TIP3   OH237749   5.009   4.010   1.211 -0.1781 -0.3585 -0.4108
 5397TIP3    H137750   4.996   3.943   1.278 -1.4862 -1.7480 -1.9596
 5397TIP3    H237751   5.104   4.011   1.196  0.5388  1.7985  3.1107
 5398TIP3   OH237752   3.716   6.717   1.016 -0.0340  0.3081  0.6324
 5398TIP3    H137753   3.643   6.774   0.990 -0.9102  0.1435  2.5390
 5398TIP3    H237754   3.789   6.776   1.033  0.6340  0.4161 -2.1210
 5399TIP3   OH237755   2.175   1.733   7.349 -0.4683 -0.2617  0.4816
 5399TIP3    H137756   2.115   1.676   7.301 -2.0708  1.0689  0.7732
 5399TIP3    H237757   2.177   1.698   7.438  0.8510 -1.5051 -0.0067
 5400TIP3   OH237758   6.155   5.423   0.573  0.3827  0.0386  0.6965
 5400TIP3    H137759   6.138   5.465   0.489  1.0728  1.5582  1.2725
 5400TIP3    H237760   6.117   5.483   0.638 -0.0320 -1.0448  1.4882
 5401TIP3   OH237761   6.701   6.665   7.286  0.1255 -1.2199 -0.0384
 5401TIP3    H137762   6.682   6.653   7.193 -0.8433 -0.8712  0.1106
 5401TIP3    H237763   6.728   6.756   7.293  0.6973 -1.3819 -0.0486
 5402TIP3   OH237764   4.806   5.953   6.879  0.2353  0.5258  0.1100
 5402TIP3    H137765   4.815   6.009   6.956 -1.1651  0.6362  0.2229
 5402TIP3    H237766   4.763   6.008   6.814  0.0911  0.0043 -0.2436
 5403TIP3   OH237767   4.804   6.870   7.128 -0.0924  0.1622  0.1521
 5403TIP3    H137768   4.805   6.849   7.221  2.8818 -1.6203 -0.1612
 5403TIP3    H237769   4.889   6.841   7.095 -2.0534 -2.0217 -3.7174
 5404TIP3   OH237770   1.137   6.559   7.126 -0.1213 -0.3697 -0.5441
 5404TIP3    H137771   1.073   6.521   7.186  0.6065 -1.4477 -0.4361
 5404TIP3    H237772   1.190   6.617   7.181  0.1592 -0.8912 -0.2581
 5405TIP3   OH237773   4.737   3.356   0.584  0.4586 -0.7977  0.0019
 5405TIP3    H137774   4.750   3.447   0.557 -0.9626 -0.0608  1.5763
 5405TIP3    H237775   4.811   3.337   0.641  1.2247 -0.9417 -1.0229
 5406TIP3   OH237776   6.474   6.514   6.461  0.4188  0.1544 -0.2007
 5406TIP3    H137777   6.524   6.579   6.511 -1.0377 -0.3076  2.0064
 5406TIP3    H237778   6.394   6.560   6.435 -0.2473 -0.4690  0.6710
 5407TIP3   OH237779   4.086   2.797   1.124  0.2250 -0.3002 -0.0325
 5407TIP3    H137780   4.068   2.742   1.201  0.1152 -0.8075 -0.4214
 5407TIP3    H237781   4.093   2.885   1.160 -0.3278 -0.4641  0.4957
 5408TIP3   OH237782   2.842   2.868   8.330  0.2657 -0.0475 -0.2092
 5408TIP3    H137783   2.869   2.802   8.267  2.0126  0.2484  0.1788
 5408TIP3    H237784   2.876   2.951   8.296  0.7399  0.1984  0.8073
 5409TIP3   OH237785   0.321   5.544   7.988 -0.0738 -0.5545 -0.2565
 5409TIP3    H137786   0.272   5.461   7.990 -1.5964  0.3096  1.8296
 5409TIP3    H237787   0.305   5.583   8.074  1.7137  1.3056 -0.7006
 5410TIP3   OH237788   3.952   0.039   1.331 -0.3169 -0.1548  0.3046
 5410TIP3    H137789   3.983  -0.037   1.282  0.7768  1.2175 -1.2358
 5410TIP3    H237790   3.860   0.048   1.306 -0.7358 -1.5173  1.2693
 5411TIP3   OH237791   4.275   4.598   0.387  0.3518 -0.5255  0.4684
 5411TIP3    H137792   4.244   4.675   0.339  0.4986  0.3688  1.7531
 5411TIP3    H237793   4.308   4.539   0.319 -0.8084  0.0460 -0.6336
 5412TIP3   OH237794   4.950   2.581   0.551  0.0779  0.1381 -0.6063
 5412TIP3    H137795   4.948   2.618   0.640 -2.7437 -0.1027 -0.4999
 5412TIP3    H237796   4.971   2.488   0.565  1.5310  0.4617 -0.4092
 5413TIP3   OH237797   4.936   6.491   1.474  0.1497 -0.2770 -0.0230
 5413TIP3    H137798   5.016   6.521   1.516  0.6718 -0.6047 -0.7608
 5413TIP3    H237799   4.913   6.410   1.520  0.5616 -0.4846 -0.1778
 5414TIP3   OH237800   4.260   2.626   7.036  0.0175 -0.4473  0.1368
 5414TIP3    H137801   4.296   2.583   7.113 -1.5051  0.1164  1.2225
 5414TIP3    H237802   4.336   2.666   6.993  1.3891 -3.4665 -0.5237
 5415TIP3   OH237803   2.726   5.695   0.768  0.1170  0.0385 -0.4363
 5415TIP3    H137804   2.684   5.701   0.682 -0.6291 -1.6524 -0.2394
 5415TIP3    H237805   2.726   5.784   0.802 -0.9035  0.4978 -1.5810
 5416TIP3   OH237806   2.781   1.434   7.524 -0.3765  0.1926  0.0085
 5416TIP3    H137807   2.797   1.527   7.513  1.2334 -0.0568 -0.0728
 5416TIP3    H237808   2.865   1.399   7.556 -1.0060 -1.1902  0.2300
 5417TIP3   OH237809   1.268   4.970   1.090 -0.0020  0.5338  0.0885
 5417TIP3    H137810   1.185   4.980   1.044  0.6046 -0.1468 -1.2204
 5417TIP3    H237811   1.265   4.882   1.127  1.0229 -0.4634 -1.9835
 5418TIP3   OH237812   4.276   3.782   8.439  0.4698  0.1808 -0.1957
 5418TIP3    H137813   4.286   3.725   8.515 -0.8998 -0.2186 -0.2889
 5418TIP3    H237814   4.365   3.811   8.418  0.6931  2.5395  3.2443
 5419TIP3   OH237815   1.288   0.614   0.797 -0.1466 -0.0889 -0.0574
 5419TIP3    H137816   1.250   0.557   0.731 -1.9580  0.1917  0.6901
 5419TIP3    H237817   1.381   0.615   0.777 -0.5850 -0.3545 -2.3274
 5420TIP3   OH237818   3.439   0.942   6.674  0.2426  0.2676 -0.3833
 5420TIP3    H137819   3.417   1.032   6.697  2.4271  0.1590  2.7357
 5420TIP3    H237820   3.400   0.888   6.743 -0.0968 -1.0903 -1.5829
 5421TIP3   OH237821   3.762   5.753   0.136 -0.1073 -0.1127  0.3036
 5421TIP3    H137822   3.780   5.690   0.206 -1.1657  0.9919  1.6345
 5421TIP3    H237823   3.799   5.835   0.168 -1.3824  0.6162 -0.0085
 5422TIP3   OH237824   4.772   0.627   8.111  0.5524 -0.4677 -0.6003
 5422TIP3    H137825   4.806   0.602   8.025  0.6381 -0.1878 -0.6518
 5422TIP3    H237826   4.717   0.704   8.093 -0.2252 -1.0032 -0.5344
 5423TIP3   OH237827   1.164   3.859   0.554  0.3073 -0.1755 -0.3578
 5423TIP3    H137828   1.205   3.938   0.520 -0.5207 -0.1457 -1.3478
 5423TIP3    H237829   1.221   3.831   0.626  0.6277  1.2911 -0.0090
 5424TIP3   OH237830   6.709   2.072   8.345  0.0409 -0.4509 -0.1531
 5424TIP3    H137831   6.751   2.156   8.328  0.7661 -0.7450  0.1011
 5424TIP3    H237832   6.751   2.041   8.426 -0.3343 -0.9716 -0.1532
 5425TIP3   OH237833   1.766   6.248   1.838  0.1028 -0.2260  0.9693
 5425TIP3    H137834   1.758   6.166   1.789  0.8225  0.9696 -1.2643
 5425TIP3    H237835   1.683   6.257   1.884 -0.9566 -0.9858 -0.7245
 5426TIP3   OH237836   5.486   4.283   1.338  0.8158 -0.3113 -0.0891
 5426TIP3    H137837   5.472   4.358   1.395  1.1750 -0.2574 -0.0712
 5426TIP3    H237838   5.455   4.312   1.252 -0.6463 -0.7236  0.2792
 5427TIP3   OH237839   4.698   5.592   0.871 -0.3855  0.1864  0.0715
 5427TIP3    H137840   4.763   5.612   0.803 -0.6642 -0.2056 -0.3144
 5427TIP3    H237841   4.713   5.659   0.938 -0.7669  1.2015 -0.8262
 5428TIP3   OH237842   5.267   5.455   6.537 -0.1510 -0.3979  0.2236
 5428TIP3    H137843   5.176   5.487   6.538 -0.0188  0.0606  2.2911
 5428TIP3    H237844   5.320   5.534   6.534  0.1564 -0.4160  2.9033
 5429TIP3   OH237845   6.058   2.553   7.689 -0.1651  0.1540 -0.4511
 5429TIP3    H137846   6.152   2.537   7.680  0.0001  1.4574 -1.3457
 5429TIP3    H237847   6.017   2.475   7.652  0.5230 -1.0509  1.2009
 5430TIP3   OH237848   1.093   1.317   1.741 -0.2684  0.2025  0.5990
 5430TIP3    H137849   1.059   1.235   1.778  0.8497 -0.5645 -0.0322
 5430TIP3    H237850   1.030   1.383   1.769 -0.9904 -0.8072  1.4504
 5431TIP3   OH237851   6.006   0.653   0.694  0.7339  0.0990 -0.1195
 5431TIP3    H137852   5.922   0.608   0.704 -0.2753  1.4579 -1.8605
 5431TIP3    H237853   6.029   0.641   0.602  2.5647 -0.3675  0.3574
 5432TIP3   OH237854   0.529   0.775   7.404  0.3053  0.2309  0.0080
 5432TIP3    H137855   0.575   0.691   7.409 -0.1937 -0.0082  0.9415
 5432TIP3    H237856   0.555   0.821   7.484  1.6569  1.5707 -1.1398
 5433TIP3   OH237857   5.006   1.740   8.429  0.3292  0.4437 -0.4283
 5433TIP3    H137858   4.990   1.646   8.426  0.9560  0.3502 -1.5507
 5433TIP3    H237859   4.961   1.774   8.351 -0.0123  1.0919  0.0441
 5434TIP3   OH237860   4.658   3.695   7.129 -0.0694  0.8204 -0.2105
 5434TIP3    H137861   4.650   3.790   7.116  3.3545  1.8087  3.1193
 5434TIP3    H237862   4.597   3.676   7.200  0.0824  0.7558 -0.0981
 5435TIP3   OH237863   4.859   1.409   7.286  0.8246 -0.7351  0.3884
 5435TIP3    H137864   4.945   1.425   7.326  1.5495  1.0010 -1.6766
 5435TIP3    H237865   4.880   1.377   7.198 -0.6455  0.0326 -0.2623
 5436TIP3   OH237866   6.030   1.828   0.294  0.2477 -0.0168 -0.0272
 5436TIP3    H137867   6.075   1.757   0.341  0.4408 -0.5263 -0.9553
 5436TIP3    H237868   6.097   1.895   0.281  0.2912 -0.0377  0.0869
 5437TIP3   OH237869   0.835   1.205   2.492  0.1337 -0.2964 -0.0863
 5437TIP3    H137870   0.905   1.162   2.541  0.0906  0.0261  0.2622
 5437TIP3    H237871   0.880   1.273   2.441  0.0735 -0.0477  0.1851
 5438TIP3   OH237872   0.999   0.661   1.570 -0.6206  0.6022 -0.1274
 5438TIP3    H137873   1.070   0.606   1.538  0.7005  2.7525 -1.0673
 5438TIP3    H237874   0.923   0.602   1.574  1.2104 -1.8169  1.1437
 5439TIP3   OH237875   5.233   4.250   1.631  0.1325  0.6140 -0.2532
 5439TIP3    H137876   5.255   4.225   1.541 -0.1614 -0.0906 -0.1350
 5439TIP3    H237877   5.312   4.293   1.664  0.3729  0.5353 -0.7205
 5440TIP3   OH237878   5.364   4.559   8.555 -0.3725 -0.2350  0.0989
 5440TIP3    H137879   5.337   4.650   8.549  0.1068 -0.1056 -0.1514
 5440TIP3    H237880   5.287   4.509   8.529 -0.4634  0.1115 -0.3010
 5441TIP3   OH237881   6.463   4.251   0.225  0.5129  0.4403 -0.5380
 5441TIP3    H137882   6.526   4.278   0.158  0.8448 -0.8630 -0.7786
 5441TIP3    H237883   6.509   4.263   0.307 -0.1960  2.8806 -0.4260
 5442TIP3   OH237884   5.627   3.707   8.096 -0.3169 -1.1245 -0.0527
 5442TIP3    H137885   5.677   3.648   8.151  1.7092 -1.3210 -1.9702
 5442TIP3    H237886   5.641   3.675   8.007 -0.5186  1.2487 -1.0079
 5443TIP3   OH237887   6.057   1.517   8.517 -0.2208 -0.2203 -0.2464
 5443TIP3    H137888   6.048   1.599   8.469  0.8043 -0.7634 -1.4466
 5443TIP3    H237889   6.150   1.514   8.541 -0.1603 -1.1910 -0.5527
 5444TIP3   OH237890   6.559   6.776   8.350  0.4326  0.0386  0.5596
 5444TIP3    H137891   6.649   6.788   8.380  0.3983 -1.1054  1.1857
 5444TIP3    H237892   6.558   6.691   8.306  0.0082  0.7788 -0.9292
 5445TIP3   OH237893   1.316   0.045   7.698 -0.5725 -0.2495 -0.0971
 5445TIP3    H137894   1.243   0.013   7.645 -1.0522 -0.2271  0.5262
 5445TIP3    H237895   1.333  -0.026   7.760 -0.0392 -0.2659 -0.2599
 5446TIP3   OH237896   2.478   5.687   2.077  0.8556 -0.0867 -0.0693
 5446TIP3    H137897   2.510   5.600   2.055  0.3718 -0.3408  0.2194
 5446TIP3    H237898   2.493   5.695   2.171 -0.7453 -0.5730  0.2580
 5447TIP3   OH237899   6.245   3.757   7.922  0.1701  0.5822  0.2389
 5447TIP3    H137900   6.158   3.757   7.962 -1.1662  0.5248 -2.4326
 5447TIP3    H237901   6.238   3.822   7.852  2.5708  1.1241  0.4387
 5448TIP3   OH237902   2.091   3.561   7.026  0.1788  0.3544 -0.1415
 5448TIP3    H137903   2.153   3.540   6.956  0.6996 -1.2732  0.7666
 5448TIP3    H237904   2.130   3.637   7.070  2.0778 -1.1689  0.9787
 5449TIP3   OH237905   6.625   0.215   6.930 -0.1086  0.5177  0.6465
 5449TIP3    H137906   6.696   0.151   6.924  1.4045  2.0295  1.5970
 5449TIP3    H237907   6.545   0.162   6.933  1.0195 -1.2668  0.3818
 5450TIP3   OH237908   0.084   2.455   7.281  0.0294  0.1725 -0.0056
 5450TIP3    H137909   0.080   2.458   7.377  0.1027 -1.3992  0.0733
 5450TIP3    H237910   0.154   2.392   7.262  0.6175  1.1150 -1.1207
 5451TIP3   OH237911   6.006   0.389   0.955 -0.2015  0.3378 -0.1217
 5451TIP3    H137912   5.953   0.330   1.008  0.6826  0.7201  1.2339
 5451TIP3    H237913   6.064   0.331   0.905 -1.2179 -0.0341 -0.9127
 5452TIP3   OH237914   6.093   0.596   0.429 -0.9327  0.1406 -0.0300
 5452TIP3    H137915   6.144   0.663   0.385  0.5877 -0.7468  0.3160
 5452TIP3    H237916   6.024   0.574   0.366 -0.8686  1.3011 -0.5383
 5453TIP3   OH237917   1.936   3.898   2.166 -0.2903 -0.4564 -0.1677
 5453TIP3    H137918   1.998   3.864   2.101  1.1441 -0.8686  1.3573
 5453TIP3    H237919   1.881   3.824   2.188 -0.2955 -0.5101 -0.3586
 5454TIP3   OH237920   3.372   6.284   8.400  0.3295 -0.4762 -0.2348
 5454TIP3    H137921   3.320   6.351   8.446  0.3195  1.6791 -3.0750
 5454TIP3    H237922   3.463   6.311   8.414  0.3471 -0.1525 -0.9100
 5455TIP3   OH237923   0.786   4.458   2.183 -0.1545  0.0298  0.1996
 5455TIP3    H137924   0.705   4.497   2.214  0.1633 -0.6058  1.9574
 5455TIP3    H237925   0.763   4.366   2.166  0.1051 -0.0543  0.3038
 5456TIP3   OH237926   6.673   3.920   1.037 -0.1022 -0.2125 -0.5624
 5456TIP3    H137927   6.650   3.967   1.117  0.6614  0.2649 -0.6118
 5456TIP3    H237928   6.719   3.842   1.067  1.2591  0.5634 -0.5418
 5457TIP3   OH237929   1.555   3.605   0.190 -0.0729  0.5373  0.5766
 5457TIP3    H137930   1.578   3.539   0.255  1.3172  0.8368  0.4331
 5457TIP3    H237931   1.499   3.560   0.127 -0.2031 -0.1477  1.1760
 5458TIP3   OH237932   0.933   4.902   8.349 -0.3256  0.4913 -0.3256
 5458TIP3    H137933   0.958   4.993   8.361  2.2931 -0.2893  0.7050
 5458TIP3    H237934   0.866   4.887   8.415 -1.2700  1.7850 -0.9348
 5459TIP3   OH237935   2.855   1.983   6.709  0.1094 -0.0644 -0.3826
 5459TIP3    H137936   2.844   1.916   6.642  2.5323  1.6594 -2.7493
 5459TIP3    H237937   2.767   1.999   6.743 -0.9608 -2.2039 -1.9228
 5460TIP3   OH237938   4.717   3.735   6.347 -0.6448  0.4554 -0.0730
 5460TIP3    H137939   4.635   3.693   6.323  0.2007  0.0198 -2.4671
 5460TIP3    H237940   4.784   3.687   6.299  0.7476  2.2961 -0.0996
 5461TIP3   OH237941   3.238   4.229   1.839  0.4640 -0.2637  0.0518
 5461TIP3    H137942   3.215   4.225   1.746  1.8423 -0.4711 -0.3060
 5461TIP3    H237943   3.260   4.139   1.862 -1.4558 -0.5284  1.0442
 5462TIP3   OH237944   4.450   3.109   1.057 -0.2102  0.6904 -0.2783
 5462TIP3    H137945   4.449   3.160   1.138 -0.4048 -0.0539  0.2004
 5462TIP3    H237946   4.438   3.019   1.086  1.6075  0.1781 -0.9559
 5463TIP3   OH237947   3.514   0.643   7.305  0.3656 -0.1371  0.6375
 5463TIP3    H137948   3.545   0.702   7.236  1.6682 -2.1996 -0.6468
 5463TIP3    H237949   3.425   0.672   7.323  0.3788  1.1646 -1.1254
 5464TIP3   OH237950   5.286   5.730   1.342 -0.0108  0.1894 -0.0893
 5464TIP3    H137951   5.350   5.801   1.333  0.5297 -0.3078 -0.2021
 5464TIP3    H237952   5.314   5.665   1.277  0.1507 -0.6098  0.7709
 5465TIP3   OH237953   1.897   2.594   1.661  0.0580 -0.1382  0.3589
 5465TIP3    H137954   1.953   2.625   1.731 -0.0357 -1.1781  0.9104
 5465TIP3    H237955   1.939   2.514   1.630 -0.3926 -0.1863 -0.1417
 5466TIP3   OH237956   4.894   6.736   0.696  0.0261  0.2357  0.1104
 5466TIP3    H137957   4.930   6.735   0.607  1.3078 -0.6929  0.6130
 5466TIP3    H237958   4.971   6.738   0.753 -0.7864  1.1076  1.2049
 5467TIP3   OH237959   0.811   4.720   8.184 -0.3773 -0.4947  0.3459
 5467TIP3    H137960   0.816   4.636   8.229 -0.2321 -1.1266 -0.7873
 5467TIP3    H237961   0.867   4.778   8.234  1.7612 -1.8244 -0.3450
 5468TIP3   OH237962   3.510   4.485   2.579 -0.7768 -0.3500 -0.7784
 5468TIP3    H137963   3.602   4.474   2.604 -0.4329 -0.0587 -1.8637
 5468TIP3    H237964   3.507   4.569   2.534 -1.6851 -0.1088 -0.2878
 5469TIP3   OH237965   3.352   0.011   6.573 -0.1797 -0.3272 -0.7046
 5469TIP3    H137966   3.421   0.026   6.508  0.3903  1.0324  0.1664
 5469TIP3    H237967   3.399  -0.008   6.654 -0.8537 -0.8489 -0.4294
 5470TIP3   OH237968   3.238   4.437   6.574  0.4304  0.2104  0.4798
 5470TIP3    H137969   3.268   4.462   6.487 -1.3564  0.2498 -0.1602
 5470TIP3    H237970   3.214   4.520   6.615  0.8634  0.1479  0.8784
 5471TIP3   OH237971   1.011   0.451   8.391  0.3039 -0.1813 -0.3051
 5471TIP3    H137972   0.970   0.460   8.305  0.0514  0.4010 -0.1331
 5471TIP3    H237973   1.005   0.539   8.429  0.3666 -0.4459  0.3294
 5472TIP3   OH237974   0.533   3.176   0.613  0.5140  0.4767 -0.1138
 5472TIP3    H137975   0.466   3.119   0.575  0.0382  0.1519  1.1703
 5472TIP3    H237976   0.571   3.221   0.537 -0.4593 -0.0722 -0.9613
 5473TIP3   OH237977   0.566   6.058   8.481 -0.6731  0.0533 -0.0195
 5473TIP3    H137978   0.570   6.152   8.497  0.9853  0.1152 -0.6743
 5473TIP3    H237979   0.549   6.020   8.567 -0.6704  0.9046  0.3665
 5474TIP3   OH237980   6.775   5.123   7.572  0.0410 -0.0260 -0.0664
 5474TIP3    H137981   6.852   5.181   7.566  1.2790 -1.5524  0.3257
 5474TIP3    H237982   6.765   5.108   7.666 -0.4486 -0.2001 -0.1480
 5475TIP3   OH237983   6.204   2.150   0.033 -0.2399 -0.0237 -0.5996
 5475TIP3    H137984   6.128   2.183  -0.014  0.2219  1.2216 -0.5306
 5475TIP3    H237985   6.223   2.065  -0.006 -0.9457  0.1930 -1.4305
 5476TIP3   OH237986   5.052   4.492   1.895 -0.4530 -0.2562  0.1789
 5476TIP3    H137987   5.009   4.407   1.887  1.3029 -1.0795 -1.3744
 5476TIP3    H237988   5.114   4.480   1.967 -2.5709  0.8887  2.3321
 5477TIP3   OH237989   0.110   4.680   7.402 -0.2549 -0.4149 -0.0158
 5477TIP3    H137990   0.020   4.698   7.430  0.0297  0.8474  0.1674
 5477TIP3    H237991   0.111   4.701   7.308 -0.1197 -0.2847  0.0136
 5478TIP3   OH237992   1.161   5.303   0.340 -0.0404  0.1460  0.3467
 5478TIP3    H137993   1.190   5.365   0.273  2.8794 -0.7279  0.6407
 5478TIP3    H237994   1.201   5.220   0.314 -2.3511 -1.2425  0.9455
 5479TIP3   OH237995   5.426   1.445   1.272  0.2105  0.2599  0.4087
 5479TIP3    H137996   5.453   1.355   1.252  0.4826  0.5721 -0.6733
 5479TIP3    H237997   5.341   1.435   1.316 -0.0884 -0.4924 -0.3136
 5480TIP3   OH237998   1.912   6.752   1.322 -0.1349  0.3867 -0.0061
 5480TIP3    H137999   1.823   6.773   1.352  0.3530  1.2896  0.8841
 5480TIP3    H238000   1.906   6.662   1.290 -1.0513 -0.1083  1.4436
 5481TIP3   OH238001   1.572   3.532   7.498  0.1049  0.1867 -0.0287
 5481TIP3    H138002   1.663   3.505   7.508  0.4365  1.4783  0.5712
 5481TIP3    H238003   1.552   3.581   7.577 -0.9546  0.3640 -0.3869
 5482TIP3   OH238004   2.077   6.486   8.226  1.1060 -0.0021 -0.2493
 5482TIP3    H138005   1.997   6.488   8.173  1.3337 -2.6762 -0.8620
 5482TIP3    H238006   2.052   6.527   8.309 -0.4857  0.4975 -0.9291
 5483TIP3   OH238007   4.925   4.215   6.537  0.2222  0.2173 -0.1897
 5483TIP3    H138008   4.960   4.302   6.556  1.9231 -0.0497 -1.8141
 5483TIP3    H238009   4.870   4.228   6.460  1.1373 -0.2406 -0.9420
 5484TIP3   OH238010   5.929   5.333   7.553 -0.4872  0.2353 -0.3115
 5484TIP3    H138011   5.949   5.379   7.635 -0.3949  0.2862 -0.3633
 5484TIP3    H238012   5.954   5.242   7.569  1.4097  0.6116 -0.9597
 5485TIP3   OH238013   3.538   0.364   7.172 -0.3983  0.2453 -0.1356
 5485TIP3    H138014   3.525   0.459   7.166 -0.6186  0.2238 -0.0165
 5485TIP3    H238015   3.508   0.342   7.260 -0.6614  0.0159 -0.2833
 5486TIP3   OH238016   2.648   1.869   1.691 -0.0276 -0.1722 -0.2904
 5486TIP3    H138017   2.570   1.814   1.699 -0.1550  0.0952  0.3867
 5486TIP3    H238018   2.716   1.810   1.659 -0.2158 -0.6780  0.2277
 5487TIP3   OH238019   2.842   3.002   0.325  0.0181 -0.2195 -0.2930
 5487TIP3    H138020   2.814   2.929   0.269  0.3314 -0.0102 -0.7193
 5487TIP3    H238021   2.893   2.960   0.394 -1.7470 -0.6855  0.8124
 5488TIP3   OH238022   0.371   4.573   1.710 -0.1956 -0.1738 -0.3284
 5488TIP3    H138023   0.286   4.583   1.668 -0.4939 -0.5905  0.1677
 5488TIP3    H238024   0.430   4.627   1.657 -0.8216  0.3507 -0.5056
 5489TIP3   OH238025   1.984   3.772   1.919 -0.0191  0.0858  0.4975
 5489TIP3    H138026   1.894   3.753   1.947 -0.0078  0.2968  0.6861
 5489TIP3    H238027   2.000   3.712   1.847 -0.7585  0.9091 -0.3747
 5490TIP3   OH238028   4.286   0.771   7.534  0.3254 -0.6783  0.3841
 5490TIP3    H138029   4.242   0.699   7.579  3.0736 -1.5158  1.9607
 5490TIP3    H238030   4.319   0.826   7.605 -0.4985  1.4204 -0.7798
 5491TIP3   OH238031   3.621   0.260   7.520 -0.3203 -0.3988 -0.5352
 5491TIP3    H138032   3.668   0.213   7.589  1.0525  0.3885 -0.9110
 5491TIP3    H238033   3.629   0.204   7.443 -0.8887 -0.7459 -0.3466
 5492TIP3   OH238034   0.590   0.261   7.218 -0.0589 -0.4829  0.2294
 5492TIP3    H138035   0.672   0.284   7.174 -0.5444 -1.2494 -1.1124
 5492TIP3    H238036   0.521   0.302   7.166 -0.5729 -0.1803  1.1207
 5493TIP3   OH238037   0.726   0.347   7.716 -0.7504 -0.0656 -0.3742
 5493TIP3    H138038   0.767   0.331   7.631 -1.1939 -0.2283 -0.5616
 5493TIP3    H238039   0.638   0.309   7.707 -1.1175  0.7128 -0.1546
 5494TIP3   OH238040   1.657   6.888   0.675  0.1080  0.0035  0.0759
 5494TIP3    H138041   1.622   6.945   0.606  0.8131  0.2409 -0.0904
 5494TIP3    H238042   1.725   6.837   0.631 -1.9192 -2.5613 -0.3444
 5495TIP3   OH238043   6.679   1.832   0.753 -0.2451  0.1387  0.3342
 5495TIP3    H138044   6.772   1.855   0.761 -0.8558  3.2372 -0.0683
 5495TIP3    H238045   6.647   1.831   0.843 -0.3188  1.8572  0.3692
 5496TIP3   OH238046   0.663   0.810   0.910  0.1355 -0.2967 -0.3807
 5496TIP3    H138047   0.642   0.724   0.947 -0.2312 -0.2747 -0.5292
 5496TIP3    H238048   0.758   0.810   0.901  0.1307 -0.7154 -0.4464
 5497TIP3   OH238049   6.467   4.945   1.839  0.2659 -0.0909  0.0673
 5497TIP3    H138050   6.445   4.900   1.921 -1.6895  1.1000  0.2472
 5497TIP3    H238051   6.473   4.875   1.774  1.2177 -0.9843  1.0596
 5498TIP3   OH238052   1.659   6.683   7.900 -0.0146  0.5637 -0.0676
 5498TIP3    H138053   1.602   6.683   7.823  1.4726  0.8728 -1.1981
 5498TIP3    H238054   1.661   6.774   7.929  0.6607  0.7326 -0.6215
 5499TIP3   OH238055   3.269   2.946   8.063  0.1170 -0.3800 -0.4421
 5499TIP3    H138056   3.326   2.878   8.099 -0.2639 -0.5139 -0.0839
 5499TIP3    H238057   3.327   3.020   8.048 -0.1477  0.7224  3.1796
 5500TIP3   OH238058   1.508   2.402   0.990 -0.2283 -0.8561 -0.1541
 5500TIP3    H138059   1.499   2.308   0.976 -3.7044 -0.4727 -1.5110
 5500TIP3    H238060   1.549   2.409   1.076  1.4634 -3.5392 -0.6050
 5501TIP3   OH238061   3.499   6.031   8.519  0.0563 -0.4908  0.2045
 5501TIP3    H138062   3.560   6.089   8.565  0.8484 -1.2731  0.1744
 5501TIP3    H238063   3.466   6.084   8.445  0.8212 -0.1085  0.1286
 5502TIP3   OH238064   2.448   2.357   0.558  0.5689  0.6980  0.1675
 5502TIP3    H138065   2.422   2.287   0.618 -0.2765  2.3806  1.8636
 5502TIP3    H238066   2.419   2.327   0.472 -1.0516 -0.4279  1.0533
 5503TIP3   OH238067   0.012   3.223   1.031  0.4404 -0.2443  0.0025
 5503TIP3    H138068  -0.050   3.152   1.049 -1.3170  1.0318 -0.7557
 5503TIP3    H238069  -0.021   3.297   1.083  1.0572  0.5967 -0.7800
 5504TIP3   OH238070   3.835   3.367   1.333 -0.2516 -0.4104  0.2373
 5504TIP3    H138071   3.804   3.286   1.372  0.1566 -0.1489  1.1177
 5504TIP3    H238072   3.824   3.354   1.239 -0.5907 -1.3121  0.3941
 5505TIP3   OH238073   0.872   3.236   7.222 -0.6055 -0.2099  0.2924
 5505TIP3    H138074   0.965   3.256   7.217 -0.7144  0.2817  0.2237
 5505TIP3    H238075   0.863   3.151   7.177 -0.5965  1.0545 -2.3133
 5506TIP3   OH238076   6.534   3.125   7.002 -0.2056 -0.0065 -0.3515
 5506TIP3    H138077   6.526   3.070   7.080 -1.7327  0.9263  0.1833
 5506TIP3    H238078   6.614   3.094   6.959  0.5804 -0.6450  1.4847
 5507TIP3   OH238079   3.569   4.884   0.836 -0.0379  0.0225 -0.1179
 5507TIP3    H138080   3.617   4.934   0.770 -2.1583 -0.4864 -2.1682
 5507TIP3    H238081   3.633   4.820   0.868  1.4874  1.2854 -0.4924
 5508TIP3   OH238082   2.864   0.204   7.680 -0.5789 -0.0808 -0.1710
 5508TIP3    H138083   2.778   0.244   7.662 -0.8054 -0.4757  0.0349
 5508TIP3    H238084   2.845   0.111   7.694 -0.2476  0.0021  0.8959
 5509TIP3   OH238085   4.511   4.015   2.916  0.0818  0.2675 -0.2705
 5509TIP3    H138086   4.557   4.096   2.935  0.0082  0.5503 -1.2440
 5509TIP3    H238087   4.577   3.959   2.874 -0.7934  1.3377 -3.4006
 5510TIP3   OH238088   6.784   0.991   7.461  0.0253  0.2596  0.2089
 5510TIP3    H138089   6.747   0.991   7.549  0.9277  0.6209  0.5974
 5510TIP3    H238090   6.876   1.016   7.473  0.2693 -0.0985 -0.7861
 5511TIP3   OH238091   5.000   5.827   7.355 -0.2951  0.1610  0.3564
 5511TIP3    H138092   5.046   5.845   7.437 -1.4065 -0.6555  1.2062
 5511TIP3    H238093   5.061   5.853   7.286  1.0884 -0.1233  1.4271
 5512TIP3   OH238094   2.337   2.563   7.433  0.0575  0.0598 -0.2961
 5512TIP3    H138095   2.324   2.520   7.517  1.4547  0.0413 -0.0657
 5512TIP3    H238096   2.286   2.511   7.371 -0.2309 -0.4821  0.3886
 5513TIP3   OH238097   4.613   6.726   0.645 -0.3827 -0.7133 -0.2146
 5513TIP3    H138098   4.583   6.658   0.706 -0.8232 -1.6402 -1.4290
 5513TIP3    H238099   4.688   6.765   0.689 -1.1196 -0.8565  1.2512
 5514TIP3   OH238100   4.721   5.389   8.274  0.1547 -0.2462 -0.0095
 5514TIP3    H138101   4.721   5.399   8.178  4.0754  0.4920 -0.0994
 5514TIP3    H238102   4.790   5.325   8.291  0.4124  0.5941  2.3920
 5515TIP3   OH238103   1.365   2.496   2.292 -0.0970 -0.0454  0.5494
 5515TIP3    H138104   1.448   2.536   2.264  0.5715 -1.4534  0.4666
 5515TIP3    H238105   1.349   2.534   2.379 -0.6109  2.0173 -0.3729
 5516TIP3   OH238106   4.521   4.060   6.821 -0.8171  0.2639  0.2806
 5516TIP3    H138107   4.613   4.038   6.811 -0.4905  1.4212  0.6824
 5516TIP3    H238108   4.482   4.040   6.736 -0.1750 -0.1021  0.0691
 5517TIP3   OH238109   2.589   3.302   0.837  0.8913  0.6210 -0.9432
 5517TIP3    H138110   2.676   3.339   0.820  0.7539  1.0983 -0.6169
 5517TIP3    H238111   2.529   3.376   0.832  0.8411  0.8345  1.5732
 5518TIP3   OH238112   4.919   3.795   6.547 -0.2316 -0.0835 -0.0226
 5518TIP3    H138113   4.916   3.728   6.616 -0.1152 -1.0679 -0.9490
 5518TIP3    H238114   4.843   3.774   6.492  1.4677 -1.3542 -2.0154
 5519TIP3   OH238115   3.304   6.870   7.832  0.1768 -0.4079 -0.5004
 5519TIP3    H138116   3.270   6.955   7.860  0.8303 -0.4297  0.3836
 5519TIP3    H238117   3.235   6.808   7.856  1.2336 -0.5961  2.3161
 5520TIP3   OH238118   5.379   0.265   0.492  0.2615 -0.3511  0.6728
 5520TIP3    H138119   5.395   0.188   0.547  1.6545 -1.9402 -1.7715
 5520TIP3    H238120   5.355   0.229   0.406  0.3530  1.9560 -0.4072
 5521TIP3   OH238121   6.756   3.039   7.928  0.9867 -0.1772  0.3552
 5521TIP3    H138122   6.690   2.972   7.910  0.0841  0.9478 -0.7515
 5521TIP3    H238123   6.838   3.001   7.897  0.6355 -1.0881  0.5161
 5522TIP3   OH238124   4.040   1.233   8.024 -0.7542  0.0560 -0.1570
 5522TIP3    H138125   4.099   1.306   8.005 -1.7242  0.8621 -0.1828
 5522TIP3    H238126   4.044   1.223   8.119  0.4314 -0.8063 -0.2614
 5523TIP3   OH238127   1.831   6.342   6.416 -0.2493 -0.1977  0.2051
 5523TIP3    H138128   1.900   6.402   6.388  0.7668 -1.7391 -0.7339
 5523TIP3    H238129   1.786   6.389   6.487  0.1769  1.8348 -0.7930
 5524TIP3   OH238130   3.940   5.790   0.359 -0.1745  0.2890 -0.1002
 5524TIP3    H138131   3.975   5.703   0.379 -1.1475  0.0535  0.6622
 5524TIP3    H238132   3.949   5.839   0.441 -0.3616  0.6492 -0.2941
 5525TIP3   OH238133   2.676   6.059   6.334 -0.1890 -0.7798  0.0249
 5525TIP3    H138134   2.669   5.994   6.264 -0.2577 -1.4047  0.5889
 5525TIP3    H238135   2.588   6.098   6.340 -0.6396 -1.8364  0.7775
 5526TIP3   OH238136   1.538   1.432   1.304  0.2954 -0.6055 -0.0714
 5526TIP3    H138137   1.588   1.372   1.248 -3.0194 -0.7850 -3.2166
 5526TIP3    H238138   1.523   1.383   1.384  1.4283 -2.2095 -0.7789
 5527TIP3   OH238139   4.055   5.760   7.571 -0.0236  0.0056  0.3539
 5527TIP3    H138140   4.107   5.793   7.644 -1.0647  1.1580  0.6172
 5527TIP3    H238141   4.108   5.690   7.533 -0.7739 -2.9191  4.1539
 5528TIP3   OH238142   1.192   1.129   8.415 -0.0237 -0.7482 -0.2899
 5528TIP3    H138143   1.222   1.220   8.418  1.1416 -1.1486  1.1372
 5528TIP3    H238144   1.128   1.123   8.486 -1.6867 -0.5679 -1.6844
 5529TIP3   OH238145   2.226   6.581   7.432  0.2869 -0.1208  0.1416
 5529TIP3    H138146   2.281   6.650   7.395  0.6694  0.1632  1.2104
 5529TIP3    H238147   2.137   6.605   7.405  0.6269 -0.4411 -1.3673
 5530TIP3   OH238148   2.114   5.544   6.453 -0.0406 -0.4730  0.7536
 5530TIP3    H138149   2.172   5.501   6.391  1.0353  2.0156 -0.0573
 5530TIP3    H238150   2.031   5.552   6.407  0.4163  0.3254  0.0585
 5531TIP3   OH238151   0.390   3.301   8.374 -0.0097  0.0422  0.1504
 5531TIP3    H138152   0.402   3.221   8.323  0.6984  0.5429 -0.4680
 5531TIP3    H238153   0.296   3.301   8.397 -0.2438 -0.3944 -0.7881
 5532TIP3   OH238154   0.907   4.154   7.546  0.1360  0.7531  0.2022
 5532TIP3    H138155   0.923   4.242   7.511  1.8472  0.4071  0.0061
 5532TIP3    H238156   0.854   4.168   7.624  0.3897  1.9617  0.1772
 5533TIP3   OH238157   3.411   5.023   8.315 -0.0057  0.4302 -0.5570
 5533TIP3    H138158   3.480   4.957   8.312  1.8647  2.1763  0.8394
 5533TIP3    H238159   3.334   4.978   8.349  1.2362 -1.0097  0.4590
 5534TIP3   OH238160   0.892   0.685   0.544  0.0581  0.1144  0.0085
 5534TIP3    H138161   0.864   0.600   0.578  0.0388 -0.0998 -0.5412
 5534TIP3    H238162   0.832   0.702   0.471  0.2344  0.4781 -0.0507
 5535TIP3   OH238163   4.376   2.258   0.521 -0.2542  0.0761  0.7403
 5535TIP3    H138164   4.285   2.245   0.548 -0.1197  2.2285  2.4893
 5535TIP3    H238165   4.377   2.343   0.478  0.8573 -0.1194  0.3503
 5536TIP3   OH238166   4.029   3.189   2.142  0.3687  0.2156  0.7806
 5536TIP3    H138167   4.072   3.253   2.198 -0.9061  2.4208 -0.5623
 5536TIP3    H238168   4.020   3.234   2.057 -1.3579 -1.4185  0.0055
 5537TIP3   OH238169   4.517   0.778   7.368 -0.1858 -0.3262 -0.9132
 5537TIP3    H138170   4.522   0.691   7.330 -0.5093  0.4255 -2.8019
 5537TIP3    H238171   4.454   0.771   7.440  1.9000 -2.2432  0.8913
 5538TIP3   OH238172   0.019   0.011   8.028  0.1743  0.6883 -0.3730
 5538TIP3    H138173   0.108  -0.024   8.023 -0.0636  0.2486 -1.6411
 5538TIP3    H238174   0.008   0.061   7.948 -0.1903  2.0714  0.4983
 5539TIP3   OH238175   5.425   6.432   1.465  0.0552  0.2787  0.5894
 5539TIP3    H138176   5.416   6.485   1.544 -0.6281 -0.7446  1.2236
 5539TIP3    H238177   5.370   6.355   1.481 -0.1659  0.0833 -0.9141
 5540TIP3   OH238178   2.063   1.206   0.750 -0.0724 -0.0206  0.6460
 5540TIP3    H138179   2.140   1.258   0.727 -1.0201  3.0055  3.5123
 5540TIP3    H238180   2.095   1.115   0.750  2.8759  0.8810 -0.3834
 5541TIP3   OH238181   4.977   6.597   7.999  0.5383 -0.1336 -0.6918
 5541TIP3    H138182   4.984   6.516   8.050  0.1201  0.6047  0.5841
 5541TIP3    H238183   4.888   6.595   7.964  0.0930  0.3275  0.3584
 5542TIP3   OH238184   1.260   2.016   7.861 -0.5615  0.1437  0.1244
 5542TIP3    H138185   1.239   2.070   7.785 -2.0906 -0.1814  0.2896
 5542TIP3    H238186   1.222   2.063   7.936  0.5563  0.2444  0.6560
 5543TIP3   OH238187   2.725   5.566   7.839 -0.6607 -0.2268  0.1268
 5543TIP3    H138188   2.658   5.630   7.862 -2.8116 -2.3205  0.0796
 5543TIP3    H238189   2.684   5.512   7.772  1.4348 -1.0843 -0.5462
 5544TIP3   OH238190   1.461   2.249   2.209  0.0314  0.6337 -0.6415
 5544TIP3    H138191   1.554   2.273   2.207  0.6249 -1.0839  1.5993
 5544TIP3    H238192   1.419   2.322   2.255  0.5988  0.5708 -0.0070
 5545TIP3   OH238193   4.748   2.709   0.402 -0.3870  0.4954 -0.0452
 5545TIP3    H138194   4.827   2.655   0.399 -1.1126 -0.5771 -1.8120
 5545TIP3    H238195   4.685   2.656   0.450 -0.5985  0.4945 -0.3213
 5546TIP3   OH238196   6.551   4.959   8.194 -0.3012 -0.6705 -0.0089
 5546TIP3    H138197   6.469   4.993   8.230 -1.6413 -2.5702 -1.0897
 5546TIP3    H238198   6.536   4.956   8.099  1.1925 -0.6628 -0.2716
 5547TIP3   OH238199   0.350   5.790   7.826 -0.1008  0.2750  0.0682
 5547TIP3    H138200   0.349   5.702   7.864  0.2731  0.1180 -0.2774
 5547TIP3    H238201   0.426   5.832   7.867  0.1294  0.2025 -0.2771
 5548TIP3   OH238202   1.965   4.667   0.990 -0.2234 -0.3010  0.3922
 5548TIP3    H138203   2.029   4.607   0.952 -1.8396 -1.9581  0.1810
 5548TIP3    H238204   2.014   4.716   1.056  1.2269 -1.6504  0.3662
 5549TIP3   OH238205   1.042   1.312   7.057 -0.4877  0.6271 -0.0311
 5549TIP3    H138206   0.983   1.252   7.103  0.8818 -1.0993 -0.4596
 5549TIP3    H238207   1.101   1.256   7.008 -2.1248  2.3182 -4.4273
 5550TIP3   OH238208   4.337   0.510   6.851  0.4223 -0.4071 -0.0808
 5550TIP3    H138209   4.262   0.485   6.798 -0.9380  0.3768  1.4037
 5550TIP3    H238210   4.397   0.552   6.789 -0.3568 -1.0142 -1.2792
 5551TIP3   OH238211   0.263   5.205   7.172  0.2499 -0.0183  0.5846
 5551TIP3    H138212   0.202   5.187   7.244 -1.3553 -2.0606 -1.1509
 5551TIP3    H238213   0.238   5.292   7.140 -0.2222  0.1380  1.3528
 5552TIP3   OH238214   0.579   0.518   8.585 -0.0912  0.6236 -0.7109
 5552TIP3    H138215   0.630   0.448   8.544  0.7148  0.2031  0.9043
 5552TIP3    H238216   0.495   0.477   8.606  0.0509  0.3906 -0.5890
 5553TIP3   OH238217   6.167   5.725   6.928  0.1849  0.2364 -0.5023
 5553TIP3    H138218   6.241   5.669   6.903  0.8759  1.1479 -0.5792
 5553TIP3    H238219   6.091   5.686   6.884  0.4647 -1.1896  0.2499
 5554TIP3   OH238220   3.321   5.571   1.940  1.1831  0.3220 -0.3074
 5554TIP3    H138221   3.311   5.629   2.015  2.3242  0.1314  0.0109
 5554TIP3    H238222   3.416   5.565   1.926  1.0384 -0.5621 -1.0415
 5555TIP3   OH238223   2.032   0.561   0.059  0.0302 -0.2507 -0.1203
 5555TIP3    H138224   1.999   0.516   0.136  1.2148 -0.7302  0.1306
 5555TIP3    H238225   2.097   0.622   0.093  0.5725 -0.4737 -0.7266
 5556TIP3   OH238226   0.436   3.093   1.479  0.6131  0.4656  0.3843
 5556TIP3    H138227   0.341   3.089   1.491  0.6410 -0.3798  0.3856
 5556TIP3    H238228   0.448   3.131   1.392  0.2703  0.4829  0.3432
 5557TIP3   OH238229   2.841   4.969   6.614  0.2165  0.3869 -0.0966
 5557TIP3    H138230   2.876   4.909   6.679 -0.3630  1.6524  1.4345
 5557TIP3    H238231   2.811   4.913   6.543 -1.0343 -1.2095  1.6043
 5558TIP3   OH238232   6.500   5.001   1.370  0.0818 -0.0771  0.0639
 5558TIP3    H138233   6.587   4.976   1.338  0.5958  0.6042  0.8853
 5558TIP3    H238234   6.451   4.919   1.371  0.9143 -0.5915  0.2068
 5559TIP3   OH238235   1.391   2.904   7.435 -0.2386 -0.1646  0.1835
 5559TIP3    H138236   1.423   2.820   7.466 -2.4886 -0.7101  1.2311
 5559TIP3    H238237   1.412   2.905   7.342 -1.5244 -2.6026 -0.2110
 5560TIP3   OH238238   3.207   3.039   1.013 -0.0540 -0.1836 -0.4625
 5560TIP3    H138239   3.283   2.984   1.034  0.0349 -0.6225 -1.8482
 5560TIP3    H238240   3.244   3.117   0.972 -0.2787  0.2513  0.1428
 5561TIP3   OH238241   5.719   2.014   1.768 -0.0072 -0.0033  0.1451
 5561TIP3    H138242   5.630   2.013   1.803 -0.6094  1.4612 -1.2152
 5561TIP3    H238243   5.774   2.041   1.842 -0.9585  0.9927  0.5139
 5562TIP3   OH238244   2.629   6.483   0.074  0.1889  0.2343  0.0693
 5562TIP3    H138245   2.605   6.402   0.120 -0.9643 -0.1634 -1.1850
 5562TIP3    H238246   2.546   6.523   0.050  0.6541  2.7328  2.1364
 5563TIP3   OH238247   4.442   5.149   1.758 -0.2688  0.3061 -0.8232
 5563TIP3    H138248   4.489   5.225   1.722  0.1957  0.1783 -0.5008
 5563TIP3    H238249   4.511   5.093   1.792 -0.6370 -0.0868 -0.7214
 5564TIP3   OH238250   5.318   4.515   7.280  0.2076 -0.9093 -0.1362
 5564TIP3    H138251   5.383   4.502   7.211 -0.7680 -0.8024 -1.1038
 5564TIP3    H238252   5.246   4.457   7.256 -0.6897  0.0884  0.0782
 5565TIP3   OH238253   4.030   1.884   0.878 -0.0460  0.8529  0.0027
 5565TIP3    H138254   3.995   1.972   0.867  1.6473  1.8628  2.0012
 5565TIP3    H238255   3.983   1.848   0.953 -0.1306  0.3799 -0.2718
 5566TIP3   OH238256   6.138   3.727   0.439 -0.0113  0.0507 -0.0316
 5566TIP3    H138257   6.215   3.751   0.386 -0.2896  0.0058 -0.4576
 5566TIP3    H238258   6.130   3.632   0.428  0.8987 -0.2229  1.4004
 5567TIP3   OH238259   5.640   1.675   0.993 -0.3413 -0.3201 -0.0117
 5567TIP3    H138260   5.651   1.590   1.036  0.5540  0.1517  0.7508
 5567TIP3    H238261   5.723   1.720   1.010 -0.9519  0.8534 -0.0534
 5568TIP3   OH238262   4.184   2.462   1.618 -0.2807  0.1137 -0.3397
 5568TIP3    H138263   4.207   2.546   1.658  1.5096 -0.9582  1.0041
 5568TIP3    H238264   4.155   2.407   1.691  1.8845 -1.5005 -0.6094
 5569TIP3   OH238265   1.548   1.668   0.995  0.9188  0.7091 -0.0132
 5569TIP3    H138266   1.510   1.585   0.969  0.2907  0.6312  1.1008
 5569TIP3    H238267   1.591   1.650   1.079  1.1743  1.3960  0.0113
 5570TIP3   OH238268   2.123   2.446   7.307  0.3108 -0.3125 -0.1459
 5570TIP3    H138269   2.061   2.513   7.336  0.9655  0.8342 -1.2700
 5570TIP3    H238270   2.069   2.382   7.260  0.0189  1.0384 -1.7384
 5571TIP3   OH238271   5.017   2.469   8.569  0.1510  0.2675 -0.1267
 5571TIP3    H138272   5.004   2.562   8.548  1.8145  0.0918 -2.3505
 5571TIP3    H238273   5.112   2.458   8.569 -0.0069 -1.3531  0.5820
 5572TIP3   OH238274   5.899   1.535   7.078 -0.0510  0.0616 -0.1902
 5572TIP3    H138275   5.961   1.521   7.006  1.0276 -0.8896  0.8817
 5572TIP3    H238276   5.824   1.578   7.037  0.8501  0.2289 -1.7350
 5573TIP3   OH238277   0.264   3.669   0.395 -0.1792 -1.0251  0.7040
 5573TIP3    H138278   0.258   3.708   0.308  0.4879  0.3701  1.2504
 5573TIP3    H238279   0.234   3.579   0.383  0.1613 -0.9517 -1.0231
 5574TIP3   OH238280   0.979   3.471   1.276 -0.1508 -0.4703 -0.0400
 5574TIP3    H138281   1.032   3.453   1.354 -0.0294 -1.7983 -0.3988
 5574TIP3    H238282   0.938   3.555   1.293  0.0078 -0.6605  1.3891
 5575TIP3   OH238283   2.961   6.353   0.388 -0.4977  0.6179  0.2869
 5575TIP3    H138284   2.994   6.395   0.309 -0.0351  0.8822  0.6128
 5575TIP3    H238285   3.039   6.336   0.441 -0.7784  0.2391  0.5902
 5576TIP3   OH238286   1.939   2.691   7.969 -0.4460  0.2286  0.4732
 5576TIP3    H138287   1.946   2.783   7.945 -0.7615 -0.1792 -1.3737
 5576TIP3    H238288   1.847   2.669   7.952 -0.7973 -0.0283  2.5239
 5577TIP3   OH238289   5.772   2.868   1.064 -0.8679 -0.0129  0.3323
 5577TIP3    H138290   5.682   2.837   1.055 -0.4897 -1.2845  0.7608
 5577TIP3    H238291   5.799   2.890   0.975 -1.5910  0.3843  0.2029
 5578TIP3   OH238292   1.667   2.897   0.755 -0.2299  0.1005 -1.0907
 5578TIP3    H138293   1.610   2.828   0.788 -0.0080 -0.1356 -1.1998
 5578TIP3    H238294   1.619   2.934   0.681 -1.3812  1.5699  0.2935
 5579TIP3   OH238295   2.252   3.741   8.274 -0.3285 -0.5046 -0.1674
 5579TIP3    H138296   2.206   3.690   8.208 -0.4463 -0.2107 -0.3144
 5579TIP3    H238297   2.268   3.826   8.232  0.1392 -0.5228 -0.0355
 5580TIP3   OH238298   6.698   5.255   8.008  0.3698 -0.4360  0.6429
 5580TIP3    H138299   6.678   5.311   7.933 -0.9929 -1.6137  0.0608
 5580TIP3    H238300   6.740   5.178   7.970  1.5678 -0.1435  1.3443
 5581TIP3   OH238301   1.933   0.713   1.354 -0.1699  0.1115 -0.1095
 5581TIP3    H138302   1.960   0.716   1.445 -1.9969 -3.6450  0.7367
 5581TIP3    H238303   2.013   0.694   1.305  0.4073 -0.5266  1.0442
 5582TIP3   OH238304   0.031   3.855   0.642 -0.2724 -0.3329  0.1465
 5582TIP3    H138305   0.125   3.873   0.647 -0.1536 -1.0847  0.8932
 5582TIP3    H238306   0.024   3.760   0.652 -0.8393 -0.8799 -3.8046
 5583TIP3   OH238307   3.704   5.713   7.435  0.3900 -0.5753  0.7360
 5583TIP3    H138308   3.660   5.765   7.503  0.7911 -1.4366  1.6882
 5583TIP3    H238309   3.735   5.778   7.372 -0.1809  0.2347  1.2595
 5584TIP3   OH238310   0.683   1.026   1.488 -0.0280 -0.0087  0.1237
 5584TIP3    H138311   0.696   1.005   1.580  0.2504 -1.9667 -0.3171
 5584TIP3    H238312   0.752   0.978   1.442  1.0079  2.3709 -1.0078
 5585TIP3   OH238313   4.976   3.601   1.207  0.0128  0.3212 -0.1655
 5585TIP3    H138314   5.052   3.599   1.149  0.4769  2.0564  0.3046
 5585TIP3    H238315   4.982   3.520   1.258  0.3518 -0.5673 -1.5753
 5586TIP3   OH238316   0.624   2.644   1.465 -0.7555  0.2653  0.0424
 5586TIP3    H138317   0.631   2.726   1.416  0.3780  0.2298  0.1260
 5586TIP3    H238318   0.641   2.669   1.555 -0.7290 -0.0213  0.1153
 5587TIP3   OH238319   4.828   0.469   6.668  0.5764  0.1113 -0.4961
 5587TIP3    H138320   4.753   0.479   6.608  0.6531  0.7832 -0.4878
 5587TIP3    H238321   4.888   0.411   6.621  0.1556 -0.2431 -0.6049
 5588TIP3   OH238322   5.786   6.460   7.663  0.2211 -0.2039 -0.5747
 5588TIP3    H138323   5.792   6.554   7.645 -1.7776  0.3127  1.1317
 5588TIP3    H238324   5.774   6.420   7.576 -1.3336  1.3726 -1.1406
 5589TIP3   OH238325   4.765   1.783   1.237 -0.2629 -0.4901 -0.2683
 5589TIP3    H138326   4.839   1.814   1.290  0.2279 -1.2674 -0.4736
 5589TIP3    H238327   4.748   1.694   1.269 -1.8076  0.0376  0.4826
 5590TIP3   OH238328   2.452   4.678   8.268  0.8730  0.2959  0.0670
 5590TIP3    H138329   2.442   4.687   8.362  0.5678 -2.1684  0.3126
 5590TIP3    H238330   2.366   4.704   8.232  0.1021 -1.2957  0.6908
 5591TIP3   OH238331   6.144   3.427   0.102  0.7152  0.4935  0.4542
 5591TIP3    H138332   6.167   3.455   0.014 -0.3161 -2.2961 -0.7988
 5591TIP3    H238333   6.052   3.453   0.113  0.9203  1.0820  0.8454
 5592TIP3   OH238334   5.065   5.961   8.404  0.2928 -0.1556 -1.3001
 5592TIP3    H138335   5.101   5.878   8.434  0.2835  0.0404 -0.7322
 5592TIP3    H238336   4.993   5.937   8.347 -0.6047 -0.5442 -0.0415
 5593TIP3   OH238337   2.382   4.107   7.791 -0.4377  0.3021 -0.2577
 5593TIP3    H138338   2.302   4.054   7.783 -1.3607  1.7173 -0.7786
 5593TIP3    H238339   2.355   4.184   7.840  1.2037 -0.2628  1.6765
 5594TIP3   OH238340   3.875   3.686   1.564 -0.0982 -0.4099 -0.0695
 5594TIP3    H138341   3.802   3.631   1.533 -1.7650  0.8625  1.3847
 5594TIP3    H238342   3.920   3.713   1.484 -1.1112 -1.3642 -1.0021
 5595TIP3   OH238343   0.088   5.284   8.326 -0.2282 -0.5082  0.6470
 5595TIP3    H138344   0.153   5.298   8.395 -0.2623  0.9423  0.4180
 5595TIP3    H238345   0.019   5.232   8.367 -1.6443  2.6279  2.6397
 5596TIP3   OH238346   1.898   2.951   0.304  0.2546  0.2410  0.0755
 5596TIP3    H138347   1.913   2.881   0.368  3.8963  1.3273  0.6250
 5596TIP3    H238348   1.961   2.933   0.234 -0.6264  1.5237 -1.0933
 5597TIP3   OH238349   6.358   5.351   2.222 -0.0953  0.5640  0.1851
 5597TIP3    H138350   6.315   5.269   2.247  1.4893  0.2432  2.0277
 5597TIP3    H238351   6.336   5.412   2.292  2.3421  0.3802  1.2209
 5598TIP3   OH238352   2.381   3.336   2.083  0.3262  0.1087  0.1796
 5598TIP3    H138353   2.441   3.400   2.121 -0.1744  0.8990 -0.3300
 5598TIP3    H238354   2.298   3.382   2.076  0.0164 -0.5242 -0.4371
 5599TIP3   OH238355   3.919   1.769   2.179  0.3441 -0.4396 -0.4423
 5599TIP3    H138356   3.932   1.760   2.085 -1.6055 -2.1282 -0.6142
 5599TIP3    H238357   3.908   1.679   2.210 -0.1009  0.1620  1.2339
 5600TIP3   OH238358   1.070   4.351   1.693  0.0009 -0.4499  1.1707
 5600TIP3    H138359   1.161   4.382   1.694 -0.0589 -0.2565  0.9243
 5600TIP3    H238360   1.028   4.397   1.765  0.1877 -0.8258  1.5239
 5601TIP3   OH238361   1.182   6.723   7.515  0.1336 -0.4069 -0.0985
 5601TIP3    H138362   1.226   6.745   7.433  0.0268 -1.1676 -0.3753
 5601TIP3    H238363   1.250   6.682   7.569  0.4785  1.0877  0.6410
 5602TIP3   OH238364   5.556   0.035   0.431 -0.1635  0.2048  0.4756
 5602TIP3    H138365   5.612  -0.039   0.452 -1.8492 -1.0889  0.6808
 5602TIP3    H238366   5.545   0.031   0.335 -1.9334 -1.1966  0.6639
 5603TIP3   OH238367   5.807   2.181   6.853  0.0419  0.1952 -0.1783
 5603TIP3    H138368   5.789   2.221   6.768 -0.2017 -0.9919 -0.7007
 5603TIP3    H238369   5.876   2.236   6.891  0.7169  0.2835 -1.4875
 5604TIP3   OH238370   1.125   3.485   8.437 -0.7592  0.1148  0.8329
 5604TIP3    H138371   1.071   3.563   8.433 -0.4945  0.2657 -0.0423
 5604TIP3    H238372   1.097   3.440   8.516 -3.6125 -0.8620 -0.6040
 5605TIP3   OH238373   1.150   1.954   6.959 -0.0452 -0.1445  0.5532
 5605TIP3    H138374   1.057   1.960   6.980  0.3345  0.4490  2.2809
 5605TIP3    H238375   1.157   1.992   6.871 -1.5116 -0.9469  0.0463
 5606TIP3   OH238376   0.087   6.274   1.949  0.0971 -0.5240 -0.3583
 5606TIP3    H138377  -0.007   6.293   1.942  0.2435  0.4421  0.1260
 5606TIP3    H238378   0.130   6.358   1.932  0.8853 -0.9643 -0.6076
 5607TIP3   OH238379   6.340   5.449   6.593 -0.2387 -0.3693 -0.1664
 5607TIP3    H138380   6.388   5.419   6.516  0.5579  1.7643 -0.5953
 5607TIP3    H238381   6.257   5.481   6.559 -1.2205 -2.3046  0.3221
 5608TIP3   OH238382   4.457   1.326   6.730 -0.3230  0.3314 -0.2901
 5608TIP3    H138383   4.522   1.262   6.702 -1.8677 -0.1768 -3.1565
 5608TIP3    H238384   4.493   1.411   6.702  0.1872  0.3347  0.3670
 5609TIP3   OH238385   0.842   4.950   7.421 -0.4588 -0.0724  0.0209
 5609TIP3    H138386   0.911   4.949   7.487  0.4543 -1.2731 -0.9085
 5609TIP3    H238387   0.779   4.885   7.452 -0.7090  0.3352  0.3808
 5610TIP3   OH238388   5.088   0.130   1.831  0.4975  0.3143 -0.4048
 5610TIP3    H138389   5.081   0.036   1.850  0.4431  0.1041 -1.4434
 5610TIP3    H238390   5.012   0.168   1.875  1.3417  0.0980  1.3241
 5611TIP3   OH238391   1.800   5.440   1.092 -0.3059 -0.5313 -0.0489
 5611TIP3    H138392   1.757   5.507   1.039 -0.7387 -1.7124 -1.2320
 5611TIP3    H238393   1.838   5.489   1.166 -1.4809  0.8762 -0.3237
 5612TIP3   OH238394   1.464   4.878   1.350 -0.0835  0.6591  0.0302
 5612TIP3    H138395   1.539   4.902   1.295  0.7801  0.9423  1.2788
 5612TIP3    H238396   1.411   4.820   1.295  1.3148  0.0460 -0.7148
 5613TIP3   OH238397   5.591   0.172   7.622 -0.0088 -0.0490  0.2525
 5613TIP3    H138398   5.646   0.128   7.687  2.8276  2.9671  0.1302
 5613TIP3    H238399   5.557   0.249   7.668  0.4225  1.0737 -1.2256
 5614TIP3   OH238400   3.561   0.935   1.595 -0.2958 -0.0948 -0.0607
 5614TIP3    H138401   3.519   0.880   1.529 -0.6004  0.3003 -0.1984
 5614TIP3    H238402   3.558   0.883   1.675 -2.1770  0.3970  0.2416
 5615TIP3   OH238403   3.365   0.304   7.397 -0.5519 -0.6905  0.2318
 5615TIP3    H138404   3.290   0.352   7.364 -0.5439 -0.6162  0.3223
 5615TIP3    H238405   3.361   0.314   7.492  0.8187  1.1954  0.1482
 5616TIP3   OH238406   5.937   2.381   1.190  0.2537  0.0992 -0.8037
 5616TIP3    H138407   5.912   2.473   1.198  2.2895  0.6282  0.2488
 5616TIP3    H238408   5.882   2.336   1.254  0.4571  0.8675 -0.0696
 5617TIP3   OH238409   2.854   3.272   7.991 -0.2590  0.2592  0.4727
 5617TIP3    H138410   2.844   3.363   7.962 -0.8032 -0.1853 -0.8089
 5617TIP3    H238411   2.947   3.265   8.014  0.3277  0.5612 -1.5915
 5618TIP3   OH238412   2.804   4.529   1.051 -0.2526 -0.3736  0.0589
 5618TIP3    H138413   2.899   4.532   1.059  0.1223 -0.3423 -3.0856
 5618TIP3    H238414   2.776   4.619   1.068  0.5169  0.0483 -0.8080
 5619TIP3   OH238415   3.831   2.886   7.308  0.5755  0.3204 -0.2818
 5619TIP3    H138416   3.902   2.850   7.255  1.7452  2.5486 -0.3300
 5619TIP3    H238417   3.863   2.971   7.337 -1.9792  1.2893 -0.0650
 5620TIP3   OH238418   1.034   2.511   2.287 -0.4136  0.1174 -0.2799
 5620TIP3    H138419   1.114   2.544   2.329 -0.1695 -0.9320  0.1195
 5620TIP3    H238420   0.968   2.514   2.357 -0.0496 -1.4699  0.1860
 5621TIP3   OH238421   1.796   0.963   0.081 -0.8625 -0.0901 -0.8655
 5621TIP3    H138422   1.887   0.943   0.103 -1.3767 -2.4019 -0.6333
 5621TIP3    H238423   1.786   1.055   0.105  1.1360 -0.0381  0.0163
 5622TIP3   OH238424   4.954   5.943   1.580 -0.1574  0.0995 -0.5836
 5622TIP3    H138425   4.967   6.023   1.529  3.9816  0.6549  0.9340
 5622TIP3    H238426   5.034   5.892   1.566 -0.7775 -1.7380  1.8747
 5623TIP3   OH238427   4.320   3.630   1.035  0.1343  0.0606 -0.0460
 5623TIP3    H138428   4.293   3.721   1.026 -1.4018 -0.3913 -0.2992
 5623TIP3    H238429   4.298   3.606   1.125 -1.8282 -0.7497 -0.6939
 5624TIP3   OH238430   2.230   6.183   7.743 -0.1694 -0.1853 -0.1842
 5624TIP3    H138431   2.320   6.191   7.777 -0.6972 -2.1518  1.9043
 5624TIP3    H238432   2.233   6.228   7.658  2.0802  2.1956  1.0060
 5625TIP3   OH238433   3.678   4.144   8.350  0.1767  0.0597  0.3267
 5625TIP3    H138434   3.731   4.067   8.328 -0.7212 -0.6356  0.5789
 5625TIP3    H238435   3.741   4.206   8.388  1.5732  0.7969 -2.8665
 5626TIP3   OH238436   2.218   3.266   6.680 -0.5421  0.1490 -0.5346
 5626TIP3    H138437   2.285   3.198   6.677 -0.9282 -0.2641  0.1347
 5626TIP3    H238438   2.187   3.273   6.590  0.4018  0.3522 -0.8566
 5627TIP3   OH238439   2.650   5.978   1.036 -0.2483 -0.4166  0.6888
 5627TIP3    H138440   2.636   5.884   1.044 -1.4535 -0.1317  2.4882
 5627TIP3    H238441   2.746   5.987   1.034 -0.1175 -1.7419 -1.0354
 5628TIP3   OH238442   3.669   2.238   0.055 -0.0781  0.4837  0.6222
 5628TIP3    H138443   3.753   2.262   0.016  0.6898 -1.8860  0.6913
 5628TIP3    H238444   3.650   2.150   0.022 -1.6494  0.2436  2.0079
 5629TIP3   OH238445   6.567   6.154   1.941 -0.4526  0.8350  0.6432
 5629TIP3    H138446   6.557   6.248   1.926 -3.4971  0.3361 -1.1976
 5629TIP3    H238447   6.568   6.145   2.036  1.2979  2.7791  0.8823
 5630TIP3   OH238448   5.513   0.482   7.741 -0.1177 -0.1919  0.2003
 5630TIP3    H138449   5.501   0.574   7.714  0.9045 -0.5264 -1.5193
 5630TIP3    H238450   5.475   0.478   7.828  0.2432  1.9954  0.5120
 5631TIP3   OH238451   3.428   2.126   0.786  0.2152  0.3478  0.0488
 5631TIP3    H138452   3.340   2.150   0.814  0.7372  2.7188 -0.1064
 5631TIP3    H238453   3.463   2.206   0.747  1.6521 -1.1597 -1.9547
 5632TIP3   OH238454   0.524   6.173   1.811 -0.3089 -0.2004 -0.3301
 5632TIP3    H138455   0.446   6.190   1.758  0.2447  1.4791 -0.6913
 5632TIP3    H238456   0.492   6.170   1.901 -1.0408 -1.4690 -0.6138
 5633TIP3   OH238457   5.205   1.286   1.333  0.3175 -0.6472  0.2294
 5633TIP3    H138458   5.193   1.260   1.242  0.9308  0.5876 -0.2290
 5633TIP3    H238459   5.119   1.316   1.362  0.6507  1.4472 -0.7925
 5634TIP3   OH238460   4.945   2.159   2.141  0.6935 -0.6526 -0.2598
 5634TIP3    H138461   4.959   2.182   2.233  1.2007  1.2964 -0.7921
 5634TIP3    H238462   5.029   2.124   2.112  0.5133 -1.3360  0.0053
 5635TIP3   OH238463   2.826   3.397   0.085  0.5176  0.0168  0.1103
 5635TIP3    H138464   2.883   3.467   0.053  1.0740 -0.2365  0.5256
 5635TIP3    H238465   2.843   3.323   0.026  1.1653 -0.2879  0.6637
 5636TIP3   OH238466   2.905   1.344   0.479  1.0837  0.1250  0.2123
 5636TIP3    H138467   2.950   1.406   0.536  0.3917  0.6241  0.2274
 5636TIP3    H238468   2.961   1.338   0.401  1.4726  0.2848  0.4811
 5637TIP3   OH238469   6.320   0.199   7.382 -0.1621  0.0624 -0.2818
 5637TIP3    H138470   6.315   0.106   7.407  0.4557 -0.2579 -1.2692
 5637TIP3    H238471   6.252   0.210   7.316  0.4047  0.0588 -0.8776
 5638TIP3   OH238472   3.408   4.609   7.274  0.0915 -0.1037 -0.2286
 5638TIP3    H138473   3.395   4.667   7.349  2.5162  1.3636 -0.8403
 5638TIP3    H238474   3.500   4.584   7.279  0.4192  0.2962 -2.8670
 5639TIP3   OH238475   0.677   6.187   0.545 -0.1795 -0.1215 -0.4154
 5639TIP3    H138476   0.626   6.267   0.545 -0.1819 -0.1116 -1.3386
 5639TIP3    H238477   0.629   6.127   0.602 -0.0165  0.6249  0.5252
 5640TIP3   OH238478   4.349   0.710   1.193  0.0878 -0.2198  0.0965
 5640TIP3    H138479   4.413   0.643   1.218 -0.0617 -0.3471  0.1460
 5640TIP3    H238480   4.339   0.700   1.099 -1.4873 -1.6913  0.3595
 5641TIP3   OH238481   5.567   6.591   6.898 -0.1327  0.0415 -0.3173
 5641TIP3    H138482   5.539   6.586   6.807  0.6026 -1.6057 -0.4784
 5641TIP3    H238483   5.486   6.610   6.946 -0.1987  3.2324 -1.4427
 5642TIP3   OH238484   0.903   0.878   1.415 -0.0520 -0.3325 -0.0661
 5642TIP3    H138485   0.920   0.804   1.473  0.9837 -0.9629 -1.1133
 5642TIP3    H238486   0.990   0.912   1.394 -0.4644  0.5605 -0.3988
 5643TIP3   OH238487   0.481   4.098   8.467 -0.1322 -0.5650  0.1105
 5643TIP3    H138488   0.458   4.020   8.416  0.9326 -0.8864  0.1148
 5643TIP3    H238489   0.522   4.157   8.404  0.2644 -0.5468  0.3824
 5644TIP3   OH238490   5.775   6.396   8.466 -0.4533  0.4898  0.1792
 5644TIP3    H138491   5.769   6.317   8.520 -1.0335  1.4471  1.5784
 5644TIP3    H238492   5.868   6.403   8.443 -0.1022  0.3111  1.4893
 5645TIP3   OH238493   5.207   5.722   8.462  0.2810 -0.4377  0.1873
 5645TIP3    H138494   5.263   5.787   8.504  1.3986 -1.0427 -0.3576
 5645TIP3    H238495   5.237   5.638   8.497 -0.3513 -0.7620 -0.0336
 5646TIP3   OH238496   2.680   1.168   8.089  0.1364  0.1871 -0.3479
 5646TIP3    H138497   2.737   1.225   8.141  0.2933  0.0625 -0.3807
 5646TIP3    H238498   2.659   1.095   8.147  0.0676  0.1989 -0.3582
 5647TIP3   OH238499   3.648   4.617   1.911 -0.1685 -0.2728 -0.6859
 5647TIP3    H138500   3.580   4.650   1.852  0.0802 -0.4546 -1.0788
 5647TIP3    H238501   3.708   4.569   1.854  0.1086 -0.4001 -0.2919
 5648TIP3   OH238502   5.048   6.331   6.985  0.1742  0.2919  0.4983
 5648TIP3    H138503   4.985   6.368   7.047 -0.0856 -0.3562  0.6252
 5648TIP3    H238504   5.131   6.374   7.008 -0.4018  1.9384 -0.3496
 5649TIP3   OH238505   3.219   1.833   7.585  0.0507 -0.0550 -0.9311
 5649TIP3    H138506   3.293   1.784   7.549  0.4965  0.1062 -0.2598
 5649TIP3    H238507   3.157   1.840   7.513  1.3480  1.1410 -1.9728
 5650TIP3   OH238508   3.303   5.714   6.946  0.2572  0.1161  0.0234
 5650TIP3    H138509   3.248   5.687   6.872  1.5829  0.1289 -1.0224
 5650TIP3    H238510   3.353   5.635   6.968 -2.0491 -0.7038  2.7824
 5651TIP3   OH238511   6.745   1.209   8.562 -0.4054 -0.3216 -0.0591
 5651TIP3    H138512   6.663   1.160   8.548  0.0902 -1.1567 -0.1030
 5651TIP3    H238513   6.809   1.142   8.584  0.1133  0.4066  0.6801
 5652TIP3   OH238514   0.070   6.799   1.704  0.5414 -0.2679  0.5434
 5652TIP3    H138515   0.124   6.868   1.666 -1.2848  0.1700 -1.4389
 5652TIP3    H238516   0.109   6.783   1.790  1.8377  2.2710  0.5245
 5653TIP3   OH238517   0.900   4.005   8.121  0.1910  0.1831  0.2814
 5653TIP3    H138518   0.987   4.001   8.080 -0.0619  0.1558 -0.2735
 5653TIP3    H238519   0.841   3.974   8.052 -0.5187  2.2889 -0.1218
 5654TIP3   OH238520   1.016   6.490   6.860 -0.1929 -0.7490  0.2630
 5654TIP3    H138521   1.064   6.507   6.940 -0.4237 -0.3228  0.3155
 5654TIP3    H238522   1.039   6.400   6.836 -0.8457 -1.2061  1.3096
 5655TIP3   OH238523   3.909   5.871   7.969  0.0716  0.6743  0.7483
 5655TIP3    H138524   3.863   5.903   8.046 -0.1411 -1.0426  1.3784
 5655TIP3    H238525   3.843   5.824   7.919  0.9017 -1.0599  1.2132
 5656TIP3   OH238526   6.792   3.988   2.528 -0.0788 -0.2905  0.0157
 5656TIP3    H138527   6.802   3.947   2.614 -1.8737 -1.4195 -0.2573
 5656TIP3    H238528   6.784   3.915   2.467 -0.4046  0.4873 -0.9024
 5657TIP3   OH238529   2.136   5.471   0.032 -0.1892 -0.1038 -0.1388
 5657TIP3    H138530   2.169   5.385   0.056 -1.0990 -0.9314 -1.6667
 5657TIP3    H238531   2.176   5.490  -0.053 -1.1185  0.2978 -0.5089
 5658TIP3   OH238532   1.455   0.824   7.238  0.0123  0.1470 -0.3533
 5658TIP3    H138533   1.370   0.784   7.218 -0.8075  1.3916  0.4789
 5658TIP3    H238534   1.489   0.773   7.312  0.9077 -1.5436 -1.8636
 5659TIP3   OH238535   0.297   5.940   8.394  0.0186 -0.0031  0.2927
 5659TIP3    H138536   0.269   6.031   8.403 -1.2661 -0.2013 -1.2549
 5659TIP3    H238537   0.387   5.940   8.426 -0.0454  1.7551  0.5909
 5660TIP3   OH238538   0.211   2.756   8.471  0.5047 -0.2404  0.1577
 5660TIP3    H138539   0.196   2.830   8.413 -0.3243  0.2371  0.9586
 5660TIP3    H238540   0.253   2.690   8.416 -1.4142 -0.3034 -1.3452
 5661TIP3   OH238541   4.584   2.553   0.580  0.1211  0.6363  0.3348
 5661TIP3    H138542   4.519   2.509   0.526  1.4967 -1.9409  0.6207
 5661TIP3    H238543   4.576   2.511   0.666  1.1854  1.2680  0.7639
 5662TIP3   OH238544   4.604   4.503   7.268 -0.0457 -0.1816  0.1375
 5662TIP3    H138545   4.548   4.457   7.205 -0.3211 -0.3018  0.4677
 5662TIP3    H238546   4.691   4.501   7.228 -0.2740  0.0059 -0.3781
 5663TIP3   OH238547   5.665   1.120   8.335  0.2278 -0.6208  0.2452
 5663TIP3    H138548   5.655   1.172   8.415  1.3201  1.1911 -0.7490
 5663TIP3    H238549   5.711   1.041   8.364 -0.3925 -0.5220  1.5816
 5664TIP3   OH238550   3.423   1.313   1.137  0.7800 -0.3624 -0.1802
 5664TIP3    H138551   3.388   1.350   1.055  1.0243 -0.5195 -0.3582
 5664TIP3    H238552   3.500   1.263   1.109  1.2974  0.1841  0.2363
 5665TIP3   OH238553   0.753   2.062   1.245 -0.3431  0.9687 -0.1000
 5665TIP3    H138554   0.742   2.103   1.159 -0.6008 -0.4654 -0.7714
 5665TIP3    H238555   0.808   1.986   1.228 -1.9252 -0.4026  0.6599
 5666TIP3   OH238556   6.820   6.074   0.158  0.0294  0.4151  0.1930
 5666TIP3    H138557   6.866   6.153   0.129 -0.0513  1.1885  2.0087
 5666TIP3    H238558   6.858   6.003   0.107  1.9368  1.2840  0.3247
 5667TIP3   OH238559   1.089   0.930   0.372  0.3758  0.5819  0.1775
 5667TIP3    H138560   1.118   0.853   0.421  1.5543  1.4469  0.9178
 5667TIP3    H238561   0.996   0.936   0.390  0.0230 -1.2806 -0.7968
 5668TIP3   OH238562   0.913   2.898   1.601 -0.4032  0.4216  0.6135
 5668TIP3    H138563   0.839   2.943   1.560 -0.7184 -0.3431  0.3234
 5668TIP3    H238564   0.891   2.897   1.695 -0.6101  0.4703  0.5665
 5669TIP3   OH238565   3.009   2.131   7.741  0.0835  0.8559  0.1684
 5669TIP3    H138566   3.005   2.225   7.721  0.6405  1.0443  0.9356
 5669TIP3    H238567   2.953   2.091   7.674 -0.5872  1.7792  0.1577
 5670TIP3   OH238568   1.137   5.652   6.833  0.2477  0.0775  0.0878
 5670TIP3    H138569   1.109   5.608   6.914  0.3625 -0.4194 -0.1411
 5670TIP3    H238570   1.065   5.638   6.772  0.1837  0.4115  0.0823
 5671TIP3   OH238571   1.092   5.404   1.583 -0.7297 -0.0574 -0.2825
 5671TIP3    H138572   1.034   5.444   1.648  2.0866  0.2757  2.2754
 5671TIP3    H238573   1.129   5.328   1.628  0.0435 -0.8582 -2.1776
 5672TIP3   OH238574   0.965   1.854   1.183  0.3867 -0.1291 -0.2385
 5672TIP3    H138575   0.979   1.840   1.089  1.3541 -0.6952 -0.0226
 5672TIP3    H238576   0.965   1.766   1.221  0.6274  0.1292  0.3749
 5673TIP3   OH238577   3.226   1.109   8.147 -0.1873  0.7997  0.3135
 5673TIP3    H138578   3.220   1.198   8.112 -2.0015  0.9390  0.8702
 5673TIP3    H238579   3.237   1.122   8.242  0.2948  0.4176  0.3138
 5674TIP3   OH238580   6.238   5.112   1.366 -0.2167 -0.4827  0.1284
 5674TIP3    H138581   6.332   5.098   1.362 -0.3395 -1.5044  0.5817
 5674TIP3    H238582   6.206   5.047   1.429 -1.1232  0.3852  0.6078
 5675TIP3   OH238583   0.718   4.702   0.639 -0.3917 -0.0405 -0.3961
 5675TIP3    H138584   0.651   4.746   0.692 -0.4154  1.3587 -1.5385
 5675TIP3    H238585   0.754   4.771   0.583  1.8833 -0.7998  0.0351
 5676TIP3   OH238586   6.554   3.786   7.619  0.4352 -0.2712 -0.0002
 5676TIP3    H138587   6.527   3.699   7.590  1.3155 -0.2905 -0.8351
 5676TIP3    H238588   6.586   3.828   7.539  0.0476  0.8084  0.4022
 5677TIP3   OH238589   1.694   6.428   7.441 -0.1217 -0.0110 -0.9841
 5677TIP3    H138590   1.601   6.444   7.458 -0.2904 -0.6272 -1.3107
 5677TIP3    H238591   1.739   6.501   7.485 -0.5900 -1.0202  1.2878
 5678TIP3   OH238592   4.848   6.172   2.729 -0.4847  0.2272  0.5989
 5678TIP3    H138593   4.766   6.162   2.682  0.1762 -0.9651 -0.3581
 5678TIP3    H238594   4.892   6.087   2.720  0.0809  0.2534  2.6036
 5679TIP3   OH238595   3.632   4.460   7.662  0.2945 -0.2327 -0.2525
 5679TIP3    H138596   3.572   4.446   7.735 -1.0766 -0.3783 -1.3610
 5679TIP3    H238597   3.657   4.372   7.634  0.6654 -0.1812 -0.0938
 5680TIP3   OH238598   1.482   6.104   0.426  0.3587  0.1855  0.5687
 5680TIP3    H138599   1.437   6.188   0.420 -0.3203 -0.2022  0.1130
 5680TIP3    H238600   1.459   6.071   0.513  2.1152  1.2828  1.5015
 5681TIP3   OH238601   2.325   4.747   1.733  0.4337  1.1020  0.3851
 5681TIP3    H138602   2.366   4.699   1.805  0.0578 -0.4670 -0.3882
 5681TIP3    H238603   2.322   4.684   1.661  1.7251  2.9421 -1.3670
 5682TIP3   OH238604   0.263   0.032   6.647 -0.2185  0.5071  1.0339
 5682TIP3    H138605   0.235   0.030   6.556 -1.4351 -0.2359  1.4087
 5682TIP3    H238606   0.308   0.116   6.656  1.1626  0.0032 -0.5827
 5683TIP3   OH238607   6.782   0.143   0.223  0.2275 -0.6550 -0.2630
 5683TIP3    H138608   6.735   0.182   0.298  1.4079  1.2501 -0.4371
 5683TIP3    H238609   6.755   0.197   0.149  1.5433 -0.4541 -0.6139
 5684TIP3   OH238610   5.901   3.553   1.940  0.6483  0.2355 -0.3408
 5684TIP3    H138611   5.843   3.497   1.990 -0.2730  0.5660 -1.0142
 5684TIP3    H238612   5.984   3.551   1.988 -0.4888  1.3979  1.8092
 5685TIP3   OH238613   2.437   6.183   6.427  0.2726  0.0760 -0.1653
 5685TIP3    H138614   2.342   6.192   6.429  0.4611  2.3967  0.9426
 5685TIP3    H238615   2.456   6.117   6.494 -0.5304 -0.1943 -0.1960
 5686TIP3   OH238616   5.535   5.813   2.127  0.0889  0.6260  0.2718
 5686TIP3    H138617   5.608   5.798   2.187  0.2335  1.0833  0.2200
 5686TIP3    H238618   5.475   5.741   2.143  1.3353 -0.7197 -0.8797
 5687TIP3   OH238619   2.232   6.886   7.906 -0.3021  0.0386  0.2875
 5687TIP3    H138620   2.143   6.896   7.873 -0.2366 -0.3826 -0.0287
 5687TIP3    H238621   2.225   6.818   7.974 -0.0898 -0.6043 -0.3172
 5688TIP3   OH238622   3.171   5.115   6.757  0.6744  0.2320  0.5219
 5688TIP3    H138623   3.079   5.123   6.731  0.8757 -0.0880 -0.3340
 5688TIP3    H238624   3.179   5.027   6.793  0.7915 -0.0085 -0.0740
 5689TIP3   OH238625   5.892   0.158   1.516  0.2081  0.3670  0.1419
 5689TIP3    H138626   5.888   0.254   1.516  0.9457  0.4015  0.2056
 5689TIP3    H238627   5.916   0.135   1.606 -1.8718  0.0155  0.6694
 5690TIP3   OH238628   5.383   3.485   8.593 -0.1903  0.0070  0.6445
 5690TIP3    H138629   5.381   3.490   8.688 -0.7217 -1.2949  0.7219
 5690TIP3    H238630   5.292   3.472   8.568  0.1726 -1.5934  0.0945
 5691TIP3   OH238631   4.541   3.501   8.321  0.1977  0.0579 -0.7613
 5691TIP3    H138632   4.560   3.526   8.412  0.2762 -0.6958 -0.5609
 5691TIP3    H238633   4.616   3.534   8.271  0.1301  0.5210 -0.5613
 5692TIP3   OH238634   2.455   3.566   7.120 -0.3969  0.1040 -0.8021
 5692TIP3    H138635   2.406   3.648   7.113  0.3246  0.6166  0.0195
 5692TIP3    H238636   2.542   3.587   7.085 -0.0433 -0.1559 -0.0909
 5693TIP3   OH238637   5.718   6.521   7.123  0.8579 -0.9722  0.0296
 5693TIP3    H138638   5.770   6.454   7.078 -2.0075 -1.6848 -2.6505
 5693TIP3    H238639   5.650   6.544   7.059 -1.4523  0.6251  2.8375
 5694TIP3   OH238640   2.108   1.196   8.447 -0.3249  0.3013 -0.7206
 5694TIP3    H138641   2.133   1.259   8.515  2.3121 -2.8359  1.5375
 5694TIP3    H238642   2.016   1.215   8.429 -0.8956  1.9915  3.0224
 5695TIP3   OH238643   0.309   4.652   6.541  0.3400  0.1891 -0.0149
 5695TIP3    H138644   0.246   4.587   6.573  0.4304  0.5165  0.8628
 5695TIP3    H238645   0.370   4.664   6.614  1.4136 -0.0918 -0.8273
 5696TIP3   OH238646   1.914   0.923   0.526  0.1835 -0.0130  0.1097
 5696TIP3    H138647   1.864   0.874   0.461  1.8479 -1.3316 -0.2402
 5696TIP3    H238648   1.852   0.989   0.558 -0.9491  0.1836 -2.2105
 5697TIP3   OH238649   0.885   6.680   7.143 -0.2738  0.3119  0.1746
 5697TIP3    H138650   0.924   6.735   7.075  0.4679 -2.7750 -2.1366
 5697TIP3    H238651   0.813   6.635   7.099 -0.3909 -1.0840  1.7052
 5698TIP3   OH238652   0.373   2.889   1.753  0.5470  0.1622  0.5901
 5698TIP3    H138653   0.387   2.869   1.661 -0.8013  2.5827 -0.2091
 5698TIP3    H238654   0.286   2.854   1.772  0.5361  0.2845  0.7649
 5699TIP3   OH238655   4.855   6.483   7.577 -0.5349  0.4167 -0.0065
 5699TIP3    H138656   4.948   6.504   7.582 -0.2612 -0.4702 -0.9532
 5699TIP3    H238657   4.852   6.396   7.538 -1.7706  0.5221 -0.1985
 5700TIP3   OH238658   4.165   5.597   0.238 -0.0240  0.1125 -1.1649
 5700TIP3    H138659   4.136   5.582   0.148 -2.0410 -1.8552 -0.2863
 5700TIP3    H238660   4.185   5.510   0.272  0.7344  0.8213  0.2777
 5701TIP3   OH238661   3.174   5.818   0.524  0.2545 -0.0253 -0.1448
 5701TIP3    H138662   3.121   5.849   0.450  0.1692  0.5996  0.1696
 5701TIP3    H238663   3.264   5.842   0.500  0.3772 -0.9142 -0.5921
 5702TIP3   OH238664   0.499   0.598   2.078 -0.7237  0.2607  0.0699
 5702TIP3    H138665   0.475   0.512   2.113  0.7558 -1.0368 -1.9007
 5702TIP3    H238666   0.475   0.660   2.148  0.0675 -1.9088  2.4287
 5703TIP3   OH238667   4.475   5.449   0.919 -0.1048 -0.4199 -0.2257
 5703TIP3    H138668   4.524   5.377   0.879 -0.9763 -0.7148 -0.7753
 5703TIP3    H238669   4.530   5.526   0.904  1.1654 -1.0376  0.9590
 5704TIP3   OH238670   0.008   1.223   7.764  0.4840 -0.2478  0.0989
 5704TIP3    H138671  -0.046   1.214   7.686  0.8503  3.4603 -0.7521
 5704TIP3    H238672   0.093   1.254   7.732  0.4479  2.0014  1.9246
 5705TIP3   OH238673   3.580   5.615   1.902  0.0648  0.3313 -0.0050
 5705TIP3    H138674   3.638   5.610   1.977 -0.3098 -0.2747  0.2536
 5705TIP3    H238675   3.606   5.541   1.846  0.8108  1.1904 -0.8215
 5706TIP3   OH238676   3.939   3.138   7.365  0.5445 -0.4579  0.2690
 5706TIP3    H138677   3.987   3.221   7.370 -0.8107  0.4671 -1.4113
 5706TIP3    H238678   3.860   3.158   7.316  0.3013 -2.8253 -0.4253
 5707TIP3   OH238679   6.891   2.011   1.746  0.5345  0.4090 -0.3706
 5707TIP3    H138680   6.845   1.966   1.674  2.2365  0.7256 -1.7255
 5707TIP3    H238681   6.983   1.994   1.729  1.0978  2.3394  0.5092
 5708TIP3   OH238682   2.136   2.356   0.914  0.3524 -0.1373 -0.0509
 5708TIP3    H138683   2.085   2.278   0.888  1.0483 -0.7869  0.5009
 5708TIP3    H238684   2.077   2.404   0.972 -0.7562  0.6902 -1.7588
 5709TIP3   OH238685   3.552   1.518   8.091 -0.6960  0.3556  0.1687
 5709TIP3    H138686   3.639   1.516   8.131 -0.0511  0.3917 -1.1962
 5709TIP3    H238687   3.496   1.470   8.153  0.8085 -1.9785 -0.1577
 5710TIP3   OH238688   6.445   5.935   6.411  0.0394  0.5738  0.2426
 5710TIP3    H138689   6.368   5.991   6.424 -0.1116  0.3384  0.3721
 5710TIP3    H238690   6.413   5.846   6.427  0.3991  0.4972  0.5695
 5711TIP3   OH238691   3.155   5.075   8.616  0.3536 -0.3070  0.0514
 5711TIP3    H138692   3.062   5.094   8.600  0.3148 -1.6658 -1.5599
 5711TIP3    H238693   3.155   5.025   8.698  0.0226  2.2624  1.7557
 5712TIP3   OH238694   6.028   2.873   2.364 -0.3404  0.0036 -0.6220
 5712TIP3    H138695   5.955   2.909   2.414 -0.0580 -0.5088  0.1808
 5712TIP3    H238696   6.086   2.948   2.351 -1.4183  0.6230 -2.0656
 5713TIP3   OH238697   6.756   1.820   2.226  0.3023  0.1125 -0.4761
 5713TIP3    H138698   6.753   1.916   2.225 -0.0445  0.1005 -0.6732
 5713TIP3    H238699   6.703   1.794   2.151  0.2000 -0.2406 -0.2816
 5714TIP3   OH238700   6.337   1.499   8.572  0.1157 -0.4170  0.0923
 5714TIP3    H138701   6.425   1.524   8.542 -0.2523  1.2788  0.3372
 5714TIP3    H238702   6.331   1.534   8.661 -0.8875 -0.3254 -0.0036
 5715TIP3   OH238703   6.280   4.871   6.110  0.4840  0.2291 -0.0389
 5715TIP3    H138704   6.214   4.901   6.047  1.6377  0.8659 -1.0011
 5715TIP3    H238705   6.234   4.809   6.166 -0.6773 -0.1232 -1.3246
 5716TIP3   OH238706   4.019   4.210   1.660  0.4133 -0.1472  0.2242
 5716TIP3    H138707   3.978   4.267   1.594 -0.0131  0.5340  1.0596
 5716TIP3    H238708   4.113   4.214   1.640  0.2675 -0.1389 -0.4830
 5717TIP3   OH238709   0.147   1.402   0.713  0.3073  0.6002 -0.3681
 5717TIP3    H138710   0.194   1.476   0.674  0.6676  0.3456 -0.4246
 5717TIP3    H238711   0.209   1.366   0.777  0.6894 -0.5260 -1.3329
 5718TIP3   OH238712   1.082   4.944   7.584 -0.6945 -0.5033 -0.2098
 5718TIP3    H138713   1.126   4.931   7.500 -0.7966 -0.1753 -0.3176
 5718TIP3    H238714   1.151   4.970   7.644 -0.4537 -1.7033  0.0584
 5719TIP3   OH238715   1.342   0.599   2.140 -0.1864 -0.0647 -0.2523
 5719TIP3    H138716   1.423   0.628   2.181 -0.6858  1.6041 -0.3706
 5719TIP3    H238717   1.354   0.505   2.126  0.7440 -0.3335  1.9699
 5720TIP3   OH238718   4.952   1.193   0.335 -0.0365  0.6240  0.0454
 5720TIP3    H138719   4.911   1.120   0.383  0.3266  0.2427 -0.2195
 5720TIP3    H238720   4.994   1.245   0.403  0.0949  0.3325  0.1904
 5721TIP3   OH238721   2.323   6.579   0.099 -0.4728 -0.2842  0.1756
 5721TIP3    H138722   2.276   6.558   0.179  2.2532  0.3968  2.0768
 5721TIP3    H238723   2.330   6.495   0.053 -0.7911 -0.9871  1.3815
 5722TIP3   OH238724   3.597   5.522   7.998  0.2752  0.2211 -0.0450
 5722TIP3    H138725   3.648   5.525   7.917  1.4874 -0.3365  0.6810
 5722TIP3    H238726   3.514   5.482   7.972  0.6754 -0.0241 -0.9936
 5723TIP3   OH238727   3.781   4.507   0.151  0.0163  0.1953 -0.9651
 5723TIP3    H138728   3.713   4.452   0.190 -1.1405  1.8354 -0.5751
 5723TIP3    H238729   3.768   4.498   0.057  0.7702 -1.2819 -0.9549
 5724TIP3   OH238730   1.494   1.199   1.461  0.0531  0.0287  0.1972
 5724TIP3    H138731   1.515   1.109   1.436  2.0556  1.2529 -3.1679
 5724TIP3    H238732   1.543   1.214   1.541  0.7515 -1.4686  0.0901
 5725TIP3   OH238733   0.673   3.224   2.321 -0.6045  0.8854 -0.2897
 5725TIP3    H138734   0.622   3.168   2.379  1.5225  0.1107  0.9576
 5725TIP3    H238735   0.654   3.313   2.350 -0.9158  0.5937  0.4285
 5726TIP3   OH238736   1.217   4.662   7.957  0.5789  0.4308  0.0663
 5726TIP3    H138737   1.302   4.641   7.916 -1.1467 -1.0823 -3.0940
 5726TIP3    H238738   1.194   4.583   8.006  1.6908  1.4972  2.4821
 5727TIP3   OH238739   4.598   4.910   0.970  0.0391 -0.6085  0.1702
 5727TIP3    H138740   4.520   4.915   1.026  1.0422 -0.0013  1.5858
 5727TIP3    H238741   4.567   4.932   0.883 -1.2428  0.4294  0.8532
 5728TIP3   OH238742   6.381   6.363   0.111 -0.1505  0.1162 -0.2271
 5728TIP3    H138743   6.445   6.423   0.149  0.0813 -0.3796  0.1870
 5728TIP3    H238744   6.416   6.276   0.131 -0.6877 -0.1566 -0.4580
 5729TIP3   OH238745   6.119   0.777   1.143  0.3002 -0.2781 -0.5548
 5729TIP3    H138746   6.193   0.732   1.102 -0.2502  0.8104 -2.9190
 5729TIP3    H238747   6.043   0.725   1.119 -0.0279  0.3141 -0.8093
 5730TIP3   OH238748   1.390   1.254   6.530 -0.0135  0.1498 -0.6707
 5730TIP3    H138749   1.303   1.285   6.557  0.3739 -0.0408  0.8749
 5730TIP3    H238750   1.382   1.158   6.529  0.5389  0.0609  0.8747
 5731TIP3   OH238751   4.752   6.722   1.046  0.2125  0.2861  0.5905
 5731TIP3    H138752   4.813   6.664   1.093 -0.3792 -0.8075  0.0508
 5731TIP3    H238753   4.677   6.666   1.025  0.4280  0.7257 -1.6312
 5732TIP3   OH238754   0.914   4.033   0.948  0.2773 -0.0649 -0.1121
 5732TIP3    H138755   0.918   3.967   0.879 -1.0511  0.3699 -0.6126
 5732TIP3    H238756   0.878   3.986   1.023 -0.8680  0.1237 -0.5297
 5733TIP3   OH238757   2.187   0.708   7.892  0.2871 -0.1156  0.0204
 5733TIP3    H138758   2.177   0.640   7.959  0.3397 -0.0748  0.0688
 5733TIP3    H238759   2.163   0.664   7.810 -1.2802  0.2378  0.2512
 5734TIP3   OH238760   5.719   1.127   2.226 -0.0589  0.5160 -0.3438
 5734TIP3    H138761   5.728   1.130   2.322  1.3425 -0.2119 -0.4334
 5734TIP3    H238762   5.709   1.218   2.200 -0.0013  0.7578  0.4494
 5735TIP3   OH238763   6.157   5.411   7.420 -0.2974  0.1755 -0.2103
 5735TIP3    H138764   6.074   5.383   7.459  0.2264 -0.4320  0.5219
 5735TIP3    H238765   6.149   5.389   7.328 -0.9239  0.0500 -0.1312
 5736TIP3   OH238766   1.353   4.508   7.499  0.1120 -0.3964 -0.1030
 5736TIP3    H138767   1.280   4.459   7.537  0.0040 -0.3392 -0.2343
 5736TIP3    H238768   1.311   4.572   7.442  0.2919 -0.7853 -0.6819
 5737TIP3   OH238769   0.333   0.334   7.428  0.1570  0.4029 -0.2311
 5737TIP3    H138770   0.274   0.260   7.436 -0.2626  0.8885  1.6064
 5737TIP3    H238771   0.287   0.395   7.370  0.4672 -0.6860 -1.6810
 5738TIP3   OH238772   5.551   2.705   8.093 -0.1078 -0.0060 -0.3844
 5738TIP3    H138773   5.573   2.780   8.148 -1.3014  0.6613 -0.7723
 5738TIP3    H238774   5.458   2.689   8.109 -0.2215 -0.4694 -1.3854
 5739TIP3   OH238775   4.502   3.599   7.819 -0.2163 -0.1247  0.4326
 5739TIP3    H138776   4.552   3.602   7.737 -0.6594 -0.0668  0.1616
 5739TIP3    H238777   4.547   3.661   7.877 -0.4203  0.5014 -0.0650
 5740TIP3   OH238778   6.320   6.543   0.778 -0.2518  0.4238  0.3435
 5740TIP3    H138779   6.280   6.464   0.741 -2.1793  0.2349  2.6107
 5740TIP3    H238780   6.268   6.615   0.742  0.2933  0.5621 -0.2050
 5741TIP3   OH238781   3.742   6.664   2.147  0.1697 -0.0314 -0.1337
 5741TIP3    H138782   3.745   6.757   2.172 -0.2109  0.2396 -1.0399
 5741TIP3    H238783   3.685   6.623   2.212  0.0614  0.4394  0.0755
 5742TIP3   OH238784   2.359   4.631   1.467 -0.9855  0.4258  0.6006
 5742TIP3    H138785   2.449   4.623   1.499 -1.5598  1.7490  2.7404
 5742TIP3    H238786   2.340   4.546   1.427  0.9873 -0.0966  0.6852
 5743TIP3   OH238787   6.226   5.337   7.752 -0.1225  0.1109  0.4401
 5743TIP3    H138788   6.258   5.417   7.793 -0.6423  0.6057 -0.0931
 5743TIP3    H238789   6.261   5.341   7.663  0.8024 -0.8345  0.7405
 5744TIP3   OH238790   3.706   2.519   7.342 -0.7345  0.2165  0.0879
 5744TIP3    H138791   3.782   2.540   7.289  0.0347 -0.9881  0.6902
 5744TIP3    H238792   3.686   2.601   7.388 -1.1529  1.1522 -1.6744
 5745TIP3   OH238793   4.673   5.014   7.330  0.1199  1.0934  0.1476
 5745TIP3    H138794   4.756   5.048   7.362 -0.3341  1.3835  1.0479
 5745TIP3    H238795   4.625   4.990   7.409 -1.0070  1.7557 -0.3217
 5746TIP3   OH238796   1.377   4.178   1.824 -0.0791 -0.1206  0.7443
 5746TIP3    H138797   1.383   4.270   1.797  0.0537  0.3156  2.1736
 5746TIP3    H238798   1.351   4.131   1.744  2.2728  0.7857 -0.6622
 5747TIP3   OH238799   4.736   1.116   7.149 -0.8359  0.7250  0.1910
 5747TIP3    H138800   4.828   1.141   7.155 -0.2174 -0.3528 -3.0431
 5747TIP3    H238801   4.735   1.022   7.164 -0.7855  0.0881 -3.0702
 5748TIP3   OH238802   2.926   5.626   1.828 -0.4557  0.3661  0.2331
 5748TIP3    H138803   2.881   5.630   1.913  0.0916 -1.8778  0.7176
 5748TIP3    H238804   3.008   5.581   1.847 -0.0858  0.2834 -1.4094
 5749TIP3   OH238805   2.491   3.780   0.288 -0.3911 -0.1889 -0.0589
 5749TIP3    H138806   2.564   3.780   0.226 -0.8039 -1.1004 -0.5637
 5749TIP3    H238807   2.462   3.689   0.291 -0.7622 -0.0541  1.0377
 5750TIP3   OH238808   3.230   1.122   1.526 -0.0702 -0.5129 -0.1633
 5750TIP3    H138809   3.325   1.136   1.529  0.1772 -1.9549 -0.5848
 5750TIP3    H238810   3.200   1.175   1.453  0.6577 -1.2663 -1.0227
 5751TIP3   OH238811   4.029   4.354   0.536 -0.1749  0.5320  0.0573
 5751TIP3    H138812   4.113   4.337   0.578 -0.7853  0.9821  1.5151
 5751TIP3    H238813   4.050   4.365   0.443  1.7495  2.9887  0.6733
 5752TIP3   OH238814   0.005   6.491   7.846  0.5403  0.1148  0.0813
 5752TIP3    H138815  -0.086   6.472   7.866 -0.5612  0.9539 -3.5011
 5752TIP3    H238816   0.033   6.420   7.789  1.2289  1.2155 -1.0001
 5753TIP3   OH238817   3.880   6.082   1.250 -0.1037 -0.4735 -0.2610
 5753TIP3    H138818   3.939   6.054   1.320  0.8801  0.4462 -0.6943
 5753TIP3    H238819   3.883   6.178   1.253 -1.3855 -0.4193 -0.4610
 5754TIP3   OH238820   1.372   3.847   0.735 -0.5115 -0.6513 -0.6227
 5754TIP3    H138821   1.325   3.872   0.814 -0.1981 -2.5965  0.2521
 5754TIP3    H238822   1.441   3.912   0.725  1.2967 -1.9285  2.4090
 5755TIP3   OH238823   3.930   2.829   6.783 -0.0759  0.8533  0.0136
 5755TIP3    H138824   3.839   2.800   6.785 -0.5387  2.2908  0.3942
 5755TIP3    H238825   3.926   2.923   6.798  1.6223  0.6492  2.2139
 5756TIP3   OH238826   6.373   4.005   7.017 -0.2436 -0.2131  0.2247
 5756TIP3    H138827   6.345   3.951   7.091  1.5199 -1.3876  0.1064
 5756TIP3    H238828   6.345   3.957   6.940  0.0184 -0.2132  0.1278
 5757TIP3   OH238829   2.301   2.804   7.842 -0.1452 -0.3240  0.1836
 5757TIP3    H138830   2.254   2.868   7.895 -0.8254 -1.4297  0.9837
 5757TIP3    H238831   2.362   2.762   7.904  0.1186 -0.6008 -0.2580
 5758TIP3   OH238832   0.928   0.831   0.848  0.2781  0.2869  0.0152
 5758TIP3    H138833   0.948   0.740   0.868  0.3574  0.4314  0.5987
 5758TIP3    H238834   0.999   0.881   0.888 -1.5508  0.8695  2.7861
 5759TIP3   OH238835   3.826   4.700   0.731 -0.5845 -0.6849  0.0586
 5759TIP3    H138836   3.915   4.706   0.698 -0.2819 -2.2914  0.5010
 5759TIP3    H238837   3.771   4.700   0.652 -0.3084  1.4238 -0.1792
 5760TIP3   OH238838   5.712   2.745   0.570 -0.1225 -0.4679  0.2591
 5760TIP3    H138839   5.739   2.686   0.640  0.3729  1.7455  2.0461
 5760TIP3    H238840   5.793   2.764   0.522  0.3484  1.0798  1.5881
 5761TIP3   OH238841   1.121   4.423   7.596 -0.1167 -0.1616  0.4780
 5761TIP3    H138842   1.074   4.498   7.633 -0.4906  0.7813 -1.7684
 5761TIP3    H238843   1.146   4.371   7.672 -0.9582  1.5812  2.0262
 5762TIP3   OH238844   6.399   0.777   8.519 -0.3938  0.8371 -0.0019
 5762TIP3    H138845   6.317   0.738   8.488 -0.2024  0.7477 -0.3957
 5762TIP3    H238846   6.467   0.732   8.469  0.1765 -1.3933  2.5289
 5763TIP3   OH238847   1.938   2.160   7.546 -0.2003  0.8499  0.0322
 5763TIP3    H138848   1.933   2.088   7.608  0.3032  1.5682  0.9340
 5763TIP3    H238849   1.966   2.120   7.464  1.6190  0.2208  0.9127
 5764TIP3   OH238850   6.260   0.693   7.360 -0.2126 -0.4096  0.0054
 5764TIP3    H138851   6.275   0.614   7.309 -3.9595 -1.5897  0.4181
 5764TIP3    H238852   6.288   0.670   7.449  0.3248 -0.6169 -0.2133
 5765TIP3   OH238853   4.056   2.695   7.449  0.7704 -0.2728 -0.0338
 5765TIP3    H138854   4.066   2.618   7.505  1.7683 -0.0288  0.1463
 5765TIP3    H238855   3.984   2.673   7.390  1.5670 -1.6815 -0.5233
 5766TIP3   OH238856   4.210   1.897   0.666  0.6062  0.2548  0.6109
 5766TIP3    H138857   4.166   1.947   0.735  1.7065  0.5629  1.1172
 5766TIP3    H238858   4.194   1.806   0.688  1.5828  0.3334  1.7292
 5767TIP3   OH238859   6.846   2.123   0.533  0.3022  0.0292 -0.2201
 5767TIP3    H138860   6.757   2.109   0.502  0.2115  0.6452 -0.2618
 5767TIP3    H238861   6.854   2.070   0.612 -0.3717  0.6060  0.2439
 5768TIP3   OH238862   2.621   4.075   0.987  0.7050  0.2982  0.0876
 5768TIP3    H138863   2.606   4.166   0.960 -1.1145  0.0862  0.2925
 5768TIP3    H238864   2.687   4.082   1.057 -0.5374  1.6491  1.1982
 5769TIP3   OH238865   4.711   1.637   7.230  0.5638 -0.4950 -0.0755
 5769TIP3    H138866   4.762   1.561   7.204 -0.9217 -1.5374 -0.1012
 5769TIP3    H238867   4.766   1.713   7.209  1.4860 -1.5052 -1.3984
 5770TIP3   OH238868   3.428   5.823   0.142  0.3699 -0.5539 -0.0485
 5770TIP3    H138869   3.406   5.730   0.153 -1.4718  0.0805  2.4278
 5770TIP3    H238870   3.523   5.826   0.153  0.6575 -2.2611 -1.5321
 5771TIP3   OH238871   1.922   6.637   6.915  0.1492  0.4266 -0.2586
 5771TIP3    H138872   1.995   6.697   6.927 -0.0964  0.9286 -1.2319
 5771TIP3    H238873   1.927   6.610   6.824  0.1711 -0.9406  0.1184
 5772TIP3   OH238874   5.706   0.264   0.840  0.3559  0.2805  0.4375
 5772TIP3    H138875   5.710   0.277   0.935 -0.1069  1.4484  0.3030
 5772TIP3    H238876   5.664   0.342   0.806 -0.7782 -0.7427 -0.6132
 5773TIP3   OH238877   1.152   1.466   7.280  0.0358 -0.0249  0.3084
 5773TIP3    H138878   1.153   1.446   7.187  0.3727 -0.0380  0.3135
 5773TIP3    H238879   1.116   1.387   7.321  0.6609 -0.3367  0.2625
 5774TIP3   OH238880   5.151   0.088   1.412  0.1501  0.3168 -0.1044
 5774TIP3    H138881   5.126   0.092   1.320 -1.4225 -0.6510  0.2533
 5774TIP3    H238882   5.074   0.054   1.457  1.0426  0.3310  1.5168
 5775TIP3   OH238883   4.325   0.493   1.874 -0.6686  0.0855  0.2155
 5775TIP3    H138884   4.367   0.579   1.864 -0.4601  0.0453  0.7038
 5775TIP3    H238885   4.399   0.432   1.878 -0.8065 -0.0741  0.2863
 5776TIP3   OH238886   5.741   1.162   7.158 -0.7344 -0.5293  0.5427
 5776TIP3    H138887   5.690   1.163   7.077  0.8838  1.4283 -0.5388
 5776TIP3    H238888   5.713   1.240   7.206 -0.6259 -0.8724  1.1832
 5777TIP3   OH238889   3.294   2.835   1.927  0.0820 -0.4354 -0.0058
 5777TIP3    H138890   3.292   2.928   1.905  1.1424 -0.6866 -1.3841
 5777TIP3    H238891   3.379   2.822   1.970  0.2711 -0.8745 -0.4919
 5778TIP3   OH238892   1.563   2.078   1.357 -0.4174  0.1243 -0.2051
 5778TIP3    H138893   1.592   2.165   1.385 -2.3711  0.2356  1.6816
 5778TIP3    H238894   1.472   2.090   1.330 -0.2581 -1.0859 -1.4338
 5779TIP3   OH238895   2.937   0.352   0.579 -0.6708 -0.0356  0.1197
 5779TIP3    H138896   2.943   0.294   0.655  1.1422  1.2272  1.0180
 5779TIP3    H238897   2.979   0.304   0.508  0.8993  0.1685  0.8781
 5780TIP3   OH238898   6.238   0.368   1.190 -0.3740  0.4860  0.1394
 5780TIP3    H138899   6.248   0.304   1.261 -0.1997  0.2901 -0.0605
 5780TIP3    H238900   6.240   0.316   1.110  0.9323  0.8585 -0.0816
 5781TIP3   OH238901   3.044   3.020   8.207 -0.2161 -0.3305 -0.9201
 5781TIP3    H138902   3.117   3.030   8.268 -0.3755 -1.1617 -0.5835
 5781TIP3    H238903   3.085   3.001   8.123 -0.0047  0.5698 -1.0352
 5782TIP3   OH238904   3.328   4.857   2.251  0.1510  0.2814  0.4346
 5782TIP3    H138905   3.305   4.903   2.331  0.2442 -1.2570  1.3976
 5782TIP3    H238906   3.256   4.795   2.238 -0.0278  0.7376 -0.8678
 5783TIP3   OH238907   0.059   3.625   7.534  0.2057  0.0895 -0.7644
 5783TIP3    H138908   0.055   3.556   7.468 -0.6227 -2.5091  1.8037
 5783TIP3    H238909   0.152   3.648   7.538  0.2177  0.7274 -3.0970
 5784TIP3   OH238910   3.145   2.035   7.979  0.0752  0.2202  0.1067
 5784TIP3    H138911   3.138   2.095   7.905 -0.3456  0.5434  0.4007
 5784TIP3    H238912   3.236   2.042   8.007  0.0283  0.7354  0.1437
 5785TIP3   OH238913   2.892   3.135   2.168 -0.0224  0.1689  0.1917
 5785TIP3    H138914   2.835   3.058   2.173  0.0275  0.2019  2.1787
 5785TIP3    H238915   2.853   3.197   2.230  0.4294  1.4141 -0.7364
 5786TIP3   OH238916   6.799   0.442   1.856 -0.5655 -0.4283  0.3089
 5786TIP3    H138917   6.759   0.382   1.919 -0.1665 -0.3440  0.6428
 5786TIP3    H238918   6.879   0.471   1.898 -0.5801  0.0694 -0.0009
 5787TIP3   OH238919   4.950   3.853   0.944  0.4001  0.3212 -0.1958
 5787TIP3    H138920   4.867   3.874   0.986  0.9989  1.6010  0.4016
 5787TIP3    H238921   5.016   3.867   1.012  1.1020 -1.0466 -0.5358
 5788TIP3   OH238922   5.550   2.632   1.755  0.3723  0.5781 -0.1798
 5788TIP3    H138923   5.478   2.598   1.703 -1.0095  0.2179  1.8521
 5788TIP3    H238924   5.524   2.721   1.778  0.6584  0.5179  0.4140
 5789TIP3   OH238925   4.821   3.842   0.581 -0.1151  0.1864  0.3249
 5789TIP3    H138926   4.795   3.816   0.492 -0.2359 -1.0018  0.6952
 5789TIP3    H238927   4.760   3.796   0.638  1.1459 -0.5767  1.1008
 5790TIP3   OH238928   3.651   6.892   2.265 -0.2008  0.0346 -0.1862
 5790TIP3    H138929   3.629   6.985   2.275 -0.4828  0.0431 -0.8900
 5790TIP3    H238930   3.586   6.846   2.318  0.6082  0.2886  1.0736
 5791TIP3   OH238931   4.779   1.888   7.574  0.5224 -0.2020 -0.5194
 5791TIP3    H138932   4.762   1.893   7.480  4.8849  2.3583 -1.4803
 5791TIP3    H238933   4.711   1.941   7.614 -0.2484  0.3815 -2.4929
 5792TIP3   OH238934   3.428   1.395   7.341  0.6976 -0.2052 -0.1954
 5792TIP3    H138935   3.362   1.327   7.327  0.7180 -0.0291 -1.2275
 5792TIP3    H238936   3.406   1.463   7.278  0.6698  0.7702  0.8300
 5793TIP3   OH238937   6.347   2.942   1.710  0.1610  0.1506  0.4856
 5793TIP3    H138938   6.269   2.969   1.757 -0.7252 -0.9585 -0.2867
 5793TIP3    H238939   6.411   2.920   1.778 -0.3040  0.7739  1.1265
 5794TIP3   OH238940   4.265   1.179   1.761 -0.2794  0.4684  0.2821
 5794TIP3    H138941   4.304   1.266   1.755  0.1355  0.2622 -0.0083
 5794TIP3    H238942   4.294   1.133   1.682  0.9488 -0.5246  1.2796
 5795TIP3   OH238943   5.920   1.936   8.234 -0.2054 -0.1186 -0.4049
 5795TIP3    H138944   5.985   1.981   8.180  1.0697  0.3345  1.4151
 5795TIP3    H238945   5.853   2.002   8.250  0.2237  0.2674 -0.1350
 5796TIP3   OH238946   3.686   4.077   0.200  0.0873 -0.1529 -0.0368
 5796TIP3    H138947   3.681   4.165   0.238  0.3487 -0.0191 -0.3074
 5796TIP3    H238948   3.595   4.047   0.197  0.1925 -0.9686  2.5036
 5797TIP3   OH238949   5.796   6.856   2.262  0.3536 -0.2022 -0.5464
 5797TIP3    H138950   5.838   6.883   2.180  0.2648  0.6526 -0.3234
 5797TIP3    H238951   5.759   6.770   2.243 -1.4367  0.8265 -2.0386
 5798TIP3   OH238952   1.575   4.660   6.951 -0.0498  0.1857  0.1835
 5798TIP3    H138953   1.664   4.657   6.916 -0.1935 -0.1625 -0.1579
 5798TIP3    H238954   1.529   4.723   6.894  0.2819  1.2884  1.0900
 5799TIP3   OH238955   6.113   3.726   0.733 -0.4630  0.1291  0.0638
 5799TIP3    H138956   6.019   3.732   0.745 -0.4812 -0.2342  0.1417
 5799TIP3    H238957   6.130   3.763   0.647 -0.7394 -0.2564 -0.1584
 5800TIP3   OH238958   6.432   2.229   8.156 -0.2141 -0.6984  0.5889
 5800TIP3    H138959   6.428   2.265   8.244  0.5737  2.3339 -0.4997
 5800TIP3    H238960   6.525   2.234   8.132 -0.5644 -0.4041 -0.7945
 5801TIP3   OH238961   1.038   2.332   1.311 -0.1493  0.5949  0.6106
 5801TIP3    H138962   0.955   2.369   1.341 -0.3247  0.7235 -0.0324
 5801TIP3    H238963   1.033   2.240   1.337 -0.6231  0.5304  0.3028
 5802TIP3   OH238964   6.259   2.301   2.114  0.3963  0.3412  0.3234
 5802TIP3    H138965   6.212   2.384   2.106  0.6697  0.3872 -0.9949
 5802TIP3    H238966   6.193   2.239   2.146  0.0712  0.9541  0.8578
 5803TIP3   OH238967   1.020   0.084   7.956 -0.1219  0.0960  0.4261
 5803TIP3    H138968   1.001   0.005   7.906 -0.5529  0.7519 -0.4994
 5803TIP3    H238969   1.020   0.057   8.047  0.5217 -1.1189  0.0782
 5804TIP3   OH238970   3.092   1.418   8.327 -0.2201  0.8678  0.6365
 5804TIP3    H138971   3.079   1.373   8.244 -1.4590 -0.3905  1.4668
 5804TIP3    H238972   3.028   1.489   8.326  0.8245  1.8455 -0.1019
 5805TIP3   OH238973   1.126   2.371   8.281  0.1829 -0.3422  1.2054
 5805TIP3    H138974   1.041   2.398   8.244 -0.7153 -1.0841  2.6275
 5805TIP3    H238975   1.161   2.451   8.321  0.4712  0.1168  0.0707
 5806TIP3   OH238976   2.818   2.824   6.703 -0.0395  0.1323 -0.4550
 5806TIP3    H138977   2.835   2.889   6.635  1.4288  1.4653  1.0889
 5806TIP3    H238978   2.755   2.763   6.664  0.4773  1.0448 -2.8378
 5807TIP3   OH238979   5.067   6.682   6.766 -0.2936  0.0936 -0.9785
 5807TIP3    H138980   5.159   6.658   6.779 -0.5346  0.2942  1.6498
 5807TIP3    H238981   5.028   6.607   6.723  0.9295 -0.3133 -1.4232
 5808TIP3   OH238982   0.811   3.004   7.124  0.7262 -1.2532  0.3770
 5808TIP3    H138983   0.874   2.962   7.065 -0.3221 -1.4226 -0.6642
 5808TIP3    H238984   0.734   3.018   7.069 -0.1187 -0.9992  1.6085
 5809TIP3   OH238985   5.522   6.177   6.469  0.1966 -0.0030 -0.0785
 5809TIP3    H138986   5.458   6.242   6.499 -1.2642 -0.7970 -1.3045
 5809TIP3    H238987   5.495   6.096   6.511  1.3289 -0.0727  0.5533
 5810TIP3   OH238988   3.721   1.078   2.358 -0.2058  0.2293  0.0511
 5810TIP3    H138989   3.709   1.006   2.297  0.2042  1.1463 -1.1657
 5810TIP3    H238990   3.815   1.078   2.377 -0.2182  0.3802  0.1174
 5811TIP3   OH238991   4.484   2.963   1.644  0.0448 -0.2358  0.0512
 5811TIP3    H138992   4.532   2.974   1.562 -0.7506  2.0551 -0.1557
 5811TIP3    H238993   4.466   2.869   1.647 -0.8936 -0.2779 -2.9907
 5812TIP3   OH238994   6.406   6.880   0.766  0.8352 -0.1121  0.3577
 5812TIP3    H138995   6.327   6.826   0.752  0.1800  1.2738 -1.8508
 5812TIP3    H238996   6.391   6.958   0.712  1.4540  2.6802  3.8543
 5813TIP3   OH238997   6.743   4.820   1.647 -0.0188 -0.2405  0.2610
 5813TIP3    H138998   6.764   4.769   1.726 -0.9692  0.2026  0.8161
 5813TIP3    H238999   6.805   4.892   1.648  1.3248 -1.3518 -0.5149
 5814TIP3   OH239000   0.137   5.677   1.428 -0.4082  0.2718  0.4034
 5814TIP3    H139001   0.113   5.768   1.406 -0.6736  1.3047  4.2746
 5814TIP3    H239002   0.233   5.679   1.435 -0.2545 -0.2502 -1.1596
 5815TIP3   OH239003   6.595   5.931   7.265 -0.0023 -0.1417  0.1652
 5815TIP3    H139004   6.666   5.903   7.322 -0.4776 -1.6492  0.0641
 5815TIP3    H239005   6.549   5.850   7.242 -1.0424  0.6626 -0.7171
 5816TIP3   OH239006   3.459   3.989   7.622  0.0517  0.4688  0.3492
 5816TIP3    H139007   3.425   4.078   7.630 -1.9174 -0.0966 -1.0104
 5816TIP3    H239008   3.440   3.948   7.706 -1.1372  0.6861  0.1966
 5817TIP3   OH239009   4.331   6.886   7.052 -0.5252 -0.2922 -0.0770
 5817TIP3    H139010   4.316   6.960   6.993 -1.3216 -0.6258 -0.3005
 5817TIP3    H239011   4.262   6.824   7.031 -0.5918 -0.5829  0.9454
 5818TIP3   OH239012   2.545   4.546   1.645 -0.6805 -0.1299 -0.7323
 5818TIP3    H139013   2.527   4.492   1.722  2.4284 -1.0876 -0.5391
 5818TIP3    H239014   2.562   4.634   1.680  2.2181 -0.8714  0.0036
 5819TIP3   OH239015   2.624   0.960   7.568  0.0074 -0.4694  0.2276
 5819TIP3    H139016   2.621   0.987   7.660 -0.6637  0.3957 -0.0365
 5819TIP3    H239017   2.699   1.009   7.532 -0.8381  0.6199 -0.1056
 5820TIP3   OH239018   1.825   1.926   0.291  0.0175  0.0161  0.2425
 5820TIP3    H139019   1.786   2.014   0.290  1.7730  0.8513 -0.2364
 5820TIP3    H239020   1.774   1.878   0.356 -1.1942  1.2878  0.2962
 5821TIP3   OH239021   0.081   2.229   8.386 -0.0373  0.1488 -0.0469
 5821TIP3    H139022   0.027   2.268   8.455  2.2620  2.8160  0.3931
 5821TIP3    H239023   0.158   2.195   8.432  0.2479 -0.5879 -1.0294
 5822TIP3   OH239024   2.923   0.384   7.379  0.2460  0.0201 -0.0233
 5822TIP3    H139025   2.982   0.330   7.327 -0.3721 -0.8637  0.1547
 5822TIP3    H239026   2.958   0.379   7.468  0.8033  0.8107 -0.1916
 5823TIP3   OH239027   1.133   0.314   7.569  0.1180  0.0850  0.0550
 5823TIP3    H139028   1.185   0.394   7.571  1.8368 -0.9931  0.2122
 5823TIP3    H239029   1.169   0.259   7.638 -0.2906 -1.2742 -0.7767
 5824TIP3   OH239030   0.957   0.074   8.231 -0.1594 -0.0799  0.1758
 5824TIP3    H139031   0.867   0.081   8.198 -0.2446 -2.5006 -0.2510
 5824TIP3    H239032   0.964   0.144   8.295 -1.7054  1.4015 -1.1608
 5825TIP3   OH239033   2.377   6.792   7.354  0.0497 -0.8102  0.3307
 5825TIP3    H139034   2.338   6.857   7.296 -3.0110 -0.4306  2.5541
 5825TIP3    H239035   2.419   6.843   7.423  2.1454 -1.2646 -0.5352
 5826TIP3   OH239036   1.264   0.050   1.746  0.6077  0.0557 -0.1093
 5826TIP3    H139037   1.326   0.071   1.817 -1.0745 -0.6132  1.6439
 5826TIP3    H239038   1.260  -0.045   1.746  0.1250  0.0714 -0.7201
 5827TIP3   OH239039   0.316   4.726   0.114 -0.1411 -0.0838  0.0079
 5827TIP3    H139040   0.342   4.808   0.157  0.5408  0.2184 -0.9393
 5827TIP3    H239041   0.229   4.744   0.078 -0.7898 -0.3954  1.3768
 5828TIP3   OH239042   6.354   2.568   1.296 -0.2082 -0.1813 -0.2860
 5828TIP3    H139043   6.358   2.663   1.303  0.6610 -0.1901 -0.5799
 5828TIP3    H239044   6.305   2.551   1.215 -0.6466  0.0035 -0.0639
 5829TIP3   OH239045   2.027   6.818   7.155  0.5093 -0.0601 -0.4373
 5829TIP3    H139046   1.976   6.868   7.092  1.3396  1.7112  0.2423
 5829TIP3    H239047   2.108   6.795   7.108  1.3437  1.6759  0.0570
 5830TIP3   OH239048   1.112   3.858   1.677  0.0431  0.0380 -0.1235
 5830TIP3    H139049   1.073   3.946   1.681  0.3758  0.1519  1.9812
 5830TIP3    H239050   1.037   3.800   1.664 -0.6299  0.4327  1.6472
 5831TIP3   OH239051   5.378   3.598   0.252  0.0553 -0.0207 -0.4068
 5831TIP3    H139052   5.451   3.644   0.293  0.3508 -0.0097 -0.9434
 5831TIP3    H239053   5.402   3.506   0.256 -0.1459 -0.0626 -0.1086
 5832TIP3   OH239054   1.284   5.586   8.423 -0.0693 -0.0275  0.0511
 5832TIP3    H139055   1.323   5.499   8.426 -0.1735 -0.2360 -2.4323
 5832TIP3    H239056   1.324   5.633   8.496 -1.0671 -2.5265  2.3562
 5833TIP3   OH239057   4.333   2.139   7.865  0.2228  1.0992  0.3776
 5833TIP3    H139058   4.319   2.048   7.838  0.8996  1.3331 -0.8627
 5833TIP3    H239059   4.410   2.166   7.816  0.4812  2.1196  1.3185
 5834TIP3   OH239060   5.013   3.475   7.700  0.3049  0.0168 -0.2927
 5834TIP3    H139061   4.933   3.423   7.706 -0.6808  1.4317 -0.6393
 5834TIP3    H239062   5.007   3.536   7.774  0.5993  0.7276 -0.8482
 5835TIP3   OH239063   5.269   1.230   6.806  0.2525  0.2166 -0.1841
 5835TIP3    H139064   5.202   1.217   6.872 -0.1254 -2.0893 -0.9212
 5835TIP3    H239065   5.224   1.274   6.734 -0.1599 -0.1528 -0.1574
 5836TIP3   OH239066   0.297   0.810   6.380  0.0081 -0.0499 -0.3370
 5836TIP3    H139067   0.276   0.759   6.458 -2.2107 -0.1983 -0.9672
 5836TIP3    H239068   0.311   0.745   6.312  0.8355  0.1073 -0.3204
 5837TIP3   OH239069   3.602   2.181   7.694  0.1284 -0.6708  0.5714
 5837TIP3    H139070   3.531   2.244   7.709 -0.4352 -0.9432 -0.7778
 5837TIP3    H239071   3.630   2.155   7.782 -0.4432  0.5531  1.1391
 5838TIP3   OH239072   4.148   3.901   1.716  0.0098 -0.1645 -0.7497
 5838TIP3    H139073   4.188   3.814   1.716  0.2182 -0.0698 -0.6030
 5838TIP3    H239074   4.157   3.932   1.806 -0.5237 -0.2002 -0.6855
 5839TIP3   OH239075   0.125   6.400   7.118 -0.5474 -0.7660  0.0035
 5839TIP3    H139076   0.041   6.366   7.089 -1.7682  0.2559  2.1016
 5839TIP3    H239077   0.104   6.457   7.191  2.1004 -1.8440  1.7865
 5840TIP3   OH239078   1.047   1.020   6.762  0.1615 -0.0258  0.5907
 5840TIP3    H139079   1.100   0.969   6.701 -0.6235 -1.7548  1.2907
 5840TIP3    H239080   0.974   0.962   6.785  0.7730  0.2766  3.6842
 5841TIP3   OH239081   6.108   3.459   0.366  0.3206  0.0529 -0.1123
 5841TIP3    H139082   6.152   3.432   0.286 -1.0431 -0.3365 -0.7628
 5841TIP3    H239083   6.060   3.382   0.395 -3.6469  1.5100 -2.0103
 5842TIP3   OH239084   0.233   4.879   6.161  0.3324  0.1319 -0.0346
 5842TIP3    H139085   0.319   4.870   6.203  0.7170  1.0497 -0.5905
 5842TIP3    H239086   0.191   4.794   6.175  1.6331 -0.6065 -0.4015
 5843TIP3   OH239087   3.238   2.232   0.101 -0.1228 -0.6369 -0.9701
 5843TIP3    H139088   3.291   2.276   0.035 -0.2816 -0.4096 -0.9477
 5843TIP3    H239089   3.181   2.173   0.052 -0.2493 -0.4589 -1.0383
 5844TIP3   OH239090   0.648   5.597   0.627  0.3025  0.0724 -0.4053
 5844TIP3    H139091   0.740   5.620   0.640  0.8775 -2.2681  0.0426
 5844TIP3    H239092   0.602   5.641   0.698  1.2078  0.5007 -0.0715
 5845TIP3   OH239093   1.914   5.452   7.931  0.6247 -0.2912  0.6200
 5845TIP3    H139094   1.984   5.450   7.996 -0.1173  2.8985  1.6679
 5845TIP3    H239095   1.857   5.379   7.957  2.1255 -1.2471  1.3872
 5846TIP3   OH239096   2.214   4.039   2.197  0.3186  0.0128 -0.8230
 5846TIP3    H139097   2.226   4.117   2.144  0.0549  0.5424 -0.1221
 5846TIP3    H239098   2.303   4.013   2.223  0.3443  0.7164 -0.1737
 5847TIP3   OH239099   5.372   2.480   6.628 -0.1910 -0.2030  0.0346
 5847TIP3    H139100   5.280   2.454   6.633  0.2052 -1.7203  0.0325
 5847TIP3    H239101   5.390   2.523   6.711 -1.6781  3.0215 -1.1379
 5848TIP3   OH239102   3.064   1.287   1.352 -0.4779 -0.2161 -0.3204
 5848TIP3    H139103   2.998   1.353   1.371  1.0527  1.4546 -0.5656
 5848TIP3    H239104   3.057   1.272   1.257 -0.4971 -0.0364 -0.3470
 5849TIP3   OH239105   5.353   1.106   7.103  0.2067  0.2640  0.3568
 5849TIP3    H139106   5.300   1.140   7.031 -0.0930 -0.8635  0.0105
 5849TIP3    H239107   5.316   1.145   7.182  1.0522  2.1509 -0.1469
 5850TIP3   OH239108   2.360   0.592   8.429  0.3376 -0.1902  0.3927
 5850TIP3    H139109   2.338   0.597   8.336 -1.4520  0.3853  0.8111
 5850TIP3    H239110   2.454   0.607   8.431  0.4131 -0.1472 -1.3213
 5851TIP3   OH239111   5.620   4.661   1.321  0.3399  0.0330 -0.0974
 5851TIP3    H139112   5.529   4.653   1.349 -0.2139  0.9158 -1.5289
 5851TIP3    H239113   5.667   4.596   1.373 -1.0157 -0.1089  1.0114
 5852TIP3   OH239114   4.136   0.892   6.257  0.7371 -0.0585 -0.2913
 5852TIP3    H139115   4.206   0.912   6.195  0.4452  1.7528 -0.0828
 5852TIP3    H239116   4.182   0.866   6.337  1.1187 -3.2281 -1.4177
 5853TIP3   OH239117   1.785   5.179   0.594 -0.0302 -0.0602  0.1627
 5853TIP3    H139118   1.785   5.215   0.505 -1.2683 -1.1091 -0.2792
 5853TIP3    H239119   1.708   5.124   0.598  1.1597 -1.7346  1.2187
 5854TIP3   OH239120   5.716   4.785   0.705  0.5226  0.7519  0.0558
 5854TIP3    H139121   5.757   4.833   0.777  0.1476  0.1120  0.7087
 5854TIP3    H239122   5.790   4.755   0.652  0.9695 -0.6962  1.4094
 5855TIP3   OH239123   4.001   3.830   2.152 -0.2087 -0.2145  0.1567
 5855TIP3    H139124   4.052   3.889   2.208 -1.3409  0.0929  0.9163
 5855TIP3    H239125   3.990   3.751   2.204  0.5739 -0.7882 -0.5219
 5856TIP3   OH239126   5.712   3.908   8.401 -0.4225  0.2758  0.2079
 5856TIP3    H139127   5.734   3.983   8.346 -1.5981 -0.0339 -0.7220
 5856TIP3    H239128   5.631   3.932   8.445 -0.6784 -0.3396  0.0920
 5857TIP3   OH239129   3.196   5.278   1.432 -0.1303 -0.3039 -0.5349
 5857TIP3    H139130   3.170   5.204   1.487 -1.7568 -0.4820 -1.4961
 5857TIP3    H239131   3.208   5.351   1.493 -0.2879 -0.9050  0.2222
 5858TIP3   OH239132   0.862   6.802   1.236 -0.1171 -0.0362  0.3385
 5858TIP3    H139133   0.792   6.866   1.247 -2.2445 -2.3069  0.8601
 5858TIP3    H239134   0.917   6.812   1.313 -1.7697 -0.3496  1.6161
 5859TIP3   OH239135   2.545   1.952   8.352 -0.2442 -0.0257  0.1527
 5859TIP3    H139136   2.520   2.040   8.380  2.4159  0.6109  0.8034
 5859TIP3    H239137   2.559   1.960   8.258  0.8602  0.4990  0.3523
 5860TIP3   OH239138   1.214   5.955   1.218  0.2198 -0.0858  0.1415
 5860TIP3    H139139   1.208   6.020   1.288 -0.6693  1.4348 -1.2650
 5860TIP3    H239140   1.137   5.971   1.164  0.2144 -2.0535 -0.5130
 5861TIP3   OH239141   2.256   4.921   7.483  0.3350 -0.8829 -0.0733
 5861TIP3    H139142   2.237   4.848   7.425 -0.2022  0.9880 -2.4007
 5861TIP3    H239143   2.325   4.970   7.439  0.4342  0.2275  1.2415
 5862TIP3   OH239144   5.857   2.014   1.289  0.1536 -0.1754 -0.4882
 5862TIP3    H139145   5.790   2.005   1.357 -0.4503 -3.0754 -1.3124
 5862TIP3    H239146   5.939   2.026   1.337 -0.2395 -2.2774  0.8477
 5863TIP3   OH239147   0.203   6.677   7.895 -0.1843 -0.5169  0.3646
 5863TIP3    H139148   0.282   6.622   7.900 -0.0554 -0.3281  0.4176
 5863TIP3    H239149   0.135   6.618   7.861  0.2004 -0.4395 -0.5749
 5864TIP3   OH239150   3.107   6.441   8.407 -0.7149  0.9435  0.0635
 5864TIP3    H139151   3.020   6.458   8.371  0.0758  1.0567 -1.9035
 5864TIP3    H239152   3.129   6.353   8.376 -0.0169  1.0130  0.3490
 5865TIP3   OH239153   0.822   2.306   7.550 -0.2606  0.1117  0.1362
 5865TIP3    H139154   0.834   2.308   7.644 -1.0161  0.3213  0.2371
 5865TIP3    H239155   0.727   2.312   7.538 -0.1800 -0.0221 -0.6314
 5866TIP3   OH239156   4.648   2.100   0.285  0.5069  0.2629  0.1608
 5866TIP3    H139157   4.727   2.065   0.244 -0.1265 -0.6370 -0.3216
 5866TIP3    H239158   4.621   2.032   0.347  0.7233  1.0523  1.1521
 5867TIP3   OH239159   6.775   2.938   1.118  0.5175 -0.2564  0.1573
 5867TIP3    H139160   6.697   2.978   1.158  0.4389 -1.8876  1.7672
 5867TIP3    H239161   6.742   2.864   1.069  1.0800 -1.7698  1.9306
 5868TIP3   OH239162   2.561   6.299   8.364 -0.3215  0.0265 -0.0517
 5868TIP3    H139163   2.601   6.242   8.298 -1.6032  0.9022 -1.6525
 5868TIP3    H239164   2.601   6.384   8.349 -0.9221  0.3278  0.0587
 5869TIP3   OH239165   6.534   5.148   0.558 -0.1617 -0.0899 -0.5904
 5869TIP3    H139166   6.464   5.127   0.620 -0.9926  1.6155 -0.8909
 5869TIP3    H239167   6.610   5.166   0.613 -0.4714 -0.0929 -0.1547
 5870TIP3   OH239168   3.914   0.002   7.671 -0.4137  0.0244  0.3029
 5870TIP3    H139169   3.874   0.021   7.756 -3.1798  0.2431 -0.9400
 5870TIP3    H239170   3.877  -0.082   7.645  1.8980 -0.9918  0.1206
 5871TIP3   OH239171   6.745   0.325   0.409  0.1786  0.2984  0.3004
 5871TIP3    H139172   6.671   0.385   0.402  0.7927  0.9227 -1.3067
 5871TIP3    H239173   6.818   0.372   0.369  0.9759 -1.0506  0.0881
 5872TIP3   OH239174   0.492   2.798   7.581  0.2929  0.4652 -0.0482
 5872TIP3    H139175   0.552   2.838   7.517  0.7802 -0.1918 -0.0219
 5872TIP3    H239176   0.504   2.703   7.568 -0.5054  0.3275  0.1854
 5873TIP3   OH239177   4.842   5.415   1.049 -0.0324  0.0842 -0.7315
 5873TIP3    H139178   4.781   5.401   0.978 -1.2261  1.9709 -0.1571
 5873TIP3    H239179   4.797   5.475   1.108  0.7607 -1.6558  1.8254
 5874TIP3   OH239180   4.782   3.498   1.737 -0.2898  0.1748 -0.3020
 5874TIP3    H139181   4.720   3.427   1.749  1.6611 -1.6897 -0.5157
 5874TIP3    H239182   4.794   3.536   1.824 -0.5960 -0.4565  0.0172
 5875TIP3   OH239183   3.351   1.448   7.869 -0.2062  0.5716 -0.2035
 5875TIP3    H139184   3.413   1.458   7.796 -0.5628  0.2385 -0.5496
 5875TIP3    H239185   3.407   1.437   7.946  0.2291 -2.3113 -0.8257
 5876TIP3   OH239186   2.271   4.317   2.049 -0.6549  0.1509 -0.3924
 5876TIP3    H139187   2.342   4.360   2.002  0.8480  0.2664  1.8333
 5876TIP3    H239188   2.243   4.382   2.115 -2.9199  0.1414 -1.2522
 5877TIP3   OH239189   2.106   4.735   1.561  0.3887 -0.2380  0.1813
 5877TIP3    H139190   2.078   4.807   1.505  1.2274 -1.1502 -1.4724
 5877TIP3    H239191   2.195   4.715   1.533  0.0245 -2.1998  0.2559
 5878TIP3   OH239192   5.798   6.044   7.500 -0.4436  0.3888 -0.2632
 5878TIP3    H139193   5.703   6.039   7.506 -0.3686 -1.6817  0.1297
 5878TIP3    H239194   5.829   6.037   7.590  0.0940  0.0017 -0.4711
 5879TIP3   OH239195   2.334   3.066   2.138  0.7658 -0.8233 -0.0998
 5879TIP3    H139196   2.363   3.158   2.132 -2.6376  0.3192 -1.7652
 5879TIP3    H239197   2.290   3.060   2.223  0.4083 -0.7153 -0.2769
 5880TIP3   OH239198   6.874   2.328   6.292  0.2377  0.4936 -0.0817
 5880TIP3    H139199   6.888   2.411   6.337  1.6208 -0.1914  0.8067
 5880TIP3    H239200   6.816   2.279   6.351 -0.3764  0.7085 -0.4900
 5881TIP3   OH239201   1.296   2.552   0.735  0.3598  0.1924 -0.0983
 5881TIP3    H139202   1.203   2.557   0.758  0.3394  1.0206 -0.3483
 5881TIP3    H239203   1.318   2.459   0.747 -0.8518 -0.2919 -1.3686
 5882TIP3   OH239204   6.823   2.230   2.558 -0.1597  0.0920  0.7621
 5882TIP3    H139205   6.852   2.143   2.586  0.2553  0.2420  0.8060
 5882TIP3    H239206   6.904   2.281   2.552 -0.4070  0.4865  0.7788
 5883TIP3   OH239207   2.794   2.274   8.181 -0.3163  0.0503  0.6188
 5883TIP3    H139208   2.729   2.339   8.205  0.1596  1.5370 -1.7918
 5883TIP3    H239209   2.866   2.288   8.243  0.0619  2.3496 -0.2500
 5884TIP3   OH239210   3.906   4.295   1.029 -0.7692 -0.0022  0.1869
 5884TIP3    H139211   3.922   4.364   1.093 -0.1504  0.2050 -0.1860
 5884TIP3    H239212   3.845   4.334   0.966 -2.6831 -0.7215  1.4883
 5885TIP3   OH239213   2.193   3.129   2.398  0.1595  0.3367  0.1013
 5885TIP3    H139214   2.110   3.170   2.373  0.4171 -0.4171 -2.3042
 5885TIP3    H239215   2.254   3.202   2.406 -0.3156  0.7513  0.0146
 5886TIP3   OH239216   2.744   6.542   1.756 -0.3136 -0.4647 -0.2071
 5886TIP3    H139217   2.784   6.578   1.836 -1.6697 -0.0464  0.3152
 5886TIP3    H239218   2.791   6.584   1.684 -1.0692  1.5325  0.3822
 5887TIP3   OH239219   4.478   6.295   8.254 -0.0888 -0.4694  0.0994
 5887TIP3    H139220   4.399   6.241   8.247 -0.7191  0.5159 -0.7702
 5887TIP3    H239221   4.504   6.288   8.346  0.3189 -2.8433 -0.1339
 5888TIP3   OH239222   2.933   4.455   8.249 -0.3255 -0.1646  0.0386
 5888TIP3    H139223   3.011   4.403   8.231 -0.1328 -0.3749  1.3935
 5888TIP3    H239224   2.934   4.524   8.182  1.4100  0.2493  0.4443
 5889TIP3   OH239225   5.282   4.864   5.985 -0.0927 -0.0137  0.2690
 5889TIP3    H139226   5.253   4.773   5.983  0.3921 -0.1834  0.7041
 5889TIP3    H239227   5.217   4.910   6.038 -0.7904  0.0656 -0.6359
 5890TIP3   OH239228   3.369   5.569   0.813 -0.5429 -0.2795  0.3852
 5890TIP3    H139229   3.441   5.514   0.844 -0.6814  0.1033  1.4375
 5890TIP3    H239230   3.347   5.534   0.727  1.2743 -0.0396 -0.2181
 5891TIP3   OH239231   6.166   6.468   1.355  0.2895  0.3462 -0.2787
 5891TIP3    H139232   6.134   6.400   1.295  0.1110  0.6423 -0.5264
 5891TIP3    H239233   6.087   6.517   1.379  0.0616 -0.8517  1.6134
 5892TIP3   OH239234   6.161   0.211   0.733 -0.3434 -0.4060 -0.5036
 5892TIP3    H139235   6.159   0.280   0.665 -1.9073  0.9309  0.8079
 5892TIP3    H239236   6.104   0.142   0.698 -0.8653  0.1215 -0.7335
 5893TIP3   OH239237   5.196   3.447   7.170  0.2194  0.5511  0.5618
 5893TIP3    H139238   5.236   3.386   7.232  0.3673  1.5012  1.4257
 5893TIP3    H239239   5.219   3.533   7.203 -2.2114  1.1541  0.9131
 5894TIP3   OH239240   5.201   2.711   7.850 -0.6239 -0.0108  0.5704
 5894TIP3    H139241   5.268   2.731   7.785 -0.2874  0.3664  1.0276
 5894TIP3    H239242   5.217   2.773   7.921  0.5295 -1.9501  2.1141
 5895TIP3   OH239243   3.739   5.433   1.743 -0.3322  0.7826  0.3721
 5895TIP3    H139244   3.776   5.406   1.659 -1.1481  0.2727  0.1719
 5895TIP3    H239245   3.809   5.416   1.807  0.1501  0.8095 -0.1419
 5896TIP3   OH239246   5.939   4.993   7.379 -0.3447 -0.3093  0.1752
 5896TIP3    H139247   5.847   5.020   7.380 -0.2616  0.0393 -0.5410
 5896TIP3    H239248   5.936   4.899   7.362 -0.5401 -0.0320 -1.4664
 5897TIP3   OH239249   3.332   2.096   6.815 -0.1585  1.1057  0.3646
 5897TIP3    H139250   3.394   2.121   6.746 -0.1644 -2.0183 -0.9251
 5897TIP3    H239251   3.247   2.093   6.770  0.1188 -2.9560 -0.2359
 5898TIP3   OH239252   6.738   3.343   2.704  0.0800 -0.2817  0.5894
 5898TIP3    H139253   6.712   3.253   2.722 -1.6571  0.0474 -0.1194
 5898TIP3    H239254   6.760   3.380   2.789 -0.7909 -0.9002  1.0966
 5899TIP3   OH239255   5.579   0.552   6.506 -0.3599 -0.0114  0.6688
 5899TIP3    H139256   5.627   0.635   6.503 -0.0383 -0.2200 -0.7662
 5899TIP3    H239257   5.487   0.578   6.519 -0.7272  0.8443 -2.6838
 5900TIP3   OH239258   2.049   5.134   0.301 -0.3659 -0.6483 -0.2982
 5900TIP3    H139259   2.028   5.046   0.269 -0.6481  0.1333 -2.4776
 5900TIP3    H239260   1.965   5.173   0.324 -0.2055 -1.0521  1.0223
 5901TIP3   OH239261   0.860   6.015   1.999  0.6180 -0.1524  1.0205
 5901TIP3    H139262   0.836   6.088   1.942  1.1672 -1.1640 -0.5915
 5901TIP3    H239263   0.866   6.053   2.086  0.1490  1.5599  0.3414
 5902TIP3   OH239264   0.436   4.537   8.536 -0.2176  0.2270  0.1960
 5902TIP3    H139265   0.468   4.590   8.463  3.0854  0.6714  1.7804
 5902TIP3    H239266   0.430   4.597   8.610  0.2402 -0.9015  1.1980
 5903TIP3   OH239267   3.367   4.006   1.561  0.3427  0.1739  0.0564
 5903TIP3    H139268   3.387   3.999   1.468 -1.4643 -1.3399 -0.2576
 5903TIP3    H239269   3.284   4.053   1.565 -1.2770 -2.5412  0.6303
 5904TIP3   OH239270   3.124   5.451   7.290 -0.3603 -0.1691 -1.1267
 5904TIP3    H139271   3.126   5.533   7.338  0.2213  0.2781 -1.8925
 5904TIP3    H239272   3.085   5.473   7.205  0.8146 -0.4351 -1.7557
 5905TIP3   OH239273   2.952   2.225   2.476  0.3545 -0.3230 -0.0125
 5905TIP3    H139274   2.866   2.187   2.493  0.9399 -1.0602  1.3778
 5905TIP3    H239275   2.973   2.197   2.387 -1.1930  0.5954 -0.7172
 5906TIP3   OH239276   1.182   4.398   8.044  0.6424  0.0293  0.8017
 5906TIP3    H139277   1.104   4.391   8.098  1.4343  0.0392  1.9819
 5906TIP3    H239278   1.253   4.415   8.106  1.4901  0.6689 -0.2981
 5907TIP3   OH239279   0.625   1.386   8.174 -0.3145  0.4053  0.2513
 5907TIP3    H139280   0.605   1.427   8.090 -1.1834  0.1535  0.3214
 5907TIP3    H239281   0.720   1.380   8.177 -0.2382  1.2362 -0.3233
 5908TIP3   OH239282   1.123   1.607   6.176 -0.0575  0.6175  0.9872
 5908TIP3    H139283   1.091   1.630   6.264  0.1860 -1.8653  1.8289
 5908TIP3    H239284   1.142   1.513   6.182  0.8425  0.5683 -1.4895
 5909TIP3   OH239285   1.274   3.196   1.930 -0.2642 -0.1044 -0.3136
 5909TIP3    H139286   1.328   3.257   1.880  0.8908 -0.1018  0.8842
 5909TIP3    H239287   1.272   3.233   2.018  0.4938 -1.7766  0.4497
 5910TIP3   OH239288   5.905   4.755   0.508 -0.3927 -0.1308  0.2030
 5910TIP3    H139289   5.875   4.729   0.421 -0.7231 -0.5827  0.4472
 5910TIP3    H239290   5.936   4.845   0.497  1.7015 -0.9225 -0.8903
 5911TIP3   OH239291   4.100   3.752   7.140 -0.2068  0.6582  0.4093
 5911TIP3    H139292   4.137   3.767   7.054  0.6464  0.5062  0.7427
 5911TIP3    H239293   4.021   3.700   7.124 -0.5289  1.3580 -0.3433
 5912TIP3   OH239294   3.240   1.766   7.147 -0.4718  0.4145 -0.4171
 5912TIP3    H139295   3.256   1.672   7.145 -0.3093  0.4322 -0.1131
 5912TIP3    H239296   3.218   1.789   7.057 -1.7797 -0.1283 -0.2622
 5913TIP3   OH239297   0.656   2.924   8.288  0.4467 -0.3859  0.1669
 5913TIP3    H139298   0.710   2.938   8.210  0.1281 -0.5331 -0.0876
 5913TIP3    H239299   0.710   2.952   8.361 -0.3280  2.8038 -0.3225
 5914TIP3   OH239300   6.601   6.423   7.918  0.0130 -0.5734 -0.1344
 5914TIP3    H139301   6.511   6.393   7.929 -0.1057 -0.4877 -0.8329
 5914TIP3    H239302   6.640   6.414   8.005 -0.6719 -0.5983  0.1772
 5915TIP3   OH239303   2.669   0.202   6.935  0.0645  0.7281  0.6861
 5915TIP3    H139304   2.703   0.132   6.990  1.3469  1.3982  0.7801
 5915TIP3    H239305   2.601   0.160   6.882  1.2345 -0.7422  0.2885
 5916TIP3   OH239306   5.648   6.579   0.820  0.9818 -0.0782  0.3441
 5916TIP3    H139307   5.641   6.665   0.862  0.8632 -0.1127  0.3974
 5916TIP3    H239308   5.738   6.573   0.791  1.2248 -0.2918  1.1054
 5917TIP3   OH239309   3.096   6.895   7.609  0.4952  0.2994  0.2331
 5917TIP3    H139310   3.017   6.924   7.563  0.5743  1.4104  0.7675
 5917TIP3    H239311   3.068   6.885   7.700  1.0532  1.0476  0.4912
 5918TIP3   OH239312   4.770   6.401   2.599  0.2932  0.5734 -0.1252
 5918TIP3    H139313   4.814   6.355   2.671 -0.5871  1.3074  0.9130
 5918TIP3    H239314   4.706   6.337   2.566  1.7462 -0.3217 -1.3204
 5919TIP3   OH239315   3.459   3.583   0.578 -0.4337  0.3498 -0.2037
 5919TIP3    H139316   3.553   3.573   0.592 -0.6111  0.3809  1.1133
 5919TIP3    H239317   3.442   3.676   0.596 -0.5535  0.6029 -1.5286
 5920TIP3   OH239318   1.781   5.516   7.121  0.7866 -0.5964 -0.5001
 5920TIP3    H139319   1.773   5.559   7.206  0.4150 -2.6208  0.5541
 5920TIP3    H239320   1.873   5.493   7.114  0.8480 -0.2840 -0.7193
 5921TIP3   OH239321   5.915   2.351   7.568 -0.5304  0.3651 -0.5228
 5921TIP3    H139322   5.845   2.373   7.507 -2.0279 -0.8281  0.6619
 5921TIP3    H239323   5.871   2.300   7.637  1.9445 -2.8296 -1.0892
 5922TIP3   OH239324   1.812   0.568   7.247  0.3793  0.0042 -0.4761
 5922TIP3    H139325   1.835   0.554   7.156  0.7002 -1.3292 -0.2207
 5922TIP3    H239326   1.773   0.485   7.275  3.0092 -0.7181  1.4045
 5923TIP3   OH239327   0.285   6.669   7.438  0.1624  0.4901  0.6688
 5923TIP3    H139328   0.197   6.635   7.422  0.3707 -0.6138  1.7844
 5923TIP3    H239329   0.332   6.653   7.356 -0.4759  0.4668  0.3004
 5924TIP3   OH239330   0.147   4.342   8.183 -0.3999  0.3709  0.6200
 5924TIP3    H139331   0.112   4.361   8.270  1.3603  2.0043  1.0544
 5924TIP3    H239332   0.221   4.284   8.199 -0.0320  0.7249  0.2471
 5925TIP3   OH239333   6.332   4.183   8.082  0.2536  0.2357  0.6577
 5925TIP3    H139334   6.288   4.255   8.037  0.5367  1.1050  1.7467
 5925TIP3    H239335   6.405   4.224   8.129  1.6037 -1.0288 -0.2276
 5926TIP3   OH239336   5.616   0.763   7.404 -0.8805  0.6418 -0.3703
 5926TIP3    H139337   5.548   0.737   7.466 -0.1223  1.6425  0.9310
 5926TIP3    H239338   5.573   0.823   7.343 -1.9864 -1.4643 -1.7657
 5927TIP3   OH239339   0.743   2.582   1.072 -0.4512  0.5519 -0.1752
 5927TIP3    H139340   0.650   2.600   1.084 -0.6629 -0.7046  0.1824
 5927TIP3    H239341   0.747   2.503   1.018  0.4362  1.2283 -1.1521
 5928TIP3   OH239342   1.493   4.345   7.311  0.4833 -0.2827 -0.1236
 5928TIP3    H139343   1.482   4.396   7.392  2.3386  0.9104 -0.5688
 5928TIP3    H239344   1.448   4.397   7.244  0.6245 -0.2690 -0.2084
 5929TIP3   OH239345   1.493   3.772   7.989  0.7469 -0.7665 -0.0062
 5929TIP3    H139346   1.489   3.831   7.913  0.4774 -0.3527  0.3279
 5929TIP3    H239347   1.402   3.753   8.010  0.8288 -2.3477 -0.9048
 5930TIP3   OH239348   0.312   5.286   1.252  0.4872  0.3663  0.0273
 5930TIP3    H139349   0.303   5.380   1.237  1.5017  0.4999  0.1826
 5930TIP3    H239350   0.320   5.248   1.165 -2.0449  0.1383 -0.1958
 5931TIP3   OH239351   4.151   0.715   6.943  0.2611  0.4123 -0.1688
 5931TIP3    H139352   4.212   0.788   6.932 -0.6346  1.1232 -0.4865
 5931TIP3    H239353   4.208   0.639   6.956  1.2169  1.4178  2.0800
 5932TIP3   OH239354   3.189   4.774   0.448 -0.2308 -0.0312 -0.2867
 5932TIP3    H139355   3.277   4.779   0.485  0.1681  0.1596 -1.2335
 5932TIP3    H239356   3.165   4.682   0.457  0.8170 -0.4769 -1.6673
 5933TIP3   OH239357   3.937   5.581   6.399 -0.1738  0.0680  0.1030
 5933TIP3    H139358   4.014   5.545   6.443 -1.2414 -2.4648  0.0648
 5933TIP3    H239359   3.868   5.578   6.465 -1.1498 -1.3500 -0.9095
 5934TIP3   OH239360   1.264   2.974   0.471  0.1001  0.2494 -0.1063
 5934TIP3    H139361   1.189   2.916   0.488 -0.4272  0.8795 -0.2740
 5934TIP3    H239362   1.292   2.950   0.382  0.0957  0.0214 -0.0483
 5935TIP3   OH239363   5.226   4.652   8.092 -0.0051 -0.2363 -0.0880
 5935TIP3    H139364   5.152   4.654   8.153 -0.1898  0.9217 -0.3325
 5935TIP3    H239365   5.277   4.730   8.113 -0.0911  0.2042 -1.4314
 5936TIP3   OH239366   0.144   5.635   6.865 -0.0064 -0.5202 -0.0664
 5936TIP3    H139367   0.094   5.701   6.817 -2.3703 -1.1348  1.3498
 5936TIP3    H239368   0.197   5.592   6.798 -1.1573  0.3918 -1.6501
 5937TIP3   OH239369   2.328   6.103   0.109  0.0381  0.0620 -0.2723
 5937TIP3    H139370   2.292   6.124   0.195 -0.8004 -0.2920 -0.5247
 5937TIP3    H239371   2.397   6.039   0.128 -0.2545 -0.1443  0.1300
 5938TIP3   OH239372   6.448   2.243   6.725  0.0388  0.0043  0.2429
 5938TIP3    H139373   6.365   2.238   6.773  0.4074  1.6856  1.1248
 5938TIP3    H239374   6.502   2.303   6.776  0.7405  1.2480 -1.8407
 5939TIP3   OH239375   1.923   6.425   1.685  0.0154  0.0882 -0.2616
 5939TIP3    H139376   1.894   6.340   1.716 -1.5284  1.3091  1.9121
 5939TIP3    H239377   1.851   6.457   1.631  0.3477  0.2670 -0.6073
 5940TIP3   OH239378   0.495   4.082   1.813  0.1655 -0.1402  0.1876
 5940TIP3    H139379   0.483   4.151   1.749 -1.1029  1.2918  1.8721
 5940TIP3    H239380   0.528   4.126   1.892  3.4077 -2.0581  0.1235
 5941TIP3   OH239381   4.285   4.409   7.880  0.1847  0.7567 -0.1111
 5941TIP3    H139382   4.378   4.431   7.891  0.3720 -0.6455  1.4028
 5941TIP3    H239383   4.279   4.316   7.902 -1.8612  1.2068  1.5416
 5942TIP3   OH239384   3.975   2.279   7.775  0.1116  0.1029 -0.4716
 5942TIP3    H139385   3.956   2.309   7.686  1.5646 -0.8189 -1.1259
 5942TIP3    H239386   4.032   2.347   7.811  1.3933 -0.6077 -1.0859
 5943TIP3   OH239387   5.361   1.807   6.591  0.2026  0.2230 -0.0946
 5943TIP3    H139388   5.378   1.799   6.685 -1.3545 -0.8088  0.1164
 5943TIP3    H239389   5.315   1.890   6.583 -0.9665 -0.3775  0.2593
 5944TIP3   OH239390   4.236   1.689   8.405  0.3259 -0.5792  0.6470
 5944TIP3    H139391   4.191   1.635   8.341  1.5694 -1.3893  0.4258
 5944TIP3    H239392   4.209   1.654   8.490 -0.7031 -0.0102  0.5712
 5945TIP3   OH239393   4.704   0.320   6.300 -0.2622  0.0635  0.2427
 5945TIP3    H139394   4.649   0.253   6.261  0.4416 -0.6686  0.4737
 5945TIP3    H239395   4.647   0.365   6.362 -1.5151  1.5209 -1.8489
 5946TIP3   OH239396   3.783   5.191   8.020  0.1712 -0.2625 -0.4503
 5946TIP3    H139397   3.802   5.098   8.007 -0.7160 -0.6659  0.9036
 5946TIP3    H239398   3.740   5.195   8.106  3.9077  1.8862  1.6232
 5947TIP3   OH239399   4.270   0.292   7.286  0.0127 -0.0865 -0.6937
 5947TIP3    H139400   4.209   0.258   7.220  1.4094 -2.9953 -0.6579
 5947TIP3    H239401   4.214   0.328   7.354 -1.5787 -0.4828 -1.7240
 5948TIP3   OH239402   0.506   1.864   8.231  0.7108  0.6207  0.0408
 5948TIP3    H139403   0.491   1.917   8.153  1.0333  1.1032  0.3068
 5948TIP3    H239404   0.594   1.828   8.220  0.7113  0.5935  0.1312
 5949TIP3   OH239405   3.830   2.727   8.045 -0.0195 -0.4553 -0.1748
 5949TIP3    H139406   3.900   2.743   7.982 -0.9487  1.0534 -0.8762
 5949TIP3    H239407   3.795   2.641   8.021 -1.1736  0.5971 -2.5853
 5950TIP3   OH239408   1.685   4.049   6.324  0.3282 -0.1374 -0.2305
 5950TIP3    H139409   1.606   4.087   6.363  1.0829  2.3053 -0.8824
 5950TIP3    H239410   1.726   4.000   6.396 -1.1290 -0.4212  0.4496
 5951TIP3   OH239411   2.809   2.336   1.543  0.3697  0.5280 -0.0402
 5951TIP3    H139412   2.798   2.313   1.451  2.9712  1.6794 -0.7509
 5951TIP3    H239413   2.899   2.312   1.563 -0.0096  0.7000  2.1040
 5952TIP3   OH239414   3.380   6.765   8.532 -0.4031  0.2499  0.0200
 5952TIP3    H139415   3.389   6.671   8.549  0.2353  0.5603  1.5825
 5952TIP3    H239416   3.450   6.784   8.469 -1.4696 -0.5548 -1.4791
 5953TIP3   OH239417   4.885   3.564   7.300  0.4788 -0.5536  0.1732
 5953TIP3    H139418   4.790   3.566   7.306  0.5410  0.1988  1.2473
 5953TIP3    H239419   4.903   3.507   7.225 -0.7720 -2.8164  1.4814
 5954TIP3   OH239420   5.711   4.962   0.960 -0.6213 -0.1419  0.3046
 5954TIP3    H139421   5.742   5.051   0.975 -0.7395 -0.0528  0.0192
 5954TIP3    H239422   5.616   4.967   0.972 -0.9231  0.2301 -1.7839
 5955TIP3   OH239423   1.276   5.310   2.137 -0.3791  0.2019  0.5054
 5955TIP3    H139424   1.318   5.373   2.078  0.0024 -1.7532 -1.4413
 5955TIP3    H239425   1.325   5.318   2.218  2.0148 -0.0150 -0.8146
 5956TIP3   OH239426   0.339   5.036   8.498  0.0918 -0.1048  0.4200
 5956TIP3    H139427   0.302   4.954   8.466 -0.8374 -0.1260  1.4654
 5956TIP3    H239428   0.263   5.086   8.528  0.7012  0.9100  0.3069
 5957TIP3   OH239429   6.206   4.005   7.334  0.1775  0.3892  0.0515
 5957TIP3    H139430   6.117   3.994   7.301 -0.0410  2.1438 -0.0629
 5957TIP3    H239431   6.230   3.919   7.369 -1.8746  0.0888  0.8624
 5958TIP3   OH239432   6.411   6.077   6.936 -0.4152 -0.9306 -0.9414
 5958TIP3    H139433   6.328   6.045   6.972 -0.2526  2.3017  3.1732
 5958TIP3    H239434   6.387   6.153   6.883 -0.1899 -1.7085 -2.2002
 5959TIP3   OH239435   4.508   0.519   7.250  0.4731  0.7579  0.4456
 5959TIP3    H139436   4.463   0.440   7.281  2.6702 -0.5395  0.5141
 5959TIP3    H239437   4.550   0.492   7.168  0.2674  2.2276 -0.1631
 5960TIP3   OH239438   0.206   0.816   7.375  0.6503 -0.6687 -0.2297
 5960TIP3    H139439   0.297   0.843   7.366  0.1887  0.5800 -1.4008
 5960TIP3    H239440   0.168   0.880   7.436  0.5629 -1.2386  0.3258
 5961TIP3   OH239441   0.389   3.651   8.392 -0.3514 -0.4316  0.4907
 5961TIP3    H139442   0.297   3.670   8.407 -0.6459 -2.1595  1.0682
 5961TIP3    H239443   0.394   3.629   8.299 -0.1491  1.4422  0.0108
 5962TIP3   OH239444   0.653   6.227   7.603  0.1372  0.6081  0.3806
 5962TIP3    H139445   0.621   6.231   7.693  0.9821 -1.7308  0.8558
 5962TIP3    H239446   0.693   6.312   7.587 -2.2851  2.0283  1.2615
 5963TIP3   OH239447   4.789   2.339   1.778  0.1616  0.0504 -0.2137
 5963TIP3    H139448   4.840   2.298   1.708 -0.3899  1.3382 -1.4118
 5963TIP3    H239449   4.798   2.433   1.764 -1.8580  0.3326 -0.0011
 5964TIP3   OH239450   1.423   4.632   7.765 -0.4442 -0.0452 -0.3370
 5964TIP3    H139451   1.411   4.608   7.673 -0.4701  0.3059 -0.4285
 5964TIP3    H239452   1.491   4.700   7.763 -0.4997  0.0190 -0.1048
 5965TIP3   OH239453   6.628   4.423   7.922 -0.2645 -0.2562  0.7942
 5965TIP3    H139454   6.569   4.370   7.869 -0.2166  0.6234 -0.1742
 5965TIP3    H239455   6.716   4.397   7.893 -0.2242 -0.2009  0.8659
 5966TIP3   OH239456   4.053   5.435   2.050 -0.0688  0.4469  0.2775
 5966TIP3    H139457   4.116   5.410   2.117  0.6111 -0.1957 -0.5897
 5966TIP3    H239458   4.044   5.530   2.061  0.9715  0.5362  0.4840
 5967TIP3   OH239459   1.559   4.919   2.053  0.0787 -0.6265 -0.6553
 5967TIP3    H139460   1.606   4.988   2.099 -0.1532 -0.2846 -0.9267
 5967TIP3    H239461   1.535   4.958   1.969 -0.0947 -1.0204 -0.7903
 5968TIP3   OH239462   5.512   1.011   8.593  0.2653  0.0291 -0.4452
 5968TIP3    H139463   5.579   1.012   8.661  0.5643  1.8858 -0.7117
 5968TIP3    H239464   5.528   1.091   8.543 -1.7571  0.1755 -0.9190
 5969TIP3   OH239465   3.972   1.603   7.204 -0.0196 -0.2512 -0.3236
 5969TIP3    H139466   4.064   1.615   7.181  0.0055  0.8781  0.3235
 5969TIP3    H239467   3.934   1.691   7.196 -0.5859 -0.3095  1.3764
 5970TIP3   OH239468   6.563   0.252   1.555 -0.1329  0.7542 -0.8398
 5970TIP3    H139469   6.602   0.200   1.485 -0.9125 -3.1968  1.3653
 5970TIP3    H239470   6.480   0.209   1.573 -1.1673  3.2405  0.8247
 5971TIP3   OH239471   2.353   3.783   1.204 -0.2051 -0.4856 -0.3929
 5971TIP3    H139472   2.278   3.787   1.145  0.2376  1.7037 -0.8949
 5971TIP3    H239473   2.320   3.818   1.287  0.2493  0.5362 -0.6308
 5972TIP3   OH239474   4.670   6.337   8.090 -0.2701  0.1498 -0.1601
 5972TIP3    H139475   4.599   6.345   8.026  0.4770 -0.4127 -1.0765
 5972TIP3    H239476   4.625   6.330   8.175 -1.3213 -0.5447 -0.7618
 5973TIP3   OH239477   6.669   1.133   1.409 -1.2016 -0.4931 -0.6966
 5973TIP3    H139478   6.674   1.167   1.320 -2.5135 -0.7139 -0.8705
 5973TIP3    H239479   6.665   1.038   1.398 -1.3809 -0.5206 -0.4095
 5974TIP3   OH239480   0.002   5.053   1.668 -0.2339  0.1290 -0.0344
 5974TIP3    H139481   0.003   5.148   1.654  0.2465  0.2042  0.4933
 5974TIP3    H239482  -0.052   5.041   1.746 -1.9551 -0.2032 -1.2124
 5975TIP3   OH239483   6.359   1.133   6.535 -0.0327  0.0768 -0.0396
 5975TIP3    H139484   6.396   1.065   6.478  3.4012  2.5312 -1.0422
 5975TIP3    H239485   6.269   1.142   6.505  0.0566 -2.4233 -1.3758
 5976TIP3   OH239486   6.298   2.022   7.416 -0.5910  0.0137  0.3394
 5976TIP3    H139487   6.255   1.939   7.395 -1.2329 -0.1448  2.0978
 5976TIP3    H239488   6.239   2.065   7.478  1.3679  0.0997  2.3147
 5977TIP3   OH239489   0.999   6.037   8.049 -0.3321  0.0234 -0.0631
 5977TIP3    H139490   0.908   6.011   8.033 -0.3697 -0.3182  0.6583
 5977TIP3    H239491   1.051   5.963   8.019 -0.3421 -0.1437  0.3272
 5978TIP3   OH239492   6.335   4.094   0.013  0.2921  0.2979 -0.6209
 5978TIP3    H139493   6.279   4.168  -0.009  0.1682 -0.0771 -1.6241
 5978TIP3    H239494   6.366   4.112   0.102 -2.8086 -0.3071  0.7098
 5979TIP3   OH239495   6.266   6.645   6.336 -0.0716 -0.2472  0.0958
 5979TIP3    H139496   6.196   6.661   6.399  0.1578 -1.5405  0.7075
 5979TIP3    H239497   6.221   6.617   6.256 -0.2664 -0.9150  0.4353
 5980TIP3   OH239498   5.163   6.872   7.631  0.0931 -0.1141  0.1586
 5980TIP3    H139499   5.218   6.814   7.685  0.0212 -0.3294  0.0026
 5980TIP3    H239500   5.074   6.842   7.647  0.1152 -0.5736 -0.5433
 5981TIP3   OH239501   4.582   2.994   7.473  0.2220  0.4103  0.1407
 5981TIP3    H139502   4.640   2.973   7.547  1.9432  1.9747 -0.6985
 5981TIP3    H239503   4.550   3.082   7.492  0.6513  0.8160 -0.9512
 5982TIP3   OH239504   2.404   3.863   7.330  0.1343  0.2862 -0.0806
 5982TIP3    H139505   2.379   3.955   7.324  1.2077  0.5622 -0.4950
 5982TIP3    H239506   2.487   3.863   7.376 -0.2866 -0.5596  0.7049
 5983TIP3   OH239507   5.047   4.023   7.481 -0.2599  0.3060  0.5265
 5983TIP3    H139508   5.118   3.977   7.527 -1.2186 -0.7722  0.9724
 5983TIP3    H239509   4.997   3.954   7.438 -1.0438  1.0515  0.1969
 5984TIP3   OH239510   3.234   5.368   1.081  0.5301  0.5496  0.2816
 5984TIP3    H139511   3.216   5.380   0.988  2.5599 -0.3870 -0.2920
 5984TIP3    H239512   3.166   5.418   1.125 -1.7520 -0.6121 -1.6452
 5985TIP3   OH239513   3.820   5.245   1.538  0.3540  0.3465  0.4042
 5985TIP3    H139514   3.795   5.175   1.478 -0.3270  1.2035 -0.3424
 5985TIP3    H239515   3.789   5.325   1.496  1.0174  1.0954  1.2889
 5986TIP3   OH239516   4.210   0.425   1.529 -0.2739 -0.9356 -0.3185
 5986TIP3    H139517   4.248   0.394   1.446  0.9404 -2.0400  0.5971
 5986TIP3    H239518   4.266   0.499   1.554 -1.3374  0.1381 -1.0139
 5987TIP3   OH239519   0.672   2.502   0.265  0.0625 -0.0234 -0.0916
 5987TIP3    H139520   0.580   2.520   0.282  0.2473 -0.8153  2.0621
 5987TIP3    H239521   0.707   2.585   0.233 -1.2021  0.5400 -0.0683
 5988TIP3   OH239522   3.898   3.323   6.778 -0.4543 -0.3647  0.3318
 5988TIP3    H139523   3.913   3.415   6.799  1.2286 -0.7574  1.0497
 5988TIP3    H239524   3.924   3.315   6.686  1.1236 -0.4301  0.7479
 5989TIP3   OH239525   2.396   1.044   0.402 -0.4419  0.0930  0.7863
 5989TIP3    H139526   2.431   1.032   0.491 -0.7805  0.2433  0.9431
 5989TIP3    H239527   2.304   1.066   0.416 -0.7308 -0.8095  0.3575
 5990TIP3   OH239528   3.083   5.857   0.128  0.4805 -0.4156  0.5952
 5990TIP3    H139529   3.021   5.810   0.184  1.4739 -1.3855  0.9214
 5990TIP3    H239530   3.089   5.804   0.049 -0.6106  0.7406 -0.3114
 5991TIP3   OH239531   6.622   3.176   0.438  0.1297 -0.6009 -0.7024
 5991TIP3    H139532   6.686   3.108   0.456  3.3325  2.1653 -0.6252
 5991TIP3    H239533   6.597   3.209   0.525  0.5365 -0.0186 -0.8069
 5992TIP3   OH239534   1.011   4.949   1.346  0.1529  0.0153 -0.0641
 5992TIP3    H139535   1.098   4.986   1.364  0.2744 -0.9022  1.4222
 5992TIP3    H239536   1.017   4.859   1.379 -1.0006 -0.4477 -1.0550
 5993TIP3   OH239537   5.852   1.717   1.206 -0.6178 -0.2060  0.3964
 5993TIP3    H139538   5.846   1.624   1.227  0.7771 -0.2879  0.5124
 5993TIP3    H239539   5.806   1.760   1.278 -1.7198 -0.8176  0.0758
 5994TIP3   OH239540   2.838   3.388   0.788  0.4016 -0.5250 -0.2605
 5994TIP3    H139541   2.837   3.408   0.694 -0.5554  3.9122  0.4633
 5994TIP3    H239542   2.930   3.400   0.814  0.6240 -1.5308 -0.5349
 5995TIP3   OH239543   4.033   2.096   1.536  0.5769 -0.1455  0.3500
 5995TIP3    H139544   4.028   2.000   1.536  1.1585 -0.2262  2.4773
 5995TIP3    H239545   4.073   2.118   1.620 -0.8263  2.0366  0.5289
 5996TIP3   OH239546   6.002   0.747   7.480 -0.8409 -0.3595  0.0101
 5996TIP3    H139547   6.076   0.714   7.428 -0.0756  1.0787  0.1119
 5996TIP3    H239548   5.931   0.758   7.416  0.5937  3.0332 -1.2765
 5997TIP3   OH239549   6.272   1.500   7.310 -0.2219  0.3462 -0.7161
 5997TIP3    H139550   6.264   1.427   7.371  0.0258  1.5183  0.7606
 5997TIP3    H239551   6.347   1.477   7.255  0.6110  0.0214  0.5163
 5998TIP3   OH239552   1.270   2.627   8.423  0.0407 -0.3040 -0.1223
 5998TIP3    H139553   1.305   2.716   8.418 -0.2834 -0.2254 -1.0258
 5998TIP3    H239554   1.324   2.584   8.490 -0.4652  0.8610  1.0840
 5999TIP3   OH239555   0.920   3.108   2.685  0.2408  0.0993  0.1600
 5999TIP3    H139556   0.992   3.138   2.741 -1.6557 -0.8802  3.3824
 5999TIP3    H239557   0.874   3.189   2.660  0.4138  0.5024  1.1005
 6000TIP3   OH239558   4.412   5.027   7.124 -0.2866 -0.4994 -0.1629
 6000TIP3    H139559   4.345   5.095   7.116 -1.2361 -1.5901 -2.3057
 6000TIP3    H239560   4.486   5.060   7.073  0.9667  0.7543  2.2910
 6001TIP3   OH239561   6.034   5.535   6.802  0.3542 -0.1158  0.0677
 6001TIP3    H139562   5.991   5.451   6.819 -1.5712  0.9024  0.5996
 6001TIP3    H239563   6.068   5.526   6.713  1.8776 -2.0852  0.7782
 6002TIP3   OH239564   2.876   4.386   7.504 -0.1790 -0.4391 -0.5874
 6002TIP3    H139565   2.796   4.439   7.510 -0.9814 -1.1482 -3.3453
 6002TIP3    H239566   2.937   4.440   7.453  0.2897 -0.8005 -0.4168
 6003TIP3   OH239567   5.734   5.192   0.728  0.1485  0.3115  0.0306
 6003TIP3    H139568   5.804   5.241   0.771 -0.2706  0.4095  0.6061
 6003TIP3    H239569   5.654   5.223   0.769 -0.2636  0.4025 -0.8282
 6004TIP3   OH239570   4.909   1.873   0.377 -0.2492  0.5781  0.3391
 6004TIP3    H139571   4.858   1.906   0.303 -0.4343  0.4236  0.3949
 6004TIP3    H239572   4.859   1.900   0.454  0.4937  1.6679  0.4592
 6005TIP3   OH239573   4.932   4.393   6.872  0.0084  0.7170 -0.3578
 6005TIP3    H139574   4.850   4.376   6.825  0.6541 -1.2305 -0.8768
 6005TIP3    H239575   4.997   4.336   6.829  1.3244  1.2078  0.8981
 6006TIP3   OH239576   4.561   4.482   6.587 -0.1614 -0.0589  0.1646
 6006TIP3    H139577   4.523   4.458   6.502  1.7608 -1.2630 -0.4384
 6006TIP3    H239578   4.625   4.550   6.566  0.0445 -0.0806  0.6977
 6007TIP3   OH239579   6.343   1.345   6.695 -0.5255  0.5263 -0.2562
 6007TIP3    H139580   6.249   1.364   6.689 -0.5535  0.6845  0.5313
 6007TIP3    H239581   6.356   1.270   6.638 -1.3068 -0.1052  0.3714
 6008TIP3   OH239582   3.997   6.313   8.262  0.5576 -0.0829 -0.5983
 6008TIP3    H139583   4.071   6.253   8.254 -0.4894 -1.3620 -1.2819
 6008TIP3    H239584   3.994   6.360   8.179 -0.9371 -1.9930 -1.7288
 6009TIP3   OH239585   6.687   4.027   8.604 -0.2369  0.1200 -0.3597
 6009TIP3    H139586   6.628   4.003   8.533 -0.2316 -1.5334  0.1474
 6009TIP3    H239587   6.671   4.120   8.619 -1.4081  0.1048 -1.4279
 6010TIP3   OH239588   3.845   2.099   8.215 -0.0293  0.0707  0.4228
 6010TIP3    H139589   3.836   2.006   8.195 -1.8232  0.5404 -1.2736
 6010TIP3    H239590   3.924   2.126   8.169  0.0005 -0.4185  0.1812
 6011TIP3   OH239591   0.216   0.479   7.966 -0.1114  0.2996 -0.4503
 6011TIP3    H139592   0.245   0.412   7.904  0.6700 -0.6979  0.9445
 6011TIP3    H239593   0.121   0.485   7.953 -0.5210 -2.4752  0.6518
 6012TIP3   OH239594   5.723   1.911   1.521 -0.1332 -0.3394  0.3628
 6012TIP3    H139595   5.780   1.835   1.531 -0.5114 -0.4411  1.9260
 6012TIP3    H239596   5.731   1.958   1.604 -2.3512 -0.3668  0.6375
 6013TIP3   OH239597   3.319   3.130   0.783 -0.3484 -0.2361 -0.1479
 6013TIP3    H139598   3.362   3.113   0.699  0.9941 -1.1353  0.6868
 6013TIP3    H239599   3.227   3.110   0.767  0.1478 -2.0958 -0.9661
 6014TIP3   OH239600   3.892   2.563   8.525  0.1769  0.6249 -0.6524
 6014TIP3    H139601   3.927   2.631   8.583  0.4603  1.1699 -1.4395
 6014TIP3    H239602   3.916   2.481   8.567  2.2740  0.9684 -1.0462
 6015TIP3   OH239603   2.192   6.555   2.723  0.8965 -0.6570  0.6342
 6015TIP3    H139604   2.280   6.549   2.686  1.0299 -0.5367  0.9276
 6015TIP3    H239605   2.179   6.471   2.766  1.0808 -0.4739  1.0531
 6016TIP3   OH239606   4.889   6.497   0.872  0.4481 -0.6272  0.6035
 6016TIP3    H139607   4.984   6.501   0.862  0.1970 -1.4738 -3.9001
 6016TIP3    H239608   4.855   6.566   0.815 -1.6556 -1.7259  0.3925
 6017TIP3   OH239609   4.669   1.117   6.683  0.4021 -0.2489  0.1387
 6017TIP3    H139610   4.668   1.085   6.773  0.0649  0.3159  0.3368
 6017TIP3    H239611   4.762   1.122   6.660  0.5541  0.8563  0.9051
 6018TIP3   OH239612   5.593   1.543   0.253 -0.7185 -0.2768  0.1519
 6018TIP3    H139613   5.534   1.542   0.179 -1.1975  3.1299  0.3704
 6018TIP3    H239614   5.680   1.556   0.215 -0.5660 -1.4329  0.0674
 6019TIP3   OH239615   0.222   3.522   7.258 -0.4830 -0.3177 -0.4781
 6019TIP3    H139616   0.275   3.592   7.220 -0.5783  0.0867  0.1228
 6019TIP3    H239617   0.260   3.508   7.345 -1.6916  0.3632  0.1820
 6020TIP3   OH239618   3.264   6.002   8.204  0.6663 -0.1246  0.1644
 6020TIP3    H139619   3.307   6.067   8.148 -0.4092 -0.2001 -0.7974
 6020TIP3    H239620   3.282   5.919   8.161 -1.9858 -0.0072 -1.4153
 6021TIP3   OH239621   4.760   0.619   7.464  0.4329  0.0600  0.3086
 6021TIP3    H139622   4.707   0.562   7.520 -0.6997  1.0243  0.2480
 6021TIP3    H239623   4.812   0.558   7.411 -1.1210 -0.9629 -0.1402
 6022TIP3   OH239624   0.435   5.299   1.984  0.8688 -0.3129 -0.1969
 6022TIP3    H139625   0.367   5.267   1.925  1.8511 -0.6930 -1.1477
 6022TIP3    H239626   0.422   5.250   2.065 -0.8891  0.6696  0.1491
 6023TIP3   OH239627   4.456   3.992   8.124 -0.8045  0.2360 -0.4183
 6023TIP3    H139628   4.551   3.984   8.126 -0.7782  0.5101  1.7035
 6023TIP3    H239629   4.424   3.902   8.115 -0.4053  0.2393 -2.5669
 6024TIP3   OH239630   2.027   5.428   1.883  0.0752  0.3729 -0.3881
 6024TIP3    H139631   2.001   5.340   1.856  1.3868 -0.5243  1.1132
 6024TIP3    H239632   1.989   5.438   1.971  0.3167  1.1423 -0.3647
 6025TIP3   OH239633   2.336   0.620   8.144  0.0271 -0.3925  0.0236
 6025TIP3    H139634   2.422   0.580   8.135 -0.7484 -2.0616 -0.3743
 6025TIP3    H239635   2.342   0.702   8.095  1.4170 -0.3926  0.1533
 6026TIP3   OH239636   3.823   2.404   7.569  0.0270 -0.3867 -0.5344
 6026TIP3    H139637   3.753   2.338   7.575  0.2941 -0.7510 -1.2493
 6026TIP3    H239638   3.799   2.456   7.492 -0.1668  0.3456  0.0094
 6027TIP3   OH239639   0.949   1.928   8.521  0.0520 -0.2600  0.1795
 6027TIP3    H139640   0.978   2.020   8.525 -2.1858  0.4811  3.5843
 6027TIP3    H239641   0.884   1.927   8.450  1.2091  0.3704 -0.9296
 6028TIP3   OH239642   4.022   2.721   0.135  0.1880 -0.0641 -0.3294
 6028TIP3    H139643   4.023   2.680   0.222 -0.5074 -0.4034 -0.4727
 6028TIP3    H239644   4.111   2.752   0.123 -0.1741  1.8540  1.3746
 6029TIP3   OH239645   4.015   1.135   2.036 -0.4194 -0.4796 -0.4600
 6029TIP3    H139646   4.083   1.143   2.103 -0.5549 -0.3862 -0.3346
 6029TIP3    H239647   3.956   1.068   2.070  0.6385 -1.9701 -1.4358
 6030TIP3   OH239648   5.196   3.136   8.598 -0.1980 -0.0801 -0.0271
 6030TIP3    H139649   5.246   3.055   8.593 -0.5710 -0.2369 -2.2374
 6030TIP3    H239650   5.116   3.113   8.645  0.4077 -0.5856  0.7718
 6031TIP3   OH239651   2.668   3.872   2.318  0.3377  0.0467 -0.4420
 6031TIP3    H139652   2.620   3.790   2.324  2.4718 -1.2054  0.4997
 6031TIP3    H239653   2.759   3.846   2.303  1.1599  2.2135  0.3636
 6032TIP3   OH239654   4.995   2.625   8.022  0.6300 -0.0111 -0.4562
 6032TIP3    H139655   4.961   2.637   7.934  0.4585  0.3629 -0.3445
 6032TIP3    H239656   5.085   2.595   8.010  0.9135  0.9139 -0.7669
 6033TIP3   OH239657   0.709   1.956   7.265 -0.1727  0.1202  0.4424
 6033TIP3    H139658   0.660   2.028   7.224  0.1251  0.2495  0.3096
 6033TIP3    H239659   0.673   1.951   7.354 -0.5032  0.1414  0.3136
 6034TIP3   OH239660   0.554   0.285   1.528 -0.1635  0.2381 -0.7042
 6034TIP3    H139661   0.504   0.203   1.528 -0.8311  0.6394 -1.4483
 6034TIP3    H239662   0.629   0.267   1.471  1.0352 -0.6330  1.0580
 6035TIP3   OH239663   1.992   4.412   6.877 -0.4972  0.5444  0.0137
 6035TIP3    H139664   1.922   4.427   6.813 -0.4510  1.2413  0.1274
 6035TIP3    H239665   1.945   4.396   6.959 -0.5189  1.0671  0.1015
 6036TIP3   OH239666   1.638   6.832   7.568  0.1118  0.3458  0.5108
 6036TIP3    H139667   1.588   6.879   7.501  1.6217  0.6851 -0.4435
 6036TIP3    H239668   1.573   6.779   7.614 -1.1891  1.1637 -0.3084
 6037TIP3   OH239669   4.927   2.303   6.959  0.2226 -0.0387 -0.1409
 6037TIP3    H139670   4.938   2.396   6.937  1.7312  0.0133  0.6559
 6037TIP3    H239671   4.976   2.257   6.891  1.4539 -0.0908  0.7372
 6038TIP3   OH239672   0.539   5.997   2.436 -0.0084  0.1431 -0.2406
 6038TIP3    H139673   0.601   5.990   2.508  0.9750 -1.5735 -1.1847
 6038TIP3    H239674   0.590   6.035   2.364 -0.4260 -0.0154 -0.6261
 6039TIP3   OH239675   5.574   5.901   7.322 -0.5291 -0.2772  0.1481
 6039TIP3    H139676   5.572   5.955   7.401  0.2368  0.0895 -0.0694
 6039TIP3    H239677   5.512   5.830   7.339 -1.0436  0.2938  0.7162
 6040TIP3   OH239678   0.889   6.561   7.381  0.0415 -0.0967 -0.0099
 6040TIP3    H139679   0.908   6.615   7.304  0.1121 -1.1379 -0.7571
 6040TIP3    H239680   0.802   6.525   7.364  0.4129 -1.0274 -0.0449
 6041TIP3   OH239681   6.487   5.303   8.202  0.2037  0.1962  0.4799
 6041TIP3    H139682   6.512   5.395   8.192  0.7637  0.0805  0.7789
 6041TIP3    H239683   6.545   5.255   8.143 -1.6968  0.2301 -1.5313
 6042TIP3   OH239684   6.015   4.619   0.794 -0.3069  0.1194  0.1122
 6042TIP3    H139685   5.929   4.578   0.785 -0.1659 -0.6711  2.0021
 6042TIP3    H239686   5.996   4.704   0.833 -0.1985 -0.2624  1.0045
 6043TIP3   OH239687   0.071   3.189   7.076 -0.1060 -0.2493  0.2142
 6043TIP3    H139688   0.143   3.194   7.139 -1.1791  1.6666  1.4097
 6043TIP3    H239689   0.070   3.098   7.048  1.2746 -0.8706  1.9814
 6044TIP3   OH239690   4.105   0.446   8.246 -0.2072  0.4163 -0.2620
 6044TIP3    H139691   4.200   0.454   8.231  0.0907 -0.0360  1.2320
 6044TIP3    H239692   4.077   0.381   8.182  0.7920 -0.5912  0.2707
 6045TIP3   OH239693   0.102   2.061   1.480 -0.5929 -0.0854 -0.0133
 6045TIP3    H139694   0.028   2.072   1.420 -0.7882 -0.4288  0.1603
 6045TIP3    H239695   0.140   2.148   1.486 -0.0590 -0.2019 -1.2832
 6046TIP3   OH239696   6.576   4.622   1.115 -0.3724 -1.0274 -0.3580
 6046TIP3    H139697   6.662   4.586   1.092 -0.6325 -1.8116 -0.1415
 6046TIP3    H239698   6.581   4.640   1.208  0.5569  1.8055 -0.8552
 6047TIP3   OH239699   0.987   1.998   6.734  0.8397 -0.2599  0.0475
 6047TIP3    H139700   1.008   2.060   6.664 -1.3125  0.6376  0.1017
 6047TIP3    H239701   0.978   1.914   6.690  0.3313  0.1371 -0.6341
 6048TIP3   OH239702   5.133   6.013   7.725 -0.4769 -0.0073 -0.0765
 6048TIP3    H139703   5.149   5.968   7.808 -0.3054  1.1811  0.5579
 6048TIP3    H239704   5.197   5.976   7.665  0.1309 -0.1123  0.6203
 6049TIP3   OH239705   3.637   0.659   1.223 -0.0237  0.0868 -0.2205
 6049TIP3    H139706   3.568   0.711   1.265 -0.3993  1.7963 -2.7410
 6049TIP3    H239707   3.719   0.697   1.254 -0.2799  0.8307 -0.4523
 6050TIP3   OH239708   3.061   1.825   6.548 -0.3545 -0.0768 -0.1419
 6050TIP3    H139709   2.977   1.792   6.516 -0.1259 -1.8208  0.9271
 6050TIP3    H239710   3.125   1.762   6.517  0.1414 -0.5689  1.7761
 6051TIP3   OH239711   2.572   2.004   6.712  0.6428 -0.1190 -0.3739
 6051TIP3    H139712   2.489   2.041   6.743  0.7733 -0.0542 -0.0951
 6051TIP3    H239713   2.550   1.915   6.684 -0.5836  1.4247 -5.1241
 6052TIP3   OH239714   0.384   2.981   0.185  0.2547 -0.4446 -0.0482
 6052TIP3    H139715   0.474   2.985   0.218 -0.6557 -0.6174  2.6794
 6052TIP3    H239716   0.369   2.888   0.170 -0.2859 -0.7501  2.1268
 6053TIP3   OH239717   0.974   0.310   0.085  0.1629 -0.3409 -0.2544
 6053TIP3    H139718   0.931   0.393   0.067  0.8731 -0.3646 -2.2611
 6053TIP3    H239719   1.051   0.309   0.028  0.9606 -1.7688  0.7586
 6054TIP3   OH239720   0.743   3.341   8.000 -0.2149 -0.7922  0.4732
 6054TIP3    H139721   0.836   3.355   7.984  0.1819 -1.4583  1.9977
 6054TIP3    H239722   0.739   3.302   8.087 -1.9553 -0.4608  0.5862
 6055TIP3   OH239723   2.812   4.484   1.357  0.0183 -0.2379 -0.3099
 6055TIP3    H139724   2.855   4.481   1.272 -0.9968  0.3402 -0.8736
 6055TIP3    H239725   2.822   4.575   1.386  0.0213 -0.3365  0.0066
 6056TIP3   OH239726   5.718   3.239   6.355  0.0317 -0.0307 -0.1290
 6056TIP3    H139727   5.784   3.182   6.396  2.3645  1.4419 -1.6061
 6056TIP3    H239728   5.637   3.188   6.359  1.3435 -2.1800  1.2974
 6057TIP3   OH239729   6.630   2.795   7.858 -0.1204  0.6204 -0.5549
 6057TIP3    H139730   6.665   2.807   7.770 -0.5232  0.9800 -0.6674
 6057TIP3    H239731   6.540   2.826   7.853 -0.3317  0.0969 -0.1615
 6058TIP3   OH239732   1.057   5.131   0.927  0.2925 -0.3346 -0.4359
 6058TIP3    H139733   1.067   5.179   1.009  0.9478 -2.3973  0.7835
 6058TIP3    H239734   1.145   5.130   0.889  0.6967 -1.9301  0.4266
 6059TIP3   OH239735   1.407   4.119   7.639 -0.4372  0.3026  0.2074
 6059TIP3    H139736   1.404   4.189   7.704  0.1577  0.5009  0.0297
 6059TIP3    H239737   1.323   4.124   7.594  0.4930  2.5894 -1.5208
 6060TIP3   OH239738   4.732   0.375   7.121  0.6781 -0.3099 -0.8678
 6060TIP3    H139739   4.700   0.412   7.039  0.1722  0.2401 -0.4278
 6060TIP3    H239740   4.684   0.292   7.131  0.3237 -0.1028 -0.8444
 6061TIP3   OH239741   6.706   1.531   2.457  0.3059  0.2379 -0.3530
 6061TIP3    H139742   6.759   1.555   2.533  1.3165 -0.6432 -0.7381
 6061TIP3    H239743   6.727   1.597   2.391  1.0776 -0.1773 -0.5481
 6062TIP3   OH239744   4.599   1.779   0.074  0.2973  0.6232  0.2942
 6062TIP3    H139745   4.534   1.825   0.022 -2.4225 -2.5969  0.5327
 6062TIP3    H239746   4.581   1.805   0.164 -0.2425  0.2359  0.2996
 6063TIP3   OH239747   3.898   0.379   8.452 -0.1563 -0.5482 -0.7955
 6063TIP3    H139748   3.980   0.396   8.406  0.2035 -0.7780 -0.2476
 6063TIP3    H239749   3.862   0.466   8.470 -0.7710 -0.4491 -2.3077
 6064TIP3   OH239750   0.624   2.103   7.034 -1.1591 -0.4882  0.0473
 6064TIP3    H139751   0.612   2.151   6.952 -0.6768 -1.7474 -0.8067
 6064TIP3    H239752   0.562   2.030   7.028 -0.7346 -0.9001  0.5561
 6065TIP3   OH239753   0.221   2.742   0.448 -0.1436 -0.2389 -0.1795
 6065TIP3    H139754   0.164   2.718   0.521 -0.5391 -0.8587 -0.6804
 6065TIP3    H239755   0.174   2.712   0.370 -1.0706  2.8645 -0.9459
 6066TIP3   OH239756   2.197   0.375   0.451  0.4124  0.2772  0.1215
 6066TIP3    H139757   2.245   0.335   0.524  0.1406  0.4116  0.3772
 6066TIP3    H239758   2.201   0.310   0.381  1.6545  0.6103 -0.1378
 6067TIP3   OH239759   6.423   1.110   7.231  0.1389  0.0056  0.4719
 6067TIP3    H139760   6.340   1.065   7.250 -0.9905  1.3139 -1.1494
 6067TIP3    H239761   6.472   1.048   7.178 -1.1650  0.3903 -1.2574
 6068TIP3   OH239762   3.699   4.363   8.516 -0.1237 -0.3249  0.6050
 6068TIP3    H139763   3.763   4.313   8.566  0.9898 -0.7591 -1.1847
 6068TIP3    H239764   3.614   4.325   8.540  0.4356 -1.0029  1.5593
 6069TIP3   OH239765   4.488   1.537   8.495 -0.7286 -0.2001 -0.0509
 6069TIP3    H139766   4.467   1.548   8.402  0.0099 -0.4189 -0.2491
 6069TIP3    H239767   4.517   1.623   8.523  2.1465 -0.7901 -0.8523
 6070TIP3   OH239768   3.412   1.769   0.696  0.0751  0.0108 -0.6681
 6070TIP3    H139769   3.452   1.826   0.762  2.0013 -0.5019 -1.3232
 6070TIP3    H239770   3.454   1.794   0.614 -1.7611  0.1502 -1.6318
 6071TIP3   OH239771   1.970   5.143   1.213  0.2349  0.5628  0.0906
 6071TIP3    H139772   1.979   5.181   1.125  0.2981 -0.4417 -0.3470
 6071TIP3    H239773   2.023   5.199   1.269 -1.1744  2.2643 -0.1857
 6072TIP3   OH239774   4.742   5.811   2.152  0.1528 -0.3161  0.2230
 6072TIP3    H139775   4.745   5.749   2.079 -1.2293  1.4625 -1.4703
 6072TIP3    H239776   4.832   5.819   2.182  1.0540  0.0536 -2.3845
 6073TIP3   OH239777   1.583   3.554   6.478 -0.0089  0.6641 -0.0320
 6073TIP3    H139778   1.595   3.574   6.570  0.7200  1.7052 -0.3300
 6073TIP3    H239779   1.623   3.628   6.432  0.0698 -0.0587 -1.1846
 6074TIP3   OH239780   5.737   4.373   7.966 -0.0934  0.1493  0.2674
 6074TIP3    H139781   5.809   4.432   7.991 -1.5322  1.8369  0.6957
 6074TIP3    H239782   5.683   4.368   8.044 -0.1043 -1.6734  0.1755
 6075TIP3   OH239783   2.473   6.155   1.686  0.0170  0.2528 -0.1004
 6075TIP3    H139784   2.563   6.128   1.665  0.1264  2.5705 -3.3928
 6075TIP3    H239785   2.484   6.239   1.730 -0.5727 -0.3560  1.2805
 6076TIP3   OH239786   6.166   2.300   6.781 -0.4330  0.3106  0.1552
 6076TIP3    H139787   6.187   2.350   6.860 -0.3105  0.2701  0.1492
 6076TIP3    H239788   6.104   2.355   6.733 -0.6311  0.2607  0.3595
 6077TIP3   OH239789   5.210   3.488   1.493 -0.0475  0.0955  1.2555
 6077TIP3    H139790   5.221   3.394   1.476 -2.2349 -0.0221  0.1457
 6077TIP3    H239791   5.116   3.499   1.509 -0.1817  2.3651 -0.5690
 6078TIP3   OH239792   0.958   6.101   6.398 -0.3009 -0.2511  0.4787
 6078TIP3    H139793   1.023   6.041   6.434 -0.8939 -0.9314  0.4398
 6078TIP3    H239794   1.009   6.161   6.343  0.6018  0.6821  2.2258
 6079TIP3   OH239795   4.435   3.155   1.342  0.1064 -0.1756 -0.3906
 6079TIP3    H139796   4.498   3.085   1.359  0.1299  0.0357  0.4442
 6079TIP3    H239797   4.486   3.235   1.349 -0.1343 -0.0289 -0.2926
 6080TIP3   OH239798   3.574   5.768   8.457  0.0210 -0.1769  0.5571
 6080TIP3    H139799   3.547   5.859   8.458  1.5178  0.3659 -1.7969
 6080TIP3    H239800   3.594   5.748   8.548 -3.7122  0.6749  1.7420
 6081TIP3   OH239801   2.625   5.282   0.010  0.4018 -0.1605  0.6146
 6081TIP3    H139802   2.615   5.347   0.080 -1.0355  1.4269 -0.9553
 6081TIP3    H239803   2.650   5.334  -0.067 -0.2856 -1.5400 -0.5886
 6082TIP3   OH239804   1.323   4.382   6.506 -0.6278  0.4144  0.6476
 6082TIP3    H139805   1.398   4.425   6.546 -1.0654  0.4508  1.4421
 6082TIP3    H239806   1.252   4.446   6.511 -0.7878  0.2814  0.1486
 6083TIP3   OH239807   2.790   5.276   1.747 -0.0471 -0.4319 -0.1982
 6083TIP3    H139808   2.878   5.239   1.741 -0.6623 -2.1344  0.8463
 6083TIP3    H239809   2.748   5.229   1.818 -1.9766  0.0173 -0.9703
 6084TIP3   OH239810   3.956   5.270   0.710  0.3863 -0.1771  0.6512
 6084TIP3    H139811   3.900   5.203   0.748 -0.7317  0.5257  0.3093
 6084TIP3    H239812   3.900   5.314   0.645  0.7378  1.7478  1.5766
 6085TIP3   OH239813   2.719   6.295   7.009  0.6347  0.8388 -0.1352
 6085TIP3    H139814   2.653   6.245   6.961 -0.4346 -0.5073  2.5268
 6085TIP3    H239815   2.800   6.246   6.997 -0.2018 -1.1351  1.5973
 6086TIP3   OH239816   5.086   4.939   1.234  0.1958  0.0291 -0.0433
 6086TIP3    H139817   4.995   4.951   1.261 -0.5222  0.0721 -2.2931
 6086TIP3    H239818   5.090   4.847   1.206  1.8340 -1.0870  3.2604
 6087TIP3   OH239819   1.274   3.145   8.159 -0.0741  0.1530 -0.2443
 6087TIP3    H139820   1.304   3.217   8.104 -0.8414  0.3839 -0.3773
 6087TIP3    H239821   1.327   3.151   8.239 -1.3165  1.9700  0.5057
 6088TIP3   OH239822   6.471   2.549   7.903  0.2809 -0.3239  0.1305
 6088TIP3    H139823   6.417   2.536   7.981 -1.1585 -1.4873 -1.0027
 6088TIP3    H239824   6.527   2.623   7.925  0.8494 -1.3859  2.7636
 6089TIP3   OH239825   0.017   0.169   7.808 -0.3339  0.5000 -0.7579
 6089TIP3    H139826  -0.064   0.137   7.769 -0.6043  0.8211 -0.4694
 6089TIP3    H239827   0.018   0.263   7.788 -1.4089  1.0847  1.5331
 6090TIP3   OH239828   0.006   6.325   0.046 -0.2485  0.0608  0.0754
 6090TIP3    H139829  -0.086   6.341   0.067 -0.5545  0.5764 -1.4943
 6090TIP3    H239830   0.036   6.408   0.008  0.5700 -0.4233 -0.3477
 6091TIP3   OH239831   0.632   2.009   7.513  0.6640  0.4764 -0.5633
 6091TIP3    H139832   0.627   2.080   7.577  0.6845  1.5009 -1.6687
 6091TIP3    H239833   0.544   1.971   7.513  0.7897  0.1421  0.3991
 6092TIP3   OH239834   2.910   4.458   7.039  0.1435 -0.2260 -0.4205
 6092TIP3    H139835   2.954   4.382   7.002  0.5460  0.0694 -0.5464
 6092TIP3    H239836   2.939   4.532   6.986 -0.9846 -0.1125 -0.9118
 6093TIP3   OH239837   5.938   5.737   1.614  0.7699  0.0448  0.3400
 6093TIP3    H139838   5.960   5.753   1.706  0.7066 -1.6539  0.6871
 6093TIP3    H239839   6.015   5.692   1.579 -0.1294 -1.4430  0.2218
 6094TIP3   OH239840   5.019   3.266   7.949  0.0115 -0.6807  0.4563
 6094TIP3    H139841   4.975   3.193   7.992  0.6518 -0.0662  2.2064
 6094TIP3    H239842   5.064   3.225   7.875 -1.3965 -1.6989  0.1165
 6095TIP3   OH239843   0.740   4.401   0.202  0.2283  0.1117 -0.0471
 6095TIP3    H139844   0.692   4.349   0.137  0.4737 -0.6494  0.3718
 6095TIP3    H239845   0.712   4.367   0.287  0.4953  0.5728  0.2341
 6096TIP3   OH239846   2.084   5.747   7.145 -0.8791 -0.1773  0.5130
 6096TIP3    H139847   2.161   5.752   7.201 -0.7670 -0.3194  0.3717
 6096TIP3    H239848   2.099   5.813   7.077  0.6147 -2.3255 -1.3727
 6097TIP3   OH239849   2.108   5.486   8.113 -0.1254 -0.5620 -0.1188
 6097TIP3    H139850   2.159   5.564   8.136  0.0876 -0.8123  0.2590
 6097TIP3    H239851   2.053   5.470   8.189 -0.0716 -0.8637 -0.1427
 6098TIP3   OH239852   6.546   5.272   6.634 -0.1534 -0.1759 -0.3494
 6098TIP3    H139853   6.462   5.314   6.616 -0.0907  0.3115  0.4237
 6098TIP3    H239854   6.611   5.326   6.589 -0.0740  0.5828  0.6314
 6099TIP3   OH239855   4.397   1.362   0.129  0.0420 -0.2038  0.0836
 6099TIP3    H139856   4.409   1.444   0.080 -1.6237  0.3598  0.5645
 6099TIP3    H239857   4.324   1.379   0.188  0.6780 -1.5469  1.3276
 6100TIP3   OH239858   1.932   0.059   0.259  0.4665 -0.1568  0.5681
 6100TIP3    H139859   1.837   0.052   0.263  0.4118  0.4651  0.4901
 6100TIP3    H239860   1.948   0.130   0.196  0.9430  0.5556  1.4635
 6101TIP3   OH239861   3.141   2.857   8.499  0.7632 -0.8147  0.0796
 6101TIP3    H139862   3.063   2.818   8.461  0.0588  0.6066  0.0114
 6101TIP3    H239863   3.126   2.854   8.594  1.9940 -3.2673  0.2806
 6102TIP3   OH239864   1.733   6.689   0.046 -0.5726 -0.2734  0.2488
 6102TIP3    H139865   1.809   6.681  -0.011 -0.6364 -1.7169  0.3297
 6102TIP3    H239866   1.665   6.728  -0.009 -0.8300 -2.2306 -0.8922
 6103TIP3   OH239867   3.285   3.198   7.245 -0.0154  0.4652  0.7806
 6103TIP3    H139868   3.344   3.127   7.270  0.5761  0.5442 -0.3505
 6103TIP3    H239869   3.342   3.267   7.212 -0.7804 -0.1319 -2.0114
 6104TIP3   OH239870   1.834   6.557   2.236  0.4058 -0.2676 -0.0738
 6104TIP3    H139871   1.904   6.617   2.211 -0.1727  0.1189 -0.8190
 6104TIP3    H239872   1.790   6.535   2.153 -1.1880  0.5565  0.4976
 6105TIP3   OH239873   0.737   4.998   0.141  0.3381 -0.4828 -0.0001
 6105TIP3    H139874   0.701   4.972   0.226 -1.2928  0.2013 -0.4448
 6105TIP3    H239875   0.795   5.071   0.161 -1.1563  0.6300  0.3985
 6106TIP3   OH239876   5.811   4.553   2.035 -0.0985  0.1131 -0.1757
 6106TIP3    H139877   5.749   4.621   2.057  0.0893  0.4330 -0.6175
 6106TIP3    H239878   5.891   4.600   2.011  0.0064 -0.2523 -0.5667
 6107TIP3   OH239879   6.033   4.556   8.437 -0.2267  0.6040  0.0973
 6107TIP3    H139880   6.040   4.640   8.392  0.8901 -0.4832 -1.8710
 6107TIP3    H239881   5.988   4.499   8.375  2.2757 -1.2393 -0.1616
 6108TIP3   OH239882   4.440   1.153   6.202 -0.0732  0.1728  0.0659
 6108TIP3    H139883   4.453   1.126   6.293  0.0583 -1.2134 -0.3437
 6108TIP3    H239884   4.397   1.078   6.161 -0.8355  1.0868 -0.8392
 6109TIP3   OH239885   0.340   6.615   1.176 -0.1676  0.6976 -0.2600
 6109TIP3    H139886   0.348   6.677   1.249  2.0667 -0.4494  0.5805
 6109TIP3    H239887   0.259   6.640   1.132 -0.9369  2.2531  1.8503
 6110TIP3   OH239888   1.129   5.118   8.127  0.1955 -0.1416 -0.4137
 6110TIP3    H139889   1.132   5.107   8.222 -2.1951 -0.9227 -0.3518
 6110TIP3    H239890   1.071   5.048   8.096  0.3212  0.5354 -2.3619
 6111TIP3   OH239891   5.855   4.551   0.035 -0.4259 -0.1655 -0.7040
 6111TIP3    H139892   5.920   4.544  -0.034 -0.1560  0.3184 -0.5034
 6111TIP3    H239893   5.902   4.525   0.115  0.0649  1.9472 -0.2545
 6112TIP3   OH239894   5.073   0.666   0.837  0.0970  0.0438  0.8136
 6112TIP3    H139895   5.166   0.681   0.823  0.2417 -0.4168  1.2482
 6112TIP3    H239896   5.068   0.619   0.920 -0.3990 -1.2251  0.1119
 6113TIP3   OH239897   5.737   4.902   0.034 -0.7823 -0.0083  0.2644
 6113TIP3    H139898   5.702   4.824  -0.010 -1.2932  0.8496 -0.9364
 6113TIP3    H239899   5.662   4.960   0.041 -0.0469  1.0645 -0.4819
 6114TIP3   OH239900   1.870   1.641   7.888 -0.3098 -0.3129  0.1430
 6114TIP3    H139901   1.961   1.639   7.916  0.1068  3.1288 -0.5657
 6114TIP3    H239902   1.858   1.560   7.839  1.5359 -2.1051  2.3854
 6115TIP3   OH239903   1.201   4.203   2.717 -0.2112  0.2560  0.1257
 6115TIP3    H139904   1.133   4.156   2.670 -0.7568  0.8021  0.3550
 6115TIP3    H239905   1.242   4.136   2.772 -0.9537  0.0246  0.4219
 6116TIP3   OH239906   2.925   5.094   1.957 -1.0992 -0.1682 -0.4042
 6116TIP3    H139907   3.009   5.112   1.998 -2.9436  0.3525  3.6279
 6116TIP3    H239908   2.893   5.014   2.000 -4.1986  1.7071  1.1370
 6117TIP3   OH239909   6.551   5.936   0.014  0.3653 -0.0857 -0.5468
 6117TIP3    H139910   6.623   5.965  -0.042  0.3538 -1.0561 -1.0795
 6117TIP3    H239911   6.562   5.841   0.020  0.0580 -0.0620  0.6744
 6118TIP3   OH239912   3.862   3.502   0.579  0.4571 -0.1347  0.0951
 6118TIP3    H139913   3.887   3.587   0.543  1.3666  0.4178  1.8953
 6118TIP3    H239914   3.940   3.471   0.625 -0.0132 -1.7398 -0.1217
 6119TIP3   OH239915   6.536   6.304   1.672 -0.0504  0.1067  0.1431
 6119TIP3    H139916   6.520   6.215   1.702 -0.8486 -0.2581 -1.2612
 6119TIP3    H239917   6.481   6.313   1.594 -1.3270  2.3888  1.1831
 6120TIP3   OH239918   2.379   2.095   7.993 -0.1074 -0.6909  0.1065
 6120TIP3    H139919   2.448   2.095   8.060  0.0184  0.9311  0.0138
 6120TIP3    H239920   2.309   2.147   8.031 -0.4418 -0.5921 -0.6326
 6121TIP3   OH239921   0.949   5.741   8.259 -0.2313  0.0440 -0.1041
 6121TIP3    H139922   1.032   5.788   8.259 -0.2893  0.1730 -1.2334
 6121TIP3    H239923   0.917   5.748   8.349 -0.0280  1.7914 -0.1415
 6122TIP3   OH239924   2.836   0.932   1.962  0.4044 -0.0430  0.0380
 6122TIP3    H139925   2.850   0.950   1.869 -1.1424  1.9529  0.1082
 6122TIP3    H239926   2.915   0.965   2.005  0.9442 -0.5827 -0.5235
 6123TIP3   OH239927   0.258   5.705   8.229  0.1147  0.1821 -0.4492
 6123TIP3    H139928   0.254   5.792   8.269 -0.8457 -0.1469  0.2117
 6123TIP3    H239929   0.204   5.650   8.286  0.2915 -0.7330 -1.1425
 6124TIP3   OH239930   0.943   2.070   7.488 -0.1731 -0.3370  0.8827
 6124TIP3    H139931   0.871   2.011   7.508 -1.3549  0.8780  0.3895
 6124TIP3    H239932   0.909   2.157   7.511  0.2405  0.5450 -1.6012
 6125TIP3   OH239933   2.616   5.528   1.166  0.0753 -0.0467  0.3479
 6125TIP3    H139934   2.542   5.587   1.156 -0.6085 -1.1673 -1.8432
 6125TIP3    H239935   2.620   5.480   1.084  2.4059 -1.0014  0.9268
 6126TIP3   OH239936   2.369   4.881   7.742 -0.0974  0.4826  0.5982
 6126TIP3    H139937   2.325   4.880   7.657 -0.3060  1.2986  0.6835
 6126TIP3    H239938   2.351   4.795   7.780 -0.6113  0.3773  0.1215
 6127TIP3   OH239939   0.340   2.352   2.360 -0.0066 -0.6072 -0.0210
 6127TIP3    H139940   0.371   2.429   2.313  1.4607 -0.8600  0.4762
 6127TIP3    H239941   0.401   2.282   2.336  0.2585 -0.9585  1.5236
 6128TIP3   OH239942   4.402   3.698   8.166 -0.5279  0.4360 -0.2066
 6128TIP3    H139943   4.455   3.624   8.194 -0.7253  0.6393  0.7156
 6128TIP3    H239944   4.312   3.666   8.170 -0.5310  0.2278 -1.3648
 6129TIP3   OH239945   6.199   0.893   6.959 -0.0335 -0.3811  0.4632
 6129TIP3    H139946   6.204   0.846   6.876  1.7742  0.3811  0.0806
 6129TIP3    H239947   6.108   0.922   6.965 -0.2478 -0.5938 -1.1783
 6130TIP3   OH239948   6.496   6.137   8.175 -0.9334  0.0786  0.2400
 6130TIP3    H139949   6.458   6.174   8.095 -0.2276 -0.8886 -0.5549
 6130TIP3    H239950   6.590   6.135   8.158 -0.7795 -0.1681  1.0877
 6131TIP3   OH239951   2.472   3.654   2.291  0.3851  0.2967 -0.2971
 6131TIP3    H139952   2.545   3.604   2.255  0.2391  0.6616 -1.1136
 6131TIP3    H239953   2.413   3.668   2.217 -0.6748 -0.2665  0.4207
 6132TIP3   OH239954   4.955   2.213   1.596  0.7767  0.3378 -0.2110
 6132TIP3    H139955   5.049   2.224   1.585  1.0158 -1.4092 -0.2546
 6132TIP3    H239956   4.935   2.131   1.549 -0.4547 -0.2305  1.2342
 6133TIP3   OH239957   0.046   1.539   8.079 -0.5050  0.0204 -0.2212
 6133TIP3    H139958   0.093   1.472   8.129 -0.8121 -0.1669 -0.1793
 6133TIP3    H239959   0.110   1.572   8.016 -0.3128 -0.2208 -0.1527
 6134TIP3   OH239960   0.183   5.494   7.159 -0.3405 -0.1969 -0.0424
 6134TIP3    H139961   0.214   5.553   7.228  1.8155 -0.9442 -0.2978
 6134TIP3    H239962   0.206   5.539   7.078 -3.3454  0.9298 -0.3895
 6135TIP3   OH239963   4.716   0.974   1.151 -0.1321 -0.2863 -0.0702
 6135TIP3    H139964   4.662   0.963   1.228 -0.1060 -1.9875 -0.2509
 6135TIP3    H239965   4.656   1.004   1.083 -0.6897 -1.3176 -0.0462
 6136TIP3   OH239966   1.676   2.834   8.210  0.0808  0.6649  0.1543
 6136TIP3    H139967   1.754   2.807   8.258  0.5775 -0.0594 -1.0134
 6136TIP3    H239968   1.665   2.767   8.142 -2.1206  0.1990  0.8807
 6137TIP3   OH239969   0.803   1.267   1.174  0.3823  0.3596 -0.3410
 6137TIP3    H139970   0.733   1.272   1.240  1.7219  2.8845  1.0786
 6137TIP3    H239971   0.789   1.183   1.131 -2.3811 -0.0824  1.1238
 6138TIP3   OH239972   1.127   4.587   7.339  0.1451 -0.5060 -1.1875
 6138TIP3    H139973   1.090   4.600   7.252 -1.6616  0.3051 -0.3740
 6138TIP3    H239974   1.062   4.532   7.384 -0.0814  0.8765  0.2730
 6139TIP3   OH239975   6.553   0.317   0.058  0.4029 -0.2422  0.5053
 6139TIP3    H139976   6.597   0.321  -0.027 -1.2723 -1.5936 -0.4952
 6139TIP3    H239977   6.477   0.260   0.043  0.1873 -0.7109  2.9775
 6140TIP3   OH239978   5.191   3.494   0.772 -0.9613  0.2310 -0.2978
 6140TIP3    H139979   5.219   3.425   0.711  1.6133  0.7287  0.2056
 6140TIP3    H239980   5.161   3.565   0.716 -1.4136 -0.4227 -0.8953
 6141TIP3   OH239981   6.023   0.811   2.195 -0.2297 -0.2288 -0.1015
 6141TIP3    H139982   6.021   0.721   2.229 -0.0117 -0.3742 -0.4675
 6141TIP3    H239983   6.115   0.837   2.202 -0.0863 -0.4424 -1.0373
 6142TIP3   OH239984   5.824   4.748   0.241 -0.2932  0.2918  0.0055
 6142TIP3    H139985   5.790   4.824   0.194 -1.3027 -0.8013 -1.0952
 6142TIP3    H239986   5.869   4.696   0.174  0.2309 -0.1770  0.7049
 6143TIP3   OH239987   4.953   6.700   1.265 -0.4115  0.2188 -0.0312
 6143TIP3    H139988   4.940   6.609   1.236 -1.1256  0.3193 -0.0396
 6143TIP3    H239989   4.948   6.695   1.361  0.2203  0.1488 -0.0008
 6144TIP3   OH239990   0.489   0.521   0.483  0.2490 -0.1336  0.1429
 6144TIP3    H139991   0.491   0.504   0.577 -0.5100  0.2142  0.2318
 6144TIP3    H239992   0.499   0.616   0.475 -0.7399 -0.0285 -0.0572
 6145TIP3   OH239993   2.131   5.986   1.400  0.0822  0.3633  0.2085
 6145TIP3    H139994   2.189   5.911   1.408 -1.6483 -0.8582  3.1619
 6145TIP3    H239995   2.159   6.046   1.469 -0.0014  1.3913 -0.6258
 6146TIP3   OH239996   5.048   0.038   1.121  0.3494 -0.6911 -0.2848
 6146TIP3    H139997   4.992  -0.034   1.150  0.4109 -0.8006 -0.4340
 6146TIP3    H239998   5.002   0.076   1.046  0.9734 -1.4568 -1.0860
 6147TIP3   OH239999   6.322   6.844   7.717 -0.5437  0.2610 -0.2651
 6147TIP3    H140000   6.353   6.816   7.630 -2.7680 -1.5078 -0.5540
 6147TIP3    H240001   6.287   6.932   7.702  1.3965  1.0534 -0.5469
 6148TIP3   OH240002   2.405   3.174   6.938 -0.0876  0.5556  0.0030
 6148TIP3    H140003   2.361   3.138   6.861 -1.2986  1.2154  0.3586
 6148TIP3    H240004   2.462   3.242   6.903 -1.9789  2.1201 -0.2103
 6149TIP3   OH240005   1.471   4.119   0.825 -0.0445  0.7912 -0.0431
 6149TIP3    H140006   1.399   4.156   0.774 -0.7544 -0.9569 -0.3805
 6149TIP3    H240007   1.428   4.077   0.900  0.7410  0.8562  0.4546
 6150TIP3   OH240008   1.562   4.973   8.160 -0.3343  0.4298 -0.5065
 6150TIP3    H140009   1.648   4.992   8.122 -0.1073  0.0556 -0.1920
 6150TIP3    H240010   1.508   5.049   8.137 -0.3530  0.0049 -1.9726
 6151TIP3   OH240011   5.308   1.126   1.555 -0.1015  0.0680 -0.0571
 6151TIP3    H140012   5.272   1.185   1.488 -0.1868 -2.4977 -2.4272
 6151TIP3    H240013   5.242   1.125   1.624 -1.4885  0.4899 -1.3184
 6152TIP3   OH240014   1.690   0.129   8.355  0.2950  0.1381  0.4122
 6152TIP3    H140015   1.622   0.063   8.345  2.6213 -2.4433  0.6181
 6152TIP3    H240016   1.649   0.197   8.409 -1.3716 -2.4638  2.6736
 6153TIP3   OH240017   2.621   6.419   1.484 -0.2128 -0.7706 -0.5410
 6153TIP3    H140018   2.553   6.367   1.440  0.0378 -1.4196 -0.1774
 6153TIP3    H240019   2.573   6.486   1.532 -0.5376 -0.5844 -1.1156
 6154TIP3   OH240020   5.780   4.131   7.016 -0.2164 -0.1091 -0.5902
 6154TIP3    H140021   5.854   4.074   7.034 -0.4093  0.2745  1.8278
 6154TIP3    H240022   5.800   4.172   6.932  1.0097 -1.9620 -1.2651
 6155TIP3   OH240023   0.532   2.290   7.602  0.2727  0.5791 -0.4616
 6155TIP3    H140024   0.473   2.363   7.584 -1.0820 -0.6036 -1.0786
 6155TIP3    H240025   0.519   2.270   7.694  0.3093  0.8276 -0.4018
 6156TIP3   OH240026   4.107   4.096   8.576 -0.1890  0.4220  0.1888
 6156TIP3    H140027   4.119   4.036   8.649  0.0881 -2.7008 -2.1669
 6156TIP3    H240028   4.192   4.138   8.565 -0.1387  0.6744  1.4355
 6157TIP3   OH240029   5.268   1.290   8.031 -0.6643 -0.0930 -0.3820
 6157TIP3    H140030   5.316   1.230   7.975 -0.3850 -0.3215  0.0909
 6157TIP3    H240031   5.205   1.333   7.973 -1.0293 -1.0119 -0.6701
 6158TIP3   OH240032   1.835   5.993   8.560 -0.6647 -0.2287  0.5337
 6158TIP3    H140033   1.768   5.962   8.621  0.4153 -0.1399  1.8101
 6158TIP3    H240034   1.828   6.089   8.563  0.6728 -0.1380  2.0793
 6159TIP3   OH240035   2.941   2.143   7.272 -0.9079 -0.3152 -0.3986
 6159TIP3    H140036   2.873   2.133   7.206  0.3249 -2.6137 -1.4479
 6159TIP3    H240037   3.023   2.138   7.222  0.0689  1.1692  0.9538
 6160TIP3   OH240038   0.788   1.229   0.541 -0.4218  0.0734 -0.1539
 6160TIP3    H140039   0.815   1.249   0.451 -2.7006 -1.6020 -1.3313
 6160TIP3    H240040   0.844   1.155   0.566 -1.5042 -1.2034 -1.2915
 6161TIP3   OH240041   0.368   5.852   2.262  0.7797  0.8657 -0.1979
 6161TIP3    H140042   0.282   5.831   2.299  0.2728 -1.7337 -2.4819
 6161TIP3    H240043   0.415   5.897   2.332 -1.2184 -0.8174  2.3850
 6162TIP3   OH240044   1.470   2.566   7.136 -0.5358  0.4395 -0.5435
 6162TIP3    H140045   1.498   2.475   7.130  0.3132  0.4249  2.3696
 6162TIP3    H240046   1.540   2.615   7.094 -0.1855 -0.1478 -0.6613
 6163TIP3   OH240047   2.933   4.567   0.536 -0.2432  0.0335  0.0387
 6163TIP3    H140048   2.997   4.509   0.576  1.1117  0.2202 -1.7530
 6163TIP3    H240049   2.882   4.511   0.477  1.1811  0.6142 -1.8238
 6164TIP3   OH240050   1.508   6.499   1.189  0.5036  0.5469  0.0441
 6164TIP3    H140051   1.443   6.464   1.129 -1.5643  0.8455  1.9609
 6164TIP3    H240052   1.494   6.594   1.187 -0.4146  0.4929  1.7712
 6165TIP3   OH240053   6.198   5.041   7.223 -0.5104 -0.4131 -0.3478
 6165TIP3    H140054   6.206   4.968   7.161 -1.6902 -0.2623 -0.6857
 6165TIP3    H240055   6.108   5.036   7.255 -0.4561  0.6178 -0.0185
 6166TIP3   OH240056   0.167   0.299   2.256 -0.7928  0.0496 -0.0235
 6166TIP3    H140057   0.079   0.333   2.243 -0.5478  0.4864 -0.5336
 6166TIP3    H240058   0.182   0.241   2.182 -0.7984 -0.3355  0.2725
 6167TIP3   OH240059   6.739   1.074   0.402  0.0574 -0.4583 -0.0703
 6167TIP3    H140060   6.814   1.133   0.397 -0.3327 -0.0047 -0.6276
 6167TIP3    H240061   6.692   1.087   0.320 -0.9559 -0.3009  0.5122
 6168TIP3   OH240062   5.993   6.146   8.026 -0.1927 -0.0318 -0.3725
 6168TIP3    H140063   6.044   6.122   8.104 -1.2195 -0.8321  0.0857
 6168TIP3    H240064   6.037   6.099   7.954  0.2448  0.0074 -0.1373
 6169TIP3   OH240065   0.447   3.785   2.337  0.2263  0.1838  0.3339
 6169TIP3    H140066   0.421   3.700   2.302 -0.3666  0.9125 -1.0717
 6169TIP3    H240067   0.524   3.809   2.286  0.5485  0.3729  0.9056
 6170TIP3   OH240068   4.234   1.092   2.186 -0.8596  0.0743 -0.1753
 6170TIP3    H140069   4.281   1.165   2.226 -0.5642  0.7512 -1.6848
 6170TIP3    H240070   4.300   1.044   2.137 -1.1988 -0.7831  0.1829
 6171TIP3   OH240071   6.267   1.023   1.790 -0.4964 -0.0707 -0.0746
 6171TIP3    H140072   6.260   1.051   1.881  0.5626  1.8250 -0.5251
 6171TIP3    H240073   6.245   0.930   1.792  0.0778 -0.2164  2.2032
 6172TIP3   OH240074   4.782   4.059   6.725 -0.0915  0.2574 -0.8493
 6172TIP3    H140075   4.833   4.018   6.795 -1.5505 -0.6562 -0.2913
 6172TIP3    H240076   4.848   4.091   6.664  1.1826  0.0218  0.3457
 6173TIP3   OH240077   6.454   4.780   6.389 -0.4340  0.1391  0.4458
 6173TIP3    H140078   6.363   4.758   6.366 -0.0113 -1.2606 -0.0023
 6173TIP3    H240079   6.502   4.698   6.375  0.6963  0.5426  1.8122
 6174TIP3   OH240080   4.132   5.800   1.378  0.3649 -0.1081  0.0956
 6174TIP3    H140081   4.187   5.868   1.340  0.2961 -0.4732 -0.6600
 6174TIP3    H240082   4.111   5.742   1.306  0.6341 -1.0814  0.7780
 6175TIP3   OH240083   0.631   5.613   0.250 -0.3625  0.1638 -0.1579
 6175TIP3    H140084   0.722   5.625   0.276  0.4847  0.6054 -3.0140
 6175TIP3    H240085   0.583   5.681   0.298  0.6246 -0.5092  1.9033
 6176TIP3   OH240086   1.147   4.072   1.937  0.1759  0.0849 -0.4785
 6176TIP3    H140087   1.136   4.086   2.031 -2.3508  1.6458 -0.9313
 6176TIP3    H240088   1.227   4.120   1.915  0.3894  0.3079  0.7257
 6177TIP3   OH240089   1.876   5.045   8.458 -0.4114 -0.7166 -0.2545
 6177TIP3    H140090   1.917   5.112   8.403  1.1907 -0.9210  0.6632
 6177TIP3    H240091   1.794   5.085   8.486  0.3551  0.7372  0.0006
 6178TIP3   OH240092   6.384   6.671   0.419 -0.0111 -0.3246 -0.1125
 6178TIP3    H140093   6.423   6.680   0.506 -1.3049 -0.2892  0.4960
 6178TIP3    H240094   6.391   6.577   0.399  1.0810 -0.1964 -0.3683
 6179TIP3   OH240095   4.162   1.327   1.152 -0.0776  0.4343  0.1960
 6179TIP3    H140096   4.248   1.304   1.186 -0.2687 -1.4525 -0.4818
 6179TIP3    H240097   4.176   1.343   1.059 -0.0534  2.7158  0.5416
 6180TIP3   OH240098   0.329   0.002   8.133 -0.2969 -0.0328  0.0739
 6180TIP3    H140099   0.381   0.003   8.052 -1.2623  0.9144 -0.5493
 6180TIP3    H240100   0.394   0.007   8.203  0.6423 -1.9724 -0.5650
 6181TIP3   OH240101   4.639   3.900   7.460  0.4397  0.1068  0.2366
 6181TIP3    H140102   4.554   3.876   7.495  0.2969  1.1935  0.6818
 6181TIP3    H240103   4.639   3.996   7.459  0.6782  0.1387 -2.1820
 6182TIP3   OH240104   1.642   4.935   1.105 -0.5555 -0.0826  0.2226
 6182TIP3    H140105   1.576   4.992   1.066 -1.3254  0.1442  1.7746
 6182TIP3    H240106   1.696   4.993   1.159 -0.3498 -0.5742  0.5613
 6183TIP3   OH240107   5.829   5.152   1.123 -0.9897 -0.2393  0.3654
 6183TIP3    H140108   5.869   5.239   1.116 -0.0975 -0.7503 -1.3012
 6183TIP3    H240109   5.899   5.096   1.156 -0.3805 -1.0337 -2.0734
 6184TIP3   OH240110   4.610   3.902   6.566 -0.1289  0.0625 -0.3063
 6184TIP3    H140111   4.654   3.883   6.483 -1.4163  1.4652 -1.3712
 6184TIP3    H240112   4.674   3.954   6.616  0.8008 -1.1190 -0.2265
 6185TIP3   OH240113   1.008   2.429   7.094  0.2439  0.1377  0.3847
 6185TIP3    H140114   1.029   2.422   7.001 -2.0380 -0.4170 -0.1465
 6185TIP3    H240115   1.077   2.485   7.130  3.5551 -2.8972 -0.7477
 6186TIP3   OH240116   3.292   5.323   0.249 -0.9541  0.6944  0.0610
 6186TIP3    H140117   3.222   5.264   0.277  1.1872 -3.1219 -1.8249
 6186TIP3    H240118   3.304   5.304   0.156  3.3326  0.0843  0.5339
 6187TIP3   OH240119   1.237   5.105   7.750  0.0309 -0.1299  0.2697
 6187TIP3    H140120   1.311   5.145   7.705 -0.1177 -1.8392 -1.6686
 6187TIP3    H240121   1.274   5.069   7.830  0.9160  0.6087  0.2031
 6188TIP3   OH240122   6.270   4.627   0.113  0.3000  0.2799  0.1428
 6188TIP3    H140123   6.351   4.585   0.143 -1.4402 -1.5912  2.6364
 6188TIP3    H240124   6.246   4.686   0.184 -0.3415  1.1058 -0.7413
 6189TIP3   OH240125   3.756   5.551   6.638  0.3888 -0.1783  0.1715
 6189TIP3    H140126   3.665   5.546   6.667  0.3673  1.3518  0.4775
 6189TIP3    H240127   3.796   5.470   6.669 -0.8039 -0.7666  0.2330
 6190TIP3   OH240128   0.479   0.088   8.331  0.6380 -0.6819 -0.5534
 6190TIP3    H140129   0.424   0.086   8.409  0.6455 -0.1798 -0.5323
 6190TIP3    H240130   0.515   0.177   8.329  1.9903 -1.2000 -0.1938
 6191TIP3   OH240131   1.044   1.214   7.353  0.5392 -0.0502 -0.1407
 6191TIP3    H140132   1.095   1.147   7.308 -0.9789 -1.5356  0.2576
 6191TIP3    H240133   0.969   1.167   7.389 -0.9102  1.9610 -0.3673
 6192TIP3   OH240134   0.236   5.755   0.557  0.3014  0.1341 -0.3440
 6192TIP3    H140135   0.159   5.783   0.508 -0.6329 -1.2135  0.2935
 6192TIP3    H240136   0.227   5.799   0.642  1.0746  1.1923 -0.7850
 6193TIP3   OH240137   1.638   0.435   2.472  0.2477 -0.2172  0.1294
 6193TIP3    H140138   1.717   0.403   2.428  0.8054 -1.5934  2.0327
 6193TIP3    H240139   1.663   0.522   2.505  0.5668 -0.1610 -0.2449
 6194TIP3   OH240140   2.825   1.310   8.273 -0.0208 -0.0431 -0.0003
 6194TIP3    H140141   2.849   1.403   8.264  0.1938 -0.0326  0.6504
 6194TIP3    H240142   2.827   1.294   8.367 -1.1247 -0.4323 -0.0258
 6195TIP3   OH240143   3.446   0.627   6.963  0.3101 -0.2958  0.0002
 6195TIP3    H140144   3.538   0.631   6.986  0.6407  0.4604 -1.3450
 6195TIP3    H240145   3.445   0.626   6.867 -1.1123  2.4791 -0.1202
 6196TIP3   OH240146   0.629   2.245   0.522 -0.5469 -0.2883 -0.1215
 6196TIP3    H140147   0.711   2.277   0.559 -1.2633 -0.2674  1.5441
 6196TIP3    H240148   0.578   2.325   0.506 -1.1082 -0.3966  1.0287
 6197TIP3   OH240149   0.534   0.118   7.914 -0.2649 -0.1694  0.0596
 6197TIP3    H140150   0.582   0.193   7.879 -0.8217  1.4074  2.4051
 6197TIP3    H240151   0.454   0.113   7.860 -0.1368  0.8145 -0.2406
 6198TIP3   OH240152   2.464   3.496   7.377  0.1828 -0.3399 -0.4960
 6198TIP3    H140153   2.507   3.564   7.429 -1.4916 -0.1072  0.6745
 6198TIP3    H240154   2.448   3.538   7.292 -3.8193  2.1523  1.1797
 6199TIP3   OH240155   5.250   1.567   1.475 -0.0058  0.0620  0.4709
 6199TIP3    H140156   5.329   1.577   1.528  1.2318 -0.6906 -1.1537
 6199TIP3    H240157   5.190   1.518   1.531  0.9781 -0.1059  1.4242
 6200TIP3   OH240158   0.173   2.598   1.930  0.3064 -0.2162 -0.5586
 6200TIP3    H140159   0.203   2.663   1.992  0.0709 -0.8613  0.2467
 6200TIP3    H240160   0.218   2.517   1.955 -3.3566 -1.7433  1.9227
 6201TIP3   OH240161   1.463   3.673   0.994  0.0898  0.1281  0.2133
 6201TIP3    H140162   1.453   3.595   0.940  1.0823 -0.1926  0.4806
 6201TIP3    H240163   1.548   3.709   0.969  0.6907 -0.1692  1.7209
 6202TIP3   OH240164   4.786   1.261   1.156 -0.2987  0.0200  0.2127
 6202TIP3    H140165   4.867   1.280   1.109  0.2350  0.4846  1.2800
 6202TIP3    H240166   4.793   1.169   1.181 -1.4667 -0.8403 -2.2242
 6203TIP3   OH240167   3.244   0.434   7.720  0.0264  0.2301  0.9434
 6203TIP3    H140168   3.318   0.442   7.661  1.9782  1.7126  3.3959
 6203TIP3    H240169   3.184   0.504   7.694 -1.6473 -2.1282 -2.2764
 6204TIP3   OH240170   1.271   5.814   0.557  0.1516 -0.0271  0.2974
 6204TIP3    H140171   1.354   5.785   0.595  3.2972  2.7746 -3.5698
 6204TIP3    H240172   1.267   5.908   0.576 -1.6409  0.0975 -0.4831
 6205TIP3   OH240173   4.846   4.632   2.057 -0.7026 -0.5844  0.0554
 6205TIP3    H140174   4.785   4.583   2.002  0.1506 -0.6446 -0.8672
 6205TIP3    H240175   4.933   4.601   2.030 -0.2428 -0.1549  1.0035
 6206TIP3   OH240176   6.839   1.421   7.353  0.2160  0.2515  0.0846
 6206TIP3    H140177   6.825   1.377   7.436  1.2370  1.0315  0.7029
 6206TIP3    H240178   6.865   1.510   7.378  0.7942  0.4209 -1.0504
 6207TIP3   OH240179   2.171   2.430   7.641 -0.2915  0.0772  0.0151
 6207TIP3    H140180   2.126   2.495   7.695  1.9132  1.4591  0.3631
 6207TIP3    H240181   2.128   2.435   7.555 -1.5753  0.3928  0.6633
 6208TIP3   OH240182   4.851   4.455   0.912  0.5397 -0.1802  0.2585
 6208TIP3    H140183   4.803   4.497   0.841 -0.6397 -1.5979  0.1707
 6208TIP3    H240184   4.933   4.505   0.919 -0.1511  1.1616 -0.8069
 6209TIP3   OH240185   2.385   2.855   7.492  0.1221  0.3232  0.0697
 6209TIP3    H140186   2.370   2.833   7.584  0.0213 -1.0832 -0.2647
 6209TIP3    H240187   2.354   2.779   7.443  3.5609 -0.6189 -0.9481
 6210TIP3   OH240188   2.340   5.576   7.493  0.5278  0.3568 -0.5163
 6210TIP3    H140189   2.345   5.582   7.589  2.8544  2.2107 -0.6817
 6210TIP3    H240190   2.288   5.497   7.478  0.1106 -0.0253  2.2608
 6211TIP3   OH240191   6.553   3.224   7.933 -0.2712 -0.5742 -0.7691
 6211TIP3    H140192   6.598   3.141   7.921  0.2978 -0.2111 -1.1937
 6211TIP3    H240193   6.612   3.276   7.988 -0.1508 -0.0978 -1.3283
 6212TIP3   OH240194   5.526   5.557   8.357 -0.3959 -0.0677  0.7628
 6212TIP3    H140195   5.566   5.518   8.434  1.3546  1.2953  0.6198
 6212TIP3    H240196   5.539   5.652   8.369 -1.4480  0.2642 -0.4753
 6213TIP3   OH240197   0.212   0.121   7.026 -0.4417 -0.2984 -0.1904
 6213TIP3    H140198   0.265   0.067   7.084 -2.2214 -1.6090  0.3015
 6213TIP3    H240199   0.148   0.060   6.989 -3.2377  1.5934  1.2041
 6214TIP3   OH240200   5.388   2.656   8.581  0.1127 -0.1467 -0.0983
 6214TIP3    H140201   5.435   2.739   8.598  0.9713 -0.5638 -0.3603
 6214TIP3    H240202   5.311   2.661   8.636  1.6953 -0.5082  2.3080
 6215TIP3   OH240203   1.100   4.204   7.302 -0.1040  0.4662 -0.8180
 6215TIP3    H140204   1.132   4.120   7.335 -0.9977 -0.4610 -2.2605
 6215TIP3    H240205   1.105   4.262   7.378  1.9301 -0.4637 -0.1607
 6216TIP3   OH240206   5.299   0.180   6.883 -0.3393 -0.2058 -0.3451
 6216TIP3    H140207   5.314   0.236   6.959 -2.2579  1.8018 -1.3422
 6216TIP3    H240208   5.381   0.183   6.835  0.3779 -0.2246  0.8259
 6217TIP3   OH240209   3.354   3.184   0.358  0.0596  0.1659 -0.4722
 6217TIP3    H140210   3.413   3.258   0.376  0.2527  0.1129 -0.8553
 6217TIP3    H240211   3.373   3.161   0.267  0.5729 -0.8615 -0.1290
 6218TIP3   OH240212   4.025   1.434   0.881 -0.2255  0.1110  0.2213
 6218TIP3    H140213   3.946   1.477   0.913  0.0461  0.6505  0.1696
 6218TIP3    H240214   3.995   1.347   0.854 -0.8518  0.3958 -0.0246
 6219TIP3   OH240215   6.382   6.264   7.930  0.1518  0.4412 -0.5294
 6219TIP3    H140216   6.442   6.198   7.894 -1.2017 -1.6599  0.8346
 6219TIP3    H240217   6.319   6.280   7.860 -0.0502 -0.4502 -0.5614
 6220TIP3   OH240218   0.846   3.330   2.545  0.1846 -0.3729  0.3936
 6220TIP3    H140219   0.799   3.413   2.560  0.4831 -0.0711 -0.3000
 6220TIP3    H240220   0.810   3.298   2.462  0.8207 -0.4096  0.1325
 6221TIP3   OH240221   5.324   5.821   0.691  0.1465 -0.4360 -0.8492
 6221TIP3    H140222   5.380   5.881   0.643 -1.1749  0.4873 -1.3022
 6221TIP3    H240223   5.374   5.739   0.697  1.7686  0.5436 -0.6665
 6222TIP3   OH240224   5.907   1.148   7.910  0.1773  0.0517  0.3045
 6222TIP3    H140225   5.838   1.197   7.955 -0.9900 -2.0115  0.8812
 6222TIP3    H240226   5.949   1.213   7.854 -2.1341  1.4297  0.0385
 6223TIP3   OH240227   1.908   0.623   0.930 -0.1043 -0.0069  0.4211
 6223TIP3    H140228   1.858   0.542   0.941 -1.2703  0.9286  2.8714
 6223TIP3    H240229   1.851   0.678   0.875  1.1378 -1.0979 -2.1197
 6224TIP3   OH240230   3.096   4.510   1.630 -0.7259  0.6652 -0.5127
 6224TIP3    H140231   3.086   4.444   1.562  1.4331 -0.0591 -0.2148
 6224TIP3    H240232   3.021   4.498   1.688 -0.2076 -1.7788 -0.2724
 6225TIP3   OH240233   5.524   5.235   6.778  0.9183  0.6948  0.1960
 6225TIP3    H140234   5.538   5.161   6.837  0.8619  0.9339  0.5131
 6225TIP3    H240235   5.463   5.292   6.825  0.0713  0.4063 -0.5105
 6226TIP3   OH240236   4.372   2.777   8.270 -0.1932  0.3224  0.2140
 6226TIP3    H140237   4.323   2.857   8.250  0.3497  0.3542 -1.1033
 6226TIP3    H240238   4.463   2.804   8.270 -0.0242 -0.2359  0.1048
 6227TIP3   OH240239   5.192   0.940   8.471 -0.7003  0.7918 -0.1102
 6227TIP3    H140240   5.106   0.928   8.511 -0.3282  1.6302  0.9975
 6227TIP3    H240241   5.175   0.989   8.391 -1.4349 -0.7262 -0.9248
 6228TIP3   OH240242   3.405   4.576   8.321 -0.2366  0.3735  0.0127
 6228TIP3    H140243   3.401   4.534   8.236 -1.1572 -0.8952  0.6526
 6228TIP3    H240244   3.354   4.657   8.310 -3.2039 -1.3179  0.1334
 6229TIP3   OH240245   0.892   2.721   8.011 -0.3718 -0.1487 -0.2919
 6229TIP3    H140246   0.841   2.802   8.014 -0.5133 -0.1703 -1.7280
 6229TIP3    H240247   0.950   2.727   8.087 -1.0524  0.8412  0.1724
 6230TIP3   OH240248   5.730   1.226   6.365 -0.6309  0.3035  0.1285
 6230TIP3    H140249   5.640   1.204   6.344  0.1343 -1.2269 -1.8929
 6230TIP3    H240250   5.746   1.309   6.319 -1.5818  1.8508  2.3693
 6231TIP3   OH240251   5.782   5.351   6.754 -0.1550 -0.0679  0.0378
 6231TIP3    H140252   5.791   5.372   6.661 -0.5370  2.1310  0.4555
 6231TIP3    H240253   5.695   5.312   6.762 -0.4484  0.4870 -0.4040
 6232TIP3   OH240254   0.407   6.647   0.364  0.4660 -0.8637  0.0444
 6232TIP3    H140255   0.324   6.656   0.410  1.1292  1.5200  0.9220
 6232TIP3    H240256   0.473   6.648   0.434  1.3208 -0.8088 -0.7435
 6233TIP3   OH240257   2.853   3.030   7.685 -0.0027 -0.3776 -0.1416
 6233TIP3    H140258   2.925   3.087   7.711 -0.2959 -0.0472 -0.0390
 6233TIP3    H240259   2.824   2.989   7.766  0.3599 -0.8591 -0.2499
 6234TIP3   OH240260   5.136   4.779   2.225 -0.4495  0.7602 -0.1383
 6234TIP3    H140261   5.122   4.690   2.193 -0.6840  0.5870  0.4339
 6234TIP3    H240262   5.050   4.807   2.257 -0.1313  0.7840  0.6998
 6235TIP3   OH240263   0.304   1.650   6.890 -0.2257 -0.1824 -0.3455
 6235TIP3    H140264   0.252   1.661   6.811 -0.0711  0.5233 -0.3592
 6235TIP3    H240265   0.278   1.723   6.946  1.0177  0.4191 -0.5051
 6236TIP3   OH240266   6.890   6.180   1.238 -0.2214 -0.4133  0.0125
 6236TIP3    H140267   6.815   6.127   1.211 -0.4708  0.2058 -0.5538
 6236TIP3    H240268   6.853   6.266   1.255  0.7012  0.7663 -3.1684
 6237TIP3   OH240269   2.769   3.143   6.911 -0.9425 -0.2976 -0.5669
 6237TIP3    H140270   2.752   3.133   6.818  0.0405  1.8863 -1.0240
 6237TIP3    H240271   2.683   3.134   6.953 -1.3165 -1.8270 -1.5807
 6238TIP3   OH240272   1.790   6.864   6.226  0.5511 -0.5003 -0.2227
 6238TIP3    H140273   1.790   6.789   6.286  0.7650 -0.4811 -0.1976
 6238TIP3    H240274   1.716   6.848   6.168 -1.1320  0.6458  1.4860
 6239TIP3   OH240275   0.707   4.723   7.493 -0.3755 -0.0837  0.1540
 6239TIP3    H140276   0.629   4.700   7.544  0.2154 -1.7878  0.3570
 6239TIP3    H240277   0.774   4.662   7.523  0.9150  1.0110 -0.3826
 6240TIP3   OH240278   1.256   4.719   2.056  0.3308 -0.2031  0.6091
 6240TIP3    H140279   1.185   4.773   2.089 -0.8903 -0.4380 -1.4985
 6240TIP3    H240280   1.259   4.644   2.116 -1.3156 -0.2764  0.6231
 6241TIP3   OH240281   0.778   0.718   7.199  0.1235  0.2762  0.2951
 6241TIP3    H140282   0.806   0.779   7.131  2.5545 -1.3763 -0.2904
 6241TIP3    H240283   0.777   0.770   7.279 -0.8809  1.7808 -0.6422
 6242TIP3   OH240284   0.651   1.585   1.443  0.3410 -0.8434 -0.4435
 6242TIP3    H140285   0.560   1.572   1.418 -0.1373 -0.3366  0.9254
 6242TIP3    H240286   0.663   1.680   1.441  0.5297 -0.8440  0.3696
 6243TIP3   OH240287   4.525   0.530   6.641 -0.4704  0.0548 -0.3886
 6243TIP3    H140288   4.516   0.443   6.602 -4.0608 -0.2590  0.8313
 6243TIP3    H240289   4.534   0.589   6.566 -1.5880 -1.0624 -1.4416
 6244TIP3   OH240290   1.051   6.040   8.452  0.3907 -0.1331 -0.2526
 6244TIP3    H140291   1.109   5.982   8.403 -2.3926 -2.6048 -0.8689
 6244TIP3    H240292   1.041   6.117   8.396  0.9530 -0.8495 -1.3655
 6245TIP3   OH240293   3.257   2.414   6.729 -0.5298  0.1943  0.2520
 6245TIP3    H140294   3.324   2.440   6.793 -0.5650  1.3335 -0.1570
 6245TIP3    H240295   3.301   2.418   6.645 -0.7228 -0.4766  0.1105
 6246TIP3   OH240296   0.741   2.997   1.042 -0.2351 -0.4218  0.2049
 6246TIP3    H140297   0.660   3.017   0.995 -0.5775  0.3658  1.1213
 6246TIP3    H240298   0.759   3.075   1.094  0.3079 -1.1607  1.1533
 6247TIP3   OH240299   6.393   4.755   7.502  0.0612 -0.0999  0.4258
 6247TIP3    H140300   6.375   4.761   7.596 -2.6907  1.5203 -0.0924
 6247TIP3    H240301   6.365   4.667   7.477  2.4640 -1.2203  1.3098
 6248TIP3   OH240302   3.919   5.607   6.109  0.2416  0.1081 -0.1824
 6248TIP3    H140303   3.910   5.574   6.198  0.6858 -0.8707 -0.4890
 6248TIP3    H240304   4.012   5.627   6.100  0.1576  0.4317 -0.3548
 6249TIP3   OH240305   0.110   1.002   8.411 -0.3997 -0.4368  0.2654
 6249TIP3    H140306   0.044   1.049   8.360 -0.0667 -0.3169 -0.0532
 6249TIP3    H240307   0.157   0.949   8.347 -0.5993 -1.0166  0.5790
 6250TIP3   OH240308   6.838   0.787   0.332 -0.3960 -0.7005 -0.0575
 6250TIP3    H140309   6.766   0.814   0.275 -0.9237 -0.5944  0.6413
 6250TIP3    H240310   6.837   0.852   0.403  1.4300  0.2649 -0.8572
 6251TIP3   OH240311   2.706   6.565   7.063  0.1098  0.2718  0.4713
 6251TIP3    H140312   2.729   6.482   7.021 -0.4049 -0.9833  2.5370
 6251TIP3    H240313   2.783   6.587   7.115  0.5958  1.6209 -0.7454
 6252TIP3   OH240314   2.143   6.435   2.349  0.3226  0.1743 -0.1135
 6252TIP3    H140315   2.214   6.480   2.303  0.1557  0.5155 -0.0404
 6252TIP3    H240316   2.186   6.365   2.398  0.7132  0.9093  0.6163
 6253TIP3   OH240317   3.985   5.962   0.748  0.0967 -0.1756 -0.1724
 6253TIP3    H140318   4.065   5.909   0.749 -0.4945 -1.0803  0.6135
 6253TIP3    H240319   3.929   5.920   0.683 -0.5558 -0.8120  0.7829
 6254TIP3   OH240320   1.437   2.934   1.465  0.2992  0.5991  0.1270
 6254TIP3    H140321   1.363   2.974   1.510 -0.2239  0.9028 -0.9700
 6254TIP3    H240322   1.450   2.850   1.510  0.1111  1.0959  1.1351
 6255TIP3   OH240323   6.027   2.389   8.033 -0.0873 -0.2144 -0.2232
 6255TIP3    H140324   6.104   2.347   7.995 -0.4497 -0.6422 -0.4982
 6255TIP3    H240325   6.053   2.480   8.048  1.0662 -0.7685  1.3659
 6256TIP3   OH240326   0.785   2.412   1.412  0.1166  0.4391  0.1807
 6256TIP3    H140327   0.731   2.491   1.405  0.1931  0.3689 -2.2632
 6256TIP3    H240328   0.724   2.343   1.435 -0.5453  0.6779 -0.7870
 6257TIP3   OH240329   3.449   2.527   0.401 -0.2478 -0.1276  0.3152
 6257TIP3    H140330   3.472   2.523   0.308 -1.9628 -0.2342 -0.1447
 6257TIP3    H240331   3.474   2.616   0.428  1.5930 -0.5544  0.1691
 6258TIP3   OH240332   3.124   1.760   2.175  0.4542  0.5734  0.3126
 6258TIP3    H140333   3.158   1.684   2.221  0.4020 -0.3043 -1.0433
 6258TIP3    H240334   3.107   1.824   2.244  0.9367 -0.4645  1.4332
 6259TIP3   OH240335   5.623   6.523   0.540  0.2369  0.2795 -0.6376
 6259TIP3    H140336   5.530   6.544   0.533 -0.7246 -2.9742  0.5722
 6259TIP3    H240337   5.642   6.471   0.462  0.3637 -1.0392  0.2367
 6260TIP3   OH240338   6.362   0.125   0.091  0.3832 -0.2817  1.0083
 6260TIP3    H140339   6.355   0.031   0.074  0.4643  0.0114 -0.9291
 6260TIP3    H240340   6.293   0.164   0.038 -0.3064  0.7230  2.5736
 6261TIP3   OH240341   4.946   4.544   1.500  0.0703 -0.2696  0.0331
 6261TIP3    H140342   4.881   4.546   1.430 -0.9168  1.8411  0.9249
 6261TIP3    H240343   4.954   4.451   1.522 -2.8594 -0.6162  0.0590
 6262TIP3   OH240344   3.139   2.955   7.824  0.2609 -0.1951  0.4311
 6262TIP3    H140345   3.048   2.925   7.832  0.9325 -2.3330  0.7938
 6262TIP3    H240346   3.171   2.958   7.914  0.2323  1.7962  0.4158
 6263TIP3   OH240347   0.900   5.682   1.997 -0.4018  0.0180 -0.8893
 6263TIP3    H140348   0.878   5.748   2.062 -1.4963 -0.1760 -1.0461
 6263TIP3    H240349   0.994   5.696   1.980 -0.4370  1.0229 -0.3620
 6264TIP3   OH240350   0.200   2.287   6.142  0.8358 -0.3937  0.1633
 6264TIP3    H140351   0.113   2.288   6.183  1.8333 -0.0841  2.4431
 6264TIP3    H240352   0.202   2.204   6.094 -0.9692 -0.0430 -0.6420
 6265TIP3   OH240353   1.262   4.313   7.104 -0.0083  0.4013 -0.0193
 6265TIP3    H140354   1.212   4.283   7.180  0.2281 -1.6667 -0.6126
 6265TIP3    H240355   1.288   4.403   7.126 -0.6252  0.1381  1.9845
 6266TIP3   OH240356   6.148   0.170   1.397 -0.0947 -0.3098  0.0319
 6266TIP3    H140357   6.111   0.148   1.311 -0.8361  1.2372 -0.0802
 6266TIP3    H240358   6.071   0.181   1.453  0.4005 -2.6676  1.3041
 6267TIP3   OH240359   4.679   3.571   8.541 -0.1424  0.0904 -0.3702
 6267TIP3    H140360   4.755   3.555   8.597  0.1755 -0.0007 -0.8203
 6267TIP3    H240361   4.648   3.657   8.568 -0.0476  0.0088  0.0076
 6268TIP3   OH240362   4.571   5.195   6.982  0.5288 -0.4082  0.0061
 6268TIP3    H140363   4.658   5.189   6.945  0.1345  0.5815 -1.1476
 6268TIP3    H240364   4.559   5.288   7.002 -0.7246 -0.3008 -1.0800
 6269TIP3   OH240365   2.672   2.517   0.300 -0.2714 -0.2512 -0.7602
 6269TIP3    H140366   2.681   2.506   0.394 -3.4392 -0.3484 -0.3742
 6269TIP3    H240367   2.691   2.431   0.264 -0.7999 -0.6803 -0.0366
 6270TIP3   OH240368   3.671   0.111   1.315 -0.0956 -0.4583  0.1040
 6270TIP3    H140369   3.717   0.108   1.399 -0.0257  0.6955  0.1324
 6270TIP3    H240370   3.663   0.205   1.296  1.0828 -0.6787 -1.8091
 6271TIP3   OH240371   6.330   3.837   1.935 -0.1588  0.0600 -0.0291
 6271TIP3    H140372   6.382   3.917   1.931 -2.1869  1.4086 -1.2296
 6271TIP3    H240373   6.370   3.786   2.005  2.4646  1.1768 -0.5765
 6272TIP3   OH240374   5.125   4.441   0.654 -0.2884  1.0389  0.5583
 6272TIP3    H140375   5.167   4.398   0.580 -3.5072 -0.4735 -0.5809
 6272TIP3    H240376   5.171   4.408   0.731  1.6486  0.8440 -0.6218
 6273TIP3   OH240377   5.555   1.037   0.397 -0.7066  0.3076  0.0537
 6273TIP3    H140378   5.631   0.991   0.360  0.3767  0.8107  1.5341
 6273TIP3    H240379   5.593   1.104   0.454 -2.2773  0.5080  0.9263
 6274TIP3   OH240380   2.239   6.500   0.353 -0.8214 -0.5463 -0.3250
 6274TIP3    H140381   2.179   6.462   0.416 -0.5881 -0.7498 -0.2252
 6274TIP3    H240382   2.301   6.551   0.406  1.2471 -3.1528 -0.0554
 6275TIP3   OH240383   3.967   5.198   0.349 -0.7955 -0.5172 -0.2964
 6275TIP3    H140384   3.912   5.119   0.348 -0.7865 -0.5460  0.4192
 6275TIP3    H240385   3.917   5.263   0.300 -1.1431 -0.7563 -0.2624
 6276TIP3   OH240386   4.185   3.878   1.412 -0.2440  0.0939 -0.5206
 6276TIP3    H140387   4.177   3.897   1.505  0.2082 -0.2910 -0.3981
 6276TIP3    H240388   4.108   3.918   1.372 -0.0756  0.8857 -0.0759
 6277TIP3   OH240389   2.861   4.849   0.237 -0.7116 -0.1186  0.6382
 6277TIP3    H140390   2.954   4.839   0.256 -0.4993 -0.5887 -0.5569
 6277TIP3    H240391   2.835   4.930   0.281  0.7057  1.0475 -0.5720
 6278TIP3   OH240392   3.188   5.096   7.898  0.3547 -0.2984  0.4235
 6278TIP3    H140393   3.236   5.061   7.973  0.8803 -1.6477 -0.5076
 6278TIP3    H240394   3.245   5.080   7.823 -0.4017  0.5196 -0.3576
 6279TIP3   OH240395   3.774   6.265   0.935 -0.1935 -0.3570  0.0227
 6279TIP3    H140396   3.821   6.289   1.015  0.2032  0.5189 -0.4542
 6279TIP3    H240397   3.767   6.347   0.886 -0.1770 -0.9296 -0.9715
 6280TIP3   OH240398   0.906   3.666   0.979  0.3602 -0.0095  0.2879
 6280TIP3    H140399   0.995   3.674   0.944  0.1011  1.7345 -0.0380
 6280TIP3    H240400   0.918   3.654   1.073  0.9261  1.9441  0.4955
 6281TIP3   OH240401   2.270   5.333   1.077 -0.6564 -0.0542 -0.0347
 6281TIP3    H140402   2.204   5.309   1.012 -0.4640 -0.1631 -0.1913
 6281TIP3    H240403   2.221   5.378   1.146 -0.5932  2.0768 -1.3007
 6282TIP3   OH240404   3.592   0.746   8.159  0.0484  0.0402  0.1203
 6282TIP3    H140405   3.536   0.704   8.224  0.7889  1.0223  1.4566
 6282TIP3    H240406   3.540   0.818   8.124  0.2757  0.6767  1.0374
 6283TIP3   OH240407   5.040   2.225   0.075 -0.0350  1.0392 -0.5350
 6283TIP3    H140408   5.039   2.302   0.018 -1.7349  0.5704 -1.2098
 6283TIP3    H240409   5.035   2.151   0.015  3.3207  0.2215 -0.0117
 6284TIP3   OH240410   4.492   2.199   7.501 -0.5260  0.1632 -0.0623
 6284TIP3    H140411   4.459   2.286   7.522 -2.0486  0.4037 -2.8987
 6284TIP3    H240412   4.584   2.214   7.478 -0.6283  0.9488 -0.0003
 6285TIP3   OH240413   3.575   6.542   2.355 -0.3294 -0.1171  0.2392
 6285TIP3    H140414   3.608   6.461   2.392  1.5249 -1.0932 -3.1018
 6285TIP3    H240415   3.509   6.513   2.291 -2.7266  1.3786  1.9002
 6286TIP3   OH240416   5.277   2.954   2.142  0.1848  0.0070 -0.0251
 6286TIP3    H140417   5.341   2.882   2.152  0.0532 -0.1999 -0.6235
 6286TIP3    H240418   5.198   2.911   2.110 -1.2623 -0.1963  3.4072
 6287TIP3   OH240419   2.200   4.496   7.648  0.4414 -0.0344 -0.4426
 6287TIP3    H140420   2.122   4.534   7.689  1.4795  1.2346  0.4431
 6287TIP3    H240421   2.256   4.473   7.722  1.6967  0.8576 -1.0793
 6288TIP3   OH240422   4.565   5.034   2.099 -0.2580  0.1120  0.1352
 6288TIP3    H140423   4.561   4.962   2.163  0.2116  0.7977  0.9481
 6288TIP3    H240424   4.502   5.098   2.131 -0.4028  0.2298 -0.3825
 6289TIP3   OH240425   0.539   1.292   0.273 -0.4383 -0.0429 -0.0056
 6289TIP3    H140426   0.540   1.297   0.177  0.9515 -1.6820 -0.1173
 6289TIP3    H240427   0.589   1.369   0.301  0.0093 -0.1031 -0.6295
 6290TIP3   OH240428   5.859   2.405   0.923 -0.3264 -0.8037 -0.2580
 6290TIP3    H140429   5.777   2.371   0.886 -1.5996  0.4313  1.3286
 6290TIP3    H240430   5.855   2.382   1.016  0.4430  0.5608  0.1310
 6291TIP3   OH240431   3.231   1.679   1.391 -0.1203 -0.2926 -0.6425
 6291TIP3    H140432   3.172   1.697   1.464  1.2144 -0.0996  0.4410
 6291TIP3    H240433   3.317   1.666   1.432  0.4291 -1.5280 -2.0722
 6292TIP3   OH240434   6.163   5.975   7.795 -0.3616  0.1813  0.2147
 6292TIP3    H140435   6.246   5.987   7.842 -0.6608  0.1140  0.7638
 6292TIP3    H240436   6.125   5.896   7.834  0.3710 -1.1311 -1.5734
 6293TIP3   OH240437   5.353   0.233   8.175 -0.2815  0.3408  0.8503
 6293TIP3    H140438   5.425   0.171   8.189 -0.2611 -0.5887 -2.5198
 6293TIP3    H240439   5.351   0.286   8.255  1.4925 -2.1985  2.7426
 6294TIP3   OH240440   5.095   0.379   7.035  0.2312  0.0027 -0.3455
 6294TIP3    H140441   5.102   0.307   7.098  0.0295 -0.5181 -0.9037
 6294TIP3    H240442   5.067   0.454   7.087  4.6539  0.9241  1.1107
 6295TIP3   OH240443   0.143   4.860   6.554 -0.1759 -0.1973 -0.0616
 6295TIP3    H140444   0.193   4.779   6.550 -1.3241 -0.8858 -1.9298
 6295TIP3    H240445   0.152   4.899   6.467 -2.0712  0.1182 -0.1667
 6296TIP3   OH240446   5.957   3.103   0.666 -0.5114  0.3172  0.5082
 6296TIP3    H140447   5.928   3.173   0.725  0.2907  0.4399  0.7738
 6296TIP3    H240448   6.002   3.041   0.722  0.1950  0.3952  0.0476
 6297TIP3   OH240449   2.484   5.923   8.527  0.4529  0.3634  0.1999
 6297TIP3    H140450   2.394   5.952   8.509  0.5247 -0.7813 -2.5713
 6297TIP3    H240451   2.478   5.827   8.525  1.2722  0.1594  3.0689
 6298TIP3   OH240452   6.314   6.194   8.412  0.1597 -0.0854 -0.2433
 6298TIP3    H140453   6.387   6.200   8.350 -0.3056 -0.8519 -0.8800
 6298TIP3    H240454   6.300   6.285   8.440  2.5404 -0.1131  1.3089
 6299TIP3   OH240455   5.003   1.733   6.734  0.4110 -0.3014 -0.1298
 6299TIP3    H140456   4.994   1.787   6.656  0.5385  0.1428  0.1565
 6299TIP3    H240457   5.047   1.790   6.798 -1.7029  0.1230  1.0319
 6300TIP3   OH240458   5.076   2.363   0.635  0.0098  0.7965  0.9538
 6300TIP3    H140459   5.130   2.295   0.593 -1.4771  0.6721 -0.9069
 6300TIP3    H240460   5.012   2.314   0.686 -0.2259  0.8200  0.6873
 6301TIP3   OH240461   4.860   6.023   1.333  0.9189 -0.6965  0.1890
 6301TIP3    H140462   4.776   6.053   1.298  0.9783 -0.7360  0.0127
 6301TIP3    H240463   4.922   6.039   1.263  0.6753 -2.7809 -0.5637
 6302TIP3   OH240464   5.909   0.607   1.802  0.2569  0.2074 -0.4078
 6302TIP3    H140465   5.986   0.596   1.857  0.6362  0.4781 -0.8799
 6302TIP3    H240466   5.866   0.521   1.804 -0.2762  0.4910  1.0971
 6303TIP3   OH240467   2.895   3.736   7.665  0.1897  0.0074  0.2741
 6303TIP3    H140468   2.953   3.801   7.706 -0.5503 -0.0909  1.5194
 6303TIP3    H240469   2.828   3.718   7.731 -1.5567  0.4563 -1.2799
 6304TIP3   OH240470   1.230   6.635   1.252  0.0139 -0.2287 -0.5397
 6304TIP3    H140471   1.303   6.688   1.220  1.3377 -2.0232 -0.6491
 6304TIP3    H240472   1.188   6.601   1.174 -0.1260 -0.2425 -0.4592
 6305TIP3   OH240473   1.790   6.475   0.648  0.3609  0.1529 -0.2820
 6305TIP3    H140474   1.722   6.502   0.586 -0.1691  3.1556  1.3833
 6305TIP3    H240475   1.745   6.420   0.711 -0.2540  0.9879  0.0318
 6306TIP3   OH240476   5.487   3.151   8.439 -0.2968 -0.5570 -0.1305
 6306TIP3    H140477   5.547   3.205   8.387  0.1867  0.7820  1.6963
 6306TIP3    H240478   5.406   3.202   8.442 -1.5856 -2.2968 -2.4818
 6307TIP3   OH240479   4.678   1.145   8.536 -0.1756 -0.3037  0.5764
 6307TIP3    H140480   4.758   1.105   8.502 -0.0337  0.2123  0.2916
 6307TIP3    H240481   4.616   1.142   8.462  0.1663  0.9114  0.2213
 6308TIP3   OH240482   0.907   2.797   2.391 -0.0685  0.3238 -0.2794
 6308TIP3    H140483   0.859   2.729   2.440 -0.8755  0.7688 -0.4273
 6308TIP3    H240484   0.838   2.844   2.344  0.5164  1.0660 -0.3964
 6309TIP3   OH240485   1.843   5.386   0.086 -0.3917  0.5452 -0.3491
 6309TIP3    H140486   1.925   5.435   0.088  0.2499 -0.4823 -0.5167
 6309TIP3    H240487   1.798   5.417   0.008  1.5559 -1.4970 -2.4287
 6310TIP3   OH240488   3.559   2.148   1.362  0.1250  0.5520  0.1960
 6310TIP3    H140489   3.597   2.220   1.412  0.8775  0.0831  0.3098
 6310TIP3    H240490   3.488   2.115   1.418  1.7263 -0.7496  1.5472
 6311TIP3   OH240491   4.043   6.290   6.351  0.1480  0.2888  0.2035
 6311TIP3    H140492   4.113   6.273   6.288  0.6700  1.7554  0.3590
 6311TIP3    H240493   3.972   6.231   6.325  0.1443  1.2177 -2.1078
 6312TIP3   OH240494   3.418   4.253   8.316 -0.5295 -0.4056 -0.0815
 6312TIP3    H140495   3.475   4.276   8.243  0.2229 -1.9556 -0.0327
 6312TIP3    H240496   3.473   4.198   8.373 -1.9495 -1.6711  0.1315
 6313TIP3   OH240497   0.467   3.558   0.776 -0.3397 -0.0912  0.3001
 6313TIP3    H140498   0.396   3.617   0.800  0.3708  0.8286  0.1977
 6313TIP3    H240499   0.499   3.590   0.692 -1.2558 -1.8584 -0.7856
 6314TIP3   OH240500   2.455   1.698   1.729  0.0615  0.7625  0.1895
 6314TIP3    H140501   2.432   1.675   1.819  0.0768  2.0532  0.5489
 6314TIP3    H240502   2.498   1.620   1.694 -0.3084  0.1035  1.1639
 6315TIP3   OH240503   5.567   6.476   7.854 -0.0841  0.0999  0.2156
 6315TIP3    H140504   5.651   6.472   7.808  0.4437 -1.4277  1.2285
 6315TIP3    H240505   5.548   6.569   7.862  1.4028  0.4637 -0.2444
 6316TIP3   OH240506   4.435   2.341   2.107  0.0716  0.0577  0.0949
 6316TIP3    H140507   4.513   2.346   2.162  0.1815  1.0532 -0.1224
 6316TIP3    H240508   4.402   2.252   2.120  2.2710 -1.0501 -1.1930
 6317TIP3   OH240509   2.090   6.263   8.014  0.0255 -0.3717  0.3042
 6317TIP3    H140510   2.121   6.227   8.097 -1.7573 -3.0055 -0.0547
 6317TIP3    H240511   2.155   6.233   7.950 -0.2904 -1.1312  0.3259
 6318TIP3   OH240512   3.619   6.595   1.880  0.2180 -0.6756  0.4765
 6318TIP3    H140513   3.660   6.630   1.959 -0.1832 -1.7419  1.1744
 6318TIP3    H240514   3.692   6.586   1.818  0.5452  0.1125  0.7297
 6319TIP3   OH240515   1.702   6.472   1.517  0.0710 -0.3569  0.3895
 6319TIP3    H140516   1.641   6.520   1.574 -0.1838  0.1611 -0.3023
 6319TIP3    H240517   1.692   6.514   1.431  0.9503 -0.6753  0.1244
 6320TIP3   OH240518   5.346   6.457   8.535 -0.1239  0.5276 -0.2016
 6320TIP3    H140519   5.407   6.403   8.586 -0.3543 -0.0403 -0.5124
 6320TIP3    H240520   5.261   6.415   8.550 -0.4312  1.2679  0.1715
 6321TIP3   OH240521   6.582   0.232   1.189  0.3949  0.3217 -0.5393
 6321TIP3    H140522   6.564   0.166   1.256 -2.5624  1.1983 -0.2901
 6321TIP3    H240523   6.570   0.186   1.106 -3.1757  0.6639 -0.3923
 6322TIP3   OH240524   2.361   5.117   1.482 -0.3087 -0.1792 -0.1201
 6322TIP3    H140525   2.414   5.192   1.508  0.0749  0.1774 -1.7652
 6322TIP3    H240526   2.363   5.119   1.386 -1.5810 -1.3878 -0.2068
 6323TIP3   OH240527   5.707   0.507   0.110 -0.5821  0.0156 -0.4160
 6323TIP3    H140528   5.728   0.518   0.203 -4.3394 -1.2834  0.7541
 6323TIP3    H240529   5.726   0.416   0.091 -1.5084 -0.1973 -0.3721
 6324TIP3   OH240530   5.997   0.166   8.105 -0.2519 -0.3161  0.3049
 6324TIP3    H140531   6.033   0.239   8.155  1.2950 -1.2928  0.6931
 6324TIP3    H240532   6.053   0.092   8.127 -0.6901 -1.2216 -1.4270
 6325TIP3   OH240533   0.199   1.330   2.250 -0.0954 -0.6307 -0.6896
 6325TIP3    H140534   0.104   1.328   2.240 -0.1480 -0.0115 -0.3897
 6325TIP3    H240535   0.226   1.404   2.195 -0.2385  1.9163  2.3971
 6326TIP3   OH240536   3.415   4.447   1.830 -0.3569  0.5443 -0.8117
 6326TIP3    H140537   3.426   4.494   1.913  1.5741 -0.8213 -0.2315
 6326TIP3    H240538   3.347   4.382   1.849  0.9206 -0.5803  0.1505
 6327TIP3   OH240539   5.964   0.989   0.392  0.8171 -0.3014  0.1185
 6327TIP3    H140540   5.989   1.045   0.466  1.2533 -0.5487  0.1596
 6327TIP3    H240541   6.034   0.924   0.386  0.3947 -0.7465 -0.0349
 6328TIP3   OH240542   1.184   6.114   1.433  0.1113 -0.8025  0.0248
 6328TIP3    H140543   1.273   6.137   1.461 -0.1703  1.1788 -0.5822
 6328TIP3    H240544   1.160   6.040   1.489  2.2594 -1.6259 -0.0522
 6329TIP3   OH240545   1.383   1.547   2.089 -0.0096 -0.5418  0.7719
 6329TIP3    H140546   1.305   1.594   2.119 -0.9199  1.2024 -3.5712
 6329TIP3    H240547   1.357   1.455   2.089 -1.4146 -0.1649  1.1058
 6330TIP3   OH240548   6.166   4.785   1.972  0.4445 -0.0171  0.0681
 6330TIP3    H140549   6.172   4.784   2.067 -2.1418  0.2401  0.3116
 6330TIP3    H240550   6.185   4.695   1.945 -0.3158 -0.4726  0.9894
 6331TIP3   OH240551   6.556   3.110   8.351 -0.1549  0.2421 -0.1363
 6331TIP3    H140552   6.594   3.030   8.315 -0.9114 -0.7252  1.1041
 6331TIP3    H240553   6.463   3.105   8.328 -0.5127 -0.0430  1.2814
 6332TIP3   OH240554   1.912   4.530   8.429 -0.1926 -0.1264  0.6553
 6332TIP3    H140555   1.980   4.512   8.493  0.8231  1.9668  0.2819
 6332TIP3    H240556   1.844   4.577   8.478 -0.1313  0.1048  0.5231
 6333TIP3   OH240557   2.456   2.207   8.455 -0.4564 -0.2615  0.0502
 6333TIP3    H140558   2.490   2.296   8.446 -0.8267  0.0707  1.6928
 6333TIP3    H240559   2.370   2.210   8.413  0.3281 -0.3982 -1.6716
 6334TIP3   OH240560   2.205   1.711   6.438 -0.3780  0.2791 -0.1285
 6334TIP3    H140561   2.195   1.755   6.353  0.0851 -0.6789 -0.7018
 6334TIP3    H240562   2.156   1.630   6.428  0.8836 -0.5211 -0.0054
 6335TIP3   OH240563   3.448   5.801   1.039  0.2297 -0.1450  0.0076
 6335TIP3    H140564   3.453   5.859   1.115 -1.1897  0.0592 -0.0292
 6335TIP3    H240565   3.369   5.828   0.992  0.8742 -0.5131 -1.3508
 6336TIP3   OH240566   2.450   6.612   2.590  0.3116  0.1186  0.7617
 6336TIP3    H140567   2.515   6.550   2.621  0.1827 -0.3633  0.0799
 6336TIP3    H240568   2.495   6.697   2.591  1.7569 -0.5237 -1.9465
 6337TIP3   OH240569   5.767   6.759   0.550 -0.0385  0.4414  0.0134
 6337TIP3    H140570   5.724   6.674   0.550  1.7149 -0.5825 -2.7450
 6337TIP3    H240571   5.779   6.780   0.642  1.3277 -3.3362  0.8731
 6338TIP3   OH240572   2.176   0.723   1.237  0.1604  0.0613  0.1735
 6338TIP3    H140573   2.233   0.785   1.281  2.6156 -0.9963 -1.2798
 6338TIP3    H240574   2.150   0.766   1.156 -0.5501  0.2623  0.4987
 6339TIP3   OH240575   4.100   4.336   7.452 -0.1325 -0.4412 -0.2359
 6339TIP3    H140576   4.152   4.348   7.372  2.3785 -0.3091  1.3118
 6339TIP3    H240577   4.126   4.250   7.485  1.1455  0.6587  1.8912
 6340TIP3   OH240578   0.161   6.036   0.331 -0.2558 -0.1097 -0.1085
 6340TIP3    H140579   0.203   6.042   0.245 -1.6136  1.4746 -0.7097
 6340TIP3    H240580   0.225   6.073   0.392  0.6131 -1.0092 -0.4505
 6341TIP3   OH240581   3.840   1.826   7.111 -0.2805 -0.0561 -0.3990
 6341TIP3    H140582   3.884   1.910   7.100 -0.0953  0.0828  1.1646
 6341TIP3    H240583   3.784   1.817   7.034 -0.4369  1.5924 -0.4962
 6342TIP3   OH240584   2.149   3.235   1.585  0.0148  0.0014  0.0582
 6342TIP3    H140585   2.215   3.200   1.645  0.4179  1.0859  0.2691
 6342TIP3    H240586   2.170   3.194   1.501 -0.1732 -1.0557  0.5027
 6343TIP3   OH240587   5.376   1.610   7.357  0.4499 -0.0751  0.1335
 6343TIP3    H140588   5.399   1.524   7.393  0.0242 -0.7051 -1.0477
 6343TIP3    H240589   5.460   1.655   7.350  0.6059 -0.1687  1.3180
 6344TIP3   OH240590   4.622   2.121   0.919  0.3884 -0.5504 -0.1336
 6344TIP3    H140591   4.634   2.041   0.970 -0.2525  0.3748  1.5542
 6344TIP3    H240592   4.566   2.176   0.974  4.1352  2.8205  0.7701
 6345TIP3   OH240593   4.112   5.582   8.593 -0.0022  0.2498  0.1869
 6345TIP3    H140594   4.041   5.521   8.572 -0.0277 -0.0598  1.1020
 6345TIP3    H240595   4.078   5.668   8.570 -0.1413 -0.0237 -0.6907
 6346TIP3   OH240596   4.124   6.691   7.100  0.0377  0.4591 -0.0918
 6346TIP3    H140597   4.140   6.735   7.183  1.7049  0.4361 -0.3628
 6346TIP3    H240598   4.116   6.598   7.124  1.5999  0.3127 -0.0394
 6347TIP3   OH240599   1.325   4.835   0.756  0.1708  0.0991 -0.6425
 6347TIP3    H140600   1.417   4.829   0.784 -0.1618 -1.7876  0.1524
 6347TIP3    H240601   1.305   4.928   0.762  1.2947  0.2678  1.6475
 6348TIP3   OH240602   1.937   6.856   2.225 -0.2799 -0.3700  0.1726
 6348TIP3    H140603   1.930   6.822   2.314  0.7590  1.8888  1.1909
 6348TIP3    H240604   2.023   6.898   2.222 -0.4047 -0.1595 -1.8345
 6349TIP3   OH240605   6.221   5.617   8.608  0.4064  0.1515 -0.1257
 6349TIP3    H140606   6.150   5.568   8.649 -0.2035 -0.0790 -1.4046
 6349TIP3    H240607   6.249   5.680   8.675 -0.2667 -0.4815  0.7708
 6350TIP3   OH240608   1.711   3.457   0.353 -0.2887 -0.3473  0.5133
 6350TIP3    H140609   1.800   3.481   0.379 -0.3327  0.2471  0.1530
 6350TIP3    H240610   1.699   3.368   0.384 -0.5058  0.4458  2.9531
 6351TIP3   OH240611   3.490   3.956   8.479 -0.4310 -0.5025  0.0516
 6351TIP3    H140612   3.450   3.945   8.392 -1.5024  0.0915  0.4480
 6351TIP3    H240613   3.550   4.029   8.468  0.3328 -1.2003 -0.4801
 6352TIP3   OH240614   3.762   5.639   1.334  0.0627 -0.0794 -0.0833
 6352TIP3    H140615   3.707   5.705   1.375  1.7201  0.4157  1.4702
 6352TIP3    H240616   3.826   5.616   1.401  0.1411 -2.5700 -0.9117
 6353TIP3   OH240617   2.781   1.800   0.312 -0.5084  0.2009  0.0134
 6353TIP3    H140618   2.809   1.711   0.291  0.0063  0.4019 -0.1851
 6353TIP3    H240619   2.831   1.823   0.390  0.5539  0.8646 -0.8190
 6354TIP3   OH240620   5.015   3.263   2.487 -0.1921  0.6974  0.0780
 6354TIP3    H140621   5.057   3.227   2.409  2.9371  0.8621  1.5320
 6354TIP3    H240622   4.971   3.188   2.528 -2.4572  0.7457 -2.0712
 6355TIP3   OH240623   6.487   1.695   1.385 -0.2869 -0.6511 -0.1193
 6355TIP3    H140624   6.470   1.610   1.344  0.3018 -0.5550 -0.5884
 6355TIP3    H240625   6.414   1.750   1.356  1.3336  0.1436 -3.2274
 6356TIP3   OH240626   6.707   5.174   0.772  0.2303  0.6148  0.5154
 6356TIP3    H140627   6.793   5.192   0.809 -0.3975 -0.0317  2.4615
 6356TIP3    H240628   6.646   5.220   0.830 -0.9382 -2.0001  1.5355
 6357TIP3   OH240629   3.096   4.229   8.511  0.8064  0.2039  0.3607
 6357TIP3    H140630   3.078   4.223   8.605 -0.0489  0.5405  0.2270
 6357TIP3    H240631   3.133   4.316   8.499 -1.8725  1.3712 -0.0203
 6358TIP3   OH240632   6.454   4.919   0.802  0.0645  0.2410  0.7040
 6358TIP3    H140633   6.372   4.955   0.768  0.0013 -0.0033  0.5993
 6358TIP3    H240634   6.454   4.943   0.895 -2.2065 -3.4158  1.8488
 6359TIP3   OH240635   0.208   1.025   0.901  0.2156  0.4581 -0.7219
 6359TIP3    H140636   0.287   0.982   0.933  0.0180  2.3267  2.7332
 6359TIP3    H240637   0.228   1.118   0.904 -1.9290  0.9553 -0.2915
 6360TIP3   OH240638   2.519   0.199   7.279 -0.1237 -0.2235 -0.2161
 6360TIP3    H140639   2.478   0.137   7.219 -0.4607 -0.7385  0.5289
 6360TIP3    H240640   2.575   0.146   7.335  3.4490  0.6733 -2.5870
 6361TIP3   OH240641   0.381   0.043   7.225 -0.0576  0.1416  0.8145
 6361TIP3    H140642   0.393   0.022   7.318 -0.2333  1.3970  1.1439
 6361TIP3    H240643   0.451   0.106   7.206 -1.4849  1.7868  0.7691
 6362TIP3   OH240644   0.635   1.552   8.466  0.3284 -0.1492  0.3469
 6362TIP3    H140645   0.717   1.505   8.476  1.3228  1.3345 -0.4715
 6362TIP3    H240646   0.611   1.540   8.374  0.4798  0.7330  0.1848
 6363TIP3   OH240647   1.888   3.356   6.237 -0.1086 -0.0821 -0.0837
 6363TIP3    H140648   1.867   3.436   6.188 -0.5946  0.1600  0.4929
 6363TIP3    H240649   1.807   3.305   6.235  0.1317 -0.4597 -0.2534
 6364TIP3   OH240650   5.605   4.984   0.322  0.3060  0.0659 -0.8015
 6364TIP3    H140651   5.560   4.900   0.324 -0.0308  0.2577  0.2058
 6364TIP3    H240652   5.565   5.031   0.248 -1.5371  0.4190  0.3587
 6365TIP3   OH240653   2.651   0.620   8.500 -1.0341 -0.7758 -0.5723
 6365TIP3    H140654   2.661   0.712   8.477 -0.4003 -0.8969 -0.7951
 6365TIP3    H240655   2.719   0.604   8.566  0.5378 -1.6935 -2.3355
 6366TIP3   OH240656   5.681   1.705   7.043  0.5406  0.7501 -0.2509
 6366TIP3    H140657   5.616   1.709   6.973 -0.7373 -0.4672  0.8032
 6366TIP3    H240658   5.747   1.771   7.019 -0.5706  1.3341 -1.8497
 6367TIP3   OH240659   2.377   4.420   7.463  0.1617 -0.3015  0.3824
 6367TIP3    H140660   2.308   4.440   7.526  0.0428 -3.2821  1.3410
 6367TIP3    H240661   2.457   4.415   7.516  1.0448  2.1812 -0.5718
 6368TIP3   OH240662   5.831   4.066   0.964  0.2832  0.0649  0.0269
 6368TIP3    H140663   5.878   4.107   0.891  0.9203  0.1615  0.4724
 6368TIP3    H240664   5.890   4.079   1.039 -1.0858  1.4452  0.9180
 6369TIP3   OH240665   6.201   4.197   0.350 -0.0937 -0.9744  0.1490
 6369TIP3    H140666   6.278   4.174   0.298  0.2384 -2.0277  1.0653
 6369TIP3    H240667   6.235   4.210   0.438 -0.8466 -0.5610  0.3878
 6370TIP3   OH240668   2.431   0.320   0.886  0.1392 -0.1697  0.6748
 6370TIP3    H140669   2.358   0.300   0.826 -1.3413 -1.3070  2.7450
 6370TIP3    H240670   2.509   0.292   0.838 -1.0507 -1.7804 -0.4257
 6371TIP3   OH240671   6.325   0.336   7.811 -0.4968 -0.9883 -0.0368
 6371TIP3    H140672   6.260   0.289   7.759 -2.4800  2.1995 -0.7058
 6371TIP3    H240673   6.283   0.349   7.896  0.0189 -0.4951  0.1505
 6372TIP3   OH240674   4.829   6.415   0.364 -0.1445 -0.1861 -0.1646
 6372TIP3    H140675   4.884   6.337   0.375 -1.6825 -1.2546  0.2967
 6372TIP3    H240676   4.882   6.487   0.397  0.9542 -1.1803  0.3083
 6373TIP3   OH240677   3.749   1.319   1.583  0.3393 -0.3262  0.4525
 6373TIP3    H140678   3.808   1.395   1.582  1.0597 -0.8708 -0.8476
 6373TIP3    H240679   3.796   1.254   1.636 -0.2649  0.0890  1.5413
 6374TIP3   OH240680   0.926   5.883   7.815 -0.3793 -0.2442  0.4724
 6374TIP3    H140681   0.866   5.876   7.740 -0.5362 -1.1957  0.6726
 6374TIP3    H240682   1.007   5.917   7.778  0.0814 -2.2372 -0.4554
 6375TIP3   OH240683   5.655   2.715   0.112  0.0378 -0.0246  0.0467
 6375TIP3    H140684   5.640   2.624   0.087  0.2268 -0.0020 -0.1491
 6375TIP3    H240685   5.604   2.726   0.193 -0.0403 -0.2832  0.0342
 6376TIP3   OH240686   2.021   1.244   0.204  0.3868 -0.3325  0.2484
 6376TIP3    H140687   2.032   1.164   0.153 -0.8885 -1.0323  1.0214
 6376TIP3    H240688   1.934   1.277   0.179  1.6158  1.8920 -1.4757
 6377TIP3   OH240689   3.416   4.634   0.758  0.4647  0.5260 -0.5382
 6377TIP3    H140690   3.323   4.657   0.758  0.5870  1.1053  0.7957
 6377TIP3    H240691   3.427   4.577   0.834  1.2311  0.6046 -0.5826
 6378TIP3   OH240692   2.143   5.135   0.659  0.3303 -0.3668 -0.5366
 6378TIP3    H140693   2.217   5.196   0.665 -0.0240  0.0674 -0.5602
 6378TIP3    H240694   2.083   5.175   0.596 -0.7321  0.1574  0.7543
 6379TIP3   OH240695   3.214   0.019   1.080 -0.3854 -0.1099 -0.1383
 6379TIP3    H140696   3.172   0.084   1.137 -0.4478 -1.3044  1.2519
 6379TIP3    H240697   3.157  -0.058   1.085  0.8316 -1.0439  0.0844
 6380TIP3   OH240698   5.591   1.812   6.463 -0.0327  0.1131  0.2044
 6380TIP3    H140699   5.501   1.810   6.494 -0.0073 -0.3341  0.2577
 6380TIP3    H240700   5.588   1.772   6.376  0.2575 -0.8374  0.6102
 6381TIP3   OH240701   3.816   5.125   7.048  0.3409 -0.4269 -0.1011
 6381TIP3    H140702   3.728   5.131   7.011  0.0137  0.9764  0.7865
 6381TIP3    H240703   3.859   5.207   7.022  0.4359  0.1423  1.6790
 6382TIP3   OH240704   3.381   5.183   1.240 -0.5103  0.1934 -0.2720
 6382TIP3    H140705   3.319   5.218   1.304  2.0424  3.7800  0.5192
 6382TIP3    H240706   3.373   5.241   1.164 -0.4590 -1.3840 -1.5484
 6383TIP3   OH240707   1.665   2.754   1.150 -0.5252 -0.2272  0.3047
 6383TIP3    H140708   1.658   2.839   1.107  1.1403 -0.1355  0.1304
 6383TIP3    H240709   1.576   2.719   1.150 -0.6890 -0.1691 -3.0977
 6384TIP3   OH240710   4.576   1.198   0.248 -0.3759  0.6771  0.2755
 6384TIP3    H140711   4.502   1.250   0.218 -0.7769  0.2135  0.4538
 6384TIP3    H240712   4.538   1.131   0.305  0.2349  0.7647  0.8065
 6385TIP3   OH240713   2.125   0.168   0.024  0.0059 -0.1388 -0.3959
 6385TIP3    H140714   2.214   0.201   0.017  0.4566 -1.1040  0.5456
 6385TIP3    H240715   2.078   0.211  -0.047  1.6397 -0.9526 -2.0629
 6386TIP3   OH240716   6.608   0.857   1.318 -0.2728 -0.7510  0.1867
 6386TIP3    H140717   6.628   0.831   1.228 -0.4100  0.5135 -0.2353
 6386TIP3    H240718   6.520   0.823   1.334 -0.1588 -1.1729 -0.0813
 6387TIP3   OH240719   5.088   5.004   6.096 -0.5059 -0.3136  0.3363
 6387TIP3    H140720   5.069   5.090   6.133  0.3741  0.0639 -0.0622
 6387TIP3    H240721   5.001   4.965   6.081 -0.8982 -0.2290  2.1415
 6388TIP3   OH240722   4.060   3.332   8.314  0.5612  0.8153  0.0861
 6388TIP3    H140723   4.031   3.420   8.336  0.0843  0.6885 -0.0156
 6388TIP3    H240724   4.027   3.278   8.386  0.5314  0.6659 -0.0393
 6389TIP3   OH240725   4.481   6.348   1.573  0.1236 -0.1308 -0.2906
 6389TIP3    H140726   4.566   6.330   1.534  0.3744 -0.8227  0.5453
 6389TIP3    H240727   4.429   6.271   1.554 -2.1659  2.2044 -5.4082
 6390TIP3   OH240728   2.186   6.387   6.994 -0.3359 -0.0070  0.0997
 6390TIP3    H140729   2.162   6.329   6.923 -1.1554 -1.0015  1.1662
 6390TIP3    H240730   2.193   6.474   6.953 -2.0460 -0.3253 -0.9581
 6391TIP3   OH240731   5.358   6.513   1.209 -0.2450 -0.4675  0.2813
 6391TIP3    H140732   5.379   6.485   1.298 -1.2610  0.5994  0.8865
 6391TIP3    H240733   5.332   6.605   1.218 -0.6837 -0.4311 -1.0699
 6392TIP3   OH240734   1.756   4.423   2.178 -0.0468 -0.4479  0.4216
 6392TIP3    H140735   1.815   4.497   2.191  1.0856 -1.4761  1.3026
 6392TIP3    H240736   1.690   4.433   2.247  0.6251 -0.7510  1.1163
 6393TIP3   OH240737   2.683   0.044   7.435  0.2671 -0.2784  0.0663
 6393TIP3    H140738   2.777   0.057   7.443  0.2195 -1.0803  3.0002
 6393TIP3    H240739   2.672  -0.051   7.429 -0.3609 -0.2467  0.5955
 6394TIP3   OH240740   3.995   1.154   7.113 -0.0568  0.1665  0.1098
 6394TIP3    H140741   3.937   1.230   7.111  0.0155  0.2948  1.6835
 6394TIP3    H240742   4.072   1.181   7.063 -1.2270  0.0446 -1.8937
 6395TIP3   OH240743   1.704   4.133   2.117 -0.1021  0.0421 -0.2645
 6395TIP3    H140744   1.743   4.049   2.142 -0.1559 -0.4955 -1.8735
 6395TIP3    H240745   1.714   4.188   2.194  1.4078 -0.9354  0.2817
 6396TIP3   OH240746   1.755   4.125   0.831 -0.1582 -0.3201  0.4569
 6396TIP3    H140747   1.815   4.186   0.788  0.0835  1.0307  2.5807
 6396TIP3    H240748   1.672   4.137   0.784  0.5489 -0.3305 -0.8498
 6397TIP3   OH240749   2.967   5.115   7.638 -0.2370 -0.1469 -0.4818
 6397TIP3    H140750   3.043   5.162   7.606 -0.2950  0.1025 -0.2499
 6397TIP3    H240751   2.909   5.109   7.562 -0.5400  0.7740 -0.3338
 6398TIP3   OH240752   5.551   5.579   1.304 -0.5088  0.5093  0.2214
 6398TIP3    H140753   5.510   5.601   1.388  0.1967  0.2070  0.6504
 6398TIP3    H240754   5.590   5.493   1.318 -1.0552  0.1017 -0.6660
 6399TIP3   OH240755   2.596   4.810   1.422 -0.3996 -0.5412  0.2160
 6399TIP3    H140756   2.651   4.818   1.500  0.8092  0.8804 -0.7390
 6399TIP3    H240757   2.510   4.842   1.450 -0.1949 -0.7772  1.1582
 6400TIP3   OH240758   6.394   6.604   7.170 -0.2644  0.0344  0.0590
 6400TIP3    H140759   6.388   6.533   7.106  1.9682  0.0776 -0.2872
 6400TIP3    H240760   6.436   6.676   7.122 -0.2778  0.7266  1.0538
 6401TIP3   OH240761   2.335   3.368   2.448 -0.1472  0.0530  0.1909
 6401TIP3    H140762   2.356   3.419   2.527 -1.3559  1.2979 -0.2535
 6401TIP3    H240763   2.370   3.420   2.376 -2.4229  0.9186 -0.3662
 6402TIP3   OH240764   1.017   2.990   0.096  0.2361  0.7678 -0.6111
 6402TIP3    H140765   1.090   3.052   0.093  1.4153 -0.6045 -1.0327
 6402TIP3    H240766   0.961   3.023   0.166  2.5683  0.4684  1.5216
 6403TIP3   OH240767   2.226   2.055   1.031 -0.1922  0.0397  0.9284
 6403TIP3    H140768   2.136   2.065   0.999 -0.3431 -1.5825  0.7572
 6403TIP3    H240769   2.225   1.972   1.078  1.7699 -1.2338 -1.0735
 6404TIP3   OH240770   0.695   5.499   1.348  0.2144  0.2591 -0.1500
 6404TIP3    H140771   0.783   5.509   1.384 -0.4424  0.2585  1.5401
 6404TIP3    H240772   0.676   5.405   1.355  0.3483  0.1389 -1.2204
 6405TIP3   OH240773   6.727   1.420   7.882 -0.3677  0.2979 -0.2221
 6405TIP3    H140774   6.722   1.357   7.809 -0.1558 -0.8857  0.7466
 6405TIP3    H240775   6.808   1.398   7.927 -0.6969  0.7433  0.6140
 6406TIP3   OH240776   5.232   0.939   2.149  0.6461 -0.0690 -0.1861
 6406TIP3    H140777   5.269   0.869   2.096 -0.9127 -2.4797  1.6720
 6406TIP3    H240778   5.266   0.922   2.237  0.0583  1.4009  0.3490
 6407TIP3   OH240779   2.355   3.138   7.886  0.1681 -0.1659  0.1947
 6407TIP3    H140780   2.416   3.068   7.908 -2.9080 -2.8821  0.7985
 6407TIP3    H240781   2.360   3.199   7.960  0.3035 -1.6871  1.4865
 6408TIP3   OH240782   0.139   3.093   1.466  0.2918  0.2307  0.1929
 6408TIP3    H140783   0.099   3.019   1.421 -0.5539  0.7334  0.1043
 6408TIP3    H240784   0.134   3.166   1.404  2.6481 -0.0031 -0.3908
 6409TIP3   OH240785   2.208   5.013   8.252 -0.0383 -0.3282  0.6056
 6409TIP3    H140786   2.289   5.006   8.202 -1.4867 -0.0071 -1.9305
 6409TIP3    H240787   2.173   4.924   8.252 -1.5327  0.1826 -1.7251
 6410TIP3   OH240788   0.503   4.008   2.687 -0.6843 -0.3807  0.0986
 6410TIP3    H140789   0.425   3.979   2.638 -0.7131  0.3408 -0.2879
 6410TIP3    H240790   0.556   4.055   2.623  0.1911 -1.0587  0.3052
 6411TIP3   OH240791   6.712   5.014   7.844  0.0924  0.0171  0.7763
 6411TIP3    H140792   6.711   4.918   7.850  0.6488 -0.3280 -2.4981
 6411TIP3    H240793   6.623   5.041   7.864 -0.6299 -1.4395 -0.3055
 6412TIP3   OH240794   6.318   2.389   0.124 -0.2711 -0.2556 -0.3332
 6412TIP3    H140795   6.297   2.305   0.084 -0.1166  0.4166 -1.8631
 6412TIP3    H240796   6.239   2.441   0.114 -0.1677 -0.0076  0.1016
 6413TIP3   OH240797   3.970   5.696   2.070  0.0911 -0.5330 -0.6013
 6413TIP3    H140798   3.968   5.792   2.069 -0.6613 -0.5238 -2.2157
 6413TIP3    H240799   3.878   5.670   2.077  0.2739 -1.1428 -0.3733
 6414TIP3   OH240800   2.771   6.139   0.484 -0.3535 -0.1389 -0.9056
 6414TIP3    H140801   2.770   6.130   0.388 -1.0186  1.7356 -1.1176
 6414TIP3    H240802   2.816   6.222   0.500 -2.8875  1.1353  0.1865
 6415TIP3   OH240803   3.607   4.647   0.559  0.1203 -0.2342  0.1874
 6415TIP3    H140804   3.545   4.671   0.628  1.8922 -0.6809  2.0322
 6415TIP3    H240805   3.595   4.553   0.546 -1.6406  0.1579 -1.7114
 6416TIP3   OH240806   6.115   1.554   0.335 -0.0888 -0.5070  0.1544
 6416TIP3    H140807   6.101   1.559   0.430 -0.0908 -2.0542  0.2615
 6416TIP3    H240808   6.070   1.473   0.309  0.1540 -0.2451 -1.1190
 6417TIP3   OH240809   6.811   5.662   7.212  0.6256  0.5314 -0.3444
 6417TIP3    H140810   6.715   5.659   7.205  0.5867  0.3416  0.2292
 6417TIP3    H240811   6.842   5.598   7.148  0.3783  0.7871 -0.7227
 6418TIP3   OH240812   6.649   5.255   7.245  0.4062  0.3109 -0.0704
 6418TIP3    H140813   6.620   5.171   7.210  2.7275 -0.1358 -1.1521
 6418TIP3    H240814   6.656   5.240   7.340  0.2960 -0.5535 -0.1934
 6419TIP3   OH240815   6.222   0.530   1.431 -0.4524 -0.4726 -0.3452
 6419TIP3    H140816   6.313   0.501   1.419  0.5261  2.0468  0.2765
 6419TIP3    H240817   6.179   0.509   1.348  1.3012  0.2021 -1.4942
 6420TIP3   OH240818   2.347   5.430   6.724  0.0703  0.7083 -0.2163
 6420TIP3    H140819   2.261   5.473   6.727 -0.1899  0.1305  0.7326
 6420TIP3    H240820   2.408   5.497   6.756 -0.6268 -0.2581  3.6188
 6421TIP3   OH240821   5.106   6.223   8.344  0.0499  0.4590  0.3598
 6421TIP3    H140822   5.124   6.198   8.254 -0.5053  0.6937  0.1806
 6421TIP3    H240823   5.067   6.145   8.383  1.1272  0.0616  0.6545
 6422TIP3   OH240824   0.411   4.420   8.066  0.4755 -0.3738  0.1406
 6422TIP3    H140825   0.437   4.495   8.012 -0.0670  0.4558  0.9919
 6422TIP3    H240826   0.316   4.415   8.057  0.3592 -0.1573  1.0660
 6423TIP3   OH240827   1.997   6.510   0.148  0.0302  0.3250  0.2051
 6423TIP3    H140828   2.005   6.420   0.181 -1.3030  0.2916  0.5153
 6423TIP3    H240829   2.000   6.565   0.226 -3.5026  0.2223  0.5881
 6424TIP3   OH240830   4.799   0.003   1.361 -0.0375 -0.2204 -0.1775
 6424TIP3    H140831   4.810  -0.066   1.296 -0.3701 -0.5237  0.0847
 6424TIP3    H240832   4.853  -0.026   1.435  0.7180  0.3516 -0.4847
 6425TIP3   OH240833   2.408   1.676   1.433 -0.1491 -0.2617 -0.0960
 6425TIP3    H140834   2.467   1.748   1.411  1.0844 -1.4867 -0.9843
 6425TIP3    H240835   2.418   1.665   1.527 -1.1759  1.3820  0.2478
 6426TIP3   OH240836   6.343   5.683   8.110  0.1327  0.8567  0.1910
 6426TIP3    H140837   6.420   5.725   8.147 -0.1620  2.1365 -0.5709
 6426TIP3    H240838   6.269   5.724   8.155 -0.1217 -0.8126  1.3736
 6427TIP3   OH240839   1.998   0.983   7.285 -0.1868 -0.8169 -0.0898
 6427TIP3    H140840   1.924   1.044   7.283  0.4711 -0.0009 -1.3785
 6427TIP3    H240841   1.992   0.936   7.202  1.3063  0.0042 -0.6957
 6428TIP3   OH240842   3.841   3.604   7.197 -0.4881 -0.6426  0.0333
 6428TIP3    H140843   3.789   3.623   7.275 -0.5271 -4.1135  1.0477
 6428TIP3    H240844   3.784   3.628   7.123 -0.9891  1.4205  1.0183
 6429TIP3   OH240845   0.585   4.696   1.562 -0.0491  0.8363  0.1319
 6429TIP3    H140846   0.573   4.684   1.468  0.9621  0.2503  0.0618
 6429TIP3    H240847   0.677   4.722   1.571 -0.5851  2.6321  0.8276
 6430TIP3   OH240848   1.146   4.376   2.195  0.0017  0.5345 -0.2410
 6430TIP3    H140849   1.238   4.370   2.218  0.2713  0.1212 -1.3648
 6430TIP3    H240850   1.099   4.362   2.278  0.9313  1.0916  0.4027
 6431TIP3   OH240851   4.027   1.226   8.311  0.1875  0.2108  0.3814
 6431TIP3    H140852   4.074   1.262   8.386  0.5591 -0.8606  0.6791
 6431TIP3    H240853   4.060   1.137   8.302  0.2910  0.3738 -1.1896
 6432TIP3   OH240854   6.884   3.153   7.666  0.1998 -0.0150  0.6047
 6432TIP3    H140855   6.815   3.151   7.732 -0.8734  1.9758 -0.3857
 6432TIP3    H240856   6.962   3.181   7.714 -0.2241  0.0023  1.2992
 6433TIP3   OH240857   0.627   6.861   2.262  0.2281  0.0032  0.0446
 6433TIP3    H140858   0.705   6.904   2.298  0.7096 -0.1918 -0.7256
 6433TIP3    H240859   0.561   6.869   2.331  1.7989 -2.4843  2.0503
 6434TIP3   OH240860   0.157   0.188   0.161 -0.1605 -0.7070 -0.5390
 6434TIP3    H140861   0.214   0.127   0.207  0.5774  0.8866  0.7838
 6434TIP3    H240862   0.070   0.170   0.196  0.3530  0.3237  1.4244
 6435TIP3   OH240863   6.828   6.723   8.423  0.2568  0.0015  0.4646
 6435TIP3    H140864   6.818   6.747   8.515 -0.2617 -0.4792  0.5417
 6435TIP3    H240865   6.876   6.641   8.425 -1.0321 -0.7889  0.4012
 6436TIP3   OH240866   5.130   1.985   1.147 -0.0822  0.4965 -0.6321
 6436TIP3    H140867   5.051   2.039   1.140  0.9464  2.2525  0.3458
 6436TIP3    H240868   5.118   1.935   1.228 -1.0981 -0.8994 -1.6076
 6437TIP3   OH240869   3.419   3.886   8.232 -0.2246  0.1364 -0.6093
 6437TIP3    H140870   3.347   3.931   8.187 -1.0216 -0.5473 -0.0592
 6437TIP3    H240871   3.417   3.797   8.196  1.0112  0.3779 -1.3246
 6438TIP3   OH240872   6.084   2.150   7.202 -0.0997  0.4953 -0.0496
 6438TIP3    H140873   6.156   2.104   7.246  0.5147  0.9351 -0.5763
 6438TIP3    H240874   6.091   2.123   7.111 -1.3339 -0.3681  0.0955
 6439TIP3   OH240875   6.577   1.157   0.850 -0.1201  0.0958  0.0042
 6439TIP3    H140876   6.671   1.158   0.865 -0.2578 -0.3786  1.0624
 6439TIP3    H240877   6.567   1.152   0.755  0.9062  0.5676 -0.1379
 6440TIP3   OH240878   0.858   1.662   8.254  0.2567 -0.1350  0.1778
 6440TIP3    H140879   0.897   1.577   8.231  1.7583  0.1887  1.4050
 6440TIP3    H240880   0.860   1.664   8.350 -1.2404  0.6334  0.2175
 6441TIP3   OH240881   2.113   5.209   6.840 -0.1533 -0.3796 -0.2902
 6441TIP3    H140882   2.099   5.293   6.884 -3.6436 -1.1036  0.2557
 6441TIP3    H240883   2.116   5.231   6.747  1.9834  0.5916 -0.0526
 6442TIP3   OH240884   4.396   0.450   8.376  0.1849  0.6149 -0.5034
 6442TIP3    H140885   4.387   0.358   8.400  1.6065  0.7069  0.5179
 6442TIP3    H240886   4.453   0.487   8.443 -0.3801  2.2609 -0.8759
 6443TIP3   OH240887   0.709   0.731   0.312 -0.7510  0.0705 -0.4614
 6443TIP3    H140888   0.618   0.752   0.329 -0.4788 -0.3411  1.7490
 6443TIP3    H240889   0.755   0.815   0.316 -0.7468  0.0244  0.5711
 6444TIP3   OH240890   1.381   0.645   1.350  0.2908 -0.9258  0.1870
 6444TIP3    H140891   1.412   0.682   1.268  1.7417 -0.4918  0.8905
 6444TIP3    H240892   1.285   0.644   1.342  0.3749 -0.0628 -1.1315
 6445TIP3   OH240893   6.267   1.237   1.207 -0.2025  0.2888  0.1032
 6445TIP3    H140894   6.197   1.173   1.192 -0.4799  0.6264 -0.0697
 6445TIP3    H240895   6.256   1.261   1.299  0.0934 -0.1326  0.2516
 6446TIP3   OH240896   6.396   1.490   8.171 -0.2259  0.2809  0.2963
 6446TIP3    H140897   6.342   1.429   8.221  0.4147  0.2463  0.9648
 6446TIP3    H240898   6.335   1.557   8.142 -0.7218 -0.0339  0.5866
 6447TIP3   OH240899   3.514   2.332   0.594  0.3739  0.2006 -0.4570
 6447TIP3    H140900   3.489   2.422   0.574  0.0153  0.4461  0.9748
 6447TIP3    H240901   3.501   2.285   0.512  0.1875  1.3638 -1.1255
 6448TIP3   OH240902   4.890   5.890   8.130  0.4704  0.0109  0.1208
 6448TIP3    H140903   4.849   5.968   8.093  0.0840  0.3885  1.3038
 6448TIP3    H240904   4.821   5.823   8.126  0.6450 -0.1395 -0.4454
 6449TIP3   OH240905   5.746   6.424   1.121 -0.1258 -0.7007 -0.5119
 6449TIP3    H140906   5.729   6.511   1.087  0.5683  0.3015  1.5714
 6449TIP3    H240907   5.835   6.403   1.090  0.1543 -0.1823 -0.0594
 6450TIP3   OH240908   4.044   4.751   7.227 -0.5935 -0.1494  0.0244
 6450TIP3    H140909   4.118   4.697   7.203  0.1499  0.1884  1.4325
 6450TIP3    H240910   3.998   4.769   7.145 -1.3960 -3.6262 -0.4111
 6451TIP3   OH240911   4.802   6.101   2.358 -0.4133 -1.0206  0.2256
 6451TIP3    H140912   4.897   6.099   2.372 -0.2675  1.1802 -0.0215
 6451TIP3    H240913   4.790   6.071   2.268  0.5942  2.8574 -1.4036
 6452TIP3   OH240914   6.477   0.177   0.330 -0.6409 -0.3367 -0.1908
 6452TIP3    H140915   6.429   0.244   0.380  0.6687  0.0226  0.6378
 6452TIP3    H240916   6.474   0.208   0.240  1.1077  1.6398  0.3416
 6453TIP3   OH240917   6.377   2.626   7.372  0.0775 -0.1136  0.0281
 6453TIP3    H140918   6.369   2.531   7.385 -3.1265  0.1109  0.4723
 6453TIP3    H240919   6.395   2.661   7.459  0.4722 -0.2216 -0.0050
 6454TIP3   OH240920   3.335   2.614   0.716 -0.2358 -0.4836  0.7149
 6454TIP3    H140921   3.397   2.687   0.704  1.5108 -2.1886 -1.7643
 6454TIP3    H240922   3.378   2.556   0.779  0.9394 -1.7853 -1.1863
 6455TIP3   OH240923   3.145   4.614   0.717  0.1146  0.2212  0.2304
 6455TIP3    H140924   3.076   4.674   0.690  0.8906  1.1538  0.2497
 6455TIP3    H240925   3.113   4.575   0.799 -0.9923 -0.4575 -0.4915
 6456TIP3   OH240926   4.729   2.425   1.363 -0.3672  0.1064  0.0525
 6456TIP3    H140927   4.822   2.447   1.375  0.0217 -0.0312 -2.2999
 6456TIP3    H240928   4.729   2.333   1.338 -1.2167 -0.0710  0.6676
 6457TIP3   OH240929   2.002   3.640   7.336  0.2382  0.4529 -0.3815
 6457TIP3    H140930   2.043   3.609   7.417  1.9433  1.7979 -0.6693
 6457TIP3    H240931   1.909   3.643   7.357  0.1835 -2.6375  0.3364
 6458TIP3   OH240932   4.516   2.107   8.596  0.3969  0.3859 -0.0697
 6458TIP3    H140933   4.456   2.036   8.575 -0.1034  1.2266 -1.6995
 6458TIP3    H240934   4.513   2.114   8.691  0.9742 -2.1650  0.2193
 6459TIP3   OH240935   2.543   6.834   0.443  0.0817  0.5493  0.3496
 6459TIP3    H140936   2.638   6.829   0.433  0.1596  0.7769  0.9250
 6459TIP3    H240937   2.528   6.815   0.536 -0.1511  3.7277  1.0784
 6460TIP3   OH240938   5.592   0.516   1.821 -0.2068 -0.1226  0.7071
 6460TIP3    H140939   5.597   0.604   1.856  0.1362 -0.2960  1.0984
 6460TIP3    H240940   5.670   0.472   1.855  1.9409  0.6108 -2.7970
 6461TIP3   OH240941   5.481   2.041   8.280  0.2242  0.1968 -0.1989
 6461TIP3    H140942   5.515   2.008   8.363 -2.1476  0.7490  1.1017
 6461TIP3    H240943   5.554   2.035   8.219  1.5369 -1.8971  1.4638
 6462TIP3   OH240944   0.347   2.946   0.597 -0.0791  0.1062 -0.3660
 6462TIP3    H140945   0.396   2.873   0.635  2.0584  1.0540 -1.1322
 6462TIP3    H240946   0.301   2.907   0.523 -1.4460 -1.0265  1.0060
 6463TIP3   OH240947   3.584   1.338   0.090 -0.1865  0.2137  0.2577
 6463TIP3    H140948   3.578   1.368  -0.001 -0.6183 -0.9475 -0.1222
 6463TIP3    H240949   3.673   1.361   0.117 -0.0212  0.4867 -0.4967
 6464TIP3   OH240950   2.480   1.686   6.734  0.3502 -0.5795 -0.3432
 6464TIP3    H140951   2.474   1.732   6.650 -1.1357 -0.4832 -0.2010
 6464TIP3    H240952   2.563   1.638   6.728 -0.9022 -2.7635 -3.0209
 6465TIP3   OH240953   2.450   3.269   0.494  0.0737  0.0365 -0.2688
 6465TIP3    H140954   2.533   3.234   0.527  0.2192  0.7774  0.1712
 6465TIP3    H240955   2.419   3.203   0.433  2.0465  0.6799 -2.0985
 6466TIP3   OH240956   5.595   3.410   8.266  0.1111 -0.1597 -0.4251
 6466TIP3    H140957   5.592   3.425   8.361 -1.3994 -1.4794 -0.2118
 6466TIP3    H240958   5.685   3.430   8.242  1.0773 -1.5440  1.6372
 6467TIP3   OH240959   5.509   0.842   8.289 -0.6354 -0.1468 -0.2959
 6467TIP3    H140960   5.574   0.890   8.239 -0.2854 -1.0443 -0.7387
 6467TIP3    H240961   5.456   0.798   8.223 -0.7176 -0.6518  0.0976
 6468TIP3   OH240962   6.075   5.316   1.387  0.2999  0.5501  0.3226
 6468TIP3    H140963   6.016   5.260   1.437  2.1847 -0.0530  2.0200
 6468TIP3    H240964   6.136   5.256   1.345 -1.3193  1.0270 -3.0314
 6469TIP3   OH240965   4.975   0.190   6.328 -0.1965  0.5954 -0.0001
 6469TIP3    H140966   5.030   0.181   6.251 -0.2749  0.4707 -0.0403
 6469TIP3    H240967   4.885   0.187   6.294 -0.2543 -0.8652  0.2554
 6470TIP3   OH240968   2.118   3.874   0.694 -0.4298 -0.1171 -0.6053
 6470TIP3    H140969   2.132   3.782   0.671  1.3153 -0.1994  0.5460
 6470TIP3    H240970   2.067   3.870   0.775  2.1890 -0.2497  1.1326
 6471TIP3   OH240971   0.643   3.488   0.070  0.1348  0.2787  0.4834
 6471TIP3    H140972   0.695   3.532   0.138  1.0415 -1.2784  0.8698
 6471TIP3    H240973   0.558   3.473   0.111  0.2650  0.4794  0.8331
 6472TIP3   OH240974   4.704   3.598   7.596 -0.3891 -0.6042  0.0245
 6472TIP3    H140975   4.671   3.592   7.507  0.1103 -0.9360 -0.1387
 6472TIP3    H240976   4.778   3.658   7.591 -0.7610 -0.1047  0.3368
 6473TIP3   OH240977   5.214   5.822   2.188  0.7048  0.3191 -0.1231
 6473TIP3    H140978   5.264   5.845   2.266 -1.3452 -0.6437  1.5882
 6473TIP3    H240979   5.224   5.727   2.180  0.4902  0.3408 -0.7148
 6474TIP3   OH240980   1.827   3.447   7.523 -0.2361  0.1064  0.4289
 6474TIP3    H140981   1.848   3.356   7.504 -1.5721  0.1250 -1.3737
 6474TIP3    H240982   1.890   3.472   7.591  2.4610 -1.1347 -1.4313
 6475TIP3   OH240983   0.101   4.031   1.340  0.1439  1.0313  0.0424
 6475TIP3    H140984   0.047   4.060   1.414  0.3693 -0.2828  0.7670
 6475TIP3    H240985   0.118   3.938   1.359  0.1230  0.6348 -1.7240
 6476TIP3   OH240986   3.925   1.322   1.322 -0.4401 -0.1076 -0.6570
 6476TIP3    H140987   4.013   1.333   1.287 -0.1386 -1.0809 -0.2505
 6476TIP3    H240988   3.871   1.383   1.272  0.5749  0.9998 -0.4467
 6477TIP3   OH240989   0.163   2.064   7.874 -0.4215 -0.1626 -0.5679
 6477TIP3    H140990   0.143   2.157   7.879  0.8816  0.1962 -1.6496
 6477TIP3    H240991   0.077   2.022   7.863 -0.8818  1.0700 -2.0505
 6478TIP3   OH240992   2.489   5.656   1.502 -0.5201  0.6081 -0.7507
 6478TIP3    H140993   2.473   5.562   1.514 -2.6071  0.8086 -1.4708
 6478TIP3    H240994   2.541   5.682   1.578  0.5791 -1.2121 -0.8183
 6479TIP3   OH240995   5.138   1.671   0.031 -0.3624  0.1660  0.3183
 6479TIP3    H140996   5.051   1.657   0.068 -0.3936  1.3450  0.7516
 6479TIP3    H240997   5.121   1.714  -0.053 -0.2101 -0.0943  0.1536
 6480TIP3   OH240998   2.424   6.459   6.525  0.0809  0.1548 -0.2523
 6480TIP3    H140999   2.353   6.494   6.580  0.0891  1.0897 -0.8216
 6480TIP3    H241000   2.388   6.459   6.437  0.1249 -1.2066 -0.2802
 6481TIP3   OH241001   3.030   1.026   6.718 -0.3460  0.1774  0.1650
 6481TIP3    H141002   3.108   0.975   6.739  0.6800  1.6449  0.0639
 6481TIP3    H241003   3.026   1.028   6.622 -1.6644 -1.5388  0.1364
 6482TIP3   OH241004   4.963   5.036   1.920 -0.2284  0.1463  0.3935
 6482TIP3    H141005   4.934   5.057   2.009 -2.0412  0.0441 -0.1230
 6482TIP3    H241006   4.964   4.940   1.917  0.5486  0.1464  0.5091
 6483TIP3   OH241007   1.091   1.526   2.066  0.0641  0.0373 -0.1893
 6483TIP3    H141008   1.126   1.589   2.130  1.1650  0.0076 -0.7281
 6483TIP3    H241009   1.063   1.451   2.119 -2.0489  1.2611  0.5551
 6484TIP3   OH241010   0.268   2.341   7.121  0.1376 -0.0784 -0.2539
 6484TIP3    H141011   0.201   2.329   7.054 -1.3406 -0.1619  1.1771
 6484TIP3    H241012   0.300   2.252   7.138 -1.4417 -0.4600  1.0247
 6485TIP3   OH241013   3.124   1.343   0.290  0.4116  0.3208 -0.6578
 6485TIP3    H141014   3.176   1.263   0.301 -1.6625 -0.8476  1.8279
 6485TIP3    H241015   3.166   1.407   0.347  1.2199  0.5519 -1.5017
 6486TIP3   OH241016   2.643   2.090   6.422  0.2647 -0.1324  0.0964
 6486TIP3    H141017   2.581   2.077   6.494 -0.5648  0.0830 -0.5640
 6486TIP3    H241018   2.604   2.160   6.369  1.8010  1.0544  0.4545
 6487TIP3   OH241019   4.800   5.175   8.592  0.4668 -0.0814  0.0900
 6487TIP3    H141020   4.705   5.184   8.580  0.5470  0.8007  0.0820
 6487TIP3    H241021   4.817   5.082   8.575 -0.4364 -0.3145  0.3973
 6488TIP3   OH241022   5.764   5.982   6.430  0.1822 -0.1142 -0.5883
 6488TIP3    H141023   5.740   6.014   6.344  0.2632  0.7319 -0.3007
 6488TIP3    H241024   5.751   6.056   6.489  0.3606 -0.6044  0.0910
 6489TIP3   OH241025   3.689   4.111   8.028 -0.9407 -0.1694 -0.2743
 6489TIP3    H141026   3.678   4.129   8.122 -0.4784 -0.9020 -0.0714
 6489TIP3    H241027   3.738   4.029   8.025 -0.2870  0.2380 -1.1613
 6490TIP3   OH241028   0.407   3.485   1.381 -0.6708 -0.0132  0.3660
 6490TIP3    H141029   0.321   3.442   1.379 -0.5127 -0.7701  3.4847
 6490TIP3    H241030   0.390   3.570   1.421  0.1680 -0.8474  2.6464
 6491TIP3   OH241031   6.388   0.678   1.646  0.0498  1.0952 -0.3394
 6491TIP3    H141032   6.401   0.637   1.561  0.8858 -0.3246  0.4260
 6491TIP3    H241033   6.332   0.616   1.694 -1.0575  2.2423 -0.0928
 6492TIP3   OH241034   4.921   4.920   0.665  0.1927  0.4490 -0.7134
 6492TIP3    H141035   4.930   4.944   0.757 -0.2311  0.2062 -0.6087
 6492TIP3    H241036   4.984   4.976   0.619 -0.0773  1.0538 -0.3538
 6493TIP3   OH241037   2.703   0.370   0.172  0.3238  0.2103  0.1587
 6493TIP3    H141038   2.779   0.316   0.149  0.2825  0.6997 -1.2293
 6493TIP3    H241039   2.649   0.314   0.227  0.4292 -1.0830 -0.9929
 6494TIP3   OH241040   5.294   5.595   1.062 -0.5478  0.1315  0.1792
 6494TIP3    H141041   5.250   5.585   0.978  1.5316 -1.2303 -0.8172
 6494TIP3    H241042   5.263   5.521   1.114  0.2652 -0.6147 -0.3860
 6495TIP3   OH241043   0.090   0.708   6.165 -0.9799  0.4112 -0.0687
 6495TIP3    H141044   0.136   0.750   6.092 -0.3604 -1.9990 -1.1320
 6495TIP3    H241045   0.016   0.664   6.124 -0.2755 -1.5024  0.6405
 6496TIP3   OH241046   3.281   2.585   7.030 -0.0354 -0.2068  0.1235
 6496TIP3    H141047   3.348   2.652   7.017  0.3154 -0.8030 -1.3307
 6496TIP3    H241048   3.330   2.503   7.036 -0.5792 -0.5395  0.0463
 6497TIP3   OH241049   6.520   2.980   0.016 -0.2949  0.0877  0.4227
 6497TIP3    H141050   6.567   3.023  -0.056  0.2005 -0.9627  0.1016
 6497TIP3    H241051   6.452   3.044   0.041  0.7341  1.2657  0.3170
 6498TIP3   OH241052   0.685   2.920   0.695  1.3188  0.0815  0.2859
 6498TIP3    H141053   0.655   2.833   0.667  2.4756 -0.3882  0.4406
 6498TIP3    H241054   0.605   2.968   0.714  0.6416 -0.8071 -0.2373
 6499TIP3   OH241055   0.587   4.335   8.600 -0.4911  0.2404 -0.1038
 6499TIP3    H141056   0.526   4.409   8.591 -0.9761 -0.0859  0.4168
 6499TIP3    H241057   0.537   4.259   8.570  1.1701  0.5548 -4.3540
 6500TIP3   OH241058   5.748   4.196   0.146 -0.0482 -0.6818  0.0051
 6500TIP3    H141059   5.807   4.265   0.179  1.0452 -2.0510  1.0125
 6500TIP3    H241060   5.800   4.152   0.078 -0.5324 -0.8701 -0.2448
 6501TIP3   OH241061   3.596   3.555   0.931 -0.0698  0.0391  0.2934
 6501TIP3    H141062   3.552   3.632   0.967  0.0955  0.2019  0.1455
 6501TIP3    H241063   3.529   3.487   0.932 -0.1121  0.0847  0.7659
 6502TIP3   OH241064   0.024   2.736   0.689 -0.0635 -0.0814 -0.7686
 6502TIP3    H141065   0.081   2.663   0.712 -1.1202 -0.4330  0.9498
 6502TIP3    H241066  -0.052   2.695   0.646 -0.6644 -0.0255  0.2097
 6503TIP3   OH241067   5.219   4.931   1.574 -0.3875  0.0834  0.0811
 6503TIP3    H141068   5.290   4.910   1.634 -0.2668 -0.6744 -0.3164
 6503TIP3    H241069   5.198   4.848   1.532 -1.9346  0.1640  0.6414
 6504TIP3   OH241070   2.625   1.043   0.237  0.0708 -0.6558 -0.3907
 6504TIP3    H141071   2.537   1.051   0.273 -0.0017 -0.9948 -0.4877
 6504TIP3    H241072   2.624   0.961   0.187  0.5733 -0.9025 -0.0121
 6505TIP3   OH241073   2.340   6.670   0.899 -0.3027  0.2622 -0.5618
 6505TIP3    H141074   2.378   6.737   0.957 -0.4629 -0.8994  0.9403
 6505TIP3    H241075   2.264   6.637   0.947 -0.4757 -0.7133 -1.4654
 6506TIP3   OH241076   0.388   2.183   6.439  0.9960  0.4569 -0.3370
 6506TIP3    H141077   0.327   2.252   6.412  0.1929 -0.3460 -0.6530
 6506TIP3    H241078   0.448   2.174   6.365 -0.4462 -0.8858 -1.4269
 6507TIP3   OH241079   6.427   6.872   1.085  0.3679 -0.2251 -0.4245
 6507TIP3    H141080   6.395   6.826   1.163  0.7046  0.4861  0.1410
 6507TIP3    H241081   6.357   6.861   1.021 -0.9356  1.0896  0.6940
 6508TIP3   OH241082   3.717   1.975   2.241 -0.1594  0.2810 -0.1928
 6508TIP3    H141083   3.774   2.052   2.242  1.0922 -0.5050  2.9693
 6508TIP3    H241084   3.773   1.904   2.274 -1.9669 -1.3946 -0.5527
 6509TIP3   OH241085   3.881   2.126   7.326 -0.4592 -0.2040 -0.3573
 6509TIP3    H141086   3.922   2.211   7.342  0.4419 -0.7826  0.5470
 6509TIP3    H241087   3.917   2.098   7.241  0.0799 -0.1582 -0.1494
 6510TIP3   OH241088   0.315   6.239   6.806  0.1497  0.2622  0.5408
 6510TIP3    H141089   0.376   6.217   6.877  1.7510 -2.4189 -1.5108
 6510TIP3    H241090   0.263   6.160   6.794 -0.4175  0.8410 -0.9492
 6511TIP3   OH241091   6.001   0.054   0.566 -0.5559 -0.0536  0.3649
 6511TIP3    H141092   5.908   0.044   0.545 -0.3077 -1.1139 -0.3305
 6511TIP3    H241093   6.038   0.102   0.492 -0.5930  0.6091  0.7704
 6512TIP3   OH241094   4.655   3.279   1.808 -0.3541 -0.0156  0.2853
 6512TIP3    H141095   4.562   3.271   1.786 -0.6792 -1.9513  2.0118
 6512TIP3    H241096   4.696   3.204   1.765 -0.0623 -0.6023  1.5273
 6513TIP3   OH241097   6.342   5.960   1.035  0.4621  0.0702 -0.2583
 6513TIP3    H141098   6.338   5.880   0.983  0.8246 -1.1891  1.5593
 6513TIP3    H241099   6.399   5.939   1.109 -1.3294  1.1815  1.5761
 6514TIP3   OH241100   2.360   5.346   1.956  0.2722 -0.7299  0.0235
 6514TIP3    H141101   2.435   5.298   1.990  0.8481  0.2364  0.1792
 6514TIP3    H241102   2.289   5.282   1.952  1.0054 -1.5659  0.2372
 6515TIP3   OH241103   0.674   5.098   8.054  0.3322  0.0567 -0.3041
 6515TIP3    H141104   0.692   5.188   8.025  3.5299 -0.4343 -0.2277
 6515TIP3    H241105   0.687   5.099   8.148  0.3181 -0.4586 -0.2906
 6516TIP3   OH241106   1.238   1.919   6.490 -0.0901 -0.1192 -0.8190
 6516TIP3    H141107   1.182   1.849   6.457  0.5072 -1.4257  0.7538
 6516TIP3    H241108   1.177   1.989   6.514 -0.7922 -0.4542 -1.5841
 6517TIP3   OH241109   3.490   6.866   7.618 -0.0677  0.2478  0.0737
 6517TIP3    H141110   3.440   6.847   7.539  0.6379  1.3861 -0.6699
 6517TIP3    H241111   3.426   6.860   7.689 -1.0823  0.8255 -0.7633
 6518TIP3   OH241112   1.575   4.086   8.025  0.2271  0.0701 -0.2277
 6518TIP3    H141113   1.644   4.067   8.088 -0.8097  0.3777  1.0440
 6518TIP3    H241114   1.591   4.178   8.000  0.0128  0.2800  0.4032
 6519TIP3   OH241115   0.520   4.023   1.137  0.0094  0.6256  0.5638
 6519TIP3    H141116   0.576   4.038   1.061 -0.2450  0.8124  0.4145
 6519TIP3    H241117   0.540   3.934   1.164 -1.5763 -0.2847 -1.1022
 6520TIP3   OH241118   4.727   1.632   8.185 -0.1000  0.4634 -0.5606
 6520TIP3    H141119   4.775   1.706   8.222  0.7045 -1.1828  1.8997
 6520TIP3    H241120   4.635   1.651   8.201  0.2000  0.0413  1.9826
 6521TIP3   OH241121   0.113   2.682   7.140 -0.5586 -0.4949 -0.8914
 6521TIP3    H141122   0.021   2.707   7.127 -0.9735 -0.3005  1.8465
 6521TIP3    H241123   0.108   2.593   7.176  0.5206 -1.4810 -2.9877
 6522TIP3   OH241124   5.608   3.724   7.451  0.1100  0.2041  0.3149
 6522TIP3    H141125   5.565   3.787   7.510 -1.1409  0.4743 -0.8281
 6522TIP3    H241126   5.568   3.640   7.473  0.6210  0.0778  0.7617
 6523TIP3   OH241127   6.487   3.938   8.451  0.0301  0.0906  0.1018
 6523TIP3    H141128   6.441   3.923   8.369  1.7266  1.4145 -1.1702
 6523TIP3    H241129   6.426   3.988   8.505 -1.1517 -0.9175 -0.2604
 6524TIP3   OH241130   0.068   4.534   7.102  0.5401 -0.0394 -0.2987
 6524TIP3    H141131   0.103   4.524   7.014 -0.4138  3.4652 -1.2451
 6524TIP3    H241132  -0.025   4.552   7.089 -0.6573 -3.7440  1.7939
 6525TIP3   OH241133   0.259   3.235   7.406  0.2478  0.0236 -0.2324
 6525TIP3    H141134   0.176   3.277   7.430 -0.0585  0.0017 -1.2056
 6525TIP3    H241135   0.318   3.307   7.385  0.0227  0.0063 -0.9488
 6526TIP3   OH241136   5.576   4.645   0.963  0.1821 -0.4423  0.2250
 6526TIP3    H141137   5.646   4.631   1.026 -0.7576 -0.5333  1.2969
 6526TIP3    H241138   5.574   4.739   0.949  1.6619 -0.5890 -1.2086
 6527TIP3   OH241139   5.357   1.784   7.648  0.0366 -0.3622 -0.4145
 6527TIP3    H141140   5.318   1.699   7.668  0.5452 -0.4103  0.4189
 6527TIP3    H241141   5.447   1.778   7.682 -0.6005  1.3116  1.8249
 6528TIP3   OH241142   3.436   4.528   7.865  0.0466 -0.4739  0.2035
 6528TIP3    H141143   3.360   4.550   7.920  1.0061  0.8675  1.0442
 6528TIP3    H241144   3.446   4.604   7.808  0.2951 -0.9816 -0.4261
 6529TIP3   OH241145   6.417   3.326   7.155  0.6770  1.0281  0.2224
 6529TIP3    H141146   6.481   3.397   7.165  1.2440  0.4569  0.7462
 6529TIP3    H241147   6.460   3.262   7.098  0.6279  0.5731  0.6916
 6530TIP3   OH241148   3.159   6.144   1.239  0.0561 -0.1812 -0.4924
 6530TIP3    H141149   3.217   6.113   1.170 -1.0654 -1.4786 -0.9025
 6530TIP3    H241150   3.217   6.165   1.312  1.0543 -1.2411 -0.9560
 6531TIP3   OH241151   5.194   1.376   8.394  0.6903  0.0329 -0.0287
 6531TIP3    H141152   5.251   1.419   8.330 -1.6911  0.8235 -1.7784
 6531TIP3    H241153   5.172   1.292   8.354  1.2837 -0.6426  1.0281
 6532TIP3   OH241154   1.952   1.867   1.856 -0.0566  0.2354 -0.3487
 6532TIP3    H141155   1.859   1.848   1.850  0.0089 -0.2374  0.0921
 6532TIP3    H241156   1.965   1.942   1.797 -1.1350  1.8212  1.3150
 6533TIP3   OH241157   3.609   5.090   7.568 -0.3221 -0.5612 -0.2126
 6533TIP3    H141158   3.674   5.157   7.590  0.7765 -1.4477 -0.6590
 6533TIP3    H241159   3.593   5.101   7.474  0.9321 -1.7865 -0.6064
 6534TIP3   OH241160   5.023   4.784   2.865  0.0485  0.9373 -0.1178
 6534TIP3    H141161   5.073   4.830   2.798  1.9341 -0.1181  0.4746
 6534TIP3    H241162   5.088   4.729   2.909 -1.9791 -2.0222 -0.5635
 6535TIP3   OH241163   4.274   5.871   7.202 -0.3633 -0.5115  0.6626
 6535TIP3    H141164   4.368   5.884   7.215 -0.3239  0.1210 -0.1613
 6535TIP3    H241165   4.267   5.836   7.113 -0.9452  0.0298  0.4886
 6536TIP3   OH241166   3.501   6.581   8.253  0.4706  0.1725 -0.1111
 6536TIP3    H141167   3.505   6.486   8.245 -0.5403  0.2364 -2.0041
 6536TIP3    H241168   3.570   6.613   8.194 -0.0463  0.6003 -0.5046
 6537TIP3   OH241169   6.781   6.228   8.340 -0.2561  0.4533  0.6580
 6537TIP3    H141170   6.708   6.283   8.370 -1.6703 -0.7799 -0.3179
 6537TIP3    H241171   6.772   6.228   8.244 -0.8426 -2.0760  0.6445
 6538TIP3   OH241172   3.697   5.292   6.746 -0.0763 -0.4793 -0.5444
 6538TIP3    H141173   3.660   5.205   6.735 -0.7247 -0.5532  1.7703
 6538TIP3    H241174   3.785   5.285   6.708 -0.5846 -1.7241 -1.5925
 6539TIP3   OH241175   3.954   2.347   1.471  0.8416  0.0115 -0.0646
 6539TIP3    H141176   4.018   2.389   1.529 -1.2181 -1.7720  3.8852
 6539TIP3    H241177   3.989   2.259   1.457  1.1752  0.3356 -1.4112
 6540TIP3   OH241178   3.439   3.133   7.948  0.1078 -0.2178 -0.2782
 6540TIP3    H141179   3.490   3.085   7.882 -1.2534 -0.7776 -0.9650
 6540TIP3    H241180   3.386   3.194   7.897  0.1547  0.4273  0.4312
 6541TIP3   OH241181   3.083   1.350   8.064 -0.0385  0.3498 -0.3049
 6541TIP3    H141182   3.034   1.280   8.021  0.5001 -0.0608 -0.2602
 6541TIP3    H241183   3.076   1.425   8.005 -0.3745  0.1707 -0.4918
 6542TIP3   OH241184   1.771   3.736   7.799  0.4595 -0.1528  0.0714
 6542TIP3    H141185   1.725   3.652   7.798  0.7555 -0.3164  0.3513
 6542TIP3    H241186   1.701   3.801   7.807  0.0135 -0.2310 -2.3999
 6543TIP3   OH241187   2.675   0.566   0.960 -0.3623 -0.1602 -0.2294
 6543TIP3    H141188   2.666   0.497   0.895 -1.6644  0.3153 -0.5706
 6543TIP3    H241189   2.659   0.523   1.044  2.4077 -1.0169 -0.0397
 6544TIP3   OH241190   5.809   1.708   0.479 -0.1097 -0.3207 -0.3668
 6544TIP3    H141191   5.827   1.719   0.385  0.6567 -1.2750 -0.3463
 6544TIP3    H241192   5.754   1.630   0.483  1.3711 -1.3762  0.1026
 6545TIP3   OH241193   3.218   5.764   8.513 -0.3034 -0.0273 -0.8157
 6545TIP3    H141194   3.164   5.741   8.437  0.5650 -0.7385 -1.2315
 6545TIP3    H241195   3.285   5.696   8.516  0.5784  0.8458 -0.3053
 6546TIP3   OH241196   2.536   6.618   2.068  0.1988 -0.6877 -0.1293
 6546TIP3    H141197   2.523   6.559   2.142 -0.1415 -1.2989 -0.6732
 6546TIP3    H241198   2.594   6.570   2.009  1.9309  0.4820  0.5098
 6547TIP3   OH241199   2.021   3.607   0.124 -0.2051 -0.2294 -0.4676
 6547TIP3    H141200   2.102   3.611   0.074  1.1099 -1.2666  1.4277
 6547TIP3    H241201   1.987   3.697   0.122  0.1992 -0.0767 -2.4710
 6548TIP3   OH241202   3.913   1.455   1.996 -0.2326  0.0343  0.6245
 6548TIP3    H141203   3.940   1.364   2.001  1.0012  0.3360 -0.1424
 6548TIP3    H241204   3.940   1.493   2.080  2.1467  0.3978 -0.2187
 6549TIP3   OH241205   3.151   2.425   0.570 -0.0981 -0.4759  0.4019
 6549TIP3    H141206   3.171   2.390   0.483 -2.9149 -1.7449  0.1645
 6549TIP3    H241207   3.234   2.464   0.600  1.0539 -0.2730 -2.6810
 6550TIP3   OH241208   3.352   6.321   0.878  0.3628 -0.5170 -0.2258
 6550TIP3    H141209   3.268   6.351   0.913  1.1961  1.0509  0.5356
 6550TIP3    H241210   3.407   6.399   0.877  1.3801 -1.1937 -2.1031
 6551TIP3   OH241211   4.010   4.056   1.311 -0.1866  0.0094  0.3463
 6551TIP3    H141212   3.993   4.138   1.356  1.6813  0.5588  0.1063
 6551TIP3    H241213   3.940   4.050   1.245 -0.9576  0.8559  1.0708
 6552TIP3   OH241214   5.906   4.534   7.149  0.0041  0.2287  0.2679
 6552TIP3    H141215   5.838   4.558   7.086 -0.1332  1.5838  0.8936
 6552TIP3    H241216   5.970   4.485   7.098 -0.5411  0.5251 -0.7304
 6553TIP3   OH241217   5.725   4.159   8.226 -0.1448 -0.1449 -0.0470
 6553TIP3    H141218   5.663   4.095   8.189  1.5792 -1.7147 -0.3826
 6553TIP3    H241219   5.673   4.238   8.238 -1.8727 -0.9480 -1.6499
 6554TIP3   OH241220   0.114   1.050   7.220  0.6223 -0.0380 -0.1132
 6554TIP3    H141221   0.024   1.083   7.215  0.3581 -0.9461 -3.0229
 6554TIP3    H241222   0.167   1.129   7.224 -0.2551  0.5764 -0.1989
 6555TIP3   OH241223   6.472   1.466   1.171 -0.4392  0.5782  0.6390
 6555TIP3    H141224   6.443   1.390   1.221 -1.6240 -0.2159 -1.1614
 6555TIP3    H241225   6.417   1.466   1.094 -0.2319  3.1060  0.4264
 6556TIP3   OH241226   5.751   1.386   0.843 -0.7791 -0.2737  0.4608
 6556TIP3    H141227   5.817   1.440   0.799 -0.8070 -2.3044 -2.3765
 6556TIP3    H241228   5.800   1.336   0.908 -0.2599  1.0150  1.1015
 6557TIP3   OH241229   6.523   0.769   8.080 -0.3445  0.0697 -0.0864
 6557TIP3    H141230   6.560   0.703   8.022  1.2329  1.3862 -0.6778
 6557TIP3    H241231   6.587   0.779   8.150  0.2404  1.9620 -0.8012
 6558TIP3   OH241232   5.728   6.641   8.562  0.3470 -0.1966  0.7226
 6558TIP3    H141233   5.739   6.548   8.542  1.7886  0.1697 -0.3419
 6558TIP3    H241234   5.652   6.667   8.509  1.1859 -0.3353 -0.5963
 6559TIP3   OH241235   4.557   3.735   1.767  0.1745  0.5723 -0.2579
 6559TIP3    H141236   4.534   3.827   1.768  1.1980  0.8533  0.8269
 6559TIP3    H241237   4.642   3.731   1.812 -0.8953 -1.1278  1.8540
 6560TIP3   OH241238   2.129   0.418   8.262  0.5604 -0.1527 -0.3850
 6560TIP3    H141239   2.122   0.400   8.168  0.3740  1.0754 -0.6180
 6560TIP3    H241240   2.124   0.513   8.269  1.4234 -0.1713  0.8034
 6561TIP3   OH241241   1.339   3.845   1.899  0.4211 -0.2423 -0.0748
 6561TIP3    H141242   1.258   3.894   1.912 -0.2282 -1.1010 -0.7174
 6561TIP3    H241243   1.406   3.912   1.889 -0.6159  0.5885 -2.1594
 6562TIP3   OH241244   4.918   3.772   2.131  0.6329 -0.3078  0.2503
 6562TIP3    H141245   4.996   3.746   2.181  1.9067 -1.4319 -2.1382
 6562TIP3    H241246   4.857   3.804   2.197  3.3513  1.3224  2.1724
 6563TIP3   OH241247   6.778   5.005   0.076  0.2015 -0.5006  0.3064
 6563TIP3    H141248   6.706   4.977   0.019  0.2417  0.6882 -0.3522
 6563TIP3    H241249   6.735   5.030   0.157  0.2029 -2.8292  1.1032
 6564TIP3   OH241250   1.296   1.354   8.498 -0.6137  0.0224 -0.1239
 6564TIP3    H141251   1.283   1.410   8.575 -0.4727  0.4357 -0.3915
 6564TIP3    H241252   1.290   1.415   8.424 -0.5249 -0.3333 -0.4242
 6565TIP3   OH241253   6.281   3.357   1.203 -0.4415  0.1107 -0.0903
 6565TIP3    H141254   6.217   3.298   1.243  0.0210 -0.3925 -0.0689
 6565TIP3    H241255   6.294   3.321   1.115  1.7844 -1.4460  0.7594
 6566TIP3   OH241256   1.702   1.739   0.449  0.2611  0.2927  0.3872
 6566TIP3    H141257   1.720   1.649   0.421 -0.5376 -0.4429  2.1133
 6566TIP3    H241258   1.757   1.751   0.526 -0.0889  1.0807  0.5160
 6567TIP3   OH241259   1.370   6.040   0.655 -0.0502 -0.5425 -0.0750
 6567TIP3    H141260   1.286   6.079   0.681  0.0984 -1.6580  2.3610
 6567TIP3    H241261   1.431   6.068   0.723  1.2439 -0.8971 -1.0540
 6568TIP3   OH241262   6.395   5.037   7.420 -0.5964  0.3995 -0.1029
 6568TIP3    H141263   6.320   5.042   7.361 -0.7038  1.0933  0.0801
 6568TIP3    H241264   6.409   4.944   7.434 -1.8328  0.2743  0.3931
 6569TIP3   OH241265   6.489   4.909   1.071 -0.4647  0.3318  0.1245
 6569TIP3    H141266   6.534   4.826   1.087 -0.5808  0.4771  1.3442
 6569TIP3    H241267   6.559   4.974   1.066 -0.4199  0.2788  0.0694
 6570TIP3   OH241268   2.046   4.427   1.629 -0.3793  0.1905 -0.1231
 6570TIP3    H141269   2.054   4.521   1.617  2.1854  0.0563  0.1143
 6570TIP3    H241270   2.076   4.389   1.546  0.7009 -0.4318  0.5349
 6571TIP3   OH241271   6.524   6.752   1.580 -0.9442 -0.3885 -0.4881
 6571TIP3    H141272   6.600   6.695   1.595 -0.1536  0.9637  0.9886
 6571TIP3    H241273   6.453   6.710   1.628 -0.8739 -1.1164 -1.0043
 6572TIP3   OH241274   3.532   0.281   8.581  0.7037  0.0496  0.5334
 6572TIP3    H141275   3.603   0.336   8.548  0.4809  0.0798  0.0938
 6572TIP3    H241276   3.528   0.301   8.675  1.1002  0.2413  0.5121
 6573TIP3   OH241277   1.029   3.843   6.469  0.4868  0.3066  0.6246
 6573TIP3    H141278   1.028   3.934   6.498  0.0507  0.3059  0.6127
 6573TIP3    H241279   1.083   3.844   6.389  3.3493 -0.0058  2.4227
 6574TIP3   OH241280   2.278   5.068   8.521 -0.0309 -0.6823 -0.1692
 6574TIP3    H141281   2.366   5.031   8.523 -0.6093 -2.0993  0.2267
 6574TIP3    H241282   2.252   5.062   8.430 -0.1594 -1.3577 -0.0903
 6575TIP3   OH241283   3.417   4.124   0.543  0.2922 -0.7996 -0.0844
 6575TIP3    H141284   3.332   4.165   0.557  0.2098 -0.7490 -0.7014
 6575TIP3    H241285   3.470   4.192   0.502  0.5530 -0.9124  0.0607
 6576TIP3   OH241286   6.575   0.836   1.049 -0.2822  0.1494 -0.0141
 6576TIP3    H141287   6.486   0.860   1.023  0.5196  1.6882 -1.4433
 6576TIP3    H241288   6.604   0.775   0.982 -0.0266  0.1338  0.1083
 6577TIP3   OH241289   0.189   1.435   2.509  0.0073 -0.1071  0.0496
 6577TIP3    H141290   0.149   1.391   2.434 -0.3381 -3.1887  1.8290
 6577TIP3    H241291   0.272   1.468   2.476 -0.9133  0.2387 -2.0702
 6578TIP3   OH241292   3.330   3.816   1.746  0.2557 -0.4533  0.2051
 6578TIP3    H141293   3.341   3.868   1.665  0.1462  0.3346  0.6844
 6578TIP3    H241294   3.236   3.803   1.753  0.1583  0.4405  0.7779
 6579TIP3   OH241295   4.443   2.040   0.667 -0.3034 -0.0117  0.5854
 6579TIP3    H141296   4.420   2.117   0.614 -1.5149 -1.6177 -1.3635
 6579TIP3    H241297   4.367   1.982   0.659  1.2584 -2.1492  0.5724
 6580TIP3   OH241298   4.781   1.534   2.242 -0.2037 -0.5078 -0.5788
 6580TIP3    H141299   4.721   1.609   2.244  0.1474 -0.2370  0.2317
 6580TIP3    H241300   4.868   1.572   2.243 -0.0094 -0.9121 -1.3435
 6581TIP3   OH241301   1.193   3.667   7.818 -0.3329  0.3154  0.0098
 6581TIP3    H141302   1.256   3.621   7.874  0.3226 -0.4092 -1.2897
 6581TIP3    H241303   1.124   3.603   7.803 -0.9313  0.7940  0.6582
 6582TIP3   OH241304   1.574   3.741   1.245  0.3479  0.2520 -0.2048
 6582TIP3    H141305   1.565   3.835   1.228 -1.1489  0.1251 -0.2689
 6582TIP3    H241306   1.522   3.699   1.177 -1.7684 -0.4665  1.7241
 6583TIP3   OH241307   0.978   0.127   1.816 -0.2468  0.4521  0.4932
 6583TIP3    H141308   1.004   0.137   1.908  2.8433 -1.5264 -0.0389
 6583TIP3    H241309   1.060   0.122   1.768 -1.7779  1.6890 -2.5092
 6584TIP3   OH241310   6.102   6.493   7.267  0.5058 -0.2569  0.1156
 6584TIP3    H141311   6.187   6.505   7.224  1.6603 -2.1659  1.6741
 6584TIP3    H241312   6.108   6.407   7.308 -1.2932  0.5512  2.3051
 6585TIP3   OH241313   2.990   4.238   7.712 -0.0669 -0.2201  0.0319
 6585TIP3    H141314   3.070   4.290   7.703 -0.7225  0.6932 -0.6171
 6585TIP3    H241315   2.934   4.267   7.641 -0.5334 -1.6996 -0.2393
 6586TIP3   OH241316   1.261   5.282   7.411 -0.0506 -0.7807 -0.0438
 6586TIP3    H141317   1.305   5.244   7.334  1.7882  0.2054  0.4722
 6586TIP3    H241318   1.212   5.357   7.375  2.8899  1.3067 -0.0072
 6587TIP3   OH241319   1.127   4.225   0.925 -0.4308  0.2424  0.1689
 6587TIP3    H141320   1.042   4.181   0.925  0.5935 -1.8507 -0.0937
 6587TIP3    H241321   1.187   4.161   0.962  1.5708  0.5239 -2.3370
 6588TIP3   OH241322   1.653   5.143   8.590  0.1882  0.6952 -0.2637
 6588TIP3    H141323   1.662   5.140   8.685 -2.3920 -1.9012  0.0468
 6588TIP3    H241324   1.608   5.062   8.567 -1.3740  2.2563 -3.4533
 6589TIP3   OH241325   1.854   2.528   2.016  0.2836  0.2453  0.0039
 6589TIP3    H141326   1.811   2.612   2.003  1.1198  0.5185 -1.0828
 6589TIP3    H241327   1.942   2.540   1.982  0.3983 -1.0843 -0.2322
 6590TIP3   OH241328   6.294   3.382   7.394 -0.2764 -0.7027  0.2438
 6590TIP3    H141329   6.327   3.368   7.304  1.0513  1.2007  0.3600
 6590TIP3    H241330   6.320   3.303   7.441  0.1332 -1.1921 -0.7613
 6591TIP3   OH241331   5.254   3.897   1.171 -0.4310  0.1603  0.0287
 6591TIP3    H141332   5.275   3.846   1.250  1.0251  1.1237  0.2992
 6591TIP3    H241333   5.324   3.962   1.165 -1.6255  1.4233 -0.9333
 6592TIP3   OH241334   1.268   6.670   1.673  0.2270 -0.3366 -0.3267
 6592TIP3    H141335   1.225   6.608   1.614  2.6395 -3.0803  0.5198
 6592TIP3    H241336   1.355   6.682   1.635  0.8377  0.0961  1.1325
 6593TIP3   OH241337   6.879   2.494   1.095  0.1002  0.7932  0.3799
 6593TIP3    H141338   6.913   2.453   1.174  0.0550 -0.5573 -0.2843
 6593TIP3    H241339   6.785   2.504   1.111  0.0219  0.1328  0.3292
 6594TIP3   OH241340   5.843   6.321   1.790  0.3085  0.1522 -0.2278
 6594TIP3    H141341   5.916   6.375   1.761  0.3206  0.5829  0.5756
 6594TIP3    H241342   5.765   6.369   1.761  0.3382 -0.0187 -0.5867
 6595TIP3   OH241343   5.488   4.505   2.108  0.0143  0.0983  0.1194
 6595TIP3    H141344   5.533   4.589   2.113 -1.4270  0.8868  0.4074
 6595TIP3    H241345   5.501   4.476   2.017 -0.7285  1.3862 -0.4238
 6596TIP3   OH241346   6.556   4.462   7.192 -0.3064  0.1249 -0.3620
 6596TIP3    H141347   6.549   4.473   7.287  1.8950  0.9510 -0.2429
 6596TIP3    H241348   6.594   4.376   7.180 -1.7346 -0.5073 -0.5942
 6597TIP3   OH241349   4.050   4.649   0.559  0.2017  0.1147 -0.2785
 6597TIP3    H141350   4.035   4.554   0.556 -0.1949  0.1587  0.1884
 6597TIP3    H241351   4.144   4.659   0.545  0.2853 -0.3636 -0.0765
 6598TIP3   OH241352   4.312   1.805   1.079 -0.1776  0.0448 -0.0769
 6598TIP3    H141353   4.371   1.777   1.008 -1.0283  1.1197 -1.2572
 6598TIP3    H241354   4.231   1.756   1.063 -0.8993  1.4207 -0.8093
 6599TIP3   OH241355   3.165   3.912   1.371  0.7979  0.5204 -0.0302
 6599TIP3    H141356   3.183   3.993   1.419 -1.1383  0.8190  0.2701
 6599TIP3    H241357   3.079   3.884   1.402  0.6295 -0.6950 -1.4602
 6600TIP3   OH241358   4.370   4.908   7.842  0.1517 -0.1934  0.2314
 6600TIP3    H141359   4.319   4.899   7.922  0.5560  0.3510  0.5580
 6600TIP3    H241360   4.420   4.989   7.854  2.1559 -1.3875  0.5492
 6601TIP3   OH241361   3.395   1.153   0.721 -0.3871 -0.5628  0.0829
 6601TIP3    H141362   3.302   1.170   0.709 -1.0935 -1.6963  3.0431
 6601TIP3    H241363   3.399   1.062   0.751  1.6378 -0.3998  0.4624
 6602TIP3   OH241364   6.848   0.768   7.269 -0.4527  0.5722  0.0915
 6602TIP3    H141365   6.934   0.807   7.284  0.2321 -1.1486  0.9250
 6602TIP3    H241366   6.791   0.812   7.332 -0.1825  1.6369 -0.3793
 6603TIP3   OH241367   5.170   5.013   0.068  0.1898 -0.0350  0.6616
 6603TIP3    H141368   5.261   5.035   0.089  0.9432 -0.8397 -1.4742
 6603TIP3    H241369   5.140   5.084   0.011 -0.1139 -0.3768  0.3875
 6604TIP3   OH241370   3.007   3.133   0.779 -0.8874 -0.2331 -0.4145
 6604TIP3    H141371   3.037   3.139   0.688 -2.0443 -0.4057 -0.8215
 6604TIP3    H241372   2.935   3.070   0.776 -3.3177  2.3500 -0.0095
 6605TIP3   OH241373   4.658   0.176   0.594 -0.3103  0.3864 -0.4521
 6605TIP3    H141374   4.668   0.109   0.527 -0.4378  0.3652 -0.4503
 6605TIP3    H241375   4.697   0.137   0.673  0.7009  0.7777 -0.7471
 6606TIP3   OH241376   1.382   1.050   1.900 -0.6525  0.2034 -0.0189
 6606TIP3    H141377   1.373   0.975   1.960 -1.3255 -0.8200 -1.3452
 6606TIP3    H241378   1.362   1.014   1.814  0.6755  1.5475 -0.9453
 6607TIP3   OH241379   1.180   1.734   7.873 -0.1093 -0.0937 -0.1122
 6607TIP3    H141380   1.247   1.720   7.939  1.7185 -0.2292 -1.8952
 6607TIP3    H241381   1.191   1.826   7.846 -0.7829 -0.0531 -0.2752
 6608TIP3   OH241382   2.553   3.585   1.716  0.7014 -0.4737 -0.3708
 6608TIP3    H141383   2.570   3.500   1.757  2.5392  0.1933  0.3555
 6608TIP3    H241384   2.552   3.646   1.789 -0.1784  0.1964 -0.9335
 6609TIP3   OH241385   2.019   3.095   0.966  0.2902 -0.2041  0.1479
 6609TIP3    H141386   2.089   3.030   0.972 -0.2829 -0.8951 -0.3843
 6609TIP3    H241387   2.062   3.175   0.936  1.2253  0.0571  2.0135
 6610TIP3   OH241388   5.794   3.279   0.809 -0.6816  0.1716 -0.2691
 6610TIP3    H141389   5.849   3.357   0.801  0.9990 -0.9183  0.0990
 6610TIP3    H241390   5.727   3.303   0.872  1.2629  0.5976  1.7617
 6611TIP3   OH241391   3.010   1.931   2.372 -0.3177  0.1327  0.4623
 6611TIP3    H141392   3.033   1.919   2.464  0.3924 -0.0776  0.2637
 6611TIP3    H241393   3.066   2.004   2.342 -0.3632  0.0367  0.1368
 6612TIP3   OH241394   1.081   1.907   1.587 -0.2037 -0.0054  0.7341
 6612TIP3    H141395   1.104   1.842   1.521  1.3631  0.3225  0.9273
 6612TIP3    H241396   1.058   1.985   1.536  0.6894  0.1490  0.5606
 6613TIP3   OH241397   5.851   2.056   7.314 -0.5575 -0.0535  0.5070
 6613TIP3    H141398   5.928   2.096   7.274 -2.3995  1.7479 -1.5145
 6613TIP3    H241399   5.850   1.966   7.281 -0.0232  0.3122 -0.5512
 6614TIP3   OH241400   3.719   2.295   0.783  0.4382 -0.3701 -0.0067
 6614TIP3    H141401   3.656   2.302   0.712  2.7698  0.9536 -2.1049
 6614TIP3    H241402   3.732   2.385   0.813  0.3921 -0.7806  1.3226
 6615TIP3   OH241403   5.184   0.446   0.599 -0.2586 -0.0504 -0.5690
 6615TIP3    H141404   5.101   0.435   0.554 -0.8014  1.6336 -0.0799
 6615TIP3    H241405   5.246   0.392   0.551 -1.2820  0.0099 -1.9943
 6616TIP3   OH241406   4.438   0.689   6.342  0.3635  0.6182  0.8611
 6616TIP3    H141407   4.408   0.600   6.323 -0.8226  0.7636  1.8910
 6616TIP3    H241408   4.362   0.732   6.382  0.5250  2.4858 -0.7134
 6617TIP3   OH241409   0.682   4.326   1.833  0.3175  0.3972 -0.3540
 6617TIP3    H141410   0.702   4.259   1.899 -1.4141  0.7698  0.5979
 6617TIP3    H241411   0.712   4.289   1.751 -1.0924 -1.8270  0.0631
 6618TIP3   OH241412   1.530   5.391   7.302  0.0145 -0.0107 -0.0067
 6618TIP3    H141413   1.550   5.315   7.247  1.1763  1.7085 -2.1680
 6618TIP3    H241414   1.498   5.354   7.384 -0.3691 -2.7818 -1.2802
 6619TIP3   OH241415   2.747   2.957   0.772  0.1463  0.3088  0.4421
 6619TIP3    H141416   2.653   2.975   0.776 -0.2473 -1.2648 -0.7211
 6619TIP3    H241417   2.759   2.880   0.827  0.1836 -1.3610 -1.7660
 6620TIP3   OH241418   6.365   2.850   1.248 -0.4917 -0.1257  0.1034
 6620TIP3    H141419   6.417   2.869   1.170 -0.8420 -0.2138 -0.1546
 6620TIP3    H241420   6.392   2.916   1.312  0.0352 -0.2583  0.0171
 6621TIP3   OH241421   3.539   4.837   0.371 -0.5575 -0.3327  0.2821
 6621TIP3    H141422   3.581   4.762   0.414 -1.2047 -0.8770 -0.0214
 6621TIP3    H241423   3.503   4.889   0.443 -2.3979 -1.6867  0.4198
 6622TIP3   OH241424   2.306   5.928   0.621 -0.1780  0.3039 -0.2463
 6622TIP3    H141425   2.362   5.994   0.661 -1.7389  1.8621 -0.5020
 6622TIP3    H241426   2.359   5.892   0.550  1.0074  0.6704  0.4280
 6623TIP3   OH241427   4.369   6.867   0.724  0.1173  0.1185 -0.3894
 6623TIP3    H141428   4.325   6.782   0.728 -0.7289  0.5436 -0.4410
 6623TIP3    H241429   4.444   6.852   0.666 -0.9687 -0.2060 -1.7806
 6624TIP3   OH241430   6.855   0.360   7.445 -0.2481 -0.3152 -0.0814
 6624TIP3    H141431   6.913   0.361   7.369  0.5801  0.2179  0.5369
 6624TIP3    H241432   6.770   0.388   7.411 -0.3146 -1.6513 -1.1120
 6625TIP3   OH241433   0.179   6.422   8.230 -1.0468 -0.1902  0.3023
 6625TIP3    H141434   0.248   6.404   8.166  0.2909 -0.1606  1.7019
 6625TIP3    H241435   0.200   6.366   8.305 -1.5917  1.0473  1.4145
 6626TIP3   OH241436   4.359   6.326   1.098 -0.2674  0.2418 -0.4119
 6626TIP3    H141437   4.428   6.393   1.104  0.7364 -0.5791 -2.2166
 6626TIP3    H241438   4.366   6.292   1.009 -2.4296 -0.5254 -0.3419
 6627TIP3   OH241439   1.185   2.311   7.922 -0.0306  0.2502  0.3716
 6627TIP3    H141440   1.165   2.405   7.916  0.4005  0.3687  0.7014
 6627TIP3    H241441   1.237   2.293   7.843 -0.7899  0.1085 -0.0992
 6628TIP3   OH241442   3.442   1.071   0.027  0.3966 -0.0130 -0.2427
 6628TIP3    H141443   3.430   1.064  -0.067  0.4676  0.5498 -0.2989
 6628TIP3    H241444   3.477   1.159   0.040 -0.3844  0.2249  0.3763
 6629TIP3   OH241445   2.519   3.367   8.489  0.2112 -0.0290 -0.8362
 6629TIP3    H141446   2.438   3.316   8.494  0.3202 -0.1538 -0.2588
 6629TIP3    H241447   2.513   3.414   8.406  0.1347 -1.0214 -1.4046
 6630TIP3   OH241448   4.188   5.680   8.157 -0.0347  0.1900  0.4951
 6630TIP3    H141449   4.094   5.668   8.166 -0.4918  0.4203 -2.7720
 6630TIP3    H241450   4.226   5.605   8.202 -1.6804  0.5835  2.6939
 6631TIP3   OH241451   4.572   0.150   1.447  0.2050  0.7962 -0.5702
 6631TIP3    H141452   4.512   0.076   1.457 -0.7136  1.6324  0.3527
 6631TIP3    H241453   4.653   0.111   1.413 -0.7092 -0.4170 -1.4555
 6632TIP3   OH241454   2.197   4.731   0.666  0.1121 -0.3675 -0.3379
 6632TIP3    H141455   2.135   4.800   0.641  1.6215  1.2334  0.1658
 6632TIP3    H241456   2.258   4.725   0.592  0.3456 -0.7451 -0.1187
 6633TIP3   OH241457   5.002   5.130   1.627  0.0301 -0.0693  0.5058
 6633TIP3    H141458   4.978   5.098   1.714 -3.2484 -1.6465 -0.8276
 6633TIP3    H241459   5.061   5.063   1.593 -1.0616 -1.0313  0.4454
 6634TIP3   OH241460   5.396   6.168   8.374  0.2333 -0.0899 -0.0527
 6634TIP3    H141461   5.430   6.189   8.461  1.7094 -0.6475 -0.4685
 6634TIP3    H241462   5.308   6.206   8.373  1.2621  2.5057  0.6529
 6635TIP3   OH241463   3.585   0.611   1.576 -0.5830 -0.5214  0.4334
 6635TIP3    H141464   3.615   0.528   1.540 -0.0450  0.0735 -0.5117
 6635TIP3    H241465   3.525   0.646   1.510  0.2198  0.4622  0.2008
 6636TIP3   OH241466   4.551   3.365   0.780  0.1510  0.0299  0.3802
 6636TIP3    H141467   4.603   3.380   0.700  1.1554 -0.4255  0.9326
 6636TIP3    H241468   4.582   3.281   0.813  0.0980  0.4371  1.5146
 6637TIP3   OH241469   6.298   3.638   7.188  0.2943  0.5071 -0.1554
 6637TIP3    H141470   6.367   3.658   7.126  0.3953 -1.0763 -0.6165
 6637TIP3    H241471   6.242   3.576   7.141  0.7209 -1.2264  1.5099
 6638TIP3   OH241472   0.871   0.244   0.331  0.4959  0.2634  0.0660
 6638TIP3    H141473   0.779   0.269   0.323  0.2352 -0.9898 -1.0803
 6638TIP3    H241474   0.910   0.268   0.247  0.9194 -0.3852  0.0734
 6639TIP3   OH241475   3.723   5.914   2.212 -0.1285 -1.0483  0.3307
 6639TIP3    H141476   3.729   5.818   2.216  0.9751 -0.9971  0.1682
 6639TIP3    H241477   3.807   5.941   2.175 -1.0915 -0.1213 -1.2633
 6640TIP3   OH241478   5.258   6.842   7.353  0.3989  0.0063  1.0234
 6640TIP3    H141479   5.178   6.790   7.360  0.0931  0.3223 -0.0200
 6640TIP3    H241480   5.288   6.852   7.443 -1.1475  0.5213  1.5000
 6641TIP3   OH241481   4.222   6.086   1.287 -0.3505  0.3737  0.1085
 6641TIP3    H141482   4.260   6.093   1.374 -0.0805  0.3857 -0.0089
 6641TIP3    H241483   4.205   6.177   1.262  0.8889  0.4730 -0.4241
 6642TIP3   OH241484   4.658   3.901   0.986 -0.3266  0.7204 -0.5277
 6642TIP3    H141485   4.602   3.978   1.000  0.5247  1.2629 -0.0664
 6642TIP3    H241486   4.612   3.851   0.918 -0.8838  1.6417 -0.8575
 6643TIP3   OH241487   1.220   2.691   6.833 -0.4996 -0.4096 -0.0989
 6643TIP3    H141488   1.141   2.687   6.779 -0.3740 -0.9509 -0.2515
 6643TIP3    H241489   1.292   2.686   6.770 -0.3533 -1.2234  0.1275
 6644TIP3   OH241490   4.167   3.149   1.448 -0.0165  0.4058 -0.2152
 6644TIP3    H141491   4.170   3.054   1.436 -1.4936  0.5252 -2.0540
 6644TIP3    H241492   4.256   3.179   1.429  0.0122 -0.4560 -1.5331
 6645TIP3   OH241493   2.684   5.204   6.650  0.6157  0.0272  0.2772
 6645TIP3    H141494   2.730   5.122   6.669  1.6697  0.7189  0.7962
 6645TIP3    H241495   2.741   5.249   6.588 -0.6697 -0.2549 -1.1811
 6646TIP3   OH241496   2.621   4.955   2.183 -0.5169  0.5199 -0.1135
 6646TIP3    H141497   2.687   4.966   2.251 -0.8437 -1.1031  0.5301
 6646TIP3    H241498   2.547   4.915   2.229 -0.4964 -1.2736 -1.5294
 6647TIP3   OH241499   2.581   6.471   6.754  0.2275  0.2675 -0.4085
 6647TIP3    H141500   2.519   6.483   6.682  0.3682 -0.2737 -0.6322
 6647TIP3    H241501   2.616   6.559   6.771  0.6272  0.3166 -1.4105
 6648TIP3   OH241502   3.757   1.912   1.336  0.1287  0.7662 -0.1028
 6648TIP3    H141503   3.726   1.998   1.366 -1.6292 -0.4439  1.8428
 6648TIP3    H241504   3.681   1.855   1.346  1.5696 -1.2567 -0.2596
 6649TIP3   OH241505   5.395   3.675   2.243 -0.1525  0.2274  0.0224
 6649TIP3    H141506   5.473   3.642   2.199 -0.6912 -0.4583 -0.4533
 6649TIP3    H241507   5.414   3.665   2.337  0.7186  1.0335 -0.0555
 6650TIP3   OH241508   0.798   1.078   7.404  0.0637  0.4113  0.2278
 6650TIP3    H141509   0.739   1.079   7.479 -0.8210  0.0839 -0.4548
 6650TIP3    H241510   0.834   0.989   7.402  0.1905  0.4593  0.3363
 6651TIP3   OH241511   0.693   2.736   2.046  0.0223 -0.5225  0.5458
 6651TIP3    H141512   0.695   2.641   2.041  0.5043 -0.5274  0.7011
 6651TIP3    H241513   0.610   2.757   2.089 -0.9768 -0.7708 -1.1873
 6652TIP3   OH241514   5.002   5.730   1.354 -0.7322  0.1287 -0.1579
 6652TIP3    H141515   5.096   5.720   1.344 -0.3405  0.8916  2.1085
 6652TIP3    H241516   4.984   5.819   1.323 -0.3243  0.7517  1.3144
 6653TIP3   OH241517   6.213   5.049   1.803 -0.6039 -0.0486 -0.3195
 6653TIP3    H141518   6.307   5.031   1.812 -0.5654 -0.6752 -1.6591
 6653TIP3    H241519   6.172   4.998   1.873  0.0994  0.9644  0.8722
 6654TIP3   OH241520   1.503   2.340   7.445  0.3849  0.0253  0.7389
 6654TIP3    H141521   1.591   2.360   7.411 -0.4109  3.3232  0.2476
 6654TIP3    H241522   1.518   2.311   7.535  1.9848  0.1239  0.5362
 6655TIP3   OH241523   2.779   5.085   0.315 -0.0136 -0.3121 -0.1709
 6655TIP3    H141524   2.787   5.158   0.377  2.3817  0.0729 -0.8041
 6655TIP3    H241525   2.706   5.110   0.258 -1.9040 -0.4148  2.0562
 6656TIP3   OH241526   3.341   4.294   2.532  0.1070  0.2919  0.4436
 6656TIP3    H141527   3.412   4.351   2.560  1.2840  0.2359 -2.1228
 6656TIP3    H241528   3.272   4.354   2.504  0.5606  0.4590 -0.3590
 6657TIP3   OH241529   5.607   3.362   7.856  0.3429 -0.4882  0.0484
 6657TIP3    H141530   5.651   3.282   7.882  3.2763  1.3651  1.3039
 6657TIP3    H241531   5.546   3.381   7.928 -1.5199 -2.2703 -0.9706
 6658TIP3   OH241532   1.486   1.744   0.675 -0.3697  0.4780 -0.0797
 6658TIP3    H141533   1.435   1.664   0.688  2.9190 -1.6845  0.8248
 6658TIP3    H241534   1.545   1.723   0.602  0.0083  2.4134 -0.3881
 6659TIP3   OH241535   5.569   0.239   8.515  0.1655  0.0758 -0.0453
 6659TIP3    H141536   5.538   0.158   8.475 -0.3640  1.2831 -2.2275
 6659TIP3    H241537   5.661   0.245   8.487  0.6973 -0.5314  1.4675
 6660TIP3   OH241538   2.275   4.354   7.941  0.6035 -0.5121  0.2878
 6660TIP3    H141539   2.313   4.341   8.028  1.9727 -0.8221 -0.3368
 6660TIP3    H241540   2.183   4.331   7.952  0.7392 -0.4763  1.6734
 6661TIP3   OH241541   4.093   3.163   2.427  0.1500  0.2846 -0.3809
 6661TIP3    H141542   4.058   3.250   2.445  0.1691  0.4677 -1.1632
 6661TIP3    H241543   4.187   3.169   2.445  0.4529  0.9084 -1.9588
 6662TIP3   OH241544   4.737   3.764   7.886  0.1238  0.2538  0.2424
 6662TIP3    H141545   4.746   3.781   7.792 -0.1184  2.4190  0.5619
 6662TIP3    H241546   4.807   3.703   7.906 -1.0734 -1.9338 -1.6960
 6663TIP3   OH241547   6.700   4.003   6.678  0.1388 -0.2866 -0.4662
 6663TIP3    H141548   6.720   4.008   6.584  0.0228  0.0245 -0.4764
 6663TIP3    H241549   6.604   4.001   6.682  0.1459 -0.4500 -0.3598
 6664TIP3   OH241550   2.941   4.935   1.112 -0.0299 -0.1796  0.4450
 6664TIP3    H141551   3.010   4.945   1.178  0.4010  0.5200 -0.1103
 6664TIP3    H241552   2.968   4.990   1.039 -0.6664 -0.6945 -0.1997
 6665TIP3   OH241553   3.598   2.213   0.328 -0.3387  0.2621  0.5290
 6665TIP3    H141554   3.596   2.187   0.236 -1.3397  0.8921  0.3479
 6665TIP3    H241555   3.653   2.291   0.330 -0.1884  0.1568  0.4886
 6666TIP3   OH241556   2.719   5.640   0.332  0.2260 -0.1137  0.1872
 6666TIP3    H141557   2.750   5.724   0.367 -0.0387 -0.8707  2.3836
 6666TIP3    H241558   2.799   5.587   0.324  0.2750  0.0297 -0.3172
 6667TIP3   OH241559   4.093   3.220   0.972  0.8520 -0.0407  0.3316
 6667TIP3    H141560   4.130   3.145   0.927 -0.2474 -1.4761  1.7052
 6667TIP3    H241561   4.147   3.294   0.944  0.0147 -0.7161 -3.5894
 6668TIP3   OH241562   4.708   5.849   1.528  0.7541 -0.7080  0.0908
 6668TIP3    H141563   4.684   5.912   1.460  0.0484 -0.6515  0.3830
 6668TIP3    H241564   4.798   5.872   1.551  0.4657  0.3000  0.2849
 6669TIP3   OH241565   2.932   0.612   0.503  0.6147 -0.0024 -0.0190
 6669TIP3    H141566   2.972   0.538   0.548 -0.5634 -1.2129 -0.8686
 6669TIP3    H241567   2.981   0.620   0.421  0.0308 -0.6071 -0.4420
 6670TIP3   OH241568   3.485   5.603   0.310 -0.4273  0.2655 -0.4486
 6670TIP3    H141569   3.532   5.620   0.391 -3.1735 -1.2640  1.6516
 6670TIP3    H241570   3.495   5.509   0.296  0.1406  0.5345 -2.0224
 6671TIP3   OH241571   5.135   3.737   0.237 -0.3022 -0.0587  0.0534
 6671TIP3    H141572   5.189   3.810   0.265  0.8349 -1.0499  0.5004
 6671TIP3    H241573   5.193   3.661   0.239  0.0054 -0.3099 -5.0353
 6672TIP3   OH241574   6.304   1.296   7.012 -0.0257  0.2053 -0.0409
 6672TIP3    H141575   6.230   1.254   6.967  0.4025 -1.1171  0.4494
 6672TIP3    H241576   6.334   1.231   7.075  0.0364  1.6405  1.4726
 6673TIP3   OH241577   4.155   4.711   8.411 -0.2028 -0.3296  0.3260
 6673TIP3    H141578   4.224   4.644   8.404  0.7934  0.6256  0.7969
 6673TIP3    H241579   4.163   4.762   8.331  0.4619  0.5446  0.9384
 6674TIP3   OH241580   3.885   1.617   6.511 -0.2468 -0.3766  0.4718
 6674TIP3    H141581   3.818   1.650   6.451  0.5692 -0.1856 -0.3554
 6674TIP3    H241582   3.965   1.662   6.485  0.1085 -0.1906  1.8011
 6675TIP3   OH241583   1.169   2.800   1.699 -0.1718 -0.6091 -0.2885
 6675TIP3    H141584   1.174   2.705   1.697  2.0435 -0.5662  0.1437
 6675TIP3    H241585   1.080   2.821   1.670 -0.1645 -2.7364 -2.1020
 6676TIP3   OH241586   5.736   1.251   1.376  0.2229  0.3939 -0.5009
 6676TIP3    H141587   5.705   1.174   1.328 -2.3558  1.3632 -0.5561
 6676TIP3    H241588   5.690   1.247   1.460 -0.5805  2.2469 -0.7997
 6677TIP3   OH241589   0.712   0.343   8.405  0.0973 -0.3911  0.0051
 6677TIP3    H141590   0.799   0.381   8.401  0.5073 -1.3983 -2.3295
 6677TIP3    H241591   0.673   0.364   8.320 -0.6522 -2.8129 -0.3170
 6678TIP3   OH241592   3.773   4.312   0.627 -0.3471  0.2778 -0.5395
 6678TIP3    H141593   3.864   4.305   0.597 -1.0013 -2.6904 -2.3160
 6678TIP3    H241594   3.725   4.341   0.549 -1.0954  0.3869 -0.0433
 6679TIP3   OH241595   2.553   4.635   7.304  0.1766 -0.8255  0.0181
 6679TIP3    H141596   2.482   4.596   7.355 -0.0748 -0.1412  0.2116
 6679TIP3    H241597   2.548   4.593   7.219  0.3115 -1.6592  0.4122
 6680TIP3   OH241598   4.603   3.822   0.024  0.2350 -0.1274  0.3622
 6680TIP3    H141599   4.537   3.858   0.085  0.1082 -0.6635  0.5466
 6680TIP3    H241600   4.662   3.895   0.007  0.5840 -0.1087  1.5651
 6681TIP3   OH241601   6.115   1.173   6.472  0.2002 -0.0618  0.0860
 6681TIP3    H141602   6.081   1.246   6.524  1.7048  0.6108  0.1687
 6681TIP3    H241603   6.081   1.188   6.384  3.0290  2.6494 -0.7379
 6682TIP3   OH241604   2.540   0.961   8.583  0.3285  0.1237  0.0472
 6682TIP3    H141605   2.548   0.897   8.654 -0.1247  0.1671  0.1384
 6682TIP3    H241606   2.460   1.009   8.602  1.0782  1.2732  0.4193
 6683TIP3   OH241607   2.165   3.958   7.772  0.4261 -0.0844 -0.7477
 6683TIP3    H141608   2.106   3.937   7.700  1.1634 -0.9859 -1.1091
 6683TIP3    H241609   2.111   3.951   7.851  0.2102 -1.6527 -1.0076
 6684TIP3   OH241610   1.846   3.231   0.430  0.6818 -0.0499  0.7142
 6684TIP3    H141611   1.911   3.275   0.375 -0.1135  0.9942  0.5760
 6684TIP3    H241612   1.844   3.141   0.397  0.4720  0.4674 -0.7804
 6685TIP3   OH241613   0.262   5.213   1.737 -0.3034 -0.0238  0.8133
 6685TIP3    H141614   0.346   5.189   1.697 -0.4642 -0.3720  0.6813
 6685TIP3    H241615   0.209   5.134   1.729 -1.4231  0.8416 -1.1518
 6686TIP3   OH241616   0.465   5.031   7.113 -0.0512  0.7020 -0.3800
 6686TIP3    H141617   0.525   5.053   7.184 -1.4784  0.4645  0.9482
 6686TIP3    H241618   0.380   5.065   7.142 -1.4699 -2.7009 -0.1727
 6687TIP3   OH241619   3.662   2.749   7.481 -0.8436  0.8451 -0.2435
 6687TIP3    H141620   3.708   2.752   7.565 -0.1569  0.4346 -0.5944
 6687TIP3    H241621   3.712   2.806   7.423  0.2097 -0.8605 -1.0865
 6688TIP3   OH241622   2.924   6.057   8.562  0.8290  0.2527 -0.0691
 6688TIP3    H141623   2.830   6.053   8.543  0.9482 -0.8474 -0.5440
 6688TIP3    H241624   2.934   6.004   8.641  1.3143 -1.6082 -1.3015
 6689TIP3   OH241625   6.618   3.831   0.172 -0.4466  0.8526  0.8678
 6689TIP3    H141626   6.551   3.772   0.136  0.9790 -0.9645  1.0494
 6689TIP3    H241627   6.624   3.902   0.108 -0.1925 -0.6819 -0.8957
 6690TIP3   OH241628   3.262   0.743   7.878 -0.2017 -0.8123 -0.1961
 6690TIP3    H141629   3.313   0.824   7.877 -2.1655  0.5143 -1.4006
 6690TIP3    H241630   3.303   0.689   7.945  1.6595  0.8521  0.0988
 6691TIP3   OH241631   6.805   6.451   2.147 -0.3918 -0.1998 -0.1441
 6691TIP3    H141632   6.797   6.484   2.057 -1.7494  0.4759  0.1984
 6691TIP3    H241633   6.866   6.512   2.189 -1.4719  0.8287 -0.0192
 6692TIP3   OH241634   6.214   6.280   7.712  0.0861 -0.0478 -0.1580
 6692TIP3    H141635   6.160   6.234   7.647 -0.0807  1.5636 -1.2307
 6692TIP3    H241636   6.161   6.357   7.736  0.7986  0.1698  0.7544
 6693TIP3   OH241637   5.037   2.465   8.248  0.3921  0.1838  0.6945
 6693TIP3    H141638   4.964   2.414   8.281  1.5153 -2.6131 -0.7775
 6693TIP3    H241639   5.011   2.489   8.159  0.3756  1.1381  0.9504
 6694TIP3   OH241640   0.062   2.503   8.521  0.0596 -0.0014 -0.1037
 6694TIP3    H141641   0.077   2.597   8.517 -2.5324  0.4832 -0.2782
 6694TIP3    H241642   0.149   2.464   8.514  1.3473  2.3934  1.3180
 6695TIP3   OH241643   0.604   6.421   8.291  0.2382  0.0371 -0.0488
 6695TIP3    H141644   0.685   6.391   8.331  0.9810  1.4535 -0.4360
 6695TIP3    H241645   0.606   6.516   8.299 -1.1543  0.1364 -0.5099
 6696TIP3   OH241646   2.888   3.006   1.494 -0.1950  0.4629 -0.6199
 6696TIP3    H141647   2.837   2.925   1.493 -0.8207  0.8523 -1.6776
 6696TIP3    H241648   2.918   3.017   1.404  0.2181  1.2115 -0.4014
 6697TIP3   OH241649   5.168   4.512   2.144 -0.0571 -0.0430 -0.7439
 6697TIP3    H141650   5.263   4.522   2.134 -0.0185 -0.3383 -0.6742
 6697TIP3    H241651   5.157   4.461   2.224 -0.3395  1.5852  0.2986
 6698TIP3   OH241652   1.592   4.264   6.627 -0.6107  0.1151  0.0131
 6698TIP3    H141653   1.569   4.172   6.643 -1.3224 -0.0745 -1.8543
 6698TIP3    H241654   1.566   4.279   6.536  0.4630  1.8815 -0.0318
 6699TIP3   OH241655   4.606   4.631   0.109 -0.1219 -0.4301  0.7523
 6699TIP3    H141656   4.587   4.697   0.176 -1.2970  1.2462 -1.1106
 6699TIP3    H241657   4.679   4.580   0.145  0.6073  1.6548  2.4502
 6700TIP3   OH241658   4.920   0.773   2.002 -0.0164  0.2803 -0.2389
 6700TIP3    H141659   4.835   0.817   2.010  1.0658  2.3878  0.3306
 6700TIP3    H241660   4.939   0.741   2.090  0.4652  1.1918 -0.0013
 6701TIP3   OH241661   2.340   6.467   7.993 -0.0527 -0.5241  0.0679
 6701TIP3    H141662   2.362   6.530   8.061  3.2804  0.3852 -1.6608
 6701TIP3    H241663   2.347   6.382   8.036  0.1383  0.0903  1.2917
 6702TIP3   OH241664   5.308   3.637   7.360 -0.0010 -0.9307 -0.0140
 6702TIP3    H141665   5.274   3.723   7.334  1.2689 -0.5871 -0.5718
 6702TIP3    H241666   5.271   3.624   7.448  1.4349  1.1517  1.0006
 6703TIP3   OH241667   4.284   4.374   7.247 -0.6501  0.1861 -0.4031
 6703TIP3    H141668   4.246   4.443   7.192 -3.0901 -0.9944 -0.3633
 6703TIP3    H241669   4.353   4.336   7.194 -1.1804  0.8152 -1.5830
 6704TIP3   OH241670   4.021   0.831   8.608 -0.2547  0.2956 -0.1022
 6704TIP3    H141671   3.947   0.865   8.659 -0.0224 -0.2088  0.5954
 6704TIP3    H241672   4.096   0.883   8.637 -0.3105  0.7373 -0.7342
 6705TIP3   OH241673   2.639   6.749   1.444  0.3259 -0.3491  0.0291
 6705TIP3    H141674   2.615   6.783   1.530 -0.1515 -0.8468  0.0965
 6705TIP3    H241675   2.555   6.729   1.402  0.6055 -2.2710  0.3267
 6706TIP3   OH241676   3.081   2.621   6.788 -0.0770 -0.4174  0.5756
 6706TIP3    H141677   3.126   2.552   6.739 -0.7677 -0.5586  0.1225
 6706TIP3    H241678   3.127   2.701   6.764 -0.7616 -0.4023 -0.7783
 6707TIP3   OH241679   3.806   4.020   6.463  0.3446 -0.4583  0.2084
 6707TIP3    H141680   3.849   3.968   6.531 -1.3582 -1.8998  0.2243
 6707TIP3    H241681   3.763   4.091   6.511  1.3861  0.1240  0.3281
 6708TIP3   OH241682   6.374   4.959   0.198  0.3061 -0.3353  0.0645
 6708TIP3    H141683   6.368   4.867   0.173  1.1716 -0.4423  0.2140
 6708TIP3    H241684   6.283   4.990   0.199  0.0753 -0.9194 -0.9605
 6709TIP3   OH241685   3.428   5.044   6.625  0.4292 -0.1989 -0.5585
 6709TIP3    H141686   3.425   5.116   6.562  1.1531  0.7937  0.4977
 6709TIP3    H241687   3.352   5.060   6.682  1.6913  0.9349  0.8953
 6710TIP3   OH241688   5.974   4.998   2.560  0.1115 -0.2545 -0.5452
 6710TIP3    H141689   6.002   5.076   2.512 -0.2381 -0.3889 -0.9695
 6710TIP3    H241690   5.922   5.032   2.632  0.2651 -0.0761 -0.5166
 6711TIP3   OH241691   3.316   0.744   6.464  0.4021  0.3926  0.6043
 6711TIP3    H141692   3.354   0.784   6.542  0.8558 -0.3760  0.7966
 6711TIP3    H241693   3.260   0.811   6.426 -1.6170  0.0887  2.8262
 6712TIP3   OH241694   3.633   5.042   6.820 -0.2621 -0.2170  0.2041
 6712TIP3    H141695   3.607   4.991   6.896 -0.0582 -1.3481 -0.4642
 6712TIP3    H241696   3.574   5.013   6.750 -0.3261  0.6638 -0.1199
 6713TIP3   OH241697   1.563   3.990   6.669 -0.1494  0.3233 -0.5817
 6713TIP3    H141698   1.578   3.947   6.753 -1.1582 -2.0039 -1.4914
 6713TIP3    H241699   1.645   3.978   6.621 -0.0466  0.4193 -0.4311
 6714TIP3   OH241700   4.324   2.755   8.588 -0.0528  0.2301  0.1405
 6714TIP3    H141701   4.256   2.704   8.543 -0.6955  0.8526  0.3842
 6714TIP3    H241702   4.366   2.805   8.519  0.8531 -0.9043 -0.1639
 6715TIP3   OH241703   4.188   5.041   0.373  0.5846 -0.4336 -0.0806
 6715TIP3    H141704   4.109   5.095   0.375  0.8315 -0.0578 -0.2407
 6715TIP3    H241705   4.157   4.953   0.351 -0.0001 -0.6891  1.6293
 6716TIP3   OH241706   0.232   0.352   0.793  0.3736 -0.0983  0.5159
 6716TIP3    H141707   0.305   0.404   0.760  0.1744 -0.6640 -0.9203
 6716TIP3    H241708   0.246   0.347   0.887  0.7653  1.9613  0.6060
 6717TIP3   OH241709   3.157   1.972   1.346 -0.3841  0.2525 -0.0230
 6717TIP3    H141710   3.190   1.883   1.334 -0.3544  0.3807 -0.9319
 6717TIP3    H241711   3.209   2.008   1.419 -1.6269 -1.0765  1.6066
 6718TIP3   OH241712   0.612   1.571   0.571  0.6943 -0.0514  0.3447
 6718TIP3    H141713   0.664   1.587   0.493 -0.0822  0.4304 -0.0907
 6718TIP3    H241714   0.667   1.602   0.643  1.5776 -0.8734  0.0412
 6719TIP3   OH241715   4.279   5.409   0.400 -0.6563  0.1033  0.4899
 6719TIP3    H141716   4.231   5.365   0.470  1.4649 -1.7039  0.9454
 6719TIP3    H241717   4.278   5.347   0.328 -0.8287  0.9602 -0.2619
 6720TIP3   OH241718   1.702   5.331   1.523 -0.1306 -0.6967 -0.0330
 6720TIP3    H141719   1.621   5.325   1.575 -0.0975  1.1866  0.3290
 6720TIP3    H241720   1.732   5.421   1.537  1.3645 -0.9836 -1.1702
 6721TIP3   OH241721   0.481   3.403   7.334  0.0970  0.6359 -0.1425
 6721TIP3    H141722   0.534   3.324   7.320  1.3756  1.3994  0.2654
 6721TIP3    H241723   0.540   3.475   7.312 -0.8958  1.5045 -0.0056
 6722TIP3   OH241724   0.479   0.186   2.076  0.1486 -0.1066 -0.5217
 6722TIP3    H141725   0.549   0.121   2.068  1.9115  0.9675  3.4615
 6722TIP3    H241726   0.525   0.270   2.076 -1.4684  0.8062 -0.4530
 6723TIP3   OH241727   3.879   6.361   6.935  0.2578  0.2839  0.0211
 6723TIP3    H141728   3.815   6.308   6.982  0.5551  0.0090  0.1181
 6723TIP3    H241729   3.857   6.349   6.843  0.2189  0.1269  0.0510
 6724TIP3   OH241730   1.460   4.707   8.141 -0.1041  0.1681  0.2256
 6724TIP3    H141731   1.508   4.789   8.157 -0.5138  0.3709  0.4374
 6724TIP3    H241732   1.400   4.700   8.216 -0.6329  0.0808 -0.2056
 6725TIP3   OH241733   5.374   4.417   7.033  0.5554 -0.1328 -0.3830
 6725TIP3    H141734   5.436   4.345   7.043  0.0783 -0.3590  1.1815
 6725TIP3    H241735   5.327   4.397   6.952  1.6806 -0.5896 -0.9396
 6726TIP3   OH241736   1.927   1.697   0.197  0.2008 -0.1910  0.6026
 6726TIP3    H141737   1.907   1.780   0.241 -0.9793 -0.5395  0.7496
 6726TIP3    H241738   2.003   1.717   0.142  0.0041  0.9516  0.7185
 6727TIP3   OH241739   0.362   4.660   6.814 -0.0677 -0.6064 -0.1425
 6727TIP3    H141740   0.424   4.664   6.887 -0.4400 -1.2036  0.2111
 6727TIP3    H241741   0.292   4.603   6.845 -0.5398 -0.3534 -0.7365
 6728TIP3   OH241742   0.651   6.518   0.038  0.2281  0.4370 -0.0167
 6728TIP3    H141743   0.641   6.612   0.048 -2.0185  0.1879  0.6130
 6728TIP3    H241744   0.688   6.488   0.121  0.1591  0.6685  0.0974
 6729TIP3   OH241745   0.406   3.631   7.065 -0.5689  0.0788 -0.1168
 6729TIP3    H141746   0.495   3.631   7.100 -0.2327  0.0511 -0.9326
 6729TIP3    H241747   0.418   3.646   6.971 -1.2577 -2.2183 -0.6292
 6730TIP3   OH241748   0.060   2.362   1.576 -0.0041  1.2407 -0.0808
 6730TIP3    H141749  -0.009   2.350   1.641  0.8000  1.2357  0.7837
 6730TIP3    H241750   0.141   2.344   1.623  0.6334  1.8228 -0.9278
 6731TIP3   OH241751   3.400   3.857   0.561  0.2421 -0.1168 -0.3266
 6731TIP3    H141752   3.397   3.953   0.555 -1.5763 -0.0928  0.4010
 6731TIP3    H241753   3.370   3.838   0.650  0.2811 -1.3808 -0.5711
 6732TIP3   OH241754   5.889   3.706   6.325 -0.1251 -0.1810 -0.2282
 6732TIP3    H141755   5.936   3.725   6.406  0.5827 -1.0566 -0.4158
 6732TIP3    H241756   5.916   3.617   6.303  0.6529  0.4853 -2.0915
 6733TIP3   OH241757   5.798   6.140   1.453 -0.1614 -0.2477 -0.3186
 6733TIP3    H141758   5.734   6.106   1.516 -0.0742 -1.9274 -1.0907
 6733TIP3    H241759   5.775   6.232   1.443 -2.8595 -0.9194 -1.0127
 6734TIP3   OH241760   6.392   3.652   1.590 -0.5101  0.3850  0.5323
 6734TIP3    H141761   6.467   3.644   1.649  0.7714 -1.6191 -1.2091
 6734TIP3    H241762   6.423   3.707   1.519 -0.4797 -0.8206 -0.4234
 6735TIP3   OH241763   6.161   3.712   1.275  0.2546 -0.2396 -0.1724
 6735TIP3    H141764   6.155   3.640   1.338 -0.7229 -1.4874 -1.6085
 6735TIP3    H241765   6.113   3.680   1.199 -0.6774  2.1684 -0.6708
 6736TIP3   OH241766   0.129   0.444   2.503  0.0008 -0.2277 -0.0758
 6736TIP3    H141767   0.209   0.496   2.496 -0.7140  1.1337  1.3082
 6736TIP3    H241768   0.123   0.399   2.419  1.6166  0.5236 -0.6390
 6737TIP3   OH241769   0.145   1.880   8.516 -0.2909  0.8247 -0.3718
 6737TIP3    H141770   0.131   1.806   8.457 -1.3492  1.0807 -0.4685
 6737TIP3    H241771   0.233   1.911   8.496 -0.5501  0.7708 -1.6830
 6738TIP3   OH241772   3.864   3.834   0.184  0.6022 -0.2887  0.1059
 6738TIP3    H141773   3.939   3.877   0.226 -0.2272 -0.0964  1.4792
 6738TIP3    H241774   3.812   3.906   0.149  0.8215 -0.3891 -0.4246
 6739TIP3   OH241775   2.929   0.330   0.031 -0.1715  0.4663 -0.4305
 6739TIP3    H141776   3.011   0.345   0.078 -0.7592 -0.8136  1.0929
 6739TIP3    H241777   2.954   0.328  -0.062  1.2580  1.5697 -0.0914
 6740TIP3   OH241778   5.671   5.285   6.335 -0.1778  0.2247 -1.0888
 6740TIP3    H141779   5.745   5.314   6.388  0.1414 -0.4168 -1.1797
 6740TIP3    H241780   5.594   5.305   6.388  0.1249 -0.1403 -0.5104
 6741TIP3   OH241781   1.993   5.796   6.710 -0.0207  0.1065 -0.2985
 6741TIP3    H141782   1.916   5.808   6.654 -0.1929  0.5136  0.0269
 6741TIP3    H241783   2.061   5.764   6.650 -0.1993  0.5533 -0.7508
 6742TIP3   OH241784   6.572   4.760   6.894 -0.5677 -0.3462 -0.1941
 6742TIP3    H141785   6.511   4.736   6.825  0.5829 -0.6138 -1.1594
 6742TIP3    H241786   6.617   4.838   6.860 -0.8654  0.2872  0.8134
 6743TIP3   OH241787   2.163   5.275   7.157 -0.0673  0.4036  0.0843
 6743TIP3    H141788   2.076   5.238   7.168 -0.1071  0.5540  0.2775
 6743TIP3    H241789   2.148   5.358   7.111 -0.0611  0.6171  0.4691
 6744TIP3   OH241790   6.572   4.700   2.094 -0.0963  0.5749 -0.0802
 6744TIP3    H141791   6.598   4.692   2.186 -0.6061 -0.5951 -0.0255
 6744TIP3    H241792   6.529   4.617   2.074  0.7850  0.4524 -1.6354
 6745TIP3   OH241793   4.361   4.564   8.427  0.0739  0.2379 -0.3165
 6745TIP3    H141794   4.456   4.559   8.437  0.1987  1.9481 -0.2890
 6745TIP3    H241795   4.335   4.477   8.399  1.3558 -0.9425  1.8979
 6746TIP3   OH241796   3.409   2.882   0.200 -0.4328 -0.0415 -0.7763
 6746TIP3    H141797   3.326   2.851   0.164 -0.0706  2.0856 -3.7868
 6746TIP3    H241798   3.406   2.977   0.189  1.2600  0.4229  1.7648
 6747TIP3   OH241799   2.384   5.910   7.751  0.3850 -0.7648 -0.6227
 6747TIP3    H141800   2.353   5.999   7.768  0.2165 -0.5653 -1.8541
 6747TIP3    H241801   2.478   5.919   7.741  0.7096 -1.1268  1.5791
 6748TIP3   OH241802   3.626   0.605   0.379 -0.1979  0.0394  0.3885
 6748TIP3    H141803   3.609   0.684   0.430  0.1763 -0.6036  1.5433
 6748TIP3    H241804   3.709   0.622   0.335 -0.0959  0.2769  0.6728
 6749TIP3   OH241805   4.902   4.752   7.246 -0.1291 -0.9506 -0.2125
 6749TIP3    H141806   4.930   4.803   7.170  1.5640 -0.1975  0.8521
 6749TIP3    H241807   4.861   4.674   7.209 -1.9646  0.7105 -1.8893
 6750TIP3   OH241808   3.455   0.624   6.687  0.3521 -0.2715  0.8277
 6750TIP3    H141809   3.397   0.599   6.615  0.1504 -0.3559  1.0195
 6750TIP3    H241810   3.499   0.543   6.712  2.8576  0.2759 -1.3275
 6751TIP3   OH241811   1.354   1.659   6.384 -0.2186 -0.2245 -0.2716
 6751TIP3    H141812   1.258   1.665   6.384 -0.1553  1.1057 -0.0822
 6751TIP3    H241813   1.372   1.565   6.381 -1.5261 -0.4838 -0.7526
 6752TIP3   OH241814   5.744   5.457   1.490  0.6188  0.7884  0.8968
 6752TIP3    H141815   5.752   5.389   1.557  1.1351  1.1981  1.2572
 6752TIP3    H241816   5.684   5.521   1.527  2.0809  1.7850  1.6462
 6753TIP3   OH241817   2.306   5.516   0.345 -0.0220 -0.4166 -0.3775
 6753TIP3    H141818   2.259   5.433   0.349 -1.3954  0.3630  0.2769
 6753TIP3    H241819   2.250   5.577   0.392  1.1416  0.8060 -0.5377
 6754TIP3   OH241820   0.494   0.511   0.758  0.5809  0.0701 -0.6131
 6754TIP3    H141821   0.451   0.595   0.772 -0.9767 -0.6485 -0.9003
 6754TIP3    H241822   0.546   0.497   0.837  0.6654  1.1839 -0.4593
 6755TIP3   OH241823   0.442   1.154   8.200 -0.0632  0.9562  0.1410
 6755TIP3    H141824   0.376   1.223   8.210  0.4843  1.6033 -0.6113
 6755TIP3    H241825   0.525   1.200   8.209  0.3094  0.4063 -0.4576
 6756TIP3   OH241826   0.874   4.977   7.864 -0.1158  0.1018  0.5030
 6756TIP3    H141827   0.889   4.971   7.769 -2.6141 -0.1228  0.0520
 6756TIP3    H241828   0.810   5.048   7.873  1.2918  1.2164  2.2169
 6757TIP3   OH241829   6.548   2.665   0.758 -0.3175  0.0501  0.4689
 6757TIP3    H141830   6.547   2.580   0.714 -0.6756  0.2528  0.0822
 6757TIP3    H241831   6.526   2.728   0.690  3.0167  0.8592 -0.0475
 6758TIP3   OH241832   3.488   3.060   0.556 -0.0118 -0.1758  0.1366
 6758TIP3    H141833   3.426   3.082   0.487  0.0439 -2.2305 -0.6351
 6758TIP3    H241834   3.573   3.091   0.522 -0.2855  0.6970  0.2316
 6759TIP3   OH241835   1.313   3.996   1.019 -0.1602 -0.5332 -0.2003
 6759TIP3    H141836   1.361   3.983   1.101  0.1038 -0.0168 -0.2648
 6759TIP3    H241837   1.226   3.958   1.036 -0.2209 -0.1427  0.4412
 6760TIP3   OH241838   0.865   0.437   8.166 -0.1835 -0.1202  0.1900
 6760TIP3    H141839   0.774   0.422   8.140 -0.2253  0.9553 -0.3419
 6760TIP3    H241840   0.916   0.420   8.086  0.1317 -1.0048  0.5602
 6761TIP3   OH241841   0.367   1.709   0.853  0.3480 -0.2460  0.2451
 6761TIP3    H141842   0.446   1.680   0.898  1.4605  1.8244 -0.2645
 6761TIP3    H241843   0.383   1.801   0.832 -1.1102 -0.4624 -2.2230
 6762TIP3   OH241844   2.488   1.035   1.312 -0.3486  0.0497  0.0383
 6762TIP3    H141845   2.401   1.036   1.272  0.1069  0.6769 -0.9673
 6762TIP3    H241846   2.491   1.114   1.366  0.2029  0.9664 -1.2980
 6763TIP3   OH241847   6.556   6.595   0.639 -0.7135 -0.2568 -0.3328
 6763TIP3    H141848   6.613   6.664   0.671 -2.1673  0.4245  0.9417
 6763TIP3    H241849   6.495   6.579   0.711 -2.2703 -0.7605 -1.6938
 6764TIP3   OH241850   1.415   5.577   0.355  0.1029 -0.0351 -0.2877
 6764TIP3    H141851   1.396   5.570   0.449  0.3200  2.8518  0.0611
 6764TIP3    H241852   1.349   5.638   0.322  1.2192  0.4896 -1.6103
 6765TIP3   OH241853   4.606   1.746   2.233 -0.0741  0.9200  0.0132
 6765TIP3    H141854   4.667   1.815   2.207  0.9734  0.1247  0.2943
 6765TIP3    H241855   4.525   1.793   2.255  0.5168  2.0280 -0.0926
 6766TIP3   OH241856   4.573   4.366   0.470  0.0122 -0.0125 -0.5747
 6766TIP3    H141857   4.571   4.270   0.471 -1.4093 -0.0297  1.9171
 6766TIP3    H241858   4.496   4.391   0.420 -1.3263 -0.2321  1.3013
 6767TIP3   OH241859   5.215   5.468   7.180  0.6928  0.9577 -0.1031
 6767TIP3    H141860   5.153   5.516   7.125  1.8195  1.2235 -1.2081
 6767TIP3    H241861   5.247   5.397   7.123 -3.2068 -3.3203  2.3763
 6768TIP3   OH241862   2.025   4.161   0.152  0.2387 -0.1500 -0.3991
 6768TIP3    H141863   2.057   4.217   0.222 -0.2064  0.3779 -0.6109
 6768TIP3    H241864   2.053   4.205   0.072  0.2553 -0.4563 -0.5630
 6769TIP3   OH241865   2.215   3.459   1.296 -0.9437  0.0491  0.2658
 6769TIP3    H141866   2.270   3.490   1.367 -1.0606 -1.6599  1.1541
 6769TIP3    H241867   2.262   3.385   1.259 -2.3957 -1.1781  0.7579
 6770TIP3   OH241868   4.015   6.403   7.531 -0.1730 -0.0754 -0.3553
 6770TIP3    H141869   3.969   6.399   7.448  0.5782  0.5622 -0.8214
 6770TIP3    H241870   4.106   6.424   7.507  0.1300 -0.2368  0.5968
 6771TIP3   OH241871   0.086   3.984   6.247  0.3070  1.2784 -0.1636
 6771TIP3    H141872   0.181   3.995   6.255  0.3662  1.5468 -1.1691
 6771TIP3    H241873   0.075   3.905   6.194 -0.0320  1.4303 -0.3189
 6772TIP3   OH241874   3.989   4.593   7.487  0.1540 -0.3319  0.0937
 6772TIP3    H141875   4.024   4.507   7.464  0.5214  0.2008 -1.4895
 6772TIP3    H241876   4.066   4.650   7.490 -0.3802  0.6001 -2.1968
 6773TIP3   OH241877   5.273   1.350   0.304  0.2917  0.3026  0.6451
 6773TIP3    H141878   5.236   1.277   0.353 -0.5697  0.6890  0.5890
 6773TIP3    H241879   5.276   1.423   0.367  1.1504  0.2255  0.7038
 6774TIP3   OH241880   4.219   1.652   7.115 -0.5093 -0.0119 -0.4192
 6774TIP3    H141881   4.210   1.707   7.037 -0.4334  1.0341  0.2855
 6774TIP3    H241882   4.313   1.637   7.123 -0.4653  0.3737 -0.2015
 6775TIP3   OH241883   3.560   6.326   2.556  0.5223 -0.2359 -0.1391
 6775TIP3    H141884   3.498   6.307   2.486  0.7354  1.2023 -0.7621
 6775TIP3    H241885   3.646   6.310   2.518  0.5914 -1.3444  0.4378
 6776TIP3   OH241886   2.857   4.293   6.536  0.1671  0.3018 -0.2181
 6776TIP3    H141887   2.764   4.302   6.556  0.7137  0.9355  2.3875
 6776TIP3    H241888   2.894   4.378   6.562  1.5547 -0.1669 -0.6336
 6777TIP3   OH241889   4.787   6.016   7.299  0.7052 -0.0281 -0.0232
 6777TIP3    H141890   4.842   6.023   7.221 -0.4606 -0.8928 -0.9313
 6777TIP3    H241891   4.832   5.952   7.354  0.0649 -1.5577 -1.2404
 6778TIP3   OH241892   5.240   3.288   7.432 -0.1292  0.1934 -0.4838
 6778TIP3    H141893   5.156   3.296   7.476  0.1554  1.6317 -0.1374
 6778TIP3    H241894   5.301   3.261   7.501 -0.0481  0.5620 -0.4063
 6779TIP3   OH241895   2.697   5.154   7.791 -0.5114 -0.5874  0.4823
 6779TIP3    H141896   2.674   5.128   7.702 -1.2438 -0.4080  0.6149
 6779TIP3    H241897   2.615   5.188   7.829  0.0189  0.2883  0.8844
 6780TIP3   OH241898   2.750   0.608   7.430  0.0318 -0.4198  0.0704
 6780TIP3    H141899   2.817   0.539   7.428  0.2733 -0.2000  0.3878
 6780TIP3    H241900   2.767   0.655   7.512 -0.3243 -0.1743  0.0053
 6781TIP3   OH241901   4.794   0.287   7.787  0.1365 -0.3539  0.0485
 6781TIP3    H141902   4.761   0.254   7.871  2.4291  0.9780  1.5645
 6781TIP3    H241903   4.883   0.253   7.780  1.1153  2.0738 -0.2786
 6782TIP3   OH241904   4.641   2.974   1.425 -0.3822 -0.3645  0.0023
 6782TIP3    H141905   4.678   2.886   1.423 -0.7127 -0.4979 -0.5349
 6782TIP3    H241906   4.715   3.032   1.407 -0.4788 -0.6499 -1.4422
 6783TIP3   OH241907   6.571   3.687   7.917 -0.0616 -0.1074  0.1340
 6783TIP3    H141908   6.602   3.624   7.981 -0.1473  0.4153  0.6962
 6783TIP3    H241909   6.493   3.645   7.878  1.0549 -1.2310 -0.9797
 6784TIP3   OH241910   5.802   3.606   0.743  0.1950 -0.5261 -0.3833
 6784TIP3    H141911   5.742   3.556   0.688 -1.8386  0.4855  0.8041
 6784TIP3    H241912   5.808   3.692   0.701 -0.2743 -0.1898  0.2294
 6785TIP3   OH241913   2.281   2.456   1.280 -0.0180  0.0498 -0.2356
 6785TIP3    H141914   2.208   2.442   1.220 -0.6710  1.1662  0.2653
 6785TIP3    H241915   2.263   2.396   1.353  1.0096 -1.6325 -1.3021
 6786TIP3   OH241916   0.164   6.194   8.438  0.1133  0.4647  0.0450
 6786TIP3    H141917   0.087   6.175   8.385  0.3959  0.9944 -0.5788
 6786TIP3    H241918   0.129   6.234   8.517 -0.3822 -1.2308  0.7239
 6787TIP3   OH241919   5.248   2.430   8.441 -0.2217 -0.5174  0.0346
 6787TIP3    H141920   5.203   2.476   8.369 -0.2515 -1.2068 -0.3933
 6787TIP3    H241921   5.312   2.493   8.473 -0.0829 -0.2655 -0.7205
 6788TIP3   OH241922   5.101   3.848   8.133 -0.0108 -0.7472  0.1569
 6788TIP3    H141923   5.147   3.888   8.206  1.1984 -0.3970 -0.7626
 6788TIP3    H241924   5.072   3.922   8.079 -1.5389 -0.9649  0.6301
 6789TIP3   OH241925   4.234   5.624   1.154 -0.4135  0.7833 -0.2021
 6789TIP3    H141926   4.284   5.545   1.173  1.1195  1.8445  0.3753
 6789TIP3    H241927   4.146   5.593   1.135  0.7027 -1.3168 -2.5382
 6790TIP3   OH241928   6.582   1.659   2.062  0.3092 -0.7449 -0.2562
 6790TIP3    H141929   6.526   1.608   2.120 -0.6010 -0.9274 -1.2686
 6790TIP3    H241930   6.610   1.597   1.995  0.8389 -0.3901 -0.3678
 6791TIP3   OH241931   5.475   5.267   6.518  0.5106 -0.1164 -0.4205
 6791TIP3    H141932   5.419   5.345   6.524 -0.2536 -0.5888 -1.2073
 6791TIP3    H241933   5.501   5.249   6.609 -1.4888 -0.4941  0.1245
 6792TIP3   OH241934   0.643   4.617   1.272  0.1983 -0.0363 -0.8999
 6792TIP3    H141935   0.573   4.632   1.208  0.3069  0.5947 -0.8757
 6792TIP3    H241936   0.723   4.638   1.225  0.1754  1.9706 -0.1050
 6793TIP3   OH241937   6.459   1.742   0.595 -0.2935 -0.1377  0.4576
 6793TIP3    H141938   6.520   1.739   0.522 -0.4265  2.0510  0.1967
 6793TIP3    H241939   6.510   1.777   0.668 -0.2519 -1.9800  1.3792
 6794TIP3   OH241940   4.984   6.713   0.437  0.3872  0.6161  0.3061
 6794TIP3    H141941   5.053   6.646   0.437 -1.0953 -0.9876  0.4075
 6794TIP3    H241942   4.985   6.749   0.348 -0.4107 -1.3792 -0.5899
 6795TIP3   OH241943   3.197   5.716   8.099 -0.5834  0.1194  0.2120
 6795TIP3    H141944   3.111   5.705   8.058 -0.5509 -0.8593  0.3781
 6795TIP3    H241945   3.205   5.642   8.159  0.3001  0.2973  0.3305
 6796TIP3   OH241946   1.991   4.048   8.463  0.2736 -0.0227  0.5447
 6796TIP3    H141947   1.897   4.054   8.475  0.1741 -1.2504  0.4799
 6796TIP3    H241948   2.018   3.974   8.518  1.2354  0.4578  0.7461
 6797TIP3   OH241949   6.295   5.047   2.473 -0.5192  0.0921 -0.0924
 6797TIP3    H141950   6.282   4.952   2.481 -1.4274  0.0260 -1.8488
 6797TIP3    H241951   6.244   5.071   2.396  1.9183  1.5683 -1.3470
 6798TIP3   OH241952   5.664   0.294   1.380  0.5712 -0.5482  0.0856
 6798TIP3    H141953   5.723   0.223   1.406 -0.2469 -1.6188 -0.8683
 6798TIP3    H241954   5.626   0.325   1.462  0.4236 -1.7024  0.4728
 6799TIP3   OH241955   3.863   4.024   7.736  0.1438  0.0223  0.3397
 6799TIP3    H141956   3.952   4.043   7.767  0.0618  1.6828 -0.3466
 6799TIP3    H241957   3.835   3.950   7.790  1.4935  0.2430  1.4156
 6800TIP3   OH241958   4.125   2.603   0.394  0.1907 -0.6435 -0.1777
 6800TIP3    H141959   4.205   2.560   0.366  0.6113  1.3582 -2.3976
 6800TIP3    H241960   4.151   2.655   0.470  0.9371 -0.2945 -0.6614
 6801TIP3   OH241961   2.380   2.090   1.773 -0.2032 -1.1129 -0.1714
 6801TIP3    H141962   2.465   2.067   1.735  0.2959 -1.6688  1.2429
 6801TIP3    H241963   2.353   2.012   1.821 -0.9380 -0.5213  0.3973
 6802TIP3   OH241964   4.164   4.029   7.296  0.4421  0.0790 -0.5459
 6802TIP3    H141965   4.074   4.017   7.327  0.3731  1.6794 -0.0439
 6802TIP3    H241966   4.215   3.964   7.344 -0.5040 -1.2166 -1.2361
 6803TIP3   OH241967   1.942   6.379   7.358 -0.2990  0.1975  0.0782
 6803TIP3    H141968   1.931   6.417   7.271  0.3653  1.4970  0.5238
 6803TIP3    H241969   1.855   6.380   7.396 -0.6322 -0.5698 -0.6325
 6804TIP3   OH241970   2.312   5.142   0.399  0.3874 -0.0121 -0.7229
 6804TIP3    H141971   2.327   5.224   0.444  3.4065 -1.0738  0.4843
 6804TIP3    H241972   2.217   5.136   0.390 -0.0022  2.9127  0.3402
 6805TIP3   OH241973   3.331   6.414   1.532  0.5510 -0.1147 -0.1160
 6805TIP3    H141974   3.239   6.391   1.544  0.4217  1.1110  1.7229
 6805TIP3    H241975   3.328   6.495   1.481  0.5490  0.2567  0.4584
 6806TIP3   OH241976   2.320   6.632   8.226 -0.4494  0.1799 -0.2680
 6806TIP3    H141977   2.239   6.582   8.213 -0.7420  0.7415 -0.6177
 6806TIP3    H241978   2.291   6.721   8.245  0.0891  0.3913 -0.4327
 6807TIP3   OH241979   6.190   0.007   0.334 -0.0264  0.5576  1.1848
 6807TIP3    H141980   6.247  -0.069   0.321  0.8735  1.4941 -0.7432
 6807TIP3    H241981   6.234   0.078   0.287 -1.1745  2.1254  2.3967
 6808TIP3   OH241982   6.412   4.480   6.960  0.0871  0.0175  0.3257
 6808TIP3    H141983   6.373   4.398   6.930  0.0114  0.3034 -0.3942
 6808TIP3    H241984   6.457   4.457   7.042 -0.6986 -0.5359  0.6106
 6809TIP3   OH241985   0.754   4.243   1.562 -0.1877 -0.0403  0.1113
 6809TIP3    H141986   0.794   4.216   1.479  0.8058  0.3065  0.4507
 6809TIP3    H241987   0.686   4.305   1.537 -0.7866 -0.9268 -0.5156
 6810TIP3   OH241988   6.650   3.483   7.077 -0.0142 -0.1954  0.4061
 6810TIP3    H141989   6.626   3.575   7.063 -1.6875 -0.9516 -2.6351
 6810TIP3    H241990   6.745   3.481   7.072  0.0556  1.3771  0.6691
 6811TIP3   OH241991   6.643   6.240   0.626  0.5362  0.6433 -0.0820
 6811TIP3    H141992   6.669   6.332   0.617  1.9738  0.3159  0.5138
 6811TIP3    H241993   6.704   6.193   0.569 -0.7137  0.1105 -1.0306
 6812TIP3   OH241994   3.779   1.482   0.225  0.0145 -0.4142 -0.6512
 6812TIP3    H141995   3.747   1.549   0.285 -0.9123  0.4660 -2.0634
 6812TIP3    H241996   3.787   1.403   0.279 -0.4762  0.4101  0.6751
 6813TIP3   OH241997   0.718   5.184   8.325 -0.2284 -0.6772  0.1312
 6813TIP3    H141998   0.689   5.148   8.410 -0.3512  1.2364  0.9410
 6813TIP3    H241999   0.812   5.197   8.336  0.1383 -2.2753 -0.7729
 6814TIP3   OH242000   1.225   2.203   7.088  0.4392 -0.0003 -0.6333
 6814TIP3    H142001   1.195   2.140   7.154  1.2403  1.8354  1.6031
 6814TIP3    H242002   1.145   2.244   7.056  0.1484  1.0553  1.3071
 6815TIP3   OH242003   0.397   2.456   1.997  0.1124  0.0600  0.1163
 6815TIP3    H142004   0.487   2.439   1.971 -0.5987 -3.4942 -0.4967
 6815TIP3    H242005   0.404   2.517   2.070  3.0188 -0.3611  0.2909
 6816TIP3   OH242006   6.119   5.989   1.648  0.2097 -0.4881  0.2238
 6816TIP3    H142007   6.209   5.993   1.681 -0.4321  0.2476  2.0376
 6816TIP3    H242008   6.080   5.916   1.696 -0.5004  0.0128  0.4282
 6817TIP3   OH242009   0.528   2.613   6.553 -0.2239 -0.0783 -0.3964
 6817TIP3    H142010   0.478   2.597   6.473  0.2292 -1.2213 -0.4665
 6817TIP3    H242011   0.471   2.586   6.624 -0.9057  1.6057 -0.2514
 6818TIP3   OH242012   5.739   0.139   2.440 -0.1037 -0.7835 -0.3714
 6818TIP3    H142013   5.739   0.060   2.385  0.2317 -1.3957  0.4810
 6818TIP3    H242014   5.831   0.162   2.449 -0.2526  0.3544 -1.4882
 6819TIP3   OH242015   0.350   2.842   7.199 -0.1086 -0.2599  0.2129
 6819TIP3    H142016   0.433   2.809   7.165 -1.0380 -0.2648 -2.3186
 6819TIP3    H242017   0.291   2.766   7.196 -0.7297  0.2193 -0.0424
 6820TIP3   OH242018   5.743   2.466   2.331 -0.0891  0.6638  0.1600
 6820TIP3    H142019   5.698   2.519   2.265 -1.3295 -0.5401 -0.0028
 6820TIP3    H242020   5.827   2.511   2.345 -0.7218  2.1479 -0.6167
 6821TIP3   OH242021   1.424   4.856   7.129 -0.5006 -0.5707  0.0098
 6821TIP3    H142022   1.383   4.909   7.060 -0.4854 -0.5084  0.0485
 6821TIP3    H242023   1.499   4.814   7.086  1.3825  1.8640  0.7039
 6822TIP3   OH242024   5.036   4.244   1.067 -0.0243  0.5449 -0.2121
 6822TIP3    H142025   5.024   4.163   1.117 -0.3849  1.3850  1.1227
 6822TIP3    H242026   4.966   4.242   1.002  1.7350 -1.5981 -2.2217
 6823TIP3   OH242027   1.799   5.246   0.309 -0.2771 -0.0193  0.6001
 6823TIP3    H142028   1.814   5.302   0.233 -1.2495 -1.7209 -0.9127
 6823TIP3    H242029   1.704   5.242   0.318 -0.2155  1.5586  3.0787
 6824TIP3   OH242030   3.095   2.281   1.592 -0.7423  0.5289  0.0925
 6824TIP3    H142031   3.176   2.279   1.642 -2.1969  1.7114  2.7049
 6824TIP3    H242032   3.115   2.333   1.515  1.3567 -0.5729 -0.1755
 6825TIP3   OH242033   4.832   5.419   7.118  0.1850 -0.1269 -0.3044
 6825TIP3    H142034   4.766   5.465   7.066  1.2713 -0.7530 -2.3488
 6825TIP3    H242035   4.905   5.480   7.122  1.0069 -0.9685 -1.6307
 6826TIP3   OH242036   4.208   4.557   7.065 -0.0606 -0.0410 -0.2460
 6826TIP3    H142037   4.152   4.574   6.989  0.0882  2.1998  0.0971
 6826TIP3    H242038   4.291   4.600   7.044 -0.2707  1.3012  1.4674
 6827TIP3   OH242039   1.746   5.675   0.969  0.2568  0.0294  0.2045
 6827TIP3    H142040   1.709   5.761   0.947  1.5256  0.1491 -1.7476
 6827TIP3    H242041   1.839   5.692   0.981  0.7288 -1.1872 -1.3623
 6828TIP3   OH242042   4.722   6.584   0.166 -0.0411 -0.3164  0.5631
 6828TIP3    H142043   4.753   6.518   0.228 -0.3684 -2.1117 -1.0592
 6828TIP3    H242044   4.632   6.602   0.193  0.7693  1.3056  2.4134
 6829TIP3   OH242045   1.626   0.393   8.482  0.2218 -0.1846 -0.0588
 6829TIP3    H142046   1.535   0.418   8.474 -0.0993 -0.5700  1.8447
 6829TIP3    H242047   1.674   0.475   8.493 -0.5493 -0.0798  3.8618
 6830TIP3   OH242048   3.677   4.370   1.428  0.9454  0.1559  0.6973
 6830TIP3    H142049   3.674   4.316   1.348  3.6804  0.0050  0.5953
 6830TIP3    H242050   3.639   4.314   1.495 -0.5321 -0.0774 -0.2674
 6831TIP3   OH242051   4.361   2.334   6.652 -0.5214  0.0884 -0.3202
 6831TIP3    H142052   4.326   2.406   6.600  1.8387  2.3667  0.9997
 6831TIP3    H242053   4.339   2.356   6.742  0.3926 -0.7330  0.1188
 6832TIP3   OH242054   5.698   3.959   7.361  0.5575  0.4439  0.1402
 6832TIP3    H142055   5.706   3.945   7.266 -0.0246  0.1740  0.1273
 6832TIP3    H242056   5.657   3.879   7.394  1.1611  0.3590  0.6862
 6833TIP3   OH242057   5.256   3.304   0.550 -0.2078 -0.6165  0.0856
 6833TIP3    H142058   5.287   3.265   0.468  0.5160 -0.8855  0.4789
 6833TIP3    H242059   5.206   3.234   0.593 -0.4762 -0.5173 -0.0630
 6834TIP3   OH242060   3.021   6.894   1.307  0.3269  0.2991  0.0214
 6834TIP3    H142061   3.058   6.865   1.390  0.2953 -0.5975 -0.2615
 6834TIP3    H242062   2.955   6.958   1.331  1.3544  1.1871  0.5948
 6835TIP3   OH242063   4.121   3.671   8.261 -0.6572  0.2918  0.1922
 6835TIP3    H142064   4.058   3.639   8.326 -1.1053  0.0907 -0.3304
 6835TIP3    H242065   4.188   3.716   8.313  1.3626 -3.5166  1.2621
 6836TIP3   OH242066   1.938   4.895   1.278 -0.0834  0.0363 -0.4028
 6836TIP3    H142067   2.016   4.872   1.228  0.3118  0.6602 -0.0885
 6836TIP3    H242068   1.930   4.990   1.267  1.1552  0.5543  2.2827
 6837TIP3   OH242069   3.412   0.438   2.127  0.0704  0.7110  0.3342
 6837TIP3    H142070   3.466   0.480   2.195  0.5818  0.5582  0.0280
 6837TIP3    H242071   3.463   0.449   2.046  0.8891 -1.6536  0.4404
 6838TIP3   OH242072   5.201   1.250   7.297 -0.3543  0.3485  0.4593
 6838TIP3    H142073   5.212   1.338   7.262  0.5447  0.2795  0.5475
 6838TIP3    H242074   5.218   1.259   7.391 -2.1870  0.4268  0.8324
 6839TIP3   OH242075   0.542   1.840   8.522  0.1396  0.0680 -0.0954
 6839TIP3    H142076   0.562   1.747   8.514  0.9494  0.2037  0.2953
 6839TIP3    H242077   0.513   1.866   8.435 -1.4087 -0.8483  0.1151
 6840TIP3   OH242078   6.809   1.761   6.999  0.4848  0.2470 -0.0940
 6840TIP3    H142079   6.802   1.789   6.907 -2.1249  1.1259  0.2915
 6840TIP3    H242080   6.745   1.690   7.007 -0.2733  1.0509  1.3224
 6841TIP3   OH242081   6.023   0.979   6.655 -0.0186 -0.0218  0.4234
 6841TIP3    H142082   6.040   0.995   6.562  0.1256  2.4326  0.8082
 6841TIP3    H242083   6.022   0.884   6.663  0.5372 -0.2952 -1.9818
 6842TIP3   OH242084   3.427   6.866   1.309  0.5263  0.5248  0.0507
 6842TIP3    H142085   3.375   6.903   1.237 -1.1687 -0.8789  0.5019
 6842TIP3    H242086   3.517   6.870   1.277 -0.0388  1.2036 -1.5755
 6843TIP3   OH242087   1.444   3.370   6.334  0.0222  0.3635 -0.5811
 6843TIP3    H142088   1.495   3.442   6.372 -1.1428  0.7557  0.2829
 6843TIP3    H242089   1.452   3.299   6.398 -1.6153  0.8927  0.2781
 6844TIP3   OH242090   1.002   4.102   8.399 -0.0442  0.0602  0.0161
 6844TIP3    H142091   1.076   4.045   8.422 -0.6461 -1.7915 -2.2800
 6844TIP3    H242092   0.925   4.055   8.430 -0.4574  0.3600 -0.5468
 6845TIP3   OH242093   6.647   4.517   1.664  0.3212  0.4360 -0.2878
 6845TIP3    H142094   6.608   4.585   1.718  0.7756  1.1509 -0.8522
 6845TIP3    H242095   6.729   4.494   1.708 -0.8834 -1.4287  1.1822
 6846TIP3   OH242096   1.403   0.332   2.346  0.3307 -0.1891  0.1910
 6846TIP3    H142097   1.449   0.384   2.412 -1.2289  1.6913 -0.0955
 6846TIP3    H242098   1.472   0.280   2.304  1.8840  1.1252  0.9830
 6847TIP3   OH242099   2.969   4.810   8.422 -0.1491 -0.5002 -0.5749
 6847TIP3    H142100   2.904   4.865   8.467  0.4960 -0.0887 -0.1400
 6847TIP3    H242101   2.957   4.724   8.461 -1.2861 -0.7329 -1.3822
 6848TIP3   OH242102   3.294   5.398   0.547  0.2518  0.1209  0.1749
 6848TIP3    H142103   3.313   5.456   0.474 -0.8744  0.0662 -0.1787
 6848TIP3    H242104   3.209   5.428   0.581  0.2039 -0.5853  0.7207
 6849TIP3   OH242105   2.777   1.100   6.803  0.0628  0.4288 -0.1748
 6849TIP3    H142106   2.862   1.062   6.780  0.1323 -2.0861  3.3703
 6849TIP3    H242107   2.713   1.033   6.779 -0.4353  0.4672  0.9696
 6850TIP3   OH242108   0.965   6.752   2.679  0.2319  0.1825  0.3473
 6850TIP3    H142109   1.006   6.665   2.681 -1.0861 -0.4954 -0.8766
 6850TIP3    H242110   0.909   6.754   2.757  0.7180  0.1913  0.7055
 6851TIP3   OH242111   2.951   5.875   0.973 -0.0438  0.6456 -0.0058
 6851TIP3    H142112   2.919   5.784   0.978 -1.5993  1.1670 -0.0198
 6851TIP3    H242113   3.046   5.866   0.960 -0.5236 -1.0599 -3.5420
 6852TIP3   OH242114   4.025   5.191   8.251 -0.2486 -0.6898 -0.5410
 6852TIP3    H142115   3.980   5.268   8.284 -0.9010 -1.0047 -0.6887
 6852TIP3    H242116   3.988   5.178   8.163  0.9240 -0.2987 -1.1160
 6853TIP3   OH242117   0.820   3.647   6.366  0.0867 -0.5256  0.6555
 6853TIP3    H142118   0.845   3.728   6.408 -1.9924  0.8932 -0.6591
 6853TIP3    H242119   0.728   3.636   6.387  0.1552 -2.1943  0.2437
 6854TIP3   OH242120   6.585   2.326   0.295 -0.3211 -0.1451 -0.4223
 6854TIP3    H142121   6.531   2.254   0.328 -1.2207  1.5451  2.0616
 6854TIP3    H242122   6.665   2.321   0.347 -1.3585  1.9614  1.5864
 6855TIP3   OH242123   0.894   0.252   7.138 -0.2240  0.4312 -0.6771
 6855TIP3    H142124   0.907   0.177   7.080 -0.4565 -0.5581  0.5055
 6855TIP3    H242125   0.982   0.276   7.167 -0.2590 -0.5454  0.3202
 6856TIP3   OH242126   5.423   5.858   1.071 -0.8785  0.1434 -0.0967
 6856TIP3    H142127   5.374   5.911   1.008  0.7098 -1.0614 -2.5125
 6856TIP3    H242128   5.391   5.769   1.057  0.1140 -0.2674  0.1418
 6857TIP3   OH242129   0.436   5.217   2.241 -0.3724  0.4176  0.2761
 6857TIP3    H142130   0.486   5.232   2.321 -1.0007 -2.0084  1.2042
 6857TIP3    H242131   0.362   5.162   2.269  0.3395 -2.0225 -2.2205
 6858TIP3   OH242132   0.113   6.533   8.472  0.6056 -0.4307  0.2839
 6858TIP3    H142133   0.186   6.594   8.479 -0.7794  1.3950 -0.2349
 6858TIP3    H242134   0.115   6.503   8.381 -0.3382  1.1051 -0.2888
 6859TIP3   OH242135   0.101   2.929   6.955 -0.0175 -0.4111  0.0776
 6859TIP3    H142136   0.094   2.850   7.008  0.6270 -0.5284 -0.0060
 6859TIP3    H242137   0.183   2.918   6.906  0.6481  0.7805  0.8679
 6860TIP3   OH242138   2.191   1.388   0.036  0.0035  0.1263 -0.5960
 6860TIP3    H142139   2.122   1.453   0.018 -0.6019  0.0560  1.2553
 6860TIP3    H242140   2.157   1.338   0.111  0.8327 -1.7887 -1.4466
 6861TIP3   OH242141   2.554   3.031   7.377 -0.2961  0.3380  0.2844
 6861TIP3    H142142   2.517   2.955   7.422 -0.9871  0.1204 -0.6178
 6861TIP3    H242143   2.643   3.004   7.354  0.3800  0.7745  2.2554
 6862TIP3   OH242144   5.849   0.214   7.145  0.2922 -0.1335 -0.5209
 6862TIP3    H142145   5.826   0.166   7.225  0.8687 -0.3949 -0.5007
 6862TIP3    H242146   5.802   0.297   7.152  1.1411  0.2939  0.6134
 6863TIP3   OH242147   5.552   3.064   0.238 -0.6556  0.6208  0.5857
 6863TIP3    H142148   5.458   3.066   0.220 -1.2938 -2.4571  2.7405
 6863TIP3    H242149   5.558   3.052   0.332  1.9335  0.7765  0.5105
 6864TIP3   OH242150   6.537   5.052   8.542 -0.2401 -0.2702  0.3030
 6864TIP3    H142151   6.504   5.081   8.627 -0.0444  1.7316 -0.2625
 6864TIP3    H242152   6.464   5.003   8.504 -0.7382 -0.2037  1.1487
 6865TIP3   OH242153   2.428   0.183   1.149  0.5599 -0.1705 -0.6137
 6865TIP3    H142154   2.392   0.099   1.120  0.6166 -0.0282 -1.1059
 6865TIP3    H242155   2.425   0.238   1.071  0.7438  0.2111 -0.3516
 6866TIP3   OH242156   5.968   2.208   8.504 -0.0328  0.2702  0.3061
 6866TIP3    H142157   5.906   2.186   8.434  0.3204  0.0287  0.0691
 6866TIP3    H242158   5.918   2.265   8.563 -0.7364 -0.5643  0.5364
 6867TIP3   OH242159   6.043   5.112   0.740  0.1275 -0.3805 -0.1192
 6867TIP3    H142160   6.005   5.181   0.795 -0.3819 -0.3640 -0.4821
 6867TIP3    H242161   6.136   5.110   0.764  0.2318  0.7099 -0.3925
 6868TIP3   OH242162   4.794   0.160   0.036  0.1062 -0.1093 -0.0283
 6868TIP3    H142163   4.747   0.207  -0.033  0.0557 -1.3905 -0.8942
 6868TIP3    H242164   4.757   0.072   0.035  1.9390 -0.9194 -0.1751
 6869TIP3   OH242165   1.155   3.235   7.208  0.1069  1.0140  0.4092
 6869TIP3    H142166   1.202   3.303   7.160  1.4651  0.6983  1.2410
 6869TIP3    H242167   1.194   3.236   7.296  0.0053 -0.6809  0.5112
 6870TIP3   OH242168   0.304   5.770   7.056 -0.3551  0.3673  0.4089
 6870TIP3    H142169   0.397   5.749   7.044 -0.4489  0.5819 -0.8458
 6870TIP3    H242170   0.258   5.698   7.012 -0.8522 -0.5627  2.3284
 6871TIP3   OH242171   1.913   5.507   8.313  0.4450 -0.3685  0.9228
 6871TIP3    H142172   1.878   5.449   8.380 -1.3158  0.0237  0.3744
 6871TIP3    H242173   1.874   5.476   8.232  2.7026 -0.9654 -0.0103
 6872TIP3   OH242174   0.327   3.360   7.019 -0.1078 -0.8524  0.3625
 6872TIP3    H142175   0.356   3.285   7.070  1.7901 -0.1175  0.4221
 6872TIP3    H242176   0.324   3.432   7.082 -0.1324 -0.4776 -0.0644
 6873TIP3   OH242177   2.179   0.250   1.956  0.5820 -0.4706 -0.5127
 6873TIP3    H142178   2.162   0.203   2.037  0.1265 -2.2790 -1.5984
 6873TIP3    H242179   2.249   0.312   1.978  0.8744 -1.3231  1.0942
 6874TIP3   OH242180   0.212   4.003   0.956 -0.1778 -0.2136 -0.1520
 6874TIP3    H142181   0.151   3.956   1.013 -1.1780 -0.0696 -1.0665
 6874TIP3    H242182   0.276   3.937   0.930 -0.1990 -0.4857  0.4566
 6875TIP3   OH242183   0.588   4.847   8.093 -0.0385  0.2583  0.3105
 6875TIP3    H142184   0.670   4.802   8.115  0.2762  0.4549 -0.4297
 6875TIP3    H242185   0.615   4.937   8.073 -0.3581  0.1870 -0.4646
 6876TIP3   OH242186   0.736   1.940   1.680 -0.0392  0.1507 -0.4605
 6876TIP3    H142187   0.748   1.917   1.772 -1.1268 -0.0479 -0.3637
 6876TIP3    H242188   0.718   1.857   1.636 -2.3716  0.5322 -0.3634
 6877TIP3   OH242189   4.102   6.001   8.611  0.3941  0.4269 -0.0123
 6877TIP3    H142190   4.105   6.089   8.573  2.0912  1.5099  2.3619
 6877TIP3    H242191   4.179   5.998   8.668 -0.0503 -2.3578  0.5558
 6878TIP3   OH242192   3.988   1.887   0.465 -0.1281 -0.9414  0.6201
 6878TIP3    H142193   4.041   1.939   0.526  1.5211  0.6045 -1.9716
 6878TIP3    H242194   3.914   1.944   0.443  0.0778 -0.8854  0.0621
 6879TIP3   OH242195   1.146   1.031   2.619 -0.3748 -0.0416 -0.3455
 6879TIP3    H142196   1.131   1.093   2.690 -1.6593  0.8044 -1.3279
 6879TIP3    H242197   1.151   1.084   2.540  0.2298 -1.0398 -1.0070
 6880TIP3   OH242198   3.562   2.083   7.061  0.1013 -0.3861  0.1022
 6880TIP3    H142199   3.513   2.047   7.135  1.2787 -0.5037  0.8547
 6880TIP3    H242200   3.594   2.006   7.015  1.0312 -0.3198  0.6224
 6881TIP3   OH242201   0.276   6.337   2.159 -0.6781  0.1578 -0.1638
 6881TIP3    H142202   0.217   6.298   2.094 -0.2723  0.1214 -0.5153
 6881TIP3    H242203   0.249   6.429   2.164 -0.4565  0.2515 -0.6751
 6882TIP3   OH242204   3.068   1.306   0.943  0.3909 -0.0201 -0.3843
 6882TIP3    H142205   3.006   1.379   0.933  1.0178  0.5512 -0.1538
 6882TIP3    H242206   3.154   1.346   0.933  0.7175 -1.2176 -3.3432
 6883TIP3   OH242207   4.953   4.478   6.609 -0.0934 -0.1783  0.0282
 6883TIP3    H142208   5.040   4.517   6.602 -0.2957  0.5987  1.4953
 6883TIP3    H242209   4.893   4.552   6.603 -0.5798 -0.5154  0.6950
 6884TIP3   OH242210   4.713   6.285   0.818  0.0017  0.1655 -0.1575
 6884TIP3    H142211   4.761   6.366   0.835  0.8564 -0.5434  0.8343
 6884TIP3    H242212   4.773   6.232   0.766 -0.3837 -0.0425 -0.3982
 6885TIP3   OH242213   0.321   2.161   0.705  0.1751  0.2433 -0.5237
 6885TIP3    H142214   0.243   2.199   0.745 -0.0419 -1.9513  1.3180
 6885TIP3    H242215   0.291   2.127   0.620 -1.1713 -1.3798  0.5439
 6886TIP3   OH242216   2.777   4.770   6.984  0.3421 -0.3646 -0.1145
 6886TIP3    H142217   2.827   4.783   6.904  0.6947 -1.3721 -0.0703
 6886TIP3    H242218   2.772   4.857   7.024 -0.1045  0.2087 -1.3714
 6887TIP3   OH242219   3.981   5.052   7.797  0.2336 -0.3646 -0.0244
 6887TIP3    H142220   4.045   5.116   7.766 -0.7802  0.5878 -0.2231
 6887TIP3    H242221   4.032   4.973   7.812  1.2151 -0.0737 -1.5619
 6888TIP3   OH242222   6.643   4.963   6.689  0.1585  0.2563  0.7050
 6888TIP3    H142223   6.609   5.052   6.691  1.0081  0.7284 -1.9979
 6888TIP3    H242224   6.707   4.963   6.617  2.0626 -1.9032  2.2540
 6889TIP3   OH242225   0.857   1.673   7.371 -0.5904  0.0988 -0.1062
 6889TIP3    H142226   0.911   1.692   7.295  0.2381  0.8308  0.6425
 6889TIP3    H242227   0.870   1.580   7.388  2.0768  0.6288  1.2483
 6890TIP3   OH242228   3.762   3.145   1.768 -0.4533  0.3577 -0.4829
 6890TIP3    H142229   3.724   3.161   1.682 -0.8433 -2.1899 -0.8636
 6890TIP3    H242230   3.852   3.118   1.750 -0.6353 -0.5113 -0.1392
 6891TIP3   OH242231   4.561   0.157   7.119 -0.2741  0.2002  0.1488
 6891TIP3    H142232   4.639   0.111   7.151  0.1535  0.9021  0.1431
 6891TIP3    H242233   4.511   0.090   7.071  0.4648 -0.1859 -0.0954
 6892TIP3   OH242234   5.568   4.773   7.564 -0.6082 -0.3581  0.2469
 6892TIP3    H142235   5.606   4.834   7.627 -1.4942 -0.1644  0.6112
 6892TIP3    H242236   5.638   4.711   7.545  0.8106  1.5712 -1.2234
 6893TIP3   OH242237   0.996   3.429   0.057 -0.4558  0.0619  0.4142
 6893TIP3    H142238   1.029   3.362   0.117 -0.2110  1.9433  2.5016
 6893TIP3    H242239   0.903   3.436   0.077 -0.8617 -0.8352 -1.0393
 6894TIP3   OH242240   5.211   3.055   8.282 -0.5212  0.2470  0.1292
 6894TIP3    H142241   5.209   3.149   8.264  1.6194  0.4607  0.7072
 6894TIP3    H242242   5.175   3.047   8.371 -0.5974  0.5417  0.1251
 6895TIP3   OH242243   0.465   6.486   6.713 -0.5419 -0.3434  0.4494
 6895TIP3    H142244   0.542   6.449   6.755  0.4634 -0.2289 -1.1824
 6895TIP3    H242245   0.400   6.416   6.715 -0.4359 -0.4273  1.8795
 6896TIP3   OH242246   3.682   0.479   2.217  0.5606  0.0605 -0.0519
 6896TIP3    H142247   3.687   0.550   2.154 -0.3723  0.1511 -0.0355
 6896TIP3    H242248   3.760   0.489   2.271  0.8441  0.5878 -0.5516
 6897TIP3   OH242249   5.622   1.124   7.785 -0.4211 -0.0422 -0.3304
 6897TIP3    H142250   5.674   1.190   7.832 -0.8876 -0.9926  1.6417
 6897TIP3    H242251   5.667   1.042   7.804 -0.1700 -0.4026 -2.2966
 6898TIP3   OH242252   1.408   5.714   0.769  0.7250  0.0758 -0.5710
 6898TIP3    H142253   1.479   5.653   0.789  1.3937  0.1956 -2.4404
 6898TIP3    H242254   1.399   5.767   0.848  2.0637 -0.5669  0.0376
 6899TIP3   OH242255   0.868   5.210   1.145  0.3071 -0.2192 -0.1162
 6899TIP3    H142256   0.854   5.118   1.125  0.1476  0.1024 -1.6159
 6899TIP3    H242257   0.783   5.241   1.176  0.4577 -0.6552  0.7408
 6900TIP3   OH242258   3.635   2.651   1.351 -0.4020  0.0723  0.0360
 6900TIP3    H142259   3.580   2.728   1.345 -2.5375 -1.0488  2.9133
 6900TIP3    H242260   3.718   2.683   1.387 -0.8595  1.1891  0.1127
 6901TIP3   OH242261   0.087   1.311   1.443  0.6158  0.0034 -0.2835
 6901TIP3    H142262   0.080   1.403   1.414 -0.4942 -0.4034 -1.3930
 6901TIP3    H242263   0.000   1.275   1.429  0.7687 -0.9739  1.1157
 6902TIP3   OH242264   3.367   0.028   0.167 -0.0722  0.0740 -0.0005
 6902TIP3    H142265   3.439  -0.004   0.221 -0.1499 -0.1363 -0.0201
 6902TIP3    H242266   3.374  -0.022   0.086  1.3790  1.9019 -1.0956
 6903TIP3   OH242267   2.119   3.448   8.478  0.1841 -0.1894 -0.4197
 6903TIP3    H142268   2.077   3.426   8.395  1.8886  1.2484 -1.7466
 6903TIP3    H242269   2.051   3.490   8.530 -0.5996  0.0062 -1.5734
 6904TIP3   OH242270   0.958   4.351   0.550 -0.2964 -0.0744 -0.0618
 6904TIP3    H142271   1.027   4.411   0.522 -1.0587  0.9599  0.2321
 6904TIP3    H242272   0.984   4.267   0.513  1.0310  0.3251 -0.0969
 6905TIP3   OH242273   6.644   5.522   2.173  0.1032 -0.3624 -0.1470
 6905TIP3    H142274   6.683   5.600   2.212  0.3194 -0.7548  0.4329
 6905TIP3    H242275   6.674   5.523   2.082  0.0005  0.2929 -0.1803
 6906TIP3   OH242276   5.065   1.607   1.242  0.1036 -0.0028  0.8429
 6906TIP3    H142277   5.017   1.679   1.284 -0.5058  0.1814 -0.1240
 6906TIP3    H242278   5.068   1.538   1.309 -0.2487  0.5211  1.4136
 6907TIP3   OH242279   4.560   0.249   7.421 -0.1079 -0.0718  0.1660
 6907TIP3    H142280   4.489   0.242   7.485  0.6919  1.2020  1.2684
 6907TIP3    H242281   4.519   0.231   7.337 -1.9871  1.7015  0.6251
 6908TIP3   OH242282   0.026   2.139   0.072  0.0431  0.1713 -0.0187
 6908TIP3    H142283   0.022   2.053   0.114  1.0594 -0.1034 -0.4390
 6908TIP3    H242284   0.093   2.128   0.004  0.3687  1.3693  0.0955
 6909TIP3   OH242285   3.959   0.993   0.998 -0.1265  0.0999  0.0632
 6909TIP3    H142286   3.958   1.024   0.908 -3.7507 -1.7700 -0.7164
 6909TIP3    H242287   3.974   0.899   0.991  0.5044  0.0616  1.5292
 6910TIP3   OH242288   0.364   4.251   1.096 -0.1664 -0.0548  0.4779
 6910TIP3    H142289   0.318   4.184   1.046 -0.9106  0.8385 -0.0739
 6910TIP3    H242290   0.432   4.203   1.144 -1.5035 -1.3746  1.1173
 6911TIP3   OH242291   6.778   2.762   0.042  0.3350  0.4305  0.3246
 6911TIP3    H142292   6.700   2.807   0.008  0.5847  0.0148 -0.8608
 6911TIP3    H242293   6.849   2.825   0.031 -0.0728  1.4087  2.8847
 6912TIP3   OH242294   2.826   2.057   8.478 -0.6641 -0.6377 -0.1152
 6912TIP3    H142295   2.804   2.091   8.392 -1.4826  1.0870  0.7236
 6912TIP3    H242296   2.750   2.004   8.504  1.1799 -4.6908 -2.0294
 6913TIP3   OH242297   2.007   3.685   7.650  0.1765 -0.1570  0.4075
 6913TIP3    H142298   1.935   3.690   7.714  0.7187 -0.4737  1.0631
 6913TIP3    H242299   1.997   3.763   7.596 -0.5414 -0.0965  0.6177
 6914TIP3   OH242300   5.584   2.526   7.667 -0.1986  0.5130 -0.0201
 6914TIP3    H142301   5.543   2.455   7.716  1.0361 -1.6891 -1.9786
 6914TIP3    H242302   5.542   2.524   7.581  2.1250 -0.1836 -1.2316
 6915TIP3   OH242303   1.495   4.162   1.449  0.2316  0.4072 -0.2218
 6915TIP3    H142304   1.533   4.219   1.515  0.0340 -0.4971  0.6881
 6915TIP3    H242305   1.423   4.117   1.494  0.5741 -0.7851 -0.8289
 6916TIP3   OH242306   1.223   3.131   7.515  0.8572  0.3529  0.6840
 6916TIP3    H142307   1.289   3.188   7.477  1.2089  0.2283  1.0941
 6916TIP3    H242308   1.258   3.042   7.505  0.7904  0.2905  0.9651
 6917TIP3   OH242309   0.437   2.443   7.881 -0.2190  0.4031  0.3906
 6917TIP3    H142310   0.519   2.468   7.839 -0.5757 -0.4719 -0.8931
 6917TIP3    H242311   0.401   2.525   7.914  1.0035  0.8425  0.6899
 6918TIP3   OH242312   5.601   2.070   7.976 -0.0012 -0.5868 -0.4058
 6918TIP3    H142313   5.563   2.153   7.948  2.7841  0.6809 -0.8086
 6918TIP3    H242314   5.632   2.030   7.895  0.7986 -0.8436  0.0182
 6919TIP3   OH242315   2.143   2.193   1.996  0.5579 -0.6587  0.2209
 6919TIP3    H142316   2.064   2.219   2.043  0.8789  0.8072 -0.0058
 6919TIP3    H242317   2.198   2.152   2.062  0.7529  0.8274  1.0320
 6920TIP3   OH242318   3.559   4.770   2.418  0.1388  0.3412 -0.2069
 6920TIP3    H142319   3.475   4.770   2.372  0.4522  1.6550 -0.8095
 6920TIP3    H242320   3.623   4.747   2.351  0.2423 -1.0369  0.3339
 6921TIP3   OH242321   0.976   2.457   7.411  0.1925  0.1615  0.2416
 6921TIP3    H142322   0.983   2.398   7.336  0.7466  1.4161 -0.7317
 6921TIP3    H242323   0.935   2.404   7.480  1.5015 -1.6314 -0.2748
 6922TIP3   OH242324   2.272   3.505   6.797  0.2810  0.1915 -0.9861
 6922TIP3    H142325   2.263   3.420   6.754  1.2881  0.0078 -0.8568
 6922TIP3    H242326   2.360   3.535   6.773 -0.0526  1.1849 -1.0046
 6923TIP3   OH242327   0.943   3.674   1.587  0.4638 -0.1915  0.3965
 6923TIP3    H142328   0.961   3.582   1.568  2.1729  0.3778 -0.9704
 6923TIP3    H242329   0.857   3.689   1.548  1.1489 -0.6795 -1.4204
 6924TIP3   OH242330   1.735   3.540   0.908 -0.7015  0.3905  0.2181
 6924TIP3    H142331   1.655   3.523   0.858 -1.0878  2.8208 -0.1163
 6924TIP3    H242332   1.712   3.516   0.998 -1.4497  0.0316 -0.0598
 6925TIP3   OH242333   1.234   2.504   1.916  0.5688  0.0455  0.5117
 6925TIP3    H142334   1.151   2.550   1.904  0.3267 -0.2456  1.0299
 6925TIP3    H242335   1.210   2.424   1.963  1.3470  0.7905  2.2759
 6926TIP3   OH242336   0.654   1.301   0.780 -0.5348 -0.2566 -0.2421
 6926TIP3    H142337   0.679   1.277   0.691 -0.6911 -0.8568 -0.1277
 6926TIP3    H242338   0.691   1.388   0.793  1.1926 -0.9564 -0.2013
 6927TIP3   OH242339   2.690   4.784   1.178 -0.1179  0.5511 -0.3891
 6927TIP3    H142340   2.774   4.830   1.179 -0.7279  1.6866  0.2513
 6927TIP3    H242341   2.654   4.798   1.265 -1.8774  1.8142 -1.2515
 6928TIP3   OH242342   1.573   4.957   7.740 -0.4810 -0.5326 -0.7388
 6928TIP3    H142343   1.520   4.941   7.661 -0.5376 -1.9499 -0.4434
 6928TIP3    H242344   1.515   5.007   7.798 -0.9329 -0.6960 -1.0416
 6929TIP3   OH242345   5.306   0.623   0.326  0.1727 -0.7882  0.1403
 6929TIP3    H142346   5.281   0.698   0.273  0.6941 -0.8478 -0.1871
 6929TIP3    H242347   5.318   0.659   0.414 -0.7679 -0.7050  0.2509
 6930TIP3   OH242348   6.152   2.881   0.130 -0.6172 -0.0149 -0.2562
 6930TIP3    H142349   6.063   2.872   0.098 -0.7586 -0.6505  0.2987
 6930TIP3    H242350   6.173   2.974   0.119 -0.7263 -0.1656 -1.9891
 6931TIP3   OH242351   5.961   6.649   1.707 -0.0149  0.3305 -0.3238
 6931TIP3    H142352   6.006   6.729   1.733  0.7615 -0.2818  0.3036
 6931TIP3    H242353   5.965   6.593   1.785 -1.6169  0.1370 -0.3583
 6932TIP3   OH242354   0.253   0.848   1.840  0.2113  0.5341  0.0226
 6932TIP3    H142355   0.176   0.868   1.894 -0.2065  3.6562 -1.5142
 6932TIP3    H242356   0.218   0.798   1.766  0.4047 -1.5831  1.2704
 6933TIP3   OH242357   4.584   6.876   7.753  0.2800 -0.2646 -0.1203
 6933TIP3    H142358   4.558   6.939   7.686  1.0659 -0.8039 -0.9484
 6933TIP3    H242359   4.506   6.822   7.767  0.3468 -0.6469 -1.1756
 6934TIP3   OH242360   6.013   4.830   7.995 -0.0688  0.4169  0.1511
 6934TIP3    H142361   6.003   4.823   7.900 -0.6750  0.8029  0.1789
 6934TIP3    H242362   5.974   4.915   8.017 -1.4314 -0.3656  0.9259
 6935TIP3   OH242363   3.217   0.854   0.663 -0.1250 -0.2036 -0.2797
 6935TIP3    H142364   3.226   0.760   0.679 -0.8483 -0.1367  0.6811
 6935TIP3    H242365   3.123   0.866   0.646 -0.3009  0.4976  1.0024
 6936TIP3   OH242366   4.823   4.950   6.122 -0.1966 -0.4248  0.4385
 6936TIP3    H142367   4.790   5.039   6.133  1.4572  0.1458  1.0168
 6936TIP3    H242368   4.759   4.895   6.168 -0.3821  0.6301  1.4778
 6937TIP3   OH242369   6.480   4.069   1.914  0.0341  0.4361  0.3139
 6937TIP3    H142370   6.451   4.125   1.986  1.6902  1.6636  0.0990
 6937TIP3    H242371   6.553   4.118   1.874  1.6631 -1.9355  0.1867
 6938TIP3   OH242372   4.194   2.540   8.446  0.6584  0.3821 -0.1673
 6938TIP3    H142373   4.125   2.532   8.380 -0.7291  0.0941  1.2593
 6938TIP3    H242374   4.260   2.475   8.420  0.1623  0.2957 -1.2677
 6939TIP3   OH242375   1.123   0.503   0.310  0.4852 -0.3012 -0.4676
 6939TIP3    H142376   1.032   0.476   0.294  0.3314 -1.3612  1.7894
 6939TIP3    H242377   1.153   0.537   0.226 -2.0563  0.2642 -1.2406
 6940TIP3   OH242378   3.431   5.971   2.969  0.8605  0.0098 -0.0463
 6940TIP3    H142379   3.468   5.897   2.920 -0.3967 -0.4634 -0.3203
 6940TIP3    H242380   3.336   5.960   2.961  0.6492  1.4415  0.2449
 6941TIP3   OH242381   5.980   0.421   8.257  0.1584  0.6184  0.0861
 6941TIP3    H142382   6.002   0.454   8.169 -1.1415  1.1580 -0.0559
 6941TIP3    H242383   6.038   0.470   8.315  1.6043 -0.3192 -0.5050
 6942TIP3   OH242384   0.667   6.357   0.312  0.8076 -0.2483  0.0280
 6942TIP3    H142385   0.713   6.322   0.235  0.4712 -0.0527 -0.2647
 6942TIP3    H242386   0.735   6.403   0.361  0.6642  1.4629 -1.2389
 6943TIP3   OH242387   0.317   5.988   2.029  0.3525  0.4310  0.1605
 6943TIP3    H142388   0.329   5.926   2.101  0.6641  0.3187  0.0151
 6943TIP3    H242389   0.381   6.057   2.046  0.4749  0.3698 -0.0442
 6944TIP3   OH242390   1.340   4.520   6.747 -0.1235 -0.0489  0.4004
 6944TIP3    H142391   1.428   4.515   6.710  0.6387 -1.8768  2.2175
 6944TIP3    H242392   1.316   4.613   6.741  1.3625  0.2653 -1.3289
 6945TIP3   OH242393   0.351   3.993   6.282 -0.3319  0.1012 -0.2005
 6945TIP3    H142394   0.396   3.973   6.200  1.7712  3.2643  0.0221
 6945TIP3    H242395   0.416   3.976   6.350 -1.4580 -0.7415  0.7017
 6946TIP3   OH242396   0.917   2.500   1.628 -0.3754  0.1689  0.6860
 6946TIP3    H142397   0.842   2.451   1.594 -0.7146 -0.2222  1.9360
 6946TIP3    H242398   0.940   2.561   1.558 -0.3148 -1.3584 -0.6897
 6947TIP3   OH242399   6.451   3.239   6.086  0.6290  0.5299 -0.3235
 6947TIP3    H142400   6.382   3.178   6.112  0.7066  0.0652 -1.1732
 6947TIP3    H242401   6.488   3.269   6.169  1.0971 -1.1696  0.1381
 6948TIP3   OH242402   6.065   0.038   1.156  0.4004  0.2442  0.5848
 6948TIP3    H142403   6.110  -0.030   1.106 -2.1947 -1.2924  0.1278
 6948TIP3    H242404   5.999  -0.010   1.207 -0.4062  2.2823  1.5593
 6949TIP3   OH242405   0.768   2.982   8.040  0.2402 -0.8995 -0.1367
 6949TIP3    H142406   0.814   3.062   8.066 -1.2362  0.3631 -1.1883
 6949TIP3    H242407   0.760   2.990   7.945 -0.0887 -2.2373 -0.2364
 6950TIP3   OH242408   2.350   1.949   1.509 -0.2278  0.2167  0.3684
 6950TIP3    H142409   2.358   2.028   1.562 -1.4641  0.2928  0.4906
 6950TIP3    H242410   2.270   1.907   1.541  0.0285 -0.7230 -0.1690
 6951TIP3   OH242411   2.551   4.364   2.354 -0.6634  0.0133 -0.0463
 6951TIP3    H142412   2.491   4.291   2.337 -0.7492 -0.4352  2.0050
 6951TIP3    H242413   2.637   4.324   2.363 -0.2728  0.4821 -1.3373
 6952TIP3   OH242414   1.971   6.420   6.706 -0.3307 -0.0846 -0.1207
 6952TIP3    H142415   1.991   6.326   6.710  0.9185  0.1482 -0.2441
 6952TIP3    H242416   1.877   6.425   6.694 -0.2389 -1.3700 -1.7613
 6953TIP3   OH242417   5.347   6.144   0.266 -0.1201  0.1361 -0.6704
 6953TIP3    H142418   5.313   6.127   0.178 -0.1151 -1.1783 -0.4314
 6953TIP3    H242419   5.280   6.198   0.308 -0.9174 -0.6246 -0.9297
 6954TIP3   OH242420   3.801   2.846   0.230  0.2747 -0.1622 -0.0027
 6954TIP3    H142421   3.888   2.824   0.197 -0.2878 -1.0237 -0.9679
 6954TIP3    H242422   3.743   2.780   0.192 -0.5508 -0.7139  2.0734
 6955TIP3   OH242423   6.822   6.817   0.422 -0.2560 -0.2430  0.1855
 6955TIP3    H142424   6.825   6.867   0.341 -0.4149 -0.2027  0.2044
 6955TIP3    H242425   6.744   6.848   0.467 -0.7791 -1.0560 -0.1500
 6956TIP3   OH242426   3.579   5.307   2.702  0.2467 -0.2902  0.1397
 6956TIP3    H142427   3.523   5.238   2.736 -2.1284  0.1959 -2.4016
 6956TIP3    H242428   3.519   5.364   2.652  2.7499  1.2227 -1.3539
 6957TIP3   OH242429   5.943   1.036   7.017  0.4825  0.0897 -0.3017
 6957TIP3    H142430   5.978   1.112   6.970 -0.0881  0.7232  0.2802
 6957TIP3    H242431   5.890   1.074   7.087  2.1585 -0.7930  1.5445
 6958TIP3   OH242432   5.765   6.181   7.127 -0.5306 -0.6793 -0.0613
 6958TIP3    H142433   5.780   6.086   7.131 -0.1589 -0.5753  2.7808
 6958TIP3    H242434   5.799   6.207   7.042 -0.6375 -3.0795 -0.9236
 6959TIP3   OH242435   6.358   5.547   6.854  0.7405  0.0367 -0.0012
 6959TIP3    H142436   6.381   5.469   6.904  1.5315 -0.2875 -0.8370
 6959TIP3    H242437   6.364   5.520   6.763 -3.3506 -0.1557 -0.3730
 6960TIP3   OH242438   6.773   6.787   0.066  0.2504  0.2260  0.0423
 6960TIP3    H142439   6.736   6.861   0.113  0.9086  1.2219 -0.9486
 6960TIP3    H242440   6.860   6.775   0.105 -0.1554 -0.5437  0.7299
 6961TIP3   OH242441   0.724   4.241   0.614  0.1131 -0.1654  0.4999
 6961TIP3    H142442   0.814   4.271   0.600  0.2161 -1.1725 -1.3227
 6961TIP3    H242443   0.670   4.315   0.587  0.3897  0.0533  0.5360
 6962TIP3   OH242444   1.014   3.387   6.513  0.7523 -0.3290  0.5532
 6962TIP3    H142445   0.959   3.425   6.581 -0.5104 -0.7847 -0.1855
 6962TIP3    H242446   1.009   3.292   6.528  1.0997 -0.3926  0.2928
 6963TIP3   OH242447   0.072   1.971   1.061 -0.0698 -0.3071 -0.1929
 6963TIP3    H142448   0.151   1.918   1.048  0.0596  0.4673 -3.7479
 6963TIP3    H242449   0.002   1.907   1.077  1.0469 -1.0676  1.9556
 6964TIP3   OH242450   1.210   5.852   8.323 -0.3300 -0.1149  0.0105
 6964TIP3    H142451   1.293   5.891   8.296  0.1070  1.1172  2.7441
 6964TIP3    H242452   1.231   5.761   8.344 -0.0859 -0.2852 -0.9335
 6965TIP3   OH242453   5.007   4.873   7.022 -0.0077  0.5417  0.0036
 6965TIP3    H142454   5.008   4.788   6.978  0.9798 -0.0489  1.1296
 6965TIP3    H242455   4.931   4.918   6.985 -0.8875 -1.0438 -0.1871
 6966TIP3   OH242456   5.591   0.074   0.174 -0.4619 -0.3558  0.1961
 6966TIP3    H142457   5.548   0.157   0.193  0.0340 -0.6779  3.1722
 6966TIP3    H242458   5.673   0.098   0.131 -1.1439  0.5484 -0.6299
 6967TIP3   OH242459   3.558   6.518   0.947 -0.0648 -0.0801 -0.4536
 6967TIP3    H142460   3.627   6.578   0.976 -0.9583  0.3474  0.8994
 6967TIP3    H242461   3.530   6.473   1.027 -3.3871  1.8957 -0.3167
 6968TIP3   OH242462   4.548   0.568   1.297 -0.5239 -0.3846  0.0822
 6968TIP3    H142463   4.575   0.476   1.301 -0.6723 -0.6216 -2.4042
 6968TIP3    H242464   4.624   0.613   1.260 -1.2235  0.0795 -0.8160
 6969TIP3   OH242465   5.132   0.218   7.519 -0.5500 -0.2220 -0.3689
 6969TIP3    H142466   5.098   0.211   7.430  0.3956 -1.5650 -0.6480
 6969TIP3    H242467   5.141   0.128   7.549  4.0896 -0.1647 -0.8679
 6970TIP3   OH242468   3.378   0.630   8.608 -0.2794 -0.0519 -0.0191
 6970TIP3    H142469   3.410   0.546   8.639  0.1795 -0.4245 -1.4241
 6970TIP3    H242470   3.283   0.625   8.616 -0.2588 -0.7349 -0.1557
 6971TIP3   OH242471   5.598   4.639   8.083  0.1202 -0.2127 -0.2175
 6971TIP3    H142472   5.639   4.628   7.997  0.0633  1.0408 -0.4196
 6971TIP3    H242473   5.648   4.709   8.125 -0.1853 -0.4581  0.5725
 6972TIP3   OH242474   2.180   1.130   8.190  0.0403 -0.3232 -0.5250
 6972TIP3    H142475   2.171   1.170   8.276  1.0877 -1.3843  0.1131
 6972TIP3    H242476   2.184   1.203   8.129  1.5382  0.5519  0.5662
 6973TIP3   OH242477   4.816   1.729   0.772  0.2804  0.4127 -0.0533
 6973TIP3    H142478   4.881   1.719   0.842 -1.2629  1.5663  1.6556
 6973TIP3    H242479   4.746   1.668   0.796 -0.1584  0.6344 -0.7488
 6974TIP3   OH242480   5.769   1.142   1.635 -0.2613  0.0597  0.6094
 6974TIP3    H142481   5.750   1.065   1.688  0.7112 -0.1480  0.6612
 6974TIP3    H242482   5.854   1.124   1.594 -1.2138 -0.0380 -1.4730
 6975TIP3   OH242483   1.026   0.290   0.842 -0.3649  0.4188  0.5679
 6975TIP3    H142484   0.992   0.202   0.823 -0.8480  0.3660  1.6207
 6975TIP3    H242485   1.070   0.316   0.761 -2.2483  0.1870 -0.5893
 6976TIP3   OH242486   6.322   5.357   0.992  0.3571 -0.1368  0.1022
 6976TIP3    H142487   6.383   5.397   0.930 -1.3524  1.1119 -0.8379
 6976TIP3    H242488   6.256   5.424   1.008  0.6731 -0.4333  3.2632
 6977TIP3   OH242489   2.614   3.704   1.964  0.7744 -0.1119 -0.0622
 6977TIP3    H142490   2.531   3.720   2.010  1.8031  1.3625  1.3854
 6977TIP3    H242491   2.636   3.613   1.985 -0.1370 -0.3151  0.0652
 6978TIP3   OH242492   3.268   1.721   0.970 -0.0696 -0.2001 -0.2959
 6978TIP3    H142493   3.327   1.658   0.929 -0.4218 -0.2990 -0.6534
 6978TIP3    H242494   3.323   1.796   0.992 -0.0031  0.1145 -1.5159
 6979TIP3   OH242495   0.276   3.102   8.574 -0.2026  0.0442  0.0133
 6979TIP3    H142496   0.307   3.093   8.664  0.0585  0.8535  0.0110
 6979TIP3    H242497   0.327   3.037   8.525 -2.4753 -2.6093  0.9034
 6980TIP3   OH242498   3.552   6.318   0.477 -0.1746  0.0896  0.0685
 6980TIP3    H142499   3.589   6.265   0.548 -0.3513 -0.4424 -0.2322
 6980TIP3    H242500   3.627   6.367   0.443  0.0475 -0.1896  0.1542
 6981TIP3   OH242501   0.996   1.539   7.936 -0.0571  0.5405  0.0700
 6981TIP3    H142502   1.050   1.618   7.936 -0.4801  1.0320  3.7429
 6981TIP3    H242503   0.916   1.565   7.890  0.2842  1.9123  0.1971
 6982TIP3   OH242504   2.794   6.588   2.265  0.2556  0.1216  0.5999
 6982TIP3    H142505   2.744   6.648   2.319  1.9545  0.8834  1.4235
 6982TIP3    H242506   2.870   6.564   2.319 -0.2087 -2.5834  0.1893
 6983TIP3   OH242507   0.431   1.400   6.521 -0.1747 -0.4282 -0.4889
 6983TIP3    H142508   0.410   1.487   6.487 -0.9814 -0.0439  0.8965
 6983TIP3    H242509   0.358   1.379   6.580  0.8598 -1.2760  0.5520
 6984TIP3   OH242510   2.517   2.336   0.952  0.1626 -0.0324  0.4584
 6984TIP3    H142511   2.457   2.286   0.896  0.5021 -0.3892  0.4134
 6984TIP3    H242512   2.592   2.355   0.895  0.7688 -0.8925  0.9627
 6985TIP3   OH242513   4.267   4.031   0.735 -0.1030 -0.4888 -0.3142
 6985TIP3    H142514   4.361   4.019   0.743 -0.1435 -0.4335  0.3104
 6985TIP3    H242515   4.233   4.017   0.824 -0.5581  0.5454 -0.3043
 6986TIP3   OH242516   2.674   2.457   7.151  0.4674 -0.5439 -0.6979
 6986TIP3    H142517   2.694   2.404   7.228  0.2057  0.0968 -0.1773
 6986TIP3    H242518   2.583   2.434   7.128 -1.4763  2.9338  2.3636
 6987TIP3   OH242519   3.943   0.663   8.230  0.4511  0.1214 -0.1380
 6987TIP3    H142520   4.013   0.599   8.240 -0.1103 -0.8502 -1.9888
 6987TIP3    H242521   3.897   0.662   8.314  0.5930 -1.7725 -0.0449
 6988TIP3   OH242522   6.619   0.034   0.561 -0.6124  0.4263  0.4314
 6988TIP3    H142523   6.593   0.116   0.519 -0.0529  1.3270  1.7658
 6988TIP3    H242524   6.559   0.025   0.635  0.9989  1.0660  1.8847
 6989TIP3   OH242525   3.688   3.557   2.534 -0.0885  0.4847  0.6391
 6989TIP3    H142526   3.755   3.607   2.581 -1.5452  2.2907  0.9425
 6989TIP3    H242527   3.719   3.467   2.535  1.9056  1.1355  1.4881
 6990TIP3   OH242528   4.014   1.713   7.953  0.0176  0.5600  0.2889
 6990TIP3    H142529   3.928   1.753   7.962  0.0142  1.2371 -2.0481
 6990TIP3    H242530   4.075   1.780   7.983 -0.2024  0.5832  0.6868
 6991TIP3   OH242531   5.408   3.038   7.081 -0.2108 -0.3014 -0.9953
 6991TIP3    H142532   5.449   3.124   7.080 -3.0508  1.1748 -0.2357
 6991TIP3    H242533   5.329   3.049   7.133 -0.6268 -3.4362 -0.7338
 6992TIP3   OH242534   2.927   6.777   8.129  0.0403  0.1903 -0.3287
 6992TIP3    H142535   2.845   6.798   8.174  1.3994  0.2883  2.3289
 6992TIP3    H242536   2.983   6.853   8.145  1.4655 -0.9143  0.1179
 6993TIP3   OH242537   5.839   0.264   8.432 -0.2826 -0.0910  0.0841
 6993TIP3    H142538   5.870   0.317   8.359 -1.5303  0.2458 -0.2162
 6993TIP3    H242539   5.887   0.182   8.425  1.0813  0.6728  0.0766
 6994TIP3   OH242540   6.002   5.524   8.345 -0.1670  0.2239  0.1175
 6994TIP3    H142541   6.021   5.540   8.437 -1.7451 -0.0330  0.5158
 6994TIP3    H242542   6.079   5.479   8.312  1.4868  2.4792  0.6560
 6995TIP3   OH242543   6.476   4.704   8.041  0.5827 -0.1060  0.1890
 6995TIP3    H142544   6.561   4.683   8.002  0.4143 -1.5337  0.5465
 6995TIP3    H242545   6.497   4.732   8.130  0.6592 -0.8969  0.4284
 6996TIP3   OH242546   2.262   5.713   6.608 -0.3151  0.0891  0.1624
 6996TIP3    H142547   2.233   5.670   6.528 -0.6924 -1.2588  0.9997
 6996TIP3    H242548   2.356   5.696   6.611 -0.5869 -1.4024  0.8883
 6997TIP3   OH242549   6.394   1.915   1.103 -0.2403 -0.1987  0.3297
 6997TIP3    H142550   6.481   1.952   1.117 -0.2804 -0.3069  0.8605
 6997TIP3    H242551   6.407   1.848   1.035 -0.5330  2.2234 -2.2819
 6998TIP3   OH242552   3.373   5.159   0.915 -0.2420  0.2924  0.4984
 6998TIP3    H142553   3.323   5.239   0.936 -1.3047 -0.2922  0.2995
 6998TIP3    H242554   3.315   5.088   0.943 -1.0211 -0.4995 -2.7515
 6999TIP3   OH242555   0.950   0.751   8.248 -0.0647 -0.6245 -0.2534
 6999TIP3    H142556   0.933   0.765   8.155  2.4163  1.2859 -0.5303
 6999TIP3    H242557   0.868   0.716   8.282 -1.7132  0.4451 -2.7770
 7000TIP3   OH242558   5.270   6.242   1.237  0.6745 -0.0311  0.4741
 7000TIP3    H142559   5.360   6.232   1.207  0.8238 -0.7092  1.1254
 7000TIP3    H242560   5.247   6.333   1.216  0.4877 -0.6718 -2.4414
 7001TIP3   OH242561   2.858   4.574   0.141  0.2638  0.0678  0.1307
 7001TIP3    H142562   2.854   4.662   0.177  0.7775  0.5231 -0.8973
 7001TIP3    H242563   2.918   4.580   0.067 -0.3378 -0.9621 -0.4766
 7002TIP3   OH242564   5.601   4.016   0.304  0.3286  0.1515  0.2966
 7002TIP3    H142565   5.608   4.044   0.395 -1.2047  0.7044  0.2836
 7002TIP3    H242566   5.647   4.083   0.254  0.1559  0.4882  0.5839
 7003TIP3   OH242567   4.160   6.618   1.447 -0.5805 -0.2791  0.6260
 7003TIP3    H142568   4.106   6.680   1.496 -0.5861 -0.5756  0.9914
 7003TIP3    H242569   4.221   6.583   1.511 -1.7720 -2.0410  0.8577
 7004TIP3   OH242570   2.873   2.294   1.977  0.1715  0.6433 -0.0041
 7004TIP3    H142571   2.910   2.302   2.065 -0.0735 -0.4599  0.2117
 7004TIP3    H242572   2.892   2.378   1.936  2.3470  0.3634  0.3166
 7005TIP3   OH242573   4.109   1.246   1.523  0.7860 -0.2679 -0.2669
 7005TIP3    H142574   4.034   1.232   1.464  0.2501  1.5475 -0.0740
 7005TIP3    H242575   4.074   1.226   1.610  0.5715  0.4211 -0.1943
 7006TIP3   OH242576   5.165   3.898   1.652  0.1999 -0.4411 -0.4830
 7006TIP3    H142577   5.134   3.982   1.686 -2.0955 -1.5489  0.3151
 7006TIP3    H242578   5.086   3.849   1.631  1.4609 -2.5928 -0.5399
 7007TIP3   OH242579   5.201   6.145   8.108 -0.3089 -0.1494 -0.2038
 7007TIP3    H142580   5.240   6.199   8.039 -0.9794  1.3414  0.5462
 7007TIP3    H242581   5.258   6.067   8.112  2.9643  2.0737  1.1117
 7008TIP3   OH242582   1.428   2.136   0.972  0.0778 -0.4118 -0.0817
 7008TIP3    H142583   1.402   2.044   0.967  0.6772 -0.6122  0.3617
 7008TIP3    H242584   1.376   2.172   1.044  0.6824 -0.6974  0.5046
 7009TIP3   OH242585   5.801   0.727   6.548  0.4731 -0.0893 -0.1295
 7009TIP3    H142586   5.888   0.727   6.589 -0.2166  0.3667  1.3865
 7009TIP3    H242587   5.745   0.774   6.609 -0.9423 -0.6881 -0.9094
 7010TIP3   OH242588   3.372   2.575   7.461  0.1649  0.2907  0.0136
 7010TIP3    H142589   3.440   2.639   7.437 -1.0115  0.9294 -1.8338
 7010TIP3    H242590   3.391   2.498   7.408 -0.4788  0.4335 -0.4339
 7011TIP3   OH242591   2.904   0.116   8.422  0.4773 -0.4655  0.0731
 7011TIP3    H142592   2.941   0.194   8.382  0.2984 -1.0161 -1.2228
 7011TIP3    H242593   2.974   0.083   8.479  0.2621  1.0531  1.2954
 7012TIP3   OH242594   4.670   4.428   7.534  0.3616 -0.4499 -0.0012
 7012TIP3    H142595   4.604   4.480   7.580  0.8825 -0.3690  0.6763
 7012TIP3    H242596   4.669   4.462   7.444  0.2962  0.3511  0.2900
 7013TIP3   OH242597   3.903   0.205   7.928  0.0350  1.0930  0.6296
 7013TIP3    H142598   3.825   0.222   7.874  0.0359  0.2200  0.3473
 7013TIP3    H242599   3.874   0.141   7.992  0.3811  1.1684  0.8614
 7014TIP3   OH242600   6.311   0.787   2.239 -0.0435 -0.2228  0.4009
 7014TIP3    H142601   6.306   0.705   2.190 -0.2165 -1.3905  2.2837
 7014TIP3    H242602   6.401   0.817   2.226  0.3636 -1.3180  0.6173
 7015TIP3   OH242603   3.296   1.240   8.387 -0.9481 -0.2357  0.0325
 7015TIP3    H142604   3.347   1.247   8.468 -0.2165  1.2833 -0.5262
 7015TIP3    H242605   3.227   1.305   8.396 -0.3907  0.4958 -0.8816
 7016TIP3   OH242606   1.444   4.080   2.085  0.0344  0.0789 -0.3387
 7016TIP3    H142607   1.439   4.110   1.994 -2.7578 -0.4908 -0.4586
 7016TIP3    H242608   1.524   4.121   2.119  1.1998  0.2581 -3.0254
 7017TIP3   OH242609   5.191   3.844   7.182 -0.2053 -0.0484 -0.2868
 7017TIP3    H142610   5.174   3.917   7.123  0.2067 -0.6787 -1.2054
 7017TIP3    H242611   5.179   3.766   7.128  0.9123 -0.6243  0.2605
 7018TIP3   OH242612   0.431   6.119   1.379 -0.3132 -0.3026 -0.1781
 7018TIP3    H142613   0.350   6.169   1.382 -0.1586 -0.0958  0.7084
 7018TIP3    H242614   0.410   6.043   1.324 -1.3745 -0.7063  0.7429
 7019TIP3   OH242615   0.564   2.911   6.758  0.4724  0.0683  0.1094
 7019TIP3    H142616   0.631   2.921   6.690  0.4747 -0.5547  0.0218
 7019TIP3    H242617   0.566   2.818   6.781 -1.2480 -0.2040 -0.7756
 7020TIP3   OH242618   5.762   5.730   2.259 -0.3882  0.7015 -0.0504
 7020TIP3    H142619   5.834   5.787   2.231 -0.1786  2.4515  3.5811
 7020TIP3    H242620   5.800   5.642   2.258  0.2769  0.9174 -2.6004
 7021TIP3   OH242621   4.307   0.804   0.713  0.8428  0.4007  0.4316
 7021TIP3    H142622   4.325   0.891   0.676  1.6143 -0.4179 -1.2374
 7021TIP3    H242623   4.378   0.749   0.680 -2.1865 -2.0412 -2.8557
 7022TIP3   OH242624   5.748   3.023   8.243 -0.6863  0.1498  0.2986
 7022TIP3    H142625   5.771   3.068   8.325 -0.3185  0.3563  0.0873
 7022TIP3    H242626   5.663   2.983   8.260  0.2138 -1.3795  1.4088
 7023TIP3   OH242627   0.527   1.298   0.003 -0.4282  0.2246 -0.1714
 7023TIP3    H142628   0.457   1.281  -0.060 -1.0268 -0.3739  0.6382
 7023TIP3    H242629   0.546   1.391  -0.008 -1.9197  0.6017  0.1429
 7024TIP3   OH242630   1.973   3.338   0.202  1.0670 -0.5324 -0.3669
 7024TIP3    H142631   2.062   3.343   0.236  0.8428 -1.2620  0.3689
 7024TIP3    H242632   1.949   3.428   0.182  1.7116 -0.2490  0.1160
 7025TIP3   OH242633   3.696   1.916   1.002  0.2981 -1.0220  0.2306
 7025TIP3    H142634   3.738   1.993   1.041  0.3704  0.1829 -2.0423
 7025TIP3    H242635   3.715   1.845   1.063  1.0770  0.5518  1.9212
 7026TIP3   OH242636   3.128   2.070   6.637 -0.7910  0.2672 -0.2941
 7026TIP3    H142637   3.043   2.102   6.606 -1.2998 -1.3342 -0.6584
 7026TIP3    H242638   3.124   1.976   6.624 -0.0730 -0.2147  2.3935
 7027TIP3   OH242639   1.888   0.672   7.483 -0.2235  0.4199 -0.1603
 7027TIP3    H142640   1.870   0.623   7.402 -0.6119  1.5944 -0.8173
 7027TIP3    H242641   1.971   0.716   7.466 -1.3105  2.3766 -0.8244
 7028TIP3   OH242642   4.712   6.620   1.599 -0.0850 -0.0958 -0.2081
 7028TIP3    H142643   4.738   6.631   1.691 -1.3613  2.4988 -0.0831
 7028TIP3    H242644   4.789   6.581   1.557  1.3605  0.7638  1.5006
 7029TIP3   OH242645   2.308   1.955   0.362  0.1524  0.2765  0.5784
 7029TIP3    H142646   2.220   1.988   0.348  0.0685  0.3924  1.3250
 7029TIP3    H242647   2.336   1.994   0.445  0.4549 -0.6671  0.9471
 7030TIP3   OH242648   6.453   1.349   1.419 -1.1574  0.6345 -0.0151
 7030TIP3    H142649   6.540   1.308   1.425 -1.1095  0.8518  1.1206
 7030TIP3    H242650   6.392   1.279   1.441 -1.2238  0.6495 -0.1513
 7031TIP3   OH242651   0.641   3.606   1.868  0.1741 -0.3579  0.7341
 7031TIP3    H142652   0.582   3.587   1.941 -0.6528 -0.0749  0.1574
 7031TIP3    H242653   0.653   3.701   1.871  1.4642 -0.5172  1.4769
 7032TIP3   OH242654   4.008   5.621   6.931 -0.3870 -0.4844  0.0184
 7032TIP3    H142655   4.080   5.617   6.993  0.0192  1.2614 -0.2808
 7032TIP3    H242656   4.050   5.628   6.845 -0.9090 -0.5015 -0.2472
 7033TIP3   OH242657   5.474   0.659   1.145 -0.5052 -0.6639 -0.3613
 7033TIP3    H142658   5.459   0.649   1.239  1.2581 -1.3679 -0.1108
 7033TIP3    H242659   5.511   0.575   1.118  1.6295  0.4562 -1.1047
 7034TIP3   OH242660   5.146   3.320   8.183 -0.2875 -0.1927  0.2830
 7034TIP3    H142661   5.090   3.385   8.225 -0.7056 -0.4283  0.0881
 7034TIP3    H242662   5.090   3.278   8.118  0.1723 -0.2815 -0.0591
 7035TIP3   OH242663   6.165   6.212   7.304  0.0645 -0.0924 -0.0069
 7035TIP3    H142664   6.151   6.162   7.383  1.0605 -1.1654 -0.4840
 7035TIP3    H242665   6.258   6.199   7.283 -0.6809 -1.8747 -2.6665
 7036TIP3   OH242666   3.875   5.610   7.757  0.2159 -0.5544 -0.5079
 7036TIP3    H142667   3.949   5.660   7.724 -1.4619  1.4455 -1.3850
 7036TIP3    H242668   3.911   5.561   7.831  2.2609  0.8421 -0.5118
 7037TIP3   OH242669   6.100   0.758   1.551 -0.1238 -0.0468  0.3305
 7037TIP3    H142670   6.142   0.680   1.515 -0.1031  0.6522 -1.2318
 7037TIP3    H242671   6.128   0.760   1.643  1.5121 -0.7751 -0.1168
 7038TIP3   OH242672   2.007   5.502   7.515  0.0812 -0.2892  0.2011
 7038TIP3    H142673   1.921   5.462   7.524  0.2023 -0.3997  0.9472
 7038TIP3    H242674   1.991   5.596   7.525  0.0076 -0.2805  0.0082
 7039TIP3   OH242675   1.180   1.239   0.516 -0.0734 -0.0604 -0.4314
 7039TIP3    H142676   1.191   1.168   0.452 -0.1647  0.4859 -1.0687
 7039TIP3    H242677   1.264   1.242   0.562 -0.1013 -0.6453 -0.3263
 7040TIP3   OH242678   6.542   3.962   1.657  0.0786  0.6332  0.5974
 7040TIP3    H142679   6.481   4.003   1.595  0.9047  3.2808  1.3849
 7040TIP3    H242680   6.502   3.977   1.743  0.1402 -0.8094  0.8965
 7041TIP3   OH242681   2.024   5.634   0.450  0.3378 -0.0411 -0.2724
 7041TIP3    H142682   2.058   5.722   0.439  0.6198 -0.2775 -1.4311
 7041TIP3    H242683   1.929   5.644   0.442  0.0919  0.5369  2.4219
 7042TIP3   OH242684   6.184   2.761   0.930 -0.6094 -0.1592 -0.1687
 7042TIP3    H142685   6.124   2.761   0.855  0.3413 -0.6535 -0.9602
 7042TIP3    H242686   6.138   2.810   0.998 -1.6573 -0.0287 -0.9480
 7043TIP3   OH242687   6.881   3.762   1.158 -1.0493  0.4044  0.3364
 7043TIP3    H142688   6.949   3.714   1.110  1.0763  3.8824 -0.5122
 7043TIP3    H242689   6.909   3.756   1.250 -2.9794 -2.9781  0.8765
 7044TIP3   OH242690   0.602   3.984   6.416  0.2542  0.1300 -0.3353
 7044TIP3    H142691   0.594   4.074   6.385  1.1619  0.0801 -0.7398
 7044TIP3    H242692   0.648   3.991   6.500 -1.3812  0.1868  0.5970
 7045TIP3   OH242693   5.257   5.294   7.762  0.3629 -0.1504 -0.1555
 7045TIP3    H142694   5.162   5.290   7.770  0.3494 -1.2449 -0.5923
 7045TIP3    H242695   5.281   5.207   7.728  1.3871  0.5658 -1.3236
 7046TIP3   OH242696   0.575   1.720   7.146 -0.0308 -0.1351  0.3033
 7046TIP3    H142697   0.540   1.762   7.067  0.9990  0.1404 -0.0237
 7046TIP3    H242698   0.645   1.778   7.175 -0.3112 -0.3065  1.3535
 7047TIP3   OH242699   1.692   6.106   6.382  0.3528 -0.3422  0.4738
 7047TIP3    H142700   1.620   6.119   6.444 -0.5089  1.2762 -0.7807
 7047TIP3    H242701   1.740   6.189   6.383  0.8436 -0.6031 -0.3886
 7048TIP3   OH242702   5.199   4.989   0.958  0.0621 -0.4109  0.3514
 7048TIP3    H142703   5.172   4.980   1.049 -1.1352  0.9519  0.1733
 7048TIP3    H242704   5.186   5.082   0.938 -0.7975 -0.8621 -1.5223
 7049TIP3   OH242705   4.250   6.507   1.705 -0.0825  0.5022  0.3868
 7049TIP3    H142706   4.282   6.576   1.763 -0.7444  0.1139  1.2366
 7049TIP3    H242707   4.329   6.457   1.683  0.4902  1.8563 -0.7165
 7050TIP3   OH242708   5.057   1.486   7.473 -0.0006  0.0299 -0.1987
 7050TIP3    H142709   5.143   1.500   7.514 -0.7704  0.8681  1.2047
 7050TIP3    H242710   5.025   1.404   7.510  0.4351 -0.6183 -1.2054
 7051TIP3   OH242711   2.152   3.490   2.061 -0.3778  0.0891  0.6179
 7051TIP3    H142712   2.112   3.435   1.995  0.4448  0.4473 -0.2047
 7051TIP3    H242713   2.092   3.486   2.136 -1.3556 -0.2682 -0.1666
 7052TIP3   OH242714   4.003   2.118   1.213  0.0388 -0.6758 -0.0673
 7052TIP3    H142715   3.967   2.089   1.296 -0.3162  1.1179  0.4325
 7052TIP3    H242716   3.926   2.144   1.161  0.4162  1.1233  0.2119
 7053TIP3   OH242717   2.367   6.380   0.725  0.7716 -0.2035  0.1255
 7053TIP3    H142718   2.365   6.423   0.810 -1.7088  0.2856 -0.1094
 7053TIP3    H242719   2.402   6.446   0.666 -1.2465  0.9085  0.1067
 7054TIP3   OH242720   1.060   2.125   0.442 -0.0345 -0.1024 -0.0626
 7054TIP3    H142721   1.044   2.093   0.353  0.5533  0.7091 -0.4683
 7054TIP3    H242722   1.090   2.215   0.430  1.1254 -0.3458  0.8963
 7055TIP3   OH242723   0.831   6.668   1.851 -0.0443  0.0597  0.0653
 7055TIP3    H142724   0.916   6.656   1.892 -0.1223  0.9644  0.5195
 7055TIP3    H242725   0.851   6.677   1.757  0.1527 -1.7633 -0.1062
 7056TIP3   OH242726   4.840   3.161   8.173 -0.0400  0.5390  0.0735
 7056TIP3    H142727   4.817   3.085   8.226 -0.7343  1.8580  1.7381
 7056TIP3    H242728   4.762   3.179   8.120  0.1683  0.0578 -0.4154
 7057TIP3   OH242729   6.828   1.478   8.483  0.1406  0.7257  0.1200
 7057TIP3    H142730   6.775   1.485   8.403 -0.2343  1.1561  0.3993
 7057TIP3    H242731   6.803   1.395   8.522  1.2189 -0.0721 -0.8408
 7058TIP3   OH242732   6.783   4.755   1.920  0.2008  1.1276 -0.6851
 7058TIP3    H142733   6.873   4.738   1.949  0.1434  0.9444 -0.6151
 7058TIP3    H242734   6.728   4.730   1.994 -0.0469 -0.8268 -1.4561
 7059TIP3   OH242735   0.645   3.877   1.855  0.1339  0.1120  0.3028
 7059TIP3    H142736   0.571   3.927   1.822 -0.0441  2.1551  3.4209
 7059TIP3    H242737   0.711   3.943   1.878  2.6245 -1.5624 -1.4116
 7060TIP3   OH242738   1.904   5.634   6.307  0.0302  0.0183  0.2586
 7060TIP3    H142739   1.836   5.591   6.255  0.5887 -0.0119 -0.4709
 7060TIP3    H242740   1.870   5.722   6.324 -0.5646 -0.2846  0.6581
 7061TIP3   OH242741   5.423   2.962   8.606 -0.3243  0.6680 -0.2563
 7061TIP3    H142742   5.507   2.935   8.642 -0.4625  1.1873  0.4805
 7061TIP3    H242743   5.444   3.034   8.547  0.0360 -0.9340 -2.1743
 7062TIP3   OH242744   6.451   4.758   1.624 -0.1561 -0.6111  0.3525
 7062TIP3    H142745   6.529   4.766   1.570 -1.0044 -2.8414 -1.3691
 7062TIP3    H242746   6.378   4.777   1.565 -1.1039 -2.8642  0.6837
 7063TIP3   OH242747   4.647   6.416   1.815 -0.0005 -0.6555 -0.0887
 7063TIP3    H142748   4.601   6.465   1.746  0.7172  0.9096  0.4976
 7063TIP3    H242749   4.737   6.411   1.785  0.7478  1.6945  1.5211
 7064TIP3   OH242750   4.392   2.518   0.352 -0.2609 -0.4509 -0.8626
 7064TIP3    H142751   4.443   2.597   0.333 -0.7147 -0.0957 -0.6191
 7064TIP3    H242752   4.362   2.487   0.267  2.1889 -1.9277 -1.2764
 7065TIP3   OH242753   1.720   5.646   8.055  0.0158 -0.3671  0.2373
 7065TIP3    H142754   1.688   5.728   8.017  0.4705 -0.3523 -0.1310
 7065TIP3    H242755   1.787   5.616   7.993  1.9358  0.4628  1.7806
 7066TIP3   OH242756   0.101   5.062   6.309  0.6503  0.4822 -0.1601
 7066TIP3    H142757   0.135   5.010   6.236  0.6105  0.4189 -0.1339
 7066TIP3    H242758   0.106   5.152   6.279 -1.1080  0.3432 -0.9748
 7067TIP3   OH242759   5.137   2.810   1.442  0.0101  0.2625 -0.2806
 7067TIP3    H142760   5.158   2.903   1.444 -2.2197  0.8326 -1.0033
 7067TIP3    H242761   5.191   2.775   1.371  1.9909  0.6395  0.9563
 7068TIP3   OH242762   6.228   2.573   2.157  0.8644 -0.2283  0.5899
 7068TIP3    H142763   6.241   2.667   2.161  1.7793 -0.2734 -0.5813
 7068TIP3    H242764   6.299   2.536   2.210  1.2031 -0.2737  0.1166
 7069TIP3   OH242765   1.698   2.818   8.583  0.1192  0.0494 -0.2614
 7069TIP3    H142766   1.785   2.851   8.560 -0.4529  1.2920 -0.7261
 7069TIP3    H242767   1.708   2.723   8.585  1.4478  0.1690 -0.4485
 7070TIP3   OH242768   6.098   2.394   1.714 -0.2288  0.1026 -0.1076
 7070TIP3    H142769   6.047   2.350   1.782 -0.4844  0.1434 -0.2705
 7070TIP3    H242770   6.165   2.444   1.762 -0.1193 -0.2308  0.0910
 7071TIP3   OH242771   5.749   2.917   7.174  0.6876 -0.6518 -0.0196
 7071TIP3    H142772   5.829   2.875   7.143  0.8806 -1.2856  1.2726
 7071TIP3    H242773   5.778   2.999   7.213  0.6226 -0.5798 -0.1199
 7072TIP3   OH242774   0.719   5.275   6.967  0.0408 -0.2392 -0.1878
 7072TIP3    H142775   0.807   5.262   7.000  0.4757 -0.9351 -1.5407
 7072TIP3    H242776   0.731   5.299   6.875 -1.1060  1.6556  0.0979
 7073LIG     C142777   1.556   5.691   4.061  0.3849 -0.0579 -0.6312
 7073LIG     C242778   1.608   5.638   3.929 -0.2539  0.3332 -0.0407
 7073LIG     C342779   1.692   5.514   3.959 -0.4644  0.9242  0.2661
 7073LIG      O42780   1.704   5.732   3.880 -0.0848  0.6107 -0.7308
 7073LIG     H142781   1.488   5.617   4.108 -1.9920  1.2419 -1.8654
 7073LIG     H242782   1.495   5.781   4.039 -1.1803 -1.1357 -0.8424
 7073LIG     H342783   1.629   5.705   4.143 -1.0762  0.8455  0.5695
 7073LIG     H442784   1.524   5.624   3.857  0.3252  0.0414 -0.6755
 7073LIG     H542785   1.626   5.432   3.993  0.2332 -0.3726 -1.3460
 7073LIG     H642786   1.765   5.534   4.040 -1.2302 -2.5663  1.9732
 7073LIG     H742787   1.740   5.490   3.862 -0.6409  0.2010  0.3514
 7073LIG     H842788   1.724   5.705   3.790  2.2042  0.2337 -0.1631
   6.89753   6.89753   8.61743
